<event>
 4    1  0.1643710E+006  0.2000277E+02  0.7546771E-02  0.1533993E+00
          4   -1    0    0  503    0 -0.00000000000E+00  0.00000000000E+00  0.98589128685E+02  0.98589128685E+02  0.00000000000E+00 0.  1.
         21   -1    0    0  501  502  0.00000000000E+00 -0.00000000000E+00 -0.98987394583E+01  0.98987394583E+01  0.00000000000E+00 0.  1.
         21    1    1    2  503  502  0.92682798586E+01 -0.17725959823E+02  0.86011172737E+02  0.88306469178E+02  0.00000000000E+00 0.  1.
          4    1    1    2  501    0 -0.92682798586E+01  0.17725959823E+02  0.26792164899E+01  0.20181398965E+02  0.00000000000E+00 0.  1.
</event>
<event>
 4    1  0.1643710E+006  0.3467503E+02  0.7546771E-02  0.1382862E+00
         21   -1    0    0  501  502  0.00000000000E+00  0.00000000000E+00  0.26584286754E+01  0.26584286754E+01  0.00000000000E+00 0. -1.
          2   -1    0    0  503    0 -0.00000000000E+00 -0.00000000000E+00 -0.57294277143E+03  0.57294277143E+03  0.00000000000E+00 0.  1.
         21    1    1    2  503  502  0.34215919551E+02 -0.56239008712E+01 -0.15306720967E+03  0.15694562144E+03  0.00000000000E+00 0. -1.
          2    1    1    2  501    0 -0.34215919551E+02  0.56239008712E+01 -0.41721713309E+03  0.41865557867E+03  0.00000000000E+00 0.  1.
</event>
<event>
 4    1  0.1643710E+006  0.2868425E+02  0.7546771E-02  0.1431386E+00
         21   -1    0    0  501  502  0.00000000000E+00  0.00000000000E+00  0.11933930522E+01  0.11933930522E+01  0.00000000000E+00 0. -1.
          2   -1    0    0  503    0 -0.00000000000E+00 -0.00000000000E+00 -0.11315194855E+04  0.11315194855E+04  0.00000000000E+00 0. -1.
         21    1    1    2  503  502 -0.24143348278E+02  0.15488211351E+02 -0.21116274358E+03  0.21310206529E+03  0.00000000000E+00 0. -1.
          2    1    1    2  501    0  0.24143348278E+02 -0.15488211351E+02 -0.91916334884E+03  0.91961081323E+03  0.00000000000E+00 0. -1.
</event>
<event>
 4    1  0.1643710E+006  0.4546369E+02  0.7546771E-02  0.1319137E+00
         21   -1    0    0  501  502  0.00000000000E+00  0.00000000000E+00  0.45162008787E+02  0.45162008787E+02  0.00000000000E+00 0. -1.
          1   -1    0    0  503    0 -0.00000000000E+00 -0.00000000000E+00 -0.50946841390E+02  0.50946841390E+02  0.00000000000E+00 0. -1.
         21    1    1    2  503  502 -0.22221230313E+02 -0.39663133471E+02  0.12429626392E+02  0.47132184817E+02  0.00000000000E+00 0. -1.
          1    1    1    2  501    0  0.22221230313E+02  0.39663133471E+02 -0.18214458995E+02  0.48976665360E+02  0.00000000000E+00 0. -1.
</event>
<event>
 4    1  0.1643710E+006  0.2687093E+02  0.7546771E-02  0.1448909E+00
         21   -1    0    0  501  502  0.00000000000E+00  0.00000000000E+00  0.26465902601E+03  0.26465902601E+03  0.00000000000E+00 0. -1.
          1   -1    0    0  503    0 -0.00000000000E+00 -0.00000000000E+00 -0.19575434317E+02  0.19575434317E+02  0.00000000000E+00 0. -1.
         21    1    1    2  503  502 -0.23263194424E+02 -0.13448809101E+02  0.25438421045E+03  0.25579947852E+03  0.00000000000E+00 0. -1.
          1    1    1    2  501    0  0.23263194424E+02  0.13448809101E+02 -0.93006187639E+01  0.28434981808E+02  0.00000000000E+00 0. -1.
</event>
<event>
 4    1  0.1643710E+006  0.2149312E+02  0.7546771E-02  0.1512339E+00
          1   -1    0    0  502    0 -0.00000000000E+00  0.00000000000E+00  0.13084472744E+04  0.13084472744E+04  0.00000000000E+00 0.  1.
         21   -1    0    0  503  502  0.00000000000E+00 -0.00000000000E+00 -0.46922807061E+00  0.46922807061E+00  0.00000000000E+00 0. -1.
         21    1    1    2  503  501 -0.21029797671E+02 -0.44386921996E+01  0.32834588012E+03  0.32904858513E+03  0.00000000000E+00 0. -1.
          1    1    1    2  501    0  0.21029797671E+02  0.44386921996E+01  0.97963216619E+03  0.97986791733E+03  0.00000000000E+00 0.  1.
</event>
<event>
 4    1  0.1643710E+006  0.2392243E+02  0.7546771E-02  0.1481229E+00
         21   -1    0    0  501  502  0.00000000000E+00  0.00000000000E+00  0.26194803834E+02  0.26194803834E+02  0.00000000000E+00 0.  1.
         -1   -1    0    0    0  501 -0.00000000000E+00 -0.00000000000E+00 -0.36681555279E+02  0.36681555279E+02  0.00000000000E+00 0.  1.
         21    1    1    2  503  502  0.21248239158E+02  0.10990677166E+02  0.14749170929E+02  0.28103748771E+02  0.00000000000E+00 0.  1.
         -1    1    1    2    0  503 -0.21248239158E+02 -0.10990677166E+02 -0.25235922375E+02  0.34772610342E+02  0.00000000000E+00 0.  1.
</event>
<event>
 4    1  0.1643710E+006  0.2113723E+02  0.7546771E-02  0.1517314E+00
         -3   -1    0    0    0  501 -0.00000000000E+00  0.00000000000E+00  0.29923447603E+03  0.29923447603E+03  0.00000000000E+00 0.  1.
         21   -1    0    0  501  502  0.00000000000E+00 -0.00000000000E+00 -0.18028222011E+01  0.18028222011E+01  0.00000000000E+00 0. -1.
         21    1    1    2  503  502  0.20940219717E+02  0.28791981762E+01  0.86326490094E+02  0.88876574393E+02  0.00000000000E+00 0. -1.
         -3    1    1    2    0  503 -0.20940219717E+02 -0.28791981762E+01  0.21110516374E+03  0.21216072384E+03  0.00000000000E+00 0.  1.
</event>
<event>
 4    1  0.1643710E+006  0.2213613E+02  0.7546771E-02  0.1503640E+00
         -1   -1    0    0    0  501 -0.00000000000E+00  0.00000000000E+00  0.11811087186E+04  0.11811087186E+04  0.00000000000E+00 0.  1.
         21   -1    0    0  501  502  0.00000000000E+00 -0.00000000000E+00 -0.49291196883E+01  0.49291196883E+01  0.00000000000E+00 0.  1.
         21    1    1    2  503  502  0.63549811810E+01  0.21204302415E+02  0.20575788356E+02  0.30222033241E+02  0.00000000000E+00 0.  1.
         -1    1    1    2    0  503 -0.63549811810E+01 -0.21204302415E+02  0.11556038106E+04  0.11558158051E+04  0.00000000000E+00 0.  1.
</event>
<event>
 4    1  0.1643710E+006  0.3073072E+02  0.7546771E-02  0.1413351E+00
          1   -1    0    0  502    0 -0.00000000000E+00  0.00000000000E+00  0.14941785306E+03  0.14941785306E+03  0.00000000000E+00 0. -1.
         21   -1    0    0  503  502  0.00000000000E+00 -0.00000000000E+00 -0.72429269915E+01  0.72429269915E+01  0.00000000000E+00 0. -1.
         21    1    1    2  503  501  0.80737394980E+01  0.29651167761E+02  0.43131888975E+02  0.52959766480E+02  0.00000000000E+00 0. -1.
          1    1    1    2  501    0 -0.80737394980E+01 -0.29651167761E+02  0.99043037090E+02  0.10370101357E+03  0.00000000000E+00 0. -1.
</event>
<event>
 4    1  0.1643710E+006  0.2071109E+02  0.7546771E-02  0.1523430E+00
         -4   -1    0    0    0  501 -0.00000000000E+00  0.00000000000E+00  0.79542950145E+03  0.79542950145E+03  0.00000000000E+00 0. -1.
         21   -1    0    0  501  502  0.00000000000E+00 -0.00000000000E+00 -0.19630441555E+03  0.19630441555E+03  0.00000000000E+00 0.  1.
         21    1    1    2  503  502 -0.16027109025E+02 -0.13117972759E+02 -0.19562284930E+03  0.19671616253E+03  0.00000000000E+00 0.  1.
         -4    1    1    2    0  503  0.16027109025E+02  0.13117972759E+02  0.79474793519E+03  0.79501775447E+03  0.00000000000E+00 0. -1.
</event>
<event>
 4    1  0.1643710E+006  0.2460794E+02  0.7546771E-02  0.1473237E+00
         21   -1    0    0  503  502  0.00000000000E+00  0.00000000000E+00  0.20588162155E+02  0.20588162155E+02  0.00000000000E+00 0.  1.
         -3   -1    0    0    0  501 -0.00000000000E+00 -0.00000000000E+00 -0.56917619864E+02  0.56917619864E+02  0.00000000000E+00 0.  1.
         21    1    1    2  503  501 -0.24083705911E+02 -0.50523187213E+01  0.87746103686E+01  0.26125554578E+02  0.00000000000E+00 0.  1.
         -3    1    1    2    0  502  0.24083705911E+02  0.50523187213E+01 -0.45104068077E+02  0.51380227442E+02  0.00000000000E+00 0.  1.
</event>
<event>
 4    1  0.1643710E+006  0.2065076E+02  0.7546771E-02  0.1524310E+00
         -2   -1    0    0    0  501 -0.00000000000E+00  0.00000000000E+00  0.58591323706E+03  0.58591323706E+03  0.00000000000E+00 0. -1.
         21   -1    0    0  503  502  0.00000000000E+00 -0.00000000000E+00 -0.81476395449E+00  0.81476395449E+00  0.00000000000E+00 0.  1.
         21    1    1    2  503  501  0.20470712074E+02 -0.27209845714E+01  0.19673080476E+03  0.19781168659E+03  0.00000000000E+00 0.  1.
         -2    1    1    2    0  502 -0.20470712074E+02  0.27209845714E+01  0.38836766834E+03  0.38891631442E+03  0.00000000000E+00 0. -1.
</event>
<event>
 4    1  0.1643710E+006  0.2101400E+02  0.7546771E-02  0.1519065E+00
          2   -1    0    0  502    0 -0.00000000000E+00  0.00000000000E+00  0.56505011081E+01  0.56505011081E+01  0.00000000000E+00 0.  1.
         21   -1    0    0  503  502  0.00000000000E+00 -0.00000000000E+00 -0.75982931585E+03  0.75982931585E+03  0.00000000000E+00 0.  1.
         21    1    1    2  503  501 -0.14231937924E+02 -0.15460929381E+02 -0.73961250851E+03  0.73991097514E+03  0.00000000000E+00 0.  1.
          2    1    1    2  501    0  0.14231937924E+02  0.15460929381E+02 -0.14566306229E+02  0.25568841811E+02  0.00000000000E+00 0.  1.
</event>
<event>
 4    1  0.1643710E+006  0.2262536E+02  0.7546771E-02  0.1497257E+00
          1   -1    0    0  503    0 -0.00000000000E+00  0.00000000000E+00  0.84382207856E+03  0.84382207856E+03  0.00000000000E+00 0.  1.
         21   -1    0    0  501  502  0.00000000000E+00 -0.00000000000E+00 -0.12284993445E+01  0.12284993445E+01  0.00000000000E+00 0.  1.
         21    1    1    2  503  502 -0.17420229616E+01 -0.22558196291E+02  0.12068436743E+03  0.12278690242E+03  0.00000000000E+00 0.  1.
          1    1    1    2  501    0  0.17420229616E+01  0.22558196291E+02  0.72190921179E+03  0.72226367549E+03  0.00000000000E+00 0.  1.
</event>
<event>
 4    1  0.1643710E+006  0.3033478E+02  0.7546771E-02  0.1416709E+00
         -1   -1    0    0    0  501 -0.00000000000E+00  0.00000000000E+00  0.85981450499E+02  0.85981450499E+02  0.00000000000E+00 0.  1.
         21   -1    0    0  503  502  0.00000000000E+00 -0.00000000000E+00 -0.26869470840E+03  0.26869470840E+03  0.00000000000E+00 0. -1.
         21    1    1    2  503  501 -0.20472785424E+02 -0.22384463816E+02 -0.26512707202E+03  0.26685682206E+03  0.00000000000E+00 0. -1.
         -1    1    1    2    0  502  0.20472785424E+02  0.22384463816E+02  0.82413814124E+02  0.87819336833E+02  0.00000000000E+00 0.  1.
</event>
<event>
 4    1  0.1643710E+006  0.6537446E+02  0.7546771E-02  0.1242590E+00
         21   -1    0    0  503  502  0.00000000000E+00  0.00000000000E+00  0.90331335792E+02  0.90331335792E+02  0.00000000000E+00 0. -1.
         -2   -1    0    0    0  501 -0.00000000000E+00 -0.00000000000E+00 -0.50921411915E+02  0.50921411915E+02  0.00000000000E+00 0.  1.
         21    1    1    2  503  501 -0.61077853448E+02 -0.23309135211E+02  0.38506458263E+02  0.75872045537E+02  0.00000000000E+00 0. -1.
         -2    1    1    2    0  502  0.61077853448E+02  0.23309135211E+02  0.90346561428E+00  0.65380702170E+02  0.00000000000E+00 0.  1.
</event>
<event>
 4    1  0.1643710E+006  0.2231843E+02  0.7546771E-02  0.1501239E+00
         -2   -1    0    0    0  501 -0.00000000000E+00  0.00000000000E+00  0.16348072883E+03  0.16348072883E+03  0.00000000000E+00 0. -1.
         21   -1    0    0  503  502  0.00000000000E+00 -0.00000000000E+00 -0.32351446764E+01  0.32351446764E+01  0.00000000000E+00 0. -1.
         21    1    1    2  503  501  0.18622718256E+02  0.12300683973E+02  0.60016125228E+02  0.64031615229E+02  0.00000000000E+00 0. -1.
         -2    1    1    2    0  502 -0.18622718256E+02 -0.12300683973E+02  0.10022945892E+03  0.10268425827E+03  0.00000000000E+00 0. -1.
</event>
<event>
 4    1  0.1643710E+006  0.2658569E+02  0.7546771E-02  0.1451815E+00
         21   -1    0    0  503  502  0.00000000000E+00  0.00000000000E+00  0.82718012315E+02  0.82718012315E+02  0.00000000000E+00 0. -1.
          4   -1    0    0  502    0 -0.00000000000E+00 -0.00000000000E+00 -0.19385793527E+02  0.19385793527E+02  0.00000000000E+00 0.  1.
         21    1    1    2  503  501 -0.43789912516E+00 -0.26582087205E+02  0.69843570924E+02  0.74732345844E+02  0.00000000000E+00 0. -1.
          4    1    1    2  501    0  0.43789912516E+00  0.26582087205E+02 -0.65113521366E+01  0.27371459999E+02  0.00000000000E+00 0.  1.
</event>
<event>
 4    1  0.1643710E+006  0.2513217E+02  0.7546771E-02  0.1467330E+00
          4   -1    0    0  503    0 -0.00000000000E+00  0.00000000000E+00  0.10054825778E+02  0.10054825778E+02  0.00000000000E+00 0.  1.
         21   -1    0    0  501  502  0.00000000000E+00 -0.00000000000E+00 -0.68973249077E+02  0.68973249077E+02  0.00000000000E+00 0. -1.
         21    1    1    2  503  502  0.55475311537E+01  0.24512256381E+02 -0.41263170136E+02  0.48314335600E+02  0.00000000000E+00 0. -1.
          4    1    1    2  501    0 -0.55475311537E+01 -0.24512256381E+02 -0.17655253163E+02  0.30713739255E+02  0.00000000000E+00 0.  1.
</event>
<event>
 4    1  0.1643710E+006  0.2110726E+02  0.7546771E-02  0.1517739E+00
         21   -1    0    0  503  502  0.00000000000E+00  0.00000000000E+00  0.11163867391E+01  0.11163867391E+01  0.00000000000E+00 0.  1.
         -2   -1    0    0    0  501 -0.00000000000E+00 -0.00000000000E+00 -0.47070155547E+03  0.47070155547E+03  0.00000000000E+00 0. -1.
         21    1    1    2  503  501 -0.53246878197E+01 -0.20424594508E+02 -0.14276371467E+03  0.14431560757E+03  0.00000000000E+00 0.  1.
         -2    1    1    2    0  502  0.53246878197E+01  0.20424594508E+02 -0.32682145406E+03  0.32750233464E+03  0.00000000000E+00 0. -1.
</event>
<event>
 4    1  0.1643710E+006  0.3353245E+02  0.7546771E-02  0.1391185E+00
          2   -1    0    0  503    0 -0.00000000000E+00  0.00000000000E+00  0.11459519854E+03  0.11459519854E+03  0.00000000000E+00 0. -1.
         21   -1    0    0  501  502  0.00000000000E+00 -0.00000000000E+00 -0.34989852238E+02  0.34989852238E+02  0.00000000000E+00 0.  1.
         21    1    1    2  503  502  0.62222342813E+01 -0.32950096239E+02 -0.23642006316E+02  0.41028886217E+02  0.00000000000E+00 0.  1.
          2    1    1    2  501    0 -0.62222342813E+01  0.32950096239E+02  0.10324735262E+03  0.10855616456E+03  0.00000000000E+00 0. -1.
</event>
<event>
 4    1  0.1643710E+006  0.2791522E+02  0.7546771E-02  0.1438625E+00
          2   -1    0    0  503    0 -0.00000000000E+00  0.00000000000E+00  0.14235903897E+03  0.14235903897E+03  0.00000000000E+00 0.  1.
         21   -1    0    0  501  502  0.00000000000E+00 -0.00000000000E+00 -0.55656479062E+01  0.55656479062E+01  0.00000000000E+00 0.  1.
         21    1    1    2  503  502  0.73303675597E+01  0.26935578809E+02  0.58900673347E+02  0.65180894555E+02  0.00000000000E+00 0.  1.
          2    1    1    2  501    0 -0.73303675597E+01 -0.26935578809E+02  0.77892717717E+02  0.82743792321E+02  0.00000000000E+00 0.  1.
</event>
<event>
 4    1  0.1643710E+006  0.2481371E+02  0.7546771E-02  0.1470898E+00
         21   -1    0    0  501  502  0.00000000000E+00  0.00000000000E+00  0.24014405296E+03  0.24014405296E+03  0.00000000000E+00 0. -1.
          2   -1    0    0  503    0 -0.00000000000E+00 -0.00000000000E+00 -0.91875720372E+01  0.91875720372E+01  0.00000000000E+00 0.  1.
         21    1    1    2  503  502  0.23030645390E+02  0.92363177354E+01  0.22132909675E+03  0.22271571400E+03  0.00000000000E+00 0. -1.
          2    1    1    2  501    0 -0.23030645390E+02 -0.92363177354E+01  0.96273841710E+01  0.26615911000E+02  0.00000000000E+00 0.  1.
</event>
<event>
 4    1  0.1643710E+006  0.2340317E+02  0.7546771E-02  0.1487497E+00
         21   -1    0    0  503  502  0.00000000000E+00  0.00000000000E+00  0.18008487657E+02  0.18008487657E+02  0.00000000000E+00 0. -1.
         -1   -1    0    0    0  501 -0.00000000000E+00 -0.00000000000E+00 -0.23417284447E+03  0.23417284447E+03  0.00000000000E+00 0.  1.
         21    1    1    2  503  501  0.15906808528E+02 -0.17166296437E+02  0.95356122652E+01  0.25271252288E+02  0.00000000000E+00 0. -1.
         -1    1    1    2    0  502 -0.15906808528E+02  0.17166296437E+02 -0.22569996908E+03  0.22691007984E+03  0.00000000000E+00 0.  1.
</event>
<event>
 4    1  0.1643710E+006  0.3492050E+02  0.7546771E-02  0.1381123E+00
         21   -1    0    0  503  502  0.00000000000E+00  0.00000000000E+00  0.34465534558E+03  0.34465534558E+03  0.00000000000E+00 0. -1.
         -1   -1    0    0    0  501 -0.00000000000E+00 -0.00000000000E+00 -0.42323263123E+02  0.42323263123E+02  0.00000000000E+00 0.  1.
         21    1    1    2  503  501 -0.22455375515E+02 -0.26743175682E+02  0.33639118395E+03  0.33819886158E+03  0.00000000000E+00 0. -1.
         -1    1    1    2    0  502  0.22455375515E+02  0.26743175682E+02 -0.34059101491E+02  0.48779747124E+02  0.00000000000E+00 0.  1.
</event>
<event>
 4    1  0.1643710E+006  0.3647410E+02  0.7546771E-02  0.1370486E+00
         21   -1    0    0  501  502  0.00000000000E+00  0.00000000000E+00  0.14575611812E+01  0.14575611812E+01  0.00000000000E+00 0.  1.
          2   -1    0    0  503    0 -0.00000000000E+00 -0.00000000000E+00 -0.92904858549E+03  0.92904858549E+03  0.00000000000E+00 0.  1.
         21    1    1    2  503  502  0.31601890150E+02 -0.18212107402E+02 -0.40213505691E+03  0.40378579013E+03  0.00000000000E+00 0.  1.
          2    1    1    2  501    0 -0.31601890150E+02  0.18212107402E+02 -0.52545596740E+03  0.52672035654E+03  0.00000000000E+00 0.  1.
</event>
<event>
 4    1  0.1643710E+006  0.2168698E+02  0.7546771E-02  0.1509678E+00
          1   -1    0    0  503    0 -0.00000000000E+00  0.00000000000E+00  0.24786049203E+03  0.24786049203E+03  0.00000000000E+00 0. -1.
         21   -1    0    0  501  502  0.00000000000E+00 -0.00000000000E+00 -0.32965553824E+02  0.32965553824E+02  0.00000000000E+00 0.  1.
         21    1    1    2  503  502 -0.89000590098E+01  0.19776599960E+02 -0.28864487866E+02  0.36103789498E+02  0.00000000000E+00 0.  1.
          1    1    1    2  501    0  0.89000590098E+01 -0.19776599960E+02  0.24375942607E+03  0.24472225636E+03  0.00000000000E+00 0. -1.
</event>
<event>
 4    1  0.1643710E+006  0.2148517E+02  0.7546771E-02  0.1512449E+00
          4   -1    0    0  503    0 -0.00000000000E+00  0.00000000000E+00  0.79974111702E+02  0.79974111702E+02  0.00000000000E+00 0.  1.
         21   -1    0    0  501  502  0.00000000000E+00 -0.00000000000E+00 -0.20751876889E+02  0.20751876889E+02  0.00000000000E+00 0.  1.
         21    1    1    2  503  502 -0.21232885518E+02  0.32828707344E+01 -0.13178321739E+02  0.25204777950E+02  0.00000000000E+00 0.  1.
          4    1    1    2  501    0  0.21232885518E+02 -0.32828707344E+01  0.72400556551E+02  0.75521210640E+02  0.00000000000E+00 0.  1.
</event>
<event>
 4    1  0.1643710E+006  0.2969889E+02  0.7546771E-02  0.1422231E+00
         -1   -1    0    0    0  501 -0.00000000000E+00  0.00000000000E+00  0.87988922290E+02  0.87988922290E+02  0.00000000000E+00 0.  1.
         21   -1    0    0  501  502  0.00000000000E+00 -0.00000000000E+00 -0.20879837961E+02  0.20879837961E+02  0.00000000000E+00 0. -1.
         21    1    1    2  503  502  0.28969200794E+02  0.65429081001E+01 -0.56951362307E+01  0.30240020135E+02  0.00000000000E+00 0. -1.
         -1    1    1    2    0  503 -0.28969200794E+02 -0.65429081001E+01  0.72804220559E+02  0.78628740116E+02  0.00000000000E+00 0.  1.
</event>
<event>
 4    1  0.1643710E+006  0.3256437E+02  0.7546771E-02  0.1398546E+00
         21   -1    0    0  503  502  0.00000000000E+00  0.00000000000E+00  0.18961168242E+02  0.18961168242E+02  0.00000000000E+00 0.  1.
         -4   -1    0    0    0  501 -0.00000000000E+00 -0.00000000000E+00 -0.48860072549E+03  0.48860072549E+03  0.00000000000E+00 0.  1.
         21    1    1    2  503  501  0.68349223087E+01  0.31839001486E+02  0.39956069952E+01  0.32808582015E+02  0.00000000000E+00 0.  1.
         -4    1    1    2    0  502 -0.68349223087E+01 -0.31839001486E+02 -0.47363516424E+03  0.47475331171E+03  0.00000000000E+00 0.  1.
</event>
<event>
 4    1  0.1643710E+006  0.2570587E+02  0.7546771E-02  0.1461060E+00
         21   -1    0    0  503  502  0.00000000000E+00  0.00000000000E+00  0.25453805981E+02  0.25453805981E+02  0.00000000000E+00 0.  1.
          2   -1    0    0  502    0 -0.00000000000E+00 -0.00000000000E+00 -0.48849818623E+02  0.48849818623E+02  0.00000000000E+00 0. -1.
         21    1    1    2  503  501 -0.25601808682E+02  0.23106814045E+01  0.13733119251E+02  0.29144303401E+02  0.00000000000E+00 0.  1.
          2    1    1    2  501    0  0.25601808682E+02 -0.23106814045E+01 -0.37129131893E+02  0.45159321203E+02  0.00000000000E+00 0. -1.
</event>
<event>
 4    1  0.1643710E+006  0.2270053E+02  0.7546771E-02  0.1496293E+00
         -4   -1    0    0    0  501 -0.00000000000E+00  0.00000000000E+00  0.42025921131E+02  0.42025921131E+02  0.00000000000E+00 0.  1.
         21   -1    0    0  503  502  0.00000000000E+00 -0.00000000000E+00 -0.10539934127E+03  0.10539934127E+03  0.00000000000E+00 0. -1.
         21    1    1    2  503  501 -0.21263744875E+02  0.79477829985E+01 -0.10097906372E+03  0.10349920488E+03  0.00000000000E+00 0. -1.
         -4    1    1    2    0  502  0.21263744875E+02 -0.79477829985E+01  0.37605643579E+02  0.43926057525E+02  0.00000000000E+00 0.  1.
</event>
<event>
 4    1  0.1643710E+006  0.2175495E+02  0.7546771E-02  0.1508753E+00
         21   -1    0    0  501  502  0.00000000000E+00  0.00000000000E+00  0.18211590621E+03  0.18211590621E+03  0.00000000000E+00 0. -1.
          3   -1    0    0  503    0 -0.00000000000E+00 -0.00000000000E+00 -0.67035694183E+02  0.67035694183E+02  0.00000000000E+00 0.  1.
         21    1    1    2  503  502  0.21597632134E+02 -0.26115468495E+01  0.17967732326E+03  0.18098955325E+03  0.00000000000E+00 0. -1.
          3    1    1    2  501    0 -0.21597632134E+02  0.26115468495E+01 -0.64597111235E+02  0.68162047143E+02  0.00000000000E+00 0.  1.
</event>
<event>
 4    1  0.1643710E+006  0.2435638E+02  0.7546771E-02  0.1476134E+00
         21   -1    0    0  501  502  0.00000000000E+00  0.00000000000E+00  0.47571331720E+03  0.47571331720E+03  0.00000000000E+00 0.  1.
         -3   -1    0    0    0  501 -0.00000000000E+00 -0.00000000000E+00 -0.83113326903E+01  0.83113326903E+01  0.00000000000E+00 0. -1.
         21    1    1    2  503  502  0.23434591294E+02  0.66372387114E+01  0.45681997795E+03  0.45746882436E+03  0.00000000000E+00 0.  1.
         -3    1    1    2    0  503 -0.23434591294E+02 -0.66372387114E+01  0.10582006561E+02  0.26555825531E+02  0.00000000000E+00 0. -1.
</event>
<event>
 4    1  0.1643710E+006  0.2153476E+02  0.7546771E-02  0.1511765E+00
         21   -1    0    0  503  502  0.00000000000E+00  0.00000000000E+00  0.67411073080E+02  0.67411073080E+02  0.00000000000E+00 0.  1.
         -3   -1    0    0    0  501 -0.00000000000E+00 -0.00000000000E+00 -0.88502367207E+01  0.88502367207E+01  0.00000000000E+00 0.  1.
         21    1    1    2  503  501 -0.94579630147E+01  0.19346653618E+02  0.47274300085E+02  0.51948104095E+02  0.00000000000E+00 0.  1.
         -3    1    1    2    0  502  0.94579630147E+01 -0.19346653618E+02  0.11286536274E+02  0.24313205705E+02  0.00000000000E+00 0.  1.
</event>
<event>
 4    1  0.1643710E+006  0.2395355E+02  0.7546771E-02  0.1480859E+00
         -2   -1    0    0    0  501 -0.00000000000E+00  0.00000000000E+00  0.16284215438E+03  0.16284215438E+03  0.00000000000E+00 0. -1.
         21   -1    0    0  503  502  0.00000000000E+00 -0.00000000000E+00 -0.64220637973E+01  0.64220637973E+01  0.00000000000E+00 0.  1.
         21    1    1    2  503  501 -0.18143206507E+02  0.15639583060E+02  0.21352235020E+02  0.32088789959E+02  0.00000000000E+00 0.  1.
         -2    1    1    2    0  502  0.18143206507E+02 -0.15639583060E+02  0.13506785556E+03  0.13717542822E+03  0.00000000000E+00 0. -1.
</event>
<event>
 4    1  0.1643710E+006  0.2183884E+02  0.7546771E-02  0.1507617E+00
         21   -1    0    0  503  502  0.00000000000E+00  0.00000000000E+00  0.10008088619E+02  0.10008088619E+02  0.00000000000E+00 0. -1.
          2   -1    0    0  502    0 -0.00000000000E+00 -0.00000000000E+00 -0.10395578110E+03  0.10395578110E+03  0.00000000000E+00 0. -1.
         21    1    1    2  503  501 -0.20756973885E+02 -0.67884495054E+01 -0.50394636626E+01  0.22412746497E+02  0.00000000000E+00 0. -1.
          2    1    1    2  501    0  0.20756973885E+02  0.67884495054E+01 -0.88908228815E+02  0.91551123218E+02  0.00000000000E+00 0. -1.
</event>
<event>
 4    1  0.1643710E+006  0.3039123E+02  0.7546771E-02  0.1416226E+00
          1   -1    0    0  502    0 -0.00000000000E+00  0.00000000000E+00  0.41024946337E+03  0.41024946337E+03  0.00000000000E+00 0.  1.
         21   -1    0    0  503  502  0.00000000000E+00 -0.00000000000E+00 -0.75340758141E+02  0.75340758141E+02  0.00000000000E+00 0. -1.
         21    1    1    2  503  501 -0.26867459989E+02  0.14204455551E+02 -0.71685568004E+02  0.77861721172E+02  0.00000000000E+00 0. -1.
          1    1    1    2  501    0  0.26867459989E+02 -0.14204455551E+02  0.40659427323E+03  0.40772850034E+03  0.00000000000E+00 0.  1.
</event>
<event>
 4    1  0.1643710E+006  0.2133140E+02  0.7546771E-02  0.1514586E+00
          2   -1    0    0  503    0 -0.00000000000E+00  0.00000000000E+00  0.35720446374E+02  0.35720446374E+02  0.00000000000E+00 0. -1.
         21   -1    0    0  501  502  0.00000000000E+00 -0.00000000000E+00 -0.13244251951E+02  0.13244251951E+02  0.00000000000E+00 0. -1.
         21    1    1    2  503  502 -0.17564716390E+02  0.12104103813E+02  0.16021796351E+02  0.26678203637E+02  0.00000000000E+00 0. -1.
          2    1    1    2  501    0  0.17564716390E+02 -0.12104103813E+02  0.64543980729E+01  0.22286494688E+02  0.00000000000E+00 0. -1.
</event>
<event>
 4    1  0.1643710E+006  0.2032778E+02  0.7546771E-02  0.1529083E+00
          3   -1    0    0  503    0 -0.00000000000E+00  0.00000000000E+00  0.65090708772E+02  0.65090708772E+02  0.00000000000E+00 0. -1.
         21   -1    0    0  501  502  0.00000000000E+00 -0.00000000000E+00 -0.60203484081E+02  0.60203484081E+02  0.00000000000E+00 0. -1.
         21    1    1    2  503  502  0.59905438621E+01  0.19425031709E+02 -0.56808480963E+02  0.60335909557E+02  0.00000000000E+00 0. -1.
          3    1    1    2  501    0 -0.59905438621E+01 -0.19425031709E+02  0.61695705654E+02  0.64958283297E+02  0.00000000000E+00 0. -1.
</event>
<event>
 4    1  0.1643710E+006  0.2436276E+02  0.7546771E-02  0.1476060E+00
         21   -1    0    0  503  502  0.00000000000E+00  0.00000000000E+00  0.17481209670E+02  0.17481209670E+02  0.00000000000E+00 0.  1.
          2   -1    0    0  502    0 -0.00000000000E+00 -0.00000000000E+00 -0.19102256341E+03  0.19102256341E+03  0.00000000000E+00 0. -1.
         21    1    1    2  503  501 -0.22898033032E+02  0.83201131928E+01  0.77631492829E+01  0.25569722076E+02  0.00000000000E+00 0.  1.
          2    1    1    2  501    0  0.22898033032E+02 -0.83201131928E+01 -0.18130450302E+03  0.18293405100E+03  0.00000000000E+00 0. -1.
</event>
<event>
 4    1  0.1643710E+006  0.2443979E+02  0.7546771E-02  0.1475169E+00
         21   -1    0    0  503  502  0.00000000000E+00  0.00000000000E+00  0.13197169687E+01  0.13197169687E+01  0.00000000000E+00 0. -1.
          2   -1    0    0  502    0 -0.00000000000E+00 -0.00000000000E+00 -0.78107454211E+03  0.78107454211E+03  0.00000000000E+00 0.  1.
         21    1    1    2  503  501  0.43321600821E+01  0.24052765047E+02 -0.13618897833E+03  0.13836452196E+03  0.00000000000E+00 0. -1.
          2    1    1    2  501    0 -0.43321600821E+01 -0.24052765047E+02 -0.64356584681E+03  0.64402973712E+03  0.00000000000E+00 0.  1.
</event>
<event>
 4    1  0.1643710E+006  0.2416585E+02  0.7546771E-02  0.1478355E+00
          2   -1    0    0  503    0 -0.00000000000E+00  0.00000000000E+00  0.40173487517E+03  0.40173487517E+03  0.00000000000E+00 0. -1.
         21   -1    0    0  501  502  0.00000000000E+00 -0.00000000000E+00 -0.31548589942E+02  0.31548589942E+02  0.00000000000E+00 0.  1.
         21    1    1    2  503  502  0.10671834961E+02  0.21681800565E+02 -0.26498624143E+02  0.35863151264E+02  0.00000000000E+00 0.  1.
          2    1    1    2  501    0 -0.10671834961E+02 -0.21681800565E+02  0.39668490937E+03  0.39742031385E+03  0.00000000000E+00 0. -1.
</event>
<event>
 4    1  0.1643710E+006  0.2192772E+02  0.7546771E-02  0.1506420E+00
         21   -1    0    0  501  502  0.00000000000E+00  0.00000000000E+00  0.30695488545E+01  0.30695488545E+01  0.00000000000E+00 0. -1.
          2   -1    0    0  503    0 -0.00000000000E+00 -0.00000000000E+00 -0.17498019533E+03  0.17498019533E+03  0.00000000000E+00 0.  1.
         21    1    1    2  503  502  0.11510289625E+02 -0.18663824410E+02 -0.57136479904E+02  0.61199693175E+02  0.00000000000E+00 0. -1.
          2    1    1    2  501    0 -0.11510289625E+02  0.18663824410E+02 -0.11477416657E+03  0.11685005101E+03  0.00000000000E+00 0.  1.
</event>
<event>
 4    1  0.1643710E+006  0.2092686E+02  0.7546771E-02  0.1520312E+00
          2   -1    0    0  503    0 -0.00000000000E+00  0.00000000000E+00  0.80774957650E+03  0.80774957650E+03  0.00000000000E+00 0.  1.
         21   -1    0    0  501  502  0.00000000000E+00 -0.00000000000E+00 -0.43961207629E+01  0.43961207629E+01  0.00000000000E+00 0.  1.
         21    1    1    2  503  502  0.78556802459E+01 -0.19396436938E+02  0.21467623025E+02  0.29979865183E+02  0.00000000000E+00 0.  1.
          2    1    1    2  501    0 -0.78556802459E+01  0.19396436938E+02  0.78188583271E+03  0.78216583208E+03  0.00000000000E+00 0.  1.
</event>
<event>
 4    1  0.1643710E+006  0.2283089E+02  0.7546771E-02  0.1494633E+00
          2   -1    0    0  502    0 -0.00000000000E+00  0.00000000000E+00  0.19287792186E+02  0.19287792186E+02  0.00000000000E+00 0. -1.
         21   -1    0    0  503  502  0.00000000000E+00 -0.00000000000E+00 -0.10903104248E+03  0.10903104248E+03  0.00000000000E+00 0. -1.
         21    1    1    2  503  501 -0.22604898566E+02  0.32043795246E+01 -0.10051438735E+03  0.10307468920E+03  0.00000000000E+00 0. -1.
          2    1    1    2  501    0  0.22604898566E+02 -0.32043795246E+01  0.10771137057E+02  0.25244145476E+02  0.00000000000E+00 0. -1.
</event>
<event>
 4    1  0.1643710E+006  0.2751262E+02  0.7546771E-02  0.1442526E+00
         -4   -1    0    0    0  501 -0.00000000000E+00  0.00000000000E+00  0.95100303840E+02  0.95100303840E+02  0.00000000000E+00 0. -1.
         21   -1    0    0  503  502  0.00000000000E+00 -0.00000000000E+00 -0.88128221758E+01  0.88128221758E+01  0.00000000000E+00 0. -1.
         21    1    1    2  503  501  0.84282185840E+01  0.26189874769E+02  0.26975725565E+02  0.38530950918E+02  0.00000000000E+00 0. -1.
         -4    1    1    2    0  502 -0.84282185840E+01 -0.26189874769E+02  0.59311756099E+02  0.65382175097E+02  0.00000000000E+00 0. -1.
</event>
<event>
 4    1  0.1643710E+006  0.2093774E+02  0.7546771E-02  0.1520156E+00
         21   -1    0    0  503  502  0.00000000000E+00  0.00000000000E+00  0.76722279782E+00  0.76722279782E+00  0.00000000000E+00 0. -1.
         -1   -1    0    0    0  501 -0.00000000000E+00 -0.00000000000E+00 -0.87125308084E+03  0.87125308084E+03  0.00000000000E+00 0.  1.
         21    1    1    2  503  501  0.95655483827E+01 -0.18624965981E+02 -0.17945466499E+03  0.18067198416E+03  0.00000000000E+00 0. -1.
         -1    1    1    2    0  502 -0.95655483827E+01  0.18624965981E+02 -0.69103119305E+03  0.69134831947E+03  0.00000000000E+00 0.  1.
</event>
<event>
 4    1  0.1643710E+006  0.2296102E+02  0.7546771E-02  0.1492988E+00
         21   -1    0    0  503  502  0.00000000000E+00  0.00000000000E+00  0.17539201692E+03  0.17539201692E+03  0.00000000000E+00 0. -1.
          3   -1    0    0  502    0 -0.00000000000E+00 -0.00000000000E+00 -0.31604817640E+01  0.31604817640E+01  0.00000000000E+00 0. -1.
         21    1    1    2  503  501 -0.29556971852E+00  0.22959114544E+02  0.10586084935E+03  0.10832233254E+03  0.00000000000E+00 0. -1.
          3    1    1    2  501    0  0.29556971852E+00 -0.22959114544E+02  0.66370685809E+02  0.70230166146E+02  0.00000000000E+00 0. -1.
</event>
<event>
 4    1  0.1643710E+006  0.3479643E+02  0.7546771E-02  0.1382000E+00
         21   -1    0    0  503  502  0.00000000000E+00  0.00000000000E+00  0.27564867060E+03  0.27564867060E+03  0.00000000000E+00 0.  1.
          3   -1    0    0  502    0 -0.00000000000E+00 -0.00000000000E+00 -0.10646695775E+02  0.10646695775E+02  0.00000000000E+00 0.  1.
         21    1    1    2  503  501 -0.12087913208E+02 -0.32629335762E+02  0.24221499557E+03  0.24470164544E+03  0.00000000000E+00 0.  1.
          3    1    1    2  501    0  0.12087913208E+02  0.32629335762E+02  0.22786979246E+02  0.41593720935E+02  0.00000000000E+00 0.  1.
</event>
<event>
 4    1  0.1643710E+006  0.2498250E+02  0.7546771E-02  0.1468999E+00
          3   -1    0    0  502    0 -0.00000000000E+00  0.00000000000E+00  0.18994737902E+02  0.18994737902E+02  0.00000000000E+00 0.  1.
         21   -1    0    0  503  502  0.00000000000E+00 -0.00000000000E+00 -0.36764465635E+02  0.36764465635E+02  0.00000000000E+00 0. -1.
         21    1    1    2  503  501  0.63031018393E+00  0.24974548344E+02 -0.17973011883E+02  0.30775875488E+02  0.00000000000E+00 0. -1.
          3    1    1    2  501    0 -0.63031018393E+00 -0.24974548344E+02  0.20328414898E+00  0.24983328049E+02  0.00000000000E+00 0.  1.
</event>
<event>
 4    1  0.1643710E+006  0.3571941E+02  0.7546771E-02  0.1375575E+00
         21   -1    0    0  501  502  0.00000000000E+00  0.00000000000E+00  0.11895791900E+02  0.11895791900E+02  0.00000000000E+00 0.  1.
          1   -1    0    0  503    0 -0.00000000000E+00 -0.00000000000E+00 -0.32205277105E+03  0.32205277105E+03  0.00000000000E+00 0. -1.
         21    1    1    2  503  502 -0.33419393119E+02 -0.12610341693E+02 -0.18713931390E+02  0.40324778761E+02  0.00000000000E+00 0.  1.
          1    1    1    2  501    0  0.33419393119E+02  0.12610341693E+02 -0.29144304776E+03  0.29362378418E+03  0.00000000000E+00 0. -1.
</event>
<event>
 4    1  0.1643710E+006  0.2115471E+02  0.7546771E-02  0.1517067E+00
         21   -1    0    0  503  502  0.00000000000E+00  0.00000000000E+00  0.23908958828E+03  0.23908958828E+03  0.00000000000E+00 0. -1.
         -2   -1    0    0    0  501 -0.00000000000E+00 -0.00000000000E+00 -0.19606507158E+01  0.19606507158E+01  0.00000000000E+00 0.  1.
         21    1    1    2  503  501  0.20325610350E+02  0.58644274557E+01  0.14422518005E+03  0.14576839337E+03  0.00000000000E+00 0. -1.
         -2    1    1    2    0  502 -0.20325610350E+02 -0.58644274557E+01  0.92903757518E+02  0.95281845629E+02  0.00000000000E+00 0.  1.
</event>
<event>
 4    1  0.1643710E+006  0.2913718E+02  0.7546771E-02  0.1427245E+00
         21   -1    0    0  503  502  0.00000000000E+00  0.00000000000E+00  0.17035805663E+02  0.17035805663E+02  0.00000000000E+00 0.  1.
          4   -1    0    0  502    0 -0.00000000000E+00 -0.00000000000E+00 -0.51921622011E+02  0.51921622011E+02  0.00000000000E+00 0.  1.
         21    1    1    2  503  501 -0.29090225567E+02 -0.16535623622E+01 -0.24355207608E+02  0.37975671550E+02  0.00000000000E+00 0.  1.
          4    1    1    2  501    0  0.29090225567E+02  0.16535623622E+01 -0.10530608740E+02  0.30981756123E+02  0.00000000000E+00 0.  1.
</event>
<event>
 4    1  0.1643710E+006  0.2061056E+02  0.7546771E-02  0.1524898E+00
         21   -1    0    0  503  502  0.00000000000E+00  0.00000000000E+00  0.39741980916E+01  0.39741980916E+01  0.00000000000E+00 0. -1.
          2   -1    0    0  502    0 -0.00000000000E+00 -0.00000000000E+00 -0.77172431960E+03  0.77172431960E+03  0.00000000000E+00 0.  1.
         21    1    1    2  503  501 -0.18568151953E+02 -0.89453350204E+01 -0.23886133809E+02  0.31549051870E+02  0.00000000000E+00 0. -1.
          2    1    1    2  501    0  0.18568151953E+02  0.89453350204E+01 -0.74386398770E+03  0.74414946582E+03  0.00000000000E+00 0.  1.
</event>
<event>
 4    1  0.1643710E+006  0.3627087E+02  0.7546771E-02  0.1371842E+00
         -2   -1    0    0    0  501 -0.00000000000E+00  0.00000000000E+00  0.10581571020E+03  0.10581571020E+03  0.00000000000E+00 0. -1.
         21   -1    0    0  503  502  0.00000000000E+00 -0.00000000000E+00 -0.12402912798E+03  0.12402912798E+03  0.00000000000E+00 0. -1.
         21    1    1    2  503  501  0.22541320119E+02 -0.28415920499E+02 -0.11811713785E+03  0.12356064869E+03  0.00000000000E+00 0. -1.
         -2    1    1    2    0  502 -0.22541320119E+02  0.28415920499E+02  0.99903720076E+02  0.10628418949E+03  0.00000000000E+00 0. -1.
</event>
<event>
 4    1  0.1643710E+006  0.2224165E+02  0.7546771E-02  0.1502247E+00
         21   -1    0    0  503  502  0.00000000000E+00  0.00000000000E+00  0.13916806869E+02  0.13916806869E+02  0.00000000000E+00 0.  1.
          1   -1    0    0  502    0 -0.00000000000E+00 -0.00000000000E+00 -0.95310577956E+03  0.95310577956E+03  0.00000000000E+00 0. -1.
         21    1    1    2  503  501  0.21081297273E+02  0.70901191741E+01  0.48148045172E+01  0.22756828144E+02  0.00000000000E+00 0.  1.
          1    1    1    2  501    0 -0.21081297273E+02 -0.70901191741E+01 -0.94400377721E+03  0.94426575829E+03  0.00000000000E+00 0. -1.
</event>
<event>
 4    1  0.1643710E+006  0.2422922E+02  0.7546771E-02  0.1477614E+00
         -2   -1    0    0    0  501 -0.00000000000E+00  0.00000000000E+00  0.12476508756E+02  0.12476508756E+02  0.00000000000E+00 0. -1.
         21   -1    0    0  503  502  0.00000000000E+00 -0.00000000000E+00 -0.20512488618E+03  0.20512488618E+03  0.00000000000E+00 0. -1.
         21    1    1    2  503  501 -0.10552499812E+02 -0.21810548198E+02 -0.19183444930E+03  0.19335850435E+03  0.00000000000E+00 0. -1.
         -2    1    1    2    0  502  0.10552499812E+02  0.21810548198E+02 -0.81392812026E+00  0.24242890585E+02  0.00000000000E+00 0. -1.
</event>
<event>
 4    1  0.1643710E+006  0.2798447E+02  0.7546771E-02  0.1437962E+00
         21   -1    0    0  501  502  0.00000000000E+00  0.00000000000E+00  0.15652090688E+01  0.15652090688E+01  0.00000000000E+00 0.  1.
          2   -1    0    0  503    0 -0.00000000000E+00 -0.00000000000E+00 -0.18953764966E+04  0.18953764966E+04  0.00000000000E+00 0.  1.
         21    1    1    2  503  502  0.47416322033E+01 -0.27579834413E+02 -0.13319562839E+03  0.13610365816E+03  0.00000000000E+00 0.  1.
          2    1    1    2  501    0 -0.47416322033E+01  0.27579834413E+02 -0.17606156592E+04  0.17608380476E+04  0.00000000000E+00 0.  1.
</event>
<event>
 4    1  0.1643710E+006  0.2529118E+02  0.7546771E-02  0.1465572E+00
         -1   -1    0    0    0  501 -0.00000000000E+00  0.00000000000E+00  0.34897421830E+02  0.34897421830E+02  0.00000000000E+00 0. -1.
         21   -1    0    0  503  502  0.00000000000E+00 -0.00000000000E+00 -0.46558893208E+03  0.46558893208E+03  0.00000000000E+00 0.  1.
         21    1    1    2  503  501 -0.20017667132E+02 -0.15457583991E+02 -0.46061369987E+03  0.46130751610E+03  0.00000000000E+00 0.  1.
         -1    1    1    2    0  502  0.20017667132E+02  0.15457583991E+02  0.29922189623E+02  0.39178837810E+02  0.00000000000E+00 0. -1.
</event>
<event>
 4    1  0.1643710E+006  0.2199033E+02  0.7546771E-02  0.1505581E+00
          2   -1    0    0  502    0 -0.00000000000E+00  0.00000000000E+00  0.55867720274E+03  0.55867720274E+03  0.00000000000E+00 0. -1.
         21   -1    0    0  503  502  0.00000000000E+00 -0.00000000000E+00 -0.11243081343E+01  0.11243081343E+01  0.00000000000E+00 0. -1.
         21    1    1    2  503  501  0.11448934248E+02 -0.18774887508E+02  0.14450266895E+03  0.14616632933E+03  0.00000000000E+00 0. -1.
          2    1    1    2  501    0 -0.11448934248E+02  0.18774887508E+02  0.41305022566E+03  0.41363518155E+03  0.00000000000E+00 0. -1.
</event>
<event>
 4    1  0.1643710E+006  0.2463179E+02  0.7546771E-02  0.1472965E+00
          2   -1    0    0  502    0 -0.00000000000E+00  0.00000000000E+00  0.11194202462E+04  0.11194202462E+04  0.00000000000E+00 0.  1.
         21   -1    0    0  503  502  0.00000000000E+00 -0.00000000000E+00 -0.48979760318E+01  0.48979760318E+01  0.00000000000E+00 0.  1.
         21    1    1    2  503  501  0.56949837689E+01 -0.23964396563E+02  0.27117325174E+02  0.36634334542E+02  0.00000000000E+00 0.  1.
          2    1    1    2  501    0 -0.56949837689E+01  0.23964396563E+02  0.10874049450E+04  0.10876838877E+04  0.00000000000E+00 0.  1.
</event>
<event>
 4    1  0.1643710E+006  0.3336628E+02  0.7546771E-02  0.1392427E+00
          3   -1    0    0  502    0 -0.00000000000E+00  0.00000000000E+00  0.81515881561E+02  0.81515881561E+02  0.00000000000E+00 0.  1.
         21   -1    0    0  503  502  0.00000000000E+00 -0.00000000000E+00 -0.88345752449E+02  0.88345752449E+02  0.00000000000E+00 0. -1.
         21    1    1    2  503  501 -0.28135872804E+02  0.17935467755E+02 -0.81505475936E+02  0.88070715619E+02  0.00000000000E+00 0. -1.
          3    1    1    2  501    0  0.28135872804E+02 -0.17935467755E+02  0.74675605048E+02  0.81790918391E+02  0.00000000000E+00 0.  1.
</event>
<event>
 4    1  0.1643710E+006  0.4044518E+02  0.7546771E-02  0.1345897E+00
         -3   -1    0    0    0  501 -0.00000000000E+00  0.00000000000E+00  0.42914443088E+03  0.42914443088E+03  0.00000000000E+00 0. -1.
         21   -1    0    0  503  502  0.00000000000E+00 -0.00000000000E+00 -0.83940315618E+01  0.83940315618E+01  0.00000000000E+00 0.  1.
         21    1    1    2  503  501  0.20201510546E+02  0.35038720433E+02  0.48738701089E+02  0.63334618825E+02  0.00000000000E+00 0.  1.
         -3    1    1    2    0  502 -0.20201510546E+02 -0.35038720433E+02  0.37201169823E+03  0.37420384362E+03  0.00000000000E+00 0. -1.
</event>
<event>
 4    1  0.1643710E+006  0.3870849E+02  0.7546771E-02  0.1356225E+00
          2   -1    0    0  502    0 -0.00000000000E+00  0.00000000000E+00  0.22419383249E+04  0.22419383249E+04  0.00000000000E+00 0. -1.
         21   -1    0    0  503  502  0.00000000000E+00 -0.00000000000E+00 -0.66904458977E+00  0.66904458977E+00  0.00000000000E+00 0. -1.
         21    1    1    2  503  501  0.38062172410E+02  0.70440253324E+01  0.11573647315E+04  0.11580118605E+04  0.00000000000E+00 0. -1.
          2    1    1    2  501    0 -0.38062172410E+02 -0.70440253324E+01  0.10839045488E+04  0.10845955090E+04  0.00000000000E+00 0. -1.
</event>
<event>
 4    1  0.1643710E+006  0.3181035E+02  0.7546771E-02  0.1404491E+00
         -2   -1    0    0    0  501 -0.00000000000E+00  0.00000000000E+00  0.37132529307E+03  0.37132529307E+03  0.00000000000E+00 0.  1.
         21   -1    0    0  501  502  0.00000000000E+00 -0.00000000000E+00 -0.97582390091E+01  0.97582390091E+01  0.00000000000E+00 0. -1.
         21    1    1    2  503  502  0.20506168332E+02 -0.24318621913E+02  0.19020568372E+02  0.37063193772E+02  0.00000000000E+00 0. -1.
         -2    1    1    2    0  503 -0.20506168332E+02  0.24318621913E+02  0.34254648569E+03  0.34402033831E+03  0.00000000000E+00 0.  1.
</event>
<event>
 4    1  0.1643710E+006  0.2585121E+02  0.7546771E-02  0.1459502E+00
         -3   -1    0    0    0  501 -0.00000000000E+00  0.00000000000E+00  0.26754242326E+03  0.26754242326E+03  0.00000000000E+00 0.  1.
         21   -1    0    0  503  502  0.00000000000E+00 -0.00000000000E+00 -0.30902907102E+01  0.30902907102E+01  0.00000000000E+00 0. -1.
         21    1    1    2  503  501 -0.20011949836E+02 -0.16364800023E+02  0.72978893451E+02  0.77422242963E+02  0.00000000000E+00 0. -1.
         -3    1    1    2    0  502  0.20011949836E+02  0.16364800023E+02  0.19147323910E+03  0.19321047100E+03  0.00000000000E+00 0.  1.
</event>
<event>
 4    1  0.1643710E+006  0.2723749E+02  0.7546771E-02  0.1445237E+00
         21   -1    0    0  503  502  0.00000000000E+00  0.00000000000E+00  0.40460244650E+03  0.40460244650E+03  0.00000000000E+00 0.  1.
          2   -1    0    0  502    0 -0.00000000000E+00 -0.00000000000E+00 -0.28707092291E+01  0.28707092291E+01  0.00000000000E+00 0. -1.
         21    1    1    2  503  501  0.26931738685E+02  0.40696667087E+01  0.32332347873E+03  0.32446872366E+03  0.00000000000E+00 0.  1.
          2    1    1    2  501    0 -0.26931738685E+02 -0.40696667087E+01  0.78408258550E+02  0.83004432078E+02  0.00000000000E+00 0. -1.
</event>
<event>
 4    1  0.1643710E+006  0.2179526E+02  0.7546771E-02  0.1508207E+00
         21   -1    0    0  503  502  0.00000000000E+00  0.00000000000E+00  0.37678158399E+03  0.37678158399E+03  0.00000000000E+00 0. -1.
         -2   -1    0    0    0  501 -0.00000000000E+00 -0.00000000000E+00 -0.17380860066E+01  0.17380860066E+01  0.00000000000E+00 0.  1.
         21    1    1    2  503  501 -0.17356662033E+02  0.13182552579E+02  0.28670255788E+03  0.28752980733E+03  0.00000000000E+00 0. -1.
         -2    1    1    2    0  502  0.17356662033E+02 -0.13182552579E+02  0.88340940107E+02  0.90989862669E+02  0.00000000000E+00 0.  1.
</event>
<event>
 4    1  0.1643710E+006  0.2410407E+02  0.7546771E-02  0.1479081E+00
         21   -1    0    0  503  502  0.00000000000E+00  0.00000000000E+00  0.39065522876E+02  0.39065522876E+02  0.00000000000E+00 0. -1.
          1   -1    0    0  502    0 -0.00000000000E+00 -0.00000000000E+00 -0.21651488623E+02  0.21651488623E+02  0.00000000000E+00 0. -1.
         21    1    1    2  503  501 -0.23799923736E+02 -0.38170644515E+01  0.25693966288E+02  0.35230473378E+02  0.00000000000E+00 0. -1.
          1    1    1    2  501    0  0.23799923736E+02  0.38170644515E+01 -0.82799320348E+01  0.25486538120E+02  0.00000000000E+00 0. -1.
</event>
<event>
 4    1  0.1643710E+006  0.2536602E+02  0.7546771E-02  0.1464750E+00
         21   -1    0    0  501  502  0.00000000000E+00  0.00000000000E+00  0.43782972993E+01  0.43782972993E+01  0.00000000000E+00 0. -1.
          1   -1    0    0  503    0 -0.00000000000E+00 -0.00000000000E+00 -0.22393265911E+03  0.22393265911E+03  0.00000000000E+00 0. -1.
         21    1    1    2  503  502  0.13457514741E+02 -0.21501871942E+02 -0.42849484247E+02  0.49794713578E+02  0.00000000000E+00 0. -1.
          1    1    1    2  501    0 -0.13457514741E+02  0.21501871942E+02 -0.17670487757E+03  0.17851624284E+03  0.00000000000E+00 0. -1.
</event>
<event>
 4    1  0.1643710E+006  0.4638201E+02  0.7546771E-02  0.1314670E+00
         -2   -1    0    0    0  501 -0.00000000000E+00  0.00000000000E+00  0.55814086712E+02  0.55814086712E+02  0.00000000000E+00 0. -1.
         21   -1    0    0  503  502  0.00000000000E+00 -0.00000000000E+00 -0.24549675821E+03  0.24549675821E+03  0.00000000000E+00 0. -1.
         21    1    1    2  503  501  0.35267164543E+02  0.30125036265E+02 -0.23316536670E+03  0.23773384053E+03  0.00000000000E+00 0. -1.
         -2    1    1    2    0  502 -0.35267164543E+02 -0.30125036265E+02  0.43482695204E+02  0.63577004389E+02  0.00000000000E+00 0. -1.
</event>
<event>
 4    1  0.1643710E+006  0.2744524E+02  0.7546771E-02  0.1443186E+00
         -2   -1    0    0    0  501 -0.00000000000E+00  0.00000000000E+00  0.25759114500E+02  0.25759114500E+02  0.00000000000E+00 0. -1.
         21   -1    0    0  503  502  0.00000000000E+00 -0.00000000000E+00 -0.29250461542E+02  0.29250461542E+02  0.00000000000E+00 0. -1.
         21    1    1    2  503  501  0.22816259335E+02 -0.15253188109E+02 -0.12708485749E+01  0.27474651838E+02  0.00000000000E+00 0. -1.
         -2    1    1    2    0  502 -0.22816259335E+02  0.15253188109E+02 -0.22204984676E+01  0.27534924204E+02  0.00000000000E+00 0. -1.
</event>
<event>
 4    1  0.1643710E+006  0.2343160E+02  0.7546771E-02  0.1487149E+00
         21   -1    0    0  503  502  0.00000000000E+00  0.00000000000E+00  0.78032422728E+03  0.78032422728E+03  0.00000000000E+00 0.  1.
          1   -1    0    0  502    0 -0.00000000000E+00 -0.00000000000E+00 -0.24217386604E+02  0.24217386604E+02  0.00000000000E+00 0.  1.
         21    1    1    2  503  501 -0.20550923224E+02  0.11256077855E+02  0.77443742663E+03  0.77479182204E+03  0.00000000000E+00 0.  1.
          1    1    1    2  501    0  0.20550923224E+02 -0.11256077855E+02 -0.18330585947E+02  0.29749791851E+02  0.00000000000E+00 0.  1.
</event>
<event>
 4    1  0.1643710E+006  0.2206892E+02  0.7546771E-02  0.1504533E+00
         -4   -1    0    0    0  501 -0.00000000000E+00  0.00000000000E+00  0.25965253505E+01  0.25965253505E+01  0.00000000000E+00 0.  1.
         21   -1    0    0  503  502  0.00000000000E+00 -0.00000000000E+00 -0.28299269674E+03  0.28299269674E+03  0.00000000000E+00 0.  1.
         21    1    1    2  503  501  0.20507300495E+02  0.81539995153E+01 -0.22311517879E+03  0.22420396984E+03  0.00000000000E+00 0.  1.
         -4    1    1    2    0  502 -0.20507300495E+02 -0.81539995153E+01 -0.57280992595E+02  0.61385252255E+02  0.00000000000E+00 0.  1.
</event>
<event>
 4    1  0.1643710E+006  0.3437076E+02  0.7546771E-02  0.1385042E+00
         -1   -1    0    0    0  501 -0.00000000000E+00  0.00000000000E+00  0.61173501231E+03  0.61173501231E+03  0.00000000000E+00 0. -1.
         21   -1    0    0  501  502  0.00000000000E+00 -0.00000000000E+00 -0.63616785058E+02  0.63616785058E+02  0.00000000000E+00 0. -1.
         21    1    1    2  503  502 -0.96111480055E+01 -0.32999616176E+02 -0.58452060277E+02  0.67808496403E+02  0.00000000000E+00 0. -1.
         -1    1    1    2    0  503  0.96111480055E+01  0.32999616176E+02  0.60657028753E+03  0.60754330097E+03  0.00000000000E+00 0. -1.
</event>
<event>
 4    1  0.1643710E+006  0.2280855E+02  0.7546771E-02  0.1494916E+00
         21   -1    0    0  501  502  0.00000000000E+00  0.00000000000E+00  0.47458853720E+01  0.47458853720E+01  0.00000000000E+00 0. -1.
          2   -1    0    0  503    0 -0.00000000000E+00 -0.00000000000E+00 -0.18676612947E+03  0.18676612947E+03  0.00000000000E+00 0. -1.
         21    1    1    2  503  502 -0.11252076194E+02  0.19839872086E+02 -0.29466582545E+02  0.37262705617E+02  0.00000000000E+00 0. -1.
          2    1    1    2  501    0  0.11252076194E+02 -0.19839872086E+02 -0.15255366155E+03  0.15424930923E+03  0.00000000000E+00 0. -1.
</event>
<event>
 4    1  0.1643710E+006  0.2859504E+02  0.7546771E-02  0.1432212E+00
         -3   -1    0    0    0  501 -0.00000000000E+00  0.00000000000E+00  0.26329585605E+01  0.26329585605E+01  0.00000000000E+00 0. -1.
         21   -1    0    0  501  502  0.00000000000E+00 -0.00000000000E+00 -0.57998817184E+03  0.57998817184E+03  0.00000000000E+00 0.  1.
         21    1    1    2  503  502 -0.26825058409E+02  0.99041638417E+01 -0.48722897325E+03  0.48806736072E+03  0.00000000000E+00 0.  1.
         -3    1    1    2    0  503  0.26825058409E+02 -0.99041638417E+01 -0.90126240031E+02  0.94553769688E+02  0.00000000000E+00 0. -1.
</event>
<event>
 4    1  0.1643710E+006  0.2016762E+02  0.7546771E-02  0.1531489E+00
         21   -1    0    0  503  502  0.00000000000E+00  0.00000000000E+00  0.97238308094E+01  0.97238308094E+01  0.00000000000E+00 0. -1.
          1   -1    0    0  502    0 -0.00000000000E+00 -0.00000000000E+00 -0.12283787900E+04  0.12283787900E+04  0.00000000000E+00 0.  1.
         21    1    1    2  503  501 -0.17182665893E+02 -0.10558838369E+02 -0.90735447587E+00  0.20188025338E+02  0.00000000000E+00 0. -1.
          1    1    1    2  501    0  0.17182665893E+02  0.10558838369E+02 -0.12177476047E+04  0.12179145955E+04  0.00000000000E+00 0.  1.
</event>
<event>
 4    1  0.1643710E+006  0.2042590E+02  0.7546771E-02  0.1527622E+00
         -4   -1    0    0    0  501 -0.00000000000E+00  0.00000000000E+00  0.52980010150E+02  0.52980010150E+02  0.00000000000E+00 0.  1.
         21   -1    0    0  503  502  0.00000000000E+00 -0.00000000000E+00 -0.78753948862E+01  0.78753948862E+01  0.00000000000E+00 0.  1.
         21    1    1    2  503  501 -0.78276547680E+01 -0.18866508065E+02  0.22335439170E+02  0.30266964643E+02  0.00000000000E+00 0.  1.
         -4    1    1    2    0  502  0.78276547680E+01  0.18866508065E+02  0.22769176093E+02  0.30588440394E+02  0.00000000000E+00 0.  1.
</event>
<event>
 4    1  0.1643710E+006  0.3803247E+02  0.7546771E-02  0.1360418E+00
          2   -1    0    0  503    0 -0.00000000000E+00  0.00000000000E+00  0.58640166038E+02  0.58640166038E+02  0.00000000000E+00 0. -1.
         21   -1    0    0  501  502  0.00000000000E+00 -0.00000000000E+00 -0.37169883242E+02  0.37169883242E+02  0.00000000000E+00 0. -1.
         21    1    1    2  503  502 -0.37977157587E+02  0.20505201995E+01 -0.17048737699E+02  0.41678874608E+02  0.00000000000E+00 0. -1.
          2    1    1    2  501    0  0.37977157587E+02 -0.20505201995E+01  0.38519020495E+02  0.54131174672E+02  0.00000000000E+00 0. -1.
</event>
<event>
 4    1  0.1643710E+006  0.2822101E+02  0.7546771E-02  0.1435714E+00
         21   -1    0    0  501  502  0.00000000000E+00  0.00000000000E+00  0.57252004451E+02  0.57252004451E+02  0.00000000000E+00 0.  1.
          2   -1    0    0  503    0 -0.00000000000E+00 -0.00000000000E+00 -0.61478938291E+02  0.61478938291E+02  0.00000000000E+00 0. -1.
         21    1    1    2  503  502  0.22216344617E+02  0.17402862408E+02  0.50105523020E+02  0.57506425948E+02  0.00000000000E+00 0.  1.
          2    1    1    2  501    0 -0.22216344617E+02 -0.17402862408E+02 -0.54332456860E+02  0.61224516794E+02  0.00000000000E+00 0. -1.
</event>
<event>
 4    1  0.1643710E+006  0.3192757E+02  0.7546771E-02  0.1403554E+00
         21   -1    0    0  503  502  0.00000000000E+00  0.00000000000E+00  0.27105817877E+03  0.27105817877E+03  0.00000000000E+00 0. -1.
         -2   -1    0    0    0  501 -0.00000000000E+00 -0.00000000000E+00 -0.38709328857E+01  0.38709328857E+01  0.00000000000E+00 0. -1.
         21    1    1    2  503  501  0.27988088327E+02 -0.15363485678E+02  0.15679047987E+03  0.16000820090E+03  0.00000000000E+00 0. -1.
         -2    1    1    2    0  502 -0.27988088327E+02  0.15363485678E+02  0.11039676602E+03  0.11492091075E+03  0.00000000000E+00 0. -1.
</event>
<event>
 4    1  0.1643710E+006  0.2024222E+02  0.7546771E-02  0.1530365E+00
         21   -1    0    0  501  502  0.00000000000E+00  0.00000000000E+00  0.65072504602E+00  0.65072504602E+00  0.00000000000E+00 0.  1.
         -1   -1    0    0    0  501 -0.00000000000E+00 -0.00000000000E+00 -0.80646412299E+03  0.80646412299E+03  0.00000000000E+00 0. -1.
         21    1    1    2  503  502  0.17661345079E+02 -0.98906160193E+01 -0.21396117048E+03  0.21491656490E+03  0.00000000000E+00 0.  1.
         -1    1    1    2    0  503 -0.17661345079E+02  0.98906160193E+01 -0.59185222746E+03  0.59219828313E+03  0.00000000000E+00 0. -1.
</event>
<event>
 4    1  0.1643710E+006  0.3335305E+02  0.7546771E-02  0.1392527E+00
         -2   -1    0    0    0  501 -0.00000000000E+00  0.00000000000E+00  0.22044552678E+02  0.22044552678E+02  0.00000000000E+00 0. -1.
         21   -1    0    0  501  502  0.00000000000E+00 -0.00000000000E+00 -0.36993534712E+03  0.36993534712E+03  0.00000000000E+00 0.  1.
         21    1    1    2  503  502  0.22968830821E+02  0.24183850814E+02 -0.35607803742E+03  0.35763667955E+03  0.00000000000E+00 0.  1.
         -2    1    1    2    0  503 -0.22968830821E+02 -0.24183850814E+02  0.81872429748E+01  0.34343220248E+02  0.00000000000E+00 0. -1.
</event>
<event>
 4    1  0.1643710E+006  0.2286689E+02  0.7546771E-02  0.1494176E+00
          2   -1    0    0  503    0 -0.00000000000E+00  0.00000000000E+00  0.11524750903E+04  0.11524750903E+04  0.00000000000E+00 0. -1.
         21   -1    0    0  501  502  0.00000000000E+00 -0.00000000000E+00 -0.45683476408E+00  0.45683476408E+00  0.00000000000E+00 0. -1.
         21    1    1    2  503  502  0.20026884013E+02 -0.11037146494E+02  0.62365092771E+03  0.62407000755E+03  0.00000000000E+00 0. -1.
          2    1    1    2  501    0 -0.20026884013E+02  0.11037146494E+02  0.52836732778E+03  0.52886191747E+03  0.00000000000E+00 0. -1.
</event>
<event>
 4    1  0.1643710E+006  0.4446601E+02  0.7546771E-02  0.1324131E+00
         21   -1    0    0  501  502  0.00000000000E+00  0.00000000000E+00  0.45292275611E+03  0.45292275611E+03  0.00000000000E+00 0.  1.
          1   -1    0    0  503    0 -0.00000000000E+00 -0.00000000000E+00 -0.27191869021E+02  0.27191869021E+02  0.00000000000E+00 0. -1.
         21    1    1    2  503  502  0.12827132531E+02  0.42575706805E+02  0.43281039526E+03  0.43508857073E+03  0.00000000000E+00 0.  1.
          1    1    1    2  501    0 -0.12827132531E+02 -0.42575706805E+02 -0.70795081673E+01  0.45026054400E+02  0.00000000000E+00 0. -1.
</event>
<event>
 4    1  0.1643710E+006  0.3755456E+02  0.7546771E-02  0.1363444E+00
         -1   -1    0    0    0  501 -0.00000000000E+00  0.00000000000E+00  0.29160843847E+03  0.29160843847E+03  0.00000000000E+00 0.  1.
         21   -1    0    0  503  502  0.00000000000E+00 -0.00000000000E+00 -0.14019463122E+02  0.14019463122E+02  0.00000000000E+00 0.  1.
         21    1    1    2  503  501 -0.24904913988E+02 -0.28108539798E+02  0.15117097850E+02  0.40482976641E+02  0.00000000000E+00 0.  1.
         -1    1    1    2    0  502  0.24904913988E+02  0.28108539798E+02  0.26247187750E+03  0.26514492496E+03  0.00000000000E+00 0.  1.
</event>
<event>
 4    1  0.1643710E+006  0.2627098E+02  0.7546771E-02  0.1455072E+00
          3   -1    0    0  503    0 -0.00000000000E+00  0.00000000000E+00  0.21889458775E+02  0.21889458775E+02  0.00000000000E+00 0. -1.
         21   -1    0    0  501  502  0.00000000000E+00 -0.00000000000E+00 -0.65715471495E+02  0.65715471495E+02  0.00000000000E+00 0. -1.
         21    1    1    2  503  502 -0.21336691390E+02  0.15326772517E+02 -0.53505834768E+02  0.59607371268E+02  0.00000000000E+00 0. -1.
          3    1    1    2  501    0  0.21336691390E+02 -0.15326772517E+02  0.96798220478E+01  0.27997559003E+02  0.00000000000E+00 0. -1.
</event>
<event>
 4    1  0.1643710E+006  0.2141433E+02  0.7546771E-02  0.1513431E+00
         21   -1    0    0  503  502  0.00000000000E+00  0.00000000000E+00  0.14698927228E+03  0.14698927228E+03  0.00000000000E+00 0. -1.
         -3   -1    0    0    0  501 -0.00000000000E+00 -0.00000000000E+00 -0.77992365207E+02  0.77992365207E+02  0.00000000000E+00 0.  1.
         21    1    1    2  503  501 -0.14042630115E+02  0.16167187531E+02  0.14471643725E+03  0.14629224389E+03  0.00000000000E+00 0. -1.
         -3    1    1    2    0  502  0.14042630115E+02 -0.16167187531E+02 -0.75719530179E+02  0.78689393591E+02  0.00000000000E+00 0.  1.
</event>
<event>
 4    1  0.1643710E+006  0.2400983E+02  0.7546771E-02  0.1480193E+00
         21   -1    0    0  501  502  0.00000000000E+00  0.00000000000E+00  0.18559845896E+02  0.18559845896E+02  0.00000000000E+00 0. -1.
          1   -1    0    0  503    0 -0.00000000000E+00 -0.00000000000E+00 -0.15029569190E+04  0.15029569190E+04  0.00000000000E+00 0. -1.
         21    1    1    2  503  502 -0.23667420403E+02 -0.40404422166E+01  0.10657875106E+02  0.26269036214E+02  0.00000000000E+00 0. -1.
          1    1    1    2  501    0  0.23667420403E+02  0.40404422166E+01 -0.14950549482E+04  0.14952477287E+04  0.00000000000E+00 0. -1.
</event>
<event>
 4    1  0.1643710E+006  0.2155078E+02  0.7546771E-02  0.1511545E+00
          2   -1    0    0  503    0 -0.00000000000E+00  0.00000000000E+00  0.36551417885E+02  0.36551417885E+02  0.00000000000E+00 0. -1.
         21   -1    0    0  501  502  0.00000000000E+00 -0.00000000000E+00 -0.17417798483E+02  0.17417798483E+02  0.00000000000E+00 0. -1.
         21    1    1    2  503  502 -0.21207414900E+02 -0.38316409357E+01 -0.44676496581E+01  0.22008993899E+02  0.00000000000E+00 0. -1.
          2    1    1    2  501    0  0.21207414900E+02  0.38316409357E+01  0.23601269061E+02  0.31960222469E+02  0.00000000000E+00 0. -1.
</event>
<event>
 4    1  0.1643710E+006  0.2084862E+02  0.7546771E-02  0.1521437E+00
         21   -1    0    0  501  502  0.00000000000E+00  0.00000000000E+00  0.91175646934E+01  0.91175646934E+01  0.00000000000E+00 0.  1.
         -1   -1    0    0    0  501 -0.00000000000E+00 -0.00000000000E+00 -0.15836702261E+03  0.15836702261E+03  0.00000000000E+00 0.  1.
         21    1    1    2  503  502  0.14598926002E+02  0.14884098089E+02 -0.46125105269E+01  0.21352757894E+02  0.00000000000E+00 0.  1.
         -1    1    1    2    0  503 -0.14598926002E+02 -0.14884098089E+02 -0.14463694739E+03  0.14613182941E+03  0.00000000000E+00 0.  1.
</event>
<event>
 4    1  0.1643710E+006  0.2306938E+02  0.7546771E-02  0.1491629E+00
          3   -1    0    0  502    0 -0.00000000000E+00  0.00000000000E+00  0.30945991563E+03  0.30945991563E+03  0.00000000000E+00 0. -1.
         21   -1    0    0  503  502  0.00000000000E+00 -0.00000000000E+00 -0.18548770670E+01  0.18548770670E+01  0.00000000000E+00 0.  1.
         21    1    1    2  503  501 -0.16940521078E+02  0.15659348501E+02  0.11179093703E+03  0.11414644126E+03  0.00000000000E+00 0.  1.
          3    1    1    2  501    0  0.16940521078E+02 -0.15659348501E+02  0.19581410153E+03  0.19716835144E+03  0.00000000000E+00 0. -1.
</event>
<event>
 4    1  0.1643710E+006  0.3042562E+02  0.7546771E-02  0.1415933E+00
          2   -1    0    0  503    0 -0.00000000000E+00  0.00000000000E+00  0.73877446030E+02  0.73877446030E+02  0.00000000000E+00 0.  1.
         21   -1    0    0  501  502  0.00000000000E+00 -0.00000000000E+00 -0.30893542761E+02  0.30893542761E+02  0.00000000000E+00 0.  1.
         21    1    1    2  503  502  0.13048729799E+02  0.27485433999E+02 -0.18895827970E+02  0.35815789062E+02  0.00000000000E+00 0.  1.
          2    1    1    2  501    0 -0.13048729799E+02 -0.27485433999E+02  0.61879731239E+02  0.68955199729E+02  0.00000000000E+00 0.  1.
</event>
<event>
 4    1  0.1643710E+006  0.2494035E+02  0.7546771E-02  0.1469472E+00
         21   -1    0    0  503  502  0.00000000000E+00  0.00000000000E+00  0.85953585841E+01  0.85953585841E+01  0.00000000000E+00 0. -1.
         -4   -1    0    0    0  501 -0.00000000000E+00 -0.00000000000E+00 -0.32366343662E+03  0.32366343662E+03  0.00000000000E+00 0. -1.
         21    1    1    2  503  501 -0.20966396256E+02  0.13506715605E+02 -0.11150328269E+02  0.27319424571E+02  0.00000000000E+00 0. -1.
         -4    1    1    2    0  502  0.20966396256E+02 -0.13506715605E+02 -0.30391774977E+03  0.30493937064E+03  0.00000000000E+00 0. -1.
</event>
<event>
 4    1  0.1643710E+006  0.3431882E+02  0.7546771E-02  0.1385416E+00
         21   -1    0    0  501  502  0.00000000000E+00  0.00000000000E+00  0.56610484602E+03  0.56610484602E+03  0.00000000000E+00 0.  1.
         -2   -1    0    0    0  501 -0.00000000000E+00 -0.00000000000E+00 -0.90169005596E+02  0.90169005596E+02  0.00000000000E+00 0.  1.
         21    1    1    2  503  502  0.32672903967E+02  0.10500621128E+02  0.56229714471E+03  0.56334346597E+03  0.00000000000E+00 0.  1.
         -2    1    1    2    0  503 -0.32672903967E+02 -0.10500621128E+02 -0.86361304290E+02  0.92930385646E+02  0.00000000000E+00 0.  1.
</event>
<event>
 4    1  0.1643710E+006  0.4755185E+02  0.7546771E-02  0.1309151E+00
         21   -1    0    0  503  502  0.00000000000E+00  0.00000000000E+00  0.50082126911E+02  0.50082126911E+02  0.00000000000E+00 0. -1.
         -2   -1    0    0    0  501 -0.00000000000E+00 -0.00000000000E+00 -0.65887068530E+02  0.65887068530E+02  0.00000000000E+00 0. -1.
         21    1    1    2  503  501  0.46148191168E+02 -0.11468327908E+02  0.24628160882E+02  0.53551138190E+02  0.00000000000E+00 0. -1.
         -2    1    1    2    0  502 -0.46148191168E+02  0.11468327908E+02 -0.40433102502E+02  0.62418057251E+02  0.00000000000E+00 0. -1.
</event>
<event>
 4    1  0.1643710E+006  0.2742851E+02  0.7546771E-02  0.1443351E+00
         21   -1    0    0  501  502  0.00000000000E+00  0.00000000000E+00  0.12868646808E+02  0.12868646808E+02  0.00000000000E+00 0. -1.
          2   -1    0    0  503    0 -0.00000000000E+00 -0.00000000000E+00 -0.72243854019E+02  0.72243854019E+02  0.00000000000E+00 0. -1.
         21    1    1    2  503  502  0.19295263681E+02  0.19493993065E+02 -0.11100083312E+02  0.29589437569E+02  0.00000000000E+00 0. -1.
          2    1    1    2  501    0 -0.19295263681E+02 -0.19493993065E+02 -0.48275123899E+02  0.55523063258E+02  0.00000000000E+00 0. -1.
</event>
<event>
 4    1  0.1643710E+006  0.2449541E+02  0.7546771E-02  0.1474528E+00
         21   -1    0    0  501  502  0.00000000000E+00  0.00000000000E+00  0.56633157099E+01  0.56633157099E+01  0.00000000000E+00 0. -1.
          2   -1    0    0  503    0 -0.00000000000E+00 -0.00000000000E+00 -0.75995596569E+03  0.75995596569E+03  0.00000000000E+00 0.  1.
         21    1    1    2  503  502  0.13397682683E+02 -0.20506756177E+02 -0.22022586857E+02  0.32939630873E+02  0.00000000000E+00 0. -1.
          2    1    1    2  501    0 -0.13397682683E+02  0.20506756177E+02 -0.73227006312E+03  0.73267965053E+03  0.00000000000E+00 0.  1.
</event>
<event>
 4    1  0.1643710E+006  0.4150077E+02  0.7546771E-02  0.1339909E+00
         21   -1    0    0  503  502  0.00000000000E+00  0.00000000000E+00  0.21529980094E+03  0.21529980094E+03  0.00000000000E+00 0.  1.
          1   -1    0    0  502    0 -0.00000000000E+00 -0.00000000000E+00 -0.14630537300E+03  0.14630537300E+03  0.00000000000E+00 0. -1.
         21    1    1    2  503  501  0.21246616605E+02 -0.35649613711E+02  0.21028740835E+03  0.21434343421E+03  0.00000000000E+00 0.  1.
          1    1    1    2  501    0 -0.21246616605E+02  0.35649613711E+02 -0.14129298042E+03  0.14726173973E+03  0.00000000000E+00 0. -1.
</event>
<event>
 4    1  0.1643710E+006  0.2251624E+02  0.7546771E-02  0.1498664E+00
         21   -1    0    0  501  502  0.00000000000E+00  0.00000000000E+00  0.13269386019E+02  0.13269386019E+02  0.00000000000E+00 0. -1.
         -2   -1    0    0    0  501 -0.00000000000E+00 -0.00000000000E+00 -0.38803803909E+02  0.38803803909E+02  0.00000000000E+00 0.  1.
         21    1    1    2  503  502  0.69336852183E+00 -0.22505565686E+02 -0.15996615845E+02  0.27620155054E+02  0.00000000000E+00 0. -1.
         -2    1    1    2    0  503 -0.69336852183E+00  0.22505565686E+02 -0.95378020453E+01  0.24453034875E+02  0.00000000000E+00 0.  1.
</event>
<event>
 4    1  0.1643710E+006  0.2468554E+02  0.7546771E-02  0.1472352E+00
         -2   -1    0    0    0  501 -0.00000000000E+00  0.00000000000E+00  0.62612376733E+02  0.62612376733E+02  0.00000000000E+00 0. -1.
         21   -1    0    0  503  502  0.00000000000E+00 -0.00000000000E+00 -0.21007201739E+02  0.21007201739E+02  0.00000000000E+00 0. -1.
         21    1    1    2  503  501  0.24632547047E+02  0.16166868563E+01 -0.98273471137E+01  0.26569772331E+02  0.00000000000E+00 0. -1.
         -2    1    1    2    0  502 -0.24632547047E+02 -0.16166868563E+01  0.51432522108E+02  0.57049806142E+02  0.00000000000E+00 0. -1.
</event>
<event>
 4    1  0.1643710E+006  0.2217555E+02  0.7546771E-02  0.1503119E+00
         21   -1    0    0  501  502  0.00000000000E+00  0.00000000000E+00  0.30310747884E+01  0.30310747884E+01  0.00000000000E+00 0. -1.
          3   -1    0    0  503    0 -0.00000000000E+00 -0.00000000000E+00 -0.16782057896E+03  0.16782057896E+03  0.00000000000E+00 0. -1.
         21    1    1    2  503  502  0.21105163843E+02 -0.68064060467E+01 -0.97975534012E+02  0.10045377230E+03  0.00000000000E+00 0. -1.
          3    1    1    2  501    0 -0.21105163843E+02  0.68064060467E+01 -0.66813970155E+02  0.70397881446E+02  0.00000000000E+00 0. -1.
</event>
<event>
 4    1  0.1643710E+006  0.2921195E+02  0.7546771E-02  0.1426570E+00
         21   -1    0    0  501  502  0.00000000000E+00  0.00000000000E+00  0.11659474630E+03  0.11659474630E+03  0.00000000000E+00 0. -1.
          2   -1    0    0  503    0 -0.00000000000E+00 -0.00000000000E+00 -0.97107667648E+01  0.97107667648E+01  0.00000000000E+00 0. -1.
         21    1    1    2  503  502  0.14467669210E+02 -0.25377644715E+02  0.22099067835E+02  0.36629320262E+02  0.00000000000E+00 0. -1.
          2    1    1    2  501    0 -0.14467669210E+02  0.25377644715E+02  0.84784911698E+02  0.89676192801E+02  0.00000000000E+00 0. -1.
</event>
<event>
 4    1  0.1643710E+006  0.2290127E+02  0.7546771E-02  0.1493742E+00
         21   -1    0    0  503  502  0.00000000000E+00  0.00000000000E+00  0.16923513396E+02  0.16923513396E+02  0.00000000000E+00 0. -1.
         -1   -1    0    0    0  501 -0.00000000000E+00 -0.00000000000E+00 -0.31733008780E+02  0.31733008780E+02  0.00000000000E+00 0. -1.
         21    1    1    2  503  501 -0.12881523449E+02 -0.18935004695E+02 -0.36833349442E+01  0.23195581594E+02  0.00000000000E+00 0. -1.
         -1    1    1    2    0  502  0.12881523449E+02  0.18935004695E+02 -0.11126160440E+02  0.25460940582E+02  0.00000000000E+00 0. -1.
</event>
<event>
 4    1  0.1643710E+006  0.4374452E+02  0.7546771E-02  0.1327838E+00
         21   -1    0    0  501  502  0.00000000000E+00  0.00000000000E+00  0.59742277317E+02  0.59742277317E+02  0.00000000000E+00 0. -1.
          1   -1    0    0  503    0 -0.00000000000E+00 -0.00000000000E+00 -0.45240006418E+02  0.45240006418E+02  0.00000000000E+00 0. -1.
         21    1    1    2  503  502 -0.70899509488E+00  0.43738774743E+02  0.35615023602E+02  0.56409334300E+02  0.00000000000E+00 0. -1.
          1    1    1    2  501    0  0.70899509488E+00 -0.43738774743E+02 -0.21112752704E+02  0.48572949435E+02  0.00000000000E+00 0. -1.
</event>
<event>
 4    1  0.1643710E+006  0.2754708E+02  0.7546771E-02  0.1442189E+00
          2   -1    0    0  502    0 -0.00000000000E+00  0.00000000000E+00  0.63280020417E+01  0.63280020417E+01  0.00000000000E+00 0.  1.
         21   -1    0    0  503  502  0.00000000000E+00 -0.00000000000E+00 -0.55754947756E+03  0.55754947756E+03  0.00000000000E+00 0.  1.
         21    1    1    2  503  501  0.52490284324E+00 -0.27542073897E+02 -0.52539629462E+03  0.52611795993E+03  0.00000000000E+00 0.  1.
          2    1    1    2  501    0 -0.52490284324E+00  0.27542073897E+02 -0.25825180894E+02  0.37759519670E+02  0.00000000000E+00 0.  1.
</event>
<event>
 4    1  0.1643710E+006  0.2000371E+02  0.7546771E-02  0.1533979E+00
          1   -1    0    0  503    0 -0.00000000000E+00  0.00000000000E+00  0.11169483209E+02  0.11169483209E+02  0.00000000000E+00 0. -1.
         21   -1    0    0  501  502  0.00000000000E+00 -0.00000000000E+00 -0.42894947839E+02  0.42894947839E+02  0.00000000000E+00 0.  1.
         21    1    1    2  503  502  0.18508640026E+02  0.75880628483E+01 -0.26837161777E+02  0.33472103394E+02  0.00000000000E+00 0.  1.
          1    1    1    2  501    0 -0.18508640026E+02 -0.75880628483E+01 -0.48883028534E+01  0.20592327654E+02  0.00000000000E+00 0. -1.
</event>
<event>
 4    1  0.1643710E+006  0.2095495E+02  0.7546771E-02  0.1519909E+00
         21   -1    0    0  501  502  0.00000000000E+00  0.00000000000E+00  0.92647162235E+02  0.92647162235E+02  0.00000000000E+00 0.  1.
          2   -1    0    0  503    0 -0.00000000000E+00 -0.00000000000E+00 -0.52524838105E+01  0.52524838105E+01  0.00000000000E+00 0.  1.
         21    1    1    2  503  502 -0.20949993807E+02  0.45566367351E+00  0.58993452601E+02  0.62604611010E+02  0.00000000000E+00 0.  1.
          2    1    1    2  501    0  0.20949993807E+02 -0.45566367351E+00  0.28401225823E+02  0.35295035036E+02  0.00000000000E+00 0.  1.
</event>
<event>
 4    1  0.1643710E+006  0.4389420E+02  0.7546771E-02  0.1327062E+00
          2   -1    0    0  503    0 -0.00000000000E+00  0.00000000000E+00  0.50853536968E+01  0.50853536968E+01  0.00000000000E+00 0.  1.
         21   -1    0    0  501  502  0.00000000000E+00 -0.00000000000E+00 -0.67117546083E+03  0.67117546083E+03  0.00000000000E+00 0.  1.
         21    1    1    2  503  502 -0.20474766140E+02 -0.38826343332E+02 -0.55618778957E+03  0.55791716075E+03  0.00000000000E+00 0.  1.
          2    1    1    2  501    0  0.20474766140E+02  0.38826343332E+02 -0.10990231756E+03  0.11834365378E+03  0.00000000000E+00 0.  1.
</event>
<event>
 4    1  0.1643710E+006  0.3836737E+02  0.7546771E-02  0.1358328E+00
         -4   -1    0    0    0  501 -0.00000000000E+00  0.00000000000E+00  0.16873834348E+04  0.16873834348E+04  0.00000000000E+00 0.  1.
         21   -1    0    0  501  502  0.00000000000E+00 -0.00000000000E+00 -0.19185154037E+01  0.19185154037E+01  0.00000000000E+00 0. -1.
         21    1    1    2  503  502  0.60327012577E+01 -0.37890127001E+02  0.21901677198E+03  0.22235197687E+03  0.00000000000E+00 0. -1.
         -4    1    1    2    0  503 -0.60327012577E+01  0.37890127001E+02  0.14664481474E+04  0.14669499734E+04  0.00000000000E+00 0.  1.
</event>
<event>
 4    1  0.1643710E+006  0.3269199E+02  0.7546771E-02  0.1397558E+00
         21   -1    0    0  501  502  0.00000000000E+00  0.00000000000E+00  0.27410230115E+01  0.27410230115E+01  0.00000000000E+00 0.  1.
          1   -1    0    0  503    0 -0.00000000000E+00 -0.00000000000E+00 -0.39418925474E+03  0.39418925474E+03  0.00000000000E+00 0.  1.
         21    1    1    2  503  502  0.31299990201E+02  0.94380396783E+01 -0.17505784156E+03  0.17808428867E+03  0.00000000000E+00 0.  1.
          1    1    1    2  501    0 -0.31299990201E+02 -0.94380396783E+01 -0.21639039017E+03  0.21884598908E+03  0.00000000000E+00 0.  1.
</event>
<event>
 4    1  0.1643710E+006  0.2900336E+02  0.7546771E-02  0.1428459E+00
          1   -1    0    0  502    0 -0.00000000000E+00  0.00000000000E+00  0.65650348494E+02  0.65650348494E+02  0.00000000000E+00 0.  1.
         21   -1    0    0  503  502  0.00000000000E+00 -0.00000000000E+00 -0.25354174145E+02  0.25354174145E+02  0.00000000000E+00 0. -1.
         21    1    1    2  503  501 -0.20609243944E+02  0.20407208161E+02 -0.11853595735E+02  0.31332137060E+02  0.00000000000E+00 0. -1.
          1    1    1    2  501    0  0.20609243944E+02 -0.20407208161E+02  0.52149770084E+02  0.59672385579E+02  0.00000000000E+00 0.  1.
</event>
<event>
 4    1  0.1643710E+006  0.2613674E+02  0.7546771E-02  0.1456478E+00
         21   -1    0    0  503  502  0.00000000000E+00  0.00000000000E+00  0.63349512966E+02  0.63349512966E+02  0.00000000000E+00 0. -1.
         -1   -1    0    0    0  501 -0.00000000000E+00 -0.00000000000E+00 -0.36924742211E+02  0.36924742211E+02  0.00000000000E+00 0. -1.
         21    1    1    2  503  501 -0.66095922437E+01 -0.25287196954E+02  0.55397951393E+02  0.61254077888E+02  0.00000000000E+00 0. -1.
         -1    1    1    2    0  502  0.66095922437E+01  0.25287196954E+02 -0.28973180637E+02  0.39020177289E+02  0.00000000000E+00 0. -1.
</event>
<event>
 4    1  0.1643710E+006  0.2200475E+02  0.7546771E-02  0.1505389E+00
          1   -1    0    0  502    0 -0.00000000000E+00  0.00000000000E+00  0.23987811528E+02  0.23987811528E+02  0.00000000000E+00 0. -1.
         21   -1    0    0  503  502  0.00000000000E+00 -0.00000000000E+00 -0.14937237595E+04  0.14937237595E+04  0.00000000000E+00 0.  1.
         21    1    1    2  503  501 -0.16928448756E+02  0.14058323687E+02 -0.14885788733E+04  0.14887415058E+04  0.00000000000E+00 0.  1.
          1    1    1    2  501    0  0.16928448756E+02 -0.14058323687E+02  0.18842925395E+02  0.28970065233E+02  0.00000000000E+00 0. -1.
</event>
<event>
 4    1  0.1643710E+006  0.4693158E+02  0.7546771E-02  0.1312054E+00
         21   -1    0    0  503  502  0.00000000000E+00  0.00000000000E+00  0.28685361511E+03  0.28685361511E+03  0.00000000000E+00 0. -1.
         -2   -1    0    0    0  501 -0.00000000000E+00 -0.00000000000E+00 -0.85993888331E+01  0.85993888331E+01  0.00000000000E+00 0. -1.
         21    1    1    2  503  501 -0.95646078002E+01  0.45946617240E+02  0.18747245445E+03  0.19325758598E+03  0.00000000000E+00 0. -1.
         -2    1    1    2    0  502  0.95646078002E+01 -0.45946617240E+02  0.90781771822E+02  0.10219541797E+03  0.00000000000E+00 0. -1.
</event>
<event>
 4    1  0.1643710E+006  0.2579748E+02  0.7546771E-02  0.1460076E+00
         21   -1    0    0  501  502  0.00000000000E+00  0.00000000000E+00  0.62485320799E+01  0.62485320799E+01  0.00000000000E+00 0.  1.
          2   -1    0    0  503    0 -0.00000000000E+00 -0.00000000000E+00 -0.53225679232E+03  0.53225679232E+03  0.00000000000E+00 0.  1.
         21    1    1    2  503  502 -0.16724256007E+02  0.19642022897E+02 -0.22192845329E+02  0.34029871970E+02  0.00000000000E+00 0.  1.
          2    1    1    2  501    0  0.16724256007E+02 -0.19642022897E+02 -0.50381541492E+03  0.50447545243E+03  0.00000000000E+00 0.  1.
</event>
<event>
 4    1  0.1643710E+006  0.3980770E+02  0.7546771E-02  0.1349616E+00
          2   -1    0    0  503    0 -0.00000000000E+00  0.00000000000E+00  0.33050416018E+03  0.33050416018E+03  0.00000000000E+00 0.  1.
         21   -1    0    0  501  502  0.00000000000E+00 -0.00000000000E+00 -0.30456712894E+02  0.30456712894E+02  0.00000000000E+00 0. -1.
         21    1    1    2  503  502 -0.39859943412E+01 -0.39607637084E+02 -0.15642650605E+02  0.42770849702E+02  0.00000000000E+00 0. -1.
          2    1    1    2  501    0  0.39859943412E+01  0.39607637084E+02  0.31569009789E+03  0.31819002337E+03  0.00000000000E+00 0.  1.
</event>
<event>
 4    1  0.1643710E+006  0.3267603E+02  0.7546771E-02  0.1397681E+00
          4   -1    0    0  503    0 -0.00000000000E+00  0.00000000000E+00  0.33200888836E+03  0.33200888836E+03  0.00000000000E+00 0. -1.
         21   -1    0    0  501  502  0.00000000000E+00 -0.00000000000E+00 -0.40690242069E+01  0.40690242069E+01  0.00000000000E+00 0. -1.
         21    1    1    2  503  502 -0.12363926395E+02 -0.30246595474E+02  0.87028753380E+02  0.92960890317E+02  0.00000000000E+00 0. -1.
          4    1    1    2  501    0  0.12363926395E+02  0.30246595474E+02  0.24091111077E+03  0.24311702225E+03  0.00000000000E+00 0. -1.
</event>
<event>
 4    1  0.1643710E+006  0.2718440E+02  0.7546771E-02  0.1445764E+00
          2   -1    0    0  503    0 -0.00000000000E+00  0.00000000000E+00  0.97091663150E+02  0.97091663150E+02  0.00000000000E+00 0. -1.
         21   -1    0    0  501  502  0.00000000000E+00 -0.00000000000E+00 -0.77394749544E+01  0.77394749544E+01  0.00000000000E+00 0.  1.
         21    1    1    2  503  502  0.22240430062E+02 -0.15631860940E+02  0.51422003621E+02  0.58165404341E+02  0.00000000000E+00 0.  1.
          2    1    1    2  501    0 -0.22240430062E+02  0.15631860940E+02  0.37930184575E+02  0.46665733764E+02  0.00000000000E+00 0. -1.
</event>
<event>
 4    1  0.1643710E+006  0.2568381E+02  0.7546771E-02  0.1461297E+00
          1   -1    0    0  502    0 -0.00000000000E+00  0.00000000000E+00  0.28877873339E+03  0.28877873339E+03  0.00000000000E+00 0. -1.
         21   -1    0    0  503  502  0.00000000000E+00 -0.00000000000E+00 -0.14452612562E+02  0.14452612562E+02  0.00000000000E+00 0.  1.
         21    1    1    2  503  501 -0.12510948328E+02  0.22430651875E+02 -0.19558130179E+01  0.25758167174E+02  0.00000000000E+00 0.  1.
          1    1    1    2  501    0  0.12510948328E+02 -0.22430651875E+02  0.27628193384E+03  0.27747317877E+03  0.00000000000E+00 0. -1.
</event>
<event>
 4    1  0.1643710E+006  0.5456871E+02  0.7546771E-02  0.1279493E+00
          1   -1    0    0  502    0 -0.00000000000E+00  0.00000000000E+00  0.12828679686E+03  0.12828679686E+03  0.00000000000E+00 0.  1.
         21   -1    0    0  503  502  0.00000000000E+00 -0.00000000000E+00 -0.37567647126E+02  0.37567647126E+02  0.00000000000E+00 0.  1.
         21    1    1    2  503  501  0.16649199266E+02  0.51966797323E+02 -0.59038143292E+01  0.54887146800E+02  0.00000000000E+00 0.  1.
          1    1    1    2  501    0 -0.16649199266E+02 -0.51966797323E+02  0.96622964060E+02  0.11096729718E+03  0.00000000000E+00 0.  1.
</event>
<event>
 4    1  0.1643710E+006  0.2417439E+02  0.7546771E-02  0.1478255E+00
         21   -1    0    0  503  502  0.00000000000E+00  0.00000000000E+00  0.66589825449E+00  0.66589825449E+00  0.00000000000E+00 0.  1.
          2   -1    0    0  502    0 -0.00000000000E+00 -0.00000000000E+00 -0.16299303729E+04  0.16299303729E+04  0.00000000000E+00 0. -1.
         21    1    1    2  503  501  0.22813730336E+02 -0.79959353928E+01 -0.26073100165E+03  0.26184930112E+03  0.00000000000E+00 0.  1.
          2    1    1    2  501    0 -0.22813730336E+02  0.79959353928E+01 -0.13685334730E+04  0.13687469700E+04  0.00000000000E+00 0. -1.
</event>
<event>
 4    1  0.1643710E+006  0.2482518E+02  0.7546771E-02  0.1470769E+00
         21   -1    0    0  503  502  0.00000000000E+00  0.00000000000E+00  0.10912584941E+03  0.10912584941E+03  0.00000000000E+00 0.  1.
          4   -1    0    0  502    0 -0.00000000000E+00 -0.00000000000E+00 -0.10944484500E+03  0.10944484500E+03  0.00000000000E+00 0. -1.
         21    1    1    2  503  501 -0.22265389765E+02 -0.10979154104E+02  0.10626886494E+03  0.10913001907E+03  0.00000000000E+00 0.  1.
          4    1    1    2  501    0  0.22265389765E+02  0.10979154104E+02 -0.10658786053E+03  0.10944067534E+03  0.00000000000E+00 0. -1.
</event>
<event>
 4    1  0.1643710E+006  0.2384236E+02  0.7546771E-02  0.1482183E+00
         -1   -1    0    0    0  501 -0.00000000000E+00  0.00000000000E+00  0.92744132417E+02  0.92744132417E+02  0.00000000000E+00 0. -1.
         21   -1    0    0  503  502  0.00000000000E+00 -0.00000000000E+00 -0.61941619957E+01  0.61941619957E+01  0.00000000000E+00 0. -1.
         21    1    1    2  503  501  0.13464564722E+02 -0.19676475946E+02  0.38213469307E+02  0.45041397018E+02  0.00000000000E+00 0. -1.
         -1    1    1    2    0  502 -0.13464564722E+02  0.19676475946E+02  0.48336501114E+02  0.53896897395E+02  0.00000000000E+00 0. -1.
</event>
<event>
 4    1  0.1643710E+006  0.2333899E+02  0.7546771E-02  0.1488285E+00
         21   -1    0    0  503  502  0.00000000000E+00  0.00000000000E+00  0.11499053260E+03  0.11499053260E+03  0.00000000000E+00 0.  1.
          1   -1    0    0  502    0 -0.00000000000E+00 -0.00000000000E+00 -0.16618433808E+03  0.16618433808E+03  0.00000000000E+00 0.  1.
         21    1    1    2  503  501 -0.20502295270E+02  0.11151881745E+02  0.11297236610E+03  0.11535798230E+03  0.00000000000E+00 0.  1.
          1    1    1    2  501    0  0.20502295270E+02 -0.11151881745E+02 -0.16416617158E+03  0.16581688837E+03  0.00000000000E+00 0.  1.
</event>
<event>
 4    1  0.1643710E+006  0.4436575E+02  0.7546771E-02  0.1324642E+00
         21   -1    0    0  501  502  0.00000000000E+00  0.00000000000E+00  0.37262527982E+02  0.37262527982E+02  0.00000000000E+00 0. -1.
          1   -1    0    0  503    0 -0.00000000000E+00 -0.00000000000E+00 -0.10007585037E+04  0.10007585037E+04  0.00000000000E+00 0. -1.
         21    1    1    2  503  502 -0.43737618948E+02 -0.74391095717E+01  0.23379381393E+02  0.50148929568E+02  0.00000000000E+00 0. -1.
          1    1    1    2  501    0  0.43737618948E+02  0.74391095717E+01 -0.98687535709E+03  0.98787210210E+03  0.00000000000E+00 0. -1.
</event>
<event>
 4    1  0.1643710E+006  0.2539348E+02  0.7546771E-02  0.1464449E+00
         -2   -1    0    0    0  501 -0.00000000000E+00  0.00000000000E+00  0.95908444876E+02  0.95908444876E+02  0.00000000000E+00 0.  1.
         21   -1    0    0  503  502  0.00000000000E+00 -0.00000000000E+00 -0.32338708772E+02  0.32338708772E+02  0.00000000000E+00 0. -1.
         21    1    1    2  503  501 -0.21651620742E+02 -0.13267852523E+02 -0.25284938179E+02  0.35835132064E+02  0.00000000000E+00 0. -1.
         -2    1    1    2    0  502  0.21651620742E+02  0.13267852523E+02  0.88854674283E+02  0.92412021584E+02  0.00000000000E+00 0.  1.
</event>
<event>
 4    1  0.1643710E+006  0.2805531E+02  0.7546771E-02  0.1437286E+00
         -4   -1    0    0    0  501 -0.00000000000E+00  0.00000000000E+00  0.13611153225E+02  0.13611153225E+02  0.00000000000E+00 0. -1.
         21   -1    0    0  501  502  0.00000000000E+00 -0.00000000000E+00 -0.74821754546E+02  0.74821754546E+02  0.00000000000E+00 0.  1.
         21    1    1    2  503  502 -0.13694668626E+02 -0.24485846732E+02 -0.51677965120E+02  0.58802318984E+02  0.00000000000E+00 0.  1.
         -4    1    1    2    0  503  0.13694668626E+02  0.24485846732E+02 -0.95326362012E+01  0.29630588788E+02  0.00000000000E+00 0. -1.
</event>
<event>
 4    1  0.1643710E+006  0.2054577E+02  0.7546771E-02  0.1525850E+00
          4   -1    0    0  503    0 -0.00000000000E+00  0.00000000000E+00  0.33595113750E+02  0.33595113750E+02  0.00000000000E+00 0.  1.
         21   -1    0    0  501  502  0.00000000000E+00 -0.00000000000E+00 -0.23985138323E+02  0.23985138323E+02  0.00000000000E+00 0. -1.
         21    1    1    2  503  502 -0.11145005042E+02 -0.17260289636E+02 -0.15060748490E+02  0.25474592848E+02  0.00000000000E+00 0. -1.
          4    1    1    2  501    0  0.11145005042E+02  0.17260289636E+02  0.24670723917E+02  0.32105659225E+02  0.00000000000E+00 0.  1.
</event>
<event>
 4    1  0.1643710E+006  0.2237984E+02  0.7546771E-02  0.1500436E+00
          2   -1    0    0  503    0 -0.00000000000E+00  0.00000000000E+00  0.82513162145E+03  0.82513162145E+03  0.00000000000E+00 0. -1.
         21   -1    0    0  501  502  0.00000000000E+00 -0.00000000000E+00 -0.65394073661E+00  0.65394073661E+00  0.00000000000E+00 0. -1.
         21    1    1    2  503  502  0.16058019002E+02 -0.15588366440E+02  0.30161965936E+03  0.30244879906E+03  0.00000000000E+00 0. -1.
          2    1    1    2  501    0 -0.16058019002E+02  0.15588366440E+02  0.52285802136E+03  0.52333676313E+03  0.00000000000E+00 0. -1.
</event>
<event>
 4    1  0.1643710E+006  0.2561753E+02  0.7546771E-02  0.1462012E+00
         21   -1    0    0  503  502  0.00000000000E+00  0.00000000000E+00  0.86836256681E+02  0.86836256681E+02  0.00000000000E+00 0. -1.
         -3   -1    0    0    0  501 -0.00000000000E+00 -0.00000000000E+00 -0.83150745715E+01  0.83150745715E+01  0.00000000000E+00 0. -1.
         21    1    1    2  503  501  0.13179364580E+02 -0.21967294002E+02  0.24899456066E+02  0.35724509358E+02  0.00000000000E+00 0. -1.
         -3    1    1    2    0  502 -0.13179364580E+02  0.21967294002E+02  0.53621726044E+02  0.59426821894E+02  0.00000000000E+00 0. -1.
</event>
<event>
 4    1  0.1643710E+006  0.4606585E+02  0.7546771E-02  0.1316194E+00
          2   -1    0    0  503    0 -0.00000000000E+00  0.00000000000E+00  0.87415167535E+03  0.87415167535E+03  0.00000000000E+00 0. -1.
         21   -1    0    0  501  502  0.00000000000E+00 -0.00000000000E+00 -0.24411265206E+01  0.24411265206E+01  0.00000000000E+00 0. -1.
         21    1    1    2  503  502 -0.45643020142E+02  0.62271195669E+01  0.40319010386E+03  0.40581316163E+03  0.00000000000E+00 0. -1.
          2    1    1    2  501    0  0.45643020142E+02 -0.62271195669E+01  0.46852044498E+03  0.47077964024E+03  0.00000000000E+00 0. -1.
</event>
<event>
 4    1  0.1643710E+006  0.2006982E+02  0.7546771E-02  0.1532971E+00
         -2   -1    0    0    0  501 -0.00000000000E+00  0.00000000000E+00  0.62825965945E+01  0.62825965945E+01  0.00000000000E+00 0.  1.
         21   -1    0    0  501  502  0.00000000000E+00 -0.00000000000E+00 -0.66284026009E+02  0.66284026009E+02  0.00000000000E+00 0.  1.
         21    1    1    2  503  502  0.52468238275E+01  0.19371852408E+02 -0.36566818672E+02  0.41712468805E+02  0.00000000000E+00 0.  1.
         -2    1    1    2    0  503 -0.52468238275E+01 -0.19371852408E+02 -0.23434610742E+02  0.30854153799E+02  0.00000000000E+00 0.  1.
</event>
<event>
 4    1  0.1643710E+006  0.2062542E+02  0.7546771E-02  0.1524681E+00
         21   -1    0    0  501  502  0.00000000000E+00  0.00000000000E+00  0.19805103388E+03  0.19805103388E+03  0.00000000000E+00 0.  1.
          1   -1    0    0  503    0 -0.00000000000E+00 -0.00000000000E+00 -0.79089118188E+02  0.79089118188E+02  0.00000000000E+00 0.  1.
         21    1    1    2  503  502  0.18919533380E+02  0.82133554333E+01  0.19615637755E+03  0.19723775603E+03  0.00000000000E+00 0.  1.
          1    1    1    2  501    0 -0.18919533380E+02 -0.82133554333E+01 -0.77194461858E+02  0.79902396036E+02  0.00000000000E+00 0.  1.
</event>
<event>
 4    1  0.1643710E+006  0.2983566E+02  0.7546771E-02  0.1421030E+00
         -1   -1    0    0    0  501 -0.00000000000E+00  0.00000000000E+00  0.39310840027E+03  0.39310840027E+03  0.00000000000E+00 0. -1.
         21   -1    0    0  503  502  0.00000000000E+00 -0.00000000000E+00 -0.40571694093E+01  0.40571694093E+01  0.00000000000E+00 0.  1.
         21    1    1    2  503  501 -0.15277939090E+02 -0.25627160361E+02  0.62521183964E+02  0.69275285746E+02  0.00000000000E+00 0.  1.
         -1    1    1    2    0  502  0.15277939090E+02  0.25627160361E+02  0.32653004690E+03  0.32789028393E+03  0.00000000000E+00 0. -1.
</event>
<event>
 4    1  0.1643710E+006  0.2066468E+02  0.7546771E-02  0.1524107E+00
         21   -1    0    0  501  502  0.00000000000E+00  0.00000000000E+00  0.51825882970E+02  0.51825882970E+02  0.00000000000E+00 0. -1.
         -2   -1    0    0    0  501 -0.00000000000E+00 -0.00000000000E+00 -0.41273406773E+02  0.41273406773E+02  0.00000000000E+00 0. -1.
         21    1    1    2  503  502 -0.10765723945E+02 -0.17638831534E+02  0.46920957114E+02  0.51269926920E+02  0.00000000000E+00 0. -1.
         -2    1    1    2    0  503  0.10765723945E+02  0.17638831534E+02 -0.36368480917E+02  0.41829362823E+02  0.00000000000E+00 0. -1.
</event>
<event>
 4    1  0.1643710E+006  0.2171249E+02  0.7546771E-02  0.1509331E+00
          1   -1    0    0  503    0 -0.00000000000E+00  0.00000000000E+00  0.32839454664E+02  0.32839454664E+02  0.00000000000E+00 0. -1.
         21   -1    0    0  501  502  0.00000000000E+00 -0.00000000000E+00 -0.26853353908E+02  0.26853353908E+02  0.00000000000E+00 0.  1.
         21    1    1    2  503  502  0.15534452180E+02 -0.15169473555E+02 -0.17368350087E+02  0.27804526920E+02  0.00000000000E+00 0.  1.
          1    1    1    2  501    0 -0.15534452180E+02  0.15169473555E+02  0.23354450844E+02  0.31888281652E+02  0.00000000000E+00 0. -1.
</event>
<event>
 4    1  0.1643710E+006  0.2464230E+02  0.7546771E-02  0.1472845E+00
          4   -1    0    0  503    0 -0.00000000000E+00  0.00000000000E+00  0.62757827809E+03  0.62757827809E+03  0.00000000000E+00 0.  1.
         21   -1    0    0  501  502  0.00000000000E+00 -0.00000000000E+00 -0.52037239375E+01  0.52037239375E+01  0.00000000000E+00 0.  1.
         21    1    1    2  503  502  0.97374348904E+01 -0.22636817438E+02  0.25723204227E+02  0.35621992893E+02  0.00000000000E+00 0.  1.
          4    1    1    2  501    0 -0.97374348904E+01  0.22636817438E+02  0.59665134993E+03  0.59716000914E+03  0.00000000000E+00 0.  1.
</event>
<event>
 4    1  0.1643710E+006  0.2644175E+02  0.7546771E-02  0.1453298E+00
         21   -1    0    0  503  502  0.00000000000E+00  0.00000000000E+00  0.15463491997E+02  0.15463491997E+02  0.00000000000E+00 0.  1.
         -1   -1    0    0    0  501 -0.00000000000E+00 -0.00000000000E+00 -0.13618677353E+03  0.13618677353E+03  0.00000000000E+00 0. -1.
         21    1    1    2  503  501  0.16605234328E+02  0.20577476971E+02  0.16112030745E+01  0.26490797288E+02  0.00000000000E+00 0.  1.
         -1    1    1    2    0  502 -0.16605234328E+02 -0.20577476971E+02 -0.12233448460E+03  0.12515946824E+03  0.00000000000E+00 0. -1.
</event>
<event>
 4    1  0.1643710E+006  0.2361965E+02  0.7546771E-02  0.1484860E+00
          3   -1    0    0  503    0 -0.00000000000E+00  0.00000000000E+00  0.20239713186E+03  0.20239713186E+03  0.00000000000E+00 0. -1.
         21   -1    0    0  501  502  0.00000000000E+00 -0.00000000000E+00 -0.49716121850E+02  0.49716121850E+02  0.00000000000E+00 0. -1.
         21    1    1    2  503  502  0.15162749406E+02 -0.18110184220E+02 -0.46171828259E+02  0.51862563250E+02  0.00000000000E+00 0. -1.
          3    1    1    2  501    0 -0.15162749406E+02  0.18110184220E+02  0.19885283827E+03  0.20025069046E+03  0.00000000000E+00 0. -1.
</event>
<event>
 4    1  0.1643710E+006  0.4421692E+02  0.7546771E-02  0.1325402E+00
          2   -1    0    0  502    0 -0.00000000000E+00  0.00000000000E+00  0.34649609717E+02  0.34649609717E+02  0.00000000000E+00 0.  1.
         21   -1    0    0  503  502  0.00000000000E+00 -0.00000000000E+00 -0.98246707139E+02  0.98246707139E+02  0.00000000000E+00 0. -1.
         21    1    1    2  503  501 -0.40030514847E+02 -0.18780147723E+02 -0.75151638444E+02  0.87194637612E+02  0.00000000000E+00 0. -1.
          2    1    1    2  501    0  0.40030514847E+02  0.18780147723E+02  0.11554541022E+02  0.45701679243E+02  0.00000000000E+00 0.  1.
</event>
<event>
 4    1  0.1643710E+006  0.2887488E+02  0.7546771E-02  0.1429632E+00
          2   -1    0    0  503    0 -0.00000000000E+00  0.00000000000E+00  0.48157286720E+03  0.48157286720E+03  0.00000000000E+00 0. -1.
         21   -1    0    0  501  502  0.00000000000E+00 -0.00000000000E+00 -0.17488332735E+01  0.17488332735E+01  0.00000000000E+00 0. -1.
         21    1    1    2  503  502  0.20750094268E+02 -0.20079646038E+02  0.26409266011E+03  0.26566650470E+03  0.00000000000E+00 0. -1.
          2    1    1    2  501    0 -0.20750094268E+02  0.20079646038E+02  0.21573137382E+03  0.21765519577E+03  0.00000000000E+00 0. -1.
</event>
<event>
 4    1  0.1643710E+006  0.2700228E+02  0.7546771E-02  0.1447585E+00
          2   -1    0    0  503    0 -0.00000000000E+00  0.00000000000E+00  0.12137213676E+03  0.12137213676E+03  0.00000000000E+00 0. -1.
         21   -1    0    0  501  502  0.00000000000E+00 -0.00000000000E+00 -0.71150608765E+01  0.71150608765E+01  0.00000000000E+00 0. -1.
         21    1    1    2  503  502  0.13637430890E+02 -0.23305435939E+02  0.31779758281E+02  0.41702228981E+02  0.00000000000E+00 0. -1.
          2    1    1    2  501    0 -0.13637430890E+02  0.23305435939E+02  0.82477317598E+02  0.86784968651E+02  0.00000000000E+00 0. -1.
</event>
<event>
 4    1  0.1643710E+006  0.2676764E+02  0.7546771E-02  0.1449956E+00
         21   -1    0    0  503  502  0.00000000000E+00  0.00000000000E+00  0.25274318898E+03  0.25274318898E+03  0.00000000000E+00 0. -1.
         -1   -1    0    0    0  501 -0.00000000000E+00 -0.00000000000E+00 -0.80129393870E+01  0.80129393870E+01  0.00000000000E+00 0. -1.
         21    1    1    2  503  501  0.26750365317E+02  0.96140721712E+00  0.22717217493E+03  0.22874375053E+03  0.00000000000E+00 0. -1.
         -1    1    1    2    0  502 -0.26750365317E+02 -0.96140721712E+00  0.17558074668E+02  0.32012377833E+02  0.00000000000E+00 0. -1.
</event>
<event>
 4    1  0.1643710E+006  0.2762203E+02  0.7546771E-02  0.1441458E+00
         21   -1    0    0  501  502  0.00000000000E+00  0.00000000000E+00  0.21651543658E+02  0.21651543658E+02  0.00000000000E+00 0.  1.
          2   -1    0    0  503    0 -0.00000000000E+00 -0.00000000000E+00 -0.17226626478E+04  0.17226626478E+04  0.00000000000E+00 0. -1.
         21    1    1    2  503  502  0.27222192619E+02 -0.46828119764E+01  0.12685001304E+02  0.30395489091E+02  0.00000000000E+00 0.  1.
          2    1    1    2  501    0 -0.27222192619E+02  0.46828119764E+01 -0.17136961054E+04  0.17139187023E+04  0.00000000000E+00 0. -1.
</event>
<event>
 4    1  0.1643710E+006  0.2547179E+02  0.7546771E-02  0.1463594E+00
         21   -1    0    0  503  502  0.00000000000E+00  0.00000000000E+00  0.61521539402E+02  0.61521539402E+02  0.00000000000E+00 0.  1.
          4   -1    0    0  502    0 -0.00000000000E+00 -0.00000000000E+00 -0.26047791395E+02  0.26047791395E+02  0.00000000000E+00 0.  1.
         21    1    1    2  503  501  0.25043501348E+02 -0.46513795871E+01  0.51514267197E+02  0.57467660616E+02  0.00000000000E+00 0.  1.
          4    1    1    2  501    0 -0.25043501348E+02  0.46513795871E+01 -0.16040519190E+02  0.30101670181E+02  0.00000000000E+00 0.  1.
</event>
<event>
 4    1  0.1643710E+006  0.2298544E+02  0.7546771E-02  0.1492681E+00
         21   -1    0    0  503  502  0.00000000000E+00  0.00000000000E+00  0.71558584647E+01  0.71558584647E+01  0.00000000000E+00 0. -1.
          2   -1    0    0  502    0 -0.00000000000E+00 -0.00000000000E+00 -0.55494474449E+03  0.55494474449E+03  0.00000000000E+00 0.  1.
         21    1    1    2  503  501 -0.21138857088E+02  0.90265728761E+01 -0.12207122311E+02  0.26025835855E+02  0.00000000000E+00 0. -1.
          2    1    1    2  501    0  0.21138857088E+02 -0.90265728761E+01 -0.53558176372E+03  0.53607476710E+03  0.00000000000E+00 0.  1.
</event>
<event>
 4    1  0.1643710E+006  0.2919109E+02  0.7546771E-02  0.1426758E+00
         21   -1    0    0  501  502  0.00000000000E+00  0.00000000000E+00  0.29038998253E+01  0.29038998253E+01  0.00000000000E+00 0. -1.
          2   -1    0    0  503    0 -0.00000000000E+00 -0.00000000000E+00 -0.31302379350E+03  0.31302379350E+03  0.00000000000E+00 0. -1.
         21    1    1    2  503  502  0.71362102415E+01  0.28305370539E+02 -0.11554869897E+03  0.11917894668E+03  0.00000000000E+00 0. -1.
          2    1    1    2  501    0 -0.71362102415E+01 -0.28305370539E+02 -0.19457119470E+03  0.19674874664E+03  0.00000000000E+00 0. -1.
</event>
<event>
 4    1  0.1643710E+006  0.2567322E+02  0.7546771E-02  0.1461411E+00
         21   -1    0    0  503  502  0.00000000000E+00  0.00000000000E+00  0.15468449266E+03  0.15468449266E+03  0.00000000000E+00 0. -1.
          2   -1    0    0  502    0 -0.00000000000E+00 -0.00000000000E+00 -0.21451976570E+02  0.21451976570E+02  0.00000000000E+00 0. -1.
         21    1    1    2  503  501 -0.24136508079E+01 -0.25559513900E+02  0.14545425736E+03  0.14770259119E+03  0.00000000000E+00 0. -1.
          2    1    1    2  501    0  0.24136508079E+01  0.25559513900E+02 -0.12221741263E+02  0.28433878043E+02  0.00000000000E+00 0. -1.
</event>
<event>
 4    1  0.1643710E+006  0.2161723E+02  0.7546771E-02  0.1510632E+00
         21   -1    0    0  501  502  0.00000000000E+00  0.00000000000E+00  0.20898157904E+01  0.20898157904E+01  0.00000000000E+00 0.  1.
          1   -1    0    0  503    0 -0.00000000000E+00 -0.00000000000E+00 -0.45630500443E+03  0.45630500443E+03  0.00000000000E+00 0.  1.
         21    1    1    2  503  502 -0.10525174832E+02 -0.18881875748E+02 -0.63435269928E+02  0.67017445548E+02  0.00000000000E+00 0.  1.
          1    1    1    2  501    0  0.10525174832E+02  0.18881875748E+02 -0.39077991871E+03  0.39137737467E+03  0.00000000000E+00 0.  1.
</event>
<event>
 4    1  0.1643710E+006  0.3410072E+02  0.7546771E-02  0.1386998E+00
          4   -1    0    0  503    0 -0.00000000000E+00  0.00000000000E+00  0.45264120342E+02  0.45264120342E+02  0.00000000000E+00 0.  1.
         21   -1    0    0  501  502  0.00000000000E+00 -0.00000000000E+00 -0.27847043118E+02  0.27847043118E+02  0.00000000000E+00 0.  1.
         21    1    1    2  503  502  0.45796686364E+01 -0.33791799162E+02 -0.14642640998E+01  0.34132142107E+02  0.00000000000E+00 0.  1.
          4    1    1    2  501    0 -0.45796686364E+01  0.33791799162E+02  0.18881341324E+02  0.38979021353E+02  0.00000000000E+00 0.  1.
</event>
<event>
 4    1  0.1643710E+006  0.2042612E+02  0.7546771E-02  0.1527618E+00
          2   -1    0    0  502    0 -0.00000000000E+00  0.00000000000E+00  0.26752058430E+03  0.26752058430E+03  0.00000000000E+00 0.  1.
         21   -1    0    0  503  502  0.00000000000E+00 -0.00000000000E+00 -0.19379885976E+02  0.19379885976E+02  0.00000000000E+00 0.  1.
         21    1    1    2  503  501  0.67288041034E+01  0.19285995664E+02 -0.13486724977E+02  0.24476890816E+02  0.00000000000E+00 0.  1.
          2    1    1    2  501    0 -0.67288041034E+01 -0.19285995664E+02  0.26162742330E+03  0.26242357946E+03  0.00000000000E+00 0.  1.
</event>
<event>
 4    1  0.1643710E+006  0.4217812E+02  0.7546771E-02  0.1336174E+00
          2   -1    0    0  503    0 -0.00000000000E+00  0.00000000000E+00  0.79377909333E+01  0.79377909333E+01  0.00000000000E+00 0. -1.
         21   -1    0    0  501  502  0.00000000000E+00 -0.00000000000E+00 -0.32693899179E+03  0.32693899179E+03  0.00000000000E+00 0.  1.
         21    1    1    2  503  502 -0.16047307985E+02  0.39006127557E+02 -0.25340039435E+03  0.25688665582E+03  0.00000000000E+00 0.  1.
          2    1    1    2  501    0  0.16047307985E+02 -0.39006127557E+02 -0.65600806514E+02  0.77990126912E+02  0.00000000000E+00 0. -1.
</event>
<event>
 4    1  0.1643710E+006  0.2901280E+02  0.7546771E-02  0.1428373E+00
         -1   -1    0    0    0  501 -0.00000000000E+00  0.00000000000E+00  0.85750170171E+01  0.85750170171E+01  0.00000000000E+00 0. -1.
         21   -1    0    0  503  502  0.00000000000E+00 -0.00000000000E+00 -0.11271712240E+03  0.11271712240E+03  0.00000000000E+00 0. -1.
         21    1    1    2  503  501  0.28976616492E+02 -0.14486360631E+01 -0.73863806598E+02  0.79357449397E+02  0.00000000000E+00 0. -1.
         -1    1    1    2    0  502 -0.28976616492E+02  0.14486360631E+01 -0.30278298787E+02  0.41934690022E+02  0.00000000000E+00 0. -1.
</event>
<event>
 4    1  0.1643710E+006  0.2106362E+02  0.7546771E-02  0.1518358E+00
         21   -1    0    0  501  502  0.00000000000E+00  0.00000000000E+00  0.67987074966E+01  0.67987074966E+01  0.00000000000E+00 0.  1.
         -3   -1    0    0    0  501 -0.00000000000E+00 -0.00000000000E+00 -0.37720873825E+03  0.37720873825E+03  0.00000000000E+00 0. -1.
         21    1    1    2  503  502  0.11124589820E+02 -0.17886294406E+02 -0.10598206778E+02  0.23579610115E+02  0.00000000000E+00 0.  1.
         -3    1    1    2    0  503 -0.11124589820E+02  0.17886294406E+02 -0.35981182397E+03  0.36042783563E+03  0.00000000000E+00 0. -1.
</event>
<event>
 4    1  0.1643710E+006  0.4984923E+02  0.7546771E-02  0.1298827E+00
         21   -1    0    0  501  502  0.00000000000E+00  0.00000000000E+00  0.10935643663E+03  0.10935643663E+03  0.00000000000E+00 0. -1.
         -3   -1    0    0    0  501 -0.00000000000E+00 -0.00000000000E+00 -0.29483314133E+02  0.29483314133E+02  0.00000000000E+00 0. -1.
         21    1    1    2  503  502 -0.37376614744E+02 -0.32983853544E+02  0.73177056214E+02  0.88542800275E+02  0.00000000000E+00 0. -1.
         -3    1    1    2    0  503  0.37376614744E+02  0.32983853544E+02  0.66960662792E+01  0.50296950484E+02  0.00000000000E+00 0. -1.
</event>
<event>
 4    1  0.1643710E+006  0.2945997E+02  0.7546771E-02  0.1424348E+00
         -1   -1    0    0    0  501 -0.00000000000E+00  0.00000000000E+00  0.75436922225E+03  0.75436922225E+03  0.00000000000E+00 0.  1.
         21   -1    0    0  501  502  0.00000000000E+00 -0.00000000000E+00 -0.20444556819E+01  0.20444556819E+01  0.00000000000E+00 0. -1.
         21    1    1    2  503  502 -0.29171258405E+02  0.41143239419E+01  0.12606892887E+03  0.12946530348E+03  0.00000000000E+00 0. -1.
         -1    1    1    2    0  503  0.29171258405E+02 -0.41143239419E+01  0.62625583770E+03  0.62694837445E+03  0.00000000000E+00 0.  1.
</event>
<event>
 4    1  0.1643710E+006  0.2592052E+02  0.7546771E-02  0.1458764E+00
         21   -1    0    0  501  502  0.00000000000E+00  0.00000000000E+00  0.77961972303E+01  0.77961972303E+01  0.00000000000E+00 0.  1.
         -1   -1    0    0    0  501 -0.00000000000E+00 -0.00000000000E+00 -0.71010520623E+03  0.71010520623E+03  0.00000000000E+00 0.  1.
         21    1    1    2  503  502  0.44231837686E+01  0.25540332055E+02 -0.14689527250E+02  0.29793545055E+02  0.00000000000E+00 0.  1.
         -1    1    1    2    0  503 -0.44231837686E+01 -0.25540332055E+02 -0.68761948175E+03  0.68810785840E+03  0.00000000000E+00 0.  1.
</event>
<event>
 4    1  0.1643710E+006  0.2195723E+02  0.7546771E-02  0.1506024E+00
          1   -1    0    0  503    0 -0.00000000000E+00  0.00000000000E+00  0.92407878803E+02  0.92407878803E+02  0.00000000000E+00 0.  1.
         21   -1    0    0  501  502  0.00000000000E+00 -0.00000000000E+00 -0.16068791747E+03  0.16068791747E+03  0.00000000000E+00 0. -1.
         21    1    1    2  503  502 -0.18400958797E+02 -0.11980180083E+02 -0.15861655165E+03  0.16012910559E+03  0.00000000000E+00 0. -1.
          1    1    1    2  501    0  0.18400958797E+02  0.11980180083E+02  0.90336512981E+02  0.92966690686E+02  0.00000000000E+00 0.  1.
</event>
<event>
 4    1  0.1643710E+006  0.2830323E+02  0.7546771E-02  0.1434939E+00
         21   -1    0    0  503  502  0.00000000000E+00  0.00000000000E+00  0.21744402815E+02  0.21744402815E+02  0.00000000000E+00 0. -1.
          2   -1    0    0  502    0 -0.00000000000E+00 -0.00000000000E+00 -0.15207829303E+03  0.15207829303E+03  0.00000000000E+00 0.  1.
         21    1    1    2  503  501  0.57004860559E+01  0.27723224429E+02  0.10488555050E+02  0.30184143205E+02  0.00000000000E+00 0. -1.
          2    1    1    2  501    0 -0.57004860559E+01 -0.27723224429E+02 -0.14082244526E+03  0.14363855264E+03  0.00000000000E+00 0.  1.
</event>
<event>
 4    1  0.1643710E+006  0.2455358E+02  0.7546771E-02  0.1473860E+00
         21   -1    0    0  501  502  0.00000000000E+00  0.00000000000E+00  0.13144583357E+01  0.13144583357E+01  0.00000000000E+00 0. -1.
          2   -1    0    0  503    0 -0.00000000000E+00 -0.00000000000E+00 -0.18345214037E+04  0.18345214037E+04  0.00000000000E+00 0. -1.
         21    1    1    2  503  502 -0.50359168220E+01 -0.24031600064E+02 -0.12166932940E+03  0.12412213331E+03  0.00000000000E+00 0. -1.
          2    1    1    2  501    0  0.50359168220E+01  0.24031600064E+02 -0.17115376159E+04  0.17117137287E+04  0.00000000000E+00 0. -1.
</event>
<event>
 4    1  0.1643710E+006  0.2103469E+02  0.7546771E-02  0.1518770E+00
         21   -1    0    0  501  502  0.00000000000E+00  0.00000000000E+00  0.29992650691E+02  0.29992650691E+02  0.00000000000E+00 0.  1.
          1   -1    0    0  503    0 -0.00000000000E+00 -0.00000000000E+00 -0.16743763102E+02  0.16743763102E+02  0.00000000000E+00 0.  1.
         21    1    1    2  503  502 -0.12338146805E+02  0.17036083876E+02  0.14683687596E+02  0.25652849780E+02  0.00000000000E+00 0.  1.
          1    1    1    2  501    0  0.12338146805E+02 -0.17036083876E+02 -0.14348000075E+01  0.21083564013E+02  0.00000000000E+00 0.  1.
</event>
<event>
 4    1  0.1643710E+006  0.2347204E+02  0.7546771E-02  0.1486654E+00
         -3   -1    0    0    0  501 -0.00000000000E+00  0.00000000000E+00  0.45489355923E+01  0.45489355923E+01  0.00000000000E+00 0.  1.
         21   -1    0    0  501  502  0.00000000000E+00 -0.00000000000E+00 -0.80382732733E+03  0.80382732733E+03  0.00000000000E+00 0. -1.
         21    1    1    2  503  502 -0.22741454820E+02 -0.58105745177E+01 -0.77213517621E+03  0.77249185555E+03  0.00000000000E+00 0. -1.
         -3    1    1    2    0  503  0.22741454820E+02  0.58105745177E+01 -0.27143215527E+02  0.35884407376E+02  0.00000000000E+00 0.  1.
</event>
<event>
 4    1  0.1643710E+006  0.2497287E+02  0.7546771E-02  0.1469107E+00
          2   -1    0    0  502    0 -0.00000000000E+00  0.00000000000E+00  0.16347169142E+03  0.16347169142E+03  0.00000000000E+00 0.  1.
         21   -1    0    0  503  502  0.00000000000E+00 -0.00000000000E+00 -0.40021821547E+01  0.40021821547E+01  0.00000000000E+00 0.  1.
         21    1    1    2  503  501 -0.74235833580E+01 -0.23843964845E+02  0.61625412936E+02  0.66493125727E+02  0.00000000000E+00 0.  1.
          2    1    1    2  501    0  0.74235833580E+01  0.23843964845E+02  0.97844096328E+02  0.10098074785E+03  0.00000000000E+00 0.  1.
</event>
<event>
 4    1  0.1643710E+006  0.1180415E+03  0.7546771E-02  0.1135765E+00
         -3   -1    0    0    0  501 -0.00000000000E+00  0.00000000000E+00  0.26115349010E+03  0.26115349010E+03  0.00000000000E+00 0. -1.
         21   -1    0    0  501  502  0.00000000000E+00 -0.00000000000E+00 -0.13817427553E+03  0.13817427553E+03  0.00000000000E+00 0.  1.
         21    1    1    2  503  502 -0.94050207428E+02  0.71332648166E+02 -0.94945327400E+02  0.15148730444E+03  0.00000000000E+00 0.  1.
         -3    1    1    2    0  503  0.94050207428E+02 -0.71332648166E+02  0.21792454197E+03  0.24784046119E+03  0.00000000000E+00 0. -1.
</event>
<event>
 4    1  0.1643710E+006  0.2683268E+02  0.7546771E-02  0.1449296E+00
         21   -1    0    0  501  502  0.00000000000E+00  0.00000000000E+00  0.25659721024E+03  0.25659721024E+03  0.00000000000E+00 0.  1.
          4   -1    0    0  503    0 -0.00000000000E+00 -0.00000000000E+00 -0.83631271226E+01  0.83631271226E+01  0.00000000000E+00 0.  1.
         21    1    1    2  503  502 -0.11541189967E+02  0.24223822193E+02  0.23210979255E+03  0.23365561929E+03  0.00000000000E+00 0.  1.
          4    1    1    2  501    0  0.11541189967E+02 -0.24223822193E+02  0.16124290571E+02  0.31304718078E+02  0.00000000000E+00 0.  1.
</event>
<event>
 4    1  0.1643710E+006  0.2015676E+02  0.7546771E-02  0.1531653E+00
          1   -1    0    0  503    0 -0.00000000000E+00  0.00000000000E+00  0.23639082065E+03  0.23639082065E+03  0.00000000000E+00 0. -1.
         21   -1    0    0  501  502  0.00000000000E+00 -0.00000000000E+00 -0.21638049712E+02  0.21638049712E+02  0.00000000000E+00 0. -1.
         21    1    1    2  503  502  0.11113983138E+02  0.16815892804E+02 -0.16408143028E+02  0.25990806637E+02  0.00000000000E+00 0. -1.
          1    1    1    2  501    0 -0.11113983138E+02 -0.16815892804E+02  0.23116091396E+03  0.23203806372E+03  0.00000000000E+00 0. -1.
</event>
<event>
 4    1  0.1643710E+006  0.2562715E+02  0.7546771E-02  0.1461908E+00
         -1   -1    0    0    0  501 -0.00000000000E+00  0.00000000000E+00  0.20760201199E+03  0.20760201199E+03  0.00000000000E+00 0. -1.
         21   -1    0    0  503  502  0.00000000000E+00 -0.00000000000E+00 -0.46499604968E+01  0.46499604968E+01  0.00000000000E+00 0.  1.
         21    1    1    2  503  501 -0.14365538669E+02 -0.21222206399E+02  0.41473084333E+02  0.48752102209E+02  0.00000000000E+00 0.  1.
         -1    1    1    2    0  502  0.14365538669E+02  0.21222206399E+02  0.16147896716E+03  0.16349987028E+03  0.00000000000E+00 0. -1.
</event>
<event>
 4    1  0.1643710E+006  0.2581189E+02  0.7546771E-02  0.1459922E+00
         21   -1    0    0  503  502  0.00000000000E+00  0.00000000000E+00  0.38657920696E+02  0.38657920696E+02  0.00000000000E+00 0. -1.
          4   -1    0    0  502    0 -0.00000000000E+00 -0.00000000000E+00 -0.10834672540E+03  0.10834672540E+03  0.00000000000E+00 0.  1.
         21    1    1    2  503  501  0.23238383233E+02 -0.11235275767E+02  0.32558912333E+02  0.41549207563E+02  0.00000000000E+00 0. -1.
          4    1    1    2  501    0 -0.23238383233E+02  0.11235275767E+02 -0.10224771704E+03  0.10545543854E+03  0.00000000000E+00 0.  1.
</event>
<event>
 4    1  0.1643710E+006  0.3321473E+02  0.7546771E-02  0.1393568E+00
         -4   -1    0    0    0  501 -0.00000000000E+00  0.00000000000E+00  0.38278982598E+03  0.38278982598E+03  0.00000000000E+00 0.  1.
         21   -1    0    0  503  502  0.00000000000E+00 -0.00000000000E+00 -0.13125665566E+02  0.13125665566E+02  0.00000000000E+00 0.  1.
         21    1    1    2  503  501  0.30999535731E+02  0.11926748538E+02  0.99527358451E+01  0.34673844567E+02  0.00000000000E+00 0.  1.
         -4    1    1    2    0  502 -0.30999535731E+02 -0.11926748538E+02  0.35971142457E+03  0.36124164698E+03  0.00000000000E+00 0.  1.
</event>
<event>
 4    1  0.1643710E+006  0.4127426E+02  0.7546771E-02  0.1341176E+00
         -2   -1    0    0    0  501 -0.00000000000E+00  0.00000000000E+00  0.72974084976E+02  0.72974084976E+02  0.00000000000E+00 0.  1.
         21   -1    0    0  501  502  0.00000000000E+00 -0.00000000000E+00 -0.11695720153E+03  0.11695720153E+03  0.00000000000E+00 0.  1.
         21    1    1    2  503  502 -0.23484823917E+02  0.33941532388E+02 -0.10695258467E+03  0.11464039403E+03  0.00000000000E+00 0.  1.
         -2    1    1    2    0  503  0.23484823917E+02 -0.33941532388E+02  0.62969468116E+02  0.75290892478E+02  0.00000000000E+00 0.  1.
</event>
<event>
 4    1  0.1643710E+006  0.2899440E+02  0.7546771E-02  0.1428541E+00
         21   -1    0    0  501  502  0.00000000000E+00  0.00000000000E+00  0.15699433106E+02  0.15699433106E+02  0.00000000000E+00 0.  1.
          2   -1    0    0  503    0 -0.00000000000E+00 -0.00000000000E+00 -0.85259196881E+03  0.85259196881E+03  0.00000000000E+00 0. -1.
         21    1    1    2  503  502  0.28923076065E+02  0.20324113409E+01  0.18448327945E+01  0.29053027948E+02  0.00000000000E+00 0.  1.
          2    1    1    2  501    0 -0.28923076065E+02 -0.20324113409E+01 -0.83873736850E+03  0.83923837397E+03  0.00000000000E+00 0. -1.
</event>
<event>
 4    1  0.1643710E+006  0.2225979E+02  0.7546771E-02  0.1502008E+00
         21   -1    0    0  503  502  0.00000000000E+00  0.00000000000E+00  0.72116781001E+02  0.72116781001E+02  0.00000000000E+00 0. -1.
          1   -1    0    0  502    0 -0.00000000000E+00 -0.00000000000E+00 -0.86371201704E+01  0.86371201704E+01  0.00000000000E+00 0. -1.
         21    1    1    2  503  501  0.10814888545E+02  0.19456012554E+02  0.49999239385E+02  0.54730450188E+02  0.00000000000E+00 0. -1.
          1    1    1    2  501    0 -0.10814888545E+02 -0.19456012554E+02  0.13480421446E+02  0.26023450984E+02  0.00000000000E+00 0. -1.
</event>
<event>
 4    1  0.1643710E+006  0.2999934E+02  0.7546771E-02  0.1419602E+00
          2   -1    0    0  502    0 -0.00000000000E+00  0.00000000000E+00  0.16749252205E+03  0.16749252205E+03  0.00000000000E+00 0. -1.
         21   -1    0    0  503  502  0.00000000000E+00 -0.00000000000E+00 -0.44009139013E+02  0.44009139013E+02  0.00000000000E+00 0.  1.
         21    1    1    2  503  501 -0.11263258238E+02  0.27804666053E+02 -0.37343427408E+02  0.47900856057E+02  0.00000000000E+00 0.  1.
          2    1    1    2  501    0  0.11263258238E+02 -0.27804666053E+02  0.16082681045E+03  0.16360080501E+03  0.00000000000E+00 0. -1.
</event>
<event>
 4    1  0.1643710E+006  0.2810197E+02  0.7546771E-02  0.1436842E+00
          3   -1    0    0  503    0 -0.00000000000E+00  0.00000000000E+00  0.58959570837E+02  0.58959570837E+02  0.00000000000E+00 0. -1.
         21   -1    0    0  501  502  0.00000000000E+00 -0.00000000000E+00 -0.10428624837E+03  0.10428624837E+03  0.00000000000E+00 0.  1.
         21    1    1    2  503  502  0.27732429248E+02  0.45423518123E+01 -0.98864452813E+02  0.10278083782E+03  0.00000000000E+00 0.  1.
          3    1    1    2  501    0 -0.27732429248E+02 -0.45423518123E+01  0.53537775283E+02  0.60464981388E+02  0.00000000000E+00 0. -1.
</event>
<event>
 4    1  0.1643710E+006  0.2156756E+02  0.7546771E-02  0.1511314E+00
         21   -1    0    0  501  502  0.00000000000E+00  0.00000000000E+00  0.11337297503E+03  0.11337297503E+03  0.00000000000E+00 0.  1.
          1   -1    0    0  503    0 -0.00000000000E+00 -0.00000000000E+00 -0.88091876866E+01  0.88091876866E+01  0.00000000000E+00 0. -1.
         21    1    1    2  503  502  0.16550757092E+02  0.13828671797E+02  0.96934663817E+02  0.99305028943E+02  0.00000000000E+00 0.  1.
          1    1    1    2  501    0 -0.16550757092E+02 -0.13828671797E+02  0.76291235287E+01  0.22877133776E+02  0.00000000000E+00 0. -1.
</event>
<event>
 4    1  0.1643710E+006  0.2185106E+02  0.7546771E-02  0.1507452E+00
         21   -1    0    0  501  502  0.00000000000E+00  0.00000000000E+00  0.14847826213E+02  0.14847826213E+02  0.00000000000E+00 0.  1.
          1   -1    0    0  503    0 -0.00000000000E+00 -0.00000000000E+00 -0.34613882021E+02  0.34613882021E+02  0.00000000000E+00 0.  1.
         21    1    1    2  503  502  0.21833288591E+02 -0.88109438520E+00 -0.16471168058E+02  0.27363629057E+02  0.00000000000E+00 0.  1.
          1    1    1    2  501    0 -0.21833288591E+02  0.88109438520E+00 -0.32948877509E+01  0.22098079177E+02  0.00000000000E+00 0.  1.
</event>
<event>
 4    1  0.1643710E+006  0.4449791E+02  0.7546771E-02  0.1323969E+00
         21   -1    0    0  501  502  0.00000000000E+00  0.00000000000E+00  0.26622753770E+02  0.26622753770E+02  0.00000000000E+00 0. -1.
          1   -1    0    0  503    0 -0.00000000000E+00 -0.00000000000E+00 -0.27887809726E+03  0.27887809726E+03  0.00000000000E+00 0.  1.
         21    1    1    2  503  502 -0.33709309158E+02  0.29047315555E+02  0.46776158027E+01  0.44743090577E+02  0.00000000000E+00 0. -1.
          1    1    1    2  501    0  0.33709309158E+02 -0.29047315555E+02 -0.25693295929E+03  0.26075776045E+03  0.00000000000E+00 0.  1.
</event>
<event>
 4    1  0.1643710E+006  0.3032611E+02  0.7546771E-02  0.1416783E+00
         21   -1    0    0  503  502  0.00000000000E+00  0.00000000000E+00  0.44770389995E+01  0.44770389995E+01  0.00000000000E+00 0.  1.
          1   -1    0    0  502    0 -0.00000000000E+00 -0.00000000000E+00 -0.20709520797E+03  0.20709520797E+03  0.00000000000E+00 0.  1.
         21    1    1    2  503  501  0.11745383427E+02 -0.27959231832E+02 -0.11082383883E+03  0.11489819811E+03  0.00000000000E+00 0.  1.
          1    1    1    2  501    0 -0.11745383427E+02  0.27959231832E+02 -0.91794330148E+02  0.96674048865E+02  0.00000000000E+00 0.  1.
</event>
<event>
 4    1  0.1643710E+006  0.4638174E+02  0.7546771E-02  0.1314671E+00
         21   -1    0    0  503  502  0.00000000000E+00  0.00000000000E+00  0.70180948995E+02  0.70180948995E+02  0.00000000000E+00 0. -1.
          3   -1    0    0  502    0 -0.00000000000E+00 -0.00000000000E+00 -0.21776523858E+03  0.21776523858E+03  0.00000000000E+00 0.  1.
         21    1    1    2  503  501 -0.19644337007E+02  0.42016256481E+02  0.59663824943E+02  0.75571408562E+02  0.00000000000E+00 0. -1.
          3    1    1    2  501    0  0.19644337007E+02 -0.42016256481E+02 -0.20724811453E+03  0.21237477901E+03  0.00000000000E+00 0.  1.
</event>
<event>
 4    1  0.1643710E+006  0.2237375E+02  0.7546771E-02  0.1500515E+00
         21   -1    0    0  501  502  0.00000000000E+00  0.00000000000E+00  0.15715608693E+02  0.15715608693E+02  0.00000000000E+00 0.  1.
          1   -1    0    0  503    0 -0.00000000000E+00 -0.00000000000E+00 -0.51842126442E+02  0.51842126442E+02  0.00000000000E+00 0.  1.
         21    1    1    2  503  502  0.75560520746E+01 -0.21059219614E+02  0.29118290647E+01  0.22562433428E+02  0.00000000000E+00 0.  1.
          1    1    1    2  501    0 -0.75560520746E+01  0.21059219614E+02 -0.39038346814E+02  0.44995301706E+02  0.00000000000E+00 0.  1.
</event>
<event>
 4    1  0.1643710E+006  0.2156767E+02  0.7546771E-02  0.1511312E+00
         -3   -1    0    0    0  501 -0.00000000000E+00  0.00000000000E+00  0.46839149914E+02  0.46839149914E+02  0.00000000000E+00 0.  1.
         21   -1    0    0  503  502  0.00000000000E+00 -0.00000000000E+00 -0.19483464190E+02  0.19483464190E+02  0.00000000000E+00 0. -1.
         21    1    1    2  503  501  0.19753383000E+02 -0.86584267542E+01 -0.95417116995E+01  0.23584078442E+02  0.00000000000E+00 0. -1.
         -3    1    1    2    0  502 -0.19753383000E+02  0.86584267542E+01  0.36897397424E+02  0.42738535661E+02  0.00000000000E+00 0.  1.
</event>
<event>
 4    1  0.1643710E+006  0.3070810E+02  0.7546771E-02  0.1413541E+00
         21   -1    0    0  501  502  0.00000000000E+00  0.00000000000E+00  0.23200672802E+02  0.23200672802E+02  0.00000000000E+00 0. -1.
          2   -1    0    0  503    0 -0.00000000000E+00 -0.00000000000E+00 -0.37016986925E+03  0.37016986925E+03  0.00000000000E+00 0.  1.
         21    1    1    2  503  502  0.30372739009E+02  0.45259680631E+01  0.12088709408E+02  0.33001887173E+02  0.00000000000E+00 0. -1.
          2    1    1    2  501    0 -0.30372739009E+02 -0.45259680631E+01 -0.35905790586E+03  0.36036865488E+03  0.00000000000E+00 0.  1.
</event>
<event>
 4    1  0.1643710E+006  0.2008106E+02  0.7546771E-02  0.1532800E+00
          2   -1    0    0  503    0 -0.00000000000E+00  0.00000000000E+00  0.31108097083E+02  0.31108097083E+02  0.00000000000E+00 0. -1.
         21   -1    0    0  501  502  0.00000000000E+00 -0.00000000000E+00 -0.37560493461E+02  0.37560493461E+02  0.00000000000E+00 0.  1.
         21    1    1    2  503  502 -0.19784041673E+02  0.34410067819E+01 -0.31011138036E+02  0.36945087831E+02  0.00000000000E+00 0.  1.
          2    1    1    2  501    0  0.19784041673E+02 -0.34410067819E+01  0.24558741658E+02  0.31723502713E+02  0.00000000000E+00 0. -1.
</event>
<event>
 4    1  0.1643710E+006  0.2090078E+02  0.7546771E-02  0.1520686E+00
         -2   -1    0    0    0  501 -0.00000000000E+00  0.00000000000E+00  0.68812676685E+02  0.68812676685E+02  0.00000000000E+00 0.  1.
         21   -1    0    0  503  502  0.00000000000E+00 -0.00000000000E+00 -0.36551283871E+02  0.36551283871E+02  0.00000000000E+00 0. -1.
         21    1    1    2  503  501  0.35849041674E+01 -0.20591046089E+02 -0.31758305106E+02  0.38018846117E+02  0.00000000000E+00 0. -1.
         -2    1    1    2    0  502 -0.35849041674E+01  0.20591046089E+02  0.64019697920E+02  0.67345114438E+02  0.00000000000E+00 0.  1.
</event>
<event>
 4    1  0.1643710E+006  0.2828541E+02  0.7546771E-02  0.1435106E+00
          1   -1    0    0  503    0 -0.00000000000E+00  0.00000000000E+00  0.14213018403E+03  0.14213018403E+03  0.00000000000E+00 0. -1.
         21   -1    0    0  501  502  0.00000000000E+00 -0.00000000000E+00 -0.10061043811E+03  0.10061043811E+03  0.00000000000E+00 0.  1.
         21    1    1    2  503  502 -0.86816528086E+01 -0.26920130302E+02 -0.97166270215E+02  0.10119954831E+03  0.00000000000E+00 0.  1.
          1    1    1    2  501    0  0.86816528086E+01  0.26920130302E+02  0.13868601613E+03  0.14154107383E+03  0.00000000000E+00 0. -1.
</event>
<event>
 4    1  0.1643710E+006  0.2272379E+02  0.7546771E-02  0.1495996E+00
          2   -1    0    0  502    0 -0.00000000000E+00  0.00000000000E+00  0.60117783863E+01  0.60117783863E+01  0.00000000000E+00 0. -1.
         21   -1    0    0  503  502  0.00000000000E+00 -0.00000000000E+00 -0.28773582839E+03  0.28773582839E+03  0.00000000000E+00 0.  1.
         21    1    1    2  503  501 -0.94528346363E+01 -0.20664325036E+02 -0.26387584378E+03  0.26485247090E+03  0.00000000000E+00 0.  1.
          2    1    1    2  501    0  0.94528346363E+01  0.20664325036E+02 -0.17848206225E+02  0.28895135876E+02  0.00000000000E+00 0. -1.
</event>
<event>
 4    1  0.1643710E+006  0.2766454E+02  0.7546771E-02  0.1441044E+00
          2   -1    0    0  502    0 -0.00000000000E+00  0.00000000000E+00  0.43875127525E+03  0.43875127525E+03  0.00000000000E+00 0. -1.
         21   -1    0    0  503  502  0.00000000000E+00 -0.00000000000E+00 -0.43621607879E+01  0.43621607879E+01  0.00000000000E+00 0. -1.
         21    1    1    2  503  501 -0.14332206346E+02  0.23662518807E+02  0.45559938929E+02  0.53301359929E+02  0.00000000000E+00 0. -1.
          2    1    1    2  501    0  0.14332206346E+02 -0.23662518807E+02  0.38882917553E+03  0.38981207611E+03  0.00000000000E+00 0. -1.
</event>
<event>
 4    1  0.1643710E+006  0.2516552E+02  0.7546771E-02  0.1466960E+00
          2   -1    0    0  502    0 -0.00000000000E+00  0.00000000000E+00  0.18251978431E+04  0.18251978431E+04  0.00000000000E+00 0.  1.
         21   -1    0    0  503  502  0.00000000000E+00 -0.00000000000E+00 -0.11910917897E+01  0.11910917897E+01  0.00000000000E+00 0. -1.
         21    1    1    2  503  501  0.22270438797E+02 -0.11718831656E+02  0.14324270141E+03  0.14543649806E+03  0.00000000000E+00 0. -1.
          2    1    1    2  501    0 -0.22270438797E+02  0.11718831656E+02  0.16807640499E+04  0.16809524368E+04  0.00000000000E+00 0.  1.
</event>
<event>
 4    1  0.1643710E+006  0.2325223E+02  0.7546771E-02  0.1489355E+00
          1   -1    0    0  502    0 -0.00000000000E+00  0.00000000000E+00  0.40377038376E+03  0.40377038376E+03  0.00000000000E+00 0.  1.
         21   -1    0    0  503  502  0.00000000000E+00 -0.00000000000E+00 -0.13577693426E+03  0.13577693426E+03  0.00000000000E+00 0. -1.
         21    1    1    2  503  501  0.10525748225E+02  0.20733427079E+02 -0.13444337232E+03  0.13643931521E+03  0.00000000000E+00 0. -1.
          1    1    1    2  501    0 -0.10525748225E+02 -0.20733427079E+02  0.40243682182E+03  0.40310800281E+03  0.00000000000E+00 0.  1.
</event>
<event>
 4    1  0.1643710E+006  0.2959056E+02  0.7546771E-02  0.1423188E+00
          1   -1    0    0  503    0 -0.00000000000E+00  0.00000000000E+00  0.75701676956E+03  0.75701676956E+03  0.00000000000E+00 0.  1.
         21   -1    0    0  501  502  0.00000000000E+00 -0.00000000000E+00 -0.15218556968E+01  0.15218556968E+01  0.00000000000E+00 0.  1.
         21    1    1    2  503  502  0.20388612152E+02  0.21445408088E+02  0.19195347853E+03  0.19422085097E+03  0.00000000000E+00 0.  1.
          1    1    1    2  501    0 -0.20388612152E+02 -0.21445408088E+02  0.56354143534E+03  0.56431777429E+03  0.00000000000E+00 0.  1.
</event>
<event>
 4    1  0.1643710E+006  0.2314177E+02  0.7546771E-02  0.1490726E+00
         21   -1    0    0  503  502  0.00000000000E+00  0.00000000000E+00  0.41499695775E+01  0.41499695775E+01  0.00000000000E+00 0. -1.
          2   -1    0    0  502    0 -0.00000000000E+00 -0.00000000000E+00 -0.12449718436E+04  0.12449718436E+04  0.00000000000E+00 0. -1.
         21    1    1    2  503  501  0.14047515762E+00  0.23141341163E+02 -0.29104656249E+02  0.37183631069E+02  0.00000000000E+00 0. -1.
          2    1    1    2  501    0 -0.14047515762E+00 -0.23141341163E+02 -0.12117172178E+04  0.12119381821E+04  0.00000000000E+00 0. -1.
</event>
<event>
 4    1  0.1643710E+006  0.2034765E+02  0.7546771E-02  0.1528786E+00
         21   -1    0    0  501  502  0.00000000000E+00  0.00000000000E+00  0.38963999341E+02  0.38963999341E+02  0.00000000000E+00 0. -1.
         -1   -1    0    0    0  501 -0.00000000000E+00 -0.00000000000E+00 -0.10777448374E+02  0.10777448374E+02  0.00000000000E+00 0.  1.
         21    1    1    2  503  502 -0.13495432615E+02 -0.15228266331E+02  0.17042678858E+02  0.26542036462E+02  0.00000000000E+00 0. -1.
         -1    1    1    2    0  503  0.13495432615E+02  0.15228266331E+02  0.11143872109E+02  0.23199411253E+02  0.00000000000E+00 0.  1.
</event>
<event>
 4    1  0.1643710E+006  0.2361114E+02  0.7546771E-02  0.1484963E+00
         21   -1    0    0  501  502  0.00000000000E+00  0.00000000000E+00  0.18504106440E+01  0.18504106440E+01  0.00000000000E+00 0.  1.
          2   -1    0    0  503    0 -0.00000000000E+00 -0.00000000000E+00 -0.54296078980E+03  0.54296078980E+03  0.00000000000E+00 0. -1.
         21    1    1    2  503  502  0.10155156247E+02  0.21315695149E+02 -0.88813060202E+02  0.91898018045E+02  0.00000000000E+00 0.  1.
          2    1    1    2  501    0 -0.10155156247E+02 -0.21315695149E+02 -0.45229731896E+03  0.45291318240E+03  0.00000000000E+00 0. -1.
</event>
<event>
 4    1  0.1643710E+006  0.2250796E+02  0.7546771E-02  0.1498771E+00
         21   -1    0    0  501  502  0.00000000000E+00  0.00000000000E+00  0.27871041739E+01  0.27871041739E+01  0.00000000000E+00 0.  1.
          2   -1    0    0  503    0 -0.00000000000E+00 -0.00000000000E+00 -0.13291006472E+04  0.13291006472E+04  0.00000000000E+00 0. -1.
         21    1    1    2  503  502 -0.22081094983E+02  0.43627440659E+01 -0.44423829975E+02  0.49800451414E+02  0.00000000000E+00 0.  1.
          2    1    1    2  501    0  0.22081094983E+02 -0.43627440659E+01 -0.12818897131E+04  0.12820873000E+04  0.00000000000E+00 0. -1.
</event>
<event>
 4    1  0.1643710E+006  0.2353672E+02  0.7546771E-02  0.1485866E+00
         -1   -1    0    0    0  501 -0.00000000000E+00  0.00000000000E+00  0.56060151235E+03  0.56060151235E+03  0.00000000000E+00 0. -1.
         21   -1    0    0  501  502  0.00000000000E+00 -0.00000000000E+00 -0.20869161830E+03  0.20869161830E+03  0.00000000000E+00 0. -1.
         21    1    1    2  503  502  0.23536578212E+02 -0.80830524965E-01 -0.20777986071E+03  0.20910869796E+03  0.00000000000E+00 0. -1.
         -1    1    1    2    0  503 -0.23536578212E+02  0.80830524965E-01  0.55968975475E+03  0.56018443269E+03  0.00000000000E+00 0. -1.
</event>
<event>
 4    1  0.1643710E+006  0.2528677E+02  0.7546771E-02  0.1465621E+00
          1   -1    0    0  502    0 -0.00000000000E+00  0.00000000000E+00  0.19075198923E+02  0.19075198923E+02  0.00000000000E+00 0. -1.
         21   -1    0    0  503  502  0.00000000000E+00 -0.00000000000E+00 -0.34815265791E+03  0.34815265791E+03  0.00000000000E+00 0. -1.
         21    1    1    2  503  501  0.13878692410E+02 -0.21137708897E+02 -0.33908956605E+03  0.34003110835E+03  0.00000000000E+00 0. -1.
          1    1    1    2  501    0 -0.13878692410E+02  0.21137708897E+02  0.10012107061E+02  0.27196748487E+02  0.00000000000E+00 0. -1.
</event>
<event>
 4    1  0.1643710E+006  0.3054339E+02  0.7546771E-02  0.1414932E+00
          2   -1    0    0  503    0 -0.00000000000E+00  0.00000000000E+00  0.21542754200E+02  0.21542754200E+02  0.00000000000E+00 0.  1.
         21   -1    0    0  501  502  0.00000000000E+00 -0.00000000000E+00 -0.24438213533E+03  0.24438213533E+03  0.00000000000E+00 0.  1.
         21    1    1    2  503  502  0.18028842987E+02 -0.24654805012E+02 -0.23202769432E+03  0.23402937748E+03  0.00000000000E+00 0.  1.
          2    1    1    2  501    0 -0.18028842987E+02  0.24654805012E+02  0.91883131943E+01  0.31895512051E+02  0.00000000000E+00 0.  1.
</event>
<event>
 4    1  0.1643710E+006  0.2630427E+02  0.7546771E-02  0.1454725E+00
          1   -1    0    0  503    0 -0.00000000000E+00  0.00000000000E+00  0.93309048769E+03  0.93309048769E+03  0.00000000000E+00 0.  1.
         21   -1    0    0  501  502  0.00000000000E+00 -0.00000000000E+00 -0.22328540783E+01  0.22328540783E+01  0.00000000000E+00 0. -1.
         21    1    1    2  503  502 -0.19245784479E+02 -0.17930829736E+02  0.83231550562E+02  0.87289208292E+02  0.00000000000E+00 0. -1.
          1    1    1    2  501    0  0.19245784479E+02  0.17930829736E+02  0.84762608305E+03  0.84803413348E+03  0.00000000000E+00 0.  1.
</event>
<event>
 4    1  0.1643710E+006  0.2718843E+02  0.7546771E-02  0.1445724E+00
          2   -1    0    0  503    0 -0.00000000000E+00  0.00000000000E+00  0.89062025348E+02  0.89062025348E+02  0.00000000000E+00 0.  1.
         21   -1    0    0  501  502  0.00000000000E+00 -0.00000000000E+00 -0.15687393224E+02  0.15687393224E+02  0.00000000000E+00 0. -1.
         21    1    1    2  503  502  0.26050622911E+02  0.77830544546E+01  0.74606948509E+00  0.27198667437E+02  0.00000000000E+00 0. -1.
          2    1    1    2  501    0 -0.26050622911E+02 -0.77830544546E+01  0.72628562638E+02  0.77550751135E+02  0.00000000000E+00 0.  1.
</event>
<event>
 4    1  0.1643710E+006  0.2369360E+02  0.7546771E-02  0.1483968E+00
         -2   -1    0    0    0  501 -0.00000000000E+00  0.00000000000E+00  0.57541253436E+01  0.57541253436E+01  0.00000000000E+00 0. -1.
         21   -1    0    0  501  502  0.00000000000E+00 -0.00000000000E+00 -0.72672086264E+03  0.72672086264E+03  0.00000000000E+00 0. -1.
         21    1    1    2  503  502  0.23688712358E+02  0.48123226115E+00 -0.70125151114E+03  0.70165167181E+03  0.00000000000E+00 0. -1.
         -2    1    1    2    0  503 -0.23688712358E+02 -0.48123226115E+00 -0.19715226163E+02  0.30823316180E+02  0.00000000000E+00 0. -1.
</event>
<event>
 4    1  0.1643710E+006  0.2135407E+02  0.7546771E-02  0.1514269E+00
         -2   -1    0    0    0  501 -0.00000000000E+00  0.00000000000E+00  0.37260453766E+03  0.37260453766E+03  0.00000000000E+00 0.  1.
         21   -1    0    0  503  502  0.00000000000E+00 -0.00000000000E+00 -0.12354513695E+01  0.12354513695E+01  0.00000000000E+00 0.  1.
         21    1    1    2  503  501 -0.19839587000E+02  0.78985540698E+01  0.20383069491E+03  0.20494620893E+03  0.00000000000E+00 0.  1.
         -2    1    1    2    0  502  0.19839587000E+02 -0.78985540698E+01  0.16753839138E+03  0.16889378010E+03  0.00000000000E+00 0.  1.
</event>
<event>
 4    1  0.1643710E+006  0.2365862E+02  0.7546771E-02  0.1484389E+00
         21   -1    0    0  501  502  0.00000000000E+00  0.00000000000E+00  0.35119214989E+03  0.35119214989E+03  0.00000000000E+00 0. -1.
          1   -1    0    0  503    0 -0.00000000000E+00 -0.00000000000E+00 -0.28368906218E+02  0.28368906218E+02  0.00000000000E+00 0.  1.
         21    1    1    2  503  502  0.23303700051E+02  0.40826186478E+01  0.34578404024E+03  0.34659245909E+03  0.00000000000E+00 0. -1.
          1    1    1    2  501    0 -0.23303700051E+02 -0.40826186478E+01 -0.22960796563E+02  0.32968597027E+02  0.00000000000E+00 0.  1.
</event>
<event>
 4    1  0.1643710E+006  0.2475484E+02  0.7546771E-02  0.1471565E+00
         21   -1    0    0  503  502  0.00000000000E+00  0.00000000000E+00  0.11312707616E+02  0.11312707616E+02  0.00000000000E+00 0. -1.
          2   -1    0    0  502    0 -0.00000000000E+00 -0.00000000000E+00 -0.59147435511E+03  0.59147435511E+03  0.00000000000E+00 0.  1.
         21    1    1    2  503  501 -0.17319675569E+02 -0.17687029883E+02 -0.28199981196E+01  0.24914946865E+02  0.00000000000E+00 0. -1.
          2    1    1    2  501    0  0.17319675569E+02  0.17687029883E+02 -0.57734164937E+03  0.57787211586E+03  0.00000000000E+00 0.  1.
</event>
<event>
 4    1  0.1643710E+006  0.2166016E+02  0.7546771E-02  0.1510045E+00
          2   -1    0    0  502    0 -0.00000000000E+00  0.00000000000E+00  0.79034131267E+02  0.79034131267E+02  0.00000000000E+00 0.  1.
         21   -1    0    0  503  502  0.00000000000E+00 -0.00000000000E+00 -0.15503190388E+02  0.15503190388E+02  0.00000000000E+00 0.  1.
         21    1    1    2  503  501  0.40723976701E+01  0.21273881708E+02 -0.53667064817E+01  0.22315107084E+02  0.00000000000E+00 0.  1.
          2    1    1    2  501    0 -0.40723976701E+01 -0.21273881708E+02  0.68897647361E+02  0.72222214571E+02  0.00000000000E+00 0.  1.
</event>
<event>
 4    1  0.1643710E+006  0.2847006E+02  0.7546771E-02  0.1433375E+00
         -4   -1    0    0    0  501 -0.00000000000E+00  0.00000000000E+00  0.10136617342E+03  0.10136617342E+03  0.00000000000E+00 0.  1.
         21   -1    0    0  503  502  0.00000000000E+00 -0.00000000000E+00 -0.12796186789E+02  0.12796186789E+02  0.00000000000E+00 0. -1.
         21    1    1    2  503  501  0.11271667123E+02  0.26143718147E+02  0.93249024500E+01  0.29958275718E+02  0.00000000000E+00 0. -1.
         -4    1    1    2    0  502 -0.11271667123E+02 -0.26143718147E+02  0.79245084184E+02  0.84204084495E+02  0.00000000000E+00 0.  1.
</event>
<event>
 4    1  0.1643710E+006  0.2507315E+02  0.7546771E-02  0.1467987E+00
         -1   -1    0    0    0  501 -0.00000000000E+00  0.00000000000E+00  0.46664237457E+01  0.46664237457E+01  0.00000000000E+00 0. -1.
         21   -1    0    0  503  502  0.00000000000E+00 -0.00000000000E+00 -0.35563707301E+03  0.35563707301E+03  0.00000000000E+00 0. -1.
         21    1    1    2  503  501 -0.24769697990E+02  0.38890668336E+01 -0.31747251006E+03  0.31846107678E+03  0.00000000000E+00 0. -1.
         -1    1    1    2    0  502  0.24769697990E+02 -0.38890668336E+01 -0.33498139204E+02  0.41842419977E+02  0.00000000000E+00 0. -1.
</event>
<event>
 4    1  0.1643710E+006  0.2271735E+02  0.7546771E-02  0.1496078E+00
         21   -1    0    0  501  502  0.00000000000E+00  0.00000000000E+00  0.78927638757E+03  0.78927638757E+03  0.00000000000E+00 0.  1.
          2   -1    0    0  503    0 -0.00000000000E+00 -0.00000000000E+00 -0.10799371870E+04  0.10799371870E+04  0.00000000000E+00 0.  1.
         21    1    1    2  503  502 -0.31179437062E+01 -0.22502364683E+02  0.78899340973E+03  0.78932039033E+03  0.00000000000E+00 0.  1.
          2    1    1    2  501    0  0.31179437062E+01  0.22502364683E+02 -0.10796542092E+04  0.10798931842E+04  0.00000000000E+00 0.  1.
</event>
<event>
 4    1  0.1643710E+006  0.3068765E+02  0.7546771E-02  0.1413713E+00
         -1   -1    0    0    0  501 -0.00000000000E+00  0.00000000000E+00  0.78262528054E+01  0.78262528054E+01  0.00000000000E+00 0.  1.
         21   -1    0    0  503  502  0.00000000000E+00 -0.00000000000E+00 -0.12555362012E+03  0.12555362012E+03  0.00000000000E+00 0.  1.
         21    1    1    2  503  501 -0.39747459290E+01 -0.30429148513E+02 -0.45260565657E+02  0.54683182863E+02  0.00000000000E+00 0.  1.
         -1    1    1    2    0  502  0.39747459290E+01  0.30429148513E+02 -0.72466801662E+02  0.78696690067E+02  0.00000000000E+00 0.  1.
</event>
<event>
 4    1  0.1643710E+006  0.2664066E+02  0.7546771E-02  0.1451251E+00
         -4   -1    0    0    0  501 -0.00000000000E+00  0.00000000000E+00  0.41284711023E+03  0.41284711023E+03  0.00000000000E+00 0. -1.
         21   -1    0    0  501  502  0.00000000000E+00 -0.00000000000E+00 -0.12373832162E+03  0.12373832162E+03  0.00000000000E+00 0. -1.
         21    1    1    2  503  502  0.91892803973E+01  0.25005639450E+02 -0.12186810556E+03  0.12474598203E+03  0.00000000000E+00 0. -1.
         -4    1    1    2    0  503 -0.91892803973E+01 -0.25005639450E+02  0.41097689418E+03  0.41183944982E+03  0.00000000000E+00 0. -1.
</event>
<event>
 4    1  0.1643710E+006  0.2249760E+02  0.7546771E-02  0.1498905E+00
          2   -1    0    0  502    0 -0.00000000000E+00  0.00000000000E+00  0.18501478890E+04  0.18501478890E+04  0.00000000000E+00 0.  1.
         21   -1    0    0  503  502  0.00000000000E+00 -0.00000000000E+00 -0.66682518996E+00  0.66682518996E+00  0.00000000000E+00 0.  1.
         21    1    1    2  503  501  0.20878894755E+02  0.83793544687E+01  0.21407522457E+03  0.21525413725E+03  0.00000000000E+00 0.  1.
          2    1    1    2  501    0 -0.20878894755E+02 -0.83793544687E+01  0.16354058392E+04  0.16355605769E+04  0.00000000000E+00 0.  1.
</event>
<event>
 4    1  0.1643710E+006  0.2302923E+02  0.7546771E-02  0.1492131E+00
         -1   -1    0    0    0  501 -0.00000000000E+00  0.00000000000E+00  0.10269127678E+02  0.10269127678E+02  0.00000000000E+00 0.  1.
         21   -1    0    0  503  502  0.00000000000E+00 -0.00000000000E+00 -0.57970600130E+02  0.57970600130E+02  0.00000000000E+00 0.  1.
         21    1    1    2  503  501  0.54708734158E+01  0.22369957384E+02 -0.35121840283E+02  0.41998679910E+02  0.00000000000E+00 0.  1.
         -1    1    1    2    0  502 -0.54708734158E+01 -0.22369957384E+02 -0.12579632169E+02  0.26241047898E+02  0.00000000000E+00 0.  1.
</event>
<event>
 4    1  0.1643710E+006  0.2075459E+02  0.7546771E-02  0.1522798E+00
         21   -1    0    0  503  502  0.00000000000E+00  0.00000000000E+00  0.38227678385E+02  0.38227678385E+02  0.00000000000E+00 0.  1.
         -1   -1    0    0    0  501 -0.00000000000E+00 -0.00000000000E+00 -0.67535403280E+02  0.67535403280E+02  0.00000000000E+00 0. -1.
         21    1    1    2  503  501 -0.20625702403E+02  0.23094528068E+01  0.33614927984E+02  0.39505905321E+02  0.00000000000E+00 0.  1.
         -1    1    1    2    0  502  0.20625702403E+02 -0.23094528068E+01 -0.62922652879E+02  0.66257176345E+02  0.00000000000E+00 0. -1.
</event>
<event>
 4    1  0.1643710E+006  0.4041170E+02  0.7546771E-02  0.1346090E+00
         21   -1    0    0  503  502  0.00000000000E+00  0.00000000000E+00  0.39114916439E+03  0.39114916439E+03  0.00000000000E+00 0. -1.
         -1   -1    0    0    0  501 -0.00000000000E+00 -0.00000000000E+00 -0.14888715420E+02  0.14888715420E+02  0.00000000000E+00 0. -1.
         21    1    1    2  503  501 -0.39655621546E+02 -0.77805820271E+01  0.36034681549E+03  0.36260575452E+03  0.00000000000E+00 0. -1.
         -1    1    1    2    0  502  0.39655621546E+02  0.77805820271E+01  0.15913633482E+02  0.43432125293E+02  0.00000000000E+00 0. -1.
</event>
<event>
 4    1  0.1643710E+006  0.2451584E+02  0.7546771E-02  0.1474293E+00
         21   -1    0    0  503  502  0.00000000000E+00  0.00000000000E+00  0.60948280924E+02  0.60948280924E+02  0.00000000000E+00 0.  1.
          3   -1    0    0  502    0 -0.00000000000E+00 -0.00000000000E+00 -0.28873297300E+02  0.28873297300E+02  0.00000000000E+00 0.  1.
         21    1    1    2  503  501  0.11416091570E+02  0.21695604388E+02  0.52480725630E+02  0.57924545395E+02  0.00000000000E+00 0.  1.
          3    1    1    2  501    0 -0.11416091570E+02 -0.21695604388E+02 -0.20405742006E+02  0.31897032830E+02  0.00000000000E+00 0.  1.
</event>
<event>
 4    1  0.1643710E+006  0.2136217E+02  0.7546771E-02  0.1514156E+00
         -2   -1    0    0    0  501 -0.00000000000E+00  0.00000000000E+00  0.15717625157E+03  0.15717625157E+03  0.00000000000E+00 0.  1.
         21   -1    0    0  501  502  0.00000000000E+00 -0.00000000000E+00 -0.19431590168E+02  0.19431590168E+02  0.00000000000E+00 0. -1.
         21    1    1    2  503  502  0.21361488441E+02  0.17070354066E+00 -0.12567851106E+02  0.24784939168E+02  0.00000000000E+00 0. -1.
         -2    1    1    2    0  503 -0.21361488441E+02 -0.17070354066E+00  0.15031251251E+03  0.15182290257E+03  0.00000000000E+00 0.  1.
</event>
<event>
 4    1  0.1643710E+006  0.2109635E+02  0.7546771E-02  0.1517894E+00
         -4   -1    0    0    0  501 -0.00000000000E+00  0.00000000000E+00  0.58996454675E+03  0.58996454675E+03  0.00000000000E+00 0.  1.
         21   -1    0    0  503  502  0.00000000000E+00 -0.00000000000E+00 -0.30003839819E+02  0.30003839819E+02  0.00000000000E+00 0.  1.
         21    1    1    2  503  501  0.20987422427E+02 -0.21410096715E+01 -0.26082114024E+02  0.33545975832E+02  0.00000000000E+00 0.  1.
         -4    1    1    2    0  502 -0.20987422427E+02  0.21410096715E+01  0.58604282095E+03  0.58642241073E+03  0.00000000000E+00 0.  1.
</event>
<event>
 4    1  0.1643710E+006  0.3840110E+02  0.7546771E-02  0.1358119E+00
         21   -1    0    0  503  502  0.00000000000E+00  0.00000000000E+00  0.18411979888E+02  0.18411979888E+02  0.00000000000E+00 0. -1.
         -2   -1    0    0    0  501 -0.00000000000E+00 -0.00000000000E+00 -0.88606512620E+02  0.88606512620E+02  0.00000000000E+00 0.  1.
         21    1    1    2  503  501 -0.37239887790E+02 -0.93720409339E+01 -0.18509540493E+02  0.42629185814E+02  0.00000000000E+00 0. -1.
         -2    1    1    2    0  502  0.37239887790E+02  0.93720409339E+01 -0.51684992239E+02  0.64389306695E+02  0.00000000000E+00 0.  1.
</event>
<event>
 4    1  0.1643710E+006  0.2041958E+02  0.7546771E-02  0.1527715E+00
         -1   -1    0    0    0  501 -0.00000000000E+00  0.00000000000E+00  0.13015936254E+03  0.13015936254E+03  0.00000000000E+00 0. -1.
         21   -1    0    0  501  502  0.00000000000E+00 -0.00000000000E+00 -0.22062385173E+02  0.22062385173E+02  0.00000000000E+00 0.  1.
         21    1    1    2  503  502 -0.20290649751E+02 -0.22910489071E+01 -0.16320130453E+02  0.26140122999E+02  0.00000000000E+00 0.  1.
         -1    1    1    2    0  503  0.20290649751E+02  0.22910489071E+01  0.12441710782E+03  0.12608162471E+03  0.00000000000E+00 0. -1.
</event>
<event>
 4    1  0.1643710E+006  0.2123169E+02  0.7546771E-02  0.1515982E+00
         21   -1    0    0  501  502  0.00000000000E+00  0.00000000000E+00  0.33110470772E+01  0.33110470772E+01  0.00000000000E+00 0. -1.
          2   -1    0    0  503    0 -0.00000000000E+00 -0.00000000000E+00 -0.43194128304E+03  0.43194128304E+03  0.00000000000E+00 0.  1.
         21    1    1    2  503  502 -0.15335368346E+02 -0.14683707218E+02 -0.34223042245E+02  0.40274078518E+02  0.00000000000E+00 0. -1.
          2    1    1    2  501    0  0.15335368346E+02  0.14683707218E+02 -0.39440719372E+03  0.39497825160E+03  0.00000000000E+00 0.  1.
</event>
<event>
 4    1  0.1643710E+006  0.2618625E+02  0.7546771E-02  0.1455958E+00
          2   -1    0    0  502    0 -0.00000000000E+00  0.00000000000E+00  0.57941232606E+03  0.57941232606E+03  0.00000000000E+00 0. -1.
         21   -1    0    0  503  502  0.00000000000E+00 -0.00000000000E+00 -0.32905579657E+01  0.32905579657E+01  0.00000000000E+00 0.  1.
         21    1    1    2  503  501 -0.20767815185E+02 -0.15950471799E+02  0.54917405830E+02  0.60841114070E+02  0.00000000000E+00 0.  1.
          2    1    1    2  501    0  0.20767815185E+02  0.15950471799E+02  0.52120436226E+03  0.52186176995E+03  0.00000000000E+00 0. -1.
</event>
<event>
 4    1  0.1643710E+006  0.2031545E+02  0.7546771E-02  0.1529267E+00
          1   -1    0    0  502    0 -0.00000000000E+00  0.00000000000E+00  0.41000027974E+03  0.41000027974E+03  0.00000000000E+00 0. -1.
         21   -1    0    0  503  502  0.00000000000E+00 -0.00000000000E+00 -0.60215148949E+01  0.60215148949E+01  0.00000000000E+00 0.  1.
         21    1    1    2  503  501 -0.17236344742E+02  0.10752944183E+02  0.12159833574E+02  0.23676548339E+02  0.00000000000E+00 0.  1.
          1    1    1    2  501    0  0.17236344742E+02 -0.10752944183E+02  0.39181893127E+03  0.39234524629E+03  0.00000000000E+00 0. -1.
</event>
<event>
 4    1  0.1643710E+006  0.2132602E+02  0.7546771E-02  0.1514661E+00
         21   -1    0    0  501  502  0.00000000000E+00  0.00000000000E+00  0.97203333954E+00  0.97203333954E+00  0.00000000000E+00 0.  1.
          1   -1    0    0  503    0 -0.00000000000E+00 -0.00000000000E+00 -0.81477049486E+03  0.81477049486E+03  0.00000000000E+00 0.  1.
         21    1    1    2  503  502 -0.14268678850E+02  0.15849410681E+02 -0.14076603447E+03  0.14237231289E+03  0.00000000000E+00 0.  1.
          1    1    1    2  501    0  0.14268678850E+02 -0.15849410681E+02 -0.67303242704E+03  0.67337021531E+03  0.00000000000E+00 0.  1.
</event>
<event>
 4    1  0.1643710E+006  0.3986504E+02  0.7546771E-02  0.1349278E+00
         -2   -1    0    0    0  501 -0.00000000000E+00  0.00000000000E+00  0.46650156744E+03  0.46650156744E+03  0.00000000000E+00 0. -1.
         21   -1    0    0  503  502  0.00000000000E+00 -0.00000000000E+00 -0.16405679597E+02  0.16405679597E+02  0.00000000000E+00 0.  1.
         21    1    1    2  503  501 -0.32968665337E+02 -0.22411802765E+02  0.10120649755E+02  0.41129665070E+02  0.00000000000E+00 0.  1.
         -2    1    1    2    0  502  0.32968665337E+02  0.22411802765E+02  0.43997523808E+03  0.44177758196E+03  0.00000000000E+00 0. -1.
</event>
<event>
 4    1  0.1643710E+006  0.2728167E+02  0.7546771E-02  0.1444799E+00
         21   -1    0    0  503  502  0.00000000000E+00  0.00000000000E+00  0.29898695819E+02  0.29898695819E+02  0.00000000000E+00 0. -1.
         -2   -1    0    0    0  501 -0.00000000000E+00 -0.00000000000E+00 -0.75950542660E+02  0.75950542660E+02  0.00000000000E+00 0. -1.
         21    1    1    2  503  501 -0.26918831063E+02 -0.44346138337E+01  0.20367035428E+02  0.34045636986E+02  0.00000000000E+00 0. -1.
         -2    1    1    2    0  502  0.26918831063E+02  0.44346138337E+01 -0.66418882269E+02  0.71803601494E+02  0.00000000000E+00 0. -1.
</event>
<event>
 4    1  0.1643710E+006  0.3123282E+02  0.7546771E-02  0.1409177E+00
          2   -1    0    0  502    0 -0.00000000000E+00  0.00000000000E+00  0.17780846784E+04  0.17780846784E+04  0.00000000000E+00 0. -1.
         21   -1    0    0  503  502  0.00000000000E+00 -0.00000000000E+00 -0.95199046587E+00  0.95199046587E+00  0.00000000000E+00 0.  1.
         21    1    1    2  503  501  0.50313354936E+01 -0.30824906861E+02  0.30954877481E+03  0.31112044807E+03  0.00000000000E+00 0.  1.
          2    1    1    2  501    0 -0.50313354936E+01  0.30824906861E+02  0.14675839132E+04  0.14679162208E+04  0.00000000000E+00 0. -1.
</event>
<event>
 4    1  0.1643710E+006  0.2640014E+02  0.7546771E-02  0.1453729E+00
         21   -1    0    0  503  502  0.00000000000E+00  0.00000000000E+00  0.20566179601E+02  0.20566179601E+02  0.00000000000E+00 0.  1.
         -1   -1    0    0    0  501 -0.00000000000E+00 -0.00000000000E+00 -0.16657149878E+03  0.16657149878E+03  0.00000000000E+00 0. -1.
         21    1    1    2  503  501  0.27397380740E+01  0.26257593972E+02  0.10507190549E+02  0.28414229871E+02  0.00000000000E+00 0.  1.
         -1    1    1    2    0  502 -0.27397380740E+01 -0.26257593972E+02 -0.15651250972E+03  0.15872344851E+03  0.00000000000E+00 0. -1.
</event>
<event>
 4    1  0.1643710E+006  0.2017959E+02  0.7546771E-02  0.1531308E+00
         -2   -1    0    0    0  501 -0.00000000000E+00  0.00000000000E+00  0.16813539520E+03  0.16813539520E+03  0.00000000000E+00 0.  1.
         21   -1    0    0  503  502  0.00000000000E+00 -0.00000000000E+00 -0.74452659726E+01  0.74452659726E+01  0.00000000000E+00 0.  1.
         21    1    1    2  503  501 -0.70150810208E+01  0.18921002965E+02  0.82340220963E+01  0.21794835049E+02  0.00000000000E+00 0.  1.
         -2    1    1    2    0  502  0.70150810208E+01 -0.18921002965E+02  0.15245610713E+03  0.15378582612E+03  0.00000000000E+00 0.  1.
</event>
<event>
 4    1  0.1643710E+006  0.3194505E+02  0.7546771E-02  0.1403414E+00
         -2   -1    0    0    0  501 -0.00000000000E+00  0.00000000000E+00  0.40359344348E+03  0.40359344348E+03  0.00000000000E+00 0. -1.
         21   -1    0    0  503  502  0.00000000000E+00 -0.00000000000E+00 -0.25634398584E+01  0.25634398584E+01  0.00000000000E+00 0.  1.
         21    1    1    2  503  501  0.23661284761E+02  0.21462281247E+02  0.17680593260E+03  0.17966864978E+03  0.00000000000E+00 0.  1.
         -2    1    1    2    0  502 -0.23661284761E+02 -0.21462281247E+02  0.22422407102E+03  0.22648823356E+03  0.00000000000E+00 0. -1.
</event>
<event>
 4    1  0.1643710E+006  0.2221181E+02  0.7546771E-02  0.1502640E+00
          2   -1    0    0  503    0 -0.00000000000E+00  0.00000000000E+00  0.11815262857E+02  0.11815262857E+02  0.00000000000E+00 0. -1.
         21   -1    0    0  501  502  0.00000000000E+00 -0.00000000000E+00 -0.20804276385E+03  0.20804276385E+03  0.00000000000E+00 0. -1.
         21    1    1    2  503  502 -0.63804754517E+01 -0.21275663118E+02 -0.19639353127E+03  0.19764560059E+03  0.00000000000E+00 0. -1.
          2    1    1    2  501    0  0.63804754517E+01  0.21275663118E+02  0.16603027331E+00  0.22212426120E+02  0.00000000000E+00 0. -1.
</event>
<event>
 4    1  0.1643710E+006  0.2112961E+02  0.7546771E-02  0.1517422E+00
         21   -1    0    0  501  502  0.00000000000E+00  0.00000000000E+00  0.18878563925E+02  0.18878563925E+02  0.00000000000E+00 0. -1.
         -1   -1    0    0    0  501 -0.00000000000E+00 -0.00000000000E+00 -0.68753335727E+02  0.68753335727E+02  0.00000000000E+00 0.  1.
         21    1    1    2  503  502  0.20950993760E+02 -0.27415638770E+01  0.10551649478E+02  0.23617739493E+02  0.00000000000E+00 0. -1.
         -1    1    1    2    0  503 -0.20950993760E+02  0.27415638770E+01 -0.60426421280E+02  0.64014160159E+02  0.00000000000E+00 0.  1.
</event>
<event>
 4    1  0.1643710E+006  0.2177972E+02  0.7546771E-02  0.1508417E+00
         21   -1    0    0  501  502  0.00000000000E+00  0.00000000000E+00  0.11008947253E+03  0.11008947253E+03  0.00000000000E+00 0.  1.
          2   -1    0    0  503    0 -0.00000000000E+00 -0.00000000000E+00 -0.44043230451E+03  0.44043230451E+03  0.00000000000E+00 0. -1.
         21    1    1    2  503  502  0.21777593161E+02 -0.30433746772E+00  0.10873970109E+03  0.11089940838E+03  0.00000000000E+00 0.  1.
          2    1    1    2  501    0 -0.21777593161E+02  0.30433746772E+00 -0.43908253307E+03  0.43962236866E+03  0.00000000000E+00 0. -1.
</event>
<event>
 4    1  0.1643710E+006  0.2203086E+02  0.7546771E-02  0.1505040E+00
          2   -1    0    0  503    0 -0.00000000000E+00  0.00000000000E+00  0.11484698476E+03  0.11484698476E+03  0.00000000000E+00 0.  1.
         21   -1    0    0  501  502  0.00000000000E+00 -0.00000000000E+00 -0.72483395369E+01  0.72483395369E+01  0.00000000000E+00 0. -1.
         21    1    1    2  503  502 -0.61553276189E+01 -0.21153509130E+02  0.14379777471E+02  0.26308496854E+02  0.00000000000E+00 0. -1.
          2    1    1    2  501    0  0.61553276189E+01  0.21153509130E+02  0.93218867755E+02  0.95786827446E+02  0.00000000000E+00 0.  1.
</event>
<event>
 4    1  0.1643710E+006  0.3088521E+02  0.7546771E-02  0.1412057E+00
          1   -1    0    0  502    0 -0.00000000000E+00  0.00000000000E+00  0.19727249493E+04  0.19727249493E+04  0.00000000000E+00 0. -1.
         21   -1    0    0  503  502  0.00000000000E+00 -0.00000000000E+00 -0.59137275040E+01  0.59137275040E+01  0.00000000000E+00 0. -1.
         21    1    1    2  503  501  0.30366993074E+02 -0.56339756734E+01  0.35395072537E+02  0.46975601222E+02  0.00000000000E+00 0. -1.
          1    1    1    2  501    0 -0.30366993074E+02  0.56339756734E+01  0.19314161493E+04  0.19316630756E+04  0.00000000000E+00 0. -1.
</event>
<event>
 4    1  0.1643710E+006  0.2100563E+02  0.7546771E-02  0.1519184E+00
         21   -1    0    0  503  502  0.00000000000E+00  0.00000000000E+00  0.10205713801E+01  0.10205713801E+01  0.00000000000E+00 0.  1.
          2   -1    0    0  502    0 -0.00000000000E+00 -0.00000000000E+00 -0.13510418554E+04  0.13510418554E+04  0.00000000000E+00 0.  1.
         21    1    1    2  503  501  0.21003742750E+02 -0.28148943086E+00 -0.11754380404E+03  0.11940595594E+03  0.00000000000E+00 0.  1.
          2    1    1    2  501    0 -0.21003742750E+02  0.28148943086E+00 -0.12324774799E+04  0.12326564708E+04  0.00000000000E+00 0.  1.
</event>
<event>
 4    1  0.1643710E+006  0.2299844E+02  0.7546771E-02  0.1492518E+00
          2   -1    0    0  503    0 -0.00000000000E+00  0.00000000000E+00  0.58156431829E+03  0.58156431829E+03  0.00000000000E+00 0. -1.
         21   -1    0    0  501  502  0.00000000000E+00 -0.00000000000E+00 -0.12244107156E+01  0.12244107156E+01  0.00000000000E+00 0.  1.
         21    1    1    2  503  502  0.13066044080E+02  0.18926348133E+02  0.14238958559E+03  0.14423495501E+03  0.00000000000E+00 0.  1.
          2    1    1    2  501    0 -0.13066044080E+02 -0.18926348133E+02  0.43795032199E+03  0.43855377400E+03  0.00000000000E+00 0. -1.
</event>
<event>
 4    1  0.1643710E+006  0.4905719E+02  0.7546771E-02  0.1302313E+00
          1   -1    0    0  503    0 -0.00000000000E+00  0.00000000000E+00  0.23311433217E+03  0.23311433217E+03  0.00000000000E+00 0. -1.
         21   -1    0    0  501  502  0.00000000000E+00 -0.00000000000E+00 -0.11739751477E+02  0.11739751477E+02  0.00000000000E+00 0. -1.
         21    1    1    2  503  502 -0.21856000392E+02  0.43919512770E+02  0.68168242755E+02  0.83985222958E+02  0.00000000000E+00 0. -1.
          1    1    1    2  501    0  0.21856000392E+02 -0.43919512770E+02  0.15320633794E+03  0.16086886069E+03  0.00000000000E+00 0. -1.
</event>
<event>
 4    1  0.1643710E+006  0.3499009E+02  0.7546771E-02  0.1380633E+00
          2   -1    0    0  502    0 -0.00000000000E+00  0.00000000000E+00  0.22575975019E+03  0.22575975019E+03  0.00000000000E+00 0. -1.
         21   -1    0    0  503  502  0.00000000000E+00 -0.00000000000E+00 -0.65120578453E+02  0.65120578453E+02  0.00000000000E+00 0. -1.
         21    1    1    2  503  501 -0.29570219728E+02 -0.18705844865E+02 -0.58933043894E+02  0.68537655267E+02  0.00000000000E+00 0. -1.
          2    1    1    2  501    0  0.29570219728E+02  0.18705844865E+02  0.21957221563E+03  0.22234267338E+03  0.00000000000E+00 0. -1.
</event>
<event>
 4    1  0.1643710E+006  0.2033021E+02  0.7546771E-02  0.1529046E+00
          2   -1    0    0  502    0 -0.00000000000E+00  0.00000000000E+00  0.33883608652E+02  0.33883608652E+02  0.00000000000E+00 0. -1.
         21   -1    0    0  503  502  0.00000000000E+00 -0.00000000000E+00 -0.41111971612E+02  0.41111971612E+02  0.00000000000E+00 0.  1.
         21    1    1    2  503  501  0.19282365905E+02 -0.64426509934E+01 -0.35060822294E+02  0.40528738527E+02  0.00000000000E+00 0.  1.
          2    1    1    2  501    0 -0.19282365905E+02  0.64426509934E+01  0.27832459334E+02  0.34466841736E+02  0.00000000000E+00 0. -1.
</event>
<event>
 4    1  0.1643710E+006  0.2715041E+02  0.7546771E-02  0.1446103E+00
         -4   -1    0    0    0  501 -0.00000000000E+00  0.00000000000E+00  0.34998514322E+02  0.34998514322E+02  0.00000000000E+00 0. -1.
         21   -1    0    0  501  502  0.00000000000E+00 -0.00000000000E+00 -0.75375647014E+02  0.75375647014E+02  0.00000000000E+00 0.  1.
         21    1    1    2  503  502  0.12768512402E+02 -0.23960590817E+02 -0.67034907731E+02  0.72324433463E+02  0.00000000000E+00 0.  1.
         -4    1    1    2    0  503 -0.12768512402E+02  0.23960590817E+02  0.26657775038E+02  0.38049727873E+02  0.00000000000E+00 0. -1.
</event>
<event>
 4    1  0.1643710E+006  0.2329821E+02  0.7546771E-02  0.1488787E+00
         21   -1    0    0  503  502  0.00000000000E+00  0.00000000000E+00  0.57140804630E+00  0.57140804630E+00  0.00000000000E+00 0. -1.
          2   -1    0    0  502    0 -0.00000000000E+00 -0.00000000000E+00 -0.95612258712E+03  0.95612258712E+03  0.00000000000E+00 0. -1.
         21    1    1    2  503  501  0.23296209868E+02  0.30504592985E+00 -0.43932690280E+03  0.43994423961E+03  0.00000000000E+00 0. -1.
          2    1    1    2  501    0 -0.23296209868E+02 -0.30504592985E+00 -0.51622427628E+03  0.51674975556E+03  0.00000000000E+00 0. -1.
</event>
<event>
 4    1  0.1643710E+006  0.2485445E+02  0.7546771E-02  0.1470438E+00
          1   -1    0    0  503    0 -0.00000000000E+00  0.00000000000E+00  0.45962023941E+03  0.45962023941E+03  0.00000000000E+00 0.  1.
         21   -1    0    0  501  502  0.00000000000E+00 -0.00000000000E+00 -0.14757463811E+01  0.14757463811E+01  0.00000000000E+00 0.  1.
         21    1    1    2  503  502 -0.15174983945E+02 -0.19684094119E+02  0.29794925404E+03  0.29898411610E+03  0.00000000000E+00 0.  1.
          1    1    1    2  501    0  0.15174983945E+02  0.19684094119E+02  0.16019523899E+03  0.16211186969E+03  0.00000000000E+00 0.  1.
</event>
<event>
 4    1  0.1643710E+006  0.2276159E+02  0.7546771E-02  0.1495514E+00
         21   -1    0    0  503  502  0.00000000000E+00  0.00000000000E+00  0.57644931348E+02  0.57644931348E+02  0.00000000000E+00 0. -1.
         -4   -1    0    0    0  501 -0.00000000000E+00 -0.00000000000E+00 -0.34367887471E+02  0.34367887471E+02  0.00000000000E+00 0. -1.
         21    1    1    2  503  501  0.12600319628E+02 -0.18955784062E+02  0.51174287877E+02  0.56008013211E+02  0.00000000000E+00 0. -1.
         -4    1    1    2    0  502 -0.12600319628E+02  0.18955784062E+02 -0.27897244000E+02  0.36004805609E+02  0.00000000000E+00 0. -1.
</event>
<event>
 4    1  0.1643710E+006  0.4962650E+02  0.7546771E-02  0.1299800E+00
         21   -1    0    0  501  502  0.00000000000E+00  0.00000000000E+00  0.16218486430E+03  0.16218486430E+03  0.00000000000E+00 0.  1.
          2   -1    0    0  503    0 -0.00000000000E+00 -0.00000000000E+00 -0.17404713662E+02  0.17404713662E+02  0.00000000000E+00 0.  1.
         21    1    1    2  503  502  0.27424272616E+02  0.41360592185E+02  0.10445711296E+03  0.11564634781E+03  0.00000000000E+00 0.  1.
          2    1    1    2  501    0 -0.27424272616E+02 -0.41360592185E+02  0.40323037679E+02  0.63943230150E+02  0.00000000000E+00 0.  1.
</event>
<event>
 4    1  0.1643710E+006  0.2483063E+02  0.7546771E-02  0.1470707E+00
         -4   -1    0    0    0  501 -0.00000000000E+00  0.00000000000E+00  0.15542608314E+03  0.15542608314E+03  0.00000000000E+00 0. -1.
         21   -1    0    0  503  502  0.00000000000E+00 -0.00000000000E+00 -0.78549230196E+02  0.78549230196E+02  0.00000000000E+00 0. -1.
         21    1    1    2  503  501 -0.10516901776E+02 -0.22493439919E+02 -0.75556899045E+02  0.79532415125E+02  0.00000000000E+00 0. -1.
         -4    1    1    2    0  502  0.10516901776E+02  0.22493439919E+02  0.15243375199E+03  0.15444289821E+03  0.00000000000E+00 0. -1.
</event>
<event>
 4    1  0.1643710E+006  0.3296750E+02  0.7546771E-02  0.1395444E+00
          3   -1    0    0  502    0 -0.00000000000E+00  0.00000000000E+00  0.11303752619E+03  0.11303752619E+03  0.00000000000E+00 0.  1.
         21   -1    0    0  503  502  0.00000000000E+00 -0.00000000000E+00 -0.98762520709E+01  0.98762520709E+01  0.00000000000E+00 0.  1.
         21    1    1    2  503  501  0.18912425224E+02 -0.27003266399E+02  0.41585210145E+02  0.53067748462E+02  0.00000000000E+00 0.  1.
          3    1    1    2  501    0 -0.18912425224E+02  0.27003266399E+02  0.61576063973E+02  0.69846029797E+02  0.00000000000E+00 0.  1.
</event>
<event>
 4    1  0.1643710E+006  0.2223877E+02  0.7546771E-02  0.1502285E+00
         21   -1    0    0  501  502  0.00000000000E+00  0.00000000000E+00  0.12176211243E+04  0.12176211243E+04  0.00000000000E+00 0. -1.
         -2   -1    0    0    0  501 -0.00000000000E+00 -0.00000000000E+00 -0.13357427379E+01  0.13357427379E+01  0.00000000000E+00 0.  1.
         21    1    1    2  503  502 -0.14667559835E+01 -0.22190348243E+02  0.11165810214E+04  0.11168024625E+04  0.00000000000E+00 0. -1.
         -2    1    1    2    0  503  0.14667559835E+01  0.22190348243E+02  0.99704360182E+02  0.10215440454E+03  0.00000000000E+00 0.  1.
</event>
<event>
 4    1  0.1643710E+006  0.2702715E+02  0.7546771E-02  0.1447336E+00
          2   -1    0    0  503    0 -0.00000000000E+00  0.00000000000E+00  0.22508859718E+04  0.22508859718E+04  0.00000000000E+00 0. -1.
         21   -1    0    0  501  502  0.00000000000E+00 -0.00000000000E+00 -0.32586890482E+00  0.32586890482E+00  0.00000000000E+00 0. -1.
         21    1    1    2  503  502 -0.65444337444E+01 -0.26222833086E+02  0.10529688236E+04  0.10533156270E+04  0.00000000000E+00 0. -1.
          2    1    1    2  501    0  0.65444337444E+01  0.26222833086E+02  0.11975912793E+04  0.11978962138E+04  0.00000000000E+00 0. -1.
</event>
<event>
 4    1  0.1643710E+006  0.3091217E+02  0.7546771E-02  0.1411832E+00
          3   -1    0    0  502    0 -0.00000000000E+00  0.00000000000E+00  0.44549925118E+03  0.44549925118E+03  0.00000000000E+00 0. -1.
         21   -1    0    0  503  502  0.00000000000E+00 -0.00000000000E+00 -0.32010643611E+02  0.32010643611E+02  0.00000000000E+00 0.  1.
         21    1    1    2  503  501  0.91918679853E+01 -0.29513922311E+02 -0.23872881968E+02  0.39057349381E+02  0.00000000000E+00 0.  1.
          3    1    1    2  501    0 -0.91918679853E+01  0.29513922311E+02  0.43736148954E+03  0.43845254541E+03  0.00000000000E+00 0. -1.
</event>
<event>
 4    1  0.1643710E+006  0.3896781E+02  0.7546771E-02  0.1354643E+00
          1   -1    0    0  503    0 -0.00000000000E+00  0.00000000000E+00  0.63012809145E+03  0.63012809145E+03  0.00000000000E+00 0. -1.
         21   -1    0    0  501  502  0.00000000000E+00 -0.00000000000E+00 -0.32632958342E+01  0.32632958342E+01  0.00000000000E+00 0. -1.
         21    1    1    2  503  502  0.38960216428E+02  0.76918756815E+00  0.15147095610E+03  0.15640313505E+03  0.00000000000E+00 0. -1.
          1    1    1    2  501    0 -0.38960216428E+02 -0.76918756815E+00  0.47539383952E+03  0.47698825223E+03  0.00000000000E+00 0. -1.
</event>
<event>
 4    1  0.1643710E+006  0.2813169E+02  0.7546771E-02  0.1436560E+00
         -4   -1    0    0    0  501 -0.00000000000E+00  0.00000000000E+00  0.27368307781E+02  0.27368307781E+02  0.00000000000E+00 0. -1.
         21   -1    0    0  503  502  0.00000000000E+00 -0.00000000000E+00 -0.29907459867E+02  0.29907459867E+02  0.00000000000E+00 0.  1.
         21    1    1    2  503  501 -0.23976108629E+02 -0.14715235145E+02  0.39436811040E+01  0.28406769458E+02  0.00000000000E+00 0.  1.
         -4    1    1    2    0  502  0.23976108629E+02  0.14715235145E+02 -0.64828331897E+01  0.28868998191E+02  0.00000000000E+00 0. -1.
</event>
<event>
 4    1  0.1643710E+006  0.4291999E+02  0.7546771E-02  0.1332175E+00
         21   -1    0    0  503  502  0.00000000000E+00  0.00000000000E+00  0.67109478255E+01  0.67109478255E+01  0.00000000000E+00 0. -1.
          1   -1    0    0  502    0 -0.00000000000E+00 -0.00000000000E+00 -0.67756377318E+03  0.67756377318E+03  0.00000000000E+00 0.  1.
         21    1    1    2  503  501 -0.25583197201E+02 -0.34461938128E+02 -0.71541412503E+02  0.83428405603E+02  0.00000000000E+00 0. -1.
          1    1    1    2  501    0  0.25583197201E+02  0.34461938128E+02 -0.59931141285E+03  0.60084631540E+03  0.00000000000E+00 0.  1.
</event>
<event>
 4    1  0.1643710E+006  0.2288887E+02  0.7546771E-02  0.1493898E+00
         21   -1    0    0  503  502  0.00000000000E+00  0.00000000000E+00  0.38145424895E+01  0.38145424895E+01  0.00000000000E+00 0. -1.
         -1   -1    0    0    0  501 -0.00000000000E+00 -0.00000000000E+00 -0.14802839731E+03  0.14802839731E+03  0.00000000000E+00 0. -1.
         21    1    1    2  503  501 -0.98087620230E+01  0.20680632848E+02 -0.51708854458E+02  0.56548262721E+02  0.00000000000E+00 0. -1.
         -1    1    1    2    0  502  0.98087620230E+01 -0.20680632848E+02 -0.92505000366E+02  0.95294677082E+02  0.00000000000E+00 0. -1.
</event>
<event>
 4    1  0.1643710E+006  0.3228132E+02  0.7546771E-02  0.1400755E+00
         -1   -1    0    0    0  501 -0.00000000000E+00  0.00000000000E+00  0.13876039322E+03  0.13876039322E+03  0.00000000000E+00 0. -1.
         21   -1    0    0  501  502  0.00000000000E+00 -0.00000000000E+00 -0.29125960976E+02  0.29125960976E+02  0.00000000000E+00 0.  1.
         21    1    1    2  503  502 -0.53334659486E+01  0.31837673872E+02 -0.17498562576E+02  0.36718973690E+02  0.00000000000E+00 0.  1.
         -1    1    1    2    0  503  0.53334659486E+01 -0.31837673872E+02  0.12713299482E+03  0.13116738050E+03  0.00000000000E+00 0. -1.
</event>
<event>
 4    1  0.1643710E+006  0.2216766E+02  0.7546771E-02  0.1503223E+00
         21   -1    0    0  501  502  0.00000000000E+00  0.00000000000E+00  0.23590314121E+02  0.23590314121E+02  0.00000000000E+00 0. -1.
          1   -1    0    0  503    0 -0.00000000000E+00 -0.00000000000E+00 -0.22558124422E+02  0.22558124422E+02  0.00000000000E+00 0. -1.
         21    1    1    2  503  502  0.16079002706E+02  0.15260105045E+02 -0.58689268717E+01  0.22931407210E+02  0.00000000000E+00 0. -1.
          1    1    1    2  501    0 -0.16079002706E+02 -0.15260105045E+02  0.69011165711E+01  0.23217031333E+02  0.00000000000E+00 0. -1.
</event>
<event>
 4    1  0.1643710E+006  0.3866585E+02  0.7546771E-02  0.1356486E+00
          2   -1    0    0  503    0 -0.00000000000E+00  0.00000000000E+00  0.48712540772E+03  0.48712540772E+03  0.00000000000E+00 0.  1.
         21   -1    0    0  501  502  0.00000000000E+00 -0.00000000000E+00 -0.51509958649E+01  0.51509958649E+01  0.00000000000E+00 0.  1.
         21    1    1    2  503  502 -0.20059601083E+02 -0.33055414587E+02  0.84506616072E+02  0.92932320476E+02  0.00000000000E+00 0.  1.
          2    1    1    2  501    0  0.20059601083E+02  0.33055414587E+02  0.39746779578E+03  0.39934408311E+03  0.00000000000E+00 0.  1.
</event>
<event>
 4    1  0.1643710E+006  0.2198801E+02  0.7546771E-02  0.1505612E+00
         -1   -1    0    0    0  501 -0.00000000000E+00  0.00000000000E+00  0.66497957562E+02  0.66497957562E+02  0.00000000000E+00 0. -1.
         21   -1    0    0  501  502  0.00000000000E+00 -0.00000000000E+00 -0.11821231034E+02  0.11821231034E+02  0.00000000000E+00 0.  1.
         21    1    1    2  503  502  0.79143533654E+01 -0.20514273293E+02  0.30416160969E+01  0.22197383323E+02  0.00000000000E+00 0.  1.
         -1    1    1    2    0  503 -0.79143533654E+01  0.20514273293E+02  0.51635110431E+02  0.56121805273E+02  0.00000000000E+00 0. -1.
</event>
<event>
 4    1  0.1643710E+006  0.2064373E+02  0.7546771E-02  0.1524413E+00
         -3   -1    0    0    0  501 -0.00000000000E+00  0.00000000000E+00  0.12700533608E+03  0.12700533608E+03  0.00000000000E+00 0. -1.
         21   -1    0    0  501  502  0.00000000000E+00 -0.00000000000E+00 -0.99415132138E+01  0.99415132138E+01  0.00000000000E+00 0. -1.
         21    1    1    2  503  502 -0.13778008038E+02 -0.15373026409E+02  0.27994955477E+01  0.20832681579E+02  0.00000000000E+00 0. -1.
         -3    1    1    2    0  503  0.13778008038E+02  0.15373026409E+02  0.11426432732E+03  0.11611416771E+03  0.00000000000E+00 0. -1.
</event>
<event>
 4    1  0.1643710E+006  0.2772547E+02  0.7546771E-02  0.1440454E+00
         21   -1    0    0  503  502  0.00000000000E+00  0.00000000000E+00  0.13206207301E+02  0.13206207301E+02  0.00000000000E+00 0. -1.
         -1   -1    0    0    0  501 -0.00000000000E+00 -0.00000000000E+00 -0.13070518406E+03  0.13070518406E+03  0.00000000000E+00 0.  1.
         21    1    1    2  503  501 -0.65719232979E+01 -0.26935318845E+02 -0.51598841818E+01  0.28201524461E+02  0.00000000000E+00 0. -1.
         -1    1    1    2    0  502  0.65719232979E+01  0.26935318845E+02 -0.11233909257E+03  0.11570986690E+03  0.00000000000E+00 0.  1.
</event>
<event>
 4    1  0.1643710E+006  0.2780110E+02  0.7546771E-02  0.1439723E+00
          1   -1    0    0  503    0 -0.00000000000E+00  0.00000000000E+00  0.13255353642E+04  0.13255353642E+04  0.00000000000E+00 0.  1.
         21   -1    0    0  501  502  0.00000000000E+00 -0.00000000000E+00 -0.14113777985E+01  0.14113777985E+01  0.00000000000E+00 0. -1.
         21    1    1    2  503  502 -0.73897834560E+01 -0.26800972308E+02  0.15379307100E+03  0.15628566698E+03  0.00000000000E+00 0. -1.
          1    1    1    2  501    0  0.73897834560E+01  0.26800972308E+02  0.11703309154E+04  0.11706610750E+04  0.00000000000E+00 0.  1.
</event>
<event>
 4    1  0.1643710E+006  0.2080927E+02  0.7546771E-02  0.1522005E+00
         21   -1    0    0  501  502  0.00000000000E+00  0.00000000000E+00  0.59326711050E+01  0.59326711050E+01  0.00000000000E+00 0. -1.
          2   -1    0    0  503    0 -0.00000000000E+00 -0.00000000000E+00 -0.18848358451E+03  0.18848358451E+03  0.00000000000E+00 0. -1.
         21    1    1    2  503  502 -0.11543443885E+02 -0.17314003316E+02 -0.15182458332E+02  0.25759131362E+02  0.00000000000E+00 0. -1.
          2    1    1    2  501    0  0.11543443885E+02  0.17314003316E+02 -0.16736845508E+03  0.16865712426E+03  0.00000000000E+00 0. -1.
</event>
<event>
 4    1  0.1643710E+006  0.4678454E+02  0.7546771E-02  0.1312750E+00
          3   -1    0    0  503    0 -0.00000000000E+00  0.00000000000E+00  0.32045646563E+03  0.32045646563E+03  0.00000000000E+00 0.  1.
         21   -1    0    0  501  502  0.00000000000E+00 -0.00000000000E+00 -0.21438828825E+02  0.21438828825E+02  0.00000000000E+00 0.  1.
         21    1    1    2  503  502  0.29990328866E+01 -0.46688313338E+02  0.83958867891E+01  0.47531923120E+02  0.00000000000E+00 0.  1.
          3    1    1    2  501    0 -0.29990328866E+01  0.46688313338E+02  0.29062175001E+03  0.29436337133E+03  0.00000000000E+00 0.  1.
</event>
<event>
 4    1  0.1643710E+006  0.1266962E+03  0.7546771E-02  0.1124223E+00
         -2   -1    0    0    0  501 -0.00000000000E+00  0.00000000000E+00  0.99690210817E+03  0.99690210817E+03  0.00000000000E+00 0.  1.
         21   -1    0    0  501  502  0.00000000000E+00 -0.00000000000E+00 -0.59763429267E+03  0.59763429267E+03  0.00000000000E+00 0.  1.
         21    1    1    2  503  502  0.96616767145E+01  0.12632731293E+03 -0.58682072116E+03  0.60034198318E+03  0.00000000000E+00 0.  1.
         -2    1    1    2    0  503 -0.96616767145E+01 -0.12632731293E+03  0.98608853666E+03  0.99419441767E+03  0.00000000000E+00 0.  1.
</event>
<event>
 4    1  0.1643710E+006  0.2023468E+02  0.7546771E-02  0.1530478E+00
         21   -1    0    0  501  502  0.00000000000E+00  0.00000000000E+00  0.59354205052E+01  0.59354205052E+01  0.00000000000E+00 0. -1.
          4   -1    0    0  503    0 -0.00000000000E+00 -0.00000000000E+00 -0.15025048816E+04  0.15025048816E+04  0.00000000000E+00 0. -1.
         21    1    1    2  503  502  0.18334708132E+02 -0.85604134772E+01 -0.11581842731E+02  0.23314829664E+02  0.00000000000E+00 0. -1.
          4    1    1    2  501    0 -0.18334708132E+02  0.85604134772E+01 -0.14849876184E+04  0.14851254725E+04  0.00000000000E+00 0. -1.
</event>
<event>
 4    1  0.1643710E+006  0.2860169E+02  0.7546771E-02  0.1432150E+00
         21   -1    0    0  501  502  0.00000000000E+00  0.00000000000E+00  0.51269701136E+03  0.51269701136E+03  0.00000000000E+00 0.  1.
         -1   -1    0    0    0  501 -0.00000000000E+00 -0.00000000000E+00 -0.44912151059E+02  0.44912151059E+02  0.00000000000E+00 0. -1.
         21    1    1    2  503  502 -0.23999437759E+02 -0.15559034230E+02  0.50769967798E+03  0.50850468983E+03  0.00000000000E+00 0.  1.
         -1    1    1    2    0  503  0.23999437759E+02  0.15559034230E+02 -0.39914817673E+02  0.49104472595E+02  0.00000000000E+00 0. -1.
</event>
<event>
 4    1  0.1643710E+006  0.2571461E+02  0.7546771E-02  0.1460966E+00
         21   -1    0    0  503  502  0.00000000000E+00  0.00000000000E+00  0.11919001705E+03  0.11919001705E+03  0.00000000000E+00 0. -1.
          1   -1    0    0  502    0 -0.00000000000E+00 -0.00000000000E+00 -0.28814454106E+03  0.28814454106E+03  0.00000000000E+00 0.  1.
         21    1    1    2  503  501 -0.22923959214E+02  0.11650452377E+02  0.11721983479E+03  0.12000721068E+03  0.00000000000E+00 0. -1.
          1    1    1    2  501    0  0.22923959214E+02 -0.11650452377E+02 -0.28617435880E+03  0.28732734744E+03  0.00000000000E+00 0.  1.
</event>
<event>
 4    1  0.1643710E+006  0.2079320E+02  0.7546771E-02  0.1522238E+00
          1   -1    0    0  503    0 -0.00000000000E+00  0.00000000000E+00  0.17576850538E+02  0.17576850538E+02  0.00000000000E+00 0.  1.
         21   -1    0    0  501  502  0.00000000000E+00 -0.00000000000E+00 -0.76076693855E+02  0.76076693855E+02  0.00000000000E+00 0.  1.
         21    1    1    2  503  502 -0.13879569129E+02  0.15482720209E+02 -0.67769520903E+02  0.70887693062E+02  0.00000000000E+00 0.  1.
          1    1    1    2  501    0  0.13879569129E+02 -0.15482720209E+02  0.92696775855E+01  0.22765851331E+02  0.00000000000E+00 0.  1.
</event>
<event>
 4    1  0.1643710E+006  0.6153682E+02  0.7546771E-02  0.1254699E+00
         21   -1    0    0  501  502  0.00000000000E+00  0.00000000000E+00  0.30082813256E+02  0.30082813256E+02  0.00000000000E+00 0.  1.
          4   -1    0    0  503    0 -0.00000000000E+00 -0.00000000000E+00 -0.26478752812E+03  0.26478752812E+03  0.00000000000E+00 0.  1.
         21    1    1    2  503  502  0.57543002952E+02  0.21807860218E+02 -0.10565564895E+02  0.62437257447E+02  0.00000000000E+00 0.  1.
          4    1    1    2  501    0 -0.57543002952E+02 -0.21807860218E+02 -0.22413914997E+03  0.23243308393E+03  0.00000000000E+00 0.  1.
</event>
<event>
 4    1  0.1643710E+006  0.2667459E+02  0.7546771E-02  0.1450905E+00
         -3   -1    0    0    0  501 -0.00000000000E+00  0.00000000000E+00  0.11759999206E+03  0.11759999206E+03  0.00000000000E+00 0. -1.
         21   -1    0    0  503  502  0.00000000000E+00 -0.00000000000E+00 -0.20167852259E+02  0.20167852259E+02  0.00000000000E+00 0. -1.
         21    1    1    2  503  501 -0.20464129635E+02  0.17110022980E+02 -0.89161510191E+01  0.28125277547E+02  0.00000000000E+00 0. -1.
         -3    1    1    2    0  502  0.20464129635E+02 -0.17110022980E+02  0.10634829082E+03  0.10964256677E+03  0.00000000000E+00 0. -1.
</event>
<event>
 4    1  0.1643710E+006  0.3406843E+02  0.7546771E-02  0.1387233E+00
         21   -1    0    0  503  502  0.00000000000E+00  0.00000000000E+00  0.24022878702E+01  0.24022878702E+01  0.00000000000E+00 0.  1.
          2   -1    0    0  502    0 -0.00000000000E+00 -0.00000000000E+00 -0.11153529362E+04  0.11153529362E+04  0.00000000000E+00 0.  1.
         21    1    1    2  503  501 -0.33759303116E+02  0.45789950535E+01 -0.13571003850E+03  0.13992095015E+03  0.00000000000E+00 0.  1.
          2    1    1    2  501    0  0.33759303116E+02 -0.45789950535E+01 -0.97724060983E+03  0.97783427392E+03  0.00000000000E+00 0.  1.
</event>
<event>
 4    1  0.1643710E+006  0.2199749E+02  0.7546771E-02  0.1505486E+00
          1   -1    0    0  503    0 -0.00000000000E+00  0.00000000000E+00  0.92375061338E+03  0.92375061338E+03  0.00000000000E+00 0. -1.
         21   -1    0    0  501  502  0.00000000000E+00 -0.00000000000E+00 -0.25094221099E+01  0.25094221099E+01  0.00000000000E+00 0.  1.
         21    1    1    2  503  502  0.26170710364E+01 -0.21841257826E+02  0.48655014174E+02  0.53396629186E+02  0.00000000000E+00 0.  1.
          1    1    1    2  501    0 -0.26170710364E+01  0.21841257826E+02  0.87258617709E+03  0.87286340630E+03  0.00000000000E+00 0. -1.
</event>
<event>
 4    1  0.1643710E+006  0.2127918E+02  0.7546771E-02  0.1515316E+00
         21   -1    0    0  503  502  0.00000000000E+00  0.00000000000E+00  0.13153027375E+01  0.13153027375E+01  0.00000000000E+00 0. -1.
          1   -1    0    0  502    0 -0.00000000000E+00 -0.00000000000E+00 -0.48441979772E+03  0.48441979772E+03  0.00000000000E+00 0. -1.
         21    1    1    2  503  501 -0.20426338715E+02 -0.59638979114E+01 -0.11091305255E+03  0.11293586063E+03  0.00000000000E+00 0. -1.
          1    1    1    2  501    0  0.20426338715E+02  0.59638979114E+01 -0.37219144244E+03  0.37279923983E+03  0.00000000000E+00 0. -1.
</event>
<event>
 4    1  0.1643710E+006  0.2475681E+02  0.7546771E-02  0.1471542E+00
          2   -1    0    0  503    0 -0.00000000000E+00  0.00000000000E+00  0.57614441946E+03  0.57614441946E+03  0.00000000000E+00 0. -1.
         21   -1    0    0  501  502  0.00000000000E+00 -0.00000000000E+00 -0.15626078538E+01  0.15626078538E+01  0.00000000000E+00 0. -1.
         21    1    1    2  503  502  0.24470128028E+02 -0.37566817576E+01  0.12409048778E+03  0.12653595925E+03  0.00000000000E+00 0. -1.
          2    1    1    2  501    0 -0.24470128028E+02  0.37566817576E+01  0.45049132383E+03  0.45117106807E+03  0.00000000000E+00 0. -1.
</event>
<event>
 4    1  0.1643710E+006  0.2119758E+02  0.7546771E-02  0.1516462E+00
          1   -1    0    0  503    0 -0.00000000000E+00  0.00000000000E+00  0.53238048403E+01  0.53238048403E+01  0.00000000000E+00 0.  1.
         21   -1    0    0  501  502  0.00000000000E+00 -0.00000000000E+00 -0.84446973914E+02  0.84446973914E+02  0.00000000000E+00 0.  1.
         21    1    1    2  503  502 -0.12911666120E+02 -0.16811494547E+02 -0.38520768497E+02  0.43968023341E+02  0.00000000000E+00 0.  1.
          1    1    1    2  501    0  0.12911666120E+02  0.16811494547E+02 -0.40602400577E+02  0.45802755413E+02  0.00000000000E+00 0.  1.
</event>
<event>
 4    1  0.1643710E+006  0.2132020E+02  0.7546771E-02  0.1514742E+00
         21   -1    0    0  501  502  0.00000000000E+00  0.00000000000E+00  0.24020872553E+02  0.24020872553E+02  0.00000000000E+00 0. -1.
          2   -1    0    0  503    0 -0.00000000000E+00 -0.00000000000E+00 -0.59653050516E+03  0.59653050516E+03  0.00000000000E+00 0. -1.
         21    1    1    2  503  502 -0.50140875591E+01 -0.20722204820E+02  0.19059924584E+02  0.28597754664E+02  0.00000000000E+00 0. -1.
          2    1    1    2  501    0  0.50140875591E+01  0.20722204820E+02 -0.59156955719E+03  0.59195362304E+03  0.00000000000E+00 0. -1.
</event>
<event>
 4    1  0.1643710E+006  0.2683884E+02  0.7546771E-02  0.1449234E+00
         21   -1    0    0  503  502  0.00000000000E+00  0.00000000000E+00  0.21027943520E+03  0.21027943520E+03  0.00000000000E+00 0. -1.
          2   -1    0    0  502    0 -0.00000000000E+00 -0.00000000000E+00 -0.41109380850E+02  0.41109380850E+02  0.00000000000E+00 0. -1.
         21    1    1    2  503  501  0.26567357213E+02  0.38077520541E+01  0.20492862523E+03  0.20667865125E+03  0.00000000000E+00 0. -1.
          2    1    1    2  501    0 -0.26567357213E+02 -0.38077520541E+01 -0.35758570879E+02  0.44710164799E+02  0.00000000000E+00 0. -1.
</event>
<event>
 4    1  0.1643710E+006  0.2674612E+02  0.7546771E-02  0.1450175E+00
          4   -1    0    0  502    0 -0.00000000000E+00  0.00000000000E+00  0.53919475170E+03  0.53919475170E+03  0.00000000000E+00 0. -1.
         21   -1    0    0  503  502  0.00000000000E+00 -0.00000000000E+00 -0.73824430134E+01  0.73824430134E+01  0.00000000000E+00 0. -1.
         21    1    1    2  503  501  0.19164916409E+02  0.18656397854E+02  0.18389280618E+02  0.32457985821E+02  0.00000000000E+00 0. -1.
          4    1    1    2  501    0 -0.19164916409E+02 -0.18656397854E+02  0.51342302807E+03  0.51411920889E+03  0.00000000000E+00 0. -1.
</event>
<event>
 4    1  0.1643710E+006  0.2310045E+02  0.7546771E-02  0.1491241E+00
          3   -1    0    0  503    0 -0.00000000000E+00  0.00000000000E+00  0.68844930604E+02  0.68844930604E+02  0.00000000000E+00 0. -1.
         21   -1    0    0  501  502  0.00000000000E+00 -0.00000000000E+00 -0.19546253960E+02  0.19546253960E+02  0.00000000000E+00 0. -1.
         21    1    1    2  503  502  0.15399316009E+02  0.17218938154E+02 -0.96825089832E+01  0.25047589602E+02  0.00000000000E+00 0. -1.
          3    1    1    2  501    0 -0.15399316009E+02 -0.17218938154E+02  0.58981185627E+02  0.63343594962E+02  0.00000000000E+00 0. -1.
</event>
<event>
 4    1  0.1643710E+006  0.3760131E+02  0.7546771E-02  0.1363146E+00
         -3   -1    0    0    0  501 -0.00000000000E+00  0.00000000000E+00  0.38501481004E+03  0.38501481004E+03  0.00000000000E+00 0. -1.
         21   -1    0    0  501  502  0.00000000000E+00 -0.00000000000E+00 -0.62906176055E+01  0.62906176055E+01  0.00000000000E+00 0.  1.
         21    1    1    2  503  502 -0.12316076737E+02 -0.35527069588E+02  0.63133668074E+02  0.73482776650E+02  0.00000000000E+00 0.  1.
         -3    1    1    2    0  503  0.12316076737E+02  0.35527069588E+02  0.31559052436E+03  0.31782265099E+03  0.00000000000E+00 0. -1.
</event>
<event>
 4    1  0.1643710E+006  0.2582640E+02  0.7546771E-02  0.1459767E+00
         -1   -1    0    0    0  501 -0.00000000000E+00  0.00000000000E+00  0.27495257138E+02  0.27495257138E+02  0.00000000000E+00 0. -1.
         21   -1    0    0  501  502  0.00000000000E+00 -0.00000000000E+00 -0.31247773135E+02  0.31247773135E+02  0.00000000000E+00 0.  1.
         21    1    1    2  503  502 -0.24787314795E+02 -0.72520153937E+01 -0.15766910368E+02  0.30258852664E+02  0.00000000000E+00 0.  1.
         -1    1    1    2    0  503  0.24787314795E+02  0.72520153937E+01  0.12014394370E+02  0.28484177609E+02  0.00000000000E+00 0. -1.
</event>
<event>
 4    1  0.1643710E+006  0.2990755E+02  0.7546771E-02  0.1420402E+00
          2   -1    0    0  503    0 -0.00000000000E+00  0.00000000000E+00  0.21707924170E+02  0.21707924170E+02  0.00000000000E+00 0. -1.
         21   -1    0    0  501  502  0.00000000000E+00 -0.00000000000E+00 -0.41738751831E+02  0.41738751831E+02  0.00000000000E+00 0. -1.
         21    1    1    2  503  502  0.29434337902E+02  0.52991857277E+01 -0.13604879411E+02  0.32856572568E+02  0.00000000000E+00 0. -1.
          2    1    1    2  501    0 -0.29434337902E+02 -0.52991857277E+01 -0.64259482500E+01  0.30590103433E+02  0.00000000000E+00 0. -1.
</event>
<event>
 4    1  0.1643710E+006  0.2738650E+02  0.7546771E-02  0.1443764E+00
         21   -1    0    0  501  502  0.00000000000E+00  0.00000000000E+00  0.22800228071E+03  0.22800228071E+03  0.00000000000E+00 0. -1.
          2   -1    0    0  503    0 -0.00000000000E+00 -0.00000000000E+00 -0.42987091710E+01  0.42987091710E+01  0.00000000000E+00 0. -1.
         21    1    1    2  503  502  0.27078202384E+02 -0.40977349109E+01  0.16812944768E+03  0.17034533059E+03  0.00000000000E+00 0. -1.
          2    1    1    2  501    0 -0.27078202384E+02  0.40977349109E+01  0.55574123856E+02  0.61955659291E+02  0.00000000000E+00 0. -1.
</event>
<event>
 4    1  0.1643710E+006  0.2014602E+02  0.7546771E-02  0.1531815E+00
          4   -1    0    0  503    0 -0.00000000000E+00  0.00000000000E+00  0.64955345364E+01  0.64955345364E+01  0.00000000000E+00 0.  1.
         21   -1    0    0  501  502  0.00000000000E+00 -0.00000000000E+00 -0.74921327716E+03  0.74921327716E+03  0.00000000000E+00 0.  1.
         21    1    1    2  503  502  0.72167143388E+01  0.18809072515E+02 -0.73311406368E+03  0.73339081841E+03  0.00000000000E+00 0.  1.
          4    1    1    2  501    0 -0.72167143388E+01 -0.18809072515E+02 -0.96036789443E+01  0.22317993279E+02  0.00000000000E+00 0.  1.
</event>
<event>
 4    1  0.1643710E+006  0.4425222E+02  0.7546771E-02  0.1325221E+00
          2   -1    0    0  502    0 -0.00000000000E+00  0.00000000000E+00  0.64913754647E+03  0.64913754647E+03  0.00000000000E+00 0.  1.
         21   -1    0    0  503  502  0.00000000000E+00 -0.00000000000E+00 -0.11782150898E+02  0.11782150898E+02  0.00000000000E+00 0. -1.
         21    1    1    2  503  501 -0.43223664536E+02 -0.94854752605E+01  0.33645905196E+02  0.55590523952E+02  0.00000000000E+00 0. -1.
          2    1    1    2  501    0  0.43223664536E+02  0.94854752605E+01  0.60370949038E+03  0.60532917341E+03  0.00000000000E+00 0.  1.
</event>
<event>
 4    1  0.1643710E+006  0.2585595E+02  0.7546771E-02  0.1459451E+00
         21   -1    0    0  501  502  0.00000000000E+00  0.00000000000E+00  0.41770969642E+02  0.41770969642E+02  0.00000000000E+00 0.  1.
          1   -1    0    0  503    0 -0.00000000000E+00 -0.00000000000E+00 -0.38265225878E+02  0.38265225878E+02  0.00000000000E+00 0. -1.
         21    1    1    2  503  502 -0.55153306942E+01 -0.25260868957E+02  0.32275529995E+02  0.41355050593E+02  0.00000000000E+00 0.  1.
          1    1    1    2  501    0  0.55153306942E+01  0.25260868957E+02 -0.28769786231E+02  0.38681144927E+02  0.00000000000E+00 0. -1.
</event>
<event>
 4    1  0.1643710E+006  0.2010799E+02  0.7546771E-02  0.1532391E+00
         21   -1    0    0  503  502  0.00000000000E+00  0.00000000000E+00  0.18701628827E+03  0.18701628827E+03  0.00000000000E+00 0. -1.
         -3   -1    0    0    0  501 -0.00000000000E+00 -0.00000000000E+00 -0.30161933610E+02  0.30161933610E+02  0.00000000000E+00 0. -1.
         21    1    1    2  503  501  0.18361920964E+02 -0.81958085443E+01  0.18305208723E+03  0.18415319182E+03  0.00000000000E+00 0. -1.
         -3    1    1    2    0  502 -0.18361920964E+02  0.81958085443E+01 -0.26197732565E+02  0.33025030063E+02  0.00000000000E+00 0. -1.
</event>
<event>
 4    1  0.1643710E+006  0.2024967E+02  0.7546771E-02  0.1530253E+00
          1   -1    0    0  503    0 -0.00000000000E+00  0.00000000000E+00  0.42556632266E+03  0.42556632266E+03  0.00000000000E+00 0.  1.
         21   -1    0    0  501  502  0.00000000000E+00 -0.00000000000E+00 -0.19385176612E+01  0.19385176612E+01  0.00000000000E+00 0.  1.
         21    1    1    2  503  502 -0.20230934162E+02  0.87093708686E+00  0.60222703742E+02  0.63535999831E+02  0.00000000000E+00 0.  1.
          1    1    1    2  501    0  0.20230934162E+02 -0.87093708686E+00  0.36340510126E+03  0.36396884049E+03  0.00000000000E+00 0.  1.
</event>
<event>
 4    1  0.1643710E+006  0.3067120E+02  0.7546771E-02  0.1413852E+00
          1   -1    0    0  503    0 -0.00000000000E+00  0.00000000000E+00  0.45130852623E+03  0.45130852623E+03  0.00000000000E+00 0. -1.
         21   -1    0    0  501  502  0.00000000000E+00 -0.00000000000E+00 -0.25716042639E+01  0.25716042639E+01  0.00000000000E+00 0.  1.
         21    1    1    2  503  502  0.49864553550E+01 -0.30263140110E+02  0.12559280163E+03  0.12928369660E+03  0.00000000000E+00 0.  1.
          1    1    1    2  501    0 -0.49864553550E+01  0.30263140110E+02  0.32314412034E+03  0.32459643389E+03  0.00000000000E+00 0. -1.
</event>
<event>
 4    1  0.1643710E+006  0.2050822E+02  0.7546771E-02  0.1526403E+00
         -2   -1    0    0    0  501 -0.00000000000E+00  0.00000000000E+00  0.24019527379E+03  0.24019527379E+03  0.00000000000E+00 0.  1.
         21   -1    0    0  503  502  0.00000000000E+00 -0.00000000000E+00 -0.44649274496E+01  0.44649274496E+01  0.00000000000E+00 0. -1.
         21    1    1    2  503  501  0.53636677526E+01 -0.19794393004E+02  0.22492582375E+02  0.30438514880E+02  0.00000000000E+00 0. -1.
         -2    1    1    2    0  502 -0.53636677526E+01  0.19794393004E+02  0.21323776396E+03  0.21422168636E+03  0.00000000000E+00 0.  1.
</event>
<event>
 4    1  0.1643710E+006  0.2258300E+02  0.7546771E-02  0.1497802E+00
         21   -1    0    0  501  502  0.00000000000E+00  0.00000000000E+00  0.37943395329E+01  0.37943395329E+01  0.00000000000E+00 0.  1.
          2   -1    0    0  503    0 -0.00000000000E+00 -0.00000000000E+00 -0.95743209218E+03  0.95743209218E+03  0.00000000000E+00 0.  1.
         21    1    1    2  503  502  0.16249753886E+02  0.15682383811E+02 -0.31216140627E+02  0.38528419368E+02  0.00000000000E+00 0.  1.
          2    1    1    2  501    0 -0.16249753886E+02 -0.15682383811E+02 -0.92242161202E+03  0.92269801234E+03  0.00000000000E+00 0.  1.
</event>
<event>
 4    1  0.1643710E+006  0.2119938E+02  0.7546771E-02  0.1516437E+00
         -3   -1    0    0    0  501 -0.00000000000E+00  0.00000000000E+00  0.62972706672E+02  0.62972706672E+02  0.00000000000E+00 0. -1.
         21   -1    0    0  503  502  0.00000000000E+00 -0.00000000000E+00 -0.12810294178E+02  0.12810294178E+02  0.00000000000E+00 0.  1.
         21    1    1    2  503  501  0.82229747938E+01 -0.19539612206E+02 -0.13580119905E+00  0.21199816074E+02  0.00000000000E+00 0.  1.
         -3    1    1    2    0  502 -0.82229747938E+01  0.19539612206E+02  0.50298213693E+02  0.54583184776E+02  0.00000000000E+00 0. -1.
</event>
<event>
 4    1  0.1643710E+006  0.2727101E+02  0.7546771E-02  0.1444905E+00
         21   -1    0    0  503  502  0.00000000000E+00  0.00000000000E+00  0.36682766848E+03  0.36682766848E+03  0.00000000000E+00 0.  1.
         -2   -1    0    0    0  501 -0.00000000000E+00 -0.00000000000E+00 -0.10122830749E+03  0.10122830749E+03  0.00000000000E+00 0. -1.
         21    1    1    2  503  501 -0.11219489890E+02 -0.24856209126E+02  0.36447225434E+03  0.36549108370E+03  0.00000000000E+00 0.  1.
         -2    1    1    2    0  502  0.11219489890E+02  0.24856209126E+02 -0.98872893352E+02  0.10256489227E+03  0.00000000000E+00 0. -1.
</event>
<event>
 4    1  0.1643710E+006  0.3264369E+02  0.7546771E-02  0.1397931E+00
         21   -1    0    0  503  502  0.00000000000E+00  0.00000000000E+00  0.28346122348E+02  0.28346122348E+02  0.00000000000E+00 0. -1.
          1   -1    0    0  502    0 -0.00000000000E+00 -0.00000000000E+00 -0.45426692619E+03  0.45426692619E+03  0.00000000000E+00 0. -1.
         21    1    1    2  503  501 -0.14633754639E+02 -0.29179845959E+02  0.18145890483E+02  0.37348139531E+02  0.00000000000E+00 0. -1.
          1    1    1    2  501    0  0.14633754639E+02  0.29179845959E+02 -0.44406669433E+03  0.44526490901E+03  0.00000000000E+00 0. -1.
</event>
<event>
 4    1  0.1643710E+006  0.2013757E+02  0.7546771E-02  0.1531943E+00
         21   -1    0    0  503  502  0.00000000000E+00  0.00000000000E+00  0.11152147802E+01  0.11152147802E+01  0.00000000000E+00 0.  1.
          2   -1    0    0  502    0 -0.00000000000E+00 -0.00000000000E+00 -0.15821433800E+04  0.15821433800E+04  0.00000000000E+00 0. -1.
         21    1    1    2  503  501 -0.14211877150E+02 -0.14266891059E+02 -0.95786220442E+02  0.97880139247E+02  0.00000000000E+00 0.  1.
          2    1    1    2  501    0  0.14211877150E+02  0.14266891059E+02 -0.14852419447E+04  0.14853784555E+04  0.00000000000E+00 0. -1.
</event>
<event>
 4    1  0.1643710E+006  0.2344061E+02  0.7546771E-02  0.1487038E+00
         21   -1    0    0  501  502  0.00000000000E+00  0.00000000000E+00  0.38163034214E+00  0.38163034214E+00  0.00000000000E+00 0. -1.
          2   -1    0    0  503    0 -0.00000000000E+00 -0.00000000000E+00 -0.15546963385E+04  0.15546963385E+04  0.00000000000E+00 0. -1.
         21    1    1    2  503  502  0.23353171098E+02  0.20227220719E+01 -0.56576034597E+03  0.56624573383E+03  0.00000000000E+00 0. -1.
          2    1    1    2  501    0 -0.23353171098E+02 -0.20227220719E+01 -0.98855436215E+03  0.98883223498E+03  0.00000000000E+00 0. -1.
</event>
<event>
 4    1  0.1643710E+006  0.2558840E+02  0.7546771E-02  0.1462327E+00
          3   -1    0    0  503    0 -0.00000000000E+00  0.00000000000E+00  0.67271270243E+03  0.67271270243E+03  0.00000000000E+00 0. -1.
         21   -1    0    0  501  502  0.00000000000E+00 -0.00000000000E+00 -0.11580037042E+01  0.11580037042E+01  0.00000000000E+00 0. -1.
         21    1    1    2  503  502  0.44753341703E+01  0.25193999111E+02  0.20122127452E+03  0.20284173024E+03  0.00000000000E+00 0. -1.
          3    1    1    2  501    0 -0.44753341703E+01 -0.25193999111E+02  0.47033342421E+03  0.47102897590E+03  0.00000000000E+00 0. -1.
</event>
<event>
 4    1  0.1643710E+006  0.2180259E+02  0.7546771E-02  0.1508108E+00
         21   -1    0    0  501  502  0.00000000000E+00  0.00000000000E+00  0.13825612974E+02  0.13825612974E+02  0.00000000000E+00 0.  1.
          3   -1    0    0  503    0 -0.00000000000E+00 -0.00000000000E+00 -0.49910248774E+02  0.49910248774E+02  0.00000000000E+00 0. -1.
         21    1    1    2  503  502  0.24548777813E+01 -0.21663940924E+02 -0.26690502149E+00  0.21804219765E+02  0.00000000000E+00 0.  1.
          3    1    1    2  501    0 -0.24548777813E+01  0.21663940924E+02 -0.35817730778E+02  0.41931641983E+02  0.00000000000E+00 0. -1.
</event>
<event>
 4    1  0.1643710E+006  0.2916559E+02  0.7546771E-02  0.1426989E+00
         21   -1    0    0  501  502  0.00000000000E+00  0.00000000000E+00  0.24982184183E+01  0.24982184183E+01  0.00000000000E+00 0. -1.
          4   -1    0    0  503    0 -0.00000000000E+00 -0.00000000000E+00 -0.37415337347E+03  0.37415337347E+03  0.00000000000E+00 0. -1.
         21    1    1    2  503  502  0.17889812127E+02 -0.23034462098E+02 -0.24231205421E+03  0.24406098303E+03  0.00000000000E+00 0. -1.
          4    1    1    2  501    0 -0.17889812127E+02  0.23034462098E+02 -0.12934310084E+03  0.13259060886E+03  0.00000000000E+00 0. -1.
</event>
<event>
 4    1  0.1643710E+006  0.2267130E+02  0.7546771E-02  0.1496667E+00
         21   -1    0    0  503  502  0.00000000000E+00  0.00000000000E+00  0.10756990853E+03  0.10756990853E+03  0.00000000000E+00 0.  1.
          1   -1    0    0  502    0 -0.00000000000E+00 -0.00000000000E+00 -0.11647466523E+02  0.11647466523E+02  0.00000000000E+00 0.  1.
         21    1    1    2  503  501 -0.12685729861E+02  0.18789896910E+02  0.93738477645E+02  0.96441122760E+02  0.00000000000E+00 0.  1.
          1    1    1    2  501    0  0.12685729861E+02 -0.18789896910E+02  0.21839643582E+01  0.22776252289E+02  0.00000000000E+00 0.  1.
</event>
<event>
 4    1  0.1643710E+006  0.4008637E+02  0.7546771E-02  0.1347980E+00
         21   -1    0    0  501  502  0.00000000000E+00  0.00000000000E+00  0.36453808350E+02  0.36453808350E+02  0.00000000000E+00 0. -1.
          1   -1    0    0  503    0 -0.00000000000E+00 -0.00000000000E+00 -0.76199368753E+02  0.76199368753E+02  0.00000000000E+00 0. -1.
         21    1    1    2  503  502 -0.29602774355E+02  0.27029486630E+02  0.16696384894E+02  0.43424493843E+02  0.00000000000E+00 0. -1.
          1    1    1    2  501    0  0.29602774355E+02 -0.27029486630E+02 -0.56441945297E+02  0.69228683260E+02  0.00000000000E+00 0. -1.
</event>
<event>
 4    1  0.1643710E+006  0.2031013E+02  0.7546771E-02  0.1529346E+00
         21   -1    0    0  501  502  0.00000000000E+00  0.00000000000E+00  0.61116077122E+01  0.61116077122E+01  0.00000000000E+00 0. -1.
          2   -1    0    0  503    0 -0.00000000000E+00 -0.00000000000E+00 -0.10468282544E+03  0.10468282544E+03  0.00000000000E+00 0.  1.
         21    1    1    2  503  502  0.18802854849E+02 -0.76781517912E+01 -0.16267503882E+02  0.26021780261E+02  0.00000000000E+00 0. -1.
          2    1    1    2  501    0 -0.18802854849E+02  0.76781517912E+01 -0.82303713851E+02  0.84772652896E+02  0.00000000000E+00 0.  1.
</event>
<event>
 4    1  0.1643710E+006  0.2088535E+02  0.7546771E-02  0.1520908E+00
          3   -1    0    0  502    0 -0.00000000000E+00  0.00000000000E+00  0.24070521052E+02  0.24070521052E+02  0.00000000000E+00 0. -1.
         21   -1    0    0  503  502  0.00000000000E+00 -0.00000000000E+00 -0.13663074980E+03  0.13663074980E+03  0.00000000000E+00 0. -1.
         21    1    1    2  503  501 -0.16463322444E+02  0.12851343720E+02 -0.13111272633E+03  0.13276575246E+03  0.00000000000E+00 0. -1.
          3    1    1    2  501    0  0.16463322444E+02 -0.12851343720E+02  0.18552497580E+02  0.27935518391E+02  0.00000000000E+00 0. -1.
</event>
<event>
 4    1  0.1643710E+006  0.3167852E+02  0.7546771E-02  0.1405550E+00
          1   -1    0    0  503    0 -0.00000000000E+00  0.00000000000E+00  0.30597623392E+02  0.30597623392E+02  0.00000000000E+00 0. -1.
         21   -1    0    0  501  502  0.00000000000E+00 -0.00000000000E+00 -0.19297732766E+03  0.19297732766E+03  0.00000000000E+00 0. -1.
         21    1    1    2  503  502  0.29769850166E+02  0.10829814593E+02 -0.18303580342E+03  0.18575692234E+03  0.00000000000E+00 0. -1.
          1    1    1    2  501    0 -0.29769850166E+02 -0.10829814593E+02  0.20656099157E+02  0.37818028709E+02  0.00000000000E+00 0. -1.
</event>
<event>
 4    1  0.1643710E+006  0.2140982E+02  0.7546771E-02  0.1513493E+00
         21   -1    0    0  503  502  0.00000000000E+00  0.00000000000E+00  0.50776801524E+02  0.50776801524E+02  0.00000000000E+00 0. -1.
         -2   -1    0    0    0  501 -0.00000000000E+00 -0.00000000000E+00 -0.34585992062E+02  0.34585992062E+02  0.00000000000E+00 0.  1.
         21    1    1    2  503  501 -0.87143006474E+01  0.19556106874E+02  0.44786217074E+02  0.49640563974E+02  0.00000000000E+00 0. -1.
         -2    1    1    2    0  502  0.87143006474E+01 -0.19556106874E+02 -0.28595407613E+02  0.35722229611E+02  0.00000000000E+00 0.  1.
</event>
<event>
 4    1  0.1643710E+006  0.2078459E+02  0.7546771E-02  0.1522363E+00
         21   -1    0    0  503  502  0.00000000000E+00  0.00000000000E+00  0.44413801990E+01  0.44413801990E+01  0.00000000000E+00 0.  1.
         -3   -1    0    0    0  501 -0.00000000000E+00 -0.00000000000E+00 -0.10412676055E+04  0.10412676055E+04  0.00000000000E+00 0.  1.
         21    1    1    2  503  501 -0.75837278057E+01 -0.19351644064E+02 -0.20577641966E+02  0.29247878629E+02  0.00000000000E+00 0.  1.
         -3    1    1    2    0  502  0.75837278057E+01  0.19351644064E+02 -0.10162485834E+04  0.10164611071E+04  0.00000000000E+00 0.  1.
</event>
<event>
 4    1  0.1643710E+006  0.2387988E+02  0.7546771E-02  0.1481735E+00
         -3   -1    0    0    0  501 -0.00000000000E+00  0.00000000000E+00  0.48671196345E+01  0.48671196345E+01  0.00000000000E+00 0.  1.
         21   -1    0    0  501  502  0.00000000000E+00 -0.00000000000E+00 -0.61278085204E+03  0.61278085204E+03  0.00000000000E+00 0.  1.
         21    1    1    2  503  502  0.21642830723E+02  0.10091412994E+02 -0.58169255214E+03  0.58218250915E+03  0.00000000000E+00 0.  1.
         -3    1    1    2    0  503 -0.21642830723E+02 -0.10091412994E+02 -0.26221180262E+02  0.35465462527E+02  0.00000000000E+00 0.  1.
</event>
<event>
 4    1  0.1643710E+006  0.2334493E+02  0.7546771E-02  0.1488212E+00
         21   -1    0    0  501  502  0.00000000000E+00  0.00000000000E+00  0.20980277036E+01  0.20980277036E+01  0.00000000000E+00 0.  1.
          2   -1    0    0  503    0 -0.00000000000E+00 -0.00000000000E+00 -0.40930881672E+03  0.40930881672E+03  0.00000000000E+00 0.  1.
         21    1    1    2  503  502 -0.15631891433E+02 -0.17338681607E+02 -0.79266812004E+02  0.82633004271E+02  0.00000000000E+00 0.  1.
          2    1    1    2  501    0  0.15631891433E+02  0.17338681607E+02 -0.32794397701E+03  0.32877384015E+03  0.00000000000E+00 0.  1.
</event>
<event>
 4    1  0.1643710E+006  0.2132341E+02  0.7546771E-02  0.1514697E+00
         21   -1    0    0  503  502  0.00000000000E+00  0.00000000000E+00  0.13031705415E+03  0.13031705415E+03  0.00000000000E+00 0.  1.
         -3   -1    0    0    0  501 -0.00000000000E+00 -0.00000000000E+00 -0.29981210552E+02  0.29981210552E+02  0.00000000000E+00 0.  1.
         21    1    1    2  503  501 -0.10794438109E+02 -0.18389337671E+02  0.12550913740E+03  0.12730762430E+03  0.00000000000E+00 0.  1.
         -3    1    1    2    0  502  0.10794438109E+02  0.18389337671E+02 -0.25173293795E+02  0.32990640408E+02  0.00000000000E+00 0.  1.
</event>
<event>
 4    1  0.1643710E+006  0.2080606E+02  0.7546771E-02  0.1522052E+00
         21   -1    0    0  501  502  0.00000000000E+00  0.00000000000E+00  0.19771348787E+01  0.19771348787E+01  0.00000000000E+00 0.  1.
          2   -1    0    0  503    0 -0.00000000000E+00 -0.00000000000E+00 -0.31112869571E+03  0.31112869571E+03  0.00000000000E+00 0. -1.
         21    1    1    2  503  502  0.13641175320E+02 -0.15710196507E+02 -0.69362265100E+02  0.72415576765E+02  0.00000000000E+00 0.  1.
          2    1    1    2  501    0 -0.13641175320E+02  0.15710196507E+02 -0.23978929573E+03  0.24069025382E+03  0.00000000000E+00 0. -1.
</event>
<event>
 4    1  0.1643710E+006  0.2049099E+02  0.7546771E-02  0.1526658E+00
         -1   -1    0    0    0  501 -0.00000000000E+00  0.00000000000E+00  0.33018190629E+03  0.33018190629E+03  0.00000000000E+00 0. -1.
         21   -1    0    0  503  502  0.00000000000E+00 -0.00000000000E+00 -0.18230723698E+01  0.18230723698E+01  0.00000000000E+00 0. -1.
         21    1    1    2  503  501 -0.20488598765E+02 -0.31325302623E+00  0.72884018171E+02  0.75709714776E+02  0.00000000000E+00 0. -1.
         -1    1    1    2    0  502  0.20488598765E+02  0.31325302623E+00  0.25547481575E+03  0.25629526388E+03  0.00000000000E+00 0. -1.
</event>
<event>
 4    1  0.1643710E+006  0.2227382E+02  0.7546771E-02  0.1501824E+00
         21   -1    0    0  501  502  0.00000000000E+00  0.00000000000E+00  0.57413210501E+01  0.57413210501E+01  0.00000000000E+00 0.  1.
          1   -1    0    0  503    0 -0.00000000000E+00 -0.00000000000E+00 -0.68132391430E+03  0.68132391430E+03  0.00000000000E+00 0.  1.
         21    1    1    2  503  502  0.20148186192E+02  0.94959904981E+01 -0.16782282330E+02  0.27888496599E+02  0.00000000000E+00 0.  1.
          1    1    1    2  501    0 -0.20148186192E+02 -0.94959904981E+01 -0.65880031092E+03  0.65917673876E+03  0.00000000000E+00 0.  1.
</event>
<event>
 4    1  0.1643710E+006  0.2635267E+02  0.7546771E-02  0.1454221E+00
         21   -1    0    0  501  502  0.00000000000E+00  0.00000000000E+00  0.23058969552E+03  0.23058969552E+03  0.00000000000E+00 0. -1.
          2   -1    0    0  503    0 -0.00000000000E+00 -0.00000000000E+00 -0.13408015261E+04  0.13408015261E+04  0.00000000000E+00 0. -1.
         21    1    1    2  503  502  0.42336846189E+01 -0.26010360921E+02  0.22970679229E+03  0.23121348011E+03  0.00000000000E+00 0. -1.
          2    1    1    2  501    0 -0.42336846189E+01  0.26010360921E+02 -0.13399186228E+04  0.13401777415E+04  0.00000000000E+00 0. -1.
</event>
<event>
 4    1  0.1643710E+006  0.2355494E+02  0.7546771E-02  0.1485645E+00
          2   -1    0    0  502    0 -0.00000000000E+00  0.00000000000E+00  0.51869634803E+02  0.51869634803E+02  0.00000000000E+00 0.  1.
         21   -1    0    0  503  502  0.00000000000E+00 -0.00000000000E+00 -0.15725589640E+02  0.15725589640E+02  0.00000000000E+00 0. -1.
         21    1    1    2  503  501  0.20282389873E+02  0.11977470526E+02 -0.10404814166E+01  0.23577907896E+02  0.00000000000E+00 0. -1.
          2    1    1    2  501    0 -0.20282389873E+02 -0.11977470526E+02  0.37184526579E+02  0.44017316548E+02  0.00000000000E+00 0.  1.
</event>
<event>
 4    1  0.1643710E+006  0.2729637E+02  0.7546771E-02  0.1444654E+00
         21   -1    0    0  503  502  0.00000000000E+00  0.00000000000E+00  0.13018274699E+02  0.13018274699E+02  0.00000000000E+00 0.  1.
          2   -1    0    0  502    0 -0.00000000000E+00 -0.00000000000E+00 -0.71221759659E+03  0.71221759659E+03  0.00000000000E+00 0.  1.
         21    1    1    2  503  501  0.27240791081E+02  0.17409738282E+01 -0.18569402677E+01  0.27359457519E+02  0.00000000000E+00 0.  1.
          2    1    1    2  501    0 -0.27240791081E+02 -0.17409738282E+01 -0.69734238162E+03  0.69787641377E+03  0.00000000000E+00 0.  1.
</event>
<event>
 4    1  0.1643710E+006  0.4085357E+02  0.7546771E-02  0.1343555E+00
         -1   -1    0    0    0  501 -0.00000000000E+00  0.00000000000E+00  0.15630270840E+01  0.15630270840E+01  0.00000000000E+00 0.  1.
         21   -1    0    0  503  502  0.00000000000E+00 -0.00000000000E+00 -0.13522448371E+04  0.13522448371E+04  0.00000000000E+00 0.  1.
         21    1    1    2  503  501 -0.25764768999E+02  0.31704739565E+02 -0.36489080868E+03  0.36717069068E+03  0.00000000000E+00 0.  1.
         -1    1    1    2    0  502  0.25764768999E+02 -0.31704739565E+02 -0.98579100129E+03  0.98663717347E+03  0.00000000000E+00 0.  1.
</event>
<event>
 4    1  0.1643710E+006  0.3630812E+02  0.7546771E-02  0.1371593E+00
          2   -1    0    0  503    0 -0.00000000000E+00  0.00000000000E+00  0.18670296793E+04  0.18670296793E+04  0.00000000000E+00 0. -1.
         21   -1    0    0  501  502  0.00000000000E+00 -0.00000000000E+00 -0.90494207788E+00  0.90494207788E+00  0.00000000000E+00 0.  1.
         21    1    1    2  503  502  0.42338077458E+01 -0.36060423831E+02  0.49524479530E+03  0.49657394874E+03  0.00000000000E+00 0.  1.
          2    1    1    2  501    0 -0.42338077458E+01  0.36060423831E+02  0.13708799419E+04  0.13713606726E+04  0.00000000000E+00 0. -1.
</event>
<event>
 4    1  0.1643710E+006  0.2240282E+02  0.7546771E-02  0.1500136E+00
         21   -1    0    0  501  502  0.00000000000E+00  0.00000000000E+00  0.23226977498E+01  0.23226977498E+01  0.00000000000E+00 0.  1.
          2   -1    0    0  503    0 -0.00000000000E+00 -0.00000000000E+00 -0.60533722344E+03  0.60533722344E+03  0.00000000000E+00 0.  1.
         21    1    1    2  503  502  0.18588229837E+02 -0.12504569986E+02 -0.57866067990E+02  0.62051336678E+02  0.00000000000E+00 0.  1.
          2    1    1    2  501    0 -0.18588229837E+02  0.12504569986E+02 -0.54514845770E+03  0.54560858451E+03  0.00000000000E+00 0.  1.
</event>
<event>
 4    1  0.1643710E+006  0.2320889E+02  0.7546771E-02  0.1489892E+00
         21   -1    0    0  501  502  0.00000000000E+00  0.00000000000E+00  0.74995297957E+02  0.74995297957E+02  0.00000000000E+00 0. -1.
          1   -1    0    0  503    0 -0.00000000000E+00 -0.00000000000E+00 -0.31052609993E+03  0.31052609993E+03  0.00000000000E+00 0. -1.
         21    1    1    2  503  502  0.22936123671E+02  0.35477851259E+01  0.72752973510E+02  0.76365225743E+02  0.00000000000E+00 0. -1.
          1    1    1    2  501    0 -0.22936123671E+02 -0.35477851259E+01 -0.30828377549E+03  0.30915617215E+03  0.00000000000E+00 0. -1.
</event>
<event>
 4    1  0.1643710E+006  0.3965399E+02  0.7546771E-02  0.1350525E+00
          2   -1    0    0  503    0 -0.00000000000E+00  0.00000000000E+00  0.13189542994E+03  0.13189542994E+03  0.00000000000E+00 0. -1.
         21   -1    0    0  501  502  0.00000000000E+00 -0.00000000000E+00 -0.25501658386E+02  0.25501658386E+02  0.00000000000E+00 0. -1.
         21    1    1    2  503  502 -0.88974841949E+01 -0.38642898802E+02 -0.42318356476E+01  0.39879158539E+02  0.00000000000E+00 0. -1.
          2    1    1    2  501    0  0.88974841949E+01  0.38642898802E+02  0.11062560721E+03  0.11751792979E+03  0.00000000000E+00 0. -1.
</event>
<event>
 4    1  0.1643710E+006  0.2049843E+02  0.7546771E-02  0.1526548E+00
         -4   -1    0    0    0  501 -0.00000000000E+00  0.00000000000E+00  0.82704526332E+01  0.82704526332E+01  0.00000000000E+00 0. -1.
         21   -1    0    0  501  502  0.00000000000E+00 -0.00000000000E+00 -0.52174520459E+02  0.52174520459E+02  0.00000000000E+00 0. -1.
         21    1    1    2  503  502 -0.20458803701E+02  0.12739041980E+01 -0.17056649972E+02  0.26666735628E+02  0.00000000000E+00 0. -1.
         -4    1    1    2    0  503  0.20458803701E+02 -0.12739041980E+01 -0.26847417854E+02  0.33778237465E+02  0.00000000000E+00 0. -1.
</event>
<event>
 4    1  0.1643710E+006  0.3016037E+02  0.7546771E-02  0.1418208E+00
         21   -1    0    0  501  502  0.00000000000E+00  0.00000000000E+00  0.66221183120E+03  0.66221183120E+03  0.00000000000E+00 0. -1.
          4   -1    0    0  503    0 -0.00000000000E+00 -0.00000000000E+00 -0.18227732055E+01  0.18227732055E+01  0.00000000000E+00 0. -1.
         21    1    1    2  503  502  0.23723054383E+02 -0.18624298612E+02  0.49500194941E+03  0.49591993076E+03  0.00000000000E+00 0. -1.
          4    1    1    2  501    0 -0.23723054383E+02  0.18624298612E+02  0.16538710858E+03  0.16811467364E+03  0.00000000000E+00 0. -1.
</event>
<event>
 4    1  0.1643710E+006  0.2436639E+02  0.7546771E-02  0.1476018E+00
         21   -1    0    0  501  502  0.00000000000E+00  0.00000000000E+00  0.91454603418E+03  0.91454603418E+03  0.00000000000E+00 0.  1.
          2   -1    0    0  503    0 -0.00000000000E+00 -0.00000000000E+00 -0.32551758579E+03  0.32551758579E+03  0.00000000000E+00 0.  1.
         21    1    1    2  503  502  0.23079131599E+02 -0.78150336610E+01  0.91392744388E+03  0.91425220467E+03  0.00000000000E+00 0.  1.
          2    1    1    2  501    0 -0.23079131599E+02  0.78150336610E+01 -0.32489899549E+03  0.32581141530E+03  0.00000000000E+00 0.  1.
</event>
<event>
 4    1  0.1643710E+006  0.3208196E+02  0.7546771E-02  0.1402327E+00
         21   -1    0    0  503  502  0.00000000000E+00  0.00000000000E+00  0.56922910857E+02  0.56922910857E+02  0.00000000000E+00 0.  1.
         -1   -1    0    0    0  501 -0.00000000000E+00 -0.00000000000E+00 -0.18697484571E+02  0.18697484571E+02  0.00000000000E+00 0.  1.
         21    1    1    2  503  501  0.22518253099E+02 -0.22851266331E+02  0.25975480602E+02  0.41279264626E+02  0.00000000000E+00 0.  1.
         -1    1    1    2    0  502 -0.22518253099E+02  0.22851266331E+02  0.12249945684E+02  0.34341130803E+02  0.00000000000E+00 0.  1.
</event>
<event>
 4    1  0.1643710E+006  0.2142563E+02  0.7546771E-02  0.1513274E+00
         21   -1    0    0  503  502  0.00000000000E+00  0.00000000000E+00  0.20810623201E+00  0.20810623201E+00  0.00000000000E+00 0.  1.
         -4   -1    0    0    0  501 -0.00000000000E+00 -0.00000000000E+00 -0.22059228777E+04  0.22059228777E+04  0.00000000000E+00 0.  1.
         21    1    1    2  503  501  0.18057535514E+02  0.11531826701E+02 -0.11076545122E+04  0.11078617134E+04  0.00000000000E+00 0.  1.
         -4    1    1    2    0  502 -0.18057535514E+02 -0.11531826701E+02 -0.10980602592E+04  0.10982692705E+04  0.00000000000E+00 0.  1.
</event>
<event>
 4    1  0.1643710E+006  0.2036887E+02  0.7546771E-02  0.1528470E+00
         -3   -1    0    0    0  501 -0.00000000000E+00  0.00000000000E+00  0.54575033687E+02  0.54575033687E+02  0.00000000000E+00 0.  1.
         21   -1    0    0  501  502  0.00000000000E+00 -0.00000000000E+00 -0.12975880358E+02  0.12975880358E+02  0.00000000000E+00 0.  1.
         21    1    1    2  503  502 -0.15842826665E+02  0.12802173502E+02 -0.93586031896E+00  0.20390356487E+02  0.00000000000E+00 0.  1.
         -3    1    1    2    0  503  0.15842826665E+02 -0.12802173502E+02  0.42535013648E+02  0.47160557558E+02  0.00000000000E+00 0.  1.
</event>
<event>
 4    1  0.1643710E+006  0.2512419E+02  0.7546771E-02  0.1467419E+00
          1   -1    0    0  503    0 -0.00000000000E+00  0.00000000000E+00  0.21739203422E+02  0.21739203422E+02  0.00000000000E+00 0.  1.
         21   -1    0    0  501  502  0.00000000000E+00 -0.00000000000E+00 -0.34912971596E+02  0.34912971596E+02  0.00000000000E+00 0.  1.
         21    1    1    2  503  502  0.24600526066E+02 -0.51028667432E+01 -0.18208336993E+02  0.31028513786E+02  0.00000000000E+00 0.  1.
          1    1    1    2  501    0 -0.24600526066E+02  0.51028667432E+01  0.50345688191E+01  0.25623661232E+02  0.00000000000E+00 0.  1.
</event>
<event>
 4    1  0.1643710E+006  0.2043453E+02  0.7546771E-02  0.1527493E+00
         -4   -1    0    0    0  501 -0.00000000000E+00  0.00000000000E+00  0.33103640253E+02  0.33103640253E+02  0.00000000000E+00 0. -1.
         21   -1    0    0  501  502  0.00000000000E+00 -0.00000000000E+00 -0.13022701502E+02  0.13022701502E+02  0.00000000000E+00 0.  1.
         21    1    1    2  503  502 -0.58121479316E+01 -0.19590537156E+02  0.59548558616E+01  0.21284513572E+02  0.00000000000E+00 0.  1.
         -4    1    1    2    0  503  0.58121479316E+01  0.19590537156E+02  0.14126082890E+02  0.24841828183E+02  0.00000000000E+00 0. -1.
</event>
<event>
 4    1  0.1643710E+006  0.2331749E+02  0.7546771E-02  0.1488549E+00
          1   -1    0    0  502    0 -0.00000000000E+00  0.00000000000E+00  0.13851483795E+04  0.13851483795E+04  0.00000000000E+00 0. -1.
         21   -1    0    0  503  502  0.00000000000E+00 -0.00000000000E+00 -0.18602183346E+01  0.18602183346E+01  0.00000000000E+00 0. -1.
         21    1    1    2  503  501  0.85084265796E+01 -0.21709719769E+02  0.75638182780E+02  0.79150741940E+02  0.00000000000E+00 0. -1.
          1    1    1    2  501    0 -0.85084265796E+01  0.21709719769E+02  0.13076499784E+04  0.13078578559E+04  0.00000000000E+00 0. -1.
</event>
<event>
 4    1  0.1643710E+006  0.2223245E+02  0.7546771E-02  0.1502368E+00
         -1   -1    0    0    0  501 -0.00000000000E+00  0.00000000000E+00  0.17092434818E+03  0.17092434818E+03  0.00000000000E+00 0. -1.
         21   -1    0    0  503  502  0.00000000000E+00 -0.00000000000E+00 -0.19563991457E+02  0.19563991457E+02  0.00000000000E+00 0. -1.
         21    1    1    2  503  501 -0.19527297228E+02  0.10628567910E+02 -0.12243490586E+02  0.25380796965E+02  0.00000000000E+00 0. -1.
         -1    1    1    2    0  502  0.19527297228E+02 -0.10628567910E+02  0.16360384731E+03  0.16510754267E+03  0.00000000000E+00 0. -1.
</event>
<event>
 4    1  0.1643710E+006  0.2383019E+02  0.7546771E-02  0.1482328E+00
         -4   -1    0    0    0  501 -0.00000000000E+00  0.00000000000E+00  0.16178615123E+03  0.16178615123E+03  0.00000000000E+00 0. -1.
         21   -1    0    0  501  502  0.00000000000E+00 -0.00000000000E+00 -0.41007823132E+01  0.41007823132E+01  0.00000000000E+00 0. -1.
         21    1    1    2  503  502 -0.22968720523E+02  0.63494922135E+01  0.47362112575E+02  0.53019316116E+02  0.00000000000E+00 0. -1.
         -4    1    1    2    0  503  0.22968720523E+02 -0.63494922135E+01  0.11032325634E+03  0.11286761742E+03  0.00000000000E+00 0. -1.
</event>
<event>
 4    1  0.1643710E+006  0.2458604E+02  0.7546771E-02  0.1473488E+00
          2   -1    0    0  502    0 -0.00000000000E+00  0.00000000000E+00  0.10998165859E+04  0.10998165859E+04  0.00000000000E+00 0.  1.
         21   -1    0    0  503  502  0.00000000000E+00 -0.00000000000E+00 -0.11212847857E+03  0.11212847857E+03  0.00000000000E+00 0.  1.
         21    1    1    2  503  501  0.73906374056E+01  0.23448922394E+02 -0.11064152580E+03  0.11334028726E+03  0.00000000000E+00 0.  1.
          2    1    1    2  501    0 -0.73906374056E+01 -0.23448922394E+02  0.10983296332E+04  0.10986047773E+04  0.00000000000E+00 0.  1.
</event>
<event>
 4    1  0.1643710E+006  0.3925039E+02  0.7546771E-02  0.1352935E+00
         21   -1    0    0  501  502  0.00000000000E+00  0.00000000000E+00  0.48403078029E+03  0.48403078029E+03  0.00000000000E+00 0. -1.
          2   -1    0    0  503    0 -0.00000000000E+00 -0.00000000000E+00 -0.10453687419E+02  0.10453687419E+02  0.00000000000E+00 0.  1.
         21    1    1    2  503  502 -0.26662423251E+02  0.28804659124E+02  0.44298461373E+03  0.44472009309E+03  0.00000000000E+00 0. -1.
          2    1    1    2  501    0  0.26662423251E+02 -0.28804659124E+02  0.30592479145E+02  0.49764374618E+02  0.00000000000E+00 0.  1.
</event>
<event>
 4    1  0.1643710E+006  0.3887534E+02  0.7546771E-02  0.1355205E+00
         21   -1    0    0  501  502  0.00000000000E+00  0.00000000000E+00  0.27505806425E+01  0.27505806425E+01  0.00000000000E+00 0. -1.
          2   -1    0    0  503    0 -0.00000000000E+00 -0.00000000000E+00 -0.56875049767E+03  0.56875049767E+03  0.00000000000E+00 0. -1.
         21    1    1    2  503  502 -0.38702748956E+02  0.36590892731E+01 -0.23035327228E+03  0.23361061997E+03  0.00000000000E+00 0. -1.
          2    1    1    2  501    0  0.38702748956E+02 -0.36590892731E+01 -0.33564664475E+03  0.33789045835E+03  0.00000000000E+00 0. -1.
</event>
<event>
 4    1  0.1643710E+006  0.2188492E+02  0.7546771E-02  0.1506996E+00
          1   -1    0    0  503    0 -0.00000000000E+00  0.00000000000E+00  0.61310972234E+03  0.61310972234E+03  0.00000000000E+00 0.  1.
         21   -1    0    0  501  502  0.00000000000E+00 -0.00000000000E+00 -0.91163034972E+00  0.91163034972E+00  0.00000000000E+00 0.  1.
         21    1    1    2  503  502 -0.15862160284E+02 -0.15077846797E+02  0.18996347793E+03  0.19121995853E+03  0.00000000000E+00 0.  1.
          1    1    1    2  501    0  0.15862160284E+02  0.15077846797E+02  0.42223461406E+03  0.42280139416E+03  0.00000000000E+00 0.  1.
</event>
<event>
 4    1  0.1643710E+006  0.2301460E+02  0.7546771E-02  0.1492315E+00
         21   -1    0    0  501  502  0.00000000000E+00  0.00000000000E+00  0.19099894189E+03  0.19099894189E+03  0.00000000000E+00 0.  1.
          2   -1    0    0  503    0 -0.00000000000E+00 -0.00000000000E+00 -0.11162003012E+04  0.11162003012E+04  0.00000000000E+00 0.  1.
         21    1    1    2  503  502  0.18942711318E+02 -0.13070792102E+02  0.19018651245E+03  0.19157395814E+03  0.00000000000E+00 0.  1.
          2    1    1    2  501    0 -0.18942711318E+02  0.13070792102E+02 -0.11153878717E+04  0.11156252849E+04  0.00000000000E+00 0.  1.
</event>
<event>
 4    1  0.1643710E+006  0.2234093E+02  0.7546771E-02  0.1500944E+00
         21   -1    0    0  503  502  0.00000000000E+00  0.00000000000E+00  0.17131530620E+02  0.17131530620E+02  0.00000000000E+00 0. -1.
         -2   -1    0    0    0  501 -0.00000000000E+00 -0.00000000000E+00 -0.32056847200E+02  0.32056847200E+02  0.00000000000E+00 0. -1.
         21    1    1    2  503  501 -0.73143276070E+01 -0.21109659065E+02 -0.36837795655E-01  0.22340959048E+02  0.00000000000E+00 0. -1.
         -2    1    1    2    0  502  0.73143276070E+01  0.21109659065E+02 -0.14888478785E+02  0.26847418772E+02  0.00000000000E+00 0. -1.
</event>
<event>
 4    1  0.1643710E+006  0.6675126E+02  0.7546771E-02  0.1238472E+00
         -1   -1    0    0    0  501 -0.00000000000E+00  0.00000000000E+00  0.11183051113E+04  0.11183051113E+04  0.00000000000E+00 0. -1.
         21   -1    0    0  501  502  0.00000000000E+00 -0.00000000000E+00 -0.11335354059E+02  0.11335354059E+02  0.00000000000E+00 0. -1.
         21    1    1    2  503  502 -0.18798656538E+02 -0.64049518666E+02  0.98637462744E+02  0.11910113092E+03  0.00000000000E+00 0. -1.
         -1    1    1    2    0  503  0.18798656538E+02  0.64049518666E+02  0.10083322945E+04  0.10105393344E+04  0.00000000000E+00 0. -1.
</event>
<event>
 4    1  0.1643710E+006  0.2501611E+02  0.7546771E-02  0.1468623E+00
         21   -1    0    0  501  502  0.00000000000E+00  0.00000000000E+00  0.32737476745E+01  0.32737476745E+01  0.00000000000E+00 0. -1.
          2   -1    0    0  503    0 -0.00000000000E+00 -0.00000000000E+00 -0.41391076913E+03  0.41391076913E+03  0.00000000000E+00 0. -1.
         21    1    1    2  503  502  0.23842959183E+02 -0.75709356947E+01 -0.35834110886E+03  0.35921324595E+03  0.00000000000E+00 0. -1.
          2    1    1    2  501    0 -0.23842959183E+02  0.75709356947E+01 -0.52295912604E+02  0.57971270859E+02  0.00000000000E+00 0. -1.
</event>
<event>
 4    1  0.1643710E+006  0.2002795E+02  0.7546771E-02  0.1533609E+00
          2   -1    0    0  502    0 -0.00000000000E+00  0.00000000000E+00  0.11453676627E+02  0.11453676627E+02  0.00000000000E+00 0.  1.
         21   -1    0    0  503  502  0.00000000000E+00 -0.00000000000E+00 -0.53172025860E+02  0.53172025860E+02  0.00000000000E+00 0. -1.
         21    1    1    2  503  501  0.21824926699E+01  0.19908682396E+02 -0.39738417724E+02  0.44500120811E+02  0.00000000000E+00 0. -1.
          2    1    1    2  501    0 -0.21824926699E+01 -0.19908682396E+02 -0.19799315087E+01  0.20125581676E+02  0.00000000000E+00 0.  1.
</event>
<event>
 4    1  0.1643710E+006  0.2151627E+02  0.7546771E-02  0.1512020E+00
         21   -1    0    0  503  502  0.00000000000E+00  0.00000000000E+00  0.42762434251E+02  0.42762434251E+02  0.00000000000E+00 0.  1.
         -3   -1    0    0    0  501 -0.00000000000E+00 -0.00000000000E+00 -0.21352040603E+02  0.21352040603E+02  0.00000000000E+00 0.  1.
         21    1    1    2  503  501  0.17935758373E+02  0.11885215858E+02  0.33213209435E+02  0.39573565235E+02  0.00000000000E+00 0.  1.
         -3    1    1    2    0  502 -0.17935758373E+02 -0.11885215858E+02 -0.11802815788E+02  0.24540909619E+02  0.00000000000E+00 0.  1.
</event>
<event>
 4    1  0.1643710E+006  0.2192776E+02  0.7546771E-02  0.1506420E+00
         -2   -1    0    0    0  501 -0.00000000000E+00  0.00000000000E+00  0.27138592770E+01  0.27138592770E+01  0.00000000000E+00 0.  1.
         21   -1    0    0  503  502  0.00000000000E+00 -0.00000000000E+00 -0.21142968429E+03  0.21142968429E+03  0.00000000000E+00 0.  1.
         21    1    1    2  503  501 -0.16813723091E+02 -0.14075705543E+02 -0.14745569305E+03  0.14907718867E+03  0.00000000000E+00 0.  1.
         -2    1    1    2    0  502  0.16813723091E+02  0.14075705543E+02 -0.61260131969E+02  0.65066354897E+02  0.00000000000E+00 0.  1.
</event>
<event>
 4    1  0.1643710E+006  0.2053175E+02  0.7546771E-02  0.1526056E+00
         21   -1    0    0  501  502  0.00000000000E+00  0.00000000000E+00  0.87918511107E+00  0.87918511107E+00  0.00000000000E+00 0.  1.
         -1   -1    0    0    0  501 -0.00000000000E+00 -0.00000000000E+00 -0.84929731188E+03  0.84929731188E+03  0.00000000000E+00 0.  1.
         21    1    1    2  503  502  0.20316337232E+02  0.29663429891E+01 -0.14370308158E+03  0.14516242078E+03  0.00000000000E+00 0.  1.
         -1    1    1    2    0  503 -0.20316337232E+02 -0.29663429891E+01 -0.70471504519E+03  0.70501407622E+03  0.00000000000E+00 0.  1.
</event>
<event>
 4    1  0.1643710E+006  0.2468920E+02  0.7546771E-02  0.1472310E+00
          1   -1    0    0  503    0 -0.00000000000E+00  0.00000000000E+00  0.33207437724E+02  0.33207437724E+02  0.00000000000E+00 0. -1.
         21   -1    0    0  501  502  0.00000000000E+00 -0.00000000000E+00 -0.31223038356E+02  0.31223038356E+02  0.00000000000E+00 0. -1.
         21    1    1    2  503  502  0.94932942799E+01  0.22791091202E+02 -0.19688378727E+02  0.31578295257E+02  0.00000000000E+00 0. -1.
          1    1    1    2  501    0 -0.94932942799E+01 -0.22791091202E+02  0.21672778095E+02  0.32852180823E+02  0.00000000000E+00 0. -1.
</event>
<event>
 4    1  0.1643710E+006  0.2079194E+02  0.7546771E-02  0.1522256E+00
         21   -1    0    0  503  502  0.00000000000E+00  0.00000000000E+00  0.89801390412E+01  0.89801390412E+01  0.00000000000E+00 0. -1.
          2   -1    0    0  502    0 -0.00000000000E+00 -0.00000000000E+00 -0.83499321176E+02  0.83499321176E+02  0.00000000000E+00 0. -1.
         21    1    1    2  503  501 -0.20789463831E+02 -0.32093053986E+00 -0.71693854314E+01  0.21993291937E+02  0.00000000000E+00 0. -1.
          2    1    1    2  501    0  0.20789463831E+02  0.32093053986E+00 -0.67349796703E+02  0.70486168279E+02  0.00000000000E+00 0. -1.
</event>
<event>
 4    1  0.1643710E+006  0.3269411E+02  0.7546771E-02  0.1397542E+00
         -2   -1    0    0    0  501 -0.00000000000E+00  0.00000000000E+00  0.10439369217E+02  0.10439369217E+02  0.00000000000E+00 0. -1.
         21   -1    0    0  503  502  0.00000000000E+00 -0.00000000000E+00 -0.13095433495E+03  0.13095433495E+03  0.00000000000E+00 0. -1.
         21    1    1    2  503  501 -0.32456661051E+02  0.39332093063E+01 -0.93274596961E+02  0.98838532062E+02  0.00000000000E+00 0. -1.
         -2    1    1    2    0  502  0.32456661051E+02 -0.39332093063E+01 -0.27240368773E+02  0.42555172106E+02  0.00000000000E+00 0. -1.
</event>
<event>
 4    1  0.1643710E+006  0.2320743E+02  0.7546771E-02  0.1489910E+00
          2   -1    0    0  503    0 -0.00000000000E+00  0.00000000000E+00  0.23902514875E+03  0.23902514875E+03  0.00000000000E+00 0.  1.
         21   -1    0    0  501  502  0.00000000000E+00 -0.00000000000E+00 -0.36016095404E+01  0.36016095404E+01  0.00000000000E+00 0. -1.
         21    1    1    2  503  502 -0.18811477486E+02  0.13590926609E+02  0.43484720665E+02  0.49290018286E+02  0.00000000000E+00 0. -1.
          2    1    1    2  501    0  0.18811477486E+02 -0.13590926609E+02  0.19193881854E+03  0.19333674000E+03  0.00000000000E+00 0.  1.
</event>
<event>
 4    1  0.1643710E+006  0.2581638E+02  0.7546771E-02  0.1459874E+00
         -2   -1    0    0    0  501 -0.00000000000E+00  0.00000000000E+00  0.24658074103E+03  0.24658074103E+03  0.00000000000E+00 0.  1.
         21   -1    0    0  503  502  0.00000000000E+00 -0.00000000000E+00 -0.72217492576E+01  0.72217492576E+01  0.00000000000E+00 0.  1.
         21    1    1    2  503  501 -0.15406121284E+01  0.25770367171E+02  0.19296957368E+02  0.32231318210E+02  0.00000000000E+00 0.  1.
         -2    1    1    2    0  502  0.15406121284E+01 -0.25770367171E+02  0.22006203440E+03  0.22157117208E+03  0.00000000000E+00 0.  1.
</event>
<event>
 4    1  0.1643710E+006  0.2002651E+02  0.7546771E-02  0.1533631E+00
         -4   -1    0    0    0  501 -0.00000000000E+00  0.00000000000E+00  0.41469793571E+00  0.41469793571E+00  0.00000000000E+00 0.  1.
         21   -1    0    0  503  502  0.00000000000E+00 -0.00000000000E+00 -0.11842736299E+04  0.11842736299E+04  0.00000000000E+00 0.  1.
         21    1    1    2  503  501  0.19852167230E+02 -0.26367791322E+01 -0.84557971642E+03  0.84581683477E+03  0.00000000000E+00 0.  1.
         -4    1    1    2    0  502 -0.19852167230E+02  0.26367791322E+01 -0.33827921554E+03  0.33887149307E+03  0.00000000000E+00 0.  1.
</event>
<event>
 4    1  0.1643710E+006  0.2581844E+02  0.7546771E-02  0.1459852E+00
         21   -1    0    0  501  502  0.00000000000E+00  0.00000000000E+00  0.26245464997E+02  0.26245464997E+02  0.00000000000E+00 0. -1.
         -1   -1    0    0    0  501 -0.00000000000E+00 -0.00000000000E+00 -0.88494475670E+02  0.88494475670E+02  0.00000000000E+00 0.  1.
         21    1    1    2  503  502 -0.20144202183E+02 -0.16149389501E+02  0.17318142235E+02  0.31088739333E+02  0.00000000000E+00 0. -1.
         -1    1    1    2    0  503  0.20144202183E+02  0.16149389501E+02 -0.79567152907E+02  0.83651201334E+02  0.00000000000E+00 0.  1.
</event>
<event>
 4    1  0.1643710E+006  0.3108356E+02  0.7546771E-02  0.1410408E+00
         21   -1    0    0  503  502  0.00000000000E+00  0.00000000000E+00  0.14352412979E+01  0.14352412979E+01  0.00000000000E+00 0.  1.
          2   -1    0    0  502    0 -0.00000000000E+00 -0.00000000000E+00 -0.15783506144E+04  0.15783506144E+04  0.00000000000E+00 0.  1.
         21    1    1    2  503  501 -0.31080821576E+02  0.41227878970E+00 -0.19028063171E+03  0.19280276514E+03  0.00000000000E+00 0.  1.
          2    1    1    2  501    0  0.31080821576E+02 -0.41227878970E+00 -0.13866347414E+04  0.13869830905E+04  0.00000000000E+00 0.  1.
</event>
<event>
 4    1  0.1643710E+006  0.2493810E+02  0.7546771E-02  0.1469497E+00
          1   -1    0    0  502    0 -0.00000000000E+00  0.00000000000E+00  0.18942269571E+04  0.18942269571E+04  0.00000000000E+00 0. -1.
         21   -1    0    0  503  502  0.00000000000E+00 -0.00000000000E+00 -0.40274876993E+00  0.40274876993E+00  0.00000000000E+00 0.  1.
         21    1    1    2  503  501 -0.21144000591E+02 -0.13222705830E+02  0.53966909448E+03  0.54024498170E+03  0.00000000000E+00 0.  1.
          1    1    1    2  501    0  0.21144000591E+02  0.13222705830E+02  0.13541551139E+04  0.13543847242E+04  0.00000000000E+00 0. -1.
</event>
<event>
 4    1  0.1643710E+006  0.2495502E+02  0.7546771E-02  0.1469307E+00
         21   -1    0    0  503  502  0.00000000000E+00  0.00000000000E+00  0.69892118558E+02  0.69892118558E+02  0.00000000000E+00 0.  1.
         -4   -1    0    0    0  501 -0.00000000000E+00 -0.00000000000E+00 -0.12377635077E+02  0.12377635077E+02  0.00000000000E+00 0.  1.
         21    1    1    2  503  501 -0.99175312840E+01 -0.22899680409E+02  0.50529100176E+02  0.56355503318E+02  0.00000000000E+00 0.  1.
         -4    1    1    2    0  502  0.99175312840E+01  0.22899680409E+02  0.69853833054E+01  0.25914250318E+02  0.00000000000E+00 0.  1.
</event>
<event>
 4    1  0.1643710E+006  0.2063224E+02  0.7546771E-02  0.1524581E+00
         21   -1    0    0  501  502  0.00000000000E+00  0.00000000000E+00  0.92172370600E+02  0.92172370600E+02  0.00000000000E+00 0. -1.
          3   -1    0    0  503    0 -0.00000000000E+00 -0.00000000000E+00 -0.14065648839E+02  0.14065648839E+02  0.00000000000E+00 0.  1.
         21    1    1    2  503  502 -0.14203900551E+02 -0.14964582045E+02  0.82586762645E+02  0.85124983822E+02  0.00000000000E+00 0. -1.
          3    1    1    2  501    0  0.14203900551E+02  0.14964582045E+02 -0.44800408837E+01  0.21113035617E+02  0.00000000000E+00 0.  1.
</event>
<event>
 4    1  0.1643710E+006  0.2642496E+02  0.7546771E-02  0.1453472E+00
         21   -1    0    0  503  502  0.00000000000E+00  0.00000000000E+00  0.92310329912E+02  0.92310329912E+02  0.00000000000E+00 0. -1.
         -3   -1    0    0    0  501 -0.00000000000E+00 -0.00000000000E+00 -0.13115255834E+02  0.13115255834E+02  0.00000000000E+00 0. -1.
         21    1    1    2  503  501 -0.20107284647E+02 -0.17145710014E+02  0.73890504826E+02  0.78473466670E+02  0.00000000000E+00 0. -1.
         -3    1    1    2    0  502  0.20107284647E+02  0.17145710014E+02  0.53045692515E+01  0.26952119076E+02  0.00000000000E+00 0. -1.
</event>
<event>
 4    1  0.1643710E+006  0.2789608E+02  0.7546771E-02  0.1438809E+00
         -1   -1    0    0    0  501 -0.00000000000E+00  0.00000000000E+00  0.25494035417E+01  0.25494035417E+01  0.00000000000E+00 0. -1.
         21   -1    0    0  503  502  0.00000000000E+00 -0.00000000000E+00 -0.30547673471E+03  0.30547673471E+03  0.00000000000E+00 0. -1.
         21    1    1    2  503  501  0.21153274957E+02 -0.18185989405E+02 -0.14721659213E+03  0.14983629817E+03  0.00000000000E+00 0. -1.
         -1    1    1    2    0  502 -0.21153274957E+02  0.18185989405E+02 -0.15571073904E+03  0.15818984008E+03  0.00000000000E+00 0. -1.
</event>
<event>
 4    1  0.1643710E+006  0.3162091E+02  0.7546771E-02  0.1406015E+00
          4   -1    0    0  503    0 -0.00000000000E+00  0.00000000000E+00  0.13288010369E+02  0.13288010369E+02  0.00000000000E+00 0. -1.
         21   -1    0    0  501  502  0.00000000000E+00 -0.00000000000E+00 -0.17690341031E+03  0.17690341031E+03  0.00000000000E+00 0.  1.
         21    1    1    2  503  502  0.12170767887E+02 -0.29184827433E+02 -0.15389527189E+03  0.15711026846E+03  0.00000000000E+00 0.  1.
          4    1    1    2  501    0 -0.12170767887E+02  0.29184827433E+02 -0.97201280502E+01  0.33081152225E+02  0.00000000000E+00 0. -1.
</event>
<event>
 4    1  0.1643710E+006  0.2009891E+02  0.7546771E-02  0.1532529E+00
          2   -1    0    0  503    0 -0.00000000000E+00  0.00000000000E+00  0.19113563701E+03  0.19113563701E+03  0.00000000000E+00 0. -1.
         21   -1    0    0  501  502  0.00000000000E+00 -0.00000000000E+00 -0.80638322878E+01  0.80638322878E+01  0.00000000000E+00 0.  1.
         21    1    1    2  503  502  0.17024457389E+02 -0.10683345144E+02  0.59784416801E+01  0.20969210233E+02  0.00000000000E+00 0.  1.
          2    1    1    2  501    0 -0.17024457389E+02  0.10683345144E+02  0.17709336304E+03  0.17823025906E+03  0.00000000000E+00 0. -1.
</event>
<event>
 4    1  0.1643710E+006  0.2753283E+02  0.7546771E-02  0.1442328E+00
         -1   -1    0    0    0  501 -0.00000000000E+00  0.00000000000E+00  0.19983510539E+03  0.19983510539E+03  0.00000000000E+00 0. -1.
         21   -1    0    0  501  502  0.00000000000E+00 -0.00000000000E+00 -0.69444240005E+01  0.69444240005E+01  0.00000000000E+00 0. -1.
         21    1    1    2  503  502  0.11935957180E+02 -0.24811083900E+02  0.26801223729E+02  0.38423463554E+02  0.00000000000E+00 0. -1.
         -1    1    1    2    0  503 -0.11935957180E+02  0.24811083900E+02  0.16608945766E+03  0.16835606584E+03  0.00000000000E+00 0. -1.
</event>
<event>
 4    1  0.1643710E+006  0.6959790E+02  0.7546771E-02  0.1230302E+00
          2   -1    0    0  502    0 -0.00000000000E+00  0.00000000000E+00  0.25085698299E+04  0.25085698299E+04  0.00000000000E+00 0.  1.
         21   -1    0    0  503  502  0.00000000000E+00 -0.00000000000E+00 -0.22599095624E+02  0.22599095624E+02  0.00000000000E+00 0. -1.
         21    1    1    2  503  501 -0.64148320523E+02 -0.26997420655E+02  0.32675449511E+02  0.76886622690E+02  0.00000000000E+00 0. -1.
          2    1    1    2  501    0  0.64148320523E+02  0.26997420655E+02  0.24532952848E+04  0.24542823028E+04  0.00000000000E+00 0.  1.
</event>
<event>
 4    1  0.1643710E+006  0.2051252E+02  0.7546771E-02  0.1526340E+00
          1   -1    0    0  502    0 -0.00000000000E+00  0.00000000000E+00  0.20680628896E+03  0.20680628896E+03  0.00000000000E+00 0. -1.
         21   -1    0    0  503  502  0.00000000000E+00 -0.00000000000E+00 -0.95717118221E+01  0.95717118221E+01  0.00000000000E+00 0. -1.
         21    1    1    2  503  501  0.16569624479E+02 -0.12091782345E+02  0.26128315164E+01  0.20678262600E+02  0.00000000000E+00 0. -1.
          1    1    1    2  501    0 -0.16569624479E+02  0.12091782345E+02  0.19462174562E+03  0.19569973818E+03  0.00000000000E+00 0. -1.
</event>
<event>
 4    1  0.1643710E+006  0.4159544E+02  0.7546771E-02  0.1339382E+00
          4   -1    0    0  502    0 -0.00000000000E+00  0.00000000000E+00  0.94874591626E+03  0.94874591626E+03  0.00000000000E+00 0. -1.
         21   -1    0    0  503  502  0.00000000000E+00 -0.00000000000E+00 -0.35446263577E+01  0.35446263577E+01  0.00000000000E+00 0. -1.
         21    1    1    2  503  501 -0.41552791200E+02  0.18832291762E+01  0.14082719604E+03  0.14684168397E+03  0.00000000000E+00 0. -1.
          4    1    1    2  501    0  0.41552791200E+02 -0.18832291762E+01  0.80437409387E+03  0.80544885865E+03  0.00000000000E+00 0. -1.
</event>
<event>
 4    1  0.1643710E+006  0.2479721E+02  0.7546771E-02  0.1471085E+00
          3   -1    0    0  503    0 -0.00000000000E+00  0.00000000000E+00  0.67378401870E+02  0.67378401870E+02  0.00000000000E+00 0.  1.
         21   -1    0    0  501  502  0.00000000000E+00 -0.00000000000E+00 -0.12050960455E+02  0.12050960455E+02  0.00000000000E+00 0. -1.
         21    1    1    2  503  502 -0.73725087405E+01 -0.23675891042E+02  0.80981198157E+01  0.26086035465E+02  0.00000000000E+00 0. -1.
          3    1    1    2  501    0  0.73725087405E+01  0.23675891042E+02  0.47229321599E+02  0.53343326860E+02  0.00000000000E+00 0.  1.
</event>
<event>
 4    1  0.1643710E+006  0.2088855E+02  0.7546771E-02  0.1520862E+00
         -3   -1    0    0    0  501 -0.00000000000E+00  0.00000000000E+00  0.35191736865E+03  0.35191736865E+03  0.00000000000E+00 0.  1.
         21   -1    0    0  501  502  0.00000000000E+00 -0.00000000000E+00 -0.49648626861E+03  0.49648626861E+03  0.00000000000E+00 0.  1.
         21    1    1    2  503  502  0.30469228781E+01 -0.20665136827E+02 -0.49595626031E+03  0.49639595462E+03  0.00000000000E+00 0.  1.
         -3    1    1    2    0  503 -0.30469228781E+01  0.20665136827E+02  0.35138736035E+03  0.35200768264E+03  0.00000000000E+00 0.  1.
</event>
<event>
 4    1  0.1643710E+006  0.3060010E+02  0.7546771E-02  0.1414452E+00
         21   -1    0    0  503  502  0.00000000000E+00  0.00000000000E+00  0.74060005307E+02  0.74060005307E+02  0.00000000000E+00 0.  1.
          3   -1    0    0  502    0 -0.00000000000E+00 -0.00000000000E+00 -0.31784059834E+02  0.31784059834E+02  0.00000000000E+00 0.  1.
         21    1    1    2  503  501  0.48911238975E+01 -0.30206673587E+02  0.62206667810E+02  0.69325577835E+02  0.00000000000E+00 0.  1.
          3    1    1    2  501    0 -0.48911238975E+01  0.30206673587E+02 -0.19930722338E+02  0.36518487306E+02  0.00000000000E+00 0.  1.
</event>
<event>
 4    1  0.1643710E+006  0.2455979E+02  0.7546771E-02  0.1473789E+00
         21   -1    0    0  503  502  0.00000000000E+00  0.00000000000E+00  0.11131365237E+04  0.11131365237E+04  0.00000000000E+00 0.  1.
          1   -1    0    0  502    0 -0.00000000000E+00 -0.00000000000E+00 -0.21345646375E+03  0.21345646375E+03  0.00000000000E+00 0.  1.
         21    1    1    2  503  501  0.17070867793E+02  0.17656976708E+02  0.11122940717E+04  0.11125651825E+04  0.00000000000E+00 0.  1.
          1    1    1    2  501    0 -0.17070867793E+02 -0.17656976708E+02 -0.21261401169E+03  0.21402780502E+03  0.00000000000E+00 0.  1.
</event>
<event>
 4    1  0.1643710E+006  0.4379051E+02  0.7546771E-02  0.1327599E+00
         21   -1    0    0  503  502  0.00000000000E+00  0.00000000000E+00  0.11150747948E+03  0.11150747948E+03  0.00000000000E+00 0. -1.
         -3   -1    0    0    0  501 -0.00000000000E+00 -0.00000000000E+00 -0.19993972345E+03  0.19993972345E+03  0.00000000000E+00 0. -1.
         21    1    1    2  503  501 -0.82517190148E+01 -0.43006023789E+02  0.10465990974E+03  0.11345177678E+03  0.00000000000E+00 0. -1.
         -3    1    1    2    0  502  0.82517190148E+01  0.43006023789E+02 -0.19309215371E+03  0.19799542614E+03  0.00000000000E+00 0. -1.
</event>
<event>
 4    1  0.1643710E+006  0.2021839E+02  0.7546771E-02  0.1530723E+00
          3   -1    0    0  503    0 -0.00000000000E+00  0.00000000000E+00  0.10237796436E+02  0.10237796436E+02  0.00000000000E+00 0. -1.
         21   -1    0    0  501  502  0.00000000000E+00 -0.00000000000E+00 -0.71149167548E+02  0.71149167548E+02  0.00000000000E+00 0.  1.
         21    1    1    2  503  502 -0.20204389297E+02 -0.75225549419E+00 -0.57411889706E+02  0.60867958030E+02  0.00000000000E+00 0.  1.
          3    1    1    2  501    0  0.20204389297E+02  0.75225549419E+00 -0.34994814059E+01  0.20519005953E+02  0.00000000000E+00 0. -1.
</event>
<event>
 4    1  0.1643710E+006  0.3239701E+02  0.7546771E-02  0.1399849E+00
         21   -1    0    0  503  502  0.00000000000E+00  0.00000000000E+00  0.24638772726E+01  0.24638772726E+01  0.00000000000E+00 0.  1.
          1   -1    0    0  502    0 -0.00000000000E+00 -0.00000000000E+00 -0.11379963167E+04  0.11379963167E+04  0.00000000000E+00 0.  1.
         21    1    1    2  503  501  0.18129414703E+02 -0.26849408765E+02 -0.11671673909E+03  0.12112953238E+03  0.00000000000E+00 0.  1.
          1    1    1    2  501    0 -0.18129414703E+02  0.26849408765E+02 -0.10188157003E+04  0.10193306616E+04  0.00000000000E+00 0.  1.
</event>
<event>
 4    1  0.1643710E+006  0.2441300E+02  0.7546771E-02  0.1475478E+00
          4   -1    0    0  503    0 -0.00000000000E+00  0.00000000000E+00  0.43669227779E+03  0.43669227779E+03  0.00000000000E+00 0. -1.
         21   -1    0    0  501  502  0.00000000000E+00 -0.00000000000E+00 -0.18106668958E+02  0.18106668958E+02  0.00000000000E+00 0.  1.
         21    1    1    2  503  502  0.24310797009E+02 -0.22314839670E+01 -0.93686535274E+01  0.26148920453E+02  0.00000000000E+00 0.  1.
          4    1    1    2  501    0 -0.24310797009E+02  0.22314839670E+01  0.42795426236E+03  0.42865002629E+03  0.00000000000E+00 0. -1.
</event>
<event>
 4    1  0.1643710E+006  0.2063213E+02  0.7546771E-02  0.1524582E+00
         -1   -1    0    0    0  501 -0.00000000000E+00  0.00000000000E+00  0.34520221125E+01  0.34520221125E+01  0.00000000000E+00 0. -1.
         21   -1    0    0  501  502  0.00000000000E+00 -0.00000000000E+00 -0.34123571347E+03  0.34123571347E+03  0.00000000000E+00 0.  1.
         21    1    1    2  503  502  0.13275941799E+02  0.15793483568E+02 -0.30661857780E+03  0.30731195389E+03  0.00000000000E+00 0.  1.
         -1    1    1    2    0  503 -0.13275941799E+02 -0.15793483568E+02 -0.31165113564E+02  0.37375781696E+02  0.00000000000E+00 0. -1.
</event>
<event>
 4    1  0.1643710E+006  0.4296732E+02  0.7546771E-02  0.1331923E+00
          2   -1    0    0  503    0 -0.00000000000E+00  0.00000000000E+00  0.10866861446E+04  0.10866861446E+04  0.00000000000E+00 0.  1.
         21   -1    0    0  501  502  0.00000000000E+00 -0.00000000000E+00 -0.47162957713E+01  0.47162957713E+01  0.00000000000E+00 0. -1.
         21    1    1    2  503  502  0.40713780976E+02  0.13732381835E+02  0.10449997145E+03  0.11298864680E+03  0.00000000000E+00 0. -1.
          2    1    1    2  501    0 -0.40713780976E+02 -0.13732381835E+02  0.97746987739E+03  0.97841379358E+03  0.00000000000E+00 0.  1.
</event>
<event>
 4    1  0.1643710E+006  0.2793590E+02  0.7546771E-02  0.1438427E+00
          4   -1    0    0  503    0 -0.00000000000E+00  0.00000000000E+00  0.10595668034E+04  0.10595668034E+04  0.00000000000E+00 0. -1.
         21   -1    0    0  501  502  0.00000000000E+00 -0.00000000000E+00 -0.22539195985E+01  0.22539195985E+01  0.00000000000E+00 0.  1.
         21    1    1    2  503  502 -0.61066167456E+01 -0.27260299931E+02  0.93045355288E+02  0.97148612245E+02  0.00000000000E+00 0.  1.
          4    1    1    2  501    0  0.61066167456E+01  0.27260299931E+02  0.96426752856E+03  0.96467211080E+03  0.00000000000E+00 0. -1.
</event>
<event>
 4    1  0.1643710E+006  0.3420786E+02  0.7546771E-02  0.1386219E+00
         21   -1    0    0  503  502  0.00000000000E+00  0.00000000000E+00  0.76167284455E+02  0.76167284455E+02  0.00000000000E+00 0. -1.
          2   -1    0    0  502    0 -0.00000000000E+00 -0.00000000000E+00 -0.36947611587E+03  0.36947611587E+03  0.00000000000E+00 0.  1.
         21    1    1    2  503  501  0.23277407599E+02 -0.25066710741E+02  0.71485502861E+02  0.79248689650E+02  0.00000000000E+00 0. -1.
          2    1    1    2  501    0 -0.23277407599E+02  0.25066710741E+02 -0.36479433427E+03  0.36639471067E+03  0.00000000000E+00 0.  1.
</event>
<event>
 4    1  0.1643710E+006  0.2179071E+02  0.7546771E-02  0.1508268E+00
         21   -1    0    0  501  502  0.00000000000E+00  0.00000000000E+00  0.31600678565E+03  0.31600678565E+03  0.00000000000E+00 0. -1.
         -4   -1    0    0    0  501 -0.00000000000E+00 -0.00000000000E+00 -0.12611149294E+03  0.12611149294E+03  0.00000000000E+00 0. -1.
         21    1    1    2  503  502 -0.17269727528E+02  0.13288780980E+02  0.31468588618E+03  0.31543944292E+03  0.00000000000E+00 0. -1.
         -4    1    1    2    0  503  0.17269727528E+02 -0.13288780980E+02 -0.12479059347E+03  0.12667883568E+03  0.00000000000E+00 0. -1.
</event>
<event>
 4    1  0.1643710E+006  0.4001015E+02  0.7546771E-02  0.1348426E+00
          1   -1    0    0  503    0 -0.00000000000E+00  0.00000000000E+00  0.24919301811E+02  0.24919301811E+02  0.00000000000E+00 0.  1.
         21   -1    0    0  501  502  0.00000000000E+00 -0.00000000000E+00 -0.95748285678E+02  0.95748285678E+02  0.00000000000E+00 0. -1.
         21    1    1    2  503  502 -0.36496041598E+02  0.16396671551E+02 -0.70025053059E+02  0.80649364202E+02  0.00000000000E+00 0. -1.
          1    1    1    2  501    0  0.36496041598E+02 -0.16396671551E+02 -0.80393080776E+00  0.40018223287E+02  0.00000000000E+00 0.  1.
</event>
<event>
 4    1  0.1643710E+006  0.4623581E+02  0.7546771E-02  0.1315373E+00
          2   -1    0    0  503    0 -0.00000000000E+00  0.00000000000E+00  0.29528271009E+02  0.29528271009E+02  0.00000000000E+00 0.  1.
         21   -1    0    0  501  502  0.00000000000E+00 -0.00000000000E+00 -0.19293628846E+03  0.19293628846E+03  0.00000000000E+00 0. -1.
         21    1    1    2  503  502  0.46180910257E+02 -0.22525119473E+01 -0.16962421037E+03  0.17581274990E+03  0.00000000000E+00 0. -1.
          2    1    1    2  501    0 -0.46180910257E+02  0.22525119473E+01  0.62161929168E+01  0.46651809575E+02  0.00000000000E+00 0.  1.
</event>
<event>
 4    1  0.1643710E+006  0.2893684E+02  0.7546771E-02  0.1429066E+00
         21   -1    0    0  503  502  0.00000000000E+00  0.00000000000E+00  0.48705023430E+02  0.48705023430E+02  0.00000000000E+00 0. -1.
          2   -1    0    0  502    0 -0.00000000000E+00 -0.00000000000E+00 -0.40259244858E+03  0.40259244858E+03  0.00000000000E+00 0. -1.
         21    1    1    2  503  501 -0.15697956704E+02  0.24308743685E+02  0.43834469663E+02  0.52524295282E+02  0.00000000000E+00 0. -1.
          2    1    1    2  501    0  0.15697956704E+02 -0.24308743685E+02 -0.39772189482E+03  0.39877317673E+03  0.00000000000E+00 0. -1.
</event>
<event>
 4    1  0.1643710E+006  0.2381543E+02  0.7546771E-02  0.1482505E+00
         21   -1    0    0  501  502  0.00000000000E+00  0.00000000000E+00  0.37327712610E+02  0.37327712610E+02  0.00000000000E+00 0.  1.
         -1   -1    0    0    0  501 -0.00000000000E+00 -0.00000000000E+00 -0.13376236773E+03  0.13376236773E+03  0.00000000000E+00 0. -1.
         21    1    1    2  503  502  0.62467459598E+01 -0.22981578457E+02  0.32322634720E+02  0.40148816903E+02  0.00000000000E+00 0.  1.
         -1    1    1    2    0  503 -0.62467459598E+01  0.22981578457E+02 -0.12875728984E+03  0.13094126344E+03  0.00000000000E+00 0. -1.
</event>
<event>
 4    1  0.1643710E+006  0.2104582E+02  0.7546771E-02  0.1518612E+00
          2   -1    0    0  502    0 -0.00000000000E+00  0.00000000000E+00  0.17482303377E+02  0.17482303377E+02  0.00000000000E+00 0. -1.
         21   -1    0    0  503  502  0.00000000000E+00 -0.00000000000E+00 -0.45302137546E+02  0.45302137546E+02  0.00000000000E+00 0. -1.
         21    1    1    2  503  501  0.77147088872E+01 -0.19580854864E+02 -0.34750643175E+02  0.40626762257E+02  0.00000000000E+00 0. -1.
          2    1    1    2  501    0 -0.77147088872E+01  0.19580854864E+02  0.69308090065E+01  0.22157678666E+02  0.00000000000E+00 0. -1.
</event>
<event>
 4    1  0.1643710E+006  0.2640007E+02  0.7546771E-02  0.1453729E+00
         21   -1    0    0  501  502  0.00000000000E+00  0.00000000000E+00  0.17459380156E+02  0.17459380156E+02  0.00000000000E+00 0. -1.
          2   -1    0    0  503    0 -0.00000000000E+00 -0.00000000000E+00 -0.14421699123E+04  0.14421699123E+04  0.00000000000E+00 0. -1.
         21    1    1    2  503  502 -0.26329129256E+02  0.19340620692E+01  0.72878932552E+01  0.27387534237E+02  0.00000000000E+00 0. -1.
          2    1    1    2  501    0  0.26329129256E+02 -0.19340620692E+01 -0.14319984254E+04  0.14322417582E+04  0.00000000000E+00 0. -1.
</event>
<event>
 4    1  0.1643710E+006  0.2578345E+02  0.7546771E-02  0.1460227E+00
         21   -1    0    0  501  502  0.00000000000E+00  0.00000000000E+00  0.73782764176E+01  0.73782764176E+01  0.00000000000E+00 0.  1.
          3   -1    0    0  503    0 -0.00000000000E+00 -0.00000000000E+00 -0.92051126274E+02  0.92051126274E+02  0.00000000000E+00 0.  1.
         21    1    1    2  503  502  0.24526155569E+02 -0.79532413186E+01 -0.49573414029E+02  0.55877631776E+02  0.00000000000E+00 0.  1.
          3    1    1    2  501    0 -0.24526155569E+02  0.79532413186E+01 -0.35099435828E+02  0.43551770915E+02  0.00000000000E+00 0.  1.
</event>
<event>
 4    1  0.1643710E+006  0.2834544E+02  0.7546771E-02  0.1434542E+00
         21   -1    0    0  501  502  0.00000000000E+00  0.00000000000E+00  0.27583202521E+02  0.27583202521E+02  0.00000000000E+00 0.  1.
         -2   -1    0    0    0  501 -0.00000000000E+00 -0.00000000000E+00 -0.45523793135E+03  0.45523793135E+03  0.00000000000E+00 0.  1.
         21    1    1    2  503  502  0.26449438349E+02 -0.10192701635E+02  0.19732119036E+02  0.34537233202E+02  0.00000000000E+00 0.  1.
         -2    1    1    2    0  503 -0.26449438349E+02  0.10192701635E+02 -0.44738684787E+03  0.44828390067E+03  0.00000000000E+00 0.  1.
</event>
<event>
 4    1  0.1643710E+006  0.4238470E+02  0.7546771E-02  0.1335051E+00
         21   -1    0    0  501  502  0.00000000000E+00  0.00000000000E+00  0.27051288508E+02  0.27051288508E+02  0.00000000000E+00 0.  1.
          2   -1    0    0  503    0 -0.00000000000E+00 -0.00000000000E+00 -0.87318217976E+02  0.87318217976E+02  0.00000000000E+00 0. -1.
         21    1    1    2  503  502  0.38946836331E+02 -0.16721457673E+02 -0.21506583576E+01  0.42439233479E+02  0.00000000000E+00 0.  1.
          2    1    1    2  501    0 -0.38946836331E+02  0.16721457673E+02 -0.58116271110E+02  0.71930273005E+02  0.00000000000E+00 0. -1.
</event>
<event>
 4    1  0.1643710E+006  0.2884973E+02  0.7546771E-02  0.1429863E+00
         21   -1    0    0  501  502  0.00000000000E+00  0.00000000000E+00  0.95613792101E+01  0.95613792101E+01  0.00000000000E+00 0. -1.
         -3   -1    0    0    0  501 -0.00000000000E+00 -0.00000000000E+00 -0.12743407146E+03  0.12743407146E+03  0.00000000000E+00 0. -1.
         21    1    1    2  503  502  0.23970651039E+02  0.16053496374E+02 -0.20375662793E+02  0.35319604915E+02  0.00000000000E+00 0. -1.
         -3    1    1    2    0  503 -0.23970651039E+02 -0.16053496374E+02 -0.97497029454E+02  0.10167584575E+03  0.00000000000E+00 0. -1.
</event>
<event>
 4    1  0.1643710E+006  0.4284352E+02  0.7546771E-02  0.1332583E+00
         21   -1    0    0  503  502  0.00000000000E+00  0.00000000000E+00  0.15690102791E+03  0.15690102791E+03  0.00000000000E+00 0.  1.
         -2   -1    0    0    0  501 -0.00000000000E+00 -0.00000000000E+00 -0.48473694538E+02  0.48473694538E+02  0.00000000000E+00 0.  1.
         21    1    1    2  503  501 -0.42422832302E+02 -0.59892210150E+01  0.14365517913E+03  0.14990789825E+03  0.00000000000E+00 0.  1.
         -2    1    1    2    0  502  0.42422832302E+02  0.59892210150E+01 -0.35227845759E+02  0.55466824190E+02  0.00000000000E+00 0.  1.
</event>
<event>
 4    1  0.1643710E+006  0.2411829E+02  0.7546771E-02  0.1478914E+00
         21   -1    0    0  501  502  0.00000000000E+00  0.00000000000E+00  0.58703474296E+01  0.58703474296E+01  0.00000000000E+00 0. -1.
          1   -1    0    0  503    0 -0.00000000000E+00 -0.00000000000E+00 -0.38289114142E+03  0.38289114142E+03  0.00000000000E+00 0.  1.
         21    1    1    2  503  502  0.92619304099E+01 -0.22269004046E+02 -0.21161536744E+02  0.32085861894E+02  0.00000000000E+00 0. -1.
          1    1    1    2  501    0 -0.92619304099E+01  0.22269004046E+02 -0.35585925724E+03  0.35667562695E+03  0.00000000000E+00 0.  1.
</event>
<event>
 4    1  0.1643710E+006  0.2480987E+02  0.7546771E-02  0.1470942E+00
         -3   -1    0    0    0  501 -0.00000000000E+00  0.00000000000E+00  0.13421791572E+02  0.13421791572E+02  0.00000000000E+00 0.  1.
         21   -1    0    0  503  502  0.00000000000E+00 -0.00000000000E+00 -0.10143112191E+03  0.10143112191E+03  0.00000000000E+00 0. -1.
         21    1    1    2  503  501  0.24405260237E+02  0.44623912667E+01 -0.86510559081E+02  0.89997813838E+02  0.00000000000E+00 0. -1.
         -3    1    1    2    0  502 -0.24405260237E+02 -0.44623912667E+01 -0.14987712564E+01  0.24855099644E+02  0.00000000000E+00 0.  1.
</event>
<event>
 4    1  0.1643710E+006  0.3517376E+02  0.7546771E-02  0.1379346E+00
         21   -1    0    0  503  502  0.00000000000E+00  0.00000000000E+00  0.73015520553E+01  0.73015520553E+01  0.00000000000E+00 0.  1.
          2   -1    0    0  502    0 -0.00000000000E+00 -0.00000000000E+00 -0.17256013200E+03  0.17256013200E+03  0.00000000000E+00 0. -1.
         21    1    1    2  503  501  0.77070092596E+01 -0.34319025315E+02 -0.70541458151E+02  0.78824430277E+02  0.00000000000E+00 0.  1.
          2    1    1    2  501    0 -0.77070092596E+01  0.34319025315E+02 -0.94717121796E+02  0.10103725378E+03  0.00000000000E+00 0. -1.
</event>
<event>
 4    1  0.1643710E+006  0.3181532E+02  0.7546771E-02  0.1404451E+00
         21   -1    0    0  501  502  0.00000000000E+00  0.00000000000E+00  0.61339723552E+03  0.61339723552E+03  0.00000000000E+00 0.  1.
          1   -1    0    0  503    0 -0.00000000000E+00 -0.00000000000E+00 -0.10018825618E+04  0.10018825618E+04  0.00000000000E+00 0.  1.
         21    1    1    2  503  502  0.26907370210E+02 -0.16976692784E+02  0.61273183872E+03  0.61355726779E+03  0.00000000000E+00 0.  1.
          1    1    1    2  501    0 -0.26907370210E+02  0.16976692784E+02 -0.10012171650E+04  0.10017225296E+04  0.00000000000E+00 0.  1.
</event>
<event>
 4    1  0.1643710E+006  0.4303742E+02  0.7546771E-02  0.1331550E+00
          1   -1    0    0  503    0 -0.00000000000E+00  0.00000000000E+00  0.60335409013E+03  0.60335409013E+03  0.00000000000E+00 0. -1.
         21   -1    0    0  501  502  0.00000000000E+00 -0.00000000000E+00 -0.56904013852E+01  0.56904013852E+01  0.00000000000E+00 0. -1.
         21    1    1    2  503  502 -0.27012065627E+02 -0.33504746657E+02  0.92178659680E+02  0.10173064945E+03  0.00000000000E+00 0. -1.
          1    1    1    2  501    0  0.27012065627E+02  0.33504746657E+02  0.50548502906E+03  0.50731384206E+03  0.00000000000E+00 0. -1.
</event>
<event>
 4    1  0.1643710E+006  0.6775529E+02  0.7546771E-02  0.1235539E+00
          2   -1    0    0  502    0 -0.00000000000E+00  0.00000000000E+00  0.97693835839E+03  0.97693835839E+03  0.00000000000E+00 0. -1.
         21   -1    0    0  503  502  0.00000000000E+00 -0.00000000000E+00 -0.28275305965E+02  0.28275305965E+02  0.00000000000E+00 0. -1.
         21    1    1    2  503  501 -0.62806005827E+02  0.25420175923E+02  0.15385904697E+02  0.69480254571E+02  0.00000000000E+00 0. -1.
          2    1    1    2  501    0  0.62806005827E+02 -0.25420175923E+02  0.93327714773E+03  0.93573340978E+03  0.00000000000E+00 0. -1.
</event>
<event>
 4    1  0.1643710E+006  0.2139204E+02  0.7546771E-02  0.1513741E+00
          1   -1    0    0  502    0 -0.00000000000E+00  0.00000000000E+00  0.32496099692E+03  0.32496099692E+03  0.00000000000E+00 0. -1.
         21   -1    0    0  503  502  0.00000000000E+00 -0.00000000000E+00 -0.11132657101E+02  0.11132657101E+02  0.00000000000E+00 0.  1.
         21    1    1    2  503  501 -0.21127749319E+02  0.33522509853E+01 -0.14487193589E+00  0.21392530609E+02  0.00000000000E+00 0.  1.
          1    1    1    2  501    0  0.21127749319E+02 -0.33522509853E+01  0.31397321175E+03  0.31470112341E+03  0.00000000000E+00 0. -1.
</event>
<event>
 4    1  0.1643710E+006  0.2857156E+02  0.7546771E-02  0.1432430E+00
         -3   -1    0    0    0  501 -0.00000000000E+00  0.00000000000E+00  0.18438973224E+03  0.18438973224E+03  0.00000000000E+00 0. -1.
         21   -1    0    0  503  502  0.00000000000E+00 -0.00000000000E+00 -0.52757612062E+01  0.52757612062E+01  0.00000000000E+00 0. -1.
         21    1    1    2  503  501  0.28571253103E+02  0.13308683891E+00  0.51524753932E+02  0.58916334609E+02  0.00000000000E+00 0. -1.
         -3    1    1    2    0  502 -0.28571253103E+02 -0.13308683891E+00  0.12758921711E+03  0.13074915884E+03  0.00000000000E+00 0. -1.
</event>
<event>
 4    1  0.1643710E+006  0.3381317E+02  0.7546771E-02  0.1389104E+00
         21   -1    0    0  503  502  0.00000000000E+00  0.00000000000E+00  0.76140099289E+01  0.76140099289E+01  0.00000000000E+00 0. -1.
          2   -1    0    0  502    0 -0.00000000000E+00 -0.00000000000E+00 -0.73172438079E+03  0.73172438079E+03  0.00000000000E+00 0.  1.
         21    1    1    2  503  501 -0.16098440844E+02 -0.29735008328E+02 -0.32492623737E+02  0.46894574475E+02  0.00000000000E+00 0. -1.
          2    1    1    2  501    0  0.16098440844E+02  0.29735008328E+02 -0.69161774712E+03  0.69244381624E+03  0.00000000000E+00 0.  1.
</event>
<event>
 4    1  0.1643710E+006  0.2514590E+02  0.7546771E-02  0.1467178E+00
         -3   -1    0    0    0  501 -0.00000000000E+00  0.00000000000E+00  0.68531841206E+02  0.68531841206E+02  0.00000000000E+00 0. -1.
         21   -1    0    0  503  502  0.00000000000E+00 -0.00000000000E+00 -0.17889011143E+03  0.17889011143E+03  0.00000000000E+00 0. -1.
         21    1    1    2  503  501  0.17524628536E+02 -0.18033407701E+02 -0.17565756056E+03  0.17744828818E+03  0.00000000000E+00 0. -1.
         -3    1    1    2    0  502 -0.17524628536E+02  0.18033407701E+02  0.65299290334E+02  0.69973664452E+02  0.00000000000E+00 0. -1.
</event>
<event>
 4    1  0.1643710E+006  0.2216824E+02  0.7546771E-02  0.1503215E+00
          2   -1    0    0  502    0 -0.00000000000E+00  0.00000000000E+00  0.50163833613E+02  0.50163833613E+02  0.00000000000E+00 0. -1.
         21   -1    0    0  503  502  0.00000000000E+00 -0.00000000000E+00 -0.28707021144E+03  0.28707021144E+03  0.00000000000E+00 0. -1.
         21    1    1    2  503  501 -0.14636483158E+02  0.16649444774E+02 -0.28416813856E+03  0.28503150988E+03  0.00000000000E+00 0. -1.
          2    1    1    2  501    0  0.14636483158E+02 -0.16649444774E+02  0.47261760736E+02  0.52202535172E+02  0.00000000000E+00 0. -1.
</event>
<event>
 4    1  0.1643710E+006  0.2285283E+02  0.7546771E-02  0.1494354E+00
          2   -1    0    0  502    0 -0.00000000000E+00  0.00000000000E+00  0.17753026000E+04  0.17753026000E+04  0.00000000000E+00 0.  1.
         21   -1    0    0  503  502  0.00000000000E+00 -0.00000000000E+00 -0.34653354014E+00  0.34653354014E+00  0.00000000000E+00 0.  1.
         21    1    1    2  503  501  0.20636791636E+02 -0.98170716673E+01  0.54237988811E+03  0.54286111953E+03  0.00000000000E+00 0.  1.
          2    1    1    2  501    0 -0.20636791636E+02  0.98170716673E+01  0.12325761784E+04  0.12327880141E+04  0.00000000000E+00 0.  1.
</event>
<event>
 4    1  0.1643710E+006  0.3138601E+02  0.7546771E-02  0.1407923E+00
         21   -1    0    0  503  502  0.00000000000E+00  0.00000000000E+00  0.54278520465E+02  0.54278520465E+02  0.00000000000E+00 0.  1.
          2   -1    0    0  502    0 -0.00000000000E+00 -0.00000000000E+00 -0.60102470200E+02  0.60102470200E+02  0.00000000000E+00 0.  1.
         21    1    1    2  503  501 -0.19168076208E+02  0.24852894047E+02  0.44869933370E+02  0.54757578550E+02  0.00000000000E+00 0.  1.
          2    1    1    2  501    0  0.19168076208E+02 -0.24852894047E+02 -0.50693883105E+02  0.59623412115E+02  0.00000000000E+00 0.  1.
</event>
<event>
 4    1  0.1643710E+006  0.2670177E+02  0.7546771E-02  0.1450627E+00
         21   -1    0    0  501  502  0.00000000000E+00  0.00000000000E+00  0.29972101573E+02  0.29972101573E+02  0.00000000000E+00 0.  1.
          2   -1    0    0  503    0 -0.00000000000E+00 -0.00000000000E+00 -0.17044258267E+03  0.17044258267E+03  0.00000000000E+00 0.  1.
         21    1    1    2  503  502  0.25832010053E+02  0.67595529808E+01  0.22716583487E+02  0.35057488005E+02  0.00000000000E+00 0.  1.
          2    1    1    2  501    0 -0.25832010053E+02 -0.67595529808E+01 -0.16318706459E+03  0.16535719624E+03  0.00000000000E+00 0.  1.
</event>
<event>
 4    1  0.1643710E+006  0.2147665E+02  0.7546771E-02  0.1512567E+00
          4   -1    0    0  503    0 -0.00000000000E+00  0.00000000000E+00  0.48089897483E+02  0.48089897483E+02  0.00000000000E+00 0. -1.
         21   -1    0    0  501  502  0.00000000000E+00 -0.00000000000E+00 -0.17704149969E+02  0.17704149969E+02  0.00000000000E+00 0. -1.
         21    1    1    2  503  502 -0.14272057800E+02 -0.16048521196E+02 -0.70763284699E+01  0.22612410111E+02  0.00000000000E+00 0. -1.
          4    1    1    2  501    0  0.14272057800E+02  0.16048521196E+02  0.37462075984E+02  0.43181637341E+02  0.00000000000E+00 0. -1.
</event>
<event>
 4    1  0.1643710E+006  0.2179905E+02  0.7546771E-02  0.1508155E+00
         -1   -1    0    0    0  501 -0.00000000000E+00  0.00000000000E+00  0.22954440129E+02  0.22954440129E+02  0.00000000000E+00 0.  1.
         21   -1    0    0  503  502  0.00000000000E+00 -0.00000000000E+00 -0.20967613373E+03  0.20967613373E+03  0.00000000000E+00 0. -1.
         21    1    1    2  503  501 -0.19684908777E+02  0.93649839611E+01 -0.20378490180E+03  0.20494751709E+03  0.00000000000E+00 0. -1.
         -1    1    1    2    0  502  0.19684908777E+02 -0.93649839611E+01  0.17063208200E+02  0.27683056771E+02  0.00000000000E+00 0.  1.
</event>
<event>
 4    1  0.1643710E+006  0.2190664E+02  0.7546771E-02  0.1506704E+00
         21   -1    0    0  501  502  0.00000000000E+00  0.00000000000E+00  0.10168781121E+02  0.10168781121E+02  0.00000000000E+00 0.  1.
         -2   -1    0    0    0  501 -0.00000000000E+00 -0.00000000000E+00 -0.22591904281E+03  0.22591904281E+03  0.00000000000E+00 0.  1.
         21    1    1    2  503  502 -0.57158252302E+01 -0.21147820960E+02 -0.28821145673E+01  0.22095419747E+02  0.00000000000E+00 0.  1.
         -2    1    1    2    0  503  0.57158252302E+01  0.21147820960E+02 -0.21286814712E+03  0.21399240419E+03  0.00000000000E+00 0.  1.
</event>
<event>
 4    1  0.1643710E+006  0.2050667E+02  0.7546771E-02  0.1526426E+00
          2   -1    0    0  502    0 -0.00000000000E+00  0.00000000000E+00  0.26151118684E+03  0.26151118684E+03  0.00000000000E+00 0. -1.
         21   -1    0    0  503  502  0.00000000000E+00 -0.00000000000E+00 -0.25179961209E+02  0.25179961209E+02  0.00000000000E+00 0. -1.
         21    1    1    2  503  501  0.24561924795E+01 -0.20359038628E+02 -0.20527261415E+02  0.29015371728E+02  0.00000000000E+00 0. -1.
          2    1    1    2  501    0 -0.24561924795E+01  0.20359038628E+02  0.25685848705E+03  0.25767577632E+03  0.00000000000E+00 0. -1.
</event>
<event>
 4    1  0.1643710E+006  0.2090841E+02  0.7546771E-02  0.1520576E+00
         -3   -1    0    0    0  501 -0.00000000000E+00  0.00000000000E+00  0.21171985133E+03  0.21171985133E+03  0.00000000000E+00 0. -1.
         21   -1    0    0  503  502  0.00000000000E+00 -0.00000000000E+00 -0.12134162489E+03  0.12134162489E+03  0.00000000000E+00 0. -1.
         21    1    1    2  503  501  0.10417234245E+02  0.18128511826E+02 -0.11991865867E+03  0.12172775529E+03  0.00000000000E+00 0. -1.
         -3    1    1    2    0  502 -0.10417234245E+02 -0.18128511826E+02  0.21029688512E+03  0.21133372093E+03  0.00000000000E+00 0. -1.
</event>
<event>
 4    1  0.1643710E+006  0.2004082E+02  0.7546771E-02  0.1533413E+00
         21   -1    0    0  501  502  0.00000000000E+00  0.00000000000E+00  0.19589252859E+01  0.19589252859E+01  0.00000000000E+00 0. -1.
          2   -1    0    0  503    0 -0.00000000000E+00 -0.00000000000E+00 -0.38198692461E+03  0.38198692461E+03  0.00000000000E+00 0. -1.
         21    1    1    2  503  502  0.51882016610E+01 -0.19357607103E+02 -0.59351170072E+02  0.62643401713E+02  0.00000000000E+00 0. -1.
          2    1    1    2  501    0 -0.51882016610E+01  0.19357607103E+02 -0.32067682925E+03  0.32130244818E+03  0.00000000000E+00 0. -1.
</event>
<event>
 4    1  0.1643710E+006  0.2041943E+02  0.7546771E-02  0.1527718E+00
         -2   -1    0    0    0  501 -0.00000000000E+00  0.00000000000E+00  0.95595627523E+01  0.95595627523E+01  0.00000000000E+00 0.  1.
         21   -1    0    0  501  502  0.00000000000E+00 -0.00000000000E+00 -0.12973068243E+03  0.12973068243E+03  0.00000000000E+00 0.  1.
         21    1    1    2  503  502  0.11150558355E+02  0.17106089657E+02 -0.11682787743E+03  0.11859893001E+03  0.00000000000E+00 0.  1.
         -2    1    1    2    0  503 -0.11150558355E+02 -0.17106089657E+02 -0.33432422531E+01  0.20691315177E+02  0.00000000000E+00 0.  1.
</event>
<event>
 4    1  0.1643710E+006  0.2636234E+02  0.7546771E-02  0.1454121E+00
         21   -1    0    0  503  502  0.00000000000E+00  0.00000000000E+00  0.15555189263E+02  0.15555189263E+02  0.00000000000E+00 0.  1.
          1   -1    0    0  502    0 -0.00000000000E+00 -0.00000000000E+00 -0.14549358194E+03  0.14549358194E+03  0.00000000000E+00 0.  1.
         21    1    1    2  503  501  0.41986406842E+01  0.26025836100E+02  0.20608642409E+01  0.26442766302E+02  0.00000000000E+00 0.  1.
          1    1    1    2  501    0 -0.41986406842E+01 -0.26025836100E+02 -0.13199925692E+03  0.13460600490E+03  0.00000000000E+00 0.  1.
</event>
<event>
 4    1  0.1643710E+006  0.2903998E+02  0.7546771E-02  0.1428126E+00
         21   -1    0    0  503  502  0.00000000000E+00  0.00000000000E+00  0.16349419382E+03  0.16349419382E+03  0.00000000000E+00 0. -1.
         -2   -1    0    0    0  501 -0.00000000000E+00 -0.00000000000E+00 -0.58059633385E+01  0.58059633385E+01  0.00000000000E+00 0.  1.
         21    1    1    2  503  501 -0.13495800780E+02  0.25713490622E+02  0.10712091173E+03  0.11098743158E+03  0.00000000000E+00 0. -1.
         -2    1    1    2    0  502  0.13495800780E+02 -0.25713490622E+02  0.50567318744E+02  0.58312725572E+02  0.00000000000E+00 0.  1.
</event>
<event>
 4    1  0.1643710E+006  0.2004262E+02  0.7546771E-02  0.1533385E+00
         21   -1    0    0  503  502  0.00000000000E+00  0.00000000000E+00  0.42250750912E+02  0.42250750912E+02  0.00000000000E+00 0. -1.
         -4   -1    0    0    0  501 -0.00000000000E+00 -0.00000000000E+00 -0.95638390582E+01  0.95638390582E+01  0.00000000000E+00 0. -1.
         21    1    1    2  503  501  0.65508861234E+01 -0.18941818435E+02  0.18328719250E+02  0.27159686006E+02  0.00000000000E+00 0. -1.
         -4    1    1    2    0  502 -0.65508861234E+01  0.18941818435E+02  0.14358192604E+02  0.24654903964E+02  0.00000000000E+00 0. -1.
</event>
<event>
 4    1  0.1643710E+006  0.2785366E+02  0.7546771E-02  0.1439216E+00
          2   -1    0    0  502    0 -0.00000000000E+00  0.00000000000E+00  0.11313584906E+04  0.11313584906E+04  0.00000000000E+00 0. -1.
         21   -1    0    0  503  502  0.00000000000E+00 -0.00000000000E+00 -0.32555396033E+02  0.32555396033E+02  0.00000000000E+00 0. -1.
         21    1    1    2  503  501  0.24380342582E+02 -0.13469422973E+02 -0.26393597433E+02  0.38372495946E+02  0.00000000000E+00 0. -1.
          2    1    1    2  501    0 -0.24380342582E+02  0.13469422973E+02  0.11251966920E+04  0.11255413907E+04  0.00000000000E+00 0. -1.
</event>
<event>
 4    1  0.1643710E+006  0.2373758E+02  0.7546771E-02  0.1483438E+00
         21   -1    0    0  503  502  0.00000000000E+00  0.00000000000E+00  0.16018291195E+02  0.16018291195E+02  0.00000000000E+00 0. -1.
         -4   -1    0    0    0  501 -0.00000000000E+00 -0.00000000000E+00 -0.38886755279E+02  0.38886755279E+02  0.00000000000E+00 0. -1.
         21    1    1    2  503  501  0.22482071980E+02  0.76176856687E+01 -0.29548532797E+01  0.23920782876E+02  0.00000000000E+00 0. -1.
         -4    1    1    2    0  502 -0.22482071980E+02 -0.76176856687E+01 -0.19913610804E+02  0.30984263598E+02  0.00000000000E+00 0. -1.
</event>
<event>
 4    1  0.1643710E+006  0.2137791E+02  0.7546771E-02  0.1513937E+00
         21   -1    0    0  501  502  0.00000000000E+00  0.00000000000E+00  0.24880620228E+02  0.24880620228E+02  0.00000000000E+00 0.  1.
         -1   -1    0    0    0  501 -0.00000000000E+00 -0.00000000000E+00 -0.11341095231E+03  0.11341095231E+03  0.00000000000E+00 0.  1.
         21    1    1    2  503  502 -0.18563160118E+02  0.10603030926E+02  0.19033921589E+02  0.28623510432E+02  0.00000000000E+00 0.  1.
         -1    1    1    2    0  503  0.18563160118E+02 -0.10603030926E+02 -0.10756425367E+03  0.10966806210E+03  0.00000000000E+00 0.  1.
</event>
<event>
 4    1  0.1643710E+006  0.2052882E+02  0.7546771E-02  0.1526099E+00
         -3   -1    0    0    0  501 -0.00000000000E+00  0.00000000000E+00  0.45898108528E+02  0.45898108528E+02  0.00000000000E+00 0. -1.
         21   -1    0    0  503  502  0.00000000000E+00 -0.00000000000E+00 -0.10743405462E+02  0.10743405462E+02  0.00000000000E+00 0.  1.
         21    1    1    2  503  501  0.20359982483E+02  0.26275016529E+01  0.67803496508E+01  0.21619569678E+02  0.00000000000E+00 0.  1.
         -3    1    1    2    0  502 -0.20359982483E+02 -0.26275016529E+01  0.28374353416E+02  0.35021944312E+02  0.00000000000E+00 0. -1.
</event>
<event>
 4    1  0.1643710E+006  0.2471017E+02  0.7546771E-02  0.1472072E+00
         21   -1    0    0  503  502  0.00000000000E+00  0.00000000000E+00  0.16289175136E+03  0.16289175136E+03  0.00000000000E+00 0. -1.
          2   -1    0    0  502    0 -0.00000000000E+00 -0.00000000000E+00 -0.76763446998E+02  0.76763446998E+02  0.00000000000E+00 0.  1.
         21    1    1    2  503  501  0.17720045306E+02 -0.17221864555E+02  0.15992946903E+03  0.16182715374E+03  0.00000000000E+00 0. -1.
          2    1    1    2  501    0 -0.17720045306E+02  0.17221864555E+02 -0.73801164661E+02  0.77828044622E+02  0.00000000000E+00 0.  1.
</event>
<event>
 4    1  0.1643710E+006  0.2066908E+02  0.7546771E-02  0.1524042E+00
         21   -1    0    0  501  502  0.00000000000E+00  0.00000000000E+00  0.53732572625E+03  0.53732572625E+03  0.00000000000E+00 0. -1.
         -4   -1    0    0    0  501 -0.00000000000E+00 -0.00000000000E+00 -0.12283325159E+01  0.12283325159E+01  0.00000000000E+00 0. -1.
         21    1    1    2  503  502  0.18967105024E+02 -0.82133915054E+01  0.42797413073E+03  0.42847294832E+03  0.00000000000E+00 0. -1.
         -4    1    1    2    0  503 -0.18967105024E+02  0.82133915054E+01  0.10812326300E+03  0.11008111044E+03  0.00000000000E+00 0. -1.
</event>
<event>
 4    1  0.1643710E+006  0.2334687E+02  0.7546771E-02  0.1488188E+00
          2   -1    0    0  503    0 -0.00000000000E+00  0.00000000000E+00  0.15087203275E+04  0.15087203275E+04  0.00000000000E+00 0. -1.
         21   -1    0    0  501  502  0.00000000000E+00 -0.00000000000E+00 -0.36922846638E+00  0.36922846638E+00  0.00000000000E+00 0. -1.
         21    1    1    2  503  502  0.15027153311E+02  0.17867869896E+02  0.86485757716E+03  0.86517264455E+03  0.00000000000E+00 0. -1.
          2    1    1    2  501    0 -0.15027153311E+02 -0.17867869896E+02  0.64349352190E+03  0.64391691144E+03  0.00000000000E+00 0. -1.
</event>
<event>
 4    1  0.1643710E+006  0.2539766E+02  0.7546771E-02  0.1464404E+00
         21   -1    0    0  501  502  0.00000000000E+00  0.00000000000E+00  0.36165171232E+02  0.36165171232E+02  0.00000000000E+00 0.  1.
          4   -1    0    0  503    0 -0.00000000000E+00 -0.00000000000E+00 -0.64269213681E+02  0.64269213681E+02  0.00000000000E+00 0.  1.
         21    1    1    2  503  502  0.21716331982E+02  0.13169744668E+02  0.28632007440E+02  0.38273138092E+02  0.00000000000E+00 0.  1.
          4    1    1    2  501    0 -0.21716331982E+02 -0.13169744668E+02 -0.56736049889E+02  0.62161246822E+02  0.00000000000E+00 0.  1.
</event>
<event>
 4    1  0.1643710E+006  0.2533226E+02  0.7546771E-02  0.1465121E+00
         21   -1    0    0  501  502  0.00000000000E+00  0.00000000000E+00  0.16969717253E+01  0.16969717253E+01  0.00000000000E+00 0. -1.
          2   -1    0    0  503    0 -0.00000000000E+00 -0.00000000000E+00 -0.58781421581E+03  0.58781421581E+03  0.00000000000E+00 0. -1.
         21    1    1    2  503  502 -0.17938133106E+02 -0.17887051502E+02 -0.11702484458E+03  0.11973528085E+03  0.00000000000E+00 0. -1.
          2    1    1    2  501    0  0.17938133106E+02  0.17887051502E+02 -0.46909239950E+03  0.46977590669E+03  0.00000000000E+00 0. -1.
</event>
<event>
 4    1  0.1643710E+006  0.2229213E+02  0.7546771E-02  0.1501583E+00
         -3   -1    0    0    0  501 -0.00000000000E+00  0.00000000000E+00  0.48988985401E+02  0.48988985401E+02  0.00000000000E+00 0. -1.
         21   -1    0    0  501  502  0.00000000000E+00 -0.00000000000E+00 -0.68128333335E+02  0.68128333335E+02  0.00000000000E+00 0. -1.
         21    1    1    2  503  502 -0.11944985688E+02  0.18821700642E+02 -0.63593205723E+02  0.67387201398E+02  0.00000000000E+00 0. -1.
         -3    1    1    2    0  503  0.11944985688E+02 -0.18821700642E+02  0.44453857789E+02  0.49730117338E+02  0.00000000000E+00 0. -1.
</event>
<event>
 4    1  0.1643710E+006  0.2369640E+02  0.7546771E-02  0.1483934E+00
          1   -1    0    0  503    0 -0.00000000000E+00  0.00000000000E+00  0.75952196109E+02  0.75952196109E+02  0.00000000000E+00 0. -1.
         21   -1    0    0  501  502  0.00000000000E+00 -0.00000000000E+00 -0.12474358548E+02  0.12474358548E+02  0.00000000000E+00 0. -1.
         21    1    1    2  503  502 -0.11636877514E+02  0.20642251256E+02  0.35206232528E+01  0.23956507327E+02  0.00000000000E+00 0. -1.
          1    1    1    2  501    0  0.11636877514E+02 -0.20642251256E+02  0.59957214308E+02  0.64470047331E+02  0.00000000000E+00 0. -1.
</event>
<event>
 4    1  0.1643710E+006  0.2502586E+02  0.7546771E-02  0.1468514E+00
         21   -1    0    0  503  502  0.00000000000E+00  0.00000000000E+00  0.67378410127E+02  0.67378410127E+02  0.00000000000E+00 0.  1.
         -2   -1    0    0    0  501 -0.00000000000E+00 -0.00000000000E+00 -0.97526416203E+01  0.97526416203E+01  0.00000000000E+00 0.  1.
         21    1    1    2  503  501  0.15126610826E+02 -0.19936883453E+02  0.37165469273E+02  0.44805867732E+02  0.00000000000E+00 0.  1.
         -2    1    1    2    0  502 -0.15126610826E+02  0.19936883453E+02  0.20460299234E+02  0.32325184015E+02  0.00000000000E+00 0.  1.
</event>
<event>
 4    1  0.1643710E+006  0.4405484E+02  0.7546771E-02  0.1326234E+00
         21   -1    0    0  503  502  0.00000000000E+00  0.00000000000E+00  0.29939192047E+01  0.29939192047E+01  0.00000000000E+00 0.  1.
          2   -1    0    0  502    0 -0.00000000000E+00 -0.00000000000E+00 -0.15445714735E+04  0.15445714735E+04  0.00000000000E+00 0.  1.
         21    1    1    2  503  501  0.44054558970E+02 -0.15671650250E+00 -0.18134112487E+03  0.18661573432E+03  0.00000000000E+00 0.  1.
          2    1    1    2  501    0 -0.44054558970E+02  0.15671650250E+00 -0.13602364294E+04  0.13609496583E+04  0.00000000000E+00 0.  1.
</event>
<event>
 4    1  0.1643710E+006  0.2369207E+02  0.7546771E-02  0.1483986E+00
         21   -1    0    0  503  502  0.00000000000E+00  0.00000000000E+00  0.34215609882E+02  0.34215609882E+02  0.00000000000E+00 0.  1.
         -2   -1    0    0    0  501 -0.00000000000E+00 -0.00000000000E+00 -0.22684215830E+02  0.22684215830E+02  0.00000000000E+00 0.  1.
         21    1    1    2  503  501 -0.13137351861E+02 -0.19716092677E+02  0.20733719914E+02  0.31483352202E+02  0.00000000000E+00 0.  1.
         -2    1    1    2    0  502  0.13137351861E+02  0.19716092677E+02 -0.92023258621E+01  0.25416473509E+02  0.00000000000E+00 0.  1.
</event>
<event>
 4    1  0.1643710E+006  0.2336696E+02  0.7546771E-02  0.1487941E+00
          1   -1    0    0  502    0 -0.00000000000E+00  0.00000000000E+00  0.17103352062E+04  0.17103352062E+04  0.00000000000E+00 0.  1.
         21   -1    0    0  503  502  0.00000000000E+00 -0.00000000000E+00 -0.81153424305E+00  0.81153424305E+00  0.00000000000E+00 0. -1.
         21    1    1    2  503  501  0.17613113204E+02 -0.15355551138E+02  0.18839353341E+03  0.18983713582E+03  0.00000000000E+00 0. -1.
          1    1    1    2  501    0 -0.17613113204E+02  0.15355551138E+02  0.15211301385E+04  0.15213096046E+04  0.00000000000E+00 0.  1.
</event>
<event>
 4    1  0.1643710E+006  0.2236073E+02  0.7546771E-02  0.1500685E+00
         21   -1    0    0  503  502  0.00000000000E+00  0.00000000000E+00  0.26811210213E+03  0.26811210213E+03  0.00000000000E+00 0. -1.
         -2   -1    0    0    0  501 -0.00000000000E+00 -0.00000000000E+00 -0.97254251966E+01  0.97254251966E+01  0.00000000000E+00 0. -1.
         21    1    1    2  503  501 -0.17903275276E+02  0.13396832312E+02  0.25408469423E+03  0.25506672504E+03  0.00000000000E+00 0. -1.
         -2    1    1    2    0  502  0.17903275276E+02 -0.13396832312E+02  0.43019827052E+01  0.22770802287E+02  0.00000000000E+00 0. -1.
</event>
<event>
 4    1  0.1643710E+006  0.2619978E+02  0.7546771E-02  0.1455816E+00
          1   -1    0    0  503    0 -0.00000000000E+00  0.00000000000E+00  0.23279135927E+04  0.23279135927E+04  0.00000000000E+00 0.  1.
         21   -1    0    0  501  502  0.00000000000E+00 -0.00000000000E+00 -0.35631374123E+00  0.35631374123E+00  0.00000000000E+00 0.  1.
         21    1    1    2  503  502 -0.25939881603E+02 -0.36811468240E+01  0.68035118996E+03  0.68085546923E+03  0.00000000000E+00 0.  1.
          1    1    1    2  501    0  0.25939881603E+02  0.36811468240E+01  0.16472060890E+04  0.16474144372E+04  0.00000000000E+00 0.  1.
</event>
<event>
 4    1  0.1643710E+006  0.4924232E+02  0.7546771E-02  0.1301491E+00
         21   -1    0    0  501  502  0.00000000000E+00  0.00000000000E+00  0.29962747769E+01  0.29962747769E+01  0.00000000000E+00 0.  1.
          2   -1    0    0  503    0 -0.00000000000E+00 -0.00000000000E+00 -0.81106861501E+03  0.81106861501E+03  0.00000000000E+00 0.  1.
         21    1    1    2  503  502 -0.45750354156E+02  0.18212944316E+02 -0.38488799564E+03  0.38802522525E+03  0.00000000000E+00 0.  1.
          2    1    1    2  501    0  0.45750354156E+02 -0.18212944316E+02 -0.42318434459E+03  0.42603966453E+03  0.00000000000E+00 0.  1.
</event>
<event>
 4    1  0.1643710E+006  0.2649150E+02  0.7546771E-02  0.1452784E+00
         21   -1    0    0  501  502  0.00000000000E+00  0.00000000000E+00  0.17698717393E+03  0.17698717393E+03  0.00000000000E+00 0. -1.
          1   -1    0    0  503    0 -0.00000000000E+00 -0.00000000000E+00 -0.87009061697E+01  0.87009061697E+01  0.00000000000E+00 0.  1.
         21    1    1    2  503  502  0.18851216888E+02  0.18612662255E+02  0.15263855856E+03  0.15492039612E+03  0.00000000000E+00 0. -1.
          1    1    1    2  501    0 -0.18851216888E+02 -0.18612662255E+02  0.15647709201E+02  0.30767683982E+02  0.00000000000E+00 0.  1.
</event>
<event>
 4    1  0.1643710E+006  0.3737538E+02  0.7546771E-02  0.1364593E+00
         -1   -1    0    0    0  501 -0.00000000000E+00  0.00000000000E+00  0.59656099325E+03  0.59656099325E+03  0.00000000000E+00 0.  1.
         21   -1    0    0  501  502  0.00000000000E+00 -0.00000000000E+00 -0.11988774343E+03  0.11988774343E+03  0.00000000000E+00 0. -1.
         21    1    1    2  503  502  0.15795462676E+02  0.33873618798E+02 -0.11637211509E+03  0.12222678864E+03  0.00000000000E+00 0. -1.
         -1    1    1    2    0  503 -0.15795462676E+02 -0.33873618798E+02  0.59304536491E+03  0.59422194804E+03  0.00000000000E+00 0.  1.
</event>
<event>
 4    1  0.1643710E+006  0.2757098E+02  0.7546771E-02  0.1441955E+00
         21   -1    0    0  501  502  0.00000000000E+00  0.00000000000E+00  0.38864793458E+03  0.38864793458E+03  0.00000000000E+00 0.  1.
         -1   -1    0    0    0  501 -0.00000000000E+00 -0.00000000000E+00 -0.13186236259E+02  0.13186236259E+02  0.00000000000E+00 0. -1.
         21    1    1    2  503  502  0.31378065001E+01  0.27391843161E+02  0.37314919548E+03  0.37416638143E+03  0.00000000000E+00 0.  1.
         -1    1    1    2    0  503 -0.31378065001E+01 -0.27391843161E+02  0.23125028367E+01  0.27667789409E+02  0.00000000000E+00 0. -1.
</event>
<event>
 4    1  0.1643710E+006  0.3274717E+02  0.7546771E-02  0.1397133E+00
         21   -1    0    0  501  502  0.00000000000E+00  0.00000000000E+00  0.38969302715E+01  0.38969302715E+01  0.00000000000E+00 0.  1.
         -2   -1    0    0    0  501 -0.00000000000E+00 -0.00000000000E+00 -0.77284034134E+03  0.77284034134E+03  0.00000000000E+00 0. -1.
         21    1    1    2  503  502 -0.86952009706E+00 -0.32735619430E+02 -0.72824251928E+02  0.79848284349E+02  0.00000000000E+00 0.  1.
         -2    1    1    2    0  503  0.86952009706E+00  0.32735619430E+02 -0.69611915914E+03  0.69688898726E+03  0.00000000000E+00 0. -1.
</event>
<event>
 4    1  0.1643710E+006  0.2588112E+02  0.7546771E-02  0.1459183E+00
         21   -1    0    0  501  502  0.00000000000E+00  0.00000000000E+00  0.74506500631E+01  0.74506500631E+01  0.00000000000E+00 0. -1.
         -1   -1    0    0    0  501 -0.00000000000E+00 -0.00000000000E+00 -0.10743426946E+03  0.10743426946E+03  0.00000000000E+00 0. -1.
         21    1    1    2  503  502  0.18499914232E+02  0.18099325821E+02 -0.26787219797E+02  0.37247651822E+02  0.00000000000E+00 0. -1.
         -1    1    1    2    0  503 -0.18499914232E+02 -0.18099325821E+02 -0.73196399600E+02  0.77637267702E+02  0.00000000000E+00 0. -1.
</event>
<event>
 4    1  0.1643710E+006  0.2321795E+02  0.7546771E-02  0.1489779E+00
         -2   -1    0    0    0  501 -0.00000000000E+00  0.00000000000E+00  0.48844864358E+03  0.48844864358E+03  0.00000000000E+00 0.  1.
         21   -1    0    0  503  502  0.00000000000E+00 -0.00000000000E+00 -0.37164370438E+01  0.37164370438E+01  0.00000000000E+00 0. -1.
         21    1    1    2  503  501 -0.14448691001E+02 -0.18174386354E+02  0.36032487435E+02  0.42865057352E+02  0.00000000000E+00 0. -1.
         -2    1    1    2    0  502  0.14448691001E+02  0.18174386354E+02  0.44869971910E+03  0.44930002327E+03  0.00000000000E+00 0.  1.
</event>
<event>
 4    1  0.1643710E+006  0.2364742E+02  0.7546771E-02  0.1484525E+00
         21   -1    0    0  503  502  0.00000000000E+00  0.00000000000E+00  0.92233357693E+01  0.92233357693E+01  0.00000000000E+00 0.  1.
          1   -1    0    0  502    0 -0.00000000000E+00 -0.00000000000E+00 -0.16077333841E+04  0.16077333841E+04  0.00000000000E+00 0. -1.
         21    1    1    2  503  501  0.28412401590E+01  0.23476111096E+02 -0.61673296949E+01  0.24438420436E+02  0.00000000000E+00 0.  1.
          1    1    1    2  501    0 -0.28412401590E+01 -0.23476111096E+02 -0.15923427186E+04  0.15925182994E+04  0.00000000000E+00 0. -1.
</event>
<event>
 4    1  0.1643710E+006  0.2154037E+02  0.7546771E-02  0.1511688E+00
         21   -1    0    0  503  502  0.00000000000E+00  0.00000000000E+00  0.59312389589E+02  0.59312389589E+02  0.00000000000E+00 0.  1.
          2   -1    0    0  502    0 -0.00000000000E+00 -0.00000000000E+00 -0.13141663019E+02  0.13141663019E+02  0.00000000000E+00 0.  1.
         21    1    1    2  503  501 -0.44427513193E+01 -0.21077223957E+02  0.46132553934E+02  0.50913651819E+02  0.00000000000E+00 0.  1.
          2    1    1    2  501    0  0.44427513193E+01  0.21077223957E+02  0.38172635666E-01  0.21540400790E+02  0.00000000000E+00 0.  1.
</event>
<event>
 4    1  0.1643710E+006  0.3054398E+02  0.7546771E-02  0.1414927E+00
          2   -1    0    0  503    0 -0.00000000000E+00  0.00000000000E+00  0.78603230265E+03  0.78603230265E+03  0.00000000000E+00 0.  1.
         21   -1    0    0  501  502  0.00000000000E+00 -0.00000000000E+00 -0.29553403909E+02  0.29553403909E+02  0.00000000000E+00 0.  1.
         21    1    1    2  503  502  0.29614197295E+02 -0.74789213564E+01 -0.21280829898E+02  0.37226451177E+02  0.00000000000E+00 0.  1.
          2    1    1    2  501    0 -0.29614197295E+02  0.74789213564E+01  0.77775972864E+03  0.77835925538E+03  0.00000000000E+00 0.  1.
</event>
<event>
 4    1  0.1643710E+006  0.2068120E+02  0.7546771E-02  0.1523866E+00
          2   -1    0    0  502    0 -0.00000000000E+00  0.00000000000E+00  0.11261348105E+04  0.11261348105E+04  0.00000000000E+00 0.  1.
         21   -1    0    0  503  502  0.00000000000E+00 -0.00000000000E+00 -0.36119190485E+01  0.36119190485E+01  0.00000000000E+00 0. -1.
         21    1    1    2  503  501  0.20045834028E+02  0.50868980374E+01  0.26911942603E+02  0.33940604711E+02  0.00000000000E+00 0. -1.
          2    1    1    2  501    0 -0.20045834028E+02 -0.50868980374E+01  0.10956109489E+04  0.10958061249E+04  0.00000000000E+00 0.  1.
</event>
<event>
 4    1  0.1643710E+006  0.5175497E+02  0.7546771E-02  0.1290738E+00
          3   -1    0    0  502    0 -0.00000000000E+00  0.00000000000E+00  0.14559224118E+03  0.14559224118E+03  0.00000000000E+00 0. -1.
         21   -1    0    0  503  502  0.00000000000E+00 -0.00000000000E+00 -0.60252978332E+02  0.60252978332E+02  0.00000000000E+00 0.  1.
         21    1    1    2  503  501  0.51671891462E+02  0.29313851470E+01 -0.43112357706E+02  0.67359132812E+02  0.00000000000E+00 0.  1.
          3    1    1    2  501    0 -0.51671891462E+02 -0.29313851470E+01  0.12845162055E+03  0.13848608670E+03  0.00000000000E+00 0. -1.
</event>
<event>
 4    1  0.1643710E+006  0.2517079E+02  0.7546771E-02  0.1466902E+00
         21   -1    0    0  501  502  0.00000000000E+00  0.00000000000E+00  0.79942102171E+01  0.79942102171E+01  0.00000000000E+00 0. -1.
          1   -1    0    0  503    0 -0.00000000000E+00 -0.00000000000E+00 -0.62784468788E+03  0.62784468788E+03  0.00000000000E+00 0. -1.
         21    1    1    2  503  502  0.75946354215E+01 -0.23997707477E+02 -0.12748075589E+02  0.28214923048E+02  0.00000000000E+00 0. -1.
          1    1    1    2  501    0 -0.75946354215E+01  0.23997707477E+02 -0.60710240207E+03  0.60762397505E+03  0.00000000000E+00 0. -1.
</event>
<event>
 4    1  0.1643710E+006  0.3159970E+02  0.7546771E-02  0.1406186E+00
         21   -1    0    0  501  502  0.00000000000E+00  0.00000000000E+00  0.54721153834E+01  0.54721153834E+01  0.00000000000E+00 0.  1.
          2   -1    0    0  503    0 -0.00000000000E+00 -0.00000000000E+00 -0.19636192642E+03  0.19636192642E+03  0.00000000000E+00 0. -1.
         21    1    1    2  503  502  0.23568402327E+02 -0.21049258197E+02 -0.68610536117E+02  0.75537715912E+02  0.00000000000E+00 0.  1.
          2    1    1    2  501    0 -0.23568402327E+02  0.21049258197E+02 -0.12227927492E+03  0.12629632589E+03  0.00000000000E+00 0. -1.
</event>
<event>
 4    1  0.1643710E+006  0.2552520E+02  0.7546771E-02  0.1463013E+00
         -1   -1    0    0    0  501 -0.00000000000E+00  0.00000000000E+00  0.12182418999E+02  0.12182418999E+02  0.00000000000E+00 0.  1.
         21   -1    0    0  503  502  0.00000000000E+00 -0.00000000000E+00 -0.62937916720E+02  0.62937916720E+02  0.00000000000E+00 0.  1.
         21    1    1    2  503  501  0.19921032927E+02  0.15958963899E+02 -0.39936723810E+02  0.47397025121E+02  0.00000000000E+00 0.  1.
         -1    1    1    2    0  502 -0.19921032927E+02 -0.15958963899E+02 -0.10818773911E+02  0.27723310599E+02  0.00000000000E+00 0.  1.
</event>
<event>
 4    1  0.1643710E+006  0.2002878E+02  0.7546771E-02  0.1533596E+00
          3   -1    0    0  503    0 -0.00000000000E+00  0.00000000000E+00  0.10593181144E+02  0.10593181144E+02  0.00000000000E+00 0. -1.
         21   -1    0    0  501  502  0.00000000000E+00 -0.00000000000E+00 -0.45507210701E+02  0.45507210701E+02  0.00000000000E+00 0. -1.
         21    1    1    2  503  502 -0.16785253691E+02  0.10927362197E+02 -0.28948993233E+02  0.35202218613E+02  0.00000000000E+00 0. -1.
          3    1    1    2  501    0  0.16785253691E+02 -0.10927362197E+02 -0.59650363241E+01  0.20898173232E+02  0.00000000000E+00 0. -1.
</event>
<event>
 4    1  0.1643710E+006  0.2058967E+02  0.7546771E-02  0.1525205E+00
         21   -1    0    0  503  502  0.00000000000E+00  0.00000000000E+00  0.40409723965E+02  0.40409723965E+02  0.00000000000E+00 0.  1.
          2   -1    0    0  502    0 -0.00000000000E+00 -0.00000000000E+00 -0.45266544321E+03  0.45266544321E+03  0.00000000000E+00 0.  1.
         21    1    1    2  503  501  0.88417217009E+00 -0.20570675232E+02  0.37536119081E+02  0.42812319203E+02  0.00000000000E+00 0.  1.
          2    1    1    2  501    0 -0.88417217009E+00  0.20570675232E+02 -0.44979183832E+03  0.45026284797E+03  0.00000000000E+00 0.  1.
</event>
<event>
 4    1  0.1643710E+006  0.2904516E+02  0.7546771E-02  0.1428079E+00
         21   -1    0    0  503  502  0.00000000000E+00  0.00000000000E+00  0.23937107405E+02  0.23937107405E+02  0.00000000000E+00 0.  1.
         -3   -1    0    0    0  501 -0.00000000000E+00 -0.00000000000E+00 -0.19011932073E+03  0.19011932073E+03  0.00000000000E+00 0.  1.
         21    1    1    2  503  501 -0.21566040573E+02  0.19455772816E+02  0.13508938113E+02  0.32032992537E+02  0.00000000000E+00 0.  1.
         -3    1    1    2    0  502  0.21566040573E+02 -0.19455772816E+02 -0.17969115143E+03  0.18202343559E+03  0.00000000000E+00 0.  1.
</event>
<event>
 4    1  0.1643710E+006  0.6344178E+02  0.7546771E-02  0.1248567E+00
         -4   -1    0    0    0  501 -0.00000000000E+00  0.00000000000E+00  0.49536124388E+01  0.49536124388E+01  0.00000000000E+00 0.  1.
         21   -1    0    0  503  502  0.00000000000E+00 -0.00000000000E+00 -0.10175790053E+04  0.10175790053E+04  0.00000000000E+00 0.  1.
         21    1    1    2  503  501 -0.58676126456E+02 -0.24124100163E+02 -0.27679665937E+03  0.28397403167E+03  0.00000000000E+00 0.  1.
         -4    1    1    2    0  502  0.58676126456E+02  0.24124100163E+02 -0.73582873351E+03  0.73855858608E+03  0.00000000000E+00 0.  1.
</event>
<event>
 4    1  0.1643710E+006  0.2672935E+02  0.7546771E-02  0.1450346E+00
          2   -1    0    0  503    0 -0.00000000000E+00  0.00000000000E+00  0.10123317972E+04  0.10123317972E+04  0.00000000000E+00 0.  1.
         21   -1    0    0  501  502  0.00000000000E+00 -0.00000000000E+00 -0.31195630562E+01  0.31195630562E+01  0.00000000000E+00 0.  1.
         21    1    1    2  503  502  0.24794281276E+02 -0.99850895170E+01  0.57990817015E+02  0.63854469340E+02  0.00000000000E+00 0.  1.
          2    1    1    2  501    0 -0.24794281276E+02  0.99850895170E+01  0.95122141716E+03  0.95159689094E+03  0.00000000000E+00 0.  1.
</event>
<event>
 4    1  0.1643710E+006  0.2313675E+02  0.7546771E-02  0.1490788E+00
          4   -1    0    0  503    0 -0.00000000000E+00  0.00000000000E+00  0.88481562823E+02  0.88481562823E+02  0.00000000000E+00 0.  1.
         21   -1    0    0  501  502  0.00000000000E+00 -0.00000000000E+00 -0.14348769734E+02  0.14348769734E+02  0.00000000000E+00 0.  1.
         21    1    1    2  503  502 -0.11077958899E+02  0.20312267712E+02 -0.20349730904E+01  0.23226073892E+02  0.00000000000E+00 0.  1.
          4    1    1    2  501    0  0.11077958899E+02 -0.20312267712E+02  0.76167766179E+02  0.79604258665E+02  0.00000000000E+00 0.  1.
</event>
<event>
 4    1  0.1643710E+006  0.2696368E+02  0.7546771E-02  0.1447973E+00
         21   -1    0    0  503  502  0.00000000000E+00  0.00000000000E+00  0.36043671299E+02  0.36043671299E+02  0.00000000000E+00 0.  1.
         -1   -1    0    0    0  501 -0.00000000000E+00 -0.00000000000E+00 -0.20191764899E+02  0.20191764899E+02  0.00000000000E+00 0.  1.
         21    1    1    2  503  501 -0.16359306051E+02  0.21433923373E+02  0.70261143144E+01  0.27864067327E+02  0.00000000000E+00 0.  1.
         -1    1    1    2    0  502  0.16359306051E+02 -0.21433923373E+02  0.88257920856E+01  0.28371368870E+02  0.00000000000E+00 0.  1.
</event>
<event>
 4    1  0.1643710E+006  0.3964228E+02  0.7546771E-02  0.1350595E+00
          2   -1    0    0  503    0 -0.00000000000E+00  0.00000000000E+00  0.20457260315E+04  0.20457260315E+04  0.00000000000E+00 0. -1.
         21   -1    0    0  501  502  0.00000000000E+00 -0.00000000000E+00 -0.11281919587E+03  0.11281919587E+03  0.00000000000E+00 0.  1.
         21    1    1    2  503  502  0.38916838022E+02 -0.75491722349E+01 -0.10913850710E+03  0.11611513259E+03  0.00000000000E+00 0.  1.
          2    1    1    2  501    0 -0.38916838022E+02  0.75491722349E+01  0.20420453427E+04  0.20424300948E+04  0.00000000000E+00 0. -1.
</event>
<event>
 4    1  0.1643710E+006  0.2759760E+02  0.7546771E-02  0.1441696E+00
          1   -1    0    0  503    0 -0.00000000000E+00  0.00000000000E+00  0.17556018633E+04  0.17556018633E+04  0.00000000000E+00 0. -1.
         21   -1    0    0  501  502  0.00000000000E+00 -0.00000000000E+00 -0.24860836106E+01  0.24860836106E+01  0.00000000000E+00 0. -1.
         21    1    1    2  503  502  0.12344988635E+02 -0.24682556161E+02  0.77885672584E+02  0.82630535015E+02  0.00000000000E+00 0. -1.
          1    1    1    2  501    0 -0.12344988635E+02  0.24682556161E+02  0.16752301071E+04  0.16754574119E+04  0.00000000000E+00 0. -1.
</event>
<event>
 4    1  0.1643710E+006  0.4560457E+02  0.7546771E-02  0.1318444E+00
          2   -1    0    0  502    0 -0.00000000000E+00  0.00000000000E+00  0.20112506651E+04  0.20112506651E+04  0.00000000000E+00 0.  1.
         21   -1    0    0  503  502  0.00000000000E+00 -0.00000000000E+00 -0.26771495307E+01  0.26771495307E+01  0.00000000000E+00 0. -1.
         21    1    1    2  503  501  0.40960835725E+02 -0.20049611809E+02  0.21541449932E+03  0.22018897228E+03  0.00000000000E+00 0. -1.
          2    1    1    2  501    0 -0.40960835725E+02  0.20049611809E+02  0.17931590163E+04  0.17937388424E+04  0.00000000000E+00 0.  1.
</event>
<event>
 4    1  0.1643710E+006  0.4228505E+02  0.7546771E-02  0.1335592E+00
         -2   -1    0    0    0  501 -0.00000000000E+00  0.00000000000E+00  0.46608996513E+02  0.46608996513E+02  0.00000000000E+00 0.  1.
         21   -1    0    0  503  502  0.00000000000E+00 -0.00000000000E+00 -0.20883576864E+03  0.20883576864E+03  0.00000000000E+00 0. -1.
         21    1    1    2  503  501  0.13334819622E+02  0.40127400225E+02 -0.19650999322E+03  0.20100796775E+03  0.00000000000E+00 0. -1.
         -2    1    1    2    0  502 -0.13334819622E+02 -0.40127400225E+02  0.34283221093E+02  0.54436797404E+02  0.00000000000E+00 0.  1.
</event>
<event>
 4    1  0.1643710E+006  0.2295963E+02  0.7546771E-02  0.1493006E+00
         -2   -1    0    0    0  501 -0.00000000000E+00  0.00000000000E+00  0.21223732749E+03  0.21223732749E+03  0.00000000000E+00 0.  1.
         21   -1    0    0  501  502  0.00000000000E+00 -0.00000000000E+00 -0.88309438553E+01  0.88309438553E+01  0.00000000000E+00 0. -1.
         21    1    1    2  503  502  0.69489827106E+00  0.22949116376E+02  0.79936789102E+01  0.24311390922E+02  0.00000000000E+00 0. -1.
         -2    1    1    2    0  503 -0.69489827106E+00 -0.22949116376E+02  0.19541270473E+03  0.19675688042E+03  0.00000000000E+00 0.  1.
</event>
<event>
 4    1  0.1643710E+006  0.2012538E+02  0.7546771E-02  0.1532128E+00
         -2   -1    0    0    0  501 -0.00000000000E+00  0.00000000000E+00  0.85370669241E+03  0.85370669241E+03  0.00000000000E+00 0. -1.
         21   -1    0    0  501  502  0.00000000000E+00 -0.00000000000E+00 -0.51753842759E+01  0.51753842759E+01  0.00000000000E+00 0.  1.
         21    1    1    2  503  502  0.19140599375E+02  0.62184011423E+01  0.14981549253E+02  0.25089397665E+02  0.00000000000E+00 0.  1.
         -2    1    1    2    0  503 -0.19140599375E+02 -0.62184011423E+01  0.83354975889E+03  0.83379267902E+03  0.00000000000E+00 0. -1.
</event>
<event>
 4    1  0.1643710E+006  0.2185486E+02  0.7546771E-02  0.1507401E+00
         21   -1    0    0  503  502  0.00000000000E+00  0.00000000000E+00  0.38379473971E+01  0.38379473971E+01  0.00000000000E+00 0. -1.
         -1   -1    0    0    0  501 -0.00000000000E+00 -0.00000000000E+00 -0.38521068379E+03  0.38521068379E+03  0.00000000000E+00 0. -1.
         21    1    1    2  503  501 -0.18792543987E+02  0.11156840709E+02 -0.30640192401E+02  0.37635836572E+02  0.00000000000E+00 0. -1.
         -1    1    1    2    0  502  0.18792543987E+02 -0.11156840709E+02 -0.35073254400E+03  0.35141279462E+03  0.00000000000E+00 0. -1.
</event>
<event>
 4    1  0.1643710E+006  0.2126387E+02  0.7546771E-02  0.1515531E+00
          1   -1    0    0  503    0 -0.00000000000E+00  0.00000000000E+00  0.11626343324E+03  0.11626343324E+03  0.00000000000E+00 0.  1.
         21   -1    0    0  501  502  0.00000000000E+00 -0.00000000000E+00 -0.57384078283E+03  0.57384078283E+03  0.00000000000E+00 0. -1.
         21    1    1    2  503  502 -0.15033136823E+01 -0.21210666873E+02 -0.57266955166E+03  0.57306419164E+03  0.00000000000E+00 0. -1.
          1    1    1    2  501    0  0.15033136823E+01  0.21210666873E+02  0.11509220207E+03  0.11704002443E+03  0.00000000000E+00 0.  1.
</event>
<event>
 4    1  0.1643710E+006  0.2537069E+02  0.7546771E-02  0.1464699E+00
          2   -1    0    0  502    0 -0.00000000000E+00  0.00000000000E+00  0.26681700346E+03  0.26681700346E+03  0.00000000000E+00 0.  1.
         21   -1    0    0  503  502  0.00000000000E+00 -0.00000000000E+00 -0.71712498389E+01  0.71712498389E+01  0.00000000000E+00 0.  1.
         21    1    1    2  503  501 -0.13961448875E+02  0.21183717605E+02  0.18225219917E+02  0.31238287201E+02  0.00000000000E+00 0.  1.
          2    1    1    2  501    0  0.13961448875E+02 -0.21183717605E+02  0.24142053370E+03  0.24274996610E+03  0.00000000000E+00 0.  1.
</event>
<event>
 4    1  0.1643710E+006  0.2517229E+02  0.7546771E-02  0.1466885E+00
         21   -1    0    0  503  502  0.00000000000E+00  0.00000000000E+00  0.94393613313E+02  0.94393613313E+02  0.00000000000E+00 0. -1.
          4   -1    0    0  502    0 -0.00000000000E+00 -0.00000000000E+00 -0.36897620947E+02  0.36897620947E+02  0.00000000000E+00 0. -1.
         21    1    1    2  503  501 -0.25022586131E+02 -0.27412591979E+01  0.88122629561E+02  0.91647379446E+02  0.00000000000E+00 0. -1.
          4    1    1    2  501    0  0.25022586131E+02  0.27412591979E+01 -0.30626637194E+02  0.39643854814E+02  0.00000000000E+00 0. -1.
</event>
<event>
 4    1  0.1643710E+006  0.2626373E+02  0.7546771E-02  0.1455148E+00
         21   -1    0    0  501  502  0.00000000000E+00  0.00000000000E+00  0.12027148056E+02  0.12027148056E+02  0.00000000000E+00 0.  1.
         -4   -1    0    0    0  501 -0.00000000000E+00 -0.00000000000E+00 -0.24083381021E+03  0.24083381021E+03  0.00000000000E+00 0. -1.
         21    1    1    2  503  502 -0.25306427826E+02 -0.70262406300E+01 -0.40490128132E+01  0.26574007065E+02  0.00000000000E+00 0.  1.
         -4    1    1    2    0  503  0.25306427826E+02  0.70262406300E+01 -0.22475764934E+03  0.22628695120E+03  0.00000000000E+00 0. -1.
</event>
<event>
 4    1  0.1643710E+006  0.2247964E+02  0.7546771E-02  0.1499138E+00
         21   -1    0    0  501  502  0.00000000000E+00  0.00000000000E+00  0.21657122781E+02  0.21657122781E+02  0.00000000000E+00 0.  1.
          1   -1    0    0  503    0 -0.00000000000E+00 -0.00000000000E+00 -0.66887270566E+02  0.66887270566E+02  0.00000000000E+00 0. -1.
         21    1    1    2  503  502 -0.22462639855E+02 -0.87419143977E+00  0.13109963418E+02  0.26023173149E+02  0.00000000000E+00 0.  1.
          1    1    1    2  501    0  0.22462639855E+02  0.87419143977E+00 -0.58340111202E+02  0.62521220198E+02  0.00000000000E+00 0. -1.
</event>
<event>
 4    1  0.1643710E+006  0.4537122E+02  0.7546771E-02  0.1319594E+00
         21   -1    0    0  501  502  0.00000000000E+00  0.00000000000E+00  0.19294955197E+02  0.19294955197E+02  0.00000000000E+00 0.  1.
          4   -1    0    0  503    0 -0.00000000000E+00 -0.00000000000E+00 -0.11439036070E+03  0.11439036070E+03  0.00000000000E+00 0.  1.
         21    1    1    2  503  502 -0.77914915325E+01 -0.44697207217E+02 -0.64892130419E+02  0.79180403280E+02  0.00000000000E+00 0.  1.
          4    1    1    2  501    0  0.77914915325E+01  0.44697207217E+02 -0.30203275080E+02  0.54504912612E+02  0.00000000000E+00 0.  1.
</event>
<event>
 4    1  0.1643710E+006  0.2078512E+02  0.7546771E-02  0.1522355E+00
          2   -1    0    0  503    0 -0.00000000000E+00  0.00000000000E+00  0.71313792890E+01  0.71313792890E+01  0.00000000000E+00 0.  1.
         21   -1    0    0  501  502  0.00000000000E+00 -0.00000000000E+00 -0.61051048974E+02  0.61051048974E+02  0.00000000000E+00 0.  1.
         21    1    1    2  503  502 -0.20496102608E+02 -0.34541442489E+01 -0.29953306899E+02  0.36458495975E+02  0.00000000000E+00 0.  1.
          2    1    1    2  501    0  0.20496102608E+02  0.34541442489E+01 -0.23966362786E+02  0.31723932288E+02  0.00000000000E+00 0.  1.
</event>
<event>
 4    1  0.1643710E+006  0.2478960E+02  0.7546771E-02  0.1471171E+00
          1   -1    0    0  503    0 -0.00000000000E+00  0.00000000000E+00  0.22460850700E+04  0.22460850700E+04  0.00000000000E+00 0.  1.
         21   -1    0    0  501  502  0.00000000000E+00 -0.00000000000E+00 -0.27611588123E+00  0.27611588123E+00  0.00000000000E+00 0. -1.
         21    1    1    2  503  502 -0.79777232359E+01  0.23470840179E+02  0.10156487219E+04  0.10159512049E+04  0.00000000000E+00 0. -1.
          1    1    1    2  501    0  0.79777232359E+01 -0.23470840179E+02  0.12301602322E+04  0.12304099809E+04  0.00000000000E+00 0.  1.
</event>
<event>
 4    1  0.1643710E+006  0.2539483E+02  0.7546771E-02  0.1464435E+00
         21   -1    0    0  503  502  0.00000000000E+00  0.00000000000E+00  0.28278522897E+03  0.28278522897E+03  0.00000000000E+00 0. -1.
         -3   -1    0    0    0  501 -0.00000000000E+00 -0.00000000000E+00 -0.22805990544E+01  0.22805990544E+01  0.00000000000E+00 0. -1.
         21    1    1    2  503  501  0.23356256659E+02 -0.99690947910E+01  0.14108762254E+03  0.14335485625E+03  0.00000000000E+00 0. -1.
         -3    1    1    2    0  502 -0.23356256659E+02  0.99690947910E+01  0.13941700738E+03  0.14171097178E+03  0.00000000000E+00 0. -1.
</event>
<event>
 4    1  0.1643710E+006  0.2024936E+02  0.7546771E-02  0.1530257E+00
         21   -1    0    0  503  502  0.00000000000E+00  0.00000000000E+00  0.14285438490E+04  0.14285438490E+04  0.00000000000E+00 0.  1.
          1   -1    0    0  502    0 -0.00000000000E+00 -0.00000000000E+00 -0.53620716687E+01  0.53620716687E+01  0.00000000000E+00 0.  1.
         21    1    1    2  503  501  0.49058148663E+00  0.20243412194E+02  0.14090907367E+04  0.14092362260E+04  0.00000000000E+00 0.  1.
          1    1    1    2  501    0 -0.49058148663E+00 -0.20243412194E+02  0.14091040552E+02  0.24669694593E+02  0.00000000000E+00 0.  1.
</event>
<event>
 4    1  0.1643710E+006  0.3521082E+02  0.7546771E-02  0.1379087E+00
         21   -1    0    0  501  502  0.00000000000E+00  0.00000000000E+00  0.87917762270E+01  0.87917762270E+01  0.00000000000E+00 0. -1.
          1   -1    0    0  503    0 -0.00000000000E+00 -0.00000000000E+00 -0.45944434081E+03  0.45944434081E+03  0.00000000000E+00 0. -1.
         21    1    1    2  503  502 -0.15511921028E+02  0.31609846003E+02 -0.30421411147E+02  0.46532400695E+02  0.00000000000E+00 0. -1.
          1    1    1    2  501    0  0.15511921028E+02 -0.31609846003E+02 -0.42023115343E+03  0.42170371634E+03  0.00000000000E+00 0. -1.
</event>
<event>
 4    1  0.1643710E+006  0.2730865E+02  0.7546771E-02  0.1444532E+00
         21   -1    0    0  503  502  0.00000000000E+00  0.00000000000E+00  0.16697930092E+03  0.16697930092E+03  0.00000000000E+00 0. -1.
         -3   -1    0    0    0  501 -0.00000000000E+00 -0.00000000000E+00 -0.14808825526E+02  0.14808825526E+02  0.00000000000E+00 0. -1.
         21    1    1    2  503  501 -0.12733825836E+02 -0.24158069104E+02  0.15204623389E+03  0.15447918909E+03  0.00000000000E+00 0. -1.
         -3    1    1    2    0  502  0.12733825836E+02  0.24158069104E+02  0.12424150322E+00  0.27308937351E+02  0.00000000000E+00 0. -1.
</event>
<event>
 4    1  0.1643710E+006  0.2981749E+02  0.7546771E-02  0.1421189E+00
         21   -1    0    0  503  502  0.00000000000E+00  0.00000000000E+00  0.17823671884E+02  0.17823671884E+02  0.00000000000E+00 0. -1.
          4   -1    0    0  502    0 -0.00000000000E+00 -0.00000000000E+00 -0.86719941285E+02  0.86719941285E+02  0.00000000000E+00 0. -1.
         21    1    1    2  503  501  0.29545292600E+02 -0.40197492649E+01 -0.37948363036E+00  0.29819904540E+02  0.00000000000E+00 0. -1.
          4    1    1    2  501    0 -0.29545292600E+02  0.40197492649E+01 -0.68516785770E+02  0.74723708629E+02  0.00000000000E+00 0. -1.
</event>
<event>
 4    1  0.1643710E+006  0.2061906E+02  0.7546771E-02  0.1524774E+00
          3   -1    0    0  503    0 -0.00000000000E+00  0.00000000000E+00  0.31666673313E+02  0.31666673313E+02  0.00000000000E+00 0. -1.
         21   -1    0    0  501  502  0.00000000000E+00 -0.00000000000E+00 -0.15000812240E+02  0.15000812240E+02  0.00000000000E+00 0. -1.
         21    1    1    2  503  502 -0.20590183726E+02  0.10909381899E+01  0.77175957735E+00  0.20633502486E+02  0.00000000000E+00 0. -1.
          3    1    1    2  501    0  0.20590183726E+02 -0.10909381899E+01  0.15894101495E+02  0.26033983067E+02  0.00000000000E+00 0. -1.
</event>
<event>
 4    1  0.1643710E+006  0.2130732E+02  0.7546771E-02  0.1514922E+00
          4   -1    0    0  502    0 -0.00000000000E+00  0.00000000000E+00  0.76294231228E+01  0.76294231228E+01  0.00000000000E+00 0. -1.
         21   -1    0    0  503  502  0.00000000000E+00 -0.00000000000E+00 -0.36159067967E+03  0.36159067967E+03  0.00000000000E+00 0.  1.
         21    1    1    2  503  501 -0.69061528237E+01  0.20157059278E+02 -0.34571771952E+03  0.34637370508E+03  0.00000000000E+00 0.  1.
          4    1    1    2  501    0  0.69061528237E+01 -0.20157059278E+02 -0.82435370328E+01  0.22846397711E+02  0.00000000000E+00 0. -1.
</event>
<event>
 4    1  0.1643710E+006  0.3125242E+02  0.7546771E-02  0.1409016E+00
         -3   -1    0    0    0  501 -0.00000000000E+00  0.00000000000E+00  0.81907987016E+02  0.81907987016E+02  0.00000000000E+00 0. -1.
         21   -1    0    0  501  502  0.00000000000E+00 -0.00000000000E+00 -0.12969862042E+03  0.12969862042E+03  0.00000000000E+00 0.  1.
         21    1    1    2  503  502  0.24858607289E+02  0.18941051238E+02 -0.12471757955E+03  0.12857366926E+03  0.00000000000E+00 0.  1.
         -3    1    1    2    0  503 -0.24858607289E+02 -0.18941051238E+02  0.76926946147E+02  0.83032938175E+02  0.00000000000E+00 0. -1.
</event>
<event>
 4    1  0.1643710E+006  0.2486985E+02  0.7546771E-02  0.1470265E+00
         21   -1    0    0  501  502  0.00000000000E+00  0.00000000000E+00  0.34113079989E+01  0.34113079989E+01  0.00000000000E+00 0. -1.
          1   -1    0    0  503    0 -0.00000000000E+00 -0.00000000000E+00 -0.27448331000E+03  0.27448331000E+03  0.00000000000E+00 0.  1.
         21    1    1    2  503  502 -0.24843062066E+02 -0.11540829017E+01 -0.54582758094E+02  0.59981556510E+02  0.00000000000E+00 0. -1.
          1    1    1    2  501    0  0.24843062066E+02  0.11540829017E+01 -0.21648924391E+03  0.21791306149E+03  0.00000000000E+00 0.  1.
</event>
<event>
 4    1  0.1643710E+006  0.5503629E+02  0.7546771E-02  0.1277699E+00
         21   -1    0    0  503  502  0.00000000000E+00  0.00000000000E+00  0.33283426855E+03  0.33283426855E+03  0.00000000000E+00 0.  1.
         -3   -1    0    0    0  501 -0.00000000000E+00 -0.00000000000E+00 -0.18222687378E+02  0.18222687378E+02  0.00000000000E+00 0.  1.
         21    1    1    2  503  501  0.54975587908E+02  0.25841608319E+01  0.28149629001E+03  0.28682600029E+03  0.00000000000E+00 0.  1.
         -3    1    1    2    0  502 -0.54975587908E+02 -0.25841608319E+01  0.33115291156E+02  0.64230955631E+02  0.00000000000E+00 0.  1.
</event>
<event>
 4    1  0.1643710E+006  0.3180900E+02  0.7546771E-02  0.1404501E+00
         -1   -1    0    0    0  501 -0.00000000000E+00  0.00000000000E+00  0.49842157737E+02  0.49842157737E+02  0.00000000000E+00 0.  1.
         21   -1    0    0  501  502  0.00000000000E+00 -0.00000000000E+00 -0.34436371127E+03  0.34436371127E+03  0.00000000000E+00 0. -1.
         21    1    1    2  503  502 -0.30801486873E+02 -0.79423498470E+01 -0.33846583466E+03  0.33995725282E+03  0.00000000000E+00 0. -1.
         -1    1    1    2    0  503  0.30801486873E+02  0.79423498470E+01  0.43944281124E+02  0.54248616187E+02  0.00000000000E+00 0.  1.
</event>
<event>
 4    1  0.1643710E+006  0.2838897E+02  0.7546771E-02  0.1434133E+00
         21   -1    0    0  503  502  0.00000000000E+00  0.00000000000E+00  0.60742130615E+02  0.60742130615E+02  0.00000000000E+00 0.  1.
         -2   -1    0    0    0  501 -0.00000000000E+00 -0.00000000000E+00 -0.21526582671E+02  0.21526582671E+02  0.00000000000E+00 0.  1.
         21    1    1    2  503  501  0.11085101661E+02  0.26135306716E+02  0.45085861779E+02  0.53279157917E+02  0.00000000000E+00 0.  1.
         -2    1    1    2    0  502 -0.11085101661E+02 -0.26135306716E+02 -0.58703138350E+01  0.28989555369E+02  0.00000000000E+00 0.  1.
</event>
<event>
 4    1  0.1643710E+006  0.2010878E+02  0.7546771E-02  0.1532379E+00
         21   -1    0    0  503  502  0.00000000000E+00  0.00000000000E+00  0.92024349006E+00  0.92024349006E+00  0.00000000000E+00 0.  1.
          2   -1    0    0  502    0 -0.00000000000E+00 -0.00000000000E+00 -0.13401413716E+04  0.13401413716E+04  0.00000000000E+00 0. -1.
         21    1    1    2  503  501  0.14119680824E+02 -0.14317736135E+02 -0.11989074139E+03  0.12156542611E+03  0.00000000000E+00 0.  1.
          2    1    1    2  501    0 -0.14119680824E+02  0.14317736135E+02 -0.12193303867E+04  0.12194961890E+04  0.00000000000E+00 0. -1.
</event>
<event>
 4    1  0.1643710E+006  0.2263710E+02  0.7546771E-02  0.1497106E+00
          3   -1    0    0  502    0 -0.00000000000E+00  0.00000000000E+00  0.46257415719E+02  0.46257415719E+02  0.00000000000E+00 0.  1.
         21   -1    0    0  503  502  0.00000000000E+00 -0.00000000000E+00 -0.11490873816E+02  0.11490873816E+02  0.00000000000E+00 0.  1.
         21    1    1    2  503  501 -0.70567845784E+01 -0.21509065906E+02  0.11909852793E+02  0.25578950688E+02  0.00000000000E+00 0.  1.
          3    1    1    2  501    0  0.70567845784E+01  0.21509065906E+02  0.22856689110E+02  0.32169338846E+02  0.00000000000E+00 0.  1.
</event>
<event>
 4    1  0.1643710E+006  0.2485382E+02  0.7546771E-02  0.1470445E+00
         -1   -1    0    0    0  501 -0.00000000000E+00  0.00000000000E+00  0.58275357543E+02  0.58275357543E+02  0.00000000000E+00 0. -1.
         21   -1    0    0  501  502  0.00000000000E+00 -0.00000000000E+00 -0.15073415419E+02  0.15073415419E+02  0.00000000000E+00 0.  1.
         21    1    1    2  503  502 -0.22844219821E+02  0.97905107945E+01  0.16215962838E+01  0.24906666886E+02  0.00000000000E+00 0.  1.
         -1    1    1    2    0  503  0.22844219821E+02 -0.97905107945E+01  0.41580345840E+02  0.48442106076E+02  0.00000000000E+00 0. -1.
</event>
<event>
 4    1  0.1643710E+006  0.2074129E+02  0.7546771E-02  0.1522991E+00
         21   -1    0    0  501  502  0.00000000000E+00  0.00000000000E+00  0.59463160439E+01  0.59463160439E+01  0.00000000000E+00 0. -1.
         -2   -1    0    0    0  501 -0.00000000000E+00 -0.00000000000E+00 -0.16184796836E+03  0.16184796836E+03  0.00000000000E+00 0.  1.
         21    1    1    2  503  502  0.20738101383E+02  0.36359114110E+00 -0.15562085833E+02  0.25930282740E+02  0.00000000000E+00 0. -1.
         -2    1    1    2    0  503 -0.20738101383E+02 -0.36359114110E+00 -0.14033956648E+03  0.14186400166E+03  0.00000000000E+00 0.  1.
</event>
<event>
 4    1  0.1643710E+006  0.2372579E+02  0.7546771E-02  0.1483580E+00
          1   -1    0    0  503    0 -0.00000000000E+00  0.00000000000E+00  0.16380550664E+02  0.16380550664E+02  0.00000000000E+00 0. -1.
         21   -1    0    0  501  502  0.00000000000E+00 -0.00000000000E+00 -0.16568077216E+03  0.16568077216E+03  0.00000000000E+00 0. -1.
         21    1    1    2  503  502 -0.21902017941E+02 -0.91222120847E+01 -0.15569218375E+03  0.15748958449E+03  0.00000000000E+00 0. -1.
          1    1    1    2  501    0  0.21902017941E+02  0.91222120847E+01  0.63919622521E+01  0.24571738332E+02  0.00000000000E+00 0. -1.
</event>
<event>
 4    1  0.1643710E+006  0.2744632E+02  0.7546771E-02  0.1443176E+00
         -4   -1    0    0    0  501 -0.00000000000E+00  0.00000000000E+00  0.44351090154E+02  0.44351090154E+02  0.00000000000E+00 0. -1.
         21   -1    0    0  503  502  0.00000000000E+00 -0.00000000000E+00 -0.17264818872E+02  0.17264818872E+02  0.00000000000E+00 0. -1.
         21    1    1    2  503  501  0.12625461799E+02  0.24370028749E+02  0.96205970083E+01  0.29083611771E+02  0.00000000000E+00 0. -1.
         -4    1    1    2    0  502 -0.12625461799E+02 -0.24370028749E+02  0.17465674273E+02  0.32532297255E+02  0.00000000000E+00 0. -1.
</event>
<event>
 4    1  0.1643710E+006  0.2419265E+02  0.7546771E-02  0.1478041E+00
         21   -1    0    0  503  502  0.00000000000E+00  0.00000000000E+00  0.76567686113E+01  0.76567686113E+01  0.00000000000E+00 0.  1.
          1   -1    0    0  502    0 -0.00000000000E+00 -0.00000000000E+00 -0.27078079996E+03  0.27078079996E+03  0.00000000000E+00 0.  1.
         21    1    1    2  503  501  0.67700175662E+01  0.23226091578E+02 -0.13619404194E+02  0.27762792339E+02  0.00000000000E+00 0.  1.
          1    1    1    2  501    0 -0.67700175662E+01 -0.23226091578E+02 -0.24950462715E+03  0.25067477623E+03  0.00000000000E+00 0.  1.
</event>
<event>
 4    1  0.1643710E+006  0.2039880E+02  0.7546771E-02  0.1528024E+00
          1   -1    0    0  503    0 -0.00000000000E+00  0.00000000000E+00  0.64453753199E+01  0.64453753199E+01  0.00000000000E+00 0.  1.
         21   -1    0    0  501  502  0.00000000000E+00 -0.00000000000E+00 -0.50519594312E+03  0.50519594312E+03  0.00000000000E+00 0.  1.
         21    1    1    2  503  502 -0.14175905206E+02 -0.14668152273E+02 -0.48829161340E+03  0.48871751625E+03  0.00000000000E+00 0.  1.
          1    1    1    2  501    0  0.14175905206E+02  0.14668152273E+02 -0.10458954406E+02  0.22923802189E+02  0.00000000000E+00 0.  1.
</event>
<event>
 4    1  0.1643710E+006  0.5003972E+02  0.7546771E-02  0.1298000E+00
          4   -1    0    0  502    0 -0.00000000000E+00  0.00000000000E+00  0.11590748836E+03  0.11590748836E+03  0.00000000000E+00 0. -1.
         21   -1    0    0  503  502  0.00000000000E+00 -0.00000000000E+00 -0.21667694327E+03  0.21667694327E+03  0.00000000000E+00 0. -1.
         21    1    1    2  503  501 -0.11710810588E+02  0.48650078368E+02 -0.20816945842E+03  0.21409926816E+03  0.00000000000E+00 0. -1.
          4    1    1    2  501    0  0.11710810588E+02 -0.48650078368E+02  0.10740000350E+03  0.11848516347E+03  0.00000000000E+00 0. -1.
</event>
<event>
 4    1  0.1643710E+006  0.2090604E+02  0.7546771E-02  0.1520611E+00
          2   -1    0    0  502    0 -0.00000000000E+00  0.00000000000E+00  0.29598123552E+03  0.29598123552E+03  0.00000000000E+00 0. -1.
         21   -1    0    0  503  502  0.00000000000E+00 -0.00000000000E+00 -0.20205300586E+01  0.20205300586E+01  0.00000000000E+00 0. -1.
         21    1    1    2  503  501 -0.20333841585E+02 -0.48577269451E+01  0.69675787193E+02  0.72744607674E+02  0.00000000000E+00 0. -1.
          2    1    1    2  501    0  0.20333841585E+02  0.48577269451E+01  0.22428491827E+03  0.22525715791E+03  0.00000000000E+00 0. -1.
</event>
<event>
 4    1  0.1643710E+006  0.2282995E+02  0.7546771E-02  0.1494645E+00
         21   -1    0    0  501  502  0.00000000000E+00  0.00000000000E+00  0.44344554065E+01  0.44344554065E+01  0.00000000000E+00 0.  1.
          1   -1    0    0  503    0 -0.00000000000E+00 -0.00000000000E+00 -0.20003792269E+03  0.20003792269E+03  0.00000000000E+00 0.  1.
         21    1    1    2  503  502  0.73843564460E+01 -0.21602728660E+02 -0.32144672979E+02  0.39426978157E+02  0.00000000000E+00 0.  1.
          1    1    1    2  501    0 -0.73843564460E+01  0.21602728660E+02 -0.16345879430E+03  0.16504539994E+03  0.00000000000E+00 0.  1.
</event>
<event>
 4    1  0.1643710E+006  0.2049646E+02  0.7546771E-02  0.1526577E+00
         21   -1    0    0  503  502  0.00000000000E+00  0.00000000000E+00  0.20532549149E+02  0.20532549149E+02  0.00000000000E+00 0. -1.
          1   -1    0    0  502    0 -0.00000000000E+00 -0.00000000000E+00 -0.17261479183E+03  0.17261479183E+03  0.00000000000E+00 0. -1.
         21    1    1    2  503  501 -0.13032043630E+02 -0.15819949852E+02  0.14628525430E+02  0.25181317097E+02  0.00000000000E+00 0. -1.
          1    1    1    2  501    0  0.13032043630E+02  0.15819949852E+02 -0.16671076811E+03  0.16796602388E+03  0.00000000000E+00 0. -1.
</event>
<event>
 4    1  0.1643710E+006  0.2232044E+02  0.7546771E-02  0.1501212E+00
         21   -1    0    0  503  502  0.00000000000E+00  0.00000000000E+00  0.28933009893E+02  0.28933009893E+02  0.00000000000E+00 0. -1.
          1   -1    0    0  502    0 -0.00000000000E+00 -0.00000000000E+00 -0.90405023148E+03  0.90405023148E+03  0.00000000000E+00 0. -1.
         21    1    1    2  503  501  0.95765778144E+01  0.20161630106E+02  0.24469092115E+02  0.33120064011E+02  0.00000000000E+00 0. -1.
          1    1    1    2  501    0 -0.95765778144E+01 -0.20161630106E+02 -0.89958631370E+03  0.89986317736E+03  0.00000000000E+00 0. -1.
</event>
<event>
 4    1  0.1643710E+006  0.2575956E+02  0.7546771E-02  0.1460483E+00
         21   -1    0    0  503  502  0.00000000000E+00  0.00000000000E+00  0.49982695864E+01  0.49982695864E+01  0.00000000000E+00 0. -1.
          2   -1    0    0  502    0 -0.00000000000E+00 -0.00000000000E+00 -0.85903888992E+03  0.85903888992E+03  0.00000000000E+00 0.  1.
         21    1    1    2  503  501 -0.77608018305E+01 -0.24562668963E+02 -0.29784263599E+02  0.39378383788E+02  0.00000000000E+00 0. -1.
          2    1    1    2  501    0  0.77608018305E+01  0.24562668963E+02 -0.82425635674E+03  0.82465877572E+03  0.00000000000E+00 0.  1.
</event>
<event>
 4    1  0.1643710E+006  0.2649120E+02  0.7546771E-02  0.1452787E+00
         -3   -1    0    0    0  501 -0.00000000000E+00  0.00000000000E+00  0.23850739672E+02  0.23850739672E+02  0.00000000000E+00 0.  1.
         21   -1    0    0  501  502  0.00000000000E+00 -0.00000000000E+00 -0.75663342521E+02  0.75663342521E+02  0.00000000000E+00 0. -1.
         21    1    1    2  503  502 -0.99355975052E+01 -0.24557438102E+02 -0.64803441335E+02  0.70009069932E+02  0.00000000000E+00 0. -1.
         -3    1    1    2    0  503  0.99355975052E+01  0.24557438102E+02  0.12990838487E+02  0.29505012261E+02  0.00000000000E+00 0.  1.
</event>
<event>
 4    1  0.1643710E+006  0.5025920E+02  0.7546771E-02  0.1297053E+00
         -2   -1    0    0    0  501 -0.00000000000E+00  0.00000000000E+00  0.10726316721E+02  0.10726316721E+02  0.00000000000E+00 0. -1.
         21   -1    0    0  503  502  0.00000000000E+00 -0.00000000000E+00 -0.23570439239E+03  0.23570439239E+03  0.00000000000E+00 0. -1.
         21    1    1    2  503  501  0.50255447250E+02  0.61384290020E+00 -0.10881067973E+03  0.11985721007E+03  0.00000000000E+00 0. -1.
         -2    1    1    2    0  502 -0.50255447250E+02 -0.61384290020E+00 -0.11616739593E+03  0.12657349904E+03  0.00000000000E+00 0. -1.
</event>
<event>
 4    1  0.1643710E+006  0.3778670E+02  0.7546771E-02  0.1361968E+00
         -2   -1    0    0    0  501 -0.00000000000E+00  0.00000000000E+00  0.15175450090E+02  0.15175450090E+02  0.00000000000E+00 0. -1.
         21   -1    0    0  501  502  0.00000000000E+00 -0.00000000000E+00 -0.51161061846E+03  0.51161061846E+03  0.00000000000E+00 0.  1.
         21    1    1    2  503  502 -0.37394921105E+02 -0.54272210388E+01 -0.48616131721E+03  0.48762758454E+03  0.00000000000E+00 0.  1.
         -2    1    1    2    0  503  0.37394921105E+02  0.54272210388E+01 -0.10273851164E+02  0.39158484015E+02  0.00000000000E+00 0. -1.
</event>
<event>
 4    1  0.1643710E+006  0.2020484E+02  0.7546771E-02  0.1530927E+00
          1   -1    0    0  503    0 -0.00000000000E+00  0.00000000000E+00  0.23890129816E+03  0.23890129816E+03  0.00000000000E+00 0. -1.
         21   -1    0    0  501  502  0.00000000000E+00 -0.00000000000E+00 -0.20471774563E+01  0.20471774563E+01  0.00000000000E+00 0. -1.
         21    1    1    2  503  502  0.20098194667E+02  0.20731980283E+01  0.69447559219E+02  0.72327028560E+02  0.00000000000E+00 0. -1.
          1    1    1    2  501    0 -0.20098194667E+02 -0.20731980283E+01  0.16740656149E+03  0.16862144706E+03  0.00000000000E+00 0. -1.
</event>
<event>
 4    1  0.1643710E+006  0.3014510E+02  0.7546771E-02  0.1418340E+00
          4   -1    0    0  503    0 -0.00000000000E+00  0.00000000000E+00  0.16384742886E+02  0.16384742886E+02  0.00000000000E+00 0.  1.
         21   -1    0    0  501  502  0.00000000000E+00 -0.00000000000E+00 -0.20679999797E+03  0.20679999797E+03  0.00000000000E+00 0. -1.
         21    1    1    2  503  502  0.26399055245E+02 -0.14553940221E+02 -0.19067028511E+03  0.19303855811E+03  0.00000000000E+00 0. -1.
          4    1    1    2  501    0 -0.26399055245E+02  0.14553940221E+02  0.25503002640E+00  0.30146182745E+02  0.00000000000E+00 0.  1.
</event>
<event>
 4    1  0.1643710E+006  0.2235675E+02  0.7546771E-02  0.1500737E+00
          3   -1    0    0  503    0 -0.00000000000E+00  0.00000000000E+00  0.20956035069E+02  0.20956035069E+02  0.00000000000E+00 0.  1.
         21   -1    0    0  501  502  0.00000000000E+00 -0.00000000000E+00 -0.18280230851E+03  0.18280230851E+03  0.00000000000E+00 0. -1.
         21    1    1    2  503  502 -0.42379273721E+00  0.22352736451E+02 -0.17592376750E+03  0.17733864892E+03  0.00000000000E+00 0. -1.
          3    1    1    2  501    0  0.42379273721E+00 -0.22352736451E+02  0.14077494060E+02  0.26419694664E+02  0.00000000000E+00 0.  1.
</event>
<event>
 4    1  0.1643710E+006  0.2255410E+02  0.7546771E-02  0.1498175E+00
         21   -1    0    0  503  502  0.00000000000E+00  0.00000000000E+00  0.14502882136E+04  0.14502882136E+04  0.00000000000E+00 0. -1.
         -2   -1    0    0    0  501 -0.00000000000E+00 -0.00000000000E+00 -0.32403507020E+03  0.32403507020E+03  0.00000000000E+00 0. -1.
         21    1    1    2  503  501  0.15678848706E+02 -0.16212990429E+02  0.14498079331E+04  0.14499833552E+04  0.00000000000E+00 0. -1.
         -2    1    1    2    0  502 -0.15678848706E+02  0.16212990429E+02 -0.32355478971E+03  0.32433992862E+03  0.00000000000E+00 0. -1.
</event>
<event>
 4    1  0.1643710E+006  0.2629082E+02  0.7546771E-02  0.1454865E+00
         21   -1    0    0  501  502  0.00000000000E+00  0.00000000000E+00  0.14170976062E+02  0.14170976062E+02  0.00000000000E+00 0. -1.
          2   -1    0    0  503    0 -0.00000000000E+00 -0.00000000000E+00 -0.55885556347E+03  0.55885556347E+03  0.00000000000E+00 0.  1.
         21    1    1    2  503  502 -0.15536773752E+02  0.21208859478E+02  0.13822921764E+01  0.26327130315E+02  0.00000000000E+00 0. -1.
          2    1    1    2  501    0  0.15536773752E+02 -0.21208859478E+02 -0.54606687958E+03  0.54669940921E+03  0.00000000000E+00 0.  1.
</event>
<event>
 4    1  0.1643710E+006  0.2873966E+02  0.7546771E-02  0.1430874E+00
         21   -1    0    0  501  502  0.00000000000E+00  0.00000000000E+00  0.83250315890E+02  0.83250315890E+02  0.00000000000E+00 0. -1.
          3   -1    0    0  503    0 -0.00000000000E+00 -0.00000000000E+00 -0.12783893270E+02  0.12783893270E+02  0.00000000000E+00 0. -1.
         21    1    1    2  503  502  0.78634855689E+01  0.27642965517E+02  0.57954298457E+02  0.64689014968E+02  0.00000000000E+00 0. -1.
          3    1    1    2  501    0 -0.78634855689E+01 -0.27642965517E+02  0.12512124164E+02  0.31345194192E+02  0.00000000000E+00 0. -1.
</event>
<event>
 4    1  0.1643710E+006  0.4025741E+02  0.7546771E-02  0.1346984E+00
          2   -1    0    0  503    0 -0.00000000000E+00  0.00000000000E+00  0.10632999010E+04  0.10632999010E+04  0.00000000000E+00 0. -1.
         21   -1    0    0  501  502  0.00000000000E+00 -0.00000000000E+00 -0.45723944386E+02  0.45723944386E+02  0.00000000000E+00 0.  1.
         21    1    1    2  503  502 -0.39548120692E+02 -0.75236206352E+01 -0.36403463254E+02  0.54275877281E+02  0.00000000000E+00 0.  1.
          2    1    1    2  501    0  0.39548120692E+02  0.75236206352E+01  0.10539794199E+04  0.10547479681E+04  0.00000000000E+00 0. -1.
</event>
<event>
 4    1  0.1643710E+006  0.3772233E+02  0.7546771E-02  0.1362376E+00
          4   -1    0    0  503    0 -0.00000000000E+00  0.00000000000E+00  0.54002565110E+02  0.54002565110E+02  0.00000000000E+00 0. -1.
         21   -1    0    0  501  502  0.00000000000E+00 -0.00000000000E+00 -0.18892861581E+03  0.18892861581E+03  0.00000000000E+00 0.  1.
         21    1    1    2  503  502 -0.10585019269E+02  0.36206793119E+02 -0.18014019626E+03  0.18404745260E+03  0.00000000000E+00 0.  1.
          4    1    1    2  501    0  0.10585019269E+02 -0.36206793119E+02  0.45214145564E+02  0.58883728313E+02  0.00000000000E+00 0. -1.
</event>
<event>
 4    1  0.1643710E+006  0.2317875E+02  0.7546771E-02  0.1490266E+00
         -2   -1    0    0    0  501 -0.00000000000E+00  0.00000000000E+00  0.60680623625E+02  0.60680623625E+02  0.00000000000E+00 0.  1.
         21   -1    0    0  503  502  0.00000000000E+00 -0.00000000000E+00 -0.17891217342E+03  0.17891217342E+03  0.00000000000E+00 0. -1.
         21    1    1    2  503  501 -0.22925810328E+02 -0.34149387931E+01 -0.17591038910E+03  0.17743088677E+03  0.00000000000E+00 0. -1.
         -2    1    1    2    0  502  0.22925810328E+02  0.34149387931E+01  0.57678839302E+02  0.62161910278E+02  0.00000000000E+00 0.  1.
</event>
<event>
 4    1  0.1643710E+006  0.2133732E+02  0.7546771E-02  0.1514503E+00
          4   -1    0    0  503    0 -0.00000000000E+00  0.00000000000E+00  0.14188540422E+02  0.14188540422E+02  0.00000000000E+00 0. -1.
         21   -1    0    0  501  502  0.00000000000E+00 -0.00000000000E+00 -0.22550573537E+03  0.22550573537E+03  0.00000000000E+00 0. -1.
         21    1    1    2  503  502 -0.15798090262E+02  0.14342302935E+02 -0.21665197408E+03  0.21770015890E+03  0.00000000000E+00 0. -1.
          4    1    1    2  501    0  0.15798090262E+02 -0.14342302935E+02  0.53347791381E+01  0.21994116892E+02  0.00000000000E+00 0. -1.
</event>
<event>
 4    1  0.1643710E+006  0.2111766E+02  0.7546771E-02  0.1517592E+00
         21   -1    0    0  503  502  0.00000000000E+00  0.00000000000E+00  0.41307376397E+03  0.41307376397E+03  0.00000000000E+00 0. -1.
         -2   -1    0    0    0  501 -0.00000000000E+00 -0.00000000000E+00 -0.22950997258E+01  0.22950997258E+01  0.00000000000E+00 0.  1.
         21    1    1    2  503  501  0.47341672798E+01 -0.20580166049E+02  0.35652957030E+03  0.35715443449E+03  0.00000000000E+00 0. -1.
         -2    1    1    2    0  502 -0.47341672798E+01  0.20580166049E+02  0.54249093936E+02  0.58214429202E+02  0.00000000000E+00 0.  1.
</event>
<event>
 4    1  0.1643710E+006  0.2842099E+02  0.7546771E-02  0.1433833E+00
         21   -1    0    0  501  502  0.00000000000E+00  0.00000000000E+00  0.52588918872E+03  0.52588918872E+03  0.00000000000E+00 0. -1.
          2   -1    0    0  503    0 -0.00000000000E+00 -0.00000000000E+00 -0.20022383081E+01  0.20022383081E+01  0.00000000000E+00 0. -1.
         21    1    1    2  503  502 -0.21816830784E+02  0.18214791149E+02  0.38931498122E+03  0.39035100528E+03  0.00000000000E+00 0. -1.
          2    1    1    2  501    0  0.21816830784E+02 -0.18214791149E+02  0.13457196920E+03  0.13754042175E+03  0.00000000000E+00 0. -1.
</event>
<event>
 4    1  0.1643710E+006  0.2027340E+02  0.7546771E-02  0.1529896E+00
         21   -1    0    0  501  502  0.00000000000E+00  0.00000000000E+00  0.31783339800E+00  0.31783339800E+00  0.00000000000E+00 0. -1.
          2   -1    0    0  503    0 -0.00000000000E+00 -0.00000000000E+00 -0.13900468894E+04  0.13900468894E+04  0.00000000000E+00 0. -1.
         21    1    1    2  503  502 -0.71919418323E+01 -0.18954865201E+02 -0.51133501519E+03  0.51173675723E+03  0.00000000000E+00 0. -1.
          2    1    1    2  501    0  0.71919418323E+01  0.18954865201E+02 -0.87839404077E+03  0.87862796553E+03  0.00000000000E+00 0. -1.
</event>
<event>
 4    1  0.1643710E+006  0.3258253E+02  0.7546771E-02  0.1398405E+00
          1   -1    0    0  503    0 -0.00000000000E+00  0.00000000000E+00  0.77591955752E+03  0.77591955752E+03  0.00000000000E+00 0.  1.
         21   -1    0    0  501  502  0.00000000000E+00 -0.00000000000E+00 -0.19778147380E+01  0.19778147380E+01  0.00000000000E+00 0. -1.
         21    1    1    2  503  502  0.32079671934E+02  0.57022481947E+01  0.17103557813E+03  0.17411142976E+03  0.00000000000E+00 0. -1.
          1    1    1    2  501    0 -0.32079671934E+02 -0.57022481947E+01  0.60290616466E+03  0.60378594250E+03  0.00000000000E+00 0.  1.
</event>
<event>
 4    1  0.1643710E+006  0.2555393E+02  0.7546771E-02  0.1462701E+00
         21   -1    0    0  503  502  0.00000000000E+00  0.00000000000E+00  0.26204809764E+02  0.26204809764E+02  0.00000000000E+00 0. -1.
          2   -1    0    0  502    0 -0.00000000000E+00 -0.00000000000E+00 -0.23299991951E+03  0.23299991951E+03  0.00000000000E+00 0. -1.
         21    1    1    2  503  501  0.90201349199E+01  0.23909000434E+02  0.19078432927E+02  0.31890276554E+02  0.00000000000E+00 0. -1.
          2    1    1    2  501    0 -0.90201349199E+01 -0.23909000434E+02 -0.22587354267E+03  0.22731445272E+03  0.00000000000E+00 0. -1.
</event>
<event>
 4    1  0.1643710E+006  0.2629872E+02  0.7546771E-02  0.1454783E+00
          2   -1    0    0  502    0 -0.00000000000E+00  0.00000000000E+00  0.23095043805E+02  0.23095043805E+02  0.00000000000E+00 0.  1.
         21   -1    0    0  503  502  0.00000000000E+00 -0.00000000000E+00 -0.17518926758E+03  0.17518926758E+03  0.00000000000E+00 0. -1.
         21    1    1    2  503  501  0.14916536529E+02  0.21659170602E+02 -0.16631876876E+03  0.16838514061E+03  0.00000000000E+00 0. -1.
          2    1    1    2  501    0 -0.14916536529E+02 -0.21659170602E+02  0.14224544989E+02  0.29899170780E+02  0.00000000000E+00 0.  1.
</event>
<event>
 4    1  0.1643710E+006  0.2258782E+02  0.7546771E-02  0.1497740E+00
         21   -1    0    0  501  502  0.00000000000E+00  0.00000000000E+00  0.19895192831E+02  0.19895192831E+02  0.00000000000E+00 0. -1.
          2   -1    0    0  503    0 -0.00000000000E+00 -0.00000000000E+00 -0.10047511661E+03  0.10047511661E+03  0.00000000000E+00 0. -1.
         21    1    1    2  503  502 -0.86575829822E+01 -0.20862781728E+02  0.11649655195E+02  0.25415032376E+02  0.00000000000E+00 0. -1.
          2    1    1    2  501    0  0.86575829822E+01  0.20862781728E+02 -0.92229578976E+02  0.94955277065E+02  0.00000000000E+00 0. -1.
</event>
<event>
 4    1  0.1643710E+006  0.3486909E+02  0.7546771E-02  0.1381486E+00
          2   -1    0    0  503    0 -0.00000000000E+00  0.00000000000E+00  0.32179438258E+03  0.32179438258E+03  0.00000000000E+00 0. -1.
         21   -1    0    0  501  502  0.00000000000E+00 -0.00000000000E+00 -0.44820617921E+01  0.44820617921E+01  0.00000000000E+00 0. -1.
         21    1    1    2  503  502  0.10323586917E+02  0.33305809223E+02  0.22329785227E+03  0.22600394732E+03  0.00000000000E+00 0. -1.
          2    1    1    2  501    0 -0.10323586917E+02 -0.33305809223E+02  0.94014468523E+02  0.10027249706E+03  0.00000000000E+00 0. -1.
</event>
<event>
 4    1  0.1643710E+006  0.4271087E+02  0.7546771E-02  0.1333293E+00
         -1   -1    0    0    0  501 -0.00000000000E+00  0.00000000000E+00  0.34506423277E+03  0.34506423277E+03  0.00000000000E+00 0.  1.
         21   -1    0    0  503  502  0.00000000000E+00 -0.00000000000E+00 -0.44071404722E+02  0.44071404722E+02  0.00000000000E+00 0.  1.
         21    1    1    2  503  501 -0.34369970878E+02 -0.25355929763E+02 -0.32029000633E+02  0.53386093263E+02  0.00000000000E+00 0.  1.
         -1    1    1    2    0  502  0.34369970878E+02  0.25355929763E+02  0.33302182868E+03  0.33574954423E+03  0.00000000000E+00 0.  1.
</event>
<event>
 4    1  0.1643710E+006  0.2666185E+02  0.7546771E-02  0.1451035E+00
         21   -1    0    0  503  502  0.00000000000E+00  0.00000000000E+00  0.28865693484E+02  0.28865693484E+02  0.00000000000E+00 0. -1.
         -1   -1    0    0    0  501 -0.00000000000E+00 -0.00000000000E+00 -0.47586372547E+02  0.47586372547E+02  0.00000000000E+00 0.  1.
         21    1    1    2  503  501 -0.18822959708E+02 -0.18882543163E+02  0.17192127553E+02  0.31724178449E+02  0.00000000000E+00 0. -1.
         -1    1    1    2    0  502  0.18822959708E+02  0.18882543163E+02 -0.35912806616E+02  0.44727887582E+02  0.00000000000E+00 0.  1.
</event>
<event>
 4    1  0.1643710E+006  0.2500214E+02  0.7546771E-02  0.1468779E+00
         21   -1    0    0  503  502  0.00000000000E+00  0.00000000000E+00  0.23109145752E+02  0.23109145752E+02  0.00000000000E+00 0. -1.
         -1   -1    0    0    0  501 -0.00000000000E+00 -0.00000000000E+00 -0.37393476657E+02  0.37393476657E+02  0.00000000000E+00 0. -1.
         21    1    1    2  503  501  0.22559193241E+02 -0.10779134535E+02 -0.23052357350E+02  0.34007618564E+02  0.00000000000E+00 0. -1.
         -1    1    1    2    0  502 -0.22559193241E+02  0.10779134535E+02  0.87680264450E+01  0.26495003845E+02  0.00000000000E+00 0. -1.
</event>
<event>
 4    1  0.1643710E+006  0.2279692E+02  0.7546771E-02  0.1495064E+00
         21   -1    0    0  503  502  0.00000000000E+00  0.00000000000E+00  0.26888702661E+01  0.26888702661E+01  0.00000000000E+00 0. -1.
         -3   -1    0    0    0  501 -0.00000000000E+00 -0.00000000000E+00 -0.95534347425E+03  0.95534347425E+03  0.00000000000E+00 0. -1.
         21    1    1    2  503  501  0.19910293166E+02  0.11103137517E+02 -0.48501915178E+02  0.53592305535E+02  0.00000000000E+00 0. -1.
         -3    1    1    2    0  502 -0.19910293166E+02 -0.11103137517E+02 -0.90415268881E+03  0.90444003898E+03  0.00000000000E+00 0. -1.
</event>
<event>
 4    1  0.1643710E+006  0.2341000E+02  0.7546771E-02  0.1487413E+00
         21   -1    0    0  503  502  0.00000000000E+00  0.00000000000E+00  0.16467141410E+03  0.16467141410E+03  0.00000000000E+00 0.  1.
         -1   -1    0    0    0  501 -0.00000000000E+00 -0.00000000000E+00 -0.60427947242E+01  0.60427947242E+01  0.00000000000E+00 0. -1.
         21    1    1    2  503  501 -0.22632618675E+02  0.59827030856E+01  0.13652648051E+03  0.13851898081E+03  0.00000000000E+00 0.  1.
         -1    1    1    2    0  502  0.22632618675E+02 -0.59827030856E+01  0.22102138860E+02  0.32195228008E+02  0.00000000000E+00 0. -1.
</event>
<event>
 4    1  0.1643710E+006  0.2017292E+02  0.7546771E-02  0.1531409E+00
         21   -1    0    0  501  502  0.00000000000E+00  0.00000000000E+00  0.25350752453E+03  0.25350752453E+03  0.00000000000E+00 0. -1.
          1   -1    0    0  503    0 -0.00000000000E+00 -0.00000000000E+00 -0.26507410283E+03  0.26507410283E+03  0.00000000000E+00 0.  1.
         21    1    1    2  503  502 -0.95373540202E+01  0.17775987110E+02  0.25272121114E+03  0.25352506267E+03  0.00000000000E+00 0. -1.
          1    1    1    2  501    0  0.95373540202E+01 -0.17775987110E+02 -0.26428778944E+03  0.26505656470E+03  0.00000000000E+00 0.  1.
</event>
<event>
 4    1  0.1643710E+006  0.2007128E+02  0.7546771E-02  0.1532949E+00
         21   -1    0    0  501  502  0.00000000000E+00  0.00000000000E+00  0.74988165814E+02  0.74988165814E+02  0.00000000000E+00 0.  1.
         -4   -1    0    0    0  501 -0.00000000000E+00 -0.00000000000E+00 -0.39443595966E+02  0.39443595966E+02  0.00000000000E+00 0.  1.
         21    1    1    2  503  502 -0.46012871999E+01  0.19536746880E+02  0.70949168931E+02  0.73733580508E+02  0.00000000000E+00 0.  1.
         -4    1    1    2    0  503  0.46012871999E+01 -0.19536746880E+02 -0.35404599083E+02  0.40698181272E+02  0.00000000000E+00 0.  1.
</event>
<event>
 4    1  0.1643710E+006  0.8785829E+02  0.7546771E-02  0.1186693E+00
         21   -1    0    0  501  502  0.00000000000E+00  0.00000000000E+00  0.28333639297E+01  0.28333639297E+01  0.00000000000E+00 0.  1.
          2   -1    0    0  503    0 -0.00000000000E+00 -0.00000000000E+00 -0.28131162569E+04  0.28131162569E+04  0.00000000000E+00 0.  1.
         21    1    1    2  503  502  0.22228369709E+02 -0.84999870035E+02 -0.11550365780E+04  0.11583732450E+04  0.00000000000E+00 0.  1.
          2    1    1    2  501    0 -0.22228369709E+02  0.84999870035E+02 -0.16552463150E+04  0.16575763758E+04  0.00000000000E+00 0.  1.
</event>
<event>
 4    1  0.1643710E+006  0.5080828E+02  0.7546771E-02  0.1294706E+00
          1   -1    0    0  502    0 -0.00000000000E+00  0.00000000000E+00  0.22276506538E+04  0.22276506538E+04  0.00000000000E+00 0. -1.
         21   -1    0    0  503  502  0.00000000000E+00 -0.00000000000E+00 -0.57398560493E+01  0.57398560493E+01  0.00000000000E+00 0.  1.
         21    1    1    2  503  501  0.93038142505E+01 -0.49949173073E+02  0.11333507945E+03  0.12420274185E+03  0.00000000000E+00 0.  1.
          1    1    1    2  501    0 -0.93038142505E+01  0.49949173073E+02  0.21085757183E+04  0.21091877680E+04  0.00000000000E+00 0. -1.
</event>
<event>
 4    1  0.1643710E+006  0.3636903E+02  0.7546771E-02  0.1371186E+00
         -2   -1    0    0    0  501 -0.00000000000E+00  0.00000000000E+00  0.30584287152E+03  0.30584287152E+03  0.00000000000E+00 0.  1.
         21   -1    0    0  503  502  0.00000000000E+00 -0.00000000000E+00 -0.33969854308E+03  0.33969854308E+03  0.00000000000E+00 0. -1.
         21    1    1    2  503  501  0.35294545285E+02  0.87750391401E+01 -0.33763732284E+03  0.33959044158E+03  0.00000000000E+00 0. -1.
         -2    1    1    2    0  502 -0.35294545285E+02 -0.87750391401E+01  0.30378165128E+03  0.30595097303E+03  0.00000000000E+00 0.  1.
</event>
<event>
 4    1  0.1643710E+006  0.2172516E+02  0.7546771E-02  0.1509158E+00
         21   -1    0    0  503  502  0.00000000000E+00  0.00000000000E+00  0.11589656179E+03  0.11589656179E+03  0.00000000000E+00 0.  1.
          4   -1    0    0  502    0 -0.00000000000E+00 -0.00000000000E+00 -0.19115135371E+02  0.19115135371E+02  0.00000000000E+00 0.  1.
         21    1    1    2  503  501 -0.79094490631E+01  0.20234210428E+02  0.10827535208E+03  0.11043339406E+03  0.00000000000E+00 0.  1.
          4    1    1    2  501    0  0.79094490631E+01 -0.20234210428E+02 -0.11493925661E+02  0.24578303099E+02  0.00000000000E+00 0.  1.
</event>
<event>
 4    1  0.1643710E+006  0.5190661E+02  0.7546771E-02  0.1290111E+00
          1   -1    0    0  503    0 -0.00000000000E+00  0.00000000000E+00  0.10079062243E+04  0.10079062243E+04  0.00000000000E+00 0. -1.
         21   -1    0    0  501  502  0.00000000000E+00 -0.00000000000E+00 -0.53462107179E+01  0.53462107179E+01  0.00000000000E+00 0. -1.
         21    1    1    2  503  502  0.42574884444E+02  0.29693024819E+02  0.14304496097E+03  0.15217147356E+03  0.00000000000E+00 0. -1.
          1    1    1    2  501    0 -0.42574884444E+02 -0.29693024819E+02  0.85951505260E+03  0.86108096144E+03  0.00000000000E+00 0. -1.
</event>
<event>
 4    1  0.1643710E+006  0.2084632E+02  0.7546771E-02  0.1521470E+00
         21   -1    0    0  503  502  0.00000000000E+00  0.00000000000E+00  0.97741950060E+02  0.97741950060E+02  0.00000000000E+00 0. -1.
          2   -1    0    0  502    0 -0.00000000000E+00 -0.00000000000E+00 -0.51467451818E+02  0.51467451818E+02  0.00000000000E+00 0. -1.
         21    1    1    2  503  501 -0.19471556313E+02 -0.74449728866E+01  0.94446763663E+02  0.96720009785E+02  0.00000000000E+00 0. -1.
          2    1    1    2  501    0  0.19471556313E+02  0.74449728866E+01 -0.48172265421E+02  0.52489392093E+02  0.00000000000E+00 0. -1.
</event>
<event>
 4    1  0.1643710E+006  0.2433627E+02  0.7546771E-02  0.1476367E+00
         21   -1    0    0  501  502  0.00000000000E+00  0.00000000000E+00  0.64556932340E+01  0.64556932340E+01  0.00000000000E+00 0. -1.
          2   -1    0    0  503    0 -0.00000000000E+00 -0.00000000000E+00 -0.96690289094E+03  0.96690289094E+03  0.00000000000E+00 0. -1.
         21    1    1    2  503  502  0.23448056603E+02 -0.65148223218E+01 -0.17208087314E+02  0.29805578963E+02  0.00000000000E+00 0. -1.
          2    1    1    2  501    0 -0.23448056603E+02  0.65148223218E+01 -0.94323911039E+03  0.94355300521E+03  0.00000000000E+00 0. -1.
</event>
<event>
 4    1  0.1643710E+006  0.2654646E+02  0.7546771E-02  0.1452218E+00
         21   -1    0    0  501  502  0.00000000000E+00  0.00000000000E+00  0.11231694305E+01  0.11231694305E+01  0.00000000000E+00 0.  1.
         -1   -1    0    0    0  501 -0.00000000000E+00 -0.00000000000E+00 -0.74548709611E+03  0.74548709611E+03  0.00000000000E+00 0.  1.
         21    1    1    2  503  502 -0.26537905915E+02  0.67404834926E+00 -0.22362862425E+03  0.22519874861E+03  0.00000000000E+00 0.  1.
         -1    1    1    2    0  503  0.26537905915E+02 -0.67404834926E+00 -0.52073530244E+03  0.52141151694E+03  0.00000000000E+00 0.  1.
</event>
<event>
 4    1  0.1643710E+006  0.2134728E+02  0.7546771E-02  0.1514364E+00
         21   -1    0    0  503  502  0.00000000000E+00  0.00000000000E+00  0.47330594278E+01  0.47330594278E+01  0.00000000000E+00 0. -1.
          2   -1    0    0  502    0 -0.00000000000E+00 -0.00000000000E+00 -0.12476150559E+04  0.12476150559E+04  0.00000000000E+00 0.  1.
         21    1    1    2  503  501 -0.17627011645E+02  0.12041385740E+02 -0.19913714391E+02  0.29193535773E+02  0.00000000000E+00 0. -1.
          2    1    1    2  501    0  0.17627011645E+02 -0.12041385740E+02 -0.12229682821E+04  0.12231545796E+04  0.00000000000E+00 0.  1.
</event>
<event>
 4    1  0.1643710E+006  0.2695391E+02  0.7546771E-02  0.1448072E+00
          1   -1    0    0  503    0 -0.00000000000E+00  0.00000000000E+00  0.19059511658E+03  0.19059511658E+03  0.00000000000E+00 0.  1.
         21   -1    0    0  501  502  0.00000000000E+00 -0.00000000000E+00 -0.16983060570E+02  0.16983060570E+02  0.00000000000E+00 0. -1.
         21    1    1    2  503  502  0.26816308028E+02 -0.27201341677E+01 -0.45962725176E+01  0.27342992287E+02  0.00000000000E+00 0. -1.
          1    1    1    2  501    0 -0.26816308028E+02  0.27201341677E+01  0.17820832853E+03  0.18023518487E+03  0.00000000000E+00 0.  1.
</event>
<event>
 4    1  0.1643710E+006  0.6460669E+02  0.7546771E-02  0.1244936E+00
          1   -1    0    0  503    0 -0.00000000000E+00  0.00000000000E+00  0.19581654381E+04  0.19581654381E+04  0.00000000000E+00 0.  1.
         21   -1    0    0  501  502  0.00000000000E+00 -0.00000000000E+00 -0.39431273332E+01  0.39431273332E+01  0.00000000000E+00 0.  1.
         21    1    1    2  503  502 -0.12828927838E+02 -0.63320167706E+02  0.31215178784E+03  0.31876756999E+03  0.00000000000E+00 0.  1.
          1    1    1    2  501    0  0.12828927838E+02  0.63320167706E+02  0.16420705229E+04  0.16433409954E+04  0.00000000000E+00 0.  1.
</event>
<event>
 4    1  0.1643710E+006  0.2073914E+02  0.7546771E-02  0.1523022E+00
          1   -1    0    0  502    0 -0.00000000000E+00  0.00000000000E+00  0.17791998441E+01  0.17791998441E+01  0.00000000000E+00 0.  1.
         21   -1    0    0  503  502  0.00000000000E+00 -0.00000000000E+00 -0.48709167732E+03  0.48709167732E+03  0.00000000000E+00 0. -1.
         21    1    1    2  503  501  0.20130449822E+02  0.49876610004E+01 -0.41613621391E+03  0.41665268546E+03  0.00000000000E+00 0. -1.
          1    1    1    2  501    0 -0.20130449822E+02 -0.49876610004E+01 -0.69176263566E+02  0.72218191706E+02  0.00000000000E+00 0.  1.
</event>
<event>
 4    1  0.1643710E+006  0.2305689E+02  0.7546771E-02  0.1491785E+00
         -4   -1    0    0    0  501 -0.00000000000E+00  0.00000000000E+00  0.13031958525E+03  0.13031958525E+03  0.00000000000E+00 0. -1.
         21   -1    0    0  501  502  0.00000000000E+00 -0.00000000000E+00 -0.49659993718E+01  0.49659993718E+01  0.00000000000E+00 0. -1.
         21    1    1    2  503  502 -0.65491782246E+00 -0.23047589245E+02  0.34094826234E+02  0.41159172286E+02  0.00000000000E+00 0. -1.
         -4    1    1    2    0  503  0.65491782246E+00  0.23047589245E+02  0.91258759646E+02  0.94126412338E+02  0.00000000000E+00 0. -1.
</event>
<event>
 4    1  0.1643710E+006  0.2053639E+02  0.7546771E-02  0.1525988E+00
         21   -1    0    0  501  502  0.00000000000E+00  0.00000000000E+00  0.20614715971E+03  0.20614715971E+03  0.00000000000E+00 0. -1.
         -2   -1    0    0    0  501 -0.00000000000E+00 -0.00000000000E+00 -0.74303583718E+01  0.74303583718E+01  0.00000000000E+00 0. -1.
         21    1    1    2  503  502 -0.20378770489E+02 -0.25394798882E+01  0.19026475875E+03  0.19136985569E+03  0.00000000000E+00 0. -1.
         -2    1    1    2    0  503  0.20378770489E+02  0.25394798882E+01  0.84520425793E+01  0.22207662383E+02  0.00000000000E+00 0. -1.
</event>
<event>
 4    1  0.1643710E+006  0.3236580E+02  0.7546771E-02  0.1400093E+00
         21   -1    0    0  503  502  0.00000000000E+00  0.00000000000E+00  0.46802877096E+02  0.46802877096E+02  0.00000000000E+00 0. -1.
          1   -1    0    0  502    0 -0.00000000000E+00 -0.00000000000E+00 -0.40999277644E+02  0.40999277644E+02  0.00000000000E+00 0. -1.
         21    1    1    2  503  501  0.15975144222E+02  0.28148525776E+02  0.32484954145E+02  0.45856482443E+02  0.00000000000E+00 0. -1.
          1    1    1    2  501    0 -0.15975144222E+02 -0.28148525776E+02 -0.26681354692E+02  0.41945672297E+02  0.00000000000E+00 0. -1.
</event>
<event>
 4    1  0.1643710E+006  0.2100528E+02  0.7546771E-02  0.1519189E+00
         -3   -1    0    0    0  501 -0.00000000000E+00  0.00000000000E+00  0.52220858269E+00  0.52220858269E+00  0.00000000000E+00 0. -1.
         21   -1    0    0  503  502  0.00000000000E+00 -0.00000000000E+00 -0.16248540336E+04  0.16248540336E+04  0.00000000000E+00 0. -1.
         21    1    1    2  503  501 -0.51123244514E+01 -0.20373653034E+02 -0.13752162264E+04  0.13753766360E+04  0.00000000000E+00 0. -1.
         -3    1    1    2    0  502  0.51123244514E+01  0.20373653034E+02 -0.24911559867E+03  0.24999960620E+03  0.00000000000E+00 0. -1.
</event>
<event>
 4    1  0.1643710E+006  0.2514525E+02  0.7546771E-02  0.1467185E+00
         -4   -1    0    0    0  501 -0.00000000000E+00  0.00000000000E+00  0.13563215799E+03  0.13563215799E+03  0.00000000000E+00 0.  1.
         21   -1    0    0  503  502  0.00000000000E+00 -0.00000000000E+00 -0.93892529457E+01  0.93892529457E+01  0.00000000000E+00 0.  1.
         21    1    1    2  503  501 -0.17248517041E+02  0.18296777762E+02  0.11669430615E+02  0.27721093547E+02  0.00000000000E+00 0.  1.
         -4    1    1    2    0  502  0.17248517041E+02 -0.18296777762E+02  0.11457347443E+03  0.11730031739E+03  0.00000000000E+00 0.  1.
</event>
<event>
 4    1  0.1643710E+006  0.2516628E+02  0.7546771E-02  0.1466952E+00
         -2   -1    0    0    0  501 -0.00000000000E+00  0.00000000000E+00  0.13896937572E+03  0.13896937572E+03  0.00000000000E+00 0.  1.
         21   -1    0    0  503  502  0.00000000000E+00 -0.00000000000E+00 -0.37153615897E+02  0.37153615897E+02  0.00000000000E+00 0.  1.
         21    1    1    2  503  501  0.21169577978E+02 -0.13608477874E+02 -0.31575980668E+02  0.40378017002E+02  0.00000000000E+00 0.  1.
         -2    1    1    2    0  502 -0.21169577978E+02  0.13608477874E+02  0.13339174049E+03  0.13574497462E+03  0.00000000000E+00 0.  1.
</event>
<event>
 4    1  0.1643710E+006  0.3861864E+02  0.7546771E-02  0.1356776E+00
         21   -1    0    0  501  502  0.00000000000E+00  0.00000000000E+00  0.15019217602E+01  0.15019217602E+01  0.00000000000E+00 0. -1.
          1   -1    0    0  503    0 -0.00000000000E+00 -0.00000000000E+00 -0.13878687545E+04  0.13878687545E+04  0.00000000000E+00 0. -1.
         21    1    1    2  503  502  0.93522965470E+01  0.37469110375E+02 -0.32263626707E+03  0.32493931820E+03  0.00000000000E+00 0. -1.
          1    1    1    2  501    0 -0.93522965470E+01 -0.37469110375E+02 -0.10637305657E+04  0.10644313581E+04  0.00000000000E+00 0. -1.
</event>
<event>
 4    1  0.1643710E+006  0.1083318E+03  0.7546771E-02  0.1150104E+00
          4   -1    0    0  503    0 -0.00000000000E+00  0.00000000000E+00  0.16514567708E+03  0.16514567708E+03  0.00000000000E+00 0. -1.
         21   -1    0    0  501  502  0.00000000000E+00 -0.00000000000E+00 -0.38434753724E+03  0.38434753724E+03  0.00000000000E+00 0. -1.
         21    1    1    2  503  502  0.35356026755E+02 -0.10239981800E+03 -0.35765117806E+03  0.37369792149E+03  0.00000000000E+00 0. -1.
          4    1    1    2  501    0 -0.35356026755E+02  0.10239981800E+03  0.13844931790E+03  0.17579529283E+03  0.00000000000E+00 0. -1.
</event>
<event>
 4    1  0.1643710E+006  0.2146125E+02  0.7546771E-02  0.1512780E+00
         -1   -1    0    0    0  501 -0.00000000000E+00  0.00000000000E+00  0.78181376915E+01  0.78181376915E+01  0.00000000000E+00 0.  1.
         21   -1    0    0  503  502  0.00000000000E+00 -0.00000000000E+00 -0.73066945249E+02  0.73066945249E+02  0.00000000000E+00 0.  1.
         21    1    1    2  503  501  0.30270919382E+01 -0.21246688659E+02 -0.14824145735E+02  0.26083334935E+02  0.00000000000E+00 0.  1.
         -1    1    1    2    0  502 -0.30270919382E+01  0.21246688659E+02 -0.50424661823E+02  0.54801748006E+02  0.00000000000E+00 0.  1.
</event>
<event>
 4    1  0.1643710E+006  0.2109984E+02  0.7546771E-02  0.1517844E+00
          3   -1    0    0  503    0 -0.00000000000E+00  0.00000000000E+00  0.24452800795E+03  0.24452800795E+03  0.00000000000E+00 0. -1.
         21   -1    0    0  501  502  0.00000000000E+00 -0.00000000000E+00 -0.54291578537E+01  0.54291578537E+01  0.00000000000E+00 0. -1.
         21    1    1    2  503  502 -0.21092462128E+02 -0.55780411280E+00  0.17659227380E+02  0.27514567337E+02  0.00000000000E+00 0. -1.
          3    1    1    2  501    0  0.21092462128E+02  0.55780411280E+00  0.22143962272E+03  0.22244259847E+03  0.00000000000E+00 0. -1.
</event>
<event>
 4    1  0.1643710E+006  0.3505868E+02  0.7546771E-02  0.1380151E+00
          2   -1    0    0  502    0 -0.00000000000E+00  0.00000000000E+00  0.14742402695E+03  0.14742402695E+03  0.00000000000E+00 0.  1.
         21   -1    0    0  503  502  0.00000000000E+00 -0.00000000000E+00 -0.23781054988E+03  0.23781054988E+03  0.00000000000E+00 0.  1.
         21    1    1    2  503  501 -0.16164515060E+02  0.31109802056E+02 -0.23440400151E+03  0.23701128086E+03  0.00000000000E+00 0.  1.
          2    1    1    2  501    0  0.16164515060E+02 -0.31109802056E+02  0.14401747858E+03  0.14822329597E+03  0.00000000000E+00 0.  1.
</event>
<event>
 4    1  0.1643710E+006  0.2062502E+02  0.7546771E-02  0.1524687E+00
          2   -1    0    0  503    0 -0.00000000000E+00  0.00000000000E+00  0.40011103119E+03  0.40011103119E+03  0.00000000000E+00 0.  1.
         21   -1    0    0  501  502  0.00000000000E+00 -0.00000000000E+00 -0.45874319688E+01  0.45874319688E+01  0.00000000000E+00 0.  1.
         21    1    1    2  503  502 -0.74158504589E+01  0.19245688703E+02  0.20404114167E+02  0.29012398153E+02  0.00000000000E+00 0.  1.
          2    1    1    2  501    0  0.74158504589E+01 -0.19245688703E+02  0.37511948505E+03  0.37568606500E+03  0.00000000000E+00 0.  1.
</event>
<event>
 4    1  0.1643710E+006  0.2813644E+02  0.7546771E-02  0.1436515E+00
         21   -1    0    0  503  502  0.00000000000E+00  0.00000000000E+00  0.26695082547E+03  0.26695082547E+03  0.00000000000E+00 0.  1.
         -2   -1    0    0    0  501 -0.00000000000E+00 -0.00000000000E+00 -0.75840268013E+01  0.75840268013E+01  0.00000000000E+00 0.  1.
         21    1    1    2  503  501 -0.19965418375E+02 -0.19825273516E+02  0.23680235963E+03  0.23846806270E+03  0.00000000000E+00 0.  1.
         -2    1    1    2    0  502  0.19965418375E+02  0.19825273516E+02  0.22564439036E+02  0.36066789570E+02  0.00000000000E+00 0.  1.
</event>
<event>
 4    1  0.1643710E+006  0.4667499E+02  0.7546771E-02  0.1313270E+00
          2   -1    0    0  502    0 -0.00000000000E+00  0.00000000000E+00  0.10562231982E+03  0.10562231982E+03  0.00000000000E+00 0.  1.
         21   -1    0    0  503  502  0.00000000000E+00 -0.00000000000E+00 -0.22003921191E+02  0.22003921191E+02  0.00000000000E+00 0.  1.
         21    1    1    2  503  501  0.34254186502E+01 -0.46549124567E+02  0.25839775168E+02  0.53350243407E+02  0.00000000000E+00 0.  1.
          2    1    1    2  501    0 -0.34254186502E+01  0.46549124567E+02  0.57778623458E+02  0.74275997601E+02  0.00000000000E+00 0.  1.
</event>
<event>
 4    1  0.1643710E+006  0.2467922E+02  0.7546771E-02  0.1472424E+00
          3   -1    0    0  503    0 -0.00000000000E+00  0.00000000000E+00  0.74784422001E+02  0.74784422001E+02  0.00000000000E+00 0.  1.
         21   -1    0    0  501  502  0.00000000000E+00 -0.00000000000E+00 -0.13154245197E+02  0.13154245197E+02  0.00000000000E+00 0.  1.
         21    1    1    2  503  502 -0.17678381426E+02  0.17220297576E+02  0.36797579856E+01  0.24952042747E+02  0.00000000000E+00 0.  1.
          3    1    1    2  501    0  0.17678381426E+02 -0.17220297576E+02  0.57950418818E+02  0.62986624450E+02  0.00000000000E+00 0.  1.
</event>
<event>
 4    1  0.1643710E+006  0.2983285E+02  0.7546771E-02  0.1421055E+00
         21   -1    0    0  501  502  0.00000000000E+00  0.00000000000E+00  0.26307434949E+01  0.26307434949E+01  0.00000000000E+00 0.  1.
         -2   -1    0    0    0  501 -0.00000000000E+00 -0.00000000000E+00 -0.76344398215E+03  0.76344398215E+03  0.00000000000E+00 0.  1.
         21    1    1    2  503  502  0.24424751900E+02 -0.17129809144E+02 -0.94570565543E+02  0.99164463059E+02  0.00000000000E+00 0.  1.
         -2    1    1    2    0  503 -0.24424751900E+02  0.17129809144E+02 -0.66624267311E+03  0.66691026258E+03  0.00000000000E+00 0.  1.
</event>
<event>
 4    1  0.1643710E+006  0.2374994E+02  0.7546771E-02  0.1483290E+00
          1   -1    0    0  503    0 -0.00000000000E+00  0.00000000000E+00  0.55256213495E+03  0.55256213495E+03  0.00000000000E+00 0.  1.
         21   -1    0    0  501  502  0.00000000000E+00 -0.00000000000E+00 -0.26551619474E+01  0.26551619474E+01  0.00000000000E+00 0.  1.
         21    1    1    2  503  502 -0.12390103862E+02 -0.20261910019E+02  0.57152127803E+02  0.61890430470E+02  0.00000000000E+00 0.  1.
          1    1    1    2  501    0  0.12390103862E+02  0.20261910019E+02  0.49275484520E+03  0.49332686643E+03  0.00000000000E+00 0.  1.
</event>
<event>
 4    1  0.1643710E+006  0.2180559E+02  0.7546771E-02  0.1508067E+00
         21   -1    0    0  503  502  0.00000000000E+00  0.00000000000E+00  0.12836847883E+01  0.12836847883E+01  0.00000000000E+00 0. -1.
         -2   -1    0    0    0  501 -0.00000000000E+00 -0.00000000000E+00 -0.58179275351E+03  0.58179275351E+03  0.00000000000E+00 0. -1.
         21    1    1    2  503  501  0.21128244947E+02  0.53926894065E+01 -0.11452255584E+03  0.11658001385E+03  0.00000000000E+00 0. -1.
         -2    1    1    2    0  502 -0.21128244947E+02 -0.53926894065E+01 -0.46598651289E+03  0.46649642445E+03  0.00000000000E+00 0. -1.
</event>
<event>
 4    1  0.1643710E+006  0.2095851E+02  0.7546771E-02  0.1519858E+00
         21   -1    0    0  503  502  0.00000000000E+00  0.00000000000E+00  0.27604947319E+03  0.27604947319E+03  0.00000000000E+00 0. -1.
          4   -1    0    0  502    0 -0.00000000000E+00 -0.00000000000E+00 -0.19395133742E+01  0.19395133742E+01  0.00000000000E+00 0. -1.
         21    1    1    2  503  501 -0.19844813866E+02  0.67410939377E+01  0.19595504999E+03  0.19707267848E+03  0.00000000000E+00 0. -1.
          4    1    1    2  501    0  0.19844813866E+02 -0.67410939377E+01  0.78154909826E+02  0.80916308089E+02  0.00000000000E+00 0. -1.
</event>
<event>
 4    1  0.1643710E+006  0.2586523E+02  0.7546771E-02  0.1459353E+00
         21   -1    0    0  501  502  0.00000000000E+00  0.00000000000E+00  0.17798279984E+02  0.17798279984E+02  0.00000000000E+00 0. -1.
          4   -1    0    0  503    0 -0.00000000000E+00 -0.00000000000E+00 -0.28134852176E+03  0.28134852176E+03  0.00000000000E+00 0. -1.
         21    1    1    2  503  502  0.17395671028E+02  0.19141590818E+02  0.74486294767E+01  0.26916388143E+02  0.00000000000E+00 0. -1.
          4    1    1    2  501    0 -0.17395671028E+02 -0.19141590818E+02 -0.27099887125E+03  0.27223041360E+03  0.00000000000E+00 0. -1.
</event>
<event>
 4    1  0.1643710E+006  0.4168417E+02  0.7546771E-02  0.1338890E+00
         21   -1    0    0  501  502  0.00000000000E+00  0.00000000000E+00  0.10261251502E+03  0.10261251502E+03  0.00000000000E+00 0. -1.
          2   -1    0    0  503    0 -0.00000000000E+00 -0.00000000000E+00 -0.26910146576E+03  0.26910146576E+03  0.00000000000E+00 0.  1.
         21    1    1    2  503  502 -0.28976498365E+02 -0.29965516910E+02  0.96669951051E+02  0.10527416158E+03  0.00000000000E+00 0. -1.
          2    1    1    2  501    0  0.28976498365E+02  0.29965516910E+02 -0.26315890179E+03  0.26643981920E+03  0.00000000000E+00 0.  1.
</event>
<event>
 4    1  0.1643710E+006  0.2270384E+02  0.7546771E-02  0.1496251E+00
          2   -1    0    0  502    0 -0.00000000000E+00  0.00000000000E+00  0.11873427644E+04  0.11873427644E+04  0.00000000000E+00 0. -1.
         21   -1    0    0  503  502  0.00000000000E+00 -0.00000000000E+00 -0.16595331647E+02  0.16595331647E+02  0.00000000000E+00 0. -1.
         21    1    1    2  503  501  0.18016340509E+02  0.13815775872E+02 -0.86694210286E+01  0.24302737484E+02  0.00000000000E+00 0. -1.
          2    1    1    2  501    0 -0.18016340509E+02 -0.13815775872E+02  0.11794168538E+04  0.11796353586E+04  0.00000000000E+00 0. -1.
</event>
<event>
 4    1  0.1643710E+006  0.2124354E+02  0.7546771E-02  0.1515816E+00
         21   -1    0    0  501  502  0.00000000000E+00  0.00000000000E+00  0.10325378425E+02  0.10325378425E+02  0.00000000000E+00 0. -1.
          1   -1    0    0  503    0 -0.00000000000E+00 -0.00000000000E+00 -0.32113140561E+03  0.32113140561E+03  0.00000000000E+00 0. -1.
         21    1    1    2  503  502 -0.69690969416E+01  0.20067879143E+02 -0.13649312224E+01  0.21287346540E+02  0.00000000000E+00 0. -1.
          1    1    1    2  501    0  0.69690969416E+01 -0.20067879143E+02 -0.30944109596E+03  0.31016943750E+03  0.00000000000E+00 0. -1.
</event>
<event>
 4    1  0.1643710E+006  0.2443622E+02  0.7546771E-02  0.1475210E+00
         21   -1    0    0  501  502  0.00000000000E+00  0.00000000000E+00  0.14098257226E+01  0.14098257226E+01  0.00000000000E+00 0.  1.
          1   -1    0    0  503    0 -0.00000000000E+00 -0.00000000000E+00 -0.12288863580E+04  0.12288863580E+04  0.00000000000E+00 0. -1.
         21    1    1    2  503  502  0.15800130572E+02 -0.18640936423E+02 -0.11575694188E+03  0.11830806494E+03  0.00000000000E+00 0.  1.
          1    1    1    2  501    0 -0.15800130572E+02  0.18640936423E+02 -0.11117195904E+04  0.11119881187E+04  0.00000000000E+00 0. -1.
</event>
<event>
 4    1  0.1643710E+006  0.2045194E+02  0.7546771E-02  0.1527235E+00
         21   -1    0    0  501  502  0.00000000000E+00  0.00000000000E+00  0.52066468150E+02  0.52066468150E+02  0.00000000000E+00 0. -1.
         -2   -1    0    0    0  501 -0.00000000000E+00 -0.00000000000E+00 -0.52321404321E+02  0.52321404321E+02  0.00000000000E+00 0. -1.
         21    1    1    2  503  502  0.17429810945E+02 -0.10699704478E+02  0.47892553775E+02  0.52076661688E+02  0.00000000000E+00 0. -1.
         -2    1    1    2    0  503 -0.17429810945E+02  0.10699704478E+02 -0.48147489946E+02  0.52311210783E+02  0.00000000000E+00 0. -1.
</event>
<event>
 4    1  0.1643710E+006  0.2573067E+02  0.7546771E-02  0.1460793E+00
          2   -1    0    0  503    0 -0.00000000000E+00  0.00000000000E+00  0.37271669451E+03  0.37271669451E+03  0.00000000000E+00 0.  1.
         21   -1    0    0  501  502  0.00000000000E+00 -0.00000000000E+00 -0.49599909222E+01  0.49599909222E+01  0.00000000000E+00 0.  1.
         21    1    1    2  503  502 -0.25348041835E+02  0.44208779486E+01  0.32587305315E+02  0.41521077231E+02  0.00000000000E+00 0.  1.
          2    1    1    2  501    0  0.25348041835E+02 -0.44208779486E+01  0.33516939827E+03  0.33615560820E+03  0.00000000000E+00 0.  1.
</event>
<event>
 4    1  0.1643710E+006  0.3139282E+02  0.7546771E-02  0.1407867E+00
         21   -1    0    0  501  502  0.00000000000E+00  0.00000000000E+00  0.25280286628E+02  0.25280286628E+02  0.00000000000E+00 0. -1.
          3   -1    0    0  503    0 -0.00000000000E+00 -0.00000000000E+00 -0.52792429590E+02  0.52792429590E+02  0.00000000000E+00 0. -1.
         21    1    1    2  503  502  0.30972156754E+02 -0.51219869029E+01  0.62087976727E+01  0.32000912680E+02  0.00000000000E+00 0. -1.
          3    1    1    2  501    0 -0.30972156754E+02  0.51219869029E+01 -0.33720940635E+02  0.46071803537E+02  0.00000000000E+00 0. -1.
</event>
<event>
 4    1  0.1643710E+006  0.2591225E+02  0.7546771E-02  0.1458852E+00
         21   -1    0    0  501  502  0.00000000000E+00  0.00000000000E+00  0.10728774590E+02  0.10728774590E+02  0.00000000000E+00 0. -1.
          2   -1    0    0  503    0 -0.00000000000E+00 -0.00000000000E+00 -0.45616872573E+03  0.45616872573E+03  0.00000000000E+00 0.  1.
         21    1    1    2  503  502  0.25859765694E+02  0.16484457041E+01 -0.58755995639E+01  0.26570049402E+02  0.00000000000E+00 0. -1.
          2    1    1    2  501    0 -0.25859765694E+02 -0.16484457041E+01 -0.43956435158E+03  0.44032745092E+03  0.00000000000E+00 0.  1.
</event>
<event>
 4    1  0.1643710E+006  0.2255452E+02  0.7546771E-02  0.1498169E+00
         21   -1    0    0  503  502  0.00000000000E+00  0.00000000000E+00  0.11361829778E+03  0.11361829778E+03  0.00000000000E+00 0.  1.
          1   -1    0    0  502    0 -0.00000000000E+00 -0.00000000000E+00 -0.85816955006E+01  0.85816955006E+01  0.00000000000E+00 0.  1.
         21    1    1    2  503  501  0.22242040269E+02  0.37414206992E+01  0.94773258112E+02  0.97420105919E+02  0.00000000000E+00 0.  1.
          1    1    1    2  501    0 -0.22242040269E+02 -0.37414206992E+01  0.10263344168E+02  0.24779887362E+02  0.00000000000E+00 0.  1.
</event>
<event>
 4    1  0.1643710E+006  0.3760921E+02  0.7546771E-02  0.1363095E+00
         -2   -1    0    0    0  501 -0.00000000000E+00  0.00000000000E+00  0.12211788038E+02  0.12211788038E+02  0.00000000000E+00 0. -1.
         21   -1    0    0  503  502  0.00000000000E+00 -0.00000000000E+00 -0.18207372169E+03  0.18207372169E+03  0.00000000000E+00 0. -1.
         21    1    1    2  503  501 -0.87466766208E+01 -0.36577981042E+02 -0.14352716501E+03  0.14837284167E+03  0.00000000000E+00 0. -1.
         -2    1    1    2    0  502  0.87466766208E+01  0.36577981042E+02 -0.26334768642E+02  0.45912668061E+02  0.00000000000E+00 0. -1.
</event>
<event>
 4    1  0.1643710E+006  0.2366940E+02  0.7546771E-02  0.1484259E+00
         -1   -1    0    0    0  501 -0.00000000000E+00  0.00000000000E+00  0.13684679586E+04  0.13684679586E+04  0.00000000000E+00 0. -1.
         21   -1    0    0  501  502  0.00000000000E+00 -0.00000000000E+00 -0.32251132317E+01  0.32251132317E+01  0.00000000000E+00 0. -1.
         21    1    1    2  503  502  0.22737918259E+02  0.65747588409E+01  0.41781937371E+02  0.48020523436E+02  0.00000000000E+00 0. -1.
         -1    1    1    2    0  503 -0.22737918259E+02 -0.65747588409E+01  0.13234609080E+04  0.13236725484E+04  0.00000000000E+00 0. -1.
</event>
<event>
 4    1  0.1643710E+006  0.3546003E+02  0.7546771E-02  0.1377358E+00
         21   -1    0    0  501  502  0.00000000000E+00  0.00000000000E+00  0.24847611683E+01  0.24847611683E+01  0.00000000000E+00 0.  1.
         -1   -1    0    0    0  501 -0.00000000000E+00 -0.00000000000E+00 -0.10177326870E+04  0.10177326870E+04  0.00000000000E+00 0.  1.
         21    1    1    2  503  502 -0.76445919944E-02 -0.35460028657E+02 -0.14592588632E+03  0.15017249412E+03  0.00000000000E+00 0.  1.
         -1    1    1    2    0  503  0.76445919944E-02  0.35460028657E+02 -0.86932203951E+03  0.87004495405E+03  0.00000000000E+00 0.  1.
</event>
<event>
 4    1  0.1643710E+006  0.2167163E+02  0.7546771E-02  0.1509888E+00
         -1   -1    0    0    0  501 -0.00000000000E+00  0.00000000000E+00  0.25293083822E+03  0.25293083822E+03  0.00000000000E+00 0. -1.
         21   -1    0    0  501  502  0.00000000000E+00 -0.00000000000E+00 -0.35486991241E+01  0.35486991241E+01  0.00000000000E+00 0. -1.
         21    1    1    2  503  502  0.21670304355E+02  0.23944280889E+00  0.36145564872E+02  0.42144528513E+02  0.00000000000E+00 0. -1.
         -1    1    1    2    0  503 -0.21670304355E+02 -0.23944280889E+00  0.21323657422E+03  0.21433500883E+03  0.00000000000E+00 0. -1.
</event>
<event>
 4    1  0.1643710E+006  0.2449693E+02  0.7546771E-02  0.1474511E+00
          1   -1    0    0  503    0 -0.00000000000E+00  0.00000000000E+00  0.11204708281E+03  0.11204708281E+03  0.00000000000E+00 0.  1.
         21   -1    0    0  501  502  0.00000000000E+00 -0.00000000000E+00 -0.65645447937E+02  0.65645447937E+02  0.00000000000E+00 0.  1.
         21    1    1    2  503  502 -0.24460177339E+02 -0.13413993229E+01 -0.61944018242E+02  0.66612018612E+02  0.00000000000E+00 0.  1.
          1    1    1    2  501    0  0.24460177339E+02  0.13413993229E+01  0.10834565311E+03  0.11108051213E+03  0.00000000000E+00 0.  1.
</event>
<event>
 4    1  0.1643710E+006  0.2988182E+02  0.7546771E-02  0.1420626E+00
          4   -1    0    0  502    0 -0.00000000000E+00  0.00000000000E+00  0.11216573486E+02  0.11216573486E+02  0.00000000000E+00 0.  1.
         21   -1    0    0  503  502  0.00000000000E+00 -0.00000000000E+00 -0.26761038859E+03  0.26761038859E+03  0.00000000000E+00 0.  1.
         21    1    1    2  503  501 -0.11706385404E+02  0.27493337118E+02 -0.24504875468E+03  0.24686396095E+03  0.00000000000E+00 0.  1.
          4    1    1    2  501    0  0.11706385404E+02 -0.27493337118E+02 -0.11345060425E+02  0.31963001129E+02  0.00000000000E+00 0.  1.
</event>
<event>
 4    1  0.1643710E+006  0.2101739E+02  0.7546771E-02  0.1519017E+00
          2   -1    0    0  502    0 -0.00000000000E+00  0.00000000000E+00  0.41718362046E+02  0.41718362046E+02  0.00000000000E+00 0.  1.
         21   -1    0    0  503  502  0.00000000000E+00 -0.00000000000E+00 -0.45078394756E+02  0.45078394756E+02  0.00000000000E+00 0. -1.
         21    1    1    2  503  501  0.11369763843E+02  0.17676517516E+02 -0.39640857809E+02  0.44867899540E+02  0.00000000000E+00 0. -1.
          2    1    1    2  501    0 -0.11369763843E+02 -0.17676517516E+02  0.36280825099E+02  0.41928857261E+02  0.00000000000E+00 0.  1.
</event>
<event>
 4    1  0.1643710E+006  0.2300461E+02  0.7546771E-02  0.1492440E+00
         -1   -1    0    0    0  501 -0.00000000000E+00  0.00000000000E+00  0.10696667711E+03  0.10696667711E+03  0.00000000000E+00 0.  1.
         21   -1    0    0  503  502  0.00000000000E+00 -0.00000000000E+00 -0.49782631031E+01  0.49782631031E+01  0.00000000000E+00 0.  1.
         21    1    1    2  503  501  0.22542799273E+02 -0.45863043834E+01  0.46590453379E+02  0.51960391964E+02  0.00000000000E+00 0.  1.
         -1    1    1    2    0  502 -0.22542799273E+02  0.45863043834E+01  0.55397960631E+02  0.59984548252E+02  0.00000000000E+00 0.  1.
</event>
<event>
 4    1  0.1643710E+006  0.2283588E+02  0.7546771E-02  0.1494569E+00
          3   -1    0    0  503    0 -0.00000000000E+00  0.00000000000E+00  0.24827964446E+01  0.24827964446E+01  0.00000000000E+00 0.  1.
         21   -1    0    0  501  502  0.00000000000E+00 -0.00000000000E+00 -0.25677486525E+03  0.25677486525E+03  0.00000000000E+00 0. -1.
         21    1    1    2  503  502  0.21837349740E+02  0.66788835483E+01 -0.18245087315E+03  0.18387440943E+03  0.00000000000E+00 0. -1.
          3    1    1    2  501    0 -0.21837349740E+02 -0.66788835483E+01 -0.71841195651E+02  0.75383252262E+02  0.00000000000E+00 0.  1.
</event>
<event>
 4    1  0.1643710E+006  0.4104891E+02  0.7546771E-02  0.1342446E+00
         21   -1    0    0  501  502  0.00000000000E+00  0.00000000000E+00  0.20186912508E+02  0.20186912508E+02  0.00000000000E+00 0. -1.
         -3   -1    0    0    0  501 -0.00000000000E+00 -0.00000000000E+00 -0.84436006465E+02  0.84436006465E+02  0.00000000000E+00 0. -1.
         21    1    1    2  503  502  0.40332604582E+02 -0.76350368219E+01 -0.26530857651E+02  0.48876366348E+02  0.00000000000E+00 0. -1.
         -3    1    1    2    0  503 -0.40332604582E+02  0.76350368219E+01 -0.37718236306E+02  0.55746552626E+02  0.00000000000E+00 0. -1.
</event>
<event>
 4    1  0.1643710E+006  0.5545289E+02  0.7546771E-02  0.1276117E+00
         -4   -1    0    0    0  501 -0.00000000000E+00  0.00000000000E+00  0.41046317936E+01  0.41046317936E+01  0.00000000000E+00 0.  1.
         21   -1    0    0  501  502  0.00000000000E+00 -0.00000000000E+00 -0.75444171640E+03  0.75444171640E+03  0.00000000000E+00 0.  1.
         21    1    1    2  503  502 -0.27743526673E+02  0.48013745922E+02 -0.40690479975E+03  0.41066597026E+03  0.00000000000E+00 0.  1.
         -4    1    1    2    0  503  0.27743526673E+02 -0.48013745922E+02 -0.34343228485E+03  0.34788037793E+03  0.00000000000E+00 0.  1.
</event>
<event>
 4    1  0.1643710E+006  0.3385708E+02  0.7546771E-02  0.1388781E+00
          1   -1    0    0  503    0 -0.00000000000E+00  0.00000000000E+00  0.13598671676E+04  0.13598671676E+04  0.00000000000E+00 0. -1.
         21   -1    0    0  501  502  0.00000000000E+00 -0.00000000000E+00 -0.19608676981E+01  0.19608676981E+01  0.00000000000E+00 0. -1.
         21    1    1    2  503  502  0.19482906934E+01 -0.33800974680E+02  0.16482332040E+03  0.16826475767E+03  0.00000000000E+00 0. -1.
          1    1    1    2  501    0 -0.19482906934E+01  0.33800974680E+02  0.11930829795E+04  0.11935632776E+04  0.00000000000E+00 0. -1.
</event>
<event>
 4    1  0.1643710E+006  0.7622872E+02  0.7546771E-02  0.1212884E+00
         21   -1    0    0  503  502  0.00000000000E+00  0.00000000000E+00  0.11938860988E+03  0.11938860988E+03  0.00000000000E+00 0. -1.
          2   -1    0    0  502    0 -0.00000000000E+00 -0.00000000000E+00 -0.49410930234E+03  0.49410930234E+03  0.00000000000E+00 0. -1.
         21    1    1    2  503  501  0.74230645051E+02  0.17338661352E+02  0.10388911709E+03  0.12885560326E+03  0.00000000000E+00 0. -1.
          2    1    1    2  501    0 -0.74230645051E+02 -0.17338661352E+02 -0.47860980955E+03  0.48464230896E+03  0.00000000000E+00 0. -1.
</event>
<event>
 4    1  0.1643710E+006  0.2117056E+02  0.7546771E-02  0.1516844E+00
          3   -1    0    0  502    0 -0.00000000000E+00  0.00000000000E+00  0.49389121289E+01  0.49389121289E+01  0.00000000000E+00 0. -1.
         21   -1    0    0  503  502  0.00000000000E+00 -0.00000000000E+00 -0.31790187244E+03  0.31790187244E+03  0.00000000000E+00 0.  1.
         21    1    1    2  503  501  0.45608714983E+01  0.20673435006E+02 -0.29293121289E+03  0.29369522970E+03  0.00000000000E+00 0.  1.
          3    1    1    2  501    0 -0.45608714983E+01 -0.20673435006E+02 -0.20031747419E+02  0.29145554866E+02  0.00000000000E+00 0. -1.
</event>
<event>
 4    1  0.1643710E+006  0.2472447E+02  0.7546771E-02  0.1471909E+00
         21   -1    0    0  501  502  0.00000000000E+00  0.00000000000E+00  0.50713148624E+01  0.50713148624E+01  0.00000000000E+00 0. -1.
          2   -1    0    0  503    0 -0.00000000000E+00 -0.00000000000E+00 -0.74505595684E+03  0.74505595684E+03  0.00000000000E+00 0. -1.
         21    1    1    2  503  502 -0.23539359442E+02  0.75629396017E+01 -0.26606733059E+02  0.36321037188E+02  0.00000000000E+00 0. -1.
          2    1    1    2  501    0  0.23539359442E+02 -0.75629396017E+01 -0.71337790892E+03  0.71380623452E+03  0.00000000000E+00 0. -1.
</event>
<event>
 4    1  0.1643710E+006  0.2736905E+02  0.7546771E-02  0.1443936E+00
         21   -1    0    0  503  502  0.00000000000E+00  0.00000000000E+00  0.36609706759E+01  0.36609706759E+01  0.00000000000E+00 0. -1.
         -2   -1    0    0    0  501 -0.00000000000E+00 -0.00000000000E+00 -0.20626339083E+03  0.20626339083E+03  0.00000000000E+00 0. -1.
         21    1    1    2  503  501  0.64240250577E+01  0.26604455249E+02 -0.11070336243E+03  0.11403639590E+03  0.00000000000E+00 0. -1.
         -2    1    1    2    0  502 -0.64240250577E+01 -0.26604455249E+02 -0.91899057723E+02  0.95887965603E+02  0.00000000000E+00 0. -1.
</event>
<event>
 4    1  0.1643710E+006  0.4215689E+02  0.7546771E-02  0.1336290E+00
         21   -1    0    0  503  502  0.00000000000E+00  0.00000000000E+00  0.12432815204E+03  0.12432815204E+03  0.00000000000E+00 0.  1.
          1   -1    0    0  502    0 -0.00000000000E+00 -0.00000000000E+00 -0.76846336852E+02  0.76846336852E+02  0.00000000000E+00 0.  1.
         21    1    1    2  503  501  0.38104596384E+02 -0.18034490593E+02  0.11449192809E+03  0.12200657652E+03  0.00000000000E+00 0.  1.
          1    1    1    2  501    0 -0.38104596384E+02  0.18034490593E+02 -0.67010112908E+02  0.79167912366E+02  0.00000000000E+00 0.  1.
</event>
<event>
 4    1  0.1643710E+006  0.3101501E+02  0.7546771E-02  0.1410976E+00
         -1   -1    0    0    0  501 -0.00000000000E+00  0.00000000000E+00  0.13390348758E+03  0.13390348758E+03  0.00000000000E+00 0. -1.
         21   -1    0    0  501  502  0.00000000000E+00 -0.00000000000E+00 -0.17660314762E+02  0.17660314762E+02  0.00000000000E+00 0. -1.
         21    1    1    2  503  502  0.30803951577E+02 -0.36121581809E+01 -0.24649621669E+00  0.31015993937E+02  0.00000000000E+00 0. -1.
         -1    1    1    2    0  503 -0.30803951577E+02  0.36121581809E+01  0.11648966904E+03  0.12054780841E+03  0.00000000000E+00 0. -1.
</event>
<event>
 4    1  0.1643710E+006  0.2014777E+02  0.7546771E-02  0.1531789E+00
         -1   -1    0    0    0  501 -0.00000000000E+00  0.00000000000E+00  0.65345007140E+01  0.65345007140E+01  0.00000000000E+00 0.  1.
         21   -1    0    0  503  502  0.00000000000E+00 -0.00000000000E+00 -0.73768666986E+02  0.73768666986E+02  0.00000000000E+00 0.  1.
         21    1    1    2  503  501  0.53300471754E+01  0.19429954841E+02 -0.49571396374E+02  0.53509399983E+02  0.00000000000E+00 0.  1.
         -1    1    1    2    0  502 -0.53300471754E+01 -0.19429954841E+02 -0.17662769897E+02  0.26793767717E+02  0.00000000000E+00 0.  1.
</event>
<event>
 4    1  0.1643710E+006  0.3081721E+02  0.7546771E-02  0.1412625E+00
         -4   -1    0    0    0  501 -0.00000000000E+00  0.00000000000E+00  0.15473215935E+02  0.15473215935E+02  0.00000000000E+00 0. -1.
         21   -1    0    0  501  502  0.00000000000E+00 -0.00000000000E+00 -0.65134795995E+02  0.65134795995E+02  0.00000000000E+00 0.  1.
         21    1    1    2  503  502  0.60068046217E+00  0.30811351400E+02 -0.34511472574E+02  0.46268152452E+02  0.00000000000E+00 0.  1.
         -4    1    1    2    0  503 -0.60068046217E+00 -0.30811351400E+02 -0.15150107485E+02  0.34339859477E+02  0.00000000000E+00 0. -1.
</event>
<event>
 4    1  0.1643710E+006  0.2054711E+02  0.7546771E-02  0.1525830E+00
         21   -1    0    0  503  502  0.00000000000E+00  0.00000000000E+00  0.29016244188E+02  0.29016244188E+02  0.00000000000E+00 0.  1.
          1   -1    0    0  502    0 -0.00000000000E+00 -0.00000000000E+00 -0.13099809173E+03  0.13099809173E+03  0.00000000000E+00 0. -1.
         21    1    1    2  503  501 -0.20055202853E+02 -0.44690903202E+01  0.24442315366E+02  0.31931343695E+02  0.00000000000E+00 0.  1.
          1    1    1    2  501    0  0.20055202853E+02  0.44690903202E+01 -0.12642416291E+03  0.12808299223E+03  0.00000000000E+00 0. -1.
</event>
<event>
 4    1  0.1643710E+006  0.2298649E+02  0.7546771E-02  0.1492668E+00
         -1   -1    0    0    0  501 -0.00000000000E+00  0.00000000000E+00  0.10189917750E+04  0.10189917750E+04  0.00000000000E+00 0. -1.
         21   -1    0    0  503  502  0.00000000000E+00 -0.00000000000E+00 -0.17355397431E+02  0.17355397431E+02  0.00000000000E+00 0.  1.
         21    1    1    2  503  501  0.22942193183E+02 -0.14263812914E+01 -0.95559066652E+01  0.24893656699E+02  0.00000000000E+00 0.  1.
         -1    1    1    2    0  502 -0.22942193183E+02  0.14263812914E+01  0.10111922842E+04  0.10114535157E+04  0.00000000000E+00 0. -1.
</event>
<event>
 4    1  0.1643710E+006  0.9050987E+02  0.7546771E-02  0.1181353E+00
          2   -1    0    0  503    0 -0.00000000000E+00  0.00000000000E+00  0.73437150824E+02  0.73437150824E+02  0.00000000000E+00 0. -1.
         21   -1    0    0  501  502  0.00000000000E+00 -0.00000000000E+00 -0.36702468084E+03  0.36702468084E+03  0.00000000000E+00 0. -1.
         21    1    1    2  503  502 -0.61131884570E+02 -0.66745256236E+02 -0.33053353412E+03  0.34270169787E+03  0.00000000000E+00 0. -1.
          2    1    1    2  501    0  0.61131884570E+02  0.66745256236E+02  0.36946004105E+02  0.97760133799E+02  0.00000000000E+00 0. -1.
</event>
<event>
 4    1  0.1643710E+006  0.2645960E+02  0.7546771E-02  0.1453113E+00
         -2   -1    0    0    0  501 -0.00000000000E+00  0.00000000000E+00  0.83546966182E+02  0.83546966182E+02  0.00000000000E+00 0.  1.
         21   -1    0    0  503  502  0.00000000000E+00 -0.00000000000E+00 -0.42098084612E+02  0.42098084612E+02  0.00000000000E+00 0. -1.
         21    1    1    2  503  501 -0.26239470916E+02 -0.34059871787E+01 -0.35498903128E+02  0.44275079965E+02  0.00000000000E+00 0. -1.
         -2    1    1    2    0  502  0.26239470916E+02  0.34059871787E+01  0.76947784699E+02  0.81369970829E+02  0.00000000000E+00 0.  1.
</event>
<event>
 4    1  0.1643710E+006  0.2098809E+02  0.7546771E-02  0.1519435E+00
         21   -1    0    0  501  502  0.00000000000E+00  0.00000000000E+00  0.49053140312E+00  0.49053140312E+00  0.00000000000E+00 0.  1.
          2   -1    0    0  503    0 -0.00000000000E+00 -0.00000000000E+00 -0.98224689453E+03  0.98224689453E+03  0.00000000000E+00 0.  1.
         21    1    1    2  503  502 -0.13207540094E+02 -0.16311372632E+02 -0.34697862854E+03  0.34761281429E+03  0.00000000000E+00 0.  1.
          2    1    1    2  501    0  0.13207540094E+02  0.16311372632E+02 -0.63477773458E+03  0.63512461164E+03  0.00000000000E+00 0.  1.
</event>
<event>
 4    1  0.1643710E+006  0.2856812E+02  0.7546771E-02  0.1432462E+00
         21   -1    0    0  501  502  0.00000000000E+00  0.00000000000E+00  0.27209663849E+02  0.27209663849E+02  0.00000000000E+00 0.  1.
         -3   -1    0    0    0  501 -0.00000000000E+00 -0.00000000000E+00 -0.10232840200E+03  0.10232840200E+03  0.00000000000E+00 0.  1.
         21    1    1    2  503  502 -0.34345075166E+01 -0.28360918456E+02  0.16895982199E+02  0.33190537085E+02  0.00000000000E+00 0.  1.
         -3    1    1    2    0  503  0.34345075166E+01  0.28360918456E+02 -0.92014720353E+02  0.96347528765E+02  0.00000000000E+00 0.  1.
</event>
<event>
 4    1  0.1643710E+006  0.2226229E+02  0.7546771E-02  0.1501975E+00
          2   -1    0    0  503    0 -0.00000000000E+00  0.00000000000E+00  0.92503808535E+03  0.92503808535E+03  0.00000000000E+00 0.  1.
         21   -1    0    0  501  502  0.00000000000E+00 -0.00000000000E+00 -0.53633215092E+00  0.53633215092E+00  0.00000000000E+00 0.  1.
         21    1    1    2  503  502 -0.10634179604E+02 -0.19558219003E+02  0.47720402180E+03  0.47772302449E+03  0.00000000000E+00 0.  1.
          2    1    1    2  501    0  0.10634179604E+02  0.19558219003E+02  0.44729773141E+03  0.44785139302E+03  0.00000000000E+00 0.  1.
</event>
<event>
 4    1  0.1643710E+006  0.3613508E+02  0.7546771E-02  0.1372754E+00
         -4   -1    0    0    0  501 -0.00000000000E+00  0.00000000000E+00  0.10558403439E+02  0.10558403439E+02  0.00000000000E+00 0.  1.
         21   -1    0    0  503  502  0.00000000000E+00 -0.00000000000E+00 -0.18399179947E+04  0.18399179947E+04  0.00000000000E+00 0. -1.
         21    1    1    2  503  501 -0.25810735893E+01  0.36042776271E+02 -0.18082825761E+04  0.18086435853E+04  0.00000000000E+00 0. -1.
         -4    1    1    2    0  502  0.25810735893E+01 -0.36042776271E+02 -0.21077015193E+02  0.41832812858E+02  0.00000000000E+00 0.  1.
</event>
<event>
 4    1  0.1643710E+006  0.2014173E+02  0.7546771E-02  0.1531880E+00
         21   -1    0    0  501  502  0.00000000000E+00  0.00000000000E+00  0.61576704188E+01  0.61576704188E+01  0.00000000000E+00 0. -1.
         -2   -1    0    0    0  501 -0.00000000000E+00 -0.00000000000E+00 -0.22602977489E+03  0.22602977489E+03  0.00000000000E+00 0. -1.
         21    1    1    2  503  502 -0.17831483642E+02 -0.93662868767E+01 -0.12215868559E+02  0.23556667493E+02  0.00000000000E+00 0. -1.
         -2    1    1    2    0  503  0.17831483642E+02  0.93662868767E+01 -0.20765623591E+03  0.20863077782E+03  0.00000000000E+00 0. -1.
</event>
<event>
 4    1  0.1643710E+006  0.2245638E+02  0.7546771E-02  0.1499440E+00
         21   -1    0    0  503  502  0.00000000000E+00  0.00000000000E+00  0.15268993424E+01  0.15268993424E+01  0.00000000000E+00 0. -1.
          2   -1    0    0  502    0 -0.00000000000E+00 -0.00000000000E+00 -0.14494190356E+04  0.14494190356E+04  0.00000000000E+00 0. -1.
         21    1    1    2  503  501  0.22025057381E+02  0.43801844378E+01 -0.86463665370E+02  0.89332270751E+02  0.00000000000E+00 0. -1.
          2    1    1    2  501    0 -0.22025057381E+02 -0.43801844378E+01 -0.13614284709E+04  0.13616136642E+04  0.00000000000E+00 0. -1.
</event>
<event>
 4    1  0.1643710E+006  0.2631034E+02  0.7546771E-02  0.1454662E+00
         21   -1    0    0  501  502  0.00000000000E+00  0.00000000000E+00  0.17291228206E+02  0.17291228206E+02  0.00000000000E+00 0.  1.
         -4   -1    0    0    0  501 -0.00000000000E+00 -0.00000000000E+00 -0.34175937646E+03  0.34175937646E+03  0.00000000000E+00 0.  1.
         21    1    1    2  503  502  0.68751423602E+01  0.25396190995E+02  0.64489927087E+01  0.27089178771E+02  0.00000000000E+00 0.  1.
         -4    1    1    2    0  503 -0.68751423602E+01 -0.25396190995E+02 -0.33091714096E+03  0.33196142590E+03  0.00000000000E+00 0.  1.
</event>
<event>
 4    1  0.1643710E+006  0.2193788E+02  0.7546771E-02  0.1506284E+00
         -2   -1    0    0    0  501 -0.00000000000E+00  0.00000000000E+00  0.18338198680E+02  0.18338198680E+02  0.00000000000E+00 0. -1.
         21   -1    0    0  503  502  0.00000000000E+00 -0.00000000000E+00 -0.10667683566E+03  0.10667683566E+03  0.00000000000E+00 0. -1.
         21    1    1    2  503  501  0.16669965820E+02 -0.14261231179E+02 -0.98446022362E+02  0.10086074456E+03  0.00000000000E+00 0. -1.
         -2    1    1    2    0  502 -0.16669965820E+02  0.14261231179E+02  0.10107385384E+02  0.24154289774E+02  0.00000000000E+00 0. -1.
</event>
<event>
 4    1  0.1643710E+006  0.2103877E+02  0.7546771E-02  0.1518712E+00
          2   -1    0    0  502    0 -0.00000000000E+00  0.00000000000E+00  0.68801658548E+03  0.68801658548E+03  0.00000000000E+00 0. -1.
         21   -1    0    0  503  502  0.00000000000E+00 -0.00000000000E+00 -0.73882192492E+00  0.73882192492E+00  0.00000000000E+00 0. -1.
         21    1    1    2  503  501 -0.16331822959E+02  0.13262775004E+02  0.21983842578E+03  0.22084284705E+03  0.00000000000E+00 0. -1.
          2    1    1    2  501    0  0.16331822959E+02 -0.13262775004E+02  0.46743933778E+03  0.46791256036E+03  0.00000000000E+00 0. -1.
</event>
<event>
 4    1  0.1643710E+006  0.3091766E+02  0.7546771E-02  0.1411786E+00
          1   -1    0    0  503    0 -0.00000000000E+00  0.00000000000E+00  0.26405242868E+03  0.26405242868E+03  0.00000000000E+00 0. -1.
         21   -1    0    0  501  502  0.00000000000E+00 -0.00000000000E+00 -0.29025478052E+02  0.29025478052E+02  0.00000000000E+00 0. -1.
         21    1    1    2  503  502  0.17660538442E+02 -0.25377296826E+02 -0.19582922483E+02  0.36597713934E+02  0.00000000000E+00 0. -1.
          1    1    1    2  501    0 -0.17660538442E+02  0.25377296826E+02  0.25460987311E+03  0.25648019279E+03  0.00000000000E+00 0. -1.
</event>
<event>
 4    1  0.1643710E+006  0.2460832E+02  0.7546771E-02  0.1473233E+00
         21   -1    0    0  503  502  0.00000000000E+00  0.00000000000E+00  0.33843217068E+02  0.33843217068E+02  0.00000000000E+00 0. -1.
          1   -1    0    0  502    0 -0.00000000000E+00 -0.00000000000E+00 -0.15596622972E+03  0.15596622972E+03  0.00000000000E+00 0.  1.
         21    1    1    2  503  501  0.12483334700E+02 -0.21206970122E+02  0.28233402831E+02  0.37452560158E+02  0.00000000000E+00 0. -1.
          1    1    1    2  501    0 -0.12483334700E+02  0.21206970122E+02 -0.15035641548E+03  0.15235688663E+03  0.00000000000E+00 0.  1.
</event>
<event>
 4    1  0.1643710E+006  0.2241470E+02  0.7546771E-02  0.1499982E+00
          3   -1    0    0  502    0 -0.00000000000E+00  0.00000000000E+00  0.62749583662E+02  0.62749583662E+02  0.00000000000E+00 0.  1.
         21   -1    0    0  503  502  0.00000000000E+00 -0.00000000000E+00 -0.13972443501E+02  0.13972443501E+02  0.00000000000E+00 0. -1.
         21    1    1    2  503  501  0.12540760882E-01 -0.22414692954E+02 -0.67744495174E+00  0.22424931419E+02  0.00000000000E+00 0. -1.
          3    1    1    2  501    0 -0.12540760882E-01  0.22414692954E+02  0.49454585113E+02  0.54297095744E+02  0.00000000000E+00 0.  1.
</event>
<event>
 4    1  0.1643710E+006  0.2824604E+02  0.7546771E-02  0.1435478E+00
         21   -1    0    0  501  502  0.00000000000E+00  0.00000000000E+00  0.29423775445E+03  0.29423775445E+03  0.00000000000E+00 0. -1.
         -4   -1    0    0    0  501 -0.00000000000E+00 -0.00000000000E+00 -0.30651679948E+01  0.30651679948E+01  0.00000000000E+00 0.  1.
         21    1    1    2  503  502 -0.22414110494E+02 -0.17188552070E+02  0.19607715603E+03  0.19810121098E+03  0.00000000000E+00 0. -1.
         -4    1    1    2    0  503  0.22414110494E+02  0.17188552070E+02  0.95095430422E+02  0.99201711471E+02  0.00000000000E+00 0.  1.
</event>
<event>
 4    1  0.1643710E+006  0.2497432E+02  0.7546771E-02  0.1469091E+00
          1   -1    0    0  502    0 -0.00000000000E+00  0.00000000000E+00  0.75704416468E+03  0.75704416468E+03  0.00000000000E+00 0. -1.
         21   -1    0    0  503  502  0.00000000000E+00 -0.00000000000E+00 -0.12110097805E+01  0.12110097805E+01  0.00000000000E+00 0. -1.
         21    1    1    2  503  501  0.61112528906E+01  0.24215062364E+02  0.16355963807E+03  0.16545534704E+03  0.00000000000E+00 0. -1.
          1    1    1    2  501    0 -0.61112528906E+01 -0.24215062364E+02  0.59227351683E+03  0.59279982743E+03  0.00000000000E+00 0. -1.
</event>
<event>
 4    1  0.1643710E+006  0.2628928E+02  0.7546771E-02  0.1454881E+00
          1   -1    0    0  503    0 -0.00000000000E+00  0.00000000000E+00  0.64102416957E+02  0.64102416957E+02  0.00000000000E+00 0.  1.
         21   -1    0    0  501  502  0.00000000000E+00 -0.00000000000E+00 -0.17568902107E+02  0.17568902107E+02  0.00000000000E+00 0. -1.
         21    1    1    2  503  502  0.25701033403E+02  0.55301783393E+01 -0.21146772300E+01  0.26374189092E+02  0.00000000000E+00 0. -1.
          1    1    1    2  501    0 -0.25701033403E+02 -0.55301783393E+01  0.48648192080E+02  0.55297129972E+02  0.00000000000E+00 0.  1.
</event>
<event>
 4    1  0.1643710E+006  0.5593583E+02  0.7546771E-02  0.1274304E+00
          2   -1    0    0  503    0 -0.00000000000E+00  0.00000000000E+00  0.80064636374E+02  0.80064636374E+02  0.00000000000E+00 0.  1.
         21   -1    0    0  501  502  0.00000000000E+00 -0.00000000000E+00 -0.15571391992E+03  0.15571391992E+03  0.00000000000E+00 0. -1.
         21    1    1    2  503  502 -0.50722623109E+02  0.23580352632E+02 -0.13985409229E+03  0.15062531213E+03  0.00000000000E+00 0. -1.
          2    1    1    2  501    0  0.50722623109E+02 -0.23580352632E+02  0.64204808743E+02  0.85153244161E+02  0.00000000000E+00 0.  1.
</event>
<event>
 4    1  0.1643710E+006  0.2428792E+02  0.7546771E-02  0.1476929E+00
         -4   -1    0    0    0  501 -0.00000000000E+00  0.00000000000E+00  0.12487743607E+03  0.12487743607E+03  0.00000000000E+00 0.  1.
         21   -1    0    0  503  502  0.00000000000E+00 -0.00000000000E+00 -0.39433209433E+02  0.39433209433E+02  0.00000000000E+00 0.  1.
         21    1    1    2  503  501 -0.81727240863E+01 -0.22871593148E+02 -0.34355435852E+02  0.42073734856E+02  0.00000000000E+00 0.  1.
         -4    1    1    2    0  502  0.81727240863E+01  0.22871593148E+02  0.11979966249E+03  0.12223691065E+03  0.00000000000E+00 0.  1.
</event>
<event>
 4    1  0.1643710E+006  0.3043429E+02  0.7546771E-02  0.1415859E+00
          3   -1    0    0  503    0 -0.00000000000E+00  0.00000000000E+00  0.12231701210E+02  0.12231701210E+02  0.00000000000E+00 0.  1.
         21   -1    0    0  501  502  0.00000000000E+00 -0.00000000000E+00 -0.18290516219E+03  0.18290516219E+03  0.00000000000E+00 0. -1.
         21    1    1    2  503  502  0.14389460848E+02 -0.26817709074E+02 -0.16002518280E+03  0.16289353957E+03  0.00000000000E+00 0. -1.
          3    1    1    2  501    0 -0.14389460848E+02  0.26817709074E+02 -0.10648278183E+02  0.32243323832E+02  0.00000000000E+00 0.  1.
</event>
<event>
 4    1  0.1643710E+006  0.2124717E+02  0.7546771E-02  0.1515765E+00
         21   -1    0    0  501  502  0.00000000000E+00  0.00000000000E+00  0.61895044994E+01  0.61895044994E+01  0.00000000000E+00 0. -1.
          2   -1    0    0  503    0 -0.00000000000E+00 -0.00000000000E+00 -0.19589861956E+03  0.19589861956E+03  0.00000000000E+00 0. -1.
         21    1    1    2  503  502  0.87273672782E+01  0.19372021950E+02 -0.14801046199E+02  0.25894268528E+02  0.00000000000E+00 0. -1.
          2    1    1    2  501    0 -0.87273672782E+01 -0.19372021950E+02 -0.17490806887E+03  0.17619385554E+03  0.00000000000E+00 0. -1.
</event>
<event>
 4    1  0.1643710E+006  0.2275348E+02  0.7546771E-02  0.1495617E+00
         21   -1    0    0  501  502  0.00000000000E+00  0.00000000000E+00  0.26182233004E+02  0.26182233004E+02  0.00000000000E+00 0.  1.
         -2   -1    0    0    0  501 -0.00000000000E+00 -0.00000000000E+00 -0.53319220964E+02  0.53319220964E+02  0.00000000000E+00 0.  1.
         21    1    1    2  503  502  0.52968959961E+01 -0.22128348240E+02  0.17961227283E+02  0.28988387132E+02  0.00000000000E+00 0.  1.
         -2    1    1    2    0  503 -0.52968959961E+01  0.22128348240E+02 -0.45098215243E+02  0.50513066835E+02  0.00000000000E+00 0.  1.
</event>
<event>
 4    1  0.1643710E+006  0.2258153E+02  0.7546771E-02  0.1497821E+00
         21   -1    0    0  503  502  0.00000000000E+00  0.00000000000E+00  0.33713480553E+01  0.33713480553E+01  0.00000000000E+00 0.  1.
          2   -1    0    0  502    0 -0.00000000000E+00 -0.00000000000E+00 -0.19550438374E+03  0.19550438374E+03  0.00000000000E+00 0.  1.
         21    1    1    2  503  501  0.21875987735E+02  0.56006044425E+01 -0.48758115703E+02  0.53733410988E+02  0.00000000000E+00 0.  1.
          2    1    1    2  501    0 -0.21875987735E+02 -0.56006044425E+01 -0.14337491998E+03  0.14514232080E+03  0.00000000000E+00 0.  1.
</event>
<event>
 4    1  0.1643710E+006  0.5131409E+02  0.7546771E-02  0.1292573E+00
         21   -1    0    0  503  502  0.00000000000E+00  0.00000000000E+00  0.95851798464E+03  0.95851798464E+03  0.00000000000E+00 0.  1.
         -1   -1    0    0    0  501 -0.00000000000E+00 -0.00000000000E+00 -0.41574439521E+01  0.41574439521E+01  0.00000000000E+00 0. -1.
         21    1    1    2  503  501  0.50359391257E+02  0.98522805886E+01  0.75753033549E+03  0.75926632014E+03  0.00000000000E+00 0.  1.
         -1    1    1    2    0  502 -0.50359391257E+02 -0.98522805886E+01  0.19683020520E+03  0.20340910844E+03  0.00000000000E+00 0. -1.
</event>
<event>
 4    1  0.1643710E+006  0.2460445E+02  0.7546771E-02  0.1473277E+00
         -2   -1    0    0    0  501 -0.00000000000E+00  0.00000000000E+00  0.17247523136E+03  0.17247523136E+03  0.00000000000E+00 0.  1.
         21   -1    0    0  501  502  0.00000000000E+00 -0.00000000000E+00 -0.15534527465E+03  0.15534527465E+03  0.00000000000E+00 0. -1.
         21    1    1    2  503  502 -0.12383995327E+02 -0.21260660201E+02 -0.15348296061E+03  0.15544258815E+03  0.00000000000E+00 0. -1.
         -2    1    1    2    0  503  0.12383995327E+02  0.21260660201E+02  0.17061291732E+03  0.17237791787E+03  0.00000000000E+00 0.  1.
</event>
<event>
 4    1  0.1643710E+006  0.2116123E+02  0.7546771E-02  0.1516975E+00
          1   -1    0    0  502    0 -0.00000000000E+00  0.00000000000E+00  0.67191844563E+03  0.67191844563E+03  0.00000000000E+00 0.  1.
         21   -1    0    0  503  502  0.00000000000E+00 -0.00000000000E+00 -0.67787637667E+01  0.67787637667E+01  0.00000000000E+00 0.  1.
         21    1    1    2  503  501 -0.62730702296E-01  0.21161132593E+02  0.10334051161E+02  0.23549736329E+02  0.00000000000E+00 0.  1.
          1    1    1    2  501    0  0.62730702296E-01 -0.21161132593E+02  0.65480563070E+03  0.65514747307E+03  0.00000000000E+00 0.  1.
</event>
<event>
 4    1  0.1643710E+006  0.2555511E+02  0.7546771E-02  0.1462688E+00
         21   -1    0    0  501  502  0.00000000000E+00  0.00000000000E+00  0.55920927770E+00  0.55920927770E+00  0.00000000000E+00 0.  1.
          2   -1    0    0  503    0 -0.00000000000E+00 -0.00000000000E+00 -0.16593683699E+04  0.16593683699E+04  0.00000000000E+00 0. -1.
         21    1    1    2  503  502 -0.24777857987E+02  0.62547158033E+01 -0.37768948826E+03  0.37855305210E+03  0.00000000000E+00 0.  1.
          2    1    1    2  501    0  0.24777857987E+02 -0.62547158033E+01 -0.12811196724E+04  0.12813745271E+04  0.00000000000E+00 0. -1.
</event>
<event>
 4    1  0.1643710E+006  0.2992514E+02  0.7546771E-02  0.1420248E+00
          3   -1    0    0  502    0 -0.00000000000E+00  0.00000000000E+00  0.25324988809E+03  0.25324988809E+03  0.00000000000E+00 0. -1.
         21   -1    0    0  503  502  0.00000000000E+00 -0.00000000000E+00 -0.44797363602E+01  0.44797363602E+01  0.00000000000E+00 0. -1.
         21    1    1    2  503  501 -0.95194494214E+01 -0.28370654179E+02  0.65240738464E+02  0.71776513506E+02  0.00000000000E+00 0. -1.
          3    1    1    2  501    0  0.95194494214E+01  0.28370654179E+02  0.18352941327E+03  0.18595311095E+03  0.00000000000E+00 0. -1.
</event>
<event>
 4    1  0.1643710E+006  0.2249816E+02  0.7546771E-02  0.1498898E+00
         21   -1    0    0  501  502  0.00000000000E+00  0.00000000000E+00  0.51105791328E+02  0.51105791328E+02  0.00000000000E+00 0.  1.
          2   -1    0    0  503    0 -0.00000000000E+00 -0.00000000000E+00 -0.87049893999E+03  0.87049893999E+03  0.00000000000E+00 0.  1.
         21    1    1    2  503  502  0.21719076310E+02  0.58693074583E+01  0.48476850371E+02  0.53443166708E+02  0.00000000000E+00 0.  1.
          2    1    1    2  501    0 -0.21719076310E+02 -0.58693074583E+01 -0.86786999903E+03  0.86816156461E+03  0.00000000000E+00 0.  1.
</event>
<event>
 4    1  0.1643710E+006  0.2175344E+02  0.7546771E-02  0.1508774E+00
         21   -1    0    0  503  502  0.00000000000E+00  0.00000000000E+00  0.26184876048E+01  0.26184876048E+01  0.00000000000E+00 0.  1.
          2   -1    0    0  502    0 -0.00000000000E+00 -0.00000000000E+00 -0.59535481229E+03  0.59535481229E+03  0.00000000000E+00 0. -1.
         21    1    1    2  503  501 -0.94101687339E+01  0.19612770398E+02 -0.46852993871E+02  0.51656704046E+02  0.00000000000E+00 0.  1.
          2    1    1    2  501    0  0.94101687339E+01 -0.19612770398E+02 -0.54588333082E+03  0.54631659585E+03  0.00000000000E+00 0. -1.
</event>
<event>
 4    1  0.1643710E+006  0.2067307E+02  0.7546771E-02  0.1523984E+00
          2   -1    0    0  503    0 -0.00000000000E+00  0.00000000000E+00  0.11450433228E+04  0.11450433228E+04  0.00000000000E+00 0. -1.
         21   -1    0    0  501  502  0.00000000000E+00 -0.00000000000E+00 -0.86377607018E+00  0.86377607018E+00  0.00000000000E+00 0.  1.
         21    1    1    2  503  502  0.10673335528E+02  0.17704678827E+02  0.14031785696E+03  0.14183256582E+03  0.00000000000E+00 0.  1.
          2    1    1    2  501    0 -0.10673335528E+02 -0.17704678827E+02  0.10038616898E+04  0.10040745331E+04  0.00000000000E+00 0. -1.
</event>
<event>
 4    1  0.1643710E+006  0.2160096E+02  0.7546771E-02  0.1510855E+00
         -4   -1    0    0    0  501 -0.00000000000E+00  0.00000000000E+00  0.87604915784E+02  0.87604915784E+02  0.00000000000E+00 0. -1.
         21   -1    0    0  503  502  0.00000000000E+00 -0.00000000000E+00 -0.20752832168E+02  0.20752832168E+02  0.00000000000E+00 0. -1.
         21    1    1    2  503  501 -0.33729052544E+01 -0.21335998906E+02 -0.13285784135E+02  0.25359680583E+02  0.00000000000E+00 0. -1.
         -4    1    1    2    0  502  0.33729052544E+01  0.21335998906E+02  0.80137867752E+02  0.82998067369E+02  0.00000000000E+00 0. -1.
</event>
<event>
 4    1  0.1643710E+006  0.2467792E+02  0.7546771E-02  0.1472439E+00
         21   -1    0    0  501  502  0.00000000000E+00  0.00000000000E+00  0.12153972864E+02  0.12153972864E+02  0.00000000000E+00 0.  1.
          3   -1    0    0  503    0 -0.00000000000E+00 -0.00000000000E+00 -0.51745987354E+02  0.51745987354E+02  0.00000000000E+00 0.  1.
         21    1    1    2  503  502  0.18718286689E+02 -0.16081843975E+02 -0.25482059614E+02  0.35473022487E+02  0.00000000000E+00 0.  1.
          3    1    1    2  501    0 -0.18718286689E+02  0.16081843975E+02 -0.14109954876E+02  0.28426937732E+02  0.00000000000E+00 0.  1.
</event>
<event>
 4    1  0.1643710E+006  0.2860206E+02  0.7546771E-02  0.1432146E+00
         -4   -1    0    0    0  501 -0.00000000000E+00  0.00000000000E+00  0.30974702737E+02  0.30974702737E+02  0.00000000000E+00 0. -1.
         21   -1    0    0  501  502  0.00000000000E+00 -0.00000000000E+00 -0.34934396107E+02  0.34934396107E+02  0.00000000000E+00 0. -1.
         21    1    1    2  503  502 -0.27564490322E+02  0.76339121466E+01 -0.18257473608E+02  0.33932478305E+02  0.00000000000E+00 0. -1.
         -4    1    1    2    0  503  0.27564490322E+02 -0.76339121466E+01  0.14297780238E+02  0.31976620540E+02  0.00000000000E+00 0. -1.
</event>
<event>
 4    1  0.1643710E+006  0.2330170E+02  0.7546771E-02  0.1488744E+00
          3   -1    0    0  502    0 -0.00000000000E+00  0.00000000000E+00  0.48171952033E+03  0.48171952033E+03  0.00000000000E+00 0. -1.
         21   -1    0    0  503  502  0.00000000000E+00 -0.00000000000E+00 -0.14556328285E+01  0.14556328285E+01  0.00000000000E+00 0.  1.
         21    1    1    2  503  501  0.16710792117E+02 -0.16239412055E+02  0.12536772757E+03  0.12751484695E+03  0.00000000000E+00 0.  1.
          3    1    1    2  501    0 -0.16710792117E+02  0.16239412055E+02  0.35489615993E+03  0.35566030621E+03  0.00000000000E+00 0. -1.
</event>
<event>
 4    1  0.1643710E+006  0.2353150E+02  0.7546771E-02  0.1485930E+00
         21   -1    0    0  501  502  0.00000000000E+00  0.00000000000E+00  0.11695048492E+04  0.11695048492E+04  0.00000000000E+00 0.  1.
          1   -1    0    0  503    0 -0.00000000000E+00 -0.00000000000E+00 -0.11289948119E+02  0.11289948119E+02  0.00000000000E+00 0. -1.
         21    1    1    2  503  502  0.95118546378E+01 -0.21523387451E+02  0.11569922819E+04  0.11572315551E+04  0.00000000000E+00 0.  1.
          1    1    1    2  501    0 -0.95118546378E+01  0.21523387451E+02  0.12226191055E+01  0.23563242211E+02  0.00000000000E+00 0. -1.
</event>
<event>
 4    1  0.1643710E+006  0.4437548E+02  0.7546771E-02  0.1324592E+00
          2   -1    0    0  502    0 -0.00000000000E+00  0.00000000000E+00  0.11002667216E+04  0.11002667216E+04  0.00000000000E+00 0. -1.
         21   -1    0    0  503  502  0.00000000000E+00 -0.00000000000E+00 -0.26985575684E+01  0.26985575684E+01  0.00000000000E+00 0. -1.
         21    1    1    2  503  501 -0.26038019262E+02 -0.35933340968E+02  0.22874274268E+03  0.23300735132E+03  0.00000000000E+00 0. -1.
          2    1    1    2  501    0  0.26038019262E+02  0.35933340968E+02  0.86882542132E+03  0.86995792781E+03  0.00000000000E+00 0. -1.
</event>
<event>
 4    1  0.1643710E+006  0.2091786E+02  0.7546771E-02  0.1520441E+00
          3   -1    0    0  503    0 -0.00000000000E+00  0.00000000000E+00  0.10148163187E+03  0.10148163187E+03  0.00000000000E+00 0. -1.
         21   -1    0    0  501  502  0.00000000000E+00 -0.00000000000E+00 -0.45731362136E+01  0.45731362136E+01  0.00000000000E+00 0.  1.
         21    1    1    2  503  502  0.69771628477E+01 -0.19719944632E+02  0.35775191586E+02  0.41441782668E+02  0.00000000000E+00 0.  1.
          3    1    1    2  501    0 -0.69771628477E+01  0.19719944632E+02  0.61133304066E+02  0.64612985411E+02  0.00000000000E+00 0. -1.
</event>
<event>
 4    1  0.1643710E+006  0.4168963E+02  0.7546771E-02  0.1338859E+00
         21   -1    0    0  503  502  0.00000000000E+00  0.00000000000E+00  0.21599342098E+01  0.21599342098E+01  0.00000000000E+00 0. -1.
          2   -1    0    0  502    0 -0.00000000000E+00 -0.00000000000E+00 -0.97602328509E+03  0.97602328509E+03  0.00000000000E+00 0. -1.
         21    1    1    2  503  501  0.12225964388E+02  0.39856626864E+02 -0.28199870903E+03  0.28506367149E+03  0.00000000000E+00 0. -1.
          2    1    1    2  501    0 -0.12225964388E+02 -0.39856626864E+02 -0.69186464185E+03  0.69311954781E+03  0.00000000000E+00 0. -1.
</event>
<event>
 4    1  0.1643710E+006  0.3659377E+02  0.7546771E-02  0.1369692E+00
          2   -1    0    0  503    0 -0.00000000000E+00  0.00000000000E+00  0.11443526988E+03  0.11443526988E+03  0.00000000000E+00 0. -1.
         21   -1    0    0  501  502  0.00000000000E+00 -0.00000000000E+00 -0.23724073070E+02  0.23724073070E+02  0.00000000000E+00 0.  1.
         21    1    1    2  503  502  0.14606665443E+02 -0.33552188726E+02 -0.38198216540E+01  0.36792595466E+02  0.00000000000E+00 0.  1.
          2    1    1    2  501    0 -0.14606665443E+02  0.33552188726E+02  0.94531018467E+02  0.10136674749E+03  0.00000000000E+00 0. -1.
</event>
<event>
 4    1  0.1643710E+006  0.2490768E+02  0.7546771E-02  0.1469839E+00
          2   -1    0    0  503    0 -0.00000000000E+00  0.00000000000E+00  0.86054553597E+02  0.86054553597E+02  0.00000000000E+00 0. -1.
         21   -1    0    0  501  502  0.00000000000E+00 -0.00000000000E+00 -0.13543052479E+02  0.13543052479E+02  0.00000000000E+00 0.  1.
         21    1    1    2  503  502 -0.24424719788E+01  0.24787631684E+02  0.21999211496E+01  0.25004639708E+02  0.00000000000E+00 0.  1.
          2    1    1    2  501    0  0.24424719788E+01 -0.24787631684E+02  0.70311579969E+02  0.74592966368E+02  0.00000000000E+00 0. -1.
</event>
<event>
 4    1  0.1643710E+006  0.2791339E+02  0.7546771E-02  0.1438643E+00
          1   -1    0    0  502    0 -0.00000000000E+00  0.00000000000E+00  0.12312593832E+04  0.12312593832E+04  0.00000000000E+00 0. -1.
         21   -1    0    0  503  502  0.00000000000E+00 -0.00000000000E+00 -0.14278427895E+01  0.14278427895E+01  0.00000000000E+00 0.  1.
         21    1    1    2  503  501 -0.26107869827E+02  0.98760571967E+01  0.15500422766E+03  0.15749751733E+03  0.00000000000E+00 0.  1.
          1    1    1    2  501    0  0.26107869827E+02 -0.98760571967E+01  0.10748273128E+04  0.10751897087E+04  0.00000000000E+00 0. -1.
</event>
<event>
 4    1  0.1643710E+006  0.2002605E+02  0.7546771E-02  0.1533638E+00
         21   -1    0    0  501  502  0.00000000000E+00  0.00000000000E+00  0.15016649353E+01  0.15016649353E+01  0.00000000000E+00 0. -1.
         -1   -1    0    0    0  501 -0.00000000000E+00 -0.00000000000E+00 -0.58213119224E+03  0.58213119224E+03  0.00000000000E+00 0. -1.
         21    1    1    2  503  502  0.16162333843E+02  0.11824620007E+02 -0.75630623165E+02  0.78237036204E+02  0.00000000000E+00 0. -1.
         -1    1    1    2    0  503 -0.16162333843E+02 -0.11824620007E+02 -0.50499890414E+03  0.50539582097E+03  0.00000000000E+00 0. -1.
</event>
<event>
 4    1  0.1643710E+006  0.2080443E+02  0.7546771E-02  0.1522076E+00
         21   -1    0    0  503  502  0.00000000000E+00  0.00000000000E+00  0.46826037506E+00  0.46826037506E+00  0.00000000000E+00 0. -1.
          1   -1    0    0  502    0 -0.00000000000E+00 -0.00000000000E+00 -0.13754028549E+04  0.13754028549E+04  0.00000000000E+00 0. -1.
         21    1    1    2  503  501  0.20743212328E+02  0.15948188402E+01 -0.29350103732E+03  0.29423746058E+03  0.00000000000E+00 0. -1.
          1    1    1    2  501    0 -0.20743212328E+02 -0.15948188402E+01 -0.10814335572E+04  0.10816336547E+04  0.00000000000E+00 0. -1.
</event>
<event>
 4    1  0.1643710E+006  0.2775211E+02  0.7546771E-02  0.1440196E+00
         -4   -1    0    0    0  501 -0.00000000000E+00  0.00000000000E+00  0.54661316808E+02  0.54661316808E+02  0.00000000000E+00 0.  1.
         21   -1    0    0  501  502  0.00000000000E+00 -0.00000000000E+00 -0.27517882235E+02  0.27517882235E+02  0.00000000000E+00 0.  1.
         21    1    1    2  503  502 -0.27743364786E+02  0.69667726568E+00 -0.15131307431E+02  0.31609114404E+02  0.00000000000E+00 0.  1.
         -4    1    1    2    0  503  0.27743364786E+02 -0.69667726568E+00  0.42274742004E+02  0.50570084639E+02  0.00000000000E+00 0.  1.
</event>
<event>
 4    1  0.1643710E+006  0.2274065E+02  0.7546771E-02  0.1495781E+00
          4   -1    0    0  503    0 -0.00000000000E+00  0.00000000000E+00  0.11187271461E+02  0.11187271461E+02  0.00000000000E+00 0. -1.
         21   -1    0    0  501  502  0.00000000000E+00 -0.00000000000E+00 -0.92895979237E+02  0.92895979237E+02  0.00000000000E+00 0. -1.
         21    1    1    2  503  502  0.34813595771E+01 -0.22472585415E+02 -0.77741378927E+02  0.80999129361E+02  0.00000000000E+00 0. -1.
          4    1    1    2  501    0 -0.34813595771E+01  0.22472585415E+02 -0.39673288492E+01  0.23084121338E+02  0.00000000000E+00 0. -1.
</event>
<event>
 4    1  0.1643710E+006  0.2803200E+02  0.7546771E-02  0.1437508E+00
         21   -1    0    0  501  502  0.00000000000E+00  0.00000000000E+00  0.29305424799E+03  0.29305424799E+03  0.00000000000E+00 0.  1.
         -1   -1    0    0    0  501 -0.00000000000E+00 -0.00000000000E+00 -0.66024689977E+02  0.66024689977E+02  0.00000000000E+00 0.  1.
         21    1    1    2  503  502 -0.70587597862E+01  0.27128707298E+02  0.28937073916E+03  0.29072533005E+03  0.00000000000E+00 0.  1.
         -1    1    1    2    0  503  0.70587597862E+01 -0.27128707298E+02 -0.62341181144E+02  0.68353607921E+02  0.00000000000E+00 0.  1.
</event>
<event>
 4    1  0.1643710E+006  0.4745931E+02  0.7546771E-02  0.1309580E+00
          1   -1    0    0  503    0 -0.00000000000E+00  0.00000000000E+00  0.10622322882E+03  0.10622322882E+03  0.00000000000E+00 0.  1.
         21   -1    0    0  501  502  0.00000000000E+00 -0.00000000000E+00 -0.48179266806E+03  0.48179266806E+03  0.00000000000E+00 0. -1.
         21    1    1    2  503  502  0.32069303212E+01 -0.47350832831E+02 -0.47525005147E+03  0.47761385783E+03  0.00000000000E+00 0. -1.
          1    1    1    2  501    0 -0.32069303212E+01  0.47350832831E+02  0.99680612228E+02  0.11040203905E+03  0.00000000000E+00 0.  1.
</event>
<event>
 4    1  0.1643710E+006  0.2141876E+02  0.7546771E-02  0.1513369E+00
         -2   -1    0    0    0  501 -0.00000000000E+00  0.00000000000E+00  0.20860253825E+01  0.20860253825E+01  0.00000000000E+00 0.  1.
         21   -1    0    0  501  502  0.00000000000E+00 -0.00000000000E+00 -0.68429022834E+03  0.68429022834E+03  0.00000000000E+00 0. -1.
         21    1    1    2  503  502 -0.20484940624E+02  0.62554360421E+01 -0.62381345179E+03  0.62418105218E+03  0.00000000000E+00 0. -1.
         -2    1    1    2    0  503  0.20484940624E+02 -0.62554360421E+01 -0.58390751175E+02  0.62195201545E+02  0.00000000000E+00 0.  1.
</event>
<event>
 4    1  0.1643710E+006  0.2007765E+02  0.7546771E-02  0.1532852E+00
         21   -1    0    0  501  502  0.00000000000E+00  0.00000000000E+00  0.76378388075E+01  0.76378388075E+01  0.00000000000E+00 0.  1.
          3   -1    0    0  503    0 -0.00000000000E+00 -0.00000000000E+00 -0.87271929955E+03  0.87271929955E+03  0.00000000000E+00 0.  1.
         21    1    1    2  503  502 -0.12502787598E+02 -0.15709623329E+02 -0.58797644606E+01  0.20920888915E+02  0.00000000000E+00 0.  1.
          3    1    1    2  501    0  0.12502787598E+02  0.15709623329E+02 -0.85920169628E+03  0.85943624944E+03  0.00000000000E+00 0.  1.
</event>
<event>
 4    1  0.1643710E+006  0.3040050E+02  0.7546771E-02  0.1416147E+00
          3   -1    0    0  503    0 -0.00000000000E+00  0.00000000000E+00  0.13668687941E+03  0.13668687941E+03  0.00000000000E+00 0.  1.
         21   -1    0    0  501  502  0.00000000000E+00 -0.00000000000E+00 -0.14778235135E+03  0.14778235135E+03  0.00000000000E+00 0.  1.
         21    1    1    2  503  502  0.95230792364E+01  0.28870422221E+02 -0.14449048447E+03  0.14765395498E+03  0.00000000000E+00 0.  1.
          3    1    1    2  501    0 -0.95230792364E+01 -0.28870422221E+02  0.13339501254E+03  0.13681527578E+03  0.00000000000E+00 0.  1.
</event>
<event>
 4    1  0.1643710E+006  0.3150901E+02  0.7546771E-02  0.1406921E+00
          1   -1    0    0  503    0 -0.00000000000E+00  0.00000000000E+00  0.37518020497E+02  0.37518020497E+02  0.00000000000E+00 0.  1.
         21   -1    0    0  501  502  0.00000000000E+00 -0.00000000000E+00 -0.86305721977E+03  0.86305721977E+03  0.00000000000E+00 0.  1.
         21    1    1    2  503  502 -0.30900044468E+02  0.61648095794E+01 -0.85610028503E+03  0.85667993770E+03  0.00000000000E+00 0.  1.
          1    1    1    2  501    0  0.30900044468E+02 -0.61648095794E+01  0.30561085755E+02  0.43895302571E+02  0.00000000000E+00 0.  1.
</event>
<event>
 4    1  0.1643710E+006  0.2084982E+02  0.7546771E-02  0.1521420E+00
         21   -1    0    0  501  502  0.00000000000E+00  0.00000000000E+00  0.16835539597E+02  0.16835539597E+02  0.00000000000E+00 0.  1.
          2   -1    0    0  503    0 -0.00000000000E+00 -0.00000000000E+00 -0.11392508681E+04  0.11392508681E+04  0.00000000000E+00 0.  1.
         21    1    1    2  503  502 -0.20213738613E+02  0.51107441009E+01  0.10247283495E+02  0.23231912384E+02  0.00000000000E+00 0.  1.
          2    1    1    2  501    0  0.20213738613E+02 -0.51107441009E+01 -0.11326626120E+04  0.11328544953E+04  0.00000000000E+00 0.  1.
</event>
<event>
 4    1  0.1643710E+006  0.5701959E+02  0.7546771E-02  0.1270310E+00
          2   -1    0    0  502    0 -0.00000000000E+00  0.00000000000E+00  0.34088018918E+04  0.34088018918E+04  0.00000000000E+00 0. -1.
         21   -1    0    0  503  502  0.00000000000E+00 -0.00000000000E+00 -0.68755291176E+01  0.68755291176E+01  0.00000000000E+00 0. -1.
         21    1    1    2  503  501  0.50789570995E+02  0.25916280518E+02  0.11600089894E+03  0.12925727319E+03  0.00000000000E+00 0. -1.
          2    1    1    2  501    0 -0.50789570995E+02 -0.25916280518E+02  0.32859254638E+04  0.32864201477E+04  0.00000000000E+00 0. -1.
</event>
<event>
 4    1  0.1643710E+006  0.2974601E+02  0.7546771E-02  0.1421817E+00
         -3   -1    0    0    0  501 -0.00000000000E+00  0.00000000000E+00  0.56853130674E+03  0.56853130674E+03  0.00000000000E+00 0. -1.
         21   -1    0    0  503  502  0.00000000000E+00 -0.00000000000E+00 -0.13556694737E+02  0.13556694737E+02  0.00000000000E+00 0. -1.
         21    1    1    2  503  501 -0.24235266511E+02 -0.17247514709E+02  0.36586567079E+01  0.29970163086E+02  0.00000000000E+00 0. -1.
         -3    1    1    2    0  502  0.24235266511E+02  0.17247514709E+02  0.55131595529E+03  0.55211783839E+03  0.00000000000E+00 0. -1.
</event>
<event>
 4    1  0.1643710E+006  0.2050044E+02  0.7546771E-02  0.1526518E+00
          3   -1    0    0  503    0 -0.00000000000E+00  0.00000000000E+00  0.21154340031E+01  0.21154340031E+01  0.00000000000E+00 0.  1.
         21   -1    0    0  501  502  0.00000000000E+00 -0.00000000000E+00 -0.29774987050E+03  0.29774987050E+03  0.00000000000E+00 0. -1.
         21    1    1    2  503  502 -0.96393287943E+01  0.18092849945E+02 -0.23430778381E+03  0.23520290269E+03  0.00000000000E+00 0. -1.
          3    1    1    2  501    0  0.96393287943E+01 -0.18092849945E+02 -0.61326652686E+02  0.64662401815E+02  0.00000000000E+00 0.  1.
</event>
<event>
 4    1  0.1643710E+006  0.2043530E+02  0.7546771E-02  0.1527482E+00
         21   -1    0    0  503  502  0.00000000000E+00  0.00000000000E+00  0.42543595494E+03  0.42543595494E+03  0.00000000000E+00 0. -1.
         -1   -1    0    0    0  501 -0.00000000000E+00 -0.00000000000E+00 -0.14488995469E+01  0.14488995469E+01  0.00000000000E+00 0.  1.
         21    1    1    2  503  501 -0.10896242595E+02  0.17287957780E+02  0.33321127937E+03  0.33383732308E+03  0.00000000000E+00 0. -1.
         -1    1    1    2    0  502  0.10896242595E+02 -0.17287957780E+02  0.90775776023E+02  0.93047531399E+02  0.00000000000E+00 0.  1.
</event>
<event>
 4    1  0.1643710E+006  0.3947014E+02  0.7546771E-02  0.1351619E+00
          2   -1    0    0  503    0 -0.00000000000E+00  0.00000000000E+00  0.80996164937E+03  0.80996164937E+03  0.00000000000E+00 0. -1.
         21   -1    0    0  501  502  0.00000000000E+00 -0.00000000000E+00 -0.65713821674E+01  0.65713821674E+01  0.00000000000E+00 0. -1.
         21    1    1    2  503  502  0.39445281420E+02  0.14005937378E+01  0.58337304492E+02  0.70435310637E+02  0.00000000000E+00 0. -1.
          2    1    1    2  501    0 -0.39445281420E+02 -0.14005937378E+01  0.74505296272E+03  0.74609772091E+03  0.00000000000E+00 0. -1.
</event>
<event>
 4    1  0.1643710E+006  0.2705275E+02  0.7546771E-02  0.1447079E+00
         21   -1    0    0  503  502  0.00000000000E+00  0.00000000000E+00  0.24313438473E+03  0.24313438473E+03  0.00000000000E+00 0. -1.
         -1   -1    0    0    0  501 -0.00000000000E+00 -0.00000000000E+00 -0.32475957284E+01  0.32475957284E+01  0.00000000000E+00 0. -1.
         21    1    1    2  503  501 -0.20251915821E+02 -0.17936313310E+02  0.15325945371E+03  0.15562876206E+03  0.00000000000E+00 0. -1.
         -1    1    1    2    0  502  0.20251915821E+02  0.17936313310E+02  0.86627335296E+02  0.90753218400E+02  0.00000000000E+00 0. -1.
</event>
<event>
 4    1  0.1643710E+006  0.2548981E+02  0.7546771E-02  0.1463398E+00
         -4   -1    0    0    0  501 -0.00000000000E+00  0.00000000000E+00  0.32999563382E+01  0.32999563382E+01  0.00000000000E+00 0.  1.
         21   -1    0    0  503  502  0.00000000000E+00 -0.00000000000E+00 -0.32943451683E+03  0.32943451683E+03  0.00000000000E+00 0.  1.
         21    1    1    2  503  501  0.15368498185E+02  0.20335671716E+02 -0.26859418592E+03  0.26980097663E+03  0.00000000000E+00 0.  1.
         -4    1    1    2    0  502 -0.15368498185E+02 -0.20335671716E+02 -0.57540374570E+02  0.62933496536E+02  0.00000000000E+00 0.  1.
</event>
<event>
 4    1  0.1643710E+006  0.4456918E+02  0.7546771E-02  0.1323608E+00
         21   -1    0    0  503  502  0.00000000000E+00  0.00000000000E+00  0.16235241465E+02  0.16235241465E+02  0.00000000000E+00 0. -1.
          2   -1    0    0  502    0 -0.00000000000E+00 -0.00000000000E+00 -0.12458675265E+04  0.12458675265E+04  0.00000000000E+00 0. -1.
         21    1    1    2  503  501  0.30144464637E+02 -0.32828690989E+02 -0.15551905904E+02  0.47204591700E+02  0.00000000000E+00 0. -1.
          2    1    1    2  501    0 -0.30144464637E+02  0.32828690989E+02 -0.12140803792E+04  0.12148981763E+04  0.00000000000E+00 0. -1.
</event>
<event>
 4    1  0.1643710E+006  0.2088925E+02  0.7546771E-02  0.1520852E+00
         21   -1    0    0  501  502  0.00000000000E+00  0.00000000000E+00  0.14310183258E+02  0.14310183258E+02  0.00000000000E+00 0.  1.
          1   -1    0    0  503    0 -0.00000000000E+00 -0.00000000000E+00 -0.40359324051E+02  0.40359324051E+02  0.00000000000E+00 0.  1.
         21    1    1    2  503  502  0.15779984412E+01 -0.20829566680E+02  0.49055647879E+00  0.20895013109E+02  0.00000000000E+00 0.  1.
          1    1    1    2  501    0 -0.15779984412E+01  0.20829566680E+02 -0.26539697272E+02  0.33774494200E+02  0.00000000000E+00 0.  1.
</event>
<event>
 4    1  0.1643710E+006  0.4168427E+02  0.7546771E-02  0.1338889E+00
         21   -1    0    0  501  502  0.00000000000E+00  0.00000000000E+00  0.19666406808E+03  0.19666406808E+03  0.00000000000E+00 0. -1.
          1   -1    0    0  503    0 -0.00000000000E+00 -0.00000000000E+00 -0.37087796626E+02  0.37087796626E+02  0.00000000000E+00 0. -1.
         21    1    1    2  503  502 -0.40584127711E+02 -0.95135280198E+01  0.18179708570E+03  0.18651476887E+03  0.00000000000E+00 0. -1.
          1    1    1    2  501    0  0.40584127711E+02  0.95135280198E+01 -0.22220814245E+02  0.47237095838E+02  0.00000000000E+00 0. -1.
</event>
<event>
 4    1  0.1643710E+006  0.2009372E+02  0.7546771E-02  0.1532608E+00
         21   -1    0    0  503  502  0.00000000000E+00  0.00000000000E+00  0.56707725068E+01  0.56707725068E+01  0.00000000000E+00 0.  1.
          1   -1    0    0  502    0 -0.00000000000E+00 -0.00000000000E+00 -0.93336785729E+02  0.93336785729E+02  0.00000000000E+00 0.  1.
         21    1    1    2  503  501 -0.59903400228E+01 -0.19180026648E+02 -0.19724425687E+02  0.28156891953E+02  0.00000000000E+00 0.  1.
          1    1    1    2  501    0  0.59903400228E+01  0.19180026648E+02 -0.67941587536E+02  0.70850666283E+02  0.00000000000E+00 0.  1.
</event>
<event>
 4    1  0.1643710E+006  0.2216054E+02  0.7546771E-02  0.1503317E+00
         -3   -1    0    0    0  501 -0.00000000000E+00  0.00000000000E+00  0.89992687495E+03  0.89992687495E+03  0.00000000000E+00 0. -1.
         21   -1    0    0  503  502  0.00000000000E+00 -0.00000000000E+00 -0.74719161906E+01  0.74719161906E+01  0.00000000000E+00 0.  1.
         21    1    1    2  503  501  0.15817466171E+02  0.15520862260E+02  0.94097565453E+01  0.24075566859E+02  0.00000000000E+00 0.  1.
         -3    1    1    2    0  502 -0.15817466171E+02 -0.15520862260E+02  0.88304520221E+03  0.88332322428E+03  0.00000000000E+00 0. -1.
</event>
<event>
 4    1  0.1643710E+006  0.2200364E+02  0.7546771E-02  0.1505403E+00
          1   -1    0    0  503    0 -0.00000000000E+00  0.00000000000E+00  0.78745628536E+01  0.78745628536E+01  0.00000000000E+00 0. -1.
         21   -1    0    0  501  502  0.00000000000E+00 -0.00000000000E+00 -0.63239680554E+02  0.63239680554E+02  0.00000000000E+00 0.  1.
         21    1    1    2  503  502  0.54042764287E+01  0.21329646435E+02 -0.33607011850E+02  0.40169531566E+02  0.00000000000E+00 0.  1.
          1    1    1    2  501    0 -0.54042764287E+01 -0.21329646435E+02 -0.21758105850E+02  0.30944711841E+02  0.00000000000E+00 0. -1.
</event>
<event>
 4    1  0.1643710E+006  0.3714392E+02  0.7546771E-02  0.1366087E+00
         -2   -1    0    0    0  501 -0.00000000000E+00  0.00000000000E+00  0.78222565184E+01  0.78222565184E+01  0.00000000000E+00 0. -1.
         21   -1    0    0  503  502  0.00000000000E+00 -0.00000000000E+00 -0.30474909302E+03  0.30474909302E+03  0.00000000000E+00 0.  1.
         21    1    1    2  503  501  0.20268019791E+02 -0.31126805190E+02 -0.24989712618E+03  0.25264252275E+03  0.00000000000E+00 0.  1.
         -2    1    1    2    0  502 -0.20268019791E+02  0.31126805190E+02 -0.47029710323E+02  0.59928826792E+02  0.00000000000E+00 0. -1.
</event>
<event>
 4    1  0.1643710E+006  0.2019763E+02  0.7546771E-02  0.1531036E+00
         -4   -1    0    0    0  501 -0.00000000000E+00  0.00000000000E+00  0.14749658175E+02  0.14749658175E+02  0.00000000000E+00 0.  1.
         21   -1    0    0  503  502  0.00000000000E+00 -0.00000000000E+00 -0.29510999306E+02  0.29510999306E+02  0.00000000000E+00 0.  1.
         21    1    1    2  503  501  0.13798535865E+02 -0.14749396883E+02 -0.12926256025E+02  0.23979833095E+02  0.00000000000E+00 0.  1.
         -4    1    1    2    0  502 -0.13798535865E+02  0.14749396883E+02 -0.18350851068E+01  0.20280824386E+02  0.00000000000E+00 0.  1.
</event>
<event>
 4    1  0.1643710E+006  0.2520376E+02  0.7546771E-02  0.1466537E+00
          2   -1    0    0  503    0 -0.00000000000E+00  0.00000000000E+00  0.62936148663E+02  0.62936148663E+02  0.00000000000E+00 0. -1.
         21   -1    0    0  501  502  0.00000000000E+00 -0.00000000000E+00 -0.24623682581E+03  0.24623682581E+03  0.00000000000E+00 0. -1.
         21    1    1    2  503  502  0.24996038391E+02  0.32292089530E+01 -0.24303542819E+03  0.24433879979E+03  0.00000000000E+00 0. -1.
          2    1    1    2  501    0 -0.24996038391E+02 -0.32292089530E+01  0.59734751040E+02  0.64834174688E+02  0.00000000000E+00 0. -1.
</event>
<event>
 4    1  0.1643710E+006  0.2366071E+02  0.7546771E-02  0.1484364E+00
         21   -1    0    0  501  502  0.00000000000E+00  0.00000000000E+00  0.81460934572E+02  0.81460934572E+02  0.00000000000E+00 0.  1.
          4   -1    0    0  503    0 -0.00000000000E+00 -0.00000000000E+00 -0.10314836158E+02  0.10314836158E+02  0.00000000000E+00 0.  1.
         21    1    1    2  503  502 -0.19722537234E+02 -0.13070979997E+02  0.62082592863E+02  0.66438522934E+02  0.00000000000E+00 0.  1.
          4    1    1    2  501    0  0.19722537234E+02  0.13070979997E+02  0.90635055514E+01  0.25337247797E+02  0.00000000000E+00 0.  1.
</event>
<event>
 4    1  0.1643710E+006  0.2445585E+02  0.7546771E-02  0.1474984E+00
         21   -1    0    0  503  502  0.00000000000E+00  0.00000000000E+00  0.14291500958E+02  0.14291500958E+02  0.00000000000E+00 0. -1.
          2   -1    0    0  502    0 -0.00000000000E+00 -0.00000000000E+00 -0.38958623891E+03  0.38958623891E+03  0.00000000000E+00 0.  1.
         21    1    1    2  503  501 -0.13062413057E+02  0.20675149951E+02  0.31373418153E+01  0.24656264398E+02  0.00000000000E+00 0. -1.
          2    1    1    2  501    0  0.13062413057E+02 -0.20675149951E+02 -0.37843207977E+03  0.37922147547E+03  0.00000000000E+00 0.  1.
</event>
<event>
 4    1  0.1643710E+006  0.2830150E+02  0.7546771E-02  0.1434955E+00
          2   -1    0    0  503    0 -0.00000000000E+00  0.00000000000E+00  0.15452156451E+02  0.15452156451E+02  0.00000000000E+00 0. -1.
         21   -1    0    0  501  502  0.00000000000E+00 -0.00000000000E+00 -0.79478144735E+02  0.79478144735E+02  0.00000000000E+00 0. -1.
         21    1    1    2  503  502 -0.68870838792E+01 -0.27450735915E+02 -0.60005287125E+02  0.66344625325E+02  0.00000000000E+00 0. -1.
          2    1    1    2  501    0  0.68870838792E+01  0.27450735915E+02 -0.40207011588E+01  0.28585675861E+02  0.00000000000E+00 0. -1.
</event>
<event>
 4    1  0.1643710E+006  0.2799501E+02  0.7546771E-02  0.1437861E+00
          2   -1    0    0  503    0 -0.00000000000E+00  0.00000000000E+00  0.38416890223E+03  0.38416890223E+03  0.00000000000E+00 0. -1.
         21   -1    0    0  501  502  0.00000000000E+00 -0.00000000000E+00 -0.72303879138E+01  0.72303879138E+01  0.00000000000E+00 0. -1.
         21    1    1    2  503  502  0.24819828145E+02  0.12949772050E+02  0.22660518557E+02  0.36016934442E+02  0.00000000000E+00 0. -1.
          2    1    1    2  501    0 -0.24819828145E+02 -0.12949772050E+02  0.35427799576E+03  0.35538235570E+03  0.00000000000E+00 0. -1.
</event>
<event>
 4    1  0.1643710E+006  0.2538649E+02  0.7546771E-02  0.1464526E+00
         21   -1    0    0  501  502  0.00000000000E+00  0.00000000000E+00  0.85629364041E+00  0.85629364041E+00  0.00000000000E+00 0. -1.
          2   -1    0    0  503    0 -0.00000000000E+00 -0.00000000000E+00 -0.14413922895E+04  0.14413922895E+04  0.00000000000E+00 0.  1.
         21    1    1    2  503  502 -0.16020080633E+02 -0.19693424289E+02 -0.22178184722E+03  0.22323006451E+03  0.00000000000E+00 0. -1.
          2    1    1    2  501    0  0.16020080633E+02  0.19693424289E+02 -0.12187541486E+04  0.12190185186E+04  0.00000000000E+00 0.  1.
</event>
<event>
 4    1  0.1643710E+006  0.2143081E+02  0.7546771E-02  0.1513202E+00
          1   -1    0    0  503    0 -0.00000000000E+00  0.00000000000E+00  0.58059698769E+01  0.58059698769E+01  0.00000000000E+00 0. -1.
         21   -1    0    0  501  502  0.00000000000E+00 -0.00000000000E+00 -0.12311886979E+03  0.12311886979E+03  0.00000000000E+00 0. -1.
         21    1    1    2  503  502  0.21214518006E+02 -0.30371075066E+01 -0.20113912397E+02  0.29391312801E+02  0.00000000000E+00 0. -1.
          1    1    1    2  501    0 -0.21214518006E+02  0.30371075066E+01 -0.97198987512E+02  0.99533526862E+02  0.00000000000E+00 0. -1.
</event>
<event>
 4    1  0.1643710E+006  0.2013267E+02  0.7546771E-02  0.1532017E+00
         21   -1    0    0  501  502  0.00000000000E+00  0.00000000000E+00  0.10977817923E+04  0.10977817923E+04  0.00000000000E+00 0.  1.
          2   -1    0    0  503    0 -0.00000000000E+00 -0.00000000000E+00 -0.73348954094E+00  0.73348954094E+00  0.00000000000E+00 0. -1.
         21    1    1    2  503  502  0.58058828674E+01 -0.19277346788E+02  0.93559442849E+03  0.93581101671E+03  0.00000000000E+00 0.  1.
          2    1    1    2  501    0 -0.58058828674E+01  0.19277346788E+02  0.16145387423E+03  0.16270426509E+03  0.00000000000E+00 0. -1.
</event>
<event>
 4    1  0.1643710E+006  0.2320399E+02  0.7546771E-02  0.1489952E+00
         21   -1    0    0  503  502  0.00000000000E+00  0.00000000000E+00  0.65193234415E+02  0.65193234415E+02  0.00000000000E+00 0. -1.
         -1   -1    0    0    0  501 -0.00000000000E+00 -0.00000000000E+00 -0.81821813826E+03  0.81821813826E+03  0.00000000000E+00 0.  1.
         21    1    1    2  503  501 -0.18449493310E+02  0.14072708586E+02  0.62958342042E+02  0.67098269449E+02  0.00000000000E+00 0. -1.
         -1    1    1    2    0  502  0.18449493310E+02 -0.14072708586E+02 -0.81598324589E+03  0.81631310323E+03  0.00000000000E+00 0.  1.
</event>
<event>
 4    1  0.1643710E+006  0.2361397E+02  0.7546771E-02  0.1484929E+00
          1   -1    0    0  502    0 -0.00000000000E+00  0.00000000000E+00  0.17051036926E+03  0.17051036926E+03  0.00000000000E+00 0.  1.
         21   -1    0    0  503  502  0.00000000000E+00 -0.00000000000E+00 -0.86712313170E+02  0.86712313170E+02  0.00000000000E+00 0. -1.
         21    1    1    2  503  501  0.65588713477E+01 -0.22684816846E+02 -0.84263758759E+02  0.87510003708E+02  0.00000000000E+00 0. -1.
          1    1    1    2  501    0 -0.65588713477E+01  0.22684816846E+02  0.16806181485E+03  0.16971267872E+03  0.00000000000E+00 0.  1.
</event>
<event>
 4    1  0.1643710E+006  0.2431143E+02  0.7546771E-02  0.1476656E+00
         21   -1    0    0  501  502  0.00000000000E+00  0.00000000000E+00  0.36260084758E+01  0.36260084758E+01  0.00000000000E+00 0. -1.
          2   -1    0    0  503    0 -0.00000000000E+00 -0.00000000000E+00 -0.78536718710E+03  0.78536718710E+03  0.00000000000E+00 0. -1.
         21    1    1    2  503  502  0.22022408427E+02  0.10298506930E+02 -0.39690714288E+02  0.46544586352E+02  0.00000000000E+00 0. -1.
          2    1    1    2  501    0 -0.22022408427E+02 -0.10298506930E+02 -0.74205046433E+03  0.74244860922E+03  0.00000000000E+00 0. -1.
</event>
<event>
 4    1  0.1643710E+006  0.2523441E+02  0.7546771E-02  0.1466198E+00
          1   -1    0    0  502    0 -0.00000000000E+00  0.00000000000E+00  0.26330831955E+02  0.26330831955E+02  0.00000000000E+00 0.  1.
         21   -1    0    0  503  502  0.00000000000E+00 -0.00000000000E+00 -0.20709317662E+03  0.20709317662E+03  0.00000000000E+00 0. -1.
         21    1    1    2  503  501 -0.94022833181E+01 -0.23417352595E+02 -0.20006707364E+03  0.20165219882E+03  0.00000000000E+00 0. -1.
          1    1    1    2  501    0  0.94022833181E+01  0.23417352595E+02  0.19304728976E+02  0.31771809753E+02  0.00000000000E+00 0.  1.
</event>
<event>
 4    1  0.1643710E+006  0.2015831E+02  0.7546771E-02  0.1531629E+00
         -4   -1    0    0    0  501 -0.00000000000E+00  0.00000000000E+00  0.29708205168E+03  0.29708205168E+03  0.00000000000E+00 0. -1.
         21   -1    0    0  501  502  0.00000000000E+00 -0.00000000000E+00 -0.14459313042E+02  0.14459313042E+02  0.00000000000E+00 0. -1.
         21    1    1    2  503  502 -0.30426266897E+01  0.19927369568E+02 -0.69084644962E+01  0.21309258945E+02  0.00000000000E+00 0. -1.
         -4    1    1    2    0  503  0.30426266897E+01 -0.19927369568E+02  0.28953120313E+03  0.29023210577E+03  0.00000000000E+00 0. -1.
</event>
<event>
 4    1  0.1643710E+006  0.2109155E+02  0.7546771E-02  0.1517962E+00
         -2   -1    0    0    0  501 -0.00000000000E+00  0.00000000000E+00  0.94018667877E+03  0.94018667877E+03  0.00000000000E+00 0.  1.
         21   -1    0    0  503  502  0.00000000000E+00 -0.00000000000E+00 -0.66323973533E+01  0.66323973533E+01  0.00000000000E+00 0.  1.
         21    1    1    2  503  501 -0.18544868856E+02  0.10046961683E+02  0.10566513689E+02  0.23590354205E+02  0.00000000000E+00 0.  1.
         -2    1    1    2    0  502  0.18544868856E+02 -0.10046961683E+02  0.92298776772E+03  0.92322872192E+03  0.00000000000E+00 0.  1.
</event>
<event>
 4    1  0.1643710E+006  0.2751294E+02  0.7546771E-02  0.1442522E+00
         21   -1    0    0  501  502  0.00000000000E+00  0.00000000000E+00  0.75685750170E+02  0.75685750170E+02  0.00000000000E+00 0.  1.
         -1   -1    0    0    0  501 -0.00000000000E+00 -0.00000000000E+00 -0.10302869058E+03  0.10302869058E+03  0.00000000000E+00 0. -1.
         21    1    1    2  503  502  0.16405097505E+02 -0.22086981072E+02  0.71237933935E+02  0.76366256870E+02  0.00000000000E+00 0.  1.
         -1    1    1    2    0  503 -0.16405097505E+02  0.22086981072E+02 -0.98580874341E+02  0.10234818388E+03  0.00000000000E+00 0. -1.
</event>
<event>
 4    1  0.1643710E+006  0.5333424E+02  0.7546771E-02  0.1284329E+00
         21   -1    0    0  503  502  0.00000000000E+00  0.00000000000E+00  0.11730495395E+02  0.11730495395E+02  0.00000000000E+00 0. -1.
          2   -1    0    0  502    0 -0.00000000000E+00 -0.00000000000E+00 -0.10143198503E+04  0.10143198503E+04  0.00000000000E+00 0. -1.
         21    1    1    2  503  501  0.48540197819E+02 -0.22099545546E+02 -0.53775460366E+02  0.75738635155E+02  0.00000000000E+00 0. -1.
          2    1    1    2  501    0 -0.48540197819E+02  0.22099545546E+02 -0.94881389450E+03  0.95031171050E+03  0.00000000000E+00 0. -1.
</event>
<event>
 4    1  0.1643710E+006  0.2704462E+02  0.7546771E-02  0.1447160E+00
          2   -1    0    0  503    0 -0.00000000000E+00  0.00000000000E+00  0.20803431162E+03  0.20803431162E+03  0.00000000000E+00 0.  1.
         21   -1    0    0  501  502  0.00000000000E+00 -0.00000000000E+00 -0.42617119359E+03  0.42617119359E+03  0.00000000000E+00 0. -1.
         21    1    1    2  503  502 -0.77925586996E+01 -0.25897634929E+02 -0.42486046971E+03  0.42572036619E+03  0.00000000000E+00 0. -1.
          2    1    1    2  501    0  0.77925586996E+01  0.25897634929E+02  0.20672358773E+03  0.20848513902E+03  0.00000000000E+00 0.  1.
</event>
<event>
 4    1  0.1643710E+006  0.3050966E+02  0.7546771E-02  0.1415218E+00
         21   -1    0    0  503  502  0.00000000000E+00  0.00000000000E+00  0.10559794361E+03  0.10559794361E+03  0.00000000000E+00 0.  1.
         -3   -1    0    0    0  501 -0.00000000000E+00 -0.00000000000E+00 -0.30149479429E+02  0.30149479429E+02  0.00000000000E+00 0.  1.
         21    1    1    2  503  501  0.35032132781E+01  0.30307865267E+02  0.94819926285E+02  0.99607517894E+02  0.00000000000E+00 0.  1.
         -3    1    1    2    0  502 -0.35032132781E+01 -0.30307865267E+02 -0.19371462100E+02  0.36139905149E+02  0.00000000000E+00 0.  1.
</event>
<event>
 4    1  0.1643710E+006  0.2291670E+02  0.7546771E-02  0.1493547E+00
         21   -1    0    0  503  502  0.00000000000E+00  0.00000000000E+00  0.38744068903E+00  0.38744068903E+00  0.00000000000E+00 0. -1.
          2   -1    0    0  502    0 -0.00000000000E+00 -0.00000000000E+00 -0.13701690875E+04  0.13701690875E+04  0.00000000000E+00 0. -1.
         21    1    1    2  503  501 -0.18625891822E+01 -0.22840881295E+02 -0.75580129136E+03  0.75614864089E+03  0.00000000000E+00 0. -1.
          2    1    1    2  501    0  0.18625891822E+01  0.22840881295E+02 -0.61398035545E+03  0.61440788730E+03  0.00000000000E+00 0. -1.
</event>
<event>
 4    1  0.1643710E+006  0.2547156E+02  0.7546771E-02  0.1463597E+00
         21   -1    0    0  503  502  0.00000000000E+00  0.00000000000E+00  0.83572504419E+02  0.83572504419E+02  0.00000000000E+00 0.  1.
          3   -1    0    0  502    0 -0.00000000000E+00 -0.00000000000E+00 -0.12981727873E+04  0.12981727873E+04  0.00000000000E+00 0. -1.
         21    1    1    2  503  501  0.18101332288E+02  0.17920441153E+02  0.81503630746E+02  0.85391113510E+02  0.00000000000E+00 0.  1.
          3    1    1    2  501    0 -0.18101332288E+02 -0.17920441153E+02 -0.12961039136E+04  0.12963541782E+04  0.00000000000E+00 0. -1.
</event>
<event>
 4    1  0.1643710E+006  0.2103484E+02  0.7546771E-02  0.1518768E+00
         21   -1    0    0  503  502  0.00000000000E+00  0.00000000000E+00  0.25597851041E+02  0.25597851041E+02  0.00000000000E+00 0. -1.
          4   -1    0    0  502    0 -0.00000000000E+00 -0.00000000000E+00 -0.62203293052E+02  0.62203293052E+02  0.00000000000E+00 0.  1.
         21    1    1    2  503  501  0.20756163795E+02 -0.34126294861E+01  0.19002882531E+02  0.28347379420E+02  0.00000000000E+00 0. -1.
          4    1    1    2  501    0 -0.20756163795E+02  0.34126294861E+01 -0.55608324542E+02  0.59453764674E+02  0.00000000000E+00 0.  1.
</event>
<event>
 4    1  0.1643710E+006  0.3890061E+02  0.7546771E-02  0.1355051E+00
          2   -1    0    0  503    0 -0.00000000000E+00  0.00000000000E+00  0.11935476058E+04  0.11935476058E+04  0.00000000000E+00 0. -1.
         21   -1    0    0  501  502  0.00000000000E+00 -0.00000000000E+00 -0.49168032896E+01  0.49168032896E+01  0.00000000000E+00 0.  1.
         21    1    1    2  503  502 -0.20717272573E+02  0.32924951634E+02  0.78092866548E+02  0.87245364510E+02  0.00000000000E+00 0.  1.
          2    1    1    2  501    0  0.20717272573E+02 -0.32924951634E+02  0.11105379360E+04  0.11112190446E+04  0.00000000000E+00 0. -1.
</event>
<event>
 4    1  0.1643710E+006  0.2366187E+02  0.7546771E-02  0.1484350E+00
          1   -1    0    0  502    0 -0.00000000000E+00  0.00000000000E+00  0.39319904662E+03  0.39319904662E+03  0.00000000000E+00 0.  1.
         21   -1    0    0  503  502  0.00000000000E+00 -0.00000000000E+00 -0.18462326254E+01  0.18462326254E+01  0.00000000000E+00 0. -1.
         21    1    1    2  503  501  0.21710087597E+02  0.94104196183E+01  0.10120708148E+03  0.10393631339E+03  0.00000000000E+00 0. -1.
          1    1    1    2  501    0 -0.21710087597E+02 -0.94104196183E+01  0.29014573251E+03  0.29110896585E+03  0.00000000000E+00 0.  1.
</event>
<event>
 4    1  0.1643710E+006  0.2760856E+02  0.7546771E-02  0.1441589E+00
          1   -1    0    0  503    0 -0.00000000000E+00  0.00000000000E+00  0.20577537545E+03  0.20577537545E+03  0.00000000000E+00 0.  1.
         21   -1    0    0  501  502  0.00000000000E+00 -0.00000000000E+00 -0.37131643722E+01  0.37131643722E+01  0.00000000000E+00 0.  1.
         21    1    1    2  503  502  0.21114105097E+02 -0.17788400419E+02  0.10617840688E+03  0.10970910040E+03  0.00000000000E+00 0.  1.
          1    1    1    2  501    0 -0.21114105097E+02  0.17788400419E+02  0.95883804195E+02  0.99779439417E+02  0.00000000000E+00 0.  1.
</event>
<event>
 4    1  0.1643710E+006  0.2088217E+02  0.7546771E-02  0.1520954E+00
         21   -1    0    0  501  502  0.00000000000E+00  0.00000000000E+00  0.32371054641E+01  0.32371054641E+01  0.00000000000E+00 0. -1.
         -3   -1    0    0    0  501 -0.00000000000E+00 -0.00000000000E+00 -0.37316449330E+03  0.37316449330E+03  0.00000000000E+00 0.  1.
         21    1    1    2  503  502  0.11161435743E+02  0.17649008688E+02 -0.34519455868E+02  0.40344243567E+02  0.00000000000E+00 0. -1.
         -3    1    1    2    0  503 -0.11161435743E+02 -0.17649008688E+02 -0.33540793197E+03  0.33605735520E+03  0.00000000000E+00 0.  1.
</event>
<event>
 4    1  0.1643710E+006  0.2182602E+02  0.7546771E-02  0.1507791E+00
          2   -1    0    0  503    0 -0.00000000000E+00  0.00000000000E+00  0.88066584673E+03  0.88066584673E+03  0.00000000000E+00 0. -1.
         21   -1    0    0  501  502  0.00000000000E+00 -0.00000000000E+00 -0.13409035024E+02  0.13409035024E+02  0.00000000000E+00 0.  1.
         21    1    1    2  503  502  0.14036641445E+02  0.16713697553E+02 -0.42993814443E+01  0.22245441549E+02  0.00000000000E+00 0.  1.
          2    1    1    2  501    0 -0.14036641445E+02 -0.16713697553E+02  0.87155619315E+03  0.87182944020E+03  0.00000000000E+00 0. -1.
</event>
<event>
 4    1  0.1643710E+006  0.3624977E+02  0.7546771E-02  0.1371984E+00
         -4   -1    0    0    0  501 -0.00000000000E+00  0.00000000000E+00  0.34209764941E+02  0.34209764941E+02  0.00000000000E+00 0. -1.
         21   -1    0    0  501  502  0.00000000000E+00 -0.00000000000E+00 -0.24827979760E+03  0.24827979760E+03  0.00000000000E+00 0.  1.
         21    1    1    2  503  502 -0.21141848081E+02 -0.29446015602E+02 -0.23689496412E+03  0.23965239327E+03  0.00000000000E+00 0.  1.
         -4    1    1    2    0  503  0.21141848081E+02  0.29446015602E+02  0.22824931460E+02  0.42837169272E+02  0.00000000000E+00 0. -1.
</event>
<event>
 4    1  0.1643710E+006  0.2387646E+02  0.7546771E-02  0.1481776E+00
         21   -1    0    0  503  502  0.00000000000E+00  0.00000000000E+00  0.93519154163E+03  0.93519154163E+03  0.00000000000E+00 0.  1.
         -4   -1    0    0    0  501 -0.00000000000E+00 -0.00000000000E+00 -0.92458212377E+00  0.92458212377E+00  0.00000000000E+00 0.  1.
         21    1    1    2  503  501 -0.20787188869E+01  0.23785803088E+02  0.74033008046E+03  0.74071500156E+03  0.00000000000E+00 0.  1.
         -4    1    1    2    0  502  0.20787188869E+01 -0.23785803088E+02  0.19393687905E+03  0.19540112220E+03  0.00000000000E+00 0.  1.
</event>
<event>
 4    1  0.1643710E+006  0.3273543E+02  0.7546771E-02  0.1397223E+00
         21   -1    0    0  503  502  0.00000000000E+00  0.00000000000E+00  0.18273824364E+01  0.18273824364E+01  0.00000000000E+00 0.  1.
          2   -1    0    0  502    0 -0.00000000000E+00 -0.00000000000E+00 -0.73471065405E+03  0.73471065405E+03  0.00000000000E+00 0. -1.
         21    1    1    2  503  501  0.23956500336E+02 -0.22309070144E+02 -0.20099117398E+03  0.20363953579E+03  0.00000000000E+00 0.  1.
          2    1    1    2  501    0 -0.23956500336E+02  0.22309070144E+02 -0.53189209763E+03  0.53289850069E+03  0.00000000000E+00 0. -1.
</event>
<event>
 4    1  0.1643710E+006  0.2128888E+02  0.7546771E-02  0.1515180E+00
         21   -1    0    0  503  502  0.00000000000E+00  0.00000000000E+00  0.35783825056E+01  0.35783825056E+01  0.00000000000E+00 0.  1.
         -3   -1    0    0    0  501 -0.00000000000E+00 -0.00000000000E+00 -0.22798358909E+03  0.22798358909E+03  0.00000000000E+00 0.  1.
         21    1    1    2  503  501 -0.19311741173E+02 -0.89595164798E+01 -0.35013908841E+02  0.40977922044E+02  0.00000000000E+00 0.  1.
         -3    1    1    2    0  502  0.19311741173E+02  0.89595164798E+01 -0.18939129774E+03  0.19058404955E+03  0.00000000000E+00 0.  1.
</event>
<event>
 4    1  0.1643710E+006  0.2070929E+02  0.7546771E-02  0.1523456E+00
          2   -1    0    0  503    0 -0.00000000000E+00  0.00000000000E+00  0.27572870698E+03  0.27572870698E+03  0.00000000000E+00 0.  1.
         21   -1    0    0  501  502  0.00000000000E+00 -0.00000000000E+00 -0.69922322601E+01  0.69922322601E+01  0.00000000000E+00 0. -1.
         21    1    1    2  503  502  0.46347076101E+01 -0.20184005637E+02  0.97182811952E+01  0.22876179480E+02  0.00000000000E+00 0. -1.
          2    1    1    2  501    0 -0.46347076101E+01  0.20184005637E+02  0.25901819352E+03  0.25984475976E+03  0.00000000000E+00 0.  1.
</event>
<event>
 4    1  0.1643710E+006  0.2299550E+02  0.7546771E-02  0.1492555E+00
          2   -1    0    0  502    0 -0.00000000000E+00  0.00000000000E+00  0.84860707857E+03  0.84860707857E+03  0.00000000000E+00 0. -1.
         21   -1    0    0  503  502  0.00000000000E+00 -0.00000000000E+00 -0.25754656765E+01  0.25754656765E+01  0.00000000000E+00 0.  1.
         21    1    1    2  503  501 -0.16708138193E+02 -0.15799714921E+02  0.52469891364E+02  0.57287715727E+02  0.00000000000E+00 0.  1.
          2    1    1    2  501    0  0.16708138193E+02  0.15799714921E+02  0.79356172153E+03  0.79389482852E+03  0.00000000000E+00 0. -1.
</event>
<event>
 4    1  0.1643710E+006  0.2012138E+02  0.7546771E-02  0.1532188E+00
         21   -1    0    0  501  502  0.00000000000E+00  0.00000000000E+00  0.35593632254E+00  0.35593632254E+00  0.00000000000E+00 0. -1.
         -4   -1    0    0    0  501 -0.00000000000E+00 -0.00000000000E+00 -0.14387011769E+04  0.14387011769E+04  0.00000000000E+00 0.  1.
         21    1    1    2  503  502  0.51158864736E+01 -0.19460157820E+02 -0.38993737650E+03  0.39045617888E+03  0.00000000000E+00 0. -1.
         -4    1    1    2    0  503 -0.51158864736E+01  0.19460157820E+02 -0.10484078641E+04  0.10486009344E+04  0.00000000000E+00 0.  1.
</event>
<event>
 4    1  0.1643710E+006  0.3168315E+02  0.7546771E-02  0.1405513E+00
         21   -1    0    0  503  502  0.00000000000E+00  0.00000000000E+00  0.10026121331E+01  0.10026121331E+01  0.00000000000E+00 0. -1.
          2   -1    0    0  502    0 -0.00000000000E+00 -0.00000000000E+00 -0.16385247930E+04  0.16385247930E+04  0.00000000000E+00 0. -1.
         21    1    1    2  503  501  0.17707576622E+02 -0.26272870033E+02 -0.30750286833E+03  0.30913077492E+03  0.00000000000E+00 0. -1.
          2    1    1    2  501    0 -0.17707576622E+02  0.26272870033E+02 -0.13300193125E+04  0.13303966302E+04  0.00000000000E+00 0. -1.
</event>
<event>
 4    1  0.1643710E+006  0.2007370E+02  0.7546771E-02  0.1532912E+00
         21   -1    0    0  503  502  0.00000000000E+00  0.00000000000E+00  0.10350784456E+01  0.10350784456E+01  0.00000000000E+00 0.  1.
          2   -1    0    0  502    0 -0.00000000000E+00 -0.00000000000E+00 -0.47031341485E+03  0.47031341485E+03  0.00000000000E+00 0.  1.
         21    1    1    2  503  501  0.14480699174E+02  0.13901904412E+02 -0.13682466746E+03  0.13828934602E+03  0.00000000000E+00 0.  1.
          2    1    1    2  501    0 -0.14480699174E+02 -0.13901904412E+02 -0.33245366894E+03  0.33305914728E+03  0.00000000000E+00 0.  1.
</event>
<event>
 4    1  0.1643710E+006  0.2610771E+02  0.7546771E-02  0.1456783E+00
         21   -1    0    0  503  502  0.00000000000E+00  0.00000000000E+00  0.10126231119E+02  0.10126231119E+02  0.00000000000E+00 0. -1.
          1   -1    0    0  502    0 -0.00000000000E+00 -0.00000000000E+00 -0.26459988420E+03  0.26459988420E+03  0.00000000000E+00 0. -1.
         21    1    1    2  503  501 -0.35539897291E+01 -0.25864684396E+02 -0.86256043789E+01  0.27495704989E+02  0.00000000000E+00 0. -1.
          1    1    1    2  501    0  0.35539897291E+01  0.25864684396E+02 -0.24584804870E+03  0.24723041033E+03  0.00000000000E+00 0. -1.
</event>
<event>
 4    1  0.1643710E+006  0.2584166E+02  0.7546771E-02  0.1459604E+00
          1   -1    0    0  502    0 -0.00000000000E+00  0.00000000000E+00  0.16950142405E+02  0.16950142405E+02  0.00000000000E+00 0. -1.
         21   -1    0    0  503  502  0.00000000000E+00 -0.00000000000E+00 -0.66421109618E+02  0.66421109618E+02  0.00000000000E+00 0.  1.
         21    1    1    2  503  501 -0.75081248070E+01 -0.24726901802E+02 -0.51324710743E+02  0.57463184246E+02  0.00000000000E+00 0.  1.
          1    1    1    2  501    0  0.75081248070E+01  0.24726901802E+02  0.18537435298E+01  0.25908067777E+02  0.00000000000E+00 0. -1.
</event>
<event>
 4    1  0.1643710E+006  0.2887864E+02  0.7546771E-02  0.1429598E+00
          2   -1    0    0  502    0 -0.00000000000E+00  0.00000000000E+00  0.20509451370E+04  0.20509451370E+04  0.00000000000E+00 0.  1.
         21   -1    0    0  503  502  0.00000000000E+00 -0.00000000000E+00 -0.18182072913E+02  0.18182072913E+02  0.00000000000E+00 0.  1.
         21    1    1    2  503  501 -0.27438311119E+02 -0.90063967152E+01 -0.65479897071E+01  0.29611691408E+02  0.00000000000E+00 0.  1.
          2    1    1    2  501    0  0.27438311119E+02  0.90063967152E+01  0.20393110538E+04  0.20395155185E+04  0.00000000000E+00 0.  1.
</event>
<event>
 4    1  0.1643710E+006  0.2143627E+02  0.7546771E-02  0.1513126E+00
         21   -1    0    0  501  502  0.00000000000E+00  0.00000000000E+00  0.11987310810E+02  0.11987310810E+02  0.00000000000E+00 0.  1.
          3   -1    0    0  503    0 -0.00000000000E+00 -0.00000000000E+00 -0.18564324804E+03  0.18564324804E+03  0.00000000000E+00 0. -1.
         21    1    1    2  503  502  0.16382227507E+02 -0.13825197813E+02  0.11959151093E+01  0.21469599102E+02  0.00000000000E+00 0.  1.
          3    1    1    2  501    0 -0.16382227507E+02  0.13825197813E+02 -0.17485185234E+03  0.17616095975E+03  0.00000000000E+00 0. -1.
</event>
<event>
 4    1  0.1643710E+006  0.2638288E+02  0.7546771E-02  0.1453908E+00
         -1   -1    0    0    0  501 -0.00000000000E+00  0.00000000000E+00  0.97513097664E+01  0.97513097664E+01  0.00000000000E+00 0. -1.
         21   -1    0    0  503  502  0.00000000000E+00 -0.00000000000E+00 -0.71788248602E+02  0.71788248602E+02  0.00000000000E+00 0.  1.
         21    1    1    2  503  501 -0.16778903221E+02  0.20359879671E+02 -0.34089951756E+02  0.43106624830E+02  0.00000000000E+00 0.  1.
         -1    1    1    2    0  502  0.16778903221E+02 -0.20359879671E+02 -0.27946987080E+02  0.38432933538E+02  0.00000000000E+00 0. -1.
</event>
<event>
 4    1  0.1643710E+006  0.2361556E+02  0.7546771E-02  0.1484910E+00
         21   -1    0    0  501  502  0.00000000000E+00  0.00000000000E+00  0.18561343598E+02  0.18561343598E+02  0.00000000000E+00 0.  1.
          2   -1    0    0  503    0 -0.00000000000E+00 -0.00000000000E+00 -0.43678493950E+02  0.43678493950E+02  0.00000000000E+00 0. -1.
         21    1    1    2  503  502 -0.98416979636E+01  0.21467083925E+02  0.48271089603E+01  0.24103852222E+02  0.00000000000E+00 0.  1.
          2    1    1    2  501    0  0.98416979636E+01 -0.21467083925E+02 -0.29944259312E+02  0.38135985326E+02  0.00000000000E+00 0. -1.
</event>
<event>
 4    1  0.1643710E+006  0.2219950E+02  0.7546771E-02  0.1502802E+00
         21   -1    0    0  503  502  0.00000000000E+00  0.00000000000E+00  0.84528602711E+01  0.84528602711E+01  0.00000000000E+00 0.  1.
          1   -1    0    0  502    0 -0.00000000000E+00 -0.00000000000E+00 -0.11023273952E+03  0.11023273952E+03  0.00000000000E+00 0.  1.
         21    1    1    2  503  501 -0.12565137543E+02  0.18301232726E+02 -0.10158907870E+02  0.24413545623E+02  0.00000000000E+00 0.  1.
          1    1    1    2  501    0  0.12565137543E+02 -0.18301232726E+02 -0.91620971374E+02  0.94272054164E+02  0.00000000000E+00 0.  1.
</event>
<event>
 4    1  0.1643710E+006  0.2664921E+02  0.7546771E-02  0.1451164E+00
         21   -1    0    0  501  502  0.00000000000E+00  0.00000000000E+00  0.13850069072E+02  0.13850069072E+02  0.00000000000E+00 0. -1.
          2   -1    0    0  503    0 -0.00000000000E+00 -0.00000000000E+00 -0.51602272443E+02  0.51602272443E+02  0.00000000000E+00 0. -1.
         21    1    1    2  503  502 -0.15746249985E+02 -0.21499674153E+02 -0.21477143607E+02  0.34226423634E+02  0.00000000000E+00 0. -1.
          2    1    1    2  501    0  0.15746249985E+02  0.21499674153E+02 -0.16275059763E+02  0.31225917881E+02  0.00000000000E+00 0. -1.
</event>
<event>
 4    1  0.1643710E+006  0.4730304E+02  0.7546771E-02  0.1310309E+00
          2   -1    0    0  503    0 -0.00000000000E+00  0.00000000000E+00  0.10806644939E+03  0.10806644939E+03  0.00000000000E+00 0. -1.
         21   -1    0    0  501  502  0.00000000000E+00 -0.00000000000E+00 -0.33559065514E+02  0.33559065514E+02  0.00000000000E+00 0.  1.
         21    1    1    2  503  502 -0.31313981543E+02  0.35454363036E+02 -0.65708335867E+01  0.47757231415E+02  0.00000000000E+00 0.  1.
          2    1    1    2  501    0  0.31313981543E+02 -0.35454363036E+02  0.81078217463E+02  0.93868283490E+02  0.00000000000E+00 0. -1.
</event>
<event>
 4    1  0.1643710E+006  0.2796205E+02  0.7546771E-02  0.1438176E+00
         21   -1    0    0  501  502  0.00000000000E+00  0.00000000000E+00  0.14081646390E+02  0.14081646390E+02  0.00000000000E+00 0. -1.
         -4   -1    0    0    0  501 -0.00000000000E+00 -0.00000000000E+00 -0.11571232676E+04  0.11571232676E+04  0.00000000000E+00 0. -1.
         21    1    1    2  503  502  0.27951513096E+02  0.76771505017E+00 -0.14112427559E+00  0.27962410247E+02  0.00000000000E+00 0. -1.
         -4    1    1    2    0  503 -0.27951513096E+02 -0.76771505017E+00 -0.11429004970E+04  0.11432425038E+04  0.00000000000E+00 0. -1.
</event>
<event>
 4    1  0.1643710E+006  0.2348929E+02  0.7546771E-02  0.1486444E+00
         21   -1    0    0  503  502  0.00000000000E+00  0.00000000000E+00  0.73274137029E+02  0.73274137029E+02  0.00000000000E+00 0. -1.
          3   -1    0    0  502    0 -0.00000000000E+00 -0.00000000000E+00 -0.33837481583E+03  0.33837481583E+03  0.00000000000E+00 0.  1.
         21    1    1    2  503  501 -0.14688887650E+02 -0.18329850018E+02  0.70971133320E+02  0.74757264442E+02  0.00000000000E+00 0. -1.
          3    1    1    2  501    0  0.14688887650E+02  0.18329850018E+02 -0.33607181212E+03  0.33689168841E+03  0.00000000000E+00 0.  1.
</event>
<event>
 4    1  0.1643710E+006  0.2421045E+02  0.7546771E-02  0.1477833E+00
         21   -1    0    0  503  502  0.00000000000E+00  0.00000000000E+00  0.33040628107E+01  0.33040628107E+01  0.00000000000E+00 0.  1.
          1   -1    0    0  502    0 -0.00000000000E+00 -0.00000000000E+00 -0.27665986388E+03  0.27665986388E+03  0.00000000000E+00 0.  1.
         21    1    1    2  503  501  0.24164336468E+02 -0.14935257058E+01 -0.52831870177E+02  0.58114991890E+02  0.00000000000E+00 0.  1.
          1    1    1    2  501    0 -0.24164336468E+02  0.14935257058E+01 -0.22052393089E+03  0.22184893480E+03  0.00000000000E+00 0.  1.
</event>
<event>
 4    1  0.1643710E+006  0.2279078E+02  0.7546771E-02  0.1495142E+00
         21   -1    0    0  503  502  0.00000000000E+00  0.00000000000E+00  0.33947108294E+00  0.33947108294E+00  0.00000000000E+00 0.  1.
         -4   -1    0    0    0  501 -0.00000000000E+00 -0.00000000000E+00 -0.15585627771E+04  0.15585627771E+04  0.00000000000E+00 0.  1.
         21    1    1    2  503  501 -0.35332925570E+01 -0.22515229932E+02 -0.67375134939E+03  0.67413670761E+03  0.00000000000E+00 0.  1.
         -4    1    1    2    0  502  0.35332925570E+01  0.22515229932E+02 -0.88447195667E+03  0.88476554062E+03  0.00000000000E+00 0.  1.
</event>
<event>
 4    1  0.1643710E+006  0.2894373E+02  0.7546771E-02  0.1429003E+00
         21   -1    0    0  503  502  0.00000000000E+00  0.00000000000E+00  0.84186947423E+01  0.84186947423E+01  0.00000000000E+00 0. -1.
          4   -1    0    0  502    0 -0.00000000000E+00 -0.00000000000E+00 -0.66751868903E+03  0.66751868903E+03  0.00000000000E+00 0.  1.
         21    1    1    2  503  501  0.27427563282E+02  0.92449128046E+01 -0.17788514675E+02  0.33973090744E+02  0.00000000000E+00 0. -1.
          4    1    1    2  501    0 -0.27427563282E+02 -0.92449128046E+01 -0.64131147961E+03  0.64196429303E+03  0.00000000000E+00 0.  1.
</event>
<event>
 4    1  0.1643710E+006  0.2388330E+02  0.7546771E-02  0.1481695E+00
         -2   -1    0    0    0  501 -0.00000000000E+00  0.00000000000E+00  0.21798626065E+03  0.21798626065E+03  0.00000000000E+00 0. -1.
         21   -1    0    0  501  502  0.00000000000E+00 -0.00000000000E+00 -0.33192040807E+01  0.33192040807E+01  0.00000000000E+00 0.  1.
         21    1    1    2  503  502  0.16273340444E+02  0.17481138704E+02  0.56428647926E+02  0.61274824572E+02  0.00000000000E+00 0.  1.
         -2    1    1    2    0  503 -0.16273340444E+02 -0.17481138704E+02  0.15823840864E+03  0.16003064016E+03  0.00000000000E+00 0. -1.
</event>
<event>
 4    1  0.1643710E+006  0.2173171E+02  0.7546771E-02  0.1509069E+00
         -1   -1    0    0    0  501 -0.00000000000E+00  0.00000000000E+00  0.39836830812E+03  0.39836830812E+03  0.00000000000E+00 0.  1.
         21   -1    0    0  503  502  0.00000000000E+00 -0.00000000000E+00 -0.55544342502E+02  0.55544342502E+02  0.00000000000E+00 0. -1.
         21    1    1    2  503  501  0.30051052691E+00  0.21729634517E+02 -0.53109271215E+02  0.57383464620E+02  0.00000000000E+00 0. -1.
         -1    1    1    2    0  502 -0.30051052691E+00 -0.21729634517E+02  0.39593323683E+03  0.39652918600E+03  0.00000000000E+00 0.  1.
</event>
<event>
 4    1  0.1643710E+006  0.4686909E+02  0.7546771E-02  0.1312349E+00
         -1   -1    0    0    0  501 -0.00000000000E+00  0.00000000000E+00  0.45317057514E+01  0.45317057514E+01  0.00000000000E+00 0. -1.
         21   -1    0    0  503  502  0.00000000000E+00 -0.00000000000E+00 -0.92114310702E+03  0.92114310702E+03  0.00000000000E+00 0. -1.
         21    1    1    2  503  501  0.53719495617E+01 -0.46560216716E+02 -0.77687757735E+03  0.77829010132E+03  0.00000000000E+00 0. -1.
         -1    1    1    2    0  502 -0.53719495617E+01  0.46560216716E+02 -0.13973382391E+03  0.14738471145E+03  0.00000000000E+00 0. -1.
</event>
<event>
 4    1  0.1643710E+006  0.3232359E+02  0.7546771E-02  0.1400423E+00
          1   -1    0    0  503    0 -0.00000000000E+00  0.00000000000E+00  0.16887795063E+03  0.16887795063E+03  0.00000000000E+00 0. -1.
         21   -1    0    0  501  502  0.00000000000E+00 -0.00000000000E+00 -0.34442374388E+03  0.34442374388E+03  0.00000000000E+00 0.  1.
         21    1    1    2  503  502  0.14057771170E+02  0.29106593084E+02 -0.34210821876E+03  0.34363184957E+03  0.00000000000E+00 0.  1.
          1    1    1    2  501    0 -0.14057771170E+02 -0.29106593084E+02  0.16656242551E+03  0.16966984494E+03  0.00000000000E+00 0. -1.
</event>
<event>
 4    1  0.1643710E+006  0.2263142E+02  0.7546771E-02  0.1497179E+00
         21   -1    0    0  501  502  0.00000000000E+00  0.00000000000E+00  0.35294747959E+01  0.35294747959E+01  0.00000000000E+00 0. -1.
         -3   -1    0    0    0  501 -0.00000000000E+00 -0.00000000000E+00 -0.38781383307E+03  0.38781383307E+03  0.00000000000E+00 0.  1.
         21    1    1    2  503  502  0.11541299194E+02 -0.19467403595E+02 -0.37349758230E+02  0.43671338766E+02  0.00000000000E+00 0. -1.
         -3    1    1    2    0  503 -0.11541299194E+02  0.19467403595E+02 -0.34693460005E+03  0.34767196910E+03  0.00000000000E+00 0.  1.
</event>
<event>
 4    1  0.1643710E+006  0.2111846E+02  0.7546771E-02  0.1517580E+00
          4   -1    0    0  502    0 -0.00000000000E+00  0.00000000000E+00  0.27367785892E+02  0.27367785892E+02  0.00000000000E+00 0.  1.
         21   -1    0    0  503  502  0.00000000000E+00 -0.00000000000E+00 -0.24581427499E+02  0.24581427499E+02  0.00000000000E+00 0.  1.
         21    1    1    2  503  501  0.12035531664E+02  0.17353254743E+02 -0.13686740478E+02  0.25165777110E+02  0.00000000000E+00 0.  1.
          4    1    1    2  501    0 -0.12035531664E+02 -0.17353254743E+02  0.16473098870E+02  0.26783436281E+02  0.00000000000E+00 0.  1.
</event>
<event>
 4    1  0.1643710E+006  0.2186720E+02  0.7546771E-02  0.1507235E+00
          3   -1    0    0  503    0 -0.00000000000E+00  0.00000000000E+00  0.33704525998E+02  0.33704525998E+02  0.00000000000E+00 0.  1.
         21   -1    0    0  501  502  0.00000000000E+00 -0.00000000000E+00 -0.19980244947E+02  0.19980244947E+02  0.00000000000E+00 0. -1.
         21    1    1    2  503  502 -0.15615675629E+02  0.15307679037E+02 -0.75913410328E+01  0.23147415008E+02  0.00000000000E+00 0. -1.
          3    1    1    2  501    0  0.15615675629E+02 -0.15307679037E+02  0.21315622083E+02  0.30537355938E+02  0.00000000000E+00 0.  1.
</event>
<event>
 4    1  0.1643710E+006  0.2416101E+02  0.7546771E-02  0.1478412E+00
         21   -1    0    0  503  502  0.00000000000E+00  0.00000000000E+00  0.15858549121E+04  0.15858549121E+04  0.00000000000E+00 0. -1.
          2   -1    0    0  502    0 -0.00000000000E+00 -0.00000000000E+00 -0.56791173684E+03  0.56791173684E+03  0.00000000000E+00 0.  1.
         21    1    1    2  503  501  0.18911734697E+02  0.15036651519E+02  0.15855058561E+04  0.15856899364E+04  0.00000000000E+00 0. -1.
          2    1    1    2  501    0 -0.18911734697E+02 -0.15036651519E+02 -0.56756268088E+03  0.56807671253E+03  0.00000000000E+00 0.  1.
</event>
<event>
 4    1  0.1643710E+006  0.2496862E+02  0.7546771E-02  0.1469155E+00
          2   -1    0    0  503    0 -0.00000000000E+00  0.00000000000E+00  0.45695200800E+01  0.45695200800E+01  0.00000000000E+00 0.  1.
         21   -1    0    0  501  502  0.00000000000E+00 -0.00000000000E+00 -0.43991621905E+03  0.43991621905E+03  0.00000000000E+00 0.  1.
         21    1    1    2  503  502 -0.22985932655E+02 -0.97508319692E+01 -0.40226430854E+03  0.40303846684E+03  0.00000000000E+00 0.  1.
          2    1    1    2  501    0  0.22985932655E+02  0.97508319692E+01 -0.33082390433E+02  0.41447272297E+02  0.00000000000E+00 0.  1.
</event>
<event>
 4    1  0.1643710E+006  0.2331966E+02  0.7546771E-02  0.1488523E+00
          2   -1    0    0  503    0 -0.00000000000E+00  0.00000000000E+00  0.16633046353E+03  0.16633046353E+03  0.00000000000E+00 0. -1.
         21   -1    0    0  501  502  0.00000000000E+00 -0.00000000000E+00 -0.53148089630E+01  0.53148089630E+01  0.00000000000E+00 0. -1.
         21    1    1    2  503  502 -0.12899455546E+02 -0.19427057954E+02  0.27267042316E+02  0.35878937147E+02  0.00000000000E+00 0. -1.
          2    1    1    2  501    0  0.12899455546E+02  0.19427057954E+02  0.13374861225E+03  0.13576633535E+03  0.00000000000E+00 0. -1.
</event>
<event>
 4    1  0.1643710E+006  0.2417545E+02  0.7546771E-02  0.1478243E+00
         21   -1    0    0  501  502  0.00000000000E+00  0.00000000000E+00  0.87101731535E+01  0.87101731535E+01  0.00000000000E+00 0. -1.
          3   -1    0    0  503    0 -0.00000000000E+00 -0.00000000000E+00 -0.12328668341E+03  0.12328668341E+03  0.00000000000E+00 0.  1.
         21    1    1    2  503  502  0.22575852992E+02 -0.86477171689E+01 -0.12733668909E+02  0.27323954224E+02  0.00000000000E+00 0. -1.
          3    1    1    2  501    0 -0.22575852992E+02  0.86477171689E+01 -0.10184284134E+03  0.10467290234E+03  0.00000000000E+00 0.  1.
</event>
<event>
 4    1  0.1643710E+006  0.2926436E+02  0.7546771E-02  0.1426099E+00
         -1   -1    0    0    0  501 -0.00000000000E+00  0.00000000000E+00  0.51920684414E+02  0.51920684414E+02  0.00000000000E+00 0. -1.
         21   -1    0    0  501  502  0.00000000000E+00 -0.00000000000E+00 -0.18143228006E+02  0.18143228006E+02  0.00000000000E+00 0. -1.
         21    1    1    2  503  502 -0.11310164651E+02  0.26990421964E+02  0.63281111268E+01  0.29940736342E+02  0.00000000000E+00 0. -1.
         -1    1    1    2    0  503  0.11310164651E+02 -0.26990421964E+02  0.27449345281E+02  0.40123176078E+02  0.00000000000E+00 0. -1.
</event>
<event>
 4    1  0.1643710E+006  0.2185308E+02  0.7546771E-02  0.1507425E+00
          3   -1    0    0  502    0 -0.00000000000E+00  0.00000000000E+00  0.15062218887E+04  0.15062218887E+04  0.00000000000E+00 0. -1.
         21   -1    0    0  503  502  0.00000000000E+00 -0.00000000000E+00 -0.89301326640E+01  0.89301326640E+01  0.00000000000E+00 0.  1.
         21    1    1    2  503  501 -0.64836261530E+01 -0.20869113687E+02  0.46399353205E+01  0.22340239792E+02  0.00000000000E+00 0.  1.
          3    1    1    2  501    0  0.64836261530E+01  0.20869113687E+02  0.14926518207E+04  0.14928117816E+04  0.00000000000E+00 0. -1.
</event>
<event>
 4    1  0.1643710E+006  0.7604534E+02  0.7546771E-02  0.1213338E+00
          1   -1    0    0  502    0 -0.00000000000E+00  0.00000000000E+00  0.60560980179E+03  0.60560980179E+03  0.00000000000E+00 0. -1.
         21   -1    0    0  503  502  0.00000000000E+00 -0.00000000000E+00 -0.18470412295E+03  0.18470412295E+03  0.00000000000E+00 0.  1.
         21    1    1    2  503  501 -0.36281137956E+02  0.66832419515E+02 -0.17435412048E+03  0.19021633105E+03  0.00000000000E+00 0.  1.
          1    1    1    2  501    0  0.36281137956E+02 -0.66832419515E+02  0.59525979932E+03  0.60009759369E+03  0.00000000000E+00 0. -1.
</event>
<event>
 4    1  0.1643710E+006  0.2519375E+02  0.7546771E-02  0.1466648E+00
         -1   -1    0    0    0  501 -0.00000000000E+00  0.00000000000E+00  0.20536115336E+03  0.20536115336E+03  0.00000000000E+00 0.  1.
         21   -1    0    0  503  502  0.00000000000E+00 -0.00000000000E+00 -0.20255943910E+02  0.20255943910E+02  0.00000000000E+00 0.  1.
         21    1    1    2  503  501  0.25028527117E+02 -0.28805826838E+01 -0.11293406901E+02  0.27609164524E+02  0.00000000000E+00 0.  1.
         -1    1    1    2    0  502 -0.25028527117E+02  0.28805826838E+01  0.19639861635E+03  0.19800793274E+03  0.00000000000E+00 0.  1.
</event>
<event>
 4    1  0.1643710E+006  0.4840609E+02  0.7546771E-02  0.1305235E+00
         21   -1    0    0  503  502  0.00000000000E+00  0.00000000000E+00  0.25251011913E+02  0.25251011913E+02  0.00000000000E+00 0.  1.
         -3   -1    0    0    0  501 -0.00000000000E+00 -0.00000000000E+00 -0.30305537444E+03  0.30305537444E+03  0.00000000000E+00 0. -1.
         21    1    1    2  503  501  0.20296647536E+02 -0.43945370112E+02 -0.21709259590E+01  0.48454745640E+02  0.00000000000E+00 0.  1.
         -3    1    1    2    0  502 -0.20296647536E+02  0.43945370112E+02 -0.27563343656E+03  0.27985164071E+03  0.00000000000E+00 0. -1.
</event>
<event>
 4    1  0.1643710E+006  0.3179935E+02  0.7546771E-02  0.1404579E+00
         21   -1    0    0  501  502  0.00000000000E+00  0.00000000000E+00  0.40451010276E+01  0.40451010276E+01  0.00000000000E+00 0. -1.
          1   -1    0    0  503    0 -0.00000000000E+00 -0.00000000000E+00 -0.65663389207E+03  0.65663389207E+03  0.00000000000E+00 0.  1.
         21    1    1    2  503  502  0.30046381272E+02  0.10412193790E+02 -0.66331878079E+02  0.73560294021E+02  0.00000000000E+00 0. -1.
          1    1    1    2  501    0 -0.30046381272E+02 -0.10412193790E+02 -0.58625691297E+03  0.58711869908E+03  0.00000000000E+00 0.  1.
</event>
<event>
 4    1  0.1643710E+006  0.2555073E+02  0.7546771E-02  0.1462736E+00
          1   -1    0    0  502    0 -0.00000000000E+00  0.00000000000E+00  0.10131707457E+02  0.10131707457E+02  0.00000000000E+00 0. -1.
         21   -1    0    0  503  502  0.00000000000E+00 -0.00000000000E+00 -0.16094362639E+03  0.16094362639E+03  0.00000000000E+00 0.  1.
         21    1    1    2  503  501  0.22244266724E+02 -0.12571101222E+02 -0.14164328938E+03  0.14392936258E+03  0.00000000000E+00 0.  1.
          1    1    1    2  501    0 -0.22244266724E+02  0.12571101222E+02 -0.91686295588E+01  0.27145971266E+02  0.00000000000E+00 0. -1.
</event>
<event>
 4    1  0.1643710E+006  0.2325931E+02  0.7546771E-02  0.1489267E+00
          2   -1    0    0  503    0 -0.00000000000E+00  0.00000000000E+00  0.33597487933E+02  0.33597487933E+02  0.00000000000E+00 0. -1.
         21   -1    0    0  501  502  0.00000000000E+00 -0.00000000000E+00 -0.58580233087E+02  0.58580233087E+02  0.00000000000E+00 0. -1.
         21    1    1    2  503  502  0.22915282673E+02 -0.39856488834E+01 -0.51737996345E+02  0.56725795215E+02  0.00000000000E+00 0. -1.
          2    1    1    2  501    0 -0.22915282673E+02  0.39856488834E+01  0.26755251190E+02  0.35451925805E+02  0.00000000000E+00 0. -1.
</event>
<event>
 4    1  0.1643710E+006  0.2157338E+02  0.7546771E-02  0.1511234E+00
         21   -1    0    0  501  502  0.00000000000E+00  0.00000000000E+00  0.30354525427E+03  0.30354525427E+03  0.00000000000E+00 0.  1.
         -3   -1    0    0    0  501 -0.00000000000E+00 -0.00000000000E+00 -0.27548704749E+02  0.27548704749E+02  0.00000000000E+00 0.  1.
         21    1    1    2  503  502 -0.21536052925E+02 -0.12685349951E+01  0.29887246724E+03  0.29965006663E+03  0.00000000000E+00 0.  1.
         -3    1    1    2    0  503  0.21536052925E+02  0.12685349951E+01 -0.22875917724E+02  0.31443892385E+02  0.00000000000E+00 0.  1.
</event>
<event>
 4    1  0.1643710E+006  0.2417557E+02  0.7546771E-02  0.1478241E+00
         21   -1    0    0  503  502  0.00000000000E+00  0.00000000000E+00  0.42677674155E+02  0.42677674155E+02  0.00000000000E+00 0.  1.
          1   -1    0    0  502    0 -0.00000000000E+00 -0.00000000000E+00 -0.81356790952E+03  0.81356790952E+03  0.00000000000E+00 0. -1.
         21    1    1    2  503  501 -0.13120881712E+02  0.20305189536E+02  0.39059107686E+02  0.45935521682E+02  0.00000000000E+00 0.  1.
          1    1    1    2  501    0  0.13120881712E+02 -0.20305189536E+02 -0.80994934305E+03  0.81031006200E+03  0.00000000000E+00 0. -1.
</event>
<event>
 4    1  0.1643710E+006  0.2174432E+02  0.7546771E-02  0.1508898E+00
          2   -1    0    0  503    0 -0.00000000000E+00  0.00000000000E+00  0.90682295867E+03  0.90682295867E+03  0.00000000000E+00 0.  1.
         21   -1    0    0  501  502  0.00000000000E+00 -0.00000000000E+00 -0.12127105925E+01  0.12127105925E+01  0.00000000000E+00 0. -1.
         21    1    1    2  503  502 -0.19684068356E+02 -0.92386741361E+01  0.11001241839E+03  0.11214075016E+03  0.00000000000E+00 0. -1.
          2    1    1    2  501    0  0.19684068356E+02  0.92386741361E+01  0.79559782969E+03  0.79589491910E+03  0.00000000000E+00 0.  1.
</event>
<event>
 4    1  0.1643710E+006  0.2153174E+02  0.7546771E-02  0.1511807E+00
         21   -1    0    0  501  502  0.00000000000E+00  0.00000000000E+00  0.61701844959E+02  0.61701844959E+02  0.00000000000E+00 0.  1.
          1   -1    0    0  503    0 -0.00000000000E+00 -0.00000000000E+00 -0.78430687084E+01  0.78430687084E+01  0.00000000000E+00 0.  1.
         21    1    1    2  503  502  0.20432256733E+02 -0.67925580756E+01  0.34053992946E+02  0.40290078133E+02  0.00000000000E+00 0.  1.
          1    1    1    2  501    0 -0.20432256733E+02  0.67925580756E+01  0.19804783304E+02  0.29254835534E+02  0.00000000000E+00 0.  1.
</event>
<event>
 4    1  0.1643710E+006  0.2493717E+02  0.7546771E-02  0.1469508E+00
         -1   -1    0    0    0  501 -0.00000000000E+00  0.00000000000E+00  0.14891224156E+02  0.14891224156E+02  0.00000000000E+00 0. -1.
         21   -1    0    0  503  502  0.00000000000E+00 -0.00000000000E+00 -0.45155742696E+02  0.45155742696E+02  0.00000000000E+00 0.  1.
         21    1    1    2  503  501 -0.19035180464E+02  0.16109759628E+02 -0.23365120609E+02  0.34172961705E+02  0.00000000000E+00 0.  1.
         -1    1    1    2    0  502  0.19035180464E+02 -0.16109759628E+02 -0.68993979309E+01  0.25874005148E+02  0.00000000000E+00 0. -1.
</event>
<event>
 4    1  0.1643710E+006  0.4891844E+02  0.7546771E-02  0.1302931E+00
         21   -1    0    0  501  502  0.00000000000E+00  0.00000000000E+00  0.82948896652E+01  0.82948896652E+01  0.00000000000E+00 0.  1.
          1   -1    0    0  503    0 -0.00000000000E+00 -0.00000000000E+00 -0.40437965344E+03  0.40437965344E+03  0.00000000000E+00 0. -1.
         21    1    1    2  503  502 -0.48481482136E+02 -0.65237723004E+01 -0.87583504555E+02  0.10031891140E+03  0.00000000000E+00 0.  1.
          1    1    1    2  501    0  0.48481482136E+02  0.65237723004E+01 -0.30850125922E+03  0.31235563170E+03  0.00000000000E+00 0. -1.
</event>
<event>
 4    1  0.1643710E+006  0.2032289E+02  0.7546771E-02  0.1529156E+00
         21   -1    0    0  501  502  0.00000000000E+00  0.00000000000E+00  0.48460384033E+03  0.48460384033E+03  0.00000000000E+00 0. -1.
          1   -1    0    0  503    0 -0.00000000000E+00 -0.00000000000E+00 -0.17945281287E+02  0.17945281287E+02  0.00000000000E+00 0.  1.
         21    1    1    2  503  502  0.59062456501E+01 -0.19445726510E+02  0.47856430697E+03  0.47899563247E+03  0.00000000000E+00 0. -1.
          1    1    1    2  501    0 -0.59062456501E+01  0.19445726510E+02 -0.11905747930E+02  0.23553489146E+02  0.00000000000E+00 0.  1.
</event>
<event>
 4    1  0.1643710E+006  0.3849801E+02  0.7546771E-02  0.1357519E+00
         -1   -1    0    0    0  501 -0.00000000000E+00  0.00000000000E+00  0.11762700575E+04  0.11762700575E+04  0.00000000000E+00 0. -1.
         21   -1    0    0  501  502  0.00000000000E+00 -0.00000000000E+00 -0.14307630122E+01  0.14307630122E+01  0.00000000000E+00 0.  1.
         21    1    1    2  503  502  0.32373205156E+02 -0.20834399158E+02  0.38398636649E+03  0.38591142280E+03  0.00000000000E+00 0.  1.
         -1    1    1    2    0  503 -0.32373205156E+02  0.20834399158E+02  0.79085292796E+03  0.79178939767E+03  0.00000000000E+00 0. -1.
</event>
<event>
 4    1  0.1643710E+006  0.2059759E+02  0.7546771E-02  0.1525088E+00
         -2   -1    0    0    0  501 -0.00000000000E+00  0.00000000000E+00  0.65834954268E+02  0.65834954268E+02  0.00000000000E+00 0.  1.
         21   -1    0    0  503  502  0.00000000000E+00 -0.00000000000E+00 -0.74484799865E+01  0.74484799865E+01  0.00000000000E+00 0. -1.
         21    1    1    2  503  501  0.20048095587E+02 -0.47259681243E+01  0.15739423104E+02  0.25922776684E+02  0.00000000000E+00 0. -1.
         -2    1    1    2    0  502 -0.20048095587E+02  0.47259681243E+01  0.42647051177E+02  0.47360657570E+02  0.00000000000E+00 0.  1.
</event>
<event>
 4    1  0.1643710E+006  0.2494340E+02  0.7546771E-02  0.1469438E+00
         21   -1    0    0  501  502  0.00000000000E+00  0.00000000000E+00  0.16893474665E+02  0.16893474665E+02  0.00000000000E+00 0. -1.
          1   -1    0    0  503    0 -0.00000000000E+00 -0.00000000000E+00 -0.60361069900E+03  0.60361069900E+03  0.00000000000E+00 0. -1.
         21    1    1    2  503  502 -0.14579705143E+02  0.20238714868E+02  0.72795268804E+01  0.25983935291E+02  0.00000000000E+00 0. -1.
          1    1    1    2  501    0  0.14579705143E+02 -0.20238714868E+02 -0.59399675122E+03  0.59452023838E+03  0.00000000000E+00 0. -1.
</event>
<event>
 4    1  0.1643710E+006  0.2169878E+02  0.7546771E-02  0.1509518E+00
         21   -1    0    0  501  502  0.00000000000E+00  0.00000000000E+00  0.70628221052E+01  0.70628221052E+01  0.00000000000E+00 0. -1.
          2   -1    0    0  503    0 -0.00000000000E+00 -0.00000000000E+00 -0.70362319830E+03  0.70362319830E+03  0.00000000000E+00 0.  1.
         21    1    1    2  503  502  0.18798763914E+02 -0.10837138350E+02 -0.10189308736E+02  0.23972048407E+02  0.00000000000E+00 0. -1.
          2    1    1    2  501    0 -0.18798763914E+02  0.10837138350E+02 -0.68637106746E+03  0.68671397200E+03  0.00000000000E+00 0.  1.
</event>
<event>
 4    1  0.1643710E+006  0.3104608E+02  0.7546771E-02  0.1410719E+00
         21   -1    0    0  503  502  0.00000000000E+00  0.00000000000E+00  0.52767652143E+01  0.52767652143E+01  0.00000000000E+00 0. -1.
          2   -1    0    0  502    0 -0.00000000000E+00 -0.00000000000E+00 -0.45166043442E+03  0.45166043442E+03  0.00000000000E+00 0.  1.
         21    1    1    2  503  501  0.85978777696E+01 -0.29831785565E+02 -0.46874008655E+02  0.56223052385E+02  0.00000000000E+00 0. -1.
          2    1    1    2  501    0 -0.85978777696E+01  0.29831785565E+02 -0.39950966055E+03  0.40071414725E+03  0.00000000000E+00 0.  1.
</event>
<event>
 4    1  0.1643710E+006  0.2971537E+02  0.7546771E-02  0.1422086E+00
         21   -1    0    0  503  502  0.00000000000E+00  0.00000000000E+00  0.21693106915E+02  0.21693106915E+02  0.00000000000E+00 0. -1.
         -2   -1    0    0    0  501 -0.00000000000E+00 -0.00000000000E+00 -0.49864135291E+02  0.49864135291E+02  0.00000000000E+00 0.  1.
         21    1    1    2  503  501 -0.75497410325E+01 -0.28740299062E+02  0.12490902239E+01  0.29741614048E+02  0.00000000000E+00 0. -1.
         -2    1    1    2    0  502  0.75497410325E+01  0.28740299062E+02 -0.29420118600E+02  0.41815628158E+02  0.00000000000E+00 0.  1.
</event>
<event>
 4    1  0.1643710E+006  0.3227124E+02  0.7546771E-02  0.1400834E+00
          1   -1    0    0  503    0 -0.00000000000E+00  0.00000000000E+00  0.55050922535E+03  0.55050922535E+03  0.00000000000E+00 0. -1.
         21   -1    0    0  501  502  0.00000000000E+00 -0.00000000000E+00 -0.21841927155E+01  0.21841927155E+01  0.00000000000E+00 0.  1.
         21    1    1    2  503  502  0.12186008646E+02  0.29881999976E+02  0.17304650871E+03  0.17602990344E+03  0.00000000000E+00 0.  1.
          1    1    1    2  501    0 -0.12186008646E+02 -0.29881999976E+02  0.37527852393E+03  0.37666351463E+03  0.00000000000E+00 0. -1.
</event>
<event>
 4    1  0.1643710E+006  0.2178946E+02  0.7546771E-02  0.1508285E+00
          2   -1    0    0  503    0 -0.00000000000E+00  0.00000000000E+00  0.93448596111E+03  0.93448596111E+03  0.00000000000E+00 0. -1.
         21   -1    0    0  501  502  0.00000000000E+00 -0.00000000000E+00 -0.39468164427E+01  0.39468164427E+01  0.00000000000E+00 0.  1.
         21    1    1    2  503  502  0.93588888331E+01  0.19677192458E+02  0.27293860417E+02  0.34924712163E+02  0.00000000000E+00 0.  1.
          2    1    1    2  501    0 -0.93588888331E+01 -0.19677192458E+02  0.90324528425E+03  0.90350806539E+03  0.00000000000E+00 0. -1.
</event>
<event>
 4    1  0.1643710E+006  0.2238524E+02  0.7546771E-02  0.1500365E+00
         21   -1    0    0  501  502  0.00000000000E+00  0.00000000000E+00  0.14796135823E+02  0.14796135823E+02  0.00000000000E+00 0.  1.
          4   -1    0    0  503    0 -0.00000000000E+00 -0.00000000000E+00 -0.98121781954E+02  0.98121781954E+02  0.00000000000E+00 0.  1.
         21    1    1    2  503  502  0.13994928344E+02 -0.17471150528E+02  0.40252926723E+01  0.22744276230E+02  0.00000000000E+00 0.  1.
          4    1    1    2  501    0 -0.13994928344E+02  0.17471150528E+02 -0.87350938803E+02  0.90173641548E+02  0.00000000000E+00 0.  1.
</event>
<event>
 4    1  0.1643710E+006  0.5477839E+02  0.7546771E-02  0.1278686E+00
         21   -1    0    0  503  502  0.00000000000E+00  0.00000000000E+00  0.65369543612E+03  0.65369543612E+03  0.00000000000E+00 0. -1.
         -3   -1    0    0    0  501 -0.00000000000E+00 -0.00000000000E+00 -0.33734653437E+02  0.33734653437E+02  0.00000000000E+00 0.  1.
         21    1    1    2  503  501  0.44198991009E+02 -0.32359249134E+02  0.62945582811E+03  0.63183487665E+03  0.00000000000E+00 0. -1.
         -3    1    1    2    0  502 -0.44198991009E+02  0.32359249134E+02 -0.94950454249E+01  0.55595212909E+02  0.00000000000E+00 0.  1.
</event>
<event>
 4    1  0.1643710E+006  0.2304957E+02  0.7546771E-02  0.1491877E+00
         21   -1    0    0  501  502  0.00000000000E+00  0.00000000000E+00  0.16506575724E+02  0.16506575724E+02  0.00000000000E+00 0.  1.
         -4   -1    0    0    0  501 -0.00000000000E+00 -0.00000000000E+00 -0.99740630777E+02  0.99740630777E+02  0.00000000000E+00 0.  1.
         21    1    1    2  503  502  0.12928547618E+02 -0.19082328278E+02  0.62177388313E+01  0.23873476332E+02  0.00000000000E+00 0.  1.
         -4    1    1    2    0  503 -0.12928547618E+02  0.19082328278E+02 -0.89451793885E+02  0.92373730169E+02  0.00000000000E+00 0.  1.
</event>
<event>
 4    1  0.1643710E+006  0.2234614E+02  0.7546771E-02  0.1500876E+00
          2   -1    0    0  502    0 -0.00000000000E+00  0.00000000000E+00  0.94106748942E+03  0.94106748942E+03  0.00000000000E+00 0.  1.
         21   -1    0    0  503  502  0.00000000000E+00 -0.00000000000E+00 -0.62795631978E+00  0.62795631978E+00  0.00000000000E+00 0. -1.
         21    1    1    2  503  501 -0.21882535833E+02  0.45282076059E+01  0.28484470698E+03  0.28571989279E+03  0.00000000000E+00 0. -1.
          2    1    1    2  501    0  0.21882535833E+02 -0.45282076059E+01  0.65559482611E+03  0.65597555295E+03  0.00000000000E+00 0.  1.
</event>
<event>
 4    1  0.1643710E+006  0.2437506E+02  0.7546771E-02  0.1475917E+00
         21   -1    0    0  503  502  0.00000000000E+00  0.00000000000E+00  0.20454788980E+02  0.20454788980E+02  0.00000000000E+00 0.  1.
          3   -1    0    0  502    0 -0.00000000000E+00 -0.00000000000E+00 -0.52818855347E+02  0.52818855347E+02  0.00000000000E+00 0.  1.
         21    1    1    2  503  501 -0.24041203503E+02 -0.40204505307E+01  0.83966077617E+01  0.25780739133E+02  0.00000000000E+00 0.  1.
          3    1    1    2  501    0  0.24041203503E+02  0.40204505307E+01 -0.40760674129E+02  0.47492905194E+02  0.00000000000E+00 0.  1.
</event>
<event>
 4    1  0.1643710E+006  0.4145029E+02  0.7546771E-02  0.1340191E+00
          1   -1    0    0  502    0 -0.00000000000E+00  0.00000000000E+00  0.10558447314E+02  0.10558447314E+02  0.00000000000E+00 0. -1.
         21   -1    0    0  503  502  0.00000000000E+00 -0.00000000000E+00 -0.88109460996E+03  0.88109460996E+03  0.00000000000E+00 0. -1.
         21    1    1    2  503  501 -0.40858352230E+02 -0.69800598390E+01 -0.83782614410E+03  0.83885086512E+03  0.00000000000E+00 0. -1.
          1    1    1    2  501    0  0.40858352230E+02  0.69800598390E+01 -0.32710018541E+02  0.52802192144E+02  0.00000000000E+00 0. -1.
</event>
<event>
 4    1  0.1643710E+006  0.2727804E+02  0.7546771E-02  0.1444835E+00
         21   -1    0    0  501  502  0.00000000000E+00  0.00000000000E+00  0.60888147797E+00  0.60888147797E+00  0.00000000000E+00 0.  1.
         -1   -1    0    0    0  501 -0.00000000000E+00 -0.00000000000E+00 -0.19652739119E+04  0.19652739119E+04  0.00000000000E+00 0.  1.
         21    1    1    2  503  502  0.13777410353E+02  0.23543034819E+02 -0.37786617731E+03  0.37884949449E+03  0.00000000000E+00 0.  1.
         -1    1    1    2    0  503 -0.13777410353E+02 -0.23543034819E+02 -0.15867988531E+04  0.15870332989E+04  0.00000000000E+00 0.  1.
</event>
<event>
 4    1  0.1643710E+006  0.3041850E+02  0.7546771E-02  0.1415994E+00
          1   -1    0    0  502    0 -0.00000000000E+00  0.00000000000E+00  0.55514677798E+02  0.55514677798E+02  0.00000000000E+00 0. -1.
         21   -1    0    0  503  502  0.00000000000E+00 -0.00000000000E+00 -0.39009749371E+02  0.39009749371E+02  0.00000000000E+00 0. -1.
         21    1    1    2  503  501 -0.31191379538E+01 -0.30258154112E+02 -0.27515314737E+02  0.41016794816E+02  0.00000000000E+00 0. -1.
          1    1    1    2  501    0  0.31191379538E+01  0.30258154112E+02  0.44020243165E+02  0.53507632354E+02  0.00000000000E+00 0. -1.
</event>
<event>
 4    1  0.1643710E+006  0.2548827E+02  0.7546771E-02  0.1463415E+00
          2   -1    0    0  502    0 -0.00000000000E+00  0.00000000000E+00  0.13166597753E+01  0.13166597753E+01  0.00000000000E+00 0. -1.
         21   -1    0    0  503  502  0.00000000000E+00 -0.00000000000E+00 -0.56646724055E+03  0.56646724055E+03  0.00000000000E+00 0. -1.
         21    1    1    2  503  501 -0.13902641312E+02 -0.21362785728E+02 -0.38452821340E+03  0.38537202669E+03  0.00000000000E+00 0. -1.
          2    1    1    2  501    0  0.13902641312E+02  0.21362785728E+02 -0.18062236737E+03  0.18241187364E+03  0.00000000000E+00 0. -1.
</event>
<event>
 4    1  0.1643710E+006  0.7617418E+02  0.7546771E-02  0.1213019E+00
          2   -1    0    0  503    0 -0.00000000000E+00  0.00000000000E+00  0.53999435638E+03  0.53999435638E+03  0.00000000000E+00 0. -1.
         21   -1    0    0  501  502  0.00000000000E+00 -0.00000000000E+00 -0.10854998559E+02  0.10854998559E+02  0.00000000000E+00 0. -1.
         21    1    1    2  503  502  0.75916621848E+02 -0.62587308861E+01  0.23690615612E+03  0.24885142554E+03  0.00000000000E+00 0. -1.
          2    1    1    2  501    0 -0.75916621848E+02  0.62587308861E+01  0.29223320170E+03  0.30199792940E+03  0.00000000000E+00 0. -1.
</event>
<event>
 4    1  0.1643710E+006  0.4183872E+02  0.7546771E-02  0.1338035E+00
          1   -1    0    0  502    0 -0.00000000000E+00  0.00000000000E+00  0.20539408016E+04  0.20539408016E+04  0.00000000000E+00 0. -1.
         21   -1    0    0  503  502  0.00000000000E+00 -0.00000000000E+00 -0.48712911997E+02  0.48712911997E+02  0.00000000000E+00 0.  1.
         21    1    1    2  503  501 -0.28969150506E+02  0.30187190114E+02 -0.39475622276E+02  0.57522194691E+02  0.00000000000E+00 0.  1.
          1    1    1    2  501    0  0.28969150506E+02 -0.30187190114E+02  0.20447035119E+04  0.20451315190E+04  0.00000000000E+00 0. -1.
</event>
<event>
 4    1  0.1643710E+006  0.2595597E+02  0.7546771E-02  0.1458387E+00
         21   -1    0    0  503  502  0.00000000000E+00  0.00000000000E+00  0.18920058961E+02  0.18920058961E+02  0.00000000000E+00 0. -1.
          3   -1    0    0  502    0 -0.00000000000E+00 -0.00000000000E+00 -0.78582738482E+02  0.78582738482E+02  0.00000000000E+00 0. -1.
         21    1    1    2  503  501  0.61463687419E+01  0.25217744261E+02  0.62205677924E+01  0.26690971095E+02  0.00000000000E+00 0. -1.
          3    1    1    2  501    0 -0.61463687419E+01 -0.25217744261E+02 -0.65883247314E+02  0.70811826349E+02  0.00000000000E+00 0. -1.
</event>
<event>
 4    1  0.1643710E+006  0.5276513E+02  0.7546771E-02  0.1286609E+00
         21   -1    0    0  503  502  0.00000000000E+00  0.00000000000E+00  0.18846527501E+02  0.18846527501E+02  0.00000000000E+00 0. -1.
          2   -1    0    0  502    0 -0.00000000000E+00 -0.00000000000E+00 -0.15570104634E+04  0.15570104634E+04  0.00000000000E+00 0.  1.
         21    1    1    2  503  501  0.50267090525E+02  0.16043034828E+02 -0.19463859696E+02  0.56240565347E+02  0.00000000000E+00 0. -1.
          2    1    1    2  501    0 -0.50267090525E+02 -0.16043034828E+02 -0.15187000762E+04  0.15196164255E+04  0.00000000000E+00 0.  1.
</event>
<event>
 4    1  0.1643710E+006  0.2172117E+02  0.7546771E-02  0.1509213E+00
         21   -1    0    0  503  502  0.00000000000E+00  0.00000000000E+00  0.22031371935E+03  0.22031371935E+03  0.00000000000E+00 0. -1.
         -3   -1    0    0    0  501 -0.00000000000E+00 -0.00000000000E+00 -0.52732709001E+02  0.52732709001E+02  0.00000000000E+00 0. -1.
         21    1    1    2  503  501 -0.11143252353E+00 -0.21720879587E+02  0.21751280951E+03  0.21859467361E+03  0.00000000000E+00 0. -1.
         -3    1    1    2    0  502  0.11143252353E+00  0.21720879587E+02 -0.49931799163E+02  0.54451754745E+02  0.00000000000E+00 0. -1.
</event>
<event>
 4    1  0.1643710E+006  0.3070246E+02  0.7546771E-02  0.1413588E+00
         21   -1    0    0  501  502  0.00000000000E+00  0.00000000000E+00  0.64892944343E+02  0.64892944343E+02  0.00000000000E+00 0. -1.
          2   -1    0    0  503    0 -0.00000000000E+00 -0.00000000000E+00 -0.20864934735E+02  0.20864934735E+02  0.00000000000E+00 0.  1.
         21    1    1    2  503  502  0.23225728413E+02 -0.20079997305E+02  0.45648186865E+02  0.55012705043E+02  0.00000000000E+00 0. -1.
          2    1    1    2  501    0 -0.23225728413E+02  0.20079997305E+02 -0.16201772561E+01  0.30745174035E+02  0.00000000000E+00 0.  1.
</event>
<event>
 4    1  0.1643710E+006  0.2476546E+02  0.7546771E-02  0.1471444E+00
          3   -1    0    0  502    0 -0.00000000000E+00  0.00000000000E+00  0.71176204324E+03  0.71176204324E+03  0.00000000000E+00 0.  1.
         21   -1    0    0  503  502  0.00000000000E+00 -0.00000000000E+00 -0.96790617384E+00  0.96790617384E+00  0.00000000000E+00 0.  1.
         21    1    1    2  503  501 -0.12073866517E+02 -0.21622898771E+02  0.23735259802E+03  0.23864111924E+03  0.00000000000E+00 0.  1.
          3    1    1    2  501    0  0.12073866517E+02  0.21622898771E+02  0.47344153904E+03  0.47408883017E+03  0.00000000000E+00 0.  1.
</event>
<event>
 4    1  0.1643710E+006  0.3084790E+02  0.7546771E-02  0.1412368E+00
          2   -1    0    0  503    0 -0.00000000000E+00  0.00000000000E+00  0.36818976887E+03  0.36818976887E+03  0.00000000000E+00 0. -1.
         21   -1    0    0  501  502  0.00000000000E+00 -0.00000000000E+00 -0.67078540364E+01  0.67078540364E+01  0.00000000000E+00 0.  1.
         21    1    1    2  503  502 -0.46582140183E+01  0.30494160212E+02  0.33775490155E+02  0.45742502119E+02  0.00000000000E+00 0.  1.
          2    1    1    2  501    0  0.46582140183E+01 -0.30494160212E+02  0.32770642468E+03  0.32915512079E+03  0.00000000000E+00 0. -1.
</event>
<event>
 4    1  0.1643710E+006  0.2015960E+02  0.7546771E-02  0.1531610E+00
          3   -1    0    0  502    0 -0.00000000000E+00  0.00000000000E+00  0.18803718514E+02  0.18803718514E+02  0.00000000000E+00 0. -1.
         21   -1    0    0  503  502  0.00000000000E+00 -0.00000000000E+00 -0.33804945076E+02  0.33804945076E+02  0.00000000000E+00 0. -1.
         21    1    1    2  503  501 -0.68758003394E+01  0.18950795661E+02 -0.23297422594E+02  0.30808751776E+02  0.00000000000E+00 0. -1.
          3    1    1    2  501    0  0.68758003394E+01 -0.18950795661E+02  0.82961960316E+01  0.21799911814E+02  0.00000000000E+00 0. -1.
</event>
<event>
 4    1  0.1643710E+006  0.3361177E+02  0.7546771E-02  0.1390595E+00
         21   -1    0    0  501  502  0.00000000000E+00  0.00000000000E+00  0.15893754135E+03  0.15893754135E+03  0.00000000000E+00 0. -1.
          2   -1    0    0  503    0 -0.00000000000E+00 -0.00000000000E+00 -0.42350929595E+03  0.42350929595E+03  0.00000000000E+00 0.  1.
         21    1    1    2  503  502  0.13831868335E+02  0.30633808078E+02  0.15648326547E+03  0.16005237627E+03  0.00000000000E+00 0. -1.
          2    1    1    2  501    0 -0.13831868335E+02 -0.30633808078E+02 -0.42105502007E+03  0.42239446103E+03  0.00000000000E+00 0.  1.
</event>
<event>
 4    1  0.1643710E+006  0.3275256E+02  0.7546771E-02  0.1397091E+00
         -1   -1    0    0    0  501 -0.00000000000E+00  0.00000000000E+00  0.10336075204E+03  0.10336075204E+03  0.00000000000E+00 0. -1.
         21   -1    0    0  501  502  0.00000000000E+00 -0.00000000000E+00 -0.28077861034E+02  0.28077861034E+02  0.00000000000E+00 0. -1.
         21    1    1    2  503  502 -0.10948021949E+02 -0.30868611599E+02 -0.14536822723E+02  0.35833637570E+02  0.00000000000E+00 0. -1.
         -1    1    1    2    0  503  0.10948021949E+02  0.30868611599E+02  0.89819713725E+02  0.95604975499E+02  0.00000000000E+00 0. -1.
</event>
<event>
 4    1  0.1643710E+006  0.2229388E+02  0.7546771E-02  0.1501560E+00
         21   -1    0    0  501  502  0.00000000000E+00  0.00000000000E+00  0.68013041896E+01  0.68013041896E+01  0.00000000000E+00 0.  1.
          2   -1    0    0  503    0 -0.00000000000E+00 -0.00000000000E+00 -0.74632456169E+02  0.74632456169E+02  0.00000000000E+00 0.  1.
         21    1    1    2  503  502 -0.16988923052E+01  0.22229057354E+02 -0.28036974730E+02  0.35820234197E+02  0.00000000000E+00 0.  1.
          2    1    1    2  501    0  0.16988923052E+01 -0.22229057354E+02 -0.39794177249E+02  0.45613526161E+02  0.00000000000E+00 0.  1.
</event>
<event>
 4    1  0.1643710E+006  0.2065422E+02  0.7546771E-02  0.1524259E+00
         21   -1    0    0  501  502  0.00000000000E+00  0.00000000000E+00  0.25884932589E+02  0.25884932589E+02  0.00000000000E+00 0.  1.
          3   -1    0    0  503    0 -0.00000000000E+00 -0.00000000000E+00 -0.25827487013E+02  0.25827487013E+02  0.00000000000E+00 0. -1.
         21    1    1    2  503  502  0.13750209201E+02 -0.15411958976E+02  0.15583346740E+02  0.25873488906E+02  0.00000000000E+00 0.  1.
          3    1    1    2  501    0 -0.13750209201E+02  0.15411958976E+02 -0.15525901164E+02  0.25838930696E+02  0.00000000000E+00 0. -1.
</event>
<event>
 4    1  0.1643710E+006  0.2286595E+02  0.7546771E-02  0.1494188E+00
          2   -1    0    0  502    0 -0.00000000000E+00  0.00000000000E+00  0.66074342703E+03  0.66074342703E+03  0.00000000000E+00 0. -1.
         21   -1    0    0  503  502  0.00000000000E+00 -0.00000000000E+00 -0.84396505456E+00  0.84396505456E+00  0.00000000000E+00 0. -1.
         21    1    1    2  503  501 -0.17905129083E+02 -0.14221749970E+02  0.24732279442E+03  0.24837756835E+03  0.00000000000E+00 0. -1.
          2    1    1    2  501    0  0.17905129083E+02  0.14221749970E+02  0.41257666756E+03  0.41320982374E+03  0.00000000000E+00 0. -1.
</event>
<event>
 4    1  0.1643710E+006  0.2282133E+02  0.7546771E-02  0.1494754E+00
          2   -1    0    0  503    0 -0.00000000000E+00  0.00000000000E+00  0.68145093199E+01  0.68145093199E+01  0.00000000000E+00 0. -1.
         21   -1    0    0  501  502  0.00000000000E+00 -0.00000000000E+00 -0.77239281828E+02  0.77239281828E+02  0.00000000000E+00 0. -1.
         21    1    1    2  503  502  0.22219784296E+02  0.52052240913E+01 -0.39521970272E+02  0.45637696109E+02  0.00000000000E+00 0. -1.
          2    1    1    2  501    0 -0.22219784296E+02 -0.52052240913E+01 -0.30902802236E+02  0.38416095039E+02  0.00000000000E+00 0. -1.
</event>
<event>
 4    1  0.1643710E+006  0.2093095E+02  0.7546771E-02  0.1520253E+00
          3   -1    0    0  502    0 -0.00000000000E+00  0.00000000000E+00  0.25014813966E+02  0.25014813966E+02  0.00000000000E+00 0.  1.
         21   -1    0    0  503  502  0.00000000000E+00 -0.00000000000E+00 -0.23619836500E+03  0.23619836500E+03  0.00000000000E+00 0.  1.
         21    1    1    2  503  501 -0.19419502173E+02 -0.78094537683E+01 -0.23126295861E+03  0.23220822694E+03  0.00000000000E+00 0.  1.
          3    1    1    2  501    0  0.19419502173E+02  0.78094537683E+01  0.20079407583E+02  0.29004952021E+02  0.00000000000E+00 0.  1.
</event>
<event>
 4    1  0.1643710E+006  0.2153849E+02  0.7546771E-02  0.1511714E+00
         21   -1    0    0  501  502  0.00000000000E+00  0.00000000000E+00  0.73928963620E+02  0.73928963620E+02  0.00000000000E+00 0.  1.
         -4   -1    0    0    0  501 -0.00000000000E+00 -0.00000000000E+00 -0.65138626415E+02  0.65138626415E+02  0.00000000000E+00 0. -1.
         21    1    1    2  503  502  0.93910539226E+01 -0.19383362973E+02  0.70494949785E+02  0.73711902696E+02  0.00000000000E+00 0.  1.
         -4    1    1    2    0  503 -0.93910539226E+01  0.19383362973E+02 -0.61704612580E+02  0.65355687339E+02  0.00000000000E+00 0. -1.
</event>
<event>
 4    1  0.1643710E+006  0.2738599E+02  0.7546771E-02  0.1443769E+00
          2   -1    0    0  503    0 -0.00000000000E+00  0.00000000000E+00  0.93072368558E+02  0.93072368558E+02  0.00000000000E+00 0.  1.
         21   -1    0    0  501  502  0.00000000000E+00 -0.00000000000E+00 -0.32465298714E+02  0.32465298714E+02  0.00000000000E+00 0.  1.
         21    1    1    2  503  502 -0.24630109283E+01 -0.27275006654E+02 -0.24120753077E+02  0.36493878114E+02  0.00000000000E+00 0.  1.
          2    1    1    2  501    0  0.24630109283E+01  0.27275006654E+02  0.84727822920E+02  0.89043789158E+02  0.00000000000E+00 0.  1.
</event>
<event>
 4    1  0.1643710E+006  0.2523379E+02  0.7546771E-02  0.1466205E+00
          2   -1    0    0  503    0 -0.00000000000E+00  0.00000000000E+00  0.89503664398E+01  0.89503664398E+01  0.00000000000E+00 0. -1.
         21   -1    0    0  501  502  0.00000000000E+00 -0.00000000000E+00 -0.19246179175E+03  0.19246179175E+03  0.00000000000E+00 0. -1.
         21    1    1    2  503  502 -0.11484288922E+01  0.25207638982E+02 -0.17171149122E+03  0.17355569760E+03  0.00000000000E+00 0. -1.
          2    1    1    2  501    0  0.11484288922E+01 -0.25207638982E+02 -0.11799934085E+02  0.27856460586E+02  0.00000000000E+00 0. -1.
</event>
<event>
 4    1  0.1643710E+006  0.2637593E+02  0.7546771E-02  0.1453980E+00
         21   -1    0    0  503  502  0.00000000000E+00  0.00000000000E+00  0.55081054874E+02  0.55081054874E+02  0.00000000000E+00 0. -1.
          1   -1    0    0  502    0 -0.00000000000E+00 -0.00000000000E+00 -0.12989179137E+03  0.12989179137E+03  0.00000000000E+00 0.  1.
         21    1    1    2  503  501 -0.18171201122E+02  0.19117980973E+02  0.50469533807E+02  0.56946146396E+02  0.00000000000E+00 0. -1.
          1    1    1    2  501    0  0.18171201122E+02 -0.19117980973E+02 -0.12528027030E+03  0.12802669985E+03  0.00000000000E+00 0.  1.
</event>
<event>
 4    1  0.1643710E+006  0.2491491E+02  0.7546771E-02  0.1469758E+00
          1   -1    0    0  503    0 -0.00000000000E+00  0.00000000000E+00  0.44999007522E+02  0.44999007522E+02  0.00000000000E+00 0.  1.
         21   -1    0    0  501  502  0.00000000000E+00 -0.00000000000E+00 -0.34026875242E+02  0.34026875242E+02  0.00000000000E+00 0.  1.
         21    1    1    2  503  502 -0.22760906025E+02 -0.10133804642E+02 -0.24982247318E+02  0.35282651837E+02  0.00000000000E+00 0.  1.
          1    1    1    2  501    0  0.22760906025E+02  0.10133804642E+02  0.35954379598E+02  0.43743230927E+02  0.00000000000E+00 0.  1.
</event>
<event>
 4    1  0.1643710E+006  0.2517473E+02  0.7546771E-02  0.1466858E+00
         -1   -1    0    0    0  501 -0.00000000000E+00  0.00000000000E+00  0.76917882770E+02  0.76917882770E+02  0.00000000000E+00 0. -1.
         21   -1    0    0  503  502  0.00000000000E+00 -0.00000000000E+00 -0.88076508552E+03  0.88076508552E+03  0.00000000000E+00 0. -1.
         21    1    1    2  503  501 -0.84249113999E+01 -0.23723153292E+02 -0.87852004926E+03  0.87888067682E+03  0.00000000000E+00 0. -1.
         -1    1    1    2    0  502  0.84249113999E+01  0.23723153292E+02  0.74672846513E+02  0.78802291468E+02  0.00000000000E+00 0. -1.
</event>
<event>
 4    1  0.1643710E+006  0.5085659E+02  0.7546771E-02  0.1294501E+00
         -2   -1    0    0    0  501 -0.00000000000E+00  0.00000000000E+00  0.17764807731E+04  0.17764807731E+04  0.00000000000E+00 0.  1.
         21   -1    0    0  501  502  0.00000000000E+00 -0.00000000000E+00 -0.67329758971E+01  0.67329758971E+01  0.00000000000E+00 0.  1.
         21    1    1    2  503  502  0.20369557120E+02  0.46599078827E+02  0.95530085357E+02  0.10822379689E+03  0.00000000000E+00 0.  1.
         -2    1    1    2    0  503 -0.20369557120E+02 -0.46599078827E+02  0.16742177118E+04  0.16749899521E+04  0.00000000000E+00 0.  1.
</event>
<event>
 4    1  0.1643710E+006  0.2115921E+02  0.7546771E-02  0.1517004E+00
          2   -1    0    0  503    0 -0.00000000000E+00  0.00000000000E+00  0.54886075852E+03  0.54886075852E+03  0.00000000000E+00 0. -1.
         21   -1    0    0  501  502  0.00000000000E+00 -0.00000000000E+00 -0.88553953386E+01  0.88553953386E+01  0.00000000000E+00 0. -1.
         21    1    1    2  503  502 -0.19993293839E+02 -0.69267784482E+01  0.42982886567E+01  0.21591371971E+02  0.00000000000E+00 0. -1.
          2    1    1    2  501    0  0.19993293839E+02  0.69267784482E+01  0.53570707453E+03  0.53612478189E+03  0.00000000000E+00 0. -1.
</event>
<event>
 4    1  0.1643710E+006  0.2396369E+02  0.7546771E-02  0.1480739E+00
          2   -1    0    0  503    0 -0.00000000000E+00  0.00000000000E+00  0.24102040048E+02  0.24102040048E+02  0.00000000000E+00 0.  1.
         21   -1    0    0  501  502  0.00000000000E+00 -0.00000000000E+00 -0.43649692971E+02  0.43649692971E+02  0.00000000000E+00 0. -1.
         21    1    1    2  503  502 -0.21608991192E+02 -0.10359040365E+02 -0.32603028358E+02  0.40462521866E+02  0.00000000000E+00 0. -1.
          2    1    1    2  501    0  0.21608991192E+02  0.10359040365E+02  0.13055375436E+02  0.27289211153E+02  0.00000000000E+00 0.  1.
</event>
<event>
 4    1  0.1643710E+006  0.2047661E+02  0.7546771E-02  0.1526870E+00
         21   -1    0    0  503  502  0.00000000000E+00  0.00000000000E+00  0.90586755217E+00  0.90586755217E+00  0.00000000000E+00 0. -1.
          2   -1    0    0  502    0 -0.00000000000E+00 -0.00000000000E+00 -0.88139409007E+03  0.88139409007E+03  0.00000000000E+00 0.  1.
         21    1    1    2  503  501  0.12583192904E+02  0.16154095423E+02 -0.13624966605E+03  0.13777976282E+03  0.00000000000E+00 0. -1.
          2    1    1    2  501    0 -0.12583192904E+02 -0.16154095423E+02 -0.74423855646E+03  0.74452019480E+03  0.00000000000E+00 0.  1.
</event>
<event>
 4    1  0.1643710E+006  0.2681705E+02  0.7546771E-02  0.1449455E+00
          2   -1    0    0  502    0 -0.00000000000E+00  0.00000000000E+00  0.25572837994E+02  0.25572837994E+02  0.00000000000E+00 0.  1.
         21   -1    0    0  503  502  0.00000000000E+00 -0.00000000000E+00 -0.26647511535E+03  0.26647511535E+03  0.00000000000E+00 0. -1.
         21    1    1    2  503  501 -0.25543572481E+02 -0.81657955798E+01 -0.25855519599E+03  0.25994219297E+03  0.00000000000E+00 0. -1.
          2    1    1    2  501    0  0.25543572481E+02  0.81657955798E+01  0.17652918638E+02  0.32105760371E+02  0.00000000000E+00 0.  1.
</event>
<event>
 4    1  0.1643710E+006  0.2159583E+02  0.7546771E-02  0.1510925E+00
         21   -1    0    0  501  502  0.00000000000E+00  0.00000000000E+00  0.41655168904E+00  0.41655168904E+00  0.00000000000E+00 0. -1.
          3   -1    0    0  503    0 -0.00000000000E+00 -0.00000000000E+00 -0.15270082762E+04  0.15270082762E+04  0.00000000000E+00 0. -1.
         21    1    1    2  503  502 -0.21218261071E+02  0.40206297221E+01 -0.36882691236E+03  0.36945861926E+03  0.00000000000E+00 0. -1.
          3    1    1    2  501    0  0.21218261071E+02 -0.40206297221E+01 -0.11577648122E+04  0.11579662087E+04  0.00000000000E+00 0. -1.
</event>
<event>
 4    1  0.1643710E+006  0.5463873E+02  0.7546771E-02  0.1279223E+00
         -1   -1    0    0    0  501 -0.00000000000E+00  0.00000000000E+00  0.15194768083E+03  0.15194768083E+03  0.00000000000E+00 0.  1.
         21   -1    0    0  501  502  0.00000000000E+00 -0.00000000000E+00 -0.77042505863E+02  0.77042505863E+02  0.00000000000E+00 0. -1.
         21    1    1    2  503  502  0.43163228801E+02  0.33501144551E+02 -0.61370576397E+02  0.82168964056E+02  0.00000000000E+00 0. -1.
         -1    1    1    2    0  503 -0.43163228801E+02 -0.33501144551E+02  0.13627575137E+03  0.14682122264E+03  0.00000000000E+00 0.  1.
</event>
<event>
 4    1  0.1643710E+006  0.2006054E+02  0.7546771E-02  0.1533112E+00
          2   -1    0    0  502    0 -0.00000000000E+00  0.00000000000E+00  0.31042819674E+02  0.31042819674E+02  0.00000000000E+00 0. -1.
         21   -1    0    0  503  502  0.00000000000E+00 -0.00000000000E+00 -0.18215436139E+02  0.18215436139E+02  0.00000000000E+00 0. -1.
         21    1    1    2  503  501  0.14246526448E+02  0.14123092178E+02 -0.68110365918E+01  0.21185265350E+02  0.00000000000E+00 0. -1.
          2    1    1    2  501    0 -0.14246526448E+02 -0.14123092178E+02  0.19638420127E+02  0.28072990463E+02  0.00000000000E+00 0. -1.
</event>
<event>
 4    1  0.1643710E+006  0.2608909E+02  0.7546771E-02  0.1456979E+00
          3   -1    0    0  503    0 -0.00000000000E+00  0.00000000000E+00  0.61163487280E+03  0.61163487280E+03  0.00000000000E+00 0. -1.
         21   -1    0    0  501  502  0.00000000000E+00 -0.00000000000E+00 -0.44794251664E+01  0.44794251664E+01  0.00000000000E+00 0. -1.
         21    1    1    2  503  502 -0.25549494425E+02  0.52786235961E+01  0.36513240819E+02  0.44876021298E+02  0.00000000000E+00 0. -1.
          3    1    1    2  501    0  0.25549494425E+02 -0.52786235961E+01  0.57064220682E+03  0.57123827667E+03  0.00000000000E+00 0. -1.
</event>
<event>
 4    1  0.1643710E+006  0.2315391E+02  0.7546771E-02  0.1490574E+00
         21   -1    0    0  501  502  0.00000000000E+00  0.00000000000E+00  0.50000367401E+01  0.50000367401E+01  0.00000000000E+00 0.  1.
          2   -1    0    0  503    0 -0.00000000000E+00 -0.00000000000E+00 -0.63288530723E+03  0.63288530723E+03  0.00000000000E+00 0.  1.
         21    1    1    2  503  502  0.22317061289E+02  0.61686742300E+01 -0.23269567890E+02  0.32826461219E+02  0.00000000000E+00 0.  1.
          2    1    1    2  501    0 -0.22317061289E+02 -0.61686742300E+01 -0.60461570260E+03  0.60505888275E+03  0.00000000000E+00 0.  1.
</event>
<event>
 4    1  0.1643710E+006  0.2458649E+02  0.7546771E-02  0.1473483E+00
         21   -1    0    0  503  502  0.00000000000E+00  0.00000000000E+00  0.95590732252E+02  0.95590732252E+02  0.00000000000E+00 0.  1.
         -3   -1    0    0    0  501 -0.00000000000E+00 -0.00000000000E+00 -0.17207831565E+02  0.17207831565E+02  0.00000000000E+00 0. -1.
         21    1    1    2  503  501  0.24429862046E+02 -0.27707988080E+01  0.84045911655E+02  0.87568320480E+02  0.00000000000E+00 0.  1.
         -3    1    1    2    0  502 -0.24429862046E+02  0.27707988080E+01 -0.56630109684E+01  0.25230243338E+02  0.00000000000E+00 0. -1.
</event>
<event>
 4    1  0.1643710E+006  0.4565344E+02  0.7546771E-02  0.1318204E+00
         21   -1    0    0  503  502  0.00000000000E+00  0.00000000000E+00  0.28230811551E+01  0.28230811551E+01  0.00000000000E+00 0. -1.
         -2   -1    0    0    0  501 -0.00000000000E+00 -0.00000000000E+00 -0.76768565790E+03  0.76768565790E+03  0.00000000000E+00 0.  1.
         21    1    1    2  503  501  0.31159615886E+02  0.33366375923E+02 -0.30703690307E+03  0.31041246198E+03  0.00000000000E+00 0. -1.
         -2    1    1    2    0  502 -0.31159615886E+02 -0.33366375923E+02 -0.45782567368E+03  0.46009627708E+03  0.00000000000E+00 0.  1.
</event>
<event>
 4    1  0.1643710E+006  0.3323566E+02  0.7546771E-02  0.1393410E+00
         21   -1    0    0  503  502  0.00000000000E+00  0.00000000000E+00  0.88358067843E+02  0.88358067843E+02  0.00000000000E+00 0. -1.
          3   -1    0    0  502    0 -0.00000000000E+00 -0.00000000000E+00 -0.70788248349E+03  0.70788248349E+03  0.00000000000E+00 0. -1.
         21    1    1    2  503  501 -0.31788862066E+02  0.96993626789E+01  0.84826919717E+02  0.91105519572E+02  0.00000000000E+00 0. -1.
          3    1    1    2  501    0  0.31788862066E+02 -0.96993626789E+01 -0.70435133536E+03  0.70513503176E+03  0.00000000000E+00 0. -1.
</event>
<event>
 4    1  0.1643710E+006  0.2627725E+02  0.7546771E-02  0.1455006E+00
          2   -1    0    0  503    0 -0.00000000000E+00  0.00000000000E+00  0.19090240643E+02  0.19090240643E+02  0.00000000000E+00 0. -1.
         21   -1    0    0  501  502  0.00000000000E+00 -0.00000000000E+00 -0.11519813552E+04  0.11519813552E+04  0.00000000000E+00 0. -1.
         21    1    1    2  503  502  0.11004395091E+02  0.23862047015E+02 -0.11427156950E+04  0.11430177836E+04  0.00000000000E+00 0. -1.
          2    1    1    2  501    0 -0.11004395091E+02 -0.23862047015E+02  0.98245804702E+01  0.28053812228E+02  0.00000000000E+00 0. -1.
</event>
<event>
 4    1  0.1643710E+006  0.2789188E+02  0.7546771E-02  0.1438849E+00
         21   -1    0    0  501  502  0.00000000000E+00  0.00000000000E+00  0.13244702432E+04  0.13244702432E+04  0.00000000000E+00 0. -1.
          2   -1    0    0  503    0 -0.00000000000E+00 -0.00000000000E+00 -0.27315432884E+03  0.27315432884E+03  0.00000000000E+00 0.  1.
         21    1    1    2  503  502 -0.27858050898E+02 -0.13732144713E+01  0.13236109260E+04  0.13239047700E+04  0.00000000000E+00 0. -1.
          2    1    1    2  501    0  0.27858050898E+02  0.13732144713E+01 -0.27229501157E+03  0.27371980207E+03  0.00000000000E+00 0.  1.
</event>
<event>
 4    1  0.1643710E+006  0.2151180E+02  0.7546771E-02  0.1512082E+00
         21   -1    0    0  501  502  0.00000000000E+00  0.00000000000E+00  0.96182244066E+02  0.96182244066E+02  0.00000000000E+00 0. -1.
         -1   -1    0    0    0  501 -0.00000000000E+00 -0.00000000000E+00 -0.82525059931E+01  0.82525059931E+01  0.00000000000E+00 0. -1.
         21    1    1    2  503  502  0.11267137743E+02  0.18325101291E+02  0.77684282078E+02  0.80607725512E+02  0.00000000000E+00 0. -1.
         -1    1    1    2    0  503 -0.11267137743E+02 -0.18325101291E+02  0.10245455995E+02  0.23827024547E+02  0.00000000000E+00 0. -1.
</event>
<event>
 4    1  0.1643710E+006  0.2000098E+02  0.7546771E-02  0.1534021E+00
         21   -1    0    0  503  502  0.00000000000E+00  0.00000000000E+00  0.13982730351E+03  0.13982730351E+03  0.00000000000E+00 0. -1.
         -2   -1    0    0    0  501 -0.00000000000E+00 -0.00000000000E+00 -0.31085905310E+01  0.31085905310E+01  0.00000000000E+00 0. -1.
         21    1    1    2  503  501  0.16827851736E+02  0.10810297470E+02  0.88530900711E+02  0.90762103910E+02  0.00000000000E+00 0. -1.
         -2    1    1    2    0  502 -0.16827851736E+02 -0.10810297470E+02  0.48187812264E+02  0.52173790127E+02  0.00000000000E+00 0. -1.
</event>
<event>
 4    1  0.1643710E+006  0.2236218E+02  0.7546771E-02  0.1500666E+00
         21   -1    0    0  503  502  0.00000000000E+00  0.00000000000E+00  0.68928113705E+02  0.68928113705E+02  0.00000000000E+00 0. -1.
         -2   -1    0    0    0  501 -0.00000000000E+00 -0.00000000000E+00 -0.43888286910E+02  0.43888286910E+02  0.00000000000E+00 0. -1.
         21    1    1    2  503  501  0.21564837368E+02 -0.59181803232E+01  0.64055404964E+02  0.67846606209E+02  0.00000000000E+00 0. -1.
         -2    1    1    2    0  502 -0.21564837368E+02  0.59181803232E+01 -0.39015578169E+02  0.44969794406E+02  0.00000000000E+00 0. -1.
</event>
<event>
 4    1  0.1643710E+006  0.3031787E+02  0.7546771E-02  0.1416854E+00
         21   -1    0    0  501  502  0.00000000000E+00  0.00000000000E+00  0.27105301874E+03  0.27105301874E+03  0.00000000000E+00 0.  1.
          2   -1    0    0  503    0 -0.00000000000E+00 -0.00000000000E+00 -0.22378603207E+02  0.22378603207E+02  0.00000000000E+00 0.  1.
         21    1    1    2  503  502  0.58828800839E+01 -0.29741639054E+02  0.25948038638E+03  0.26124556319E+03  0.00000000000E+00 0.  1.
          2    1    1    2  501    0 -0.58828800839E+01  0.29741639054E+02 -0.10805970853E+02  0.32186058749E+02  0.00000000000E+00 0.  1.
</event>
<event>
 4    1  0.1643710E+006  0.4865313E+02  0.7546771E-02  0.1304120E+00
         -4   -1    0    0    0  501 -0.00000000000E+00  0.00000000000E+00  0.21057896981E+02  0.21057896981E+02  0.00000000000E+00 0. -1.
         21   -1    0    0  503  502  0.00000000000E+00 -0.00000000000E+00 -0.12375960513E+03  0.12375960513E+03  0.00000000000E+00 0. -1.
         21    1    1    2  503  501  0.10740119630E+02  0.47452888351E+02 -0.29423603640E+02  0.56858378747E+02  0.00000000000E+00 0. -1.
         -4    1    1    2    0  502 -0.10740119630E+02 -0.47452888351E+02 -0.73278104507E+02  0.87959123363E+02  0.00000000000E+00 0. -1.
</event>
<event>
 4    1  0.1643710E+006  0.2297079E+02  0.7546771E-02  0.1492865E+00
          1   -1    0    0  502    0 -0.00000000000E+00  0.00000000000E+00  0.15479439248E+04  0.15479439248E+04  0.00000000000E+00 0. -1.
         21   -1    0    0  503  502  0.00000000000E+00 -0.00000000000E+00 -0.84449148444E+00  0.84449148444E+00  0.00000000000E+00 0. -1.
         21    1    1    2  503  501  0.19913153687E+02 -0.11450915169E+02  0.17553215708E+03  0.17702879799E+03  0.00000000000E+00 0. -1.
          1    1    1    2  501    0 -0.19913153687E+02  0.11450915169E+02  0.13715672763E+04  0.13717596183E+04  0.00000000000E+00 0. -1.
</event>
<event>
 4    1  0.1643710E+006  0.2154603E+02  0.7546771E-02  0.1511610E+00
          2   -1    0    0  503    0 -0.00000000000E+00  0.00000000000E+00  0.49729229239E+02  0.49729229239E+02  0.00000000000E+00 0.  1.
         21   -1    0    0  501  502  0.00000000000E+00 -0.00000000000E+00 -0.11945245767E+02  0.11945245767E+02  0.00000000000E+00 0. -1.
         21    1    1    2  503  502 -0.16551269122E+02  0.13794454441E+02  0.44773666680E+01  0.22006323981E+02  0.00000000000E+00 0. -1.
          2    1    1    2  501    0  0.16551269122E+02 -0.13794454441E+02  0.33306616804E+02  0.39668151025E+02  0.00000000000E+00 0.  1.
</event>
<event>
 4    1  0.1643710E+006  0.2616081E+02  0.7546771E-02  0.1456225E+00
          2   -1    0    0  503    0 -0.00000000000E+00  0.00000000000E+00  0.10535280182E+04  0.10535280182E+04  0.00000000000E+00 0. -1.
         21   -1    0    0  501  502  0.00000000000E+00 -0.00000000000E+00 -0.72106292998E+00  0.72106292998E+00  0.00000000000E+00 0. -1.
         21    1    1    2  503  502  0.23132971513E+02 -0.12216948662E+02  0.36047545434E+03  0.36142349313E+03  0.00000000000E+00 0. -1.
          2    1    1    2  501    0 -0.23132971513E+02  0.12216948662E+02  0.69233150095E+03  0.69282558802E+03  0.00000000000E+00 0. -1.
</event>
<event>
 4    1  0.1643710E+006  0.2724769E+02  0.7546771E-02  0.1445136E+00
         21   -1    0    0  503  502  0.00000000000E+00  0.00000000000E+00  0.16809769349E+02  0.16809769349E+02  0.00000000000E+00 0. -1.
         -1   -1    0    0    0  501 -0.00000000000E+00 -0.00000000000E+00 -0.29917938680E+03  0.29917938680E+03  0.00000000000E+00 0.  1.
         21    1    1    2  503  501  0.16169727940E+02 -0.21931178987E+02  0.46821762612E+01  0.27647052066E+02  0.00000000000E+00 0. -1.
         -1    1    1    2    0  502 -0.16169727940E+02  0.21931178987E+02 -0.28705179371E+03  0.28834210408E+03  0.00000000000E+00 0.  1.
</event>
<event>
 4    1  0.1643710E+006  0.6875067E+02  0.7546771E-02  0.1232687E+00
          2   -1    0    0  502    0 -0.00000000000E+00  0.00000000000E+00  0.52151235027E+01  0.52151235027E+01  0.00000000000E+00 0.  1.
         21   -1    0    0  503  502  0.00000000000E+00 -0.00000000000E+00 -0.94346546797E+03  0.94346546797E+03  0.00000000000E+00 0. -1.
         21    1    1    2  503  501 -0.34520028561E+02  0.59456049320E+02 -0.56322446975E+03  0.56740502068E+03  0.00000000000E+00 0. -1.
          2    1    1    2  501    0  0.34520028561E+02 -0.59456049320E+02 -0.37502587472E+03  0.38127557079E+03  0.00000000000E+00 0.  1.
</event>
<event>
 4    1  0.1643710E+006  0.3745201E+02  0.7546771E-02  0.1364100E+00
         21   -1    0    0  501  502  0.00000000000E+00  0.00000000000E+00  0.51659844567E+02  0.51659844567E+02  0.00000000000E+00 0.  1.
          1   -1    0    0  503    0 -0.00000000000E+00 -0.00000000000E+00 -0.29955040551E+02  0.29955040551E+02  0.00000000000E+00 0.  1.
         21    1    1    2  503  502  0.33175015468E+00  0.37450542751E+02  0.23336047838E+02  0.44127364970E+02  0.00000000000E+00 0.  1.
          1    1    1    2  501    0 -0.33175015468E+00 -0.37450542751E+02 -0.16312438222E+01  0.37487520149E+02  0.00000000000E+00 0.  1.
</event>
<event>
 4    1  0.1643710E+006  0.3188798E+02  0.7546771E-02  0.1403870E+00
         21   -1    0    0  501  502  0.00000000000E+00  0.00000000000E+00  0.26369894840E+01  0.26369894840E+01  0.00000000000E+00 0.  1.
          1   -1    0    0  503    0 -0.00000000000E+00 -0.00000000000E+00 -0.47057562569E+03  0.47057562569E+03  0.00000000000E+00 0.  1.
         21    1    1    2  503  502 -0.20065143331E+02  0.24783730721E+02 -0.13342922770E+03  0.13718674167E+03  0.00000000000E+00 0.  1.
          1    1    1    2  501    0  0.20065143331E+02 -0.24783730721E+02 -0.33450940850E+03  0.33602587350E+03  0.00000000000E+00 0.  1.
</event>
<event>
 4    1  0.1643710E+006  0.5043747E+02  0.7546771E-02  0.1296287E+00
         -2   -1    0    0    0  501 -0.00000000000E+00  0.00000000000E+00  0.26119994953E+03  0.26119994953E+03  0.00000000000E+00 0.  1.
         21   -1    0    0  501  502  0.00000000000E+00 -0.00000000000E+00 -0.99809389711E+01  0.99809389711E+01  0.00000000000E+00 0. -1.
         21    1    1    2  503  502  0.27655891642E+02  0.42179257826E+02  0.10451779932E+03  0.11605131842E+03  0.00000000000E+00 0. -1.
         -2    1    1    2    0  503 -0.27655891642E+02 -0.42179257826E+02  0.14670121125E+03  0.15512957008E+03  0.00000000000E+00 0.  1.
</event>
<event>
 4    1  0.1643710E+006  0.2017623E+02  0.7546771E-02  0.1531359E+00
          3   -1    0    0  503    0 -0.00000000000E+00  0.00000000000E+00  0.19101433937E+02  0.19101433937E+02  0.00000000000E+00 0. -1.
         21   -1    0    0  501  502  0.00000000000E+00 -0.00000000000E+00 -0.23411828121E+02  0.23411828121E+02  0.00000000000E+00 0. -1.
         21    1    1    2  503  502  0.13879319560E+02 -0.14643932539E+02 -0.85219794892E+01  0.21902155284E+02  0.00000000000E+00 0. -1.
          3    1    1    2  501    0 -0.13879319560E+02  0.14643932539E+02  0.42115853057E+01  0.20611106774E+02  0.00000000000E+00 0. -1.
</event>
<event>
 4    1  0.1643710E+006  0.2654700E+02  0.7546771E-02  0.1452212E+00
          2   -1    0    0  502    0 -0.00000000000E+00  0.00000000000E+00  0.16853893341E+03  0.16853893341E+03  0.00000000000E+00 0. -1.
         21   -1    0    0  503  502  0.00000000000E+00 -0.00000000000E+00 -0.18918363063E+02  0.18918363063E+02  0.00000000000E+00 0. -1.
         21    1    1    2  503  501 -0.23799458121E+02 -0.11761344749E+02 -0.79140497908E+01  0.27701545467E+02  0.00000000000E+00 0. -1.
          2    1    1    2  501    0  0.23799458121E+02  0.11761344749E+02  0.15753462014E+03  0.15975575101E+03  0.00000000000E+00 0. -1.
</event>
<event>
 4    1  0.1643710E+006  0.2144240E+02  0.7546771E-02  0.1513041E+00
          3   -1    0    0  503    0 -0.00000000000E+00  0.00000000000E+00  0.18584200498E+03  0.18584200498E+03  0.00000000000E+00 0. -1.
         21   -1    0    0  501  502  0.00000000000E+00 -0.00000000000E+00 -0.27776804406E+01  0.27776804406E+01  0.00000000000E+00 0. -1.
         21    1    1    2  503  502 -0.72514882764E+01  0.20179011653E+02  0.60349662584E+02  0.64045752143E+02  0.00000000000E+00 0. -1.
          3    1    1    2  501    0  0.72514882764E+01 -0.20179011653E+02  0.12271466195E+03  0.12457393328E+03  0.00000000000E+00 0. -1.
</event>
<event>
 4    1  0.1643710E+006  0.8911234E+02  0.7546771E-02  0.1184141E+00
         21   -1    0    0  503  502  0.00000000000E+00  0.00000000000E+00  0.49443261711E+03  0.49443261711E+03  0.00000000000E+00 0.  1.
          3   -1    0    0  502    0 -0.00000000000E+00 -0.00000000000E+00 -0.14880497230E+03  0.14880497230E+03  0.00000000000E+00 0. -1.
         21    1    1    2  503  501 -0.20442198114E+02 -0.86735956700E+02  0.47658064844E+03  0.48484030785E+03  0.00000000000E+00 0.  1.
          3    1    1    2  501    0  0.20442198114E+02  0.86735956700E+02 -0.13095300362E+03  0.15839728156E+03  0.00000000000E+00 0. -1.
</event>
<event>
 4    1  0.1643710E+006  0.2422776E+02  0.7546771E-02  0.1477631E+00
         21   -1    0    0  501  502  0.00000000000E+00  0.00000000000E+00  0.89372537601E+00  0.89372537601E+00  0.00000000000E+00 0.  1.
          2   -1    0    0  503    0 -0.00000000000E+00 -0.00000000000E+00 -0.66139517413E+03  0.66139517413E+03  0.00000000000E+00 0. -1.
         21    1    1    2  503  502  0.17052180568E+02  0.17210686605E+02 -0.35790034251E+03  0.35871944436E+03  0.00000000000E+00 0.  1.
          2    1    1    2  501    0 -0.17052180568E+02 -0.17210686605E+02 -0.30260110624E+03  0.30356945514E+03  0.00000000000E+00 0. -1.
</event>
<event>
 4    1  0.1643710E+006  0.2531043E+02  0.7546771E-02  0.1465360E+00
         -1   -1    0    0    0  501 -0.00000000000E+00  0.00000000000E+00  0.23146400128E+01  0.23146400128E+01  0.00000000000E+00 0.  1.
         21   -1    0    0  503  502  0.00000000000E+00 -0.00000000000E+00 -0.40968063471E+03  0.40968063471E+03  0.00000000000E+00 0. -1.
         21    1    1    2  503  501  0.24368491530E+02  0.68406326146E+01 -0.32101679193E+03  0.32201304063E+03  0.00000000000E+00 0. -1.
         -1    1    1    2    0  502 -0.24368491530E+02 -0.68406326146E+01 -0.86349202771E+02  0.89982234098E+02  0.00000000000E+00 0.  1.
</event>
<event>
 4    1  0.1643710E+006  0.2687519E+02  0.7546771E-02  0.1448866E+00
          3   -1    0    0  502    0 -0.00000000000E+00  0.00000000000E+00  0.18112685737E+03  0.18112685737E+03  0.00000000000E+00 0. -1.
         21   -1    0    0  503  502  0.00000000000E+00 -0.00000000000E+00 -0.69501622665E+01  0.69501622665E+01  0.00000000000E+00 0. -1.
         21    1    1    2  503  501 -0.15813830907E+02 -0.21730127179E+02  0.25692887806E+02  0.37180642262E+02  0.00000000000E+00 0. -1.
          3    1    1    2  501    0  0.15813830907E+02  0.21730127179E+02  0.14848380730E+03  0.15089637738E+03  0.00000000000E+00 0. -1.
</event>
<event>
 4    1  0.1643710E+006  0.3075006E+02  0.7546771E-02  0.1413188E+00
         -3   -1    0    0    0  501 -0.00000000000E+00  0.00000000000E+00  0.33225841403E+02  0.33225841403E+02  0.00000000000E+00 0.  1.
         21   -1    0    0  503  502  0.00000000000E+00 -0.00000000000E+00 -0.42593657379E+03  0.42593657379E+03  0.00000000000E+00 0.  1.
         21    1    1    2  503  501  0.26136617683E+02  0.16200112606E+02 -0.41813431086E+03  0.41926348320E+03  0.00000000000E+00 0.  1.
         -3    1    1    2    0  502 -0.26136617683E+02 -0.16200112606E+02  0.25423578465E+02  0.39898931995E+02  0.00000000000E+00 0.  1.
</event>
<event>
 4    1  0.1643710E+006  0.2308004E+02  0.7546771E-02  0.1491495E+00
         21   -1    0    0  501  502  0.00000000000E+00  0.00000000000E+00  0.12123872177E+03  0.12123872177E+03  0.00000000000E+00 0.  1.
         -2   -1    0    0    0  501 -0.00000000000E+00 -0.00000000000E+00 -0.21995624806E+02  0.21995624806E+02  0.00000000000E+00 0. -1.
         21    1    1    2  503  502 -0.16791338727E+02  0.15834753470E+02  0.11368774052E+03  0.11600685677E+03  0.00000000000E+00 0.  1.
         -2    1    1    2    0  503  0.16791338727E+02 -0.15834753470E+02 -0.14444643555E+02  0.27227489805E+02  0.00000000000E+00 0. -1.
</event>
<event>
 4    1  0.1643710E+006  0.2189374E+02  0.7546771E-02  0.1506877E+00
          2   -1    0    0  503    0 -0.00000000000E+00  0.00000000000E+00  0.41028546004E+02  0.41028546004E+02  0.00000000000E+00 0. -1.
         21   -1    0    0  501  502  0.00000000000E+00 -0.00000000000E+00 -0.15765710778E+02  0.15765710778E+02  0.00000000000E+00 0. -1.
         21    1    1    2  503  502 -0.81568392224E+01 -0.20317527063E+02 -0.18194091633E+01  0.21969209858E+02  0.00000000000E+00 0. -1.
          2    1    1    2  501    0  0.81568392224E+01  0.20317527063E+02  0.27082244390E+02  0.34825046924E+02  0.00000000000E+00 0. -1.
</event>
<event>
 4    1  0.1643710E+006  0.2093991E+02  0.7546771E-02  0.1520124E+00
          4   -1    0    0  503    0 -0.00000000000E+00  0.00000000000E+00  0.18414523084E+02  0.18414523084E+02  0.00000000000E+00 0. -1.
         21   -1    0    0  501  502  0.00000000000E+00 -0.00000000000E+00 -0.47378166132E+02  0.47378166132E+02  0.00000000000E+00 0. -1.
         21    1    1    2  503  502 -0.91215587231E+01  0.18848797761E+02 -0.37682799713E+02  0.43110015133E+02  0.00000000000E+00 0. -1.
          4    1    1    2  501    0  0.91215587231E+01 -0.18848797761E+02  0.87191566644E+01  0.22682674082E+02  0.00000000000E+00 0. -1.
</event>
<event>
 4    1  0.1643710E+006  0.3498603E+02  0.7546771E-02  0.1380661E+00
         21   -1    0    0  503  502  0.00000000000E+00  0.00000000000E+00  0.96698277031E+02  0.96698277031E+02  0.00000000000E+00 0.  1.
          4   -1    0    0  502    0 -0.00000000000E+00 -0.00000000000E+00 -0.30051416763E+02  0.30051416763E+02  0.00000000000E+00 0.  1.
         21    1    1    2  503  501 -0.30971947022E+02 -0.16271463970E+02  0.81537626234E+02  0.88726583018E+02  0.00000000000E+00 0.  1.
          4    1    1    2  501    0  0.30971947022E+02  0.16271463970E+02 -0.14890765966E+02  0.38023110777E+02  0.00000000000E+00 0.  1.
</event>
<event>
 4    1  0.1643710E+006  0.2902111E+02  0.7546771E-02  0.1428298E+00
         21   -1    0    0  503  502  0.00000000000E+00  0.00000000000E+00  0.71684626925E+00  0.71684626925E+00  0.00000000000E+00 0. -1.
          2   -1    0    0  502    0 -0.00000000000E+00 -0.00000000000E+00 -0.15112897647E+04  0.15112897647E+04  0.00000000000E+00 0. -1.
         21    1    1    2  503  501  0.25751168731E+02 -0.13382901169E+02 -0.39861417618E+03  0.39966922096E+03  0.00000000000E+00 0. -1.
          2    1    1    2  501    0 -0.25751168731E+02  0.13382901169E+02 -0.11119587422E+04  0.11123373900E+04  0.00000000000E+00 0. -1.
</event>
<event>
 4    1  0.1643710E+006  0.2820875E+02  0.7546771E-02  0.1435830E+00
         21   -1    0    0  501  502  0.00000000000E+00  0.00000000000E+00  0.12661310283E+01  0.12661310283E+01  0.00000000000E+00 0.  1.
          2   -1    0    0  503    0 -0.00000000000E+00 -0.00000000000E+00 -0.17033109438E+04  0.17033109438E+04  0.00000000000E+00 0. -1.
         21    1    1    2  503  502 -0.52435005161E+01 -0.27717128160E+02 -0.17398839914E+03  0.17626030899E+03  0.00000000000E+00 0.  1.
          2    1    1    2  501    0  0.52435005161E+01  0.27717128160E+02 -0.15280564136E+04  0.15283167658E+04  0.00000000000E+00 0. -1.
</event>
<event>
 4    1  0.1643710E+006  0.4638735E+02  0.7546771E-02  0.1314644E+00
         21   -1    0    0  501  502  0.00000000000E+00  0.00000000000E+00  0.10328595211E+02  0.10328595211E+02  0.00000000000E+00 0. -1.
          1   -1    0    0  503    0 -0.00000000000E+00 -0.00000000000E+00 -0.10478910795E+04  0.10478910795E+04  0.00000000000E+00 0.  1.
         21    1    1    2  503  502  0.21179583169E+02 -0.41269977462E+02 -0.45179628621E+02  0.64753259572E+02  0.00000000000E+00 0. -1.
          1    1    1    2  501    0 -0.21179583169E+02  0.41269977462E+02 -0.99238285568E+03  0.99346641515E+03  0.00000000000E+00 0.  1.
</event>
<event>
 4    1  0.1643710E+006  0.3106811E+02  0.7546771E-02  0.1410536E+00
          1   -1    0    0  502    0 -0.00000000000E+00  0.00000000000E+00  0.41316373581E+03  0.41316373581E+03  0.00000000000E+00 0. -1.
         21   -1    0    0  503  502  0.00000000000E+00 -0.00000000000E+00 -0.49311061268E+01  0.49311061268E+01  0.00000000000E+00 0. -1.
         21    1    1    2  503  501  0.28259207976E+02  0.12909087071E+02  0.52469032892E+02  0.60977264428E+02  0.00000000000E+00 0. -1.
          1    1    1    2  501    0 -0.28259207976E+02 -0.12909087071E+02  0.35576359679E+03  0.35711757751E+03  0.00000000000E+00 0. -1.
</event>
<event>
 4    1  0.1643710E+006  0.2301974E+02  0.7546771E-02  0.1492250E+00
         21   -1    0    0  503  502  0.00000000000E+00  0.00000000000E+00  0.81828795126E+01  0.81828795126E+01  0.00000000000E+00 0.  1.
          2   -1    0    0  502    0 -0.00000000000E+00 -0.00000000000E+00 -0.16564365423E+03  0.16564365423E+03  0.00000000000E+00 0.  1.
         21    1    1    2  503  501  0.12420160714E+02 -0.19381645873E+02 -0.10901773948E+02  0.25470713852E+02  0.00000000000E+00 0.  1.
          2    1    1    2  501    0 -0.12420160714E+02  0.19381645873E+02 -0.14655900077E+03  0.14835581990E+03  0.00000000000E+00 0.  1.
</event>
<event>
 4    1  0.1643710E+006  0.2202330E+02  0.7546771E-02  0.1505141E+00
         21   -1    0    0  503  502  0.00000000000E+00  0.00000000000E+00  0.17413127276E+02  0.17413127276E+02  0.00000000000E+00 0.  1.
         -4   -1    0    0    0  501 -0.00000000000E+00 -0.00000000000E+00 -0.31293180695E+02  0.31293180695E+02  0.00000000000E+00 0. -1.
         21    1    1    2  503  501  0.15243086634E+02  0.15895722118E+02  0.11333704659E+01  0.22052442050E+02  0.00000000000E+00 0.  1.
         -4    1    1    2    0  502 -0.15243086634E+02 -0.15895722118E+02 -0.15013423885E+02  0.26653865921E+02  0.00000000000E+00 0. -1.
</event>
<event>
 4    1  0.1643710E+006  0.3108967E+02  0.7546771E-02  0.1410358E+00
         21   -1    0    0  501  502  0.00000000000E+00  0.00000000000E+00  0.27641624686E+03  0.27641624686E+03  0.00000000000E+00 0. -1.
          2   -1    0    0  503    0 -0.00000000000E+00 -0.00000000000E+00 -0.18703789488E+02  0.18703789488E+02  0.00000000000E+00 0. -1.
         21    1    1    2  503  502  0.28989599461E+02 -0.11232569519E+02  0.26190956528E+03  0.26374834195E+03  0.00000000000E+00 0. -1.
          2    1    1    2  501    0 -0.28989599461E+02  0.11232569519E+02 -0.41971079063E+01  0.31371694403E+02  0.00000000000E+00 0. -1.
</event>
<event>
 4    1  0.1643710E+006  0.2000440E+02  0.7546771E-02  0.1533968E+00
         21   -1    0    0  501  502  0.00000000000E+00  0.00000000000E+00  0.26019506007E+02  0.26019506007E+02  0.00000000000E+00 0.  1.
          2   -1    0    0  503    0 -0.00000000000E+00 -0.00000000000E+00 -0.15646850046E+03  0.15646850046E+03  0.00000000000E+00 0. -1.
         21    1    1    2  503  502  0.83192941455E+01 -0.18192456411E+02  0.21419186653E+02  0.29307979839E+02  0.00000000000E+00 0.  1.
          2    1    1    2  501    0 -0.83192941455E+01  0.18192456411E+02 -0.15186818111E+03  0.15318002663E+03  0.00000000000E+00 0. -1.
</event>
<event>
 4    1  0.1643710E+006  0.2493436E+02  0.7546771E-02  0.1469539E+00
         21   -1    0    0  501  502  0.00000000000E+00  0.00000000000E+00  0.88491051920E+00  0.88491051920E+00  0.00000000000E+00 0. -1.
          2   -1    0    0  503    0 -0.00000000000E+00 -0.00000000000E+00 -0.90072124689E+03  0.90072124689E+03  0.00000000000E+00 0. -1.
         21    1    1    2  503  502 -0.23311380537E+02  0.88488464274E+01 -0.23848335392E+03  0.23978330351E+03  0.00000000000E+00 0. -1.
          2    1    1    2  501    0  0.23311380537E+02 -0.88488464274E+01 -0.66135298245E+03  0.66182285390E+03  0.00000000000E+00 0. -1.
</event>
<event>
 4    1  0.1643710E+006  0.2060262E+02  0.7546771E-02  0.1525015E+00
         21   -1    0    0  501  502  0.00000000000E+00  0.00000000000E+00  0.35036672604E+01  0.35036672604E+01  0.00000000000E+00 0. -1.
          1   -1    0    0  503    0 -0.00000000000E+00 -0.00000000000E+00 -0.20910594737E+03  0.20910594737E+03  0.00000000000E+00 0. -1.
         21    1    1    2  503  502  0.14547261994E+02  0.14589210764E+02 -0.33856057763E+02  0.39632064663E+02  0.00000000000E+00 0. -1.
          1    1    1    2  501    0 -0.14547261994E+02 -0.14589210764E+02 -0.17174622234E+03  0.17297754996E+03  0.00000000000E+00 0. -1.
</event>
<event>
 4    1  0.1643710E+006  0.2048800E+02  0.7546771E-02  0.1526702E+00
          4   -1    0    0  502    0 -0.00000000000E+00  0.00000000000E+00  0.16495178884E+02  0.16495178884E+02  0.00000000000E+00 0. -1.
         21   -1    0    0  503  502  0.00000000000E+00 -0.00000000000E+00 -0.10992483895E+03  0.10992483895E+03  0.00000000000E+00 0. -1.
         21    1    1    2  503  501  0.20484463013E+02 -0.38070193764E+00 -0.10212742619E+03  0.10416222607E+03  0.00000000000E+00 0. -1.
          4    1    1    2  501    0 -0.20484463013E+02  0.38070193764E+00  0.86977661232E+01  0.22257791769E+02  0.00000000000E+00 0. -1.
</event>
<event>
 4    1  0.1643710E+006  0.2777890E+02  0.7546771E-02  0.1439937E+00
         21   -1    0    0  503  502  0.00000000000E+00  0.00000000000E+00  0.13447365844E+04  0.13447365844E+04  0.00000000000E+00 0. -1.
          1   -1    0    0  502    0 -0.00000000000E+00 -0.00000000000E+00 -0.10907262836E+02  0.10907262836E+02  0.00000000000E+00 0.  1.
         21    1    1    2  503  501 -0.21111878779E+02  0.18054245579E+02  0.13266652199E+04  0.13269560177E+04  0.00000000000E+00 0. -1.
          1    1    1    2  501    0  0.21111878779E+02 -0.18054245579E+02  0.71641016178E+01  0.28687829493E+02  0.00000000000E+00 0.  1.
</event>
<event>
 4    1  0.1643710E+006  0.3025533E+02  0.7546771E-02  0.1417390E+00
         21   -1    0    0  503  502  0.00000000000E+00  0.00000000000E+00  0.43028168407E+01  0.43028168407E+01  0.00000000000E+00 0.  1.
         -2   -1    0    0    0  501 -0.00000000000E+00 -0.00000000000E+00 -0.36002865223E+03  0.36002865223E+03  0.00000000000E+00 0.  1.
         21    1    1    2  503  501 -0.24585969939E+01 -0.30155270677E+02 -0.61348008494E+02  0.68402947268E+02  0.00000000000E+00 0.  1.
         -2    1    1    2    0  502  0.24585969939E+01  0.30155270677E+02 -0.29437782690E+03  0.29592852180E+03  0.00000000000E+00 0.  1.
</event>
<event>
 4    1  0.1643710E+006  0.3518823E+02  0.7546771E-02  0.1379245E+00
         -4   -1    0    0    0  501 -0.00000000000E+00  0.00000000000E+00  0.68965098308E+01  0.68965098308E+01  0.00000000000E+00 0. -1.
         21   -1    0    0  501  502  0.00000000000E+00 -0.00000000000E+00 -0.18913008053E+03  0.18913008053E+03  0.00000000000E+00 0. -1.
         21    1    1    2  503  502  0.25310112920E+02 -0.24446063839E+02 -0.11318538828E+03  0.11852908493E+03  0.00000000000E+00 0. -1.
         -4    1    1    2    0  503 -0.25310112920E+02  0.24446063839E+02 -0.69048182414E+02  0.77497505430E+02  0.00000000000E+00 0. -1.
</event>
<event>
 4    1  0.1643710E+006  0.2265379E+02  0.7546771E-02  0.1496892E+00
          2   -1    0    0  503    0 -0.00000000000E+00  0.00000000000E+00  0.12193014661E+03  0.12193014661E+03  0.00000000000E+00 0.  1.
         21   -1    0    0  501  502  0.00000000000E+00 -0.00000000000E+00 -0.80446360762E+02  0.80446360762E+02  0.00000000000E+00 0.  1.
         21    1    1    2  503  502  0.10449062245E+02  0.20100028106E+02 -0.77763738438E+02  0.80996253293E+02  0.00000000000E+00 0.  1.
          2    1    1    2  501    0 -0.10449062245E+02 -0.20100028106E+02  0.11924752428E+03  0.12138025408E+03  0.00000000000E+00 0.  1.
</event>
<event>
 4    1  0.1643710E+006  0.2038934E+02  0.7546771E-02  0.1528165E+00
         21   -1    0    0  501  502  0.00000000000E+00  0.00000000000E+00  0.29318423984E+01  0.29318423984E+01  0.00000000000E+00 0.  1.
          1   -1    0    0  503    0 -0.00000000000E+00 -0.00000000000E+00 -0.23230498187E+03  0.23230498187E+03  0.00000000000E+00 0. -1.
         21    1    1    2  503  502 -0.45036773746E+01  0.19885727190E+02 -0.41270611181E+02  0.46032473354E+02  0.00000000000E+00 0.  1.
          1    1    1    2  501    0  0.45036773746E+01 -0.19885727190E+02 -0.18810252829E+03  0.18920435091E+03  0.00000000000E+00 0. -1.
</event>
<event>
 4    1  0.1643710E+006  0.2037993E+02  0.7546771E-02  0.1528305E+00
         21   -1    0    0  503  502  0.00000000000E+00  0.00000000000E+00  0.84229836975E+02  0.84229836975E+02  0.00000000000E+00 0.  1.
         -1   -1    0    0    0  501 -0.00000000000E+00 -0.00000000000E+00 -0.28305782913E+02  0.28305782913E+02  0.00000000000E+00 0.  1.
         21    1    1    2  503  501 -0.11175519281E+02 -0.17042577073E+02  0.79094375581E+02  0.81677793267E+02  0.00000000000E+00 0.  1.
         -1    1    1    2    0  502  0.11175519281E+02  0.17042577073E+02 -0.23170321519E+02  0.30857826621E+02  0.00000000000E+00 0.  1.
</event>
<event>
 4    1  0.1643710E+006  0.2155253E+02  0.7546771E-02  0.1511520E+00
         21   -1    0    0  501  502  0.00000000000E+00  0.00000000000E+00  0.61218242047E+02  0.61218242047E+02  0.00000000000E+00 0. -1.
          1   -1    0    0  503    0 -0.00000000000E+00 -0.00000000000E+00 -0.33052425836E+02  0.33052425836E+02  0.00000000000E+00 0.  1.
         21    1    1    2  503  502  0.21211524646E+02 -0.38187472352E+01  0.55455582161E+02  0.59496497385E+02  0.00000000000E+00 0. -1.
          1    1    1    2  501    0 -0.21211524646E+02  0.38187472352E+01 -0.27289765950E+02  0.34774170498E+02  0.00000000000E+00 0.  1.
</event>
<event>
 4    1  0.1643710E+006  0.2580273E+02  0.7546771E-02  0.1460020E+00
         21   -1    0    0  501  502  0.00000000000E+00  0.00000000000E+00  0.43602328953E+02  0.43602328953E+02  0.00000000000E+00 0.  1.
          3   -1    0    0  503    0 -0.00000000000E+00 -0.00000000000E+00 -0.16234775543E+02  0.16234775543E+02  0.00000000000E+00 0. -1.
         21    1    1    2  503  502 -0.12613588298E+02 -0.22509515326E+02  0.20979497682E+02  0.33255378707E+02  0.00000000000E+00 0.  1.
          3    1    1    2  501    0  0.12613588298E+02  0.22509515326E+02  0.63880557282E+01  0.26581725789E+02  0.00000000000E+00 0. -1.
</event>
<event>
 4    1  0.1643710E+006  0.3894143E+02  0.7546771E-02  0.1354803E+00
         21   -1    0    0  501  502  0.00000000000E+00  0.00000000000E+00  0.16378816873E+04  0.16378816873E+04  0.00000000000E+00 0.  1.
         -4   -1    0    0    0  501 -0.00000000000E+00 -0.00000000000E+00 -0.16864742837E+02  0.16864742837E+02  0.00000000000E+00 0.  1.
         21    1    1    2  503  502  0.62571610677E+01 -0.38435441855E+02  0.16148502935E+04  0.16153197534E+04  0.00000000000E+00 0.  1.
         -4    1    1    2    0  503 -0.62571610677E+01  0.38435441855E+02  0.61666509560E+01  0.39426676746E+02  0.00000000000E+00 0.  1.
</event>
<event>
 4    1  0.1643710E+006  0.2944675E+02  0.7546771E-02  0.1424466E+00
          3   -1    0    0  503    0 -0.00000000000E+00  0.00000000000E+00  0.24401271706E+03  0.24401271706E+03  0.00000000000E+00 0.  1.
         21   -1    0    0  501  502  0.00000000000E+00 -0.00000000000E+00 -0.50377874861E+03  0.50377874861E+03  0.00000000000E+00 0.  1.
         21    1    1    2  503  502 -0.29345948209E+02 -0.24344083564E+01 -0.50245772432E+03  0.50331985431E+03  0.00000000000E+00 0.  1.
          3    1    1    2  501    0  0.29345948209E+02  0.24344083564E+01  0.24269169277E+03  0.24447161136E+03  0.00000000000E+00 0.  1.
</event>
<event>
 4    1  0.1643710E+006  0.4294004E+02  0.7546771E-02  0.1332068E+00
         21   -1    0    0  501  502  0.00000000000E+00  0.00000000000E+00  0.29323802629E+02  0.29323802629E+02  0.00000000000E+00 0.  1.
          3   -1    0    0  503    0 -0.00000000000E+00 -0.00000000000E+00 -0.33031895638E+03  0.33031895638E+03  0.00000000000E+00 0.  1.
         21    1    1    2  503  502  0.39625241169E+02 -0.16543502941E+02  0.11305895557E+02  0.44403496502E+02  0.00000000000E+00 0.  1.
          3    1    1    2  501    0 -0.39625241169E+02  0.16543502941E+02 -0.31230104931E+03  0.31523926250E+03  0.00000000000E+00 0.  1.
</event>
<event>
 4    1  0.1643710E+006  0.2012602E+02  0.7546771E-02  0.1532118E+00
         -4   -1    0    0    0  501 -0.00000000000E+00  0.00000000000E+00  0.18509706323E+02  0.18509706323E+02  0.00000000000E+00 0. -1.
         21   -1    0    0  501  502  0.00000000000E+00 -0.00000000000E+00 -0.10317603968E+03  0.10317603968E+03  0.00000000000E+00 0. -1.
         21    1    1    2  503  502  0.88729340977E+01  0.18064538566E+02 -0.96339628432E+02  0.98419411294E+02  0.00000000000E+00 0. -1.
         -4    1    1    2    0  503 -0.88729340977E+01 -0.18064538566E+02  0.11673295071E+02  0.23266334712E+02  0.00000000000E+00 0. -1.
</event>
<event>
 4    1  0.1643710E+006  0.3592842E+02  0.7546771E-02  0.1374151E+00
         -2   -1    0    0    0  501 -0.00000000000E+00  0.00000000000E+00  0.18250961009E+03  0.18250961009E+03  0.00000000000E+00 0. -1.
         21   -1    0    0  503  502  0.00000000000E+00 -0.00000000000E+00 -0.68517862157E+02  0.68517862157E+02  0.00000000000E+00 0.  1.
         21    1    1    2  503  501  0.20798084877E+02  0.29296607020E+02 -0.61863351723E+02  0.71539679925E+02  0.00000000000E+00 0.  1.
         -2    1    1    2    0  502 -0.20798084877E+02 -0.29296607020E+02  0.17585509965E+03  0.17948779232E+03  0.00000000000E+00 0. -1.
</event>
<event>
 4    1  0.1643710E+006  0.3108273E+02  0.7546771E-02  0.1410415E+00
         21   -1    0    0  503  502  0.00000000000E+00  0.00000000000E+00  0.41178170778E+01  0.41178170778E+01  0.00000000000E+00 0. -1.
          2   -1    0    0  502    0 -0.00000000000E+00 -0.00000000000E+00 -0.29669098534E+03  0.29669098534E+03  0.00000000000E+00 0.  1.
         21    1    1    2  503  501  0.42917194260E+01  0.30785012215E+02 -0.77494076065E+02  0.83495315185E+02  0.00000000000E+00 0. -1.
          2    1    1    2  501    0 -0.42917194260E+01 -0.30785012215E+02 -0.21507909219E+03  0.21731348723E+03  0.00000000000E+00 0.  1.
</event>
<event>
 4    1  0.1643710E+006  0.2184278E+02  0.7546771E-02  0.1507564E+00
         21   -1    0    0  501  502  0.00000000000E+00  0.00000000000E+00  0.15243758953E+02  0.15243758953E+02  0.00000000000E+00 0.  1.
          2   -1    0    0  503    0 -0.00000000000E+00 -0.00000000000E+00 -0.74877312006E+02  0.74877312006E+02  0.00000000000E+00 0.  1.
         21    1    1    2  503  502  0.18266578441E+02  0.11976601116E+02  0.45595048413E+01  0.22313582111E+02  0.00000000000E+00 0.  1.
          2    1    1    2  501    0 -0.18266578441E+02 -0.11976601116E+02 -0.64193057894E+02  0.67807488849E+02  0.00000000000E+00 0.  1.
</event>
<event>
 4    1  0.1643710E+006  0.2176248E+02  0.7546771E-02  0.1508651E+00
         21   -1    0    0  501  502  0.00000000000E+00  0.00000000000E+00  0.87163071846E+01  0.87163071846E+01  0.00000000000E+00 0. -1.
         -2   -1    0    0    0  501 -0.00000000000E+00 -0.00000000000E+00 -0.63369934960E+02  0.63369934960E+02  0.00000000000E+00 0. -1.
         21    1    1    2  503  502  0.21741743601E+02  0.94973243300E+00 -0.13717698826E+02  0.25725098010E+02  0.00000000000E+00 0. -1.
         -2    1    1    2    0  503 -0.21741743601E+02 -0.94973243300E+00 -0.40935928949E+02  0.46361144135E+02  0.00000000000E+00 0. -1.
</event>
<event>
 4    1  0.1643710E+006  0.3462872E+02  0.7546771E-02  0.1383192E+00
         -3   -1    0    0    0  501 -0.00000000000E+00  0.00000000000E+00  0.81861175428E+01  0.81861175428E+01  0.00000000000E+00 0. -1.
         21   -1    0    0  503  502  0.00000000000E+00 -0.00000000000E+00 -0.15514129085E+03  0.15514129085E+03  0.00000000000E+00 0. -1.
         21    1    1    2  503  501  0.13653385719E+01  0.34601796144E+02 -0.92766862274E+02  0.99019387910E+02  0.00000000000E+00 0. -1.
         -3    1    1    2    0  502 -0.13653385719E+01 -0.34601796144E+02 -0.54188311029E+02  0.64308020479E+02  0.00000000000E+00 0. -1.
</event>
<event>
 4    1  0.1643710E+006  0.3023536E+02  0.7546771E-02  0.1417562E+00
          1   -1    0    0  503    0 -0.00000000000E+00  0.00000000000E+00  0.88506277011E+03  0.88506277011E+03  0.00000000000E+00 0.  1.
         21   -1    0    0  501  502  0.00000000000E+00 -0.00000000000E+00 -0.11229491559E+01  0.11229491559E+01  0.00000000000E+00 0.  1.
         21    1    1    2  503  502 -0.20943121162E+02 -0.21807394818E+02  0.31649210798E+03  0.31793306089E+03  0.00000000000E+00 0.  1.
          1    1    1    2  501    0  0.20943121162E+02  0.21807394818E+02  0.56744771297E+03  0.56825265837E+03  0.00000000000E+00 0.  1.
</event>
<event>
 4    1  0.1643710E+006  0.3375375E+02  0.7546771E-02  0.1389543E+00
          4   -1    0    0  503    0 -0.00000000000E+00  0.00000000000E+00  0.88699820255E+02  0.88699820255E+02  0.00000000000E+00 0. -1.
         21   -1    0    0  501  502  0.00000000000E+00 -0.00000000000E+00 -0.21634839021E+02  0.21634839021E+02  0.00000000000E+00 0.  1.
         21    1    1    2  503  502 -0.84586949521E+01 -0.32676686217E+02 -0.16320555213E+01  0.33793179010E+02  0.00000000000E+00 0.  1.
          4    1    1    2  501    0  0.84586949521E+01  0.32676686217E+02  0.68697036755E+02  0.76541480266E+02  0.00000000000E+00 0. -1.
</event>
<event>
 4    1  0.1643710E+006  0.2599463E+02  0.7546771E-02  0.1457977E+00
          4   -1    0    0  503    0 -0.00000000000E+00  0.00000000000E+00  0.65569131300E+03  0.65569131300E+03  0.00000000000E+00 0.  1.
         21   -1    0    0  501  502  0.00000000000E+00 -0.00000000000E+00 -0.12530754083E+01  0.12530754083E+01  0.00000000000E+00 0.  1.
         21    1    1    2  503  502  0.24825116347E+02  0.77093556449E+01  0.18879780681E+03  0.19057894013E+03  0.00000000000E+00 0.  1.
          4    1    1    2  501    0 -0.24825116347E+02 -0.77093556449E+01  0.46564043079E+03  0.46636544828E+03  0.00000000000E+00 0.  1.
</event>
<event>
 4    1  0.1643710E+006  0.2085102E+02  0.7546771E-02  0.1521403E+00
         21   -1    0    0  503  502  0.00000000000E+00  0.00000000000E+00  0.54841257794E+03  0.54841257794E+03  0.00000000000E+00 0.  1.
          2   -1    0    0  502    0 -0.00000000000E+00 -0.00000000000E+00 -0.10286829908E+01  0.10286829908E+01  0.00000000000E+00 0.  1.
         21    1    1    2  503  501 -0.13946371669E+02 -0.15500447066E+02  0.40525267036E+03  0.40578872825E+03  0.00000000000E+00 0.  1.
          2    1    1    2  501    0  0.13946371669E+02  0.15500447066E+02  0.14213122459E+03  0.14365253268E+03  0.00000000000E+00 0.  1.
</event>
<event>
 4    1  0.1643710E+006  0.4677568E+02  0.7546771E-02  0.1312792E+00
         -4   -1    0    0    0  501 -0.00000000000E+00  0.00000000000E+00  0.11391115874E+03  0.11391115874E+03  0.00000000000E+00 0. -1.
         21   -1    0    0  503  502  0.00000000000E+00 -0.00000000000E+00 -0.28346064181E+02  0.28346064181E+02  0.00000000000E+00 0. -1.
         21    1    1    2  503  501 -0.21449244091E+02 -0.41567948458E+02  0.83168806527E+02  0.95420201164E+02  0.00000000000E+00 0. -1.
         -4    1    1    2    0  502  0.21449244091E+02  0.41567948458E+02  0.23962880352E+01  0.46837021761E+02  0.00000000000E+00 0. -1.
</event>
<event>
 4    1  0.1643710E+006  0.2074579E+02  0.7546771E-02  0.1522925E+00
          1   -1    0    0  503    0 -0.00000000000E+00  0.00000000000E+00  0.16084596201E+03  0.16084596201E+03  0.00000000000E+00 0.  1.
         21   -1    0    0  501  502  0.00000000000E+00 -0.00000000000E+00 -0.40631162603E+01  0.40631162603E+01  0.00000000000E+00 0. -1.
         21    1    1    2  503  502 -0.14230638846E+02 -0.15095589023E+02  0.30210366568E+02  0.36647703039E+02  0.00000000000E+00 0. -1.
          1    1    1    2  501    0  0.14230638846E+02  0.15095589023E+02  0.12657247919E+03  0.12826137524E+03  0.00000000000E+00 0.  1.
</event>
<event>
 4    1  0.1643710E+006  0.1847033E+03  0.7546771E-02  0.1066546E+00
         21   -1    0    0  503  502  0.00000000000E+00  0.00000000000E+00  0.29771527785E+02  0.29771527785E+02  0.00000000000E+00 0. -1.
          2   -1    0    0  502    0 -0.00000000000E+00 -0.00000000000E+00 -0.26722636781E+04  0.26722636781E+04  0.00000000000E+00 0. -1.
         21    1    1    2  503  501  0.18448444979E+03 -0.89891479897E+01 -0.30018957248E+03  0.35246148218E+03  0.00000000000E+00 0. -1.
          2    1    1    2  501    0 -0.18448444979E+03  0.89891479897E+01 -0.23423025778E+04  0.23495737237E+04  0.00000000000E+00 0. -1.
</event>
<event>
 4    1  0.1643710E+006  0.3403897E+02  0.7546771E-02  0.1387448E+00
          2   -1    0    0  503    0 -0.00000000000E+00  0.00000000000E+00  0.20793023087E+03  0.20793023087E+03  0.00000000000E+00 0.  1.
         21   -1    0    0  501  502  0.00000000000E+00 -0.00000000000E+00 -0.16015974182E+03  0.16015974182E+03  0.00000000000E+00 0. -1.
         21    1    1    2  503  502  0.29641045410E+01  0.33909667758E+02 -0.15692973383E+03  0.16057893026E+03  0.00000000000E+00 0. -1.
          2    1    1    2  501    0 -0.29641045410E+01 -0.33909667758E+02  0.20470022288E+03  0.20751104243E+03  0.00000000000E+00 0.  1.
</event>
<event>
 4    1  0.1643710E+006  0.8362032E+02  0.7546771E-02  0.1195683E+00
         21   -1    0    0  501  502  0.00000000000E+00  0.00000000000E+00  0.39494867946E+02  0.39494867946E+02  0.00000000000E+00 0.  1.
         -3   -1    0    0    0  501 -0.00000000000E+00 -0.00000000000E+00 -0.67267445666E+03  0.67267445666E+03  0.00000000000E+00 0. -1.
         21    1    1    2  503  502 -0.36432569766E+02 -0.75266363261E+02 -0.10936219350E+02  0.84332428354E+02  0.00000000000E+00 0.  1.
         -3    1    1    2    0  503  0.36432569766E+02  0.75266363261E+02 -0.62224336936E+03  0.62783689625E+03  0.00000000000E+00 0. -1.
</event>
<event>
 4    1  0.1643710E+006  0.2456606E+02  0.7546771E-02  0.1473717E+00
          2   -1    0    0  502    0 -0.00000000000E+00  0.00000000000E+00  0.88113833292E+03  0.88113833292E+03  0.00000000000E+00 0. -1.
         21   -1    0    0  503  502  0.00000000000E+00 -0.00000000000E+00 -0.24602479516E+02  0.24602479516E+02  0.00000000000E+00 0. -1.
         21    1    1    2  503  501  0.12031932948E+02  0.21417840325E+02 -0.18254338364E+02  0.30605753769E+02  0.00000000000E+00 0. -1.
          2    1    1    2  501    0 -0.12031932948E+02 -0.21417840325E+02  0.87479019177E+03  0.87513505866E+03  0.00000000000E+00 0. -1.
</event>
<event>
 4    1  0.1643710E+006  0.2648674E+02  0.7546771E-02  0.1452833E+00
          1   -1    0    0  502    0 -0.00000000000E+00  0.00000000000E+00  0.34458583932E+03  0.34458583932E+03  0.00000000000E+00 0. -1.
         21   -1    0    0  503  502  0.00000000000E+00 -0.00000000000E+00 -0.38494393250E+02  0.38494393250E+02  0.00000000000E+00 0.  1.
         21    1    1    2  503  501 -0.26484438009E+02 -0.34906821597E+00 -0.33360445208E+02  0.42596556313E+02  0.00000000000E+00 0.  1.
          1    1    1    2  501    0  0.26484438009E+02  0.34906821597E+00  0.33945189128E+03  0.34048367626E+03  0.00000000000E+00 0. -1.
</event>
<event>
 4    1  0.1643710E+006  0.2564241E+02  0.7546771E-02  0.1461744E+00
         21   -1    0    0  503  502  0.00000000000E+00  0.00000000000E+00  0.22420971404E+03  0.22420971404E+03  0.00000000000E+00 0. -1.
         -4   -1    0    0    0  501 -0.00000000000E+00 -0.00000000000E+00 -0.67400584905E+01  0.67400584905E+01  0.00000000000E+00 0. -1.
         21    1    1    2  503  501  0.24100192085E+02 -0.87586353249E+01  0.19552475920E+03  0.19719904769E+03  0.00000000000E+00 0. -1.
         -4    1    1    2    0  502 -0.24100192085E+02  0.87586353249E+01  0.21944896355E+02  0.33750724842E+02  0.00000000000E+00 0. -1.
</event>
<event>
 4    1  0.1643710E+006  0.3162801E+02  0.7546771E-02  0.1405958E+00
         21   -1    0    0  503  502  0.00000000000E+00  0.00000000000E+00  0.65562530604E+01  0.65562530604E+01  0.00000000000E+00 0.  1.
          3   -1    0    0  502    0 -0.00000000000E+00 -0.00000000000E+00 -0.70383945880E+03  0.70383945880E+03  0.00000000000E+00 0. -1.
         21    1    1    2  503  501  0.19624651540E+02  0.24803307836E+02 -0.34292023830E+02  0.46650551187E+02  0.00000000000E+00 0.  1.
          3    1    1    2  501    0 -0.19624651540E+02 -0.24803307836E+02 -0.66299118191E+03  0.66374516067E+03  0.00000000000E+00 0. -1.
</event>
<event>
 4    1  0.1643710E+006  0.2875945E+02  0.7546771E-02  0.1430692E+00
          2   -1    0    0  503    0 -0.00000000000E+00  0.00000000000E+00  0.68162565612E+02  0.68162565612E+02  0.00000000000E+00 0. -1.
         21   -1    0    0  501  502  0.00000000000E+00 -0.00000000000E+00 -0.12138822241E+02  0.12138822241E+02  0.00000000000E+00 0. -1.
         21    1    1    2  503  502 -0.24801382546E+02  0.14560120432E+02  0.27237741716E+02  0.39610607885E+02  0.00000000000E+00 0. -1.
          2    1    1    2  501    0  0.24801382546E+02 -0.14560120432E+02  0.28786001655E+02  0.40690779969E+02  0.00000000000E+00 0. -1.
</event>
<event>
 4    1  0.1643710E+006  0.2297947E+02  0.7546771E-02  0.1492756E+00
         -1   -1    0    0    0  501 -0.00000000000E+00  0.00000000000E+00  0.28499098376E+01  0.28499098376E+01  0.00000000000E+00 0. -1.
         21   -1    0    0  501  502  0.00000000000E+00 -0.00000000000E+00 -0.11699769351E+04  0.11699769351E+04  0.00000000000E+00 0.  1.
         21    1    1    2  503  502 -0.15830216202E+02  0.16657143541E+02 -0.11215416414E+04  0.11217770321E+04  0.00000000000E+00 0.  1.
         -1    1    1    2    0  503  0.15830216202E+02 -0.16657143541E+02 -0.45585383775E+02  0.51049812829E+02  0.00000000000E+00 0. -1.
</event>
<event>
 4    1  0.1643710E+006  0.2146559E+02  0.7546771E-02  0.1512720E+00
         -2   -1    0    0    0  501 -0.00000000000E+00  0.00000000000E+00  0.17267185850E+02  0.17267185850E+02  0.00000000000E+00 0.  1.
         21   -1    0    0  503  502  0.00000000000E+00 -0.00000000000E+00 -0.27337831728E+02  0.27337831728E+02  0.00000000000E+00 0.  1.
         21    1    1    2  503  501 -0.13374654396E+02  0.16789584061E+02 -0.84822862999E+01  0.23080742926E+02  0.00000000000E+00 0.  1.
         -2    1    1    2    0  502  0.13374654396E+02 -0.16789584061E+02 -0.15883595787E+01  0.21524274652E+02  0.00000000000E+00 0.  1.
</event>
<event>
 4    1  0.1643710E+006  0.2641252E+02  0.7546771E-02  0.1453600E+00
         21   -1    0    0  503  502  0.00000000000E+00  0.00000000000E+00  0.55525007142E+02  0.55525007142E+02  0.00000000000E+00 0. -1.
          3   -1    0    0  502    0 -0.00000000000E+00 -0.00000000000E+00 -0.17987541589E+03  0.17987541589E+03  0.00000000000E+00 0.  1.
         21    1    1    2  503  501  0.23753648575E+02  0.11549259392E+02  0.51339992733E+02  0.57735743408E+02  0.00000000000E+00 0. -1.
          3    1    1    2  501    0 -0.23753648575E+02 -0.11549259392E+02 -0.17569040148E+03  0.17766467962E+03  0.00000000000E+00 0.  1.
</event>
<event>
 4    1  0.1643710E+006  0.2060301E+02  0.7546771E-02  0.1525009E+00
          2   -1    0    0  503    0 -0.00000000000E+00  0.00000000000E+00  0.59467358645E+03  0.59467358645E+03  0.00000000000E+00 0.  1.
         21   -1    0    0  501  502  0.00000000000E+00 -0.00000000000E+00 -0.25655643520E+01  0.25655643520E+01  0.00000000000E+00 0.  1.
         21    1    1    2  503  502  0.76241773971E+01  0.19140421620E+02  0.42355142482E+02  0.47100338804E+02  0.00000000000E+00 0.  1.
          2    1    1    2  501    0 -0.76241773971E+01 -0.19140421620E+02  0.54975287961E+03  0.55013881199E+03  0.00000000000E+00 0.  1.
</event>
<event>
 4    1  0.1643710E+006  0.2195363E+02  0.7546771E-02  0.1506073E+00
         21   -1    0    0  501  502  0.00000000000E+00  0.00000000000E+00  0.58688056148E+03  0.58688056148E+03  0.00000000000E+00 0.  1.
          3   -1    0    0  503    0 -0.00000000000E+00 -0.00000000000E+00 -0.10321824837E+01  0.10321824837E+01  0.00000000000E+00 0.  1.
         21    1    1    2  503  502 -0.19315668766E+02 -0.10433927809E+02  0.42581669527E+03  0.42638224621E+03  0.00000000000E+00 0.  1.
          3    1    1    2  501    0  0.19315668766E+02  0.10433927809E+02  0.16003168372E+03  0.16153049775E+03  0.00000000000E+00 0.  1.
</event>
<event>
 4    1  0.1643710E+006  0.2084255E+02  0.7546771E-02  0.1521525E+00
          1   -1    0    0  503    0 -0.00000000000E+00  0.00000000000E+00  0.85499159265E+03  0.85499159265E+03  0.00000000000E+00 0.  1.
         21   -1    0    0  501  502  0.00000000000E+00 -0.00000000000E+00 -0.22667467809E+01  0.22667467809E+01  0.00000000000E+00 0.  1.
         21    1    1    2  503  502 -0.93936746368E+01  0.18605670175E+02  0.48815573798E+02  0.53078925489E+02  0.00000000000E+00 0.  1.
          1    1    1    2  501    0  0.93936746368E+01 -0.18605670175E+02  0.80390927207E+03  0.80417941394E+03  0.00000000000E+00 0.  1.
</event>
<event>
 4    1  0.1643710E+006  0.5201144E+02  0.7546771E-02  0.1289679E+00
         21   -1    0    0  501  502  0.00000000000E+00  0.00000000000E+00  0.48122810213E+01  0.48122810213E+01  0.00000000000E+00 0. -1.
          1   -1    0    0  503    0 -0.00000000000E+00 -0.00000000000E+00 -0.62298332967E+03  0.62298332967E+03  0.00000000000E+00 0. -1.
         21    1    1    2  503  502 -0.46126115860E+02 -0.24032713425E+02 -0.21099072060E+03  0.21730686611E+03  0.00000000000E+00 0. -1.
          1    1    1    2  501    0  0.46126115860E+02  0.24032713425E+02 -0.40718032805E+03  0.41048874459E+03  0.00000000000E+00 0. -1.
</event>
<event>
 4    1  0.1643710E+006  0.2929553E+02  0.7546771E-02  0.1425819E+00
         -2   -1    0    0    0  501 -0.00000000000E+00  0.00000000000E+00  0.16993558674E+03  0.16993558674E+03  0.00000000000E+00 0. -1.
         21   -1    0    0  503  502  0.00000000000E+00 -0.00000000000E+00 -0.16316969065E+02  0.16316969065E+02  0.00000000000E+00 0. -1.
         21    1    1    2  503  501 -0.22296496748E+02 -0.19002487293E+02 -0.57447733076E+00  0.29301165758E+02  0.00000000000E+00 0. -1.
         -2    1    1    2    0  502  0.22296496748E+02  0.19002487293E+02  0.15419309501E+03  0.15695139005E+03  0.00000000000E+00 0. -1.
</event>
<event>
 4    1  0.1643710E+006  0.2652054E+02  0.7546771E-02  0.1452485E+00
         21   -1    0    0  501  502  0.00000000000E+00  0.00000000000E+00  0.44010361463E+01  0.44010361463E+01  0.00000000000E+00 0. -1.
          2   -1    0    0  503    0 -0.00000000000E+00 -0.00000000000E+00 -0.23190553644E+03  0.23190553644E+03  0.00000000000E+00 0. -1.
         21    1    1    2  503  502  0.24504632730E+02 -0.10142097874E+02 -0.47874634202E+02  0.54729514655E+02  0.00000000000E+00 0. -1.
          2    1    1    2  501    0 -0.24504632730E+02  0.10142097874E+02 -0.17962986609E+03  0.18157705793E+03  0.00000000000E+00 0. -1.
</event>
<event>
 4    1  0.1643710E+006  0.2588051E+02  0.7546771E-02  0.1459190E+00
         21   -1    0    0  503  502  0.00000000000E+00  0.00000000000E+00  0.12534406842E+03  0.12534406842E+03  0.00000000000E+00 0. -1.
         -3   -1    0    0    0  501 -0.00000000000E+00 -0.00000000000E+00 -0.87207913419E+01  0.87207913419E+01  0.00000000000E+00 0. -1.
         21    1    1    2  503  501  0.25085197314E+02 -0.63666139989E+01  0.10002532008E+03  0.10331924098E+03  0.00000000000E+00 0. -1.
         -3    1    1    2    0  502 -0.25085197314E+02  0.63666139989E+01  0.16597956993E+02  0.30745618784E+02  0.00000000000E+00 0. -1.
</event>
<event>
 4    1  0.1643710E+006  0.2634455E+02  0.7546771E-02  0.1454306E+00
         21   -1    0    0  501  502  0.00000000000E+00  0.00000000000E+00  0.14962779350E+04  0.14962779350E+04  0.00000000000E+00 0. -1.
          1   -1    0    0  503    0 -0.00000000000E+00 -0.00000000000E+00 -0.13978755686E+01  0.13978755686E+01  0.00000000000E+00 0. -1.
         21    1    1    2  503  502  0.21863204218E+02 -0.14698155355E+02  0.13595577791E+04  0.13598129982E+04  0.00000000000E+00 0. -1.
          1    1    1    2  501    0 -0.21863204218E+02  0.14698155355E+02  0.13532228039E+03  0.13786281239E+03  0.00000000000E+00 0. -1.
</event>
<event>
 4    1  0.1643710E+006  0.2029262E+02  0.7546771E-02  0.1529608E+00
          4   -1    0    0  503    0 -0.00000000000E+00  0.00000000000E+00  0.95931446461E+02  0.95931446461E+02  0.00000000000E+00 0.  1.
         21   -1    0    0  501  502  0.00000000000E+00 -0.00000000000E+00 -0.56831578226E+01  0.56831578226E+01  0.00000000000E+00 0.  1.
         21    1    1    2  503  502  0.20035128631E+02  0.32224523708E+01  0.19991769267E+02  0.28486161850E+02  0.00000000000E+00 0.  1.
          4    1    1    2  501    0 -0.20035128631E+02 -0.32224523708E+01  0.70256519371E+02  0.73128442433E+02  0.00000000000E+00 0.  1.
</event>
<event>
 4    1  0.1643710E+006  0.2661191E+02  0.7546771E-02  0.1451546E+00
          3   -1    0    0  502    0 -0.00000000000E+00  0.00000000000E+00  0.44792760906E+01  0.44792760906E+01  0.00000000000E+00 0. -1.
         21   -1    0    0  503  502  0.00000000000E+00 -0.00000000000E+00 -0.66637622574E+03  0.66637622574E+03  0.00000000000E+00 0.  1.
         21    1    1    2  503  501  0.44560230257E+01  0.26236185333E+02 -0.62389424556E+03  0.62446154662E+03  0.00000000000E+00 0.  1.
          3    1    1    2  501    0 -0.44560230257E+01 -0.26236185333E+02 -0.38002704085E+02  0.46393955208E+02  0.00000000000E+00 0. -1.
</event>
<event>
 4    1  0.1643710E+006  0.2255108E+02  0.7546771E-02  0.1498213E+00
         21   -1    0    0  503  502  0.00000000000E+00  0.00000000000E+00  0.38920735712E+02  0.38920735712E+02  0.00000000000E+00 0. -1.
          2   -1    0    0  502    0 -0.00000000000E+00 -0.00000000000E+00 -0.36333411932E+02  0.36333411932E+02  0.00000000000E+00 0. -1.
         21    1    1    2  503  501  0.13955496615E+02  0.17714271069E+02  0.31404184103E+02  0.38662308059E+02  0.00000000000E+00 0. -1.
          2    1    1    2  501    0 -0.13955496615E+02 -0.17714271069E+02 -0.28816860323E+02  0.36591839584E+02  0.00000000000E+00 0. -1.
</event>
<event>
 4    1  0.1643710E+006  0.2402221E+02  0.7546771E-02  0.1480046E+00
         21   -1    0    0  501  502  0.00000000000E+00  0.00000000000E+00  0.61734218334E+01  0.61734218334E+01  0.00000000000E+00 0.  1.
         -4   -1    0    0    0  501 -0.00000000000E+00 -0.00000000000E+00 -0.98133808897E+02  0.98133808897E+02  0.00000000000E+00 0. -1.
         21    1    1    2  503  502  0.56182435101E+01  0.23355978447E+02 -0.34617825039E+02  0.42136210079E+02  0.00000000000E+00 0.  1.
         -4    1    1    2    0  503 -0.56182435101E+01 -0.23355978447E+02 -0.57342562025E+02  0.62171020652E+02  0.00000000000E+00 0. -1.
</event>
<event>
 4    1  0.1643710E+006  0.2260225E+02  0.7546771E-02  0.1497554E+00
         21   -1    0    0  503  502  0.00000000000E+00  0.00000000000E+00  0.37200826605E+01  0.37200826605E+01  0.00000000000E+00 0. -1.
          2   -1    0    0  502    0 -0.00000000000E+00 -0.00000000000E+00 -0.10486245544E+04  0.10486245544E+04  0.00000000000E+00 0. -1.
         21    1    1    2  503  501 -0.10165110697E+02  0.20187429918E+02 -0.31941552163E+02  0.39129586718E+02  0.00000000000E+00 0. -1.
          2    1    1    2  501    0  0.10165110697E+02 -0.20187429918E+02 -0.10129629195E+04  0.10132150503E+04  0.00000000000E+00 0. -1.
</event>
<event>
 4    1  0.1643710E+006  0.2136148E+02  0.7546771E-02  0.1514166E+00
          2   -1    0    0  502    0 -0.00000000000E+00  0.00000000000E+00  0.14221021742E+04  0.14221021742E+04  0.00000000000E+00 0.  1.
         21   -1    0    0  503  502  0.00000000000E+00 -0.00000000000E+00 -0.43028177595E+01  0.43028177595E+01  0.00000000000E+00 0.  1.
         21    1    1    2  503  501 -0.21334527815E+02  0.10727263180E+01  0.22805007051E+02  0.31247098512E+02  0.00000000000E+00 0.  1.
          2    1    1    2  501    0  0.21334527815E+02 -0.10727263180E+01  0.13949943494E+04  0.13951578935E+04  0.00000000000E+00 0.  1.
</event>
<event>
 4    1  0.1643710E+006  0.2767237E+02  0.7546771E-02  0.1440969E+00
          1   -1    0    0  502    0 -0.00000000000E+00  0.00000000000E+00  0.15952975660E+02  0.15952975660E+02  0.00000000000E+00 0. -1.
         21   -1    0    0  503  502  0.00000000000E+00 -0.00000000000E+00 -0.10821808092E+03  0.10821808092E+03  0.00000000000E+00 0. -1.
         21    1    1    2  503  501 -0.16313773838E+01  0.27624237450E+02 -0.92445249034E+02  0.96498103379E+02  0.00000000000E+00 0. -1.
          1    1    1    2  501    0  0.16313773838E+01 -0.27624237450E+02  0.18014377750E+00  0.27672953197E+02  0.00000000000E+00 0. -1.
</event>
<event>
 4    1  0.1643710E+006  0.3669683E+02  0.7546771E-02  0.1369011E+00
          2   -1    0    0  502    0 -0.00000000000E+00  0.00000000000E+00  0.11088502232E+04  0.11088502232E+04  0.00000000000E+00 0. -1.
         21   -1    0    0  503  502  0.00000000000E+00 -0.00000000000E+00 -0.15183679578E+02  0.15183679578E+02  0.00000000000E+00 0. -1.
         21    1    1    2  503  501  0.19173350328E+02  0.31289616657E+02  0.77610834990E+01  0.37508557562E+02  0.00000000000E+00 0. -1.
          2    1    1    2  501    0 -0.19173350328E+02 -0.31289616657E+02  0.10859054601E+04  0.10865253452E+04  0.00000000000E+00 0. -1.
</event>
<event>
 4    1  0.1643710E+006  0.2924231E+02  0.7546771E-02  0.1426297E+00
         21   -1    0    0  501  502  0.00000000000E+00  0.00000000000E+00  0.11137110733E+02  0.11137110733E+02  0.00000000000E+00 0.  1.
          2   -1    0    0  503    0 -0.00000000000E+00 -0.00000000000E+00 -0.37838400088E+03  0.37838400088E+03  0.00000000000E+00 0.  1.
         21    1    1    2  503  502  0.43699996594E+01 -0.28913939843E+02 -0.97421686961E+01  0.30822437690E+02  0.00000000000E+00 0.  1.
          2    1    1    2  501    0 -0.43699996594E+01  0.28913939843E+02 -0.35750472145E+03  0.35869867392E+03  0.00000000000E+00 0.  1.
</event>
<event>
 4    1  0.1643710E+006  0.3282449E+02  0.7546771E-02  0.1396538E+00
         21   -1    0    0  501  502  0.00000000000E+00  0.00000000000E+00  0.53954254831E+02  0.53954254831E+02  0.00000000000E+00 0. -1.
          4   -1    0    0  503    0 -0.00000000000E+00 -0.00000000000E+00 -0.23262820433E+02  0.23262820433E+02  0.00000000000E+00 0.  1.
         21    1    1    2  503  502 -0.32110374076E+02 -0.68096480079E+01  0.29872166145E+02  0.44382358427E+02  0.00000000000E+00 0. -1.
          4    1    1    2  501    0  0.32110374076E+02  0.68096480079E+01  0.81926825256E+00  0.32834716837E+02  0.00000000000E+00 0.  1.
</event>
<event>
 4    1  0.1643710E+006  0.3111627E+02  0.7546771E-02  0.1410138E+00
         -4   -1    0    0    0  501 -0.00000000000E+00  0.00000000000E+00  0.52204062286E+03  0.52204062286E+03  0.00000000000E+00 0. -1.
         21   -1    0    0  503  502  0.00000000000E+00 -0.00000000000E+00 -0.18769403254E+01  0.18769403254E+01  0.00000000000E+00 0.  1.
         21    1    1    2  503  501 -0.87180438589E+01 -0.29870020394E+02  0.23155873823E+03  0.23364004721E+03  0.00000000000E+00 0.  1.
         -4    1    1    2    0  502  0.87180438589E+01  0.29870020394E+02  0.28860494431E+03  0.29027751598E+03  0.00000000000E+00 0. -1.
</event>
<event>
 4    1  0.1643710E+006  0.2653672E+02  0.7546771E-02  0.1452318E+00
         21   -1    0    0  503  502  0.00000000000E+00  0.00000000000E+00  0.10320542309E+03  0.10320542309E+03  0.00000000000E+00 0.  1.
         -3   -1    0    0    0  501 -0.00000000000E+00 -0.00000000000E+00 -0.25008182967E+03  0.25008182967E+03  0.00000000000E+00 0. -1.
         21    1    1    2  503  501  0.26112773707E+02 -0.47244582348E+01  0.10077897568E+03  0.10421419959E+03  0.00000000000E+00 0.  1.
         -3    1    1    2    0  502 -0.26112773707E+02  0.47244582348E+01 -0.24765538226E+03  0.24907305318E+03  0.00000000000E+00 0. -1.
</event>
<event>
 4    1  0.1643710E+006  0.4087856E+02  0.7546771E-02  0.1343413E+00
         -3   -1    0    0    0  501 -0.00000000000E+00  0.00000000000E+00  0.11866524475E+03  0.11866524475E+03  0.00000000000E+00 0. -1.
         21   -1    0    0  501  502  0.00000000000E+00 -0.00000000000E+00 -0.23559341730E+02  0.23559341730E+02  0.00000000000E+00 0.  1.
         21    1    1    2  503  502 -0.30038737460E+02  0.27726001627E+02  0.24501124121E+01  0.40951922608E+02  0.00000000000E+00 0.  1.
         -3    1    1    2    0  503  0.30038737460E+02 -0.27726001627E+02  0.92655790604E+02  0.10127266387E+03  0.00000000000E+00 0. -1.
</event>
<event>
 4    1  0.1643710E+006  0.3419554E+02  0.7546771E-02  0.1386309E+00
         21   -1    0    0  501  502  0.00000000000E+00  0.00000000000E+00  0.14159723110E+04  0.14159723110E+04  0.00000000000E+00 0. -1.
          2   -1    0    0  503    0 -0.00000000000E+00 -0.00000000000E+00 -0.10734527976E+01  0.10734527976E+01  0.00000000000E+00 0.  1.
         21    1    1    2  503  502  0.34143319848E+02  0.18891789598E+01  0.10477544239E+04  0.10483122952E+04  0.00000000000E+00 0. -1.
          2    1    1    2  501    0 -0.34143319848E+02 -0.18891789598E+01  0.36714443428E+03  0.36873346866E+03  0.00000000000E+00 0.  1.
</event>
<event>
 4    1  0.1643710E+006  0.2742759E+02  0.7546771E-02  0.1443360E+00
         21   -1    0    0  503  502  0.00000000000E+00  0.00000000000E+00  0.66748628757E+01  0.66748628757E+01  0.00000000000E+00 0.  1.
          3   -1    0    0  502    0 -0.00000000000E+00 -0.00000000000E+00 -0.87711928355E+03  0.87711928355E+03  0.00000000000E+00 0. -1.
         21    1    1    2  503  501 -0.16737789727E+02 -0.21728301390E+02 -0.22690870730E+02  0.35597026572E+02  0.00000000000E+00 0.  1.
          3    1    1    2  501    0  0.16737789727E+02  0.21728301390E+02 -0.84775354995E+03  0.84819711986E+03  0.00000000000E+00 0. -1.
</event>
<event>
 4    1  0.1643710E+006  0.2225306E+02  0.7546771E-02  0.1502097E+00
          2   -1    0    0  503    0 -0.00000000000E+00  0.00000000000E+00  0.50497881913E+03  0.50497881913E+03  0.00000000000E+00 0.  1.
         21   -1    0    0  501  502  0.00000000000E+00 -0.00000000000E+00 -0.12128788808E+01  0.12128788808E+01  0.00000000000E+00 0.  1.
         21    1    1    2  503  502  0.18681449499E+02 -0.12091406340E+02  0.14113118263E+03  0.14287480314E+03  0.00000000000E+00 0.  1.
          2    1    1    2  501    0 -0.18681449499E+02  0.12091406340E+02  0.36263475762E+03  0.36331689487E+03  0.00000000000E+00 0.  1.
</event>
<event>
 4    1  0.1643710E+006  0.2022468E+02  0.7546771E-02  0.1530628E+00
          1   -1    0    0  503    0 -0.00000000000E+00  0.00000000000E+00  0.10831833235E+03  0.10831833235E+03  0.00000000000E+00 0.  1.
         21   -1    0    0  501  502  0.00000000000E+00 -0.00000000000E+00 -0.63543169618E+01  0.63543169618E+01  0.00000000000E+00 0.  1.
         21    1    1    2  503  502  0.19747886561E+02  0.43656398237E+01  0.14461068228E+02  0.24862830269E+02  0.00000000000E+00 0.  1.
          1    1    1    2  501    0 -0.19747886561E+02 -0.43656398237E+01  0.87502947156E+02  0.89809819038E+02  0.00000000000E+00 0.  1.
</event>
<event>
 4    1  0.1643710E+006  0.2787974E+02  0.7546771E-02  0.1438966E+00
         21   -1    0    0  503  502  0.00000000000E+00  0.00000000000E+00  0.41221044701E+03  0.41221044701E+03  0.00000000000E+00 0.  1.
          2   -1    0    0  502    0 -0.00000000000E+00 -0.00000000000E+00 -0.30657995385E+03  0.30657995385E+03  0.00000000000E+00 0. -1.
         21    1    1    2  503  501 -0.40392847307E+01 -0.27585576882E+02  0.41110350140E+03  0.41204777482E+03  0.00000000000E+00 0.  1.
          2    1    1    2  501    0  0.40392847307E+01  0.27585576882E+02 -0.30547300824E+03  0.30674262605E+03  0.00000000000E+00 0. -1.
</event>
<event>
 4    1  0.1643710E+006  0.2049973E+02  0.7546771E-02  0.1526529E+00
         21   -1    0    0  501  502  0.00000000000E+00  0.00000000000E+00  0.14873142534E+02  0.14873142534E+02  0.00000000000E+00 0.  1.
          1   -1    0    0  503    0 -0.00000000000E+00 -0.00000000000E+00 -0.22363034312E+03  0.22363034312E+03  0.00000000000E+00 0. -1.
         21    1    1    2  503  502  0.55712203811E+01 -0.19728161882E+02  0.70853368627E+01  0.21689648827E+02  0.00000000000E+00 0.  1.
          1    1    1    2  501    0 -0.55712203811E+01  0.19728161882E+02 -0.21584253745E+03  0.21681383683E+03  0.00000000000E+00 0. -1.
</event>
<event>
 4    1  0.1643710E+006  0.2221262E+02  0.7546771E-02  0.1502629E+00
         -3   -1    0    0    0  501 -0.00000000000E+00  0.00000000000E+00  0.36804828008E+03  0.36804828008E+03  0.00000000000E+00 0.  1.
         21   -1    0    0  503  502  0.00000000000E+00 -0.00000000000E+00 -0.60230937679E+02  0.60230937679E+02  0.00000000000E+00 0. -1.
         21    1    1    2  503  501 -0.21534812828E+02 -0.54454027990E+01 -0.57834427720E+02  0.61953382514E+02  0.00000000000E+00 0. -1.
         -3    1    1    2    0  502  0.21534812828E+02  0.54454027990E+01  0.36565177012E+03  0.36632583525E+03  0.00000000000E+00 0.  1.
</event>
<event>
 4    1  0.1643710E+006  0.4899494E+02  0.7546771E-02  0.1302590E+00
         21   -1    0    0  503  502  0.00000000000E+00  0.00000000000E+00  0.12706776108E+03  0.12706776108E+03  0.00000000000E+00 0.  1.
          3   -1    0    0  502    0 -0.00000000000E+00 -0.00000000000E+00 -0.41878808939E+02  0.41878808939E+02  0.00000000000E+00 0. -1.
         21    1    1    2  503  501  0.47230792066E+02 -0.13029063371E+02  0.10517886571E+03  0.11603059081E+03  0.00000000000E+00 0.  1.
          3    1    1    2  501    0 -0.47230792066E+02  0.13029063371E+02 -0.19989913566E+02  0.52915979212E+02  0.00000000000E+00 0. -1.
</event>
<event>
 4    1  0.1643710E+006  0.2251335E+02  0.7546771E-02  0.1498701E+00
         21   -1    0    0  503  502  0.00000000000E+00  0.00000000000E+00  0.78166372171E+00  0.78166372171E+00  0.00000000000E+00 0.  1.
          1   -1    0    0  502    0 -0.00000000000E+00 -0.00000000000E+00 -0.10696077994E+04  0.10696077994E+04  0.00000000000E+00 0. -1.
         21    1    1    2  503  501  0.14919928587E+01  0.22463858158E+02 -0.19857152038E+03  0.19984368810E+03  0.00000000000E+00 0.  1.
          1    1    1    2  501    0 -0.14919928587E+01 -0.22463858158E+02 -0.87025461533E+03  0.87054577505E+03  0.00000000000E+00 0. -1.
</event>
<event>
 4    1  0.1643710E+006  0.2736747E+02  0.7546771E-02  0.1443951E+00
         21   -1    0    0  501  502  0.00000000000E+00  0.00000000000E+00  0.12815665827E+04  0.12815665827E+04  0.00000000000E+00 0.  1.
          3   -1    0    0  503    0 -0.00000000000E+00 -0.00000000000E+00 -0.15686751258E+01  0.15686751258E+01  0.00000000000E+00 0.  1.
         21    1    1    2  503  502  0.27358967319E+02  0.68224207591E+00  0.11481921543E+04  0.11485182636E+04  0.00000000000E+00 0.  1.
          3    1    1    2  501    0 -0.27358967319E+02 -0.68224207591E+00  0.13180575318E+03  0.13461699417E+03  0.00000000000E+00 0.  1.
</event>
<event>
 4    1  0.1643710E+006  0.2127254E+02  0.7546771E-02  0.1515409E+00
         -3   -1    0    0    0  501 -0.00000000000E+00  0.00000000000E+00  0.35155709670E+02  0.35155709670E+02  0.00000000000E+00 0. -1.
         21   -1    0    0  503  502  0.00000000000E+00 -0.00000000000E+00 -0.14465029662E+03  0.14465029662E+03  0.00000000000E+00 0.  1.
         21    1    1    2  503  501 -0.21263064501E+02  0.63485950148E+00 -0.14055704336E+03  0.14215767090E+03  0.00000000000E+00 0.  1.
         -3    1    1    2    0  502  0.21263064501E+02 -0.63485950148E+00  0.31062456415E+02  0.37648335383E+02  0.00000000000E+00 0. -1.
</event>
<event>
 4    1  0.1643710E+006  0.3413573E+02  0.7546771E-02  0.1386743E+00
         21   -1    0    0  501  502  0.00000000000E+00  0.00000000000E+00  0.87602844258E+01  0.87602844258E+01  0.00000000000E+00 0.  1.
          3   -1    0    0  503    0 -0.00000000000E+00 -0.00000000000E+00 -0.13757168139E+03  0.13757168139E+03  0.00000000000E+00 0.  1.
         21    1    1    2  503  502  0.33950527036E+02  0.35509922805E+01 -0.51089610998E+02  0.61444252653E+02  0.00000000000E+00 0.  1.
          3    1    1    2  501    0 -0.33950527036E+02 -0.35509922805E+01 -0.77721785965E+02  0.84887713161E+02  0.00000000000E+00 0.  1.
</event>
<event>
 4    1  0.1643710E+006  0.3162479E+02  0.7546771E-02  0.1405984E+00
         -2   -1    0    0    0  501 -0.00000000000E+00  0.00000000000E+00  0.65580574819E+02  0.65580574819E+02  0.00000000000E+00 0.  1.
         21   -1    0    0  503  502  0.00000000000E+00 -0.00000000000E+00 -0.15892696048E+02  0.15892696048E+02  0.00000000000E+00 0.  1.
         21    1    1    2  503  501 -0.28075624902E+02  0.14556316403E+02  0.16654217857E+02  0.35741992576E+02  0.00000000000E+00 0.  1.
         -2    1    1    2    0  502  0.28075624902E+02 -0.14556316403E+02  0.33033660914E+02  0.45731278292E+02  0.00000000000E+00 0.  1.
</event>
<event>
 4    1  0.1643710E+006  0.2305256E+02  0.7546771E-02  0.1491839E+00
          2   -1    0    0  502    0 -0.00000000000E+00  0.00000000000E+00  0.40972928043E+03  0.40972928043E+03  0.00000000000E+00 0.  1.
         21   -1    0    0  503  502  0.00000000000E+00 -0.00000000000E+00 -0.47800334396E+01  0.47800334396E+01  0.00000000000E+00 0.  1.
         21    1    1    2  503  501  0.14847740731E+02 -0.17634208917E+02  0.25558518007E+02  0.34418869413E+02  0.00000000000E+00 0.  1.
          2    1    1    2  501    0 -0.14847740731E+02  0.17634208917E+02  0.37939072899E+03  0.38009044446E+03  0.00000000000E+00 0.  1.
</event>
<event>
 4    1  0.1643710E+006  0.2201339E+02  0.7546771E-02  0.1505273E+00
          2   -1    0    0  503    0 -0.00000000000E+00  0.00000000000E+00  0.43535391045E+03  0.43535391045E+03  0.00000000000E+00 0. -1.
         21   -1    0    0  501  502  0.00000000000E+00 -0.00000000000E+00 -0.11805158999E+01  0.11805158999E+01  0.00000000000E+00 0. -1.
         21    1    1    2  503  502  0.30640210710E+01  0.21799107750E+02  0.26924900398E+03  0.27014739582E+03  0.00000000000E+00 0. -1.
          2    1    1    2  501    0 -0.30640210710E+01 -0.21799107750E+02  0.16492439058E+03  0.16638703054E+03  0.00000000000E+00 0. -1.
</event>
<event>
 4    1  0.1643710E+006  0.3541125E+02  0.7546771E-02  0.1377695E+00
         21   -1    0    0  503  502  0.00000000000E+00  0.00000000000E+00  0.67113726957E+02  0.67113726957E+02  0.00000000000E+00 0. -1.
          2   -1    0    0  502    0 -0.00000000000E+00 -0.00000000000E+00 -0.38865876720E+02  0.38865876720E+02  0.00000000000E+00 0.  1.
         21    1    1    2  503  501  0.35006143382E+02 -0.53410037513E+01  0.52308527359E+02  0.63167542536E+02  0.00000000000E+00 0. -1.
          2    1    1    2  501    0 -0.35006143382E+02  0.53410037513E+01 -0.24060677123E+02  0.42812061141E+02  0.00000000000E+00 0.  1.
</event>
<event>
 4    1  0.1643710E+006  0.3347367E+02  0.7546771E-02  0.1391623E+00
          2   -1    0    0  502    0 -0.00000000000E+00  0.00000000000E+00  0.85013807510E+02  0.85013807510E+02  0.00000000000E+00 0.  1.
         21   -1    0    0  503  502  0.00000000000E+00 -0.00000000000E+00 -0.31809159783E+03  0.31809159783E+03  0.00000000000E+00 0. -1.
         21    1    1    2  503  501 -0.26996039896E+02  0.19791419655E+02 -0.31387177849E+03  0.31565167479E+03  0.00000000000E+00 0. -1.
          2    1    1    2  501    0  0.26996039896E+02 -0.19791419655E+02  0.80793988175E+02  0.87453730551E+02  0.00000000000E+00 0.  1.
</event>
<event>
 4    1  0.1643710E+006  0.2162734E+02  0.7546771E-02  0.1510493E+00
         21   -1    0    0  501  502  0.00000000000E+00  0.00000000000E+00  0.21104387513E+02  0.21104387513E+02  0.00000000000E+00 0.  1.
         -1   -1    0    0    0  501 -0.00000000000E+00 -0.00000000000E+00 -0.10553953490E+03  0.10553953490E+03  0.00000000000E+00 0. -1.
         21    1    1    2  503  502 -0.45053967464E+01 -0.21152858931E+02  0.14064230591E+02  0.25798151541E+02  0.00000000000E+00 0.  1.
         -1    1    1    2    0  503  0.45053967464E+01  0.21152858931E+02 -0.98499377976E+02  0.10084577087E+03  0.00000000000E+00 0. -1.
</event>
<event>
 4    1  0.1643710E+006  0.2460619E+02  0.7546771E-02  0.1473257E+00
         21   -1    0    0  503  502  0.00000000000E+00  0.00000000000E+00  0.52876785429E+02  0.52876785429E+02  0.00000000000E+00 0.  1.
          1   -1    0    0  502    0 -0.00000000000E+00 -0.00000000000E+00 -0.20148890232E+03  0.20148890232E+03  0.00000000000E+00 0.  1.
         21    1    1    2  503  501  0.55987616688E+01  0.23960764034E+02  0.49210072558E+02  0.55019047487E+02  0.00000000000E+00 0.  1.
          1    1    1    2  501    0 -0.55987616688E+01 -0.23960764034E+02 -0.19782218945E+03  0.19934664026E+03  0.00000000000E+00 0.  1.
</event>
<event>
 4    1  0.1643710E+006  0.2040574E+02  0.7546771E-02  0.1527921E+00
          1   -1    0    0  503    0 -0.00000000000E+00  0.00000000000E+00  0.11486307479E+03  0.11486307479E+03  0.00000000000E+00 0. -1.
         21   -1    0    0  501  502  0.00000000000E+00 -0.00000000000E+00 -0.12552416740E+03  0.12552416740E+03  0.00000000000E+00 0.  1.
         21    1    1    2  503  502 -0.16321572415E+02  0.12247461853E+02 -0.12377585810E+03  0.12544663047E+03  0.00000000000E+00 0.  1.
          1    1    1    2  501    0  0.16321572415E+02 -0.12247461853E+02  0.11311476550E+03  0.11494061172E+03  0.00000000000E+00 0. -1.
</event>
<event>
 4    1  0.1643710E+006  0.2272892E+02  0.7546771E-02  0.1495931E+00
          2   -1    0    0  503    0 -0.00000000000E+00  0.00000000000E+00  0.15973775372E+04  0.15973775372E+04  0.00000000000E+00 0. -1.
         21   -1    0    0  501  502  0.00000000000E+00 -0.00000000000E+00 -0.24348007964E+02  0.24348007964E+02  0.00000000000E+00 0. -1.
         21    1    1    2  503  502  0.21999456924E+02 -0.57120505620E+01 -0.18944781172E+02  0.29588990524E+02  0.00000000000E+00 0. -1.
          2    1    1    2  501    0 -0.21999456924E+02  0.57120505620E+01  0.15919743104E+04  0.15921365546E+04  0.00000000000E+00 0. -1.
</event>
<event>
 4    1  0.1643710E+006  0.5742691E+02  0.7546771E-02  0.1268835E+00
         21   -1    0    0  501  502  0.00000000000E+00  0.00000000000E+00  0.92524719488E+01  0.92524719488E+01  0.00000000000E+00 0.  1.
          2   -1    0    0  503    0 -0.00000000000E+00 -0.00000000000E+00 -0.22778581843E+04  0.22778581843E+04  0.00000000000E+00 0.  1.
         21    1    1    2  503  502 -0.11299971047E+02 -0.56304182193E+02 -0.84020619323E+02  0.10177089343E+03  0.00000000000E+00 0.  1.
          2    1    1    2  501    0  0.11299971047E+02  0.56304182193E+02 -0.21845850930E+04  0.21853397628E+04  0.00000000000E+00 0.  1.
</event>
<event>
 4    1  0.1643710E+006  0.2722692E+02  0.7546771E-02  0.1445342E+00
          1   -1    0    0  503    0 -0.00000000000E+00  0.00000000000E+00  0.29801389944E+03  0.29801389944E+03  0.00000000000E+00 0. -1.
         21   -1    0    0  501  502  0.00000000000E+00 -0.00000000000E+00 -0.27036881739E+01  0.27036881739E+01  0.00000000000E+00 0. -1.
         21    1    1    2  503  502 -0.24251051641E+02 -0.12377053429E+02  0.10513620160E+03  0.10860444671E+03  0.00000000000E+00 0. -1.
          1    1    1    2  501    0  0.24251051641E+02  0.12377053429E+02  0.19017400967E+03  0.19211314091E+03  0.00000000000E+00 0. -1.
</event>
<event>
 4    1  0.1643710E+006  0.2623900E+02  0.7546771E-02  0.1455406E+00
          2   -1    0    0  502    0 -0.00000000000E+00  0.00000000000E+00  0.11639713295E+04  0.11639713295E+04  0.00000000000E+00 0. -1.
         21   -1    0    0  503  502  0.00000000000E+00 -0.00000000000E+00 -0.29053111600E+01  0.29053111600E+01  0.00000000000E+00 0. -1.
         21    1    1    2  503  501  0.49115336735E+00  0.26234402921E+02  0.59862601388E+02  0.65360662277E+02  0.00000000000E+00 0. -1.
          2    1    1    2  501    0 -0.49115336735E+00 -0.26234402921E+02  0.11012034169E+04  0.11015159784E+04  0.00000000000E+00 0. -1.
</event>
<event>
 4    1  0.1643710E+006  0.2258627E+02  0.7546771E-02  0.1497760E+00
          2   -1    0    0  502    0 -0.00000000000E+00  0.00000000000E+00  0.13412073914E+03  0.13412073914E+03  0.00000000000E+00 0. -1.
         21   -1    0    0  503  502  0.00000000000E+00 -0.00000000000E+00 -0.10431294576E+02  0.10431294576E+02  0.00000000000E+00 0.  1.
         21    1    1    2  503  501  0.22518163953E+02 -0.17527047922E+01  0.42335346605E+01  0.22979610476E+02  0.00000000000E+00 0.  1.
          2    1    1    2  501    0 -0.22518163953E+02  0.17527047922E+01  0.11945590990E+03  0.12157242324E+03  0.00000000000E+00 0. -1.
</event>
<event>
 4    1  0.1643710E+006  0.6645040E+02  0.7546771E-02  0.1239362E+00
         21   -1    0    0  501  502  0.00000000000E+00  0.00000000000E+00  0.42307949936E+03  0.42307949936E+03  0.00000000000E+00 0.  1.
          2   -1    0    0  503    0 -0.00000000000E+00 -0.00000000000E+00 -0.32405666888E+03  0.32405666888E+03  0.00000000000E+00 0. -1.
         21    1    1    2  503  502 -0.51508504510E+02 -0.41982489088E+02  0.41701448473E+03  0.42227566341E+03  0.00000000000E+00 0.  1.
          2    1    1    2  501    0  0.51508504510E+02  0.41982489088E+02 -0.31799165426E+03  0.32486050484E+03  0.00000000000E+00 0. -1.
</event>
<event>
 4    1  0.1643710E+006  0.3154142E+02  0.7546771E-02  0.1406658E+00
         -4   -1    0    0    0  501 -0.00000000000E+00  0.00000000000E+00  0.44381882460E+02  0.44381882460E+02  0.00000000000E+00 0. -1.
         21   -1    0    0  503  502  0.00000000000E+00 -0.00000000000E+00 -0.37134413508E+02  0.37134413508E+02  0.00000000000E+00 0. -1.
         21    1    1    2  503  501 -0.42314032002E+01 -0.31256304192E+02 -0.22036323822E+02  0.38476757820E+02  0.00000000000E+00 0. -1.
         -4    1    1    2    0  502  0.42314032002E+01  0.31256304192E+02  0.29283792773E+02  0.43039538148E+02  0.00000000000E+00 0. -1.
</event>
<event>
 4    1  0.1643710E+006  0.2257713E+02  0.7546771E-02  0.1497878E+00
         21   -1    0    0  503  502  0.00000000000E+00  0.00000000000E+00  0.38131410681E+00  0.38131410681E+00  0.00000000000E+00 0.  1.
          2   -1    0    0  502    0 -0.00000000000E+00 -0.00000000000E+00 -0.14676104832E+04  0.14676104832E+04  0.00000000000E+00 0.  1.
         21    1    1    2  503  501 -0.14480187800E+02 -0.17321978360E+02 -0.51445013046E+03  0.51494530147E+03  0.00000000000E+00 0.  1.
          2    1    1    2  501    0  0.14480187800E+02  0.17321978360E+02 -0.95277903860E+03  0.95304649580E+03  0.00000000000E+00 0.  1.
</event>
<event>
 4    1  0.1643710E+006  0.4523998E+02  0.7546771E-02  0.1320244E+00
         -2   -1    0    0    0  501 -0.00000000000E+00  0.00000000000E+00  0.29781924749E+03  0.29781924749E+03  0.00000000000E+00 0. -1.
         21   -1    0    0  501  502  0.00000000000E+00 -0.00000000000E+00 -0.48935215981E+02  0.48935215981E+02  0.00000000000E+00 0.  1.
         21    1    1    2  503  502 -0.43276267087E+02 -0.13184115187E+02 -0.36300889382E+02  0.58003540894E+02  0.00000000000E+00 0.  1.
         -2    1    1    2    0  503  0.43276267087E+02  0.13184115187E+02  0.28518492089E+03  0.28875092258E+03  0.00000000000E+00 0. -1.
</event>
<event>
 4    1  0.1643710E+006  0.2039591E+02  0.7546771E-02  0.1528067E+00
         21   -1    0    0  503  502  0.00000000000E+00  0.00000000000E+00  0.32312746555E+03  0.32312746555E+03  0.00000000000E+00 0. -1.
          3   -1    0    0  502    0 -0.00000000000E+00 -0.00000000000E+00 -0.16801496377E+01  0.16801496377E+01  0.00000000000E+00 0. -1.
         21    1    1    2  503  501  0.20141022784E+02 -0.32143965492E+01  0.23924398485E+03  0.24011180194E+03  0.00000000000E+00 0. -1.
          3    1    1    2  501    0 -0.20141022784E+02  0.32143965492E+01  0.82203331063E+02  0.84695813248E+02  0.00000000000E+00 0. -1.
</event>
<event>
 4    1  0.1643710E+006  0.2681057E+02  0.7546771E-02  0.1449520E+00
          2   -1    0    0  503    0 -0.00000000000E+00  0.00000000000E+00  0.54471854355E+03  0.54471854355E+03  0.00000000000E+00 0.  1.
         21   -1    0    0  501  502  0.00000000000E+00 -0.00000000000E+00 -0.13217489399E+01  0.13217489399E+01  0.00000000000E+00 0. -1.
         21    1    1    2  503  502 -0.79180853117E+01  0.25614657294E+02  0.26067171721E+03  0.26204684867E+03  0.00000000000E+00 0. -1.
          2    1    1    2  501    0  0.79180853117E+01 -0.25614657294E+02  0.28272507740E+03  0.28399344383E+03  0.00000000000E+00 0.  1.
</event>
<event>
 4    1  0.1643710E+006  0.3596116E+02  0.7546771E-02  0.1373929E+00
         21   -1    0    0  503  502  0.00000000000E+00  0.00000000000E+00  0.41708043869E+02  0.41708043869E+02  0.00000000000E+00 0.  1.
          2   -1    0    0  502    0 -0.00000000000E+00 -0.00000000000E+00 -0.17905606464E+03  0.17905606464E+03  0.00000000000E+00 0. -1.
         21    1    1    2  503  501 -0.18048848250E+02  0.31103758335E+02  0.31696949161E+02  0.47936429694E+02  0.00000000000E+00 0.  1.
          2    1    1    2  501    0  0.18048848250E+02 -0.31103758335E+02 -0.16904496993E+03  0.17282767882E+03  0.00000000000E+00 0. -1.
</event>
<event>
 4    1  0.1643710E+006  0.2055901E+02  0.7546771E-02  0.1525655E+00
         21   -1    0    0  503  502  0.00000000000E+00  0.00000000000E+00  0.44401977337E+03  0.44401977337E+03  0.00000000000E+00 0. -1.
         -1   -1    0    0    0  501 -0.00000000000E+00 -0.00000000000E+00 -0.90163364045E+01  0.90163364045E+01  0.00000000000E+00 0.  1.
         21    1    1    2  503  501  0.15335945016E+02  0.13692398438E+02  0.43172868606E+03  0.43221792114E+03  0.00000000000E+00 0. -1.
         -1    1    1    2    0  502 -0.15335945016E+02 -0.13692398438E+02  0.32747509015E+01  0.20818188634E+02  0.00000000000E+00 0.  1.
</event>
<event>
 4    1  0.1643710E+006  0.2901858E+02  0.7546771E-02  0.1428321E+00
         -1   -1    0    0    0  501 -0.00000000000E+00  0.00000000000E+00  0.88886191631E+03  0.88886191631E+03  0.00000000000E+00 0. -1.
         21   -1    0    0  503  502  0.00000000000E+00 -0.00000000000E+00 -0.98718111583E+00  0.98718111583E+00  0.00000000000E+00 0. -1.
         21    1    1    2  503  501  0.11200948420E+02  0.26769696401E+02  0.53329052419E+03  0.53407945203E+03  0.00000000000E+00 0. -1.
         -1    1    1    2    0  502 -0.11200948420E+02 -0.26769696401E+02  0.35458421100E+03  0.35576964539E+03  0.00000000000E+00 0. -1.
</event>
<event>
 4    1  0.1643710E+006  0.2101715E+02  0.7546771E-02  0.1519020E+00
         -1   -1    0    0    0  501 -0.00000000000E+00  0.00000000000E+00  0.37727897377E+02  0.37727897377E+02  0.00000000000E+00 0. -1.
         21   -1    0    0  501  502  0.00000000000E+00 -0.00000000000E+00 -0.48615944398E+02  0.48615944398E+02  0.00000000000E+00 0. -1.
         21    1    1    2  503  502 -0.70518959090E+01 -0.19798772106E+02 -0.43059932871E+02  0.47915325645E+02  0.00000000000E+00 0. -1.
         -1    1    1    2    0  503  0.70518959090E+01  0.19798772106E+02  0.32171885850E+02  0.38428516130E+02  0.00000000000E+00 0. -1.
</event>
<event>
 4    1  0.1643710E+006  0.2415884E+02  0.7546771E-02  0.1478438E+00
         21   -1    0    0  503  502  0.00000000000E+00  0.00000000000E+00  0.22341472719E+03  0.22341472719E+03  0.00000000000E+00 0.  1.
          3   -1    0    0  502    0 -0.00000000000E+00 -0.00000000000E+00 -0.28237727531E+01  0.28237727531E+01  0.00000000000E+00 0.  1.
         21    1    1    2  503  501 -0.17621496553E+02  0.16526721412E+02  0.14124410657E+03  0.14329531501E+03  0.00000000000E+00 0.  1.
          3    1    1    2  501    0  0.17621496553E+02 -0.16526721412E+02  0.79346847864E+02  0.82943184936E+02  0.00000000000E+00 0.  1.
</event>
<event>
 4    1  0.1643710E+006  0.2002965E+02  0.7546771E-02  0.1533583E+00
          2   -1    0    0  503    0 -0.00000000000E+00  0.00000000000E+00  0.87938273880E+03  0.87938273880E+03  0.00000000000E+00 0. -1.
         21   -1    0    0  501  502  0.00000000000E+00 -0.00000000000E+00 -0.11795334332E+02  0.11795334332E+02  0.00000000000E+00 0.  1.
         21    1    1    2  503  502  0.36963990470E+01 -0.19685618730E+02 -0.30932213703E+01  0.20267090792E+02  0.00000000000E+00 0.  1.
          2    1    1    2  501    0 -0.36963990470E+01  0.19685618730E+02  0.87068062583E+03  0.87091098234E+03  0.00000000000E+00 0. -1.
</event>
<event>
 4    1  0.1643710E+006  0.2012267E+02  0.7546771E-02  0.1532169E+00
         -4   -1    0    0    0  501 -0.00000000000E+00  0.00000000000E+00  0.38923920372E+02  0.38923920372E+02  0.00000000000E+00 0.  1.
         21   -1    0    0  503  502  0.00000000000E+00 -0.00000000000E+00 -0.65942433137E+02  0.65942433137E+02  0.00000000000E+00 0. -1.
         21    1    1    2  503  501  0.38339066757E+00 -0.20119019488E+02 -0.61629162482E+02  0.64831131424E+02  0.00000000000E+00 0. -1.
         -4    1    1    2    0  502 -0.38339066757E+00  0.20119019488E+02  0.34610649717E+02  0.40035222085E+02  0.00000000000E+00 0.  1.
</event>
<event>
 4    1  0.1643710E+006  0.2167774E+02  0.7546771E-02  0.1509805E+00
          2   -1    0    0  502    0 -0.00000000000E+00  0.00000000000E+00  0.18178217082E+02  0.18178217082E+02  0.00000000000E+00 0. -1.
         21   -1    0    0  503  502  0.00000000000E+00 -0.00000000000E+00 -0.52068659296E+02  0.52068659296E+02  0.00000000000E+00 0. -1.
         21    1    1    2  503  501 -0.77178302646E+01 -0.20257331594E+02 -0.41868553067E+02  0.47147641757E+02  0.00000000000E+00 0. -1.
          2    1    1    2  501    0  0.77178302646E+01  0.20257331594E+02  0.79781108532E+01  0.23099234621E+02  0.00000000000E+00 0. -1.
</event>
<event>
 4    1  0.1643710E+006  0.2111629E+02  0.7546771E-02  0.1517611E+00
         21   -1    0    0  503  502  0.00000000000E+00  0.00000000000E+00  0.21676881118E+03  0.21676881118E+03  0.00000000000E+00 0. -1.
          2   -1    0    0  502    0 -0.00000000000E+00 -0.00000000000E+00 -0.42539382507E+02  0.42539382507E+02  0.00000000000E+00 0.  1.
         21    1    1    2  503  501  0.11117436830E+01 -0.21087003137E+02  0.21359521641E+03  0.21463646975E+03  0.00000000000E+00 0. -1.
          2    1    1    2  501    0 -0.11117436830E+01  0.21087003137E+02 -0.39365787735E+02  0.44671723935E+02  0.00000000000E+00 0.  1.
</event>
<event>
 4    1  0.1643710E+006  0.2140028E+02  0.7546771E-02  0.1513626E+00
         21   -1    0    0  503  502  0.00000000000E+00  0.00000000000E+00  0.38586170525E+01  0.38586170525E+01  0.00000000000E+00 0. -1.
         -3   -1    0    0    0  501 -0.00000000000E+00 -0.00000000000E+00 -0.24760787003E+03  0.24760787003E+03  0.00000000000E+00 0. -1.
         21    1    1    2  503  501 -0.17098587660E+01  0.21331864819E+02 -0.31149497587E+02  0.37792370574E+02  0.00000000000E+00 0. -1.
         -3    1    1    2    0  502  0.17098587660E+01 -0.21331864819E+02 -0.21259975539E+03  0.21367411651E+03  0.00000000000E+00 0. -1.
</event>
<event>
 4    1  0.1643710E+006  0.2291128E+02  0.7546771E-02  0.1493615E+00
         -2   -1    0    0    0  501 -0.00000000000E+00  0.00000000000E+00  0.15433552121E+02  0.15433552121E+02  0.00000000000E+00 0. -1.
         21   -1    0    0  503  502  0.00000000000E+00 -0.00000000000E+00 -0.59854548622E+02  0.59854548622E+02  0.00000000000E+00 0. -1.
         21    1    1    2  503  501  0.38509449456E+01 -0.22585323708E+02 -0.46945678724E+02  0.52238140997E+02  0.00000000000E+00 0. -1.
         -2    1    1    2    0  502 -0.38509449456E+01  0.22585323708E+02  0.25246822228E+01  0.23049959746E+02  0.00000000000E+00 0. -1.
</event>
<event>
 4    1  0.1643710E+006  0.3781311E+02  0.7546771E-02  0.1361800E+00
         -4   -1    0    0    0  501 -0.00000000000E+00  0.00000000000E+00  0.17904593873E+02  0.17904593873E+02  0.00000000000E+00 0. -1.
         21   -1    0    0  503  502  0.00000000000E+00 -0.00000000000E+00 -0.22770343221E+03  0.22770343221E+03  0.00000000000E+00 0. -1.
         21    1    1    2  503  501  0.12388489717E+02  0.35726132876E+02 -0.20385293252E+03  0.20733029047E+03  0.00000000000E+00 0. -1.
         -4    1    1    2    0  502 -0.12388489717E+02 -0.35726132876E+02 -0.59459058129E+01  0.38277735613E+02  0.00000000000E+00 0. -1.
</event>
<event>
 4    1  0.1643710E+006  0.2483032E+02  0.7546771E-02  0.1470711E+00
         -1   -1    0    0    0  501 -0.00000000000E+00  0.00000000000E+00  0.19880085193E+02  0.19880085193E+02  0.00000000000E+00 0.  1.
         21   -1    0    0  503  502  0.00000000000E+00 -0.00000000000E+00 -0.14293785020E+03  0.14293785020E+03  0.00000000000E+00 0. -1.
         21    1    1    2  503  501  0.13254468420E+02  0.20996763575E+02 -0.13356685845E+03  0.13585525639E+03  0.00000000000E+00 0. -1.
         -1    1    1    2    0  502 -0.13254468420E+02 -0.20996763575E+02  0.10509093445E+02  0.26962678998E+02  0.00000000000E+00 0.  1.
</event>
<event>
 4    1  0.1643710E+006  0.2988012E+02  0.7546771E-02  0.1420641E+00
         21   -1    0    0  501  502  0.00000000000E+00  0.00000000000E+00  0.55061294963E+02  0.55061294963E+02  0.00000000000E+00 0.  1.
          1   -1    0    0  503    0 -0.00000000000E+00 -0.00000000000E+00 -0.32214260174E+02  0.32214260174E+02  0.00000000000E+00 0.  1.
         21    1    1    2  503  502 -0.29323703415E+02  0.57395177470E+01  0.42176540627E+02  0.51688318073E+02  0.00000000000E+00 0.  1.
          1    1    1    2  501    0  0.29323703415E+02 -0.57395177470E+01 -0.19329505838E+02  0.35587237064E+02  0.00000000000E+00 0.  1.
</event>
<event>
 4    1  0.1643710E+006  0.2204679E+02  0.7546771E-02  0.1504827E+00
         21   -1    0    0  501  502  0.00000000000E+00  0.00000000000E+00  0.10813363350E+03  0.10813363350E+03  0.00000000000E+00 0.  1.
          4   -1    0    0  503    0 -0.00000000000E+00 -0.00000000000E+00 -0.65490853814E+02  0.65490853814E+02  0.00000000000E+00 0.  1.
         21    1    1    2  503  502  0.12803788785E+02  0.17947813345E+02  0.10510147570E+03  0.10738892497E+03  0.00000000000E+00 0.  1.
          4    1    1    2  501    0 -0.12803788785E+02 -0.17947813345E+02 -0.62458696016E+02  0.66235562345E+02  0.00000000000E+00 0.  1.
</event>
<event>
 4    1  0.1643710E+006  0.2322214E+02  0.7546771E-02  0.1489727E+00
         21   -1    0    0  503  502  0.00000000000E+00  0.00000000000E+00  0.14520317753E+01  0.14520317753E+01  0.00000000000E+00 0. -1.
          2   -1    0    0  502    0 -0.00000000000E+00 -0.00000000000E+00 -0.62023608519E+03  0.62023608519E+03  0.00000000000E+00 0. -1.
         21    1    1    2  503  501  0.69215418130E+01  0.22166646453E+02 -0.11249881682E+03  0.11487058693E+03  0.00000000000E+00 0. -1.
          2    1    1    2  501    0 -0.69215418130E+01 -0.22166646453E+02 -0.50628523660E+03  0.50681753004E+03  0.00000000000E+00 0. -1.
</event>
<event>
 4    1  0.1643710E+006  0.3572688E+02  0.7546771E-02  0.1375524E+00
         -2   -1    0    0    0  501 -0.00000000000E+00  0.00000000000E+00  0.56916261216E+02  0.56916261216E+02  0.00000000000E+00 0.  1.
         21   -1    0    0  503  502  0.00000000000E+00 -0.00000000000E+00 -0.11375393747E+03  0.11375393747E+03  0.00000000000E+00 0.  1.
         21    1    1    2  503  501  0.35715338676E+02 -0.90805448071E+00 -0.10488090924E+03  0.11079898511E+03  0.00000000000E+00 0.  1.
         -2    1    1    2    0  502 -0.35715338676E+02  0.90805448071E+00  0.48043232981E+02  0.59871213575E+02  0.00000000000E+00 0.  1.
</event>
<event>
 4    1  0.1643710E+006  0.4415437E+02  0.7546771E-02  0.1325722E+00
          2   -1    0    0  503    0 -0.00000000000E+00  0.00000000000E+00  0.22372645718E+03  0.22372645718E+03  0.00000000000E+00 0. -1.
         21   -1    0    0  501  502  0.00000000000E+00 -0.00000000000E+00 -0.87221186090E+01  0.87221186090E+01  0.00000000000E+00 0.  1.
         21    1    1    2  503  502 -0.41684208471E+02  0.14561412035E+02  0.11099336943E+03  0.11945348891E+03  0.00000000000E+00 0.  1.
          2    1    1    2  501    0  0.41684208471E+02 -0.14561412035E+02  0.10401096915E+03  0.11299508688E+03  0.00000000000E+00 0. -1.
</event>
<event>
 4    1  0.1643710E+006  0.3974240E+02  0.7546771E-02  0.1350002E+00
         21   -1    0    0  501  502  0.00000000000E+00  0.00000000000E+00  0.12727862535E+03  0.12727862535E+03  0.00000000000E+00 0. -1.
         -2   -1    0    0    0  501 -0.00000000000E+00 -0.00000000000E+00 -0.37340472076E+02  0.37340472076E+02  0.00000000000E+00 0.  1.
         21    1    1    2  503  502  0.38581752629E+02  0.95345045566E+01  0.11222496505E+03  0.11905419435E+03  0.00000000000E+00 0. -1.
         -2    1    1    2    0  503 -0.38581752629E+02 -0.95345045566E+01 -0.22286811774E+02  0.45564903073E+02  0.00000000000E+00 0.  1.
</event>
<event>
 4    1  0.1643710E+006  0.2068129E+02  0.7546771E-02  0.1523864E+00
         21   -1    0    0  503  502  0.00000000000E+00  0.00000000000E+00  0.71327885197E+01  0.71327885197E+01  0.00000000000E+00 0.  1.
          2   -1    0    0  502    0 -0.00000000000E+00 -0.00000000000E+00 -0.19887503376E+03  0.19887503376E+03  0.00000000000E+00 0.  1.
         21    1    1    2  503  501  0.15743897696E+01  0.20621279974E+02 -0.97854693989E+01  0.22879495237E+02  0.00000000000E+00 0.  1.
          2    1    1    2  501    0 -0.15743897696E+01 -0.20621279974E+02 -0.18195677584E+03  0.18312832704E+03  0.00000000000E+00 0.  1.
</event>
<event>
 4    1  0.1643710E+006  0.2600402E+02  0.7546771E-02  0.1457878E+00
         21   -1    0    0  503  502  0.00000000000E+00  0.00000000000E+00  0.63319966776E+01  0.63319966776E+01  0.00000000000E+00 0. -1.
         -4   -1    0    0    0  501 -0.00000000000E+00 -0.00000000000E+00 -0.44292522028E+03  0.44292522028E+03  0.00000000000E+00 0. -1.
         21    1    1    2  503  501  0.25255712107E+02  0.61933882009E+01 -0.22612606620E+02  0.34460688176E+02  0.00000000000E+00 0. -1.
         -4    1    1    2    0  502 -0.25255712107E+02 -0.61933882009E+01 -0.41398061698E+03  0.41479652878E+03  0.00000000000E+00 0. -1.
</event>
<event>
 4    1  0.1643710E+006  0.3064411E+02  0.7546771E-02  0.1414080E+00
         -1   -1    0    0    0  501 -0.00000000000E+00  0.00000000000E+00  0.76095087555E+01  0.76095087555E+01  0.00000000000E+00 0.  1.
         21   -1    0    0  501  502  0.00000000000E+00 -0.00000000000E+00 -0.16545180331E+03  0.16545180331E+03  0.00000000000E+00 0. -1.
         21    1    1    2  503  502  0.27774367875E+02  0.12947822390E+02 -0.12254196687E+03  0.12631545931E+03  0.00000000000E+00 0. -1.
         -1    1    1    2    0  503 -0.27774367875E+02 -0.12947822390E+02 -0.35300327683E+02  0.46745852757E+02  0.00000000000E+00 0.  1.
</event>
<event>
 4    1  0.1643710E+006  0.2237297E+02  0.7546771E-02  0.1500526E+00
         21   -1    0    0  501  502  0.00000000000E+00  0.00000000000E+00  0.67383862452E+01  0.67383862452E+01  0.00000000000E+00 0. -1.
         -1   -1    0    0    0  501 -0.00000000000E+00 -0.00000000000E+00 -0.74595276425E+02  0.74595276425E+02  0.00000000000E+00 0. -1.
         21    1    1    2  503  502 -0.89499047955E+01  0.20504847954E+02 -0.36558371823E+02  0.42860986174E+02  0.00000000000E+00 0. -1.
         -1    1    1    2    0  503  0.89499047955E+01 -0.20504847954E+02 -0.31298518357E+02  0.38472676496E+02  0.00000000000E+00 0. -1.
</event>
<event>
 4    1  0.1643710E+006  0.2388496E+02  0.7546771E-02  0.1481675E+00
          2   -1    0    0  503    0 -0.00000000000E+00  0.00000000000E+00  0.79484710100E+02  0.79484710100E+02  0.00000000000E+00 0. -1.
         21   -1    0    0  501  502  0.00000000000E+00 -0.00000000000E+00 -0.12318182539E+03  0.12318182539E+03  0.00000000000E+00 0.  1.
         21    1    1    2  503  502  0.16669034654E+01  0.23826723109E+02 -0.12018535541E+03  0.12253575378E+03  0.00000000000E+00 0.  1.
          2    1    1    2  501    0 -0.16669034654E+01 -0.23826723109E+02  0.76488240115E+02  0.80130781708E+02  0.00000000000E+00 0. -1.
</event>
<event>
 4    1  0.1643710E+006  0.4017901E+02  0.7546771E-02  0.1347440E+00
          1   -1    0    0  502    0 -0.00000000000E+00  0.00000000000E+00  0.29518429418E+02  0.29518429418E+02  0.00000000000E+00 0.  1.
         21   -1    0    0  503  502  0.00000000000E+00 -0.00000000000E+00 -0.46727592810E+03  0.46727592810E+03  0.00000000000E+00 0. -1.
         21    1    1    2  503  501  0.17772445486E+02  0.36034606210E+02 -0.45228761228E+03  0.45406875788E+03  0.00000000000E+00 0. -1.
          1    1    1    2  501    0 -0.17772445486E+02 -0.36034606210E+02  0.14530113596E+02  0.42725599637E+02  0.00000000000E+00 0.  1.
</event>
<event>
 4    1  0.1643710E+006  0.2100436E+02  0.7546771E-02  0.1519202E+00
          4   -1    0    0  503    0 -0.00000000000E+00  0.00000000000E+00  0.11209035732E+02  0.11209035732E+02  0.00000000000E+00 0.  1.
         21   -1    0    0  501  502  0.00000000000E+00 -0.00000000000E+00 -0.49399943672E+02  0.49399943672E+02  0.00000000000E+00 0. -1.
         21    1    1    2  503  502  0.20675924107E+02  0.36999250756E+01 -0.32757564840E+02  0.38913254008E+02  0.00000000000E+00 0. -1.
          4    1    1    2  501    0 -0.20675924107E+02 -0.36999250756E+01 -0.54333431002E+01  0.21695725396E+02  0.00000000000E+00 0.  1.
</event>
<event>
 4    1  0.1643710E+006  0.2168479E+02  0.7546771E-02  0.1509708E+00
         21   -1    0    0  503  502  0.00000000000E+00  0.00000000000E+00  0.39859472130E+03  0.39859472130E+03  0.00000000000E+00 0.  1.
         -2   -1    0    0    0  501 -0.00000000000E+00 -0.00000000000E+00 -0.72975326994E+01  0.72975326994E+01  0.00000000000E+00 0. -1.
         21    1    1    2  503  501 -0.12222484285E+02 -0.17912030524E+02  0.38146790702E+03  0.38208375266E+03  0.00000000000E+00 0.  1.
         -2    1    1    2    0  502  0.12222484285E+02  0.17912030524E+02  0.98292815773E+01  0.23808501337E+02  0.00000000000E+00 0. -1.
</event>
<event>
 4    1  0.1643710E+006  0.3299802E+02  0.7546771E-02  0.1395212E+00
         21   -1    0    0  503  502  0.00000000000E+00  0.00000000000E+00  0.35669509432E+03  0.35669509432E+03  0.00000000000E+00 0.  1.
         -4   -1    0    0    0  501 -0.00000000000E+00 -0.00000000000E+00 -0.16985276054E+03  0.16985276054E+03  0.00000000000E+00 0. -1.
         21    1    1    2  503  501  0.23478381732E+02 -0.23186960043E+02  0.35431853551E+03  0.35585178675E+03  0.00000000000E+00 0.  1.
         -4    1    1    2    0  502 -0.23478381732E+02  0.23186960043E+02 -0.16747620173E+03  0.17069606812E+03  0.00000000000E+00 0. -1.
</event>
<event>
 4    1  0.1643710E+006  0.2427696E+02  0.7546771E-02  0.1477057E+00
          1   -1    0    0  503    0 -0.00000000000E+00  0.00000000000E+00  0.12576566263E+03  0.12576566263E+03  0.00000000000E+00 0. -1.
         21   -1    0    0  501  502  0.00000000000E+00 -0.00000000000E+00 -0.44381994178E+02  0.44381994178E+02  0.00000000000E+00 0.  1.
         21    1    1    2  503  502  0.21737321547E+02 -0.10810153996E+02 -0.39765287291E+02  0.46590220548E+02  0.00000000000E+00 0.  1.
          1    1    1    2  501    0 -0.21737321547E+02  0.10810153996E+02  0.12114895574E+03  0.12355743626E+03  0.00000000000E+00 0. -1.
</event>
<event>
 4    1  0.1643710E+006  0.2138757E+02  0.7546771E-02  0.1513803E+00
         21   -1    0    0  503  502  0.00000000000E+00  0.00000000000E+00  0.98676992241E+02  0.98676992241E+02  0.00000000000E+00 0.  1.
          2   -1    0    0  502    0 -0.00000000000E+00 -0.00000000000E+00 -0.15177532048E+04  0.15177532048E+04  0.00000000000E+00 0. -1.
         21    1    1    2  503  501 -0.20253776275E+02  0.68711496964E+01  0.97441799351E+02  0.99761377357E+02  0.00000000000E+00 0.  1.
          2    1    1    2  501    0  0.20253776275E+02 -0.68711496964E+01 -0.15165180119E+04  0.15166688197E+04  0.00000000000E+00 0. -1.
</event>
<event>
 4    1  0.1643710E+006  0.3297501E+02  0.7546771E-02  0.1395387E+00
          2   -1    0    0  503    0 -0.00000000000E+00  0.00000000000E+00  0.14535559933E+04  0.14535559933E+04  0.00000000000E+00 0.  1.
         21   -1    0    0  501  502  0.00000000000E+00 -0.00000000000E+00 -0.30981412653E+03  0.30981412653E+03  0.00000000000E+00 0.  1.
         21    1    1    2  503  502  0.17981348716E+02 -0.27640955061E+02 -0.30874904519E+03  0.31050495037E+03  0.00000000000E+00 0.  1.
          2    1    1    2  501    0 -0.17981348716E+02  0.27640955061E+02  0.14524909120E+04  0.14528651695E+04  0.00000000000E+00 0.  1.
</event>
<event>
 4    1  0.1643710E+006  0.2665525E+02  0.7546771E-02  0.1451102E+00
         21   -1    0    0  501  502  0.00000000000E+00  0.00000000000E+00  0.22708011428E+02  0.22708011428E+02  0.00000000000E+00 0.  1.
          1   -1    0    0  503    0 -0.00000000000E+00 -0.00000000000E+00 -0.51394938136E+03  0.51394938136E+03  0.00000000000E+00 0.  1.
         21    1    1    2  503  502  0.53453836635E+00 -0.26649885107E+02  0.14412004820E+02  0.30301946974E+02  0.00000000000E+00 0.  1.
          1    1    1    2  501    0 -0.53453836635E+00  0.26649885107E+02 -0.50565337475E+03  0.50635544581E+03  0.00000000000E+00 0.  1.
</event>
<event>
 4    1  0.1643710E+006  0.4701426E+02  0.7546771E-02  0.1311664E+00
         21   -1    0    0  501  502  0.00000000000E+00  0.00000000000E+00  0.25641950177E+03  0.25641950177E+03  0.00000000000E+00 0. -1.
          1   -1    0    0  503    0 -0.00000000000E+00 -0.00000000000E+00 -0.92030423502E+02  0.92030423502E+02  0.00000000000E+00 0. -1.
         21    1    1    2  503  502 -0.23211955458E+01  0.46956920055E+02  0.24805955340E+03  0.25247550837E+03  0.00000000000E+00 0. -1.
          1    1    1    2  501    0  0.23211955458E+01 -0.46956920055E+02 -0.83670475139E+02  0.95974416903E+02  0.00000000000E+00 0. -1.
</event>
<event>
 4    1  0.1643710E+006  0.3440383E+02  0.7546771E-02  0.1384804E+00
         21   -1    0    0  501  502  0.00000000000E+00  0.00000000000E+00  0.28701450905E+02  0.28701450905E+02  0.00000000000E+00 0.  1.
          4   -1    0    0  503    0 -0.00000000000E+00 -0.00000000000E+00 -0.23914075933E+03  0.23914075933E+03  0.00000000000E+00 0. -1.
         21    1    1    2  503  502 -0.63034365327E+01 -0.33821443772E+02  0.16608282230E+02  0.38202858657E+02  0.00000000000E+00 0.  1.
          4    1    1    2  501    0  0.63034365327E+01  0.33821443772E+02 -0.22704759065E+03  0.22963935157E+03  0.00000000000E+00 0. -1.
</event>
<event>
 4    1  0.1643710E+006  0.2586242E+02  0.7546771E-02  0.1459383E+00
         21   -1    0    0  501  502  0.00000000000E+00  0.00000000000E+00  0.42650038627E+03  0.42650038627E+03  0.00000000000E+00 0.  1.
         -4   -1    0    0    0  501 -0.00000000000E+00 -0.00000000000E+00 -0.96066850931E+02  0.96066850931E+02  0.00000000000E+00 0.  1.
         21    1    1    2  503  502  0.24037818153E+02 -0.95418992106E+01  0.42435892237E+03  0.42514628016E+03  0.00000000000E+00 0.  1.
         -4    1    1    2    0  503 -0.24037818153E+02  0.95418992106E+01 -0.93925387029E+02  0.97420957040E+02  0.00000000000E+00 0.  1.
</event>
<event>
 4    1  0.1643710E+006  0.2824780E+02  0.7546771E-02  0.1435461E+00
          2   -1    0    0  503    0 -0.00000000000E+00  0.00000000000E+00  0.14609272355E+04  0.14609272355E+04  0.00000000000E+00 0. -1.
         21   -1    0    0  501  502  0.00000000000E+00 -0.00000000000E+00 -0.44362357434E+02  0.44362357434E+02  0.00000000000E+00 0. -1.
         21    1    1    2  503  502 -0.17613953691E+02 -0.22083633616E+02 -0.39714753528E+02  0.48736022469E+02  0.00000000000E+00 0. -1.
          2    1    1    2  501    0  0.17613953691E+02  0.22083633616E+02  0.14562796316E+04  0.14565535705E+04  0.00000000000E+00 0. -1.
</event>
<event>
 4    1  0.1643710E+006  0.2155299E+02  0.7546771E-02  0.1511514E+00
         21   -1    0    0  501  502  0.00000000000E+00  0.00000000000E+00  0.89966672687E+02  0.89966672687E+02  0.00000000000E+00 0. -1.
          3   -1    0    0  503    0 -0.00000000000E+00 -0.00000000000E+00 -0.79334606351E+01  0.79334606351E+01  0.00000000000E+00 0.  1.
         21    1    1    2  503  502 -0.59933765948E+00  0.21544655166E+02  0.69941302355E+02  0.73186864579E+02  0.00000000000E+00 0. -1.
          3    1    1    2  501    0  0.59933765948E+00 -0.21544655166E+02  0.12091909697E+02  0.24713268743E+02  0.00000000000E+00 0.  1.
</event>
<event>
 4    1  0.1643710E+006  0.2383964E+02  0.7546771E-02  0.1482216E+00
          2   -1    0    0  503    0 -0.00000000000E+00  0.00000000000E+00  0.15076809643E+04  0.15076809643E+04  0.00000000000E+00 0.  1.
         21   -1    0    0  501  502  0.00000000000E+00 -0.00000000000E+00 -0.59754843027E+00  0.59754843027E+00  0.00000000000E+00 0.  1.
         21    1    1    2  503  502  0.18233722449E+02  0.15357728349E+02  0.29533556835E+03  0.29629618017E+03  0.00000000000E+00 0.  1.
          2    1    1    2  501    0 -0.18233722449E+02 -0.15357728349E+02  0.12117478475E+04  0.12119823325E+04  0.00000000000E+00 0.  1.
</event>
<event>
 4    1  0.1643710E+006  0.2011452E+02  0.7546771E-02  0.1532292E+00
         21   -1    0    0  501  502  0.00000000000E+00  0.00000000000E+00  0.27367403787E+02  0.27367403787E+02  0.00000000000E+00 0. -1.
          1   -1    0    0  503    0 -0.00000000000E+00 -0.00000000000E+00 -0.21721692807E+03  0.21721692807E+03  0.00000000000E+00 0. -1.
         21    1    1    2  503  502  0.19098780921E+02 -0.63111499836E+01  0.23132471675E+02  0.30654612909E+02  0.00000000000E+00 0. -1.
          1    1    1    2  501    0 -0.19098780921E+02  0.63111499836E+01 -0.21298199596E+03  0.21392971895E+03  0.00000000000E+00 0. -1.
</event>
<event>
 4    1  0.1643710E+006  0.2352053E+02  0.7546771E-02  0.1486063E+00
         21   -1    0    0  501  502  0.00000000000E+00  0.00000000000E+00  0.37222836913E+02  0.37222836913E+02  0.00000000000E+00 0. -1.
         -1   -1    0    0    0  501 -0.00000000000E+00 -0.00000000000E+00 -0.22552621561E+02  0.22552621561E+02  0.00000000000E+00 0. -1.
         21    1    1    2  503  502 -0.20160846988E+02 -0.12114271459E+02  0.24788019779E+02  0.34171058644E+02  0.00000000000E+00 0. -1.
         -1    1    1    2    0  503  0.20160846988E+02  0.12114271459E+02 -0.10117804427E+02  0.25604399831E+02  0.00000000000E+00 0. -1.
</event>
<event>
 4    1  0.1643710E+006  0.2655219E+02  0.7546771E-02  0.1452159E+00
         21   -1    0    0  503  502  0.00000000000E+00  0.00000000000E+00  0.46802927275E+03  0.46802927275E+03  0.00000000000E+00 0. -1.
         -3   -1    0    0    0  501 -0.00000000000E+00 -0.00000000000E+00 -0.89360705353E+01  0.89360705353E+01  0.00000000000E+00 0. -1.
         21    1    1    2  503  501 -0.22938539854E+02 -0.13373192932E+02  0.44700169514E+03  0.44778960947E+03  0.00000000000E+00 0. -1.
         -3    1    1    2    0  502  0.22938539854E+02  0.13373192932E+02  0.12091507077E+02  0.29175733808E+02  0.00000000000E+00 0. -1.
</event>
<event>
 4    1  0.1643710E+006  0.2364686E+02  0.7546771E-02  0.1484531E+00
         -1   -1    0    0    0  501 -0.00000000000E+00  0.00000000000E+00  0.85396145987E+02  0.85396145987E+02  0.00000000000E+00 0.  1.
         21   -1    0    0  503  502  0.00000000000E+00 -0.00000000000E+00 -0.68058360993E+01  0.68058360993E+01  0.00000000000E+00 0.  1.
         21    1    1    2  503  501 -0.18195548408E+02  0.15102850831E+02  0.30322102941E+02  0.38452620351E+02  0.00000000000E+00 0.  1.
         -1    1    1    2    0  502  0.18195548408E+02 -0.15102850831E+02  0.48268206946E+02  0.53749361735E+02  0.00000000000E+00 0.  1.
</event>
<event>
 4    1  0.1643710E+006  0.2400390E+02  0.7546771E-02  0.1480263E+00
         21   -1    0    0  503  502  0.00000000000E+00  0.00000000000E+00  0.31765483442E+02  0.31765483442E+02  0.00000000000E+00 0.  1.
          2   -1    0    0  502    0 -0.00000000000E+00 -0.00000000000E+00 -0.61045204275E+02  0.61045204275E+02  0.00000000000E+00 0. -1.
         21    1    1    2  503  501 -0.42371469444E+01  0.23626974564E+02  0.24264953728E+02  0.34131734803E+02  0.00000000000E+00 0.  1.
          2    1    1    2  501    0  0.42371469444E+01 -0.23626974564E+02 -0.53544674560E+02  0.58678952914E+02  0.00000000000E+00 0. -1.
</event>
<event>
 4    1  0.1643710E+006  0.3276094E+02  0.7546771E-02  0.1397027E+00
          2   -1    0    0  503    0 -0.00000000000E+00  0.00000000000E+00  0.27176510213E+04  0.27176510213E+04  0.00000000000E+00 0. -1.
         21   -1    0    0  501  502  0.00000000000E+00 -0.00000000000E+00 -0.85747967965E+00  0.85747967965E+00  0.00000000000E+00 0. -1.
         21    1    1    2  503  502  0.32452528934E+02  0.44846712462E+01  0.36007971018E+03  0.36156697387E+03  0.00000000000E+00 0. -1.
          2    1    1    2  501    0 -0.32452528934E+02 -0.44846712462E+01  0.23567138314E+04  0.23569415271E+04  0.00000000000E+00 0. -1.
</event>
<event>
 4    1  0.1643710E+006  0.2098309E+02  0.7546771E-02  0.1519506E+00
         21   -1    0    0  503  502  0.00000000000E+00  0.00000000000E+00  0.15136080898E+03  0.15136080898E+03  0.00000000000E+00 0. -1.
         -4   -1    0    0    0  501 -0.00000000000E+00 -0.00000000000E+00 -0.40792386344E+01  0.40792386344E+01  0.00000000000E+00 0.  1.
         21    1    1    2  503  501  0.17689684657E+02 -0.11285620928E+02  0.11527047292E+03  0.11716472212E+03  0.00000000000E+00 0. -1.
         -4    1    1    2    0  502 -0.17689684657E+02  0.11285620928E+02  0.32011097421E+02  0.38275325487E+02  0.00000000000E+00 0.  1.
</event>
<event>
 4    1  0.1643710E+006  0.2830367E+02  0.7546771E-02  0.1434934E+00
          2   -1    0    0  503    0 -0.00000000000E+00  0.00000000000E+00  0.13423781764E+04  0.13423781764E+04  0.00000000000E+00 0. -1.
         21   -1    0    0  501  502  0.00000000000E+00 -0.00000000000E+00 -0.17261150795E+01  0.17261150795E+01  0.00000000000E+00 0. -1.
         21    1    1    2  503  502 -0.11475406781E+02  0.25873010466E+02  0.12672473351E+03  0.12984704739E+03  0.00000000000E+00 0. -1.
          2    1    1    2  501    0  0.11475406781E+02 -0.25873010466E+02  0.12139273278E+04  0.12142572441E+04  0.00000000000E+00 0. -1.
</event>
<event>
 4    1  0.1643710E+006  0.2193941E+02  0.7546771E-02  0.1506263E+00
         21   -1    0    0  503  502  0.00000000000E+00  0.00000000000E+00  0.15158257592E+03  0.15158257592E+03  0.00000000000E+00 0.  1.
         -2   -1    0    0    0  501 -0.00000000000E+00 -0.00000000000E+00 -0.11192237017E+02  0.11192237017E+02  0.00000000000E+00 0.  1.
         21    1    1    2  503  501  0.18172673625E+02  0.12291933101E+02  0.13907623597E+03  0.14079608338E+03  0.00000000000E+00 0.  1.
         -2    1    1    2    0  502 -0.18172673625E+02 -0.12291933101E+02  0.13141029325E+01  0.21978729548E+02  0.00000000000E+00 0.  1.
</event>
