<event>
 4    1  0.1762646E+004  0.2633144E+02  0.7546771E-02  0.1454442E+00
         21   -1    0    0  503  502  0.00000000000E+00  0.00000000000E+00  0.18332749801E+02  0.18332749801E+02  0.00000000000E+00 0.  1.
         21   -1    0    0  501  503 -0.00000000000E+00 -0.00000000000E+00 -0.42944038558E+02  0.42944038558E+02  0.00000000000E+00 0. -1.
          2    1    1    2  501    0  0.26232464438E+02 -0.22809210260E+01 -0.22888924809E+02  0.34889076659E+02  0.00000000000E+00 0.  1.
         -2    1    1    2    0  502 -0.26232464438E+02  0.22809210260E+01 -0.17223639483E+01  0.26387711700E+02  0.00000000000E+00 0. -1.
</event>
<event>
 4    1  0.1762646E+004  0.2599166E+02  0.7546771E-02  0.1458009E+00
         21   -1    0    0  503  502  0.00000000000E+00  0.00000000000E+00  0.17934803008E+03  0.17934803008E+03  0.00000000000E+00 0. -1.
         21   -1    0    0  501  503 -0.00000000000E+00 -0.00000000000E+00 -0.47857121520E+01  0.47857121520E+01  0.00000000000E+00 0.  1.
          2    1    1    2  501    0 -0.72384391471E+01 -0.24963399171E+02  0.44799577229E+02  0.51793517156E+02  0.00000000000E+00 0.  1.
         -2    1    1    2    0  502  0.72384391471E+01  0.24963399171E+02  0.12976274070E+03  0.13234022507E+03  0.00000000000E+00 0. -1.
</event>
<event>
 4    1  0.1762646E+004  0.2142481E+02  0.7546771E-02  0.1513285E+00
         21   -1    0    0  503  502  0.00000000000E+00  0.00000000000E+00  0.65026588359E+02  0.65026588359E+02  0.00000000000E+00 0.  1.
         21   -1    0    0  501  503 -0.00000000000E+00 -0.00000000000E+00 -0.80261533477E+01  0.80261533477E+01  0.00000000000E+00 0. -1.
          2    1    1    2  501    0 -0.44326226612E-01 -0.21424764276E+02  0.15820746016E+02  0.26633033878E+02  0.00000000000E+00 0. -1.
         -2    1    1    2    0  502  0.44326226612E-01  0.21424764276E+02  0.41179688995E+02  0.46419707828E+02  0.00000000000E+00 0.  1.
</event>
<event>
 4    1  0.1762646E+004  0.2210177E+02  0.7546771E-02  0.1504096E+00
         21   -1    0    0  501  502  0.00000000000E+00  0.00000000000E+00  0.21481338476E+03  0.21481338476E+03  0.00000000000E+00 0.  1.
         21   -1    0    0  502  503 -0.00000000000E+00 -0.00000000000E+00 -0.47861501179E+01  0.47861501179E+01  0.00000000000E+00 0. -1.
          2    1    1    2  501    0 -0.14444040308E+02 -0.16728959458E+02  0.18456174284E+03  0.18588040592E+03  0.00000000000E+00 0.  1.
         -2    1    1    2    0  503  0.14444040308E+02  0.16728959458E+02  0.25465491804E+02  0.33719128959E+02  0.00000000000E+00 0. -1.
</event>
<event>
 4    1  0.1762646E+004  0.2321847E+02  0.7546771E-02  0.1489773E+00
         21   -1    0    0  501  502  0.00000000000E+00  0.00000000000E+00  0.85759355611E+03  0.85759355611E+03  0.00000000000E+00 0.  1.
         21   -1    0    0  502  503 -0.00000000000E+00 -0.00000000000E+00 -0.67821871775E+00  0.67821871775E+00  0.00000000000E+00 0. -1.
          2    1    1    2  501    0 -0.13640624791E+02  0.18789117384E+02  0.31240372615E+03  0.31326535986E+03  0.00000000000E+00 0.  1.
         -2    1    1    2    0  503  0.13640624791E+02 -0.18789117384E+02  0.54451161124E+03  0.54500641496E+03  0.00000000000E+00 0. -1.
</event>
<event>
 4    1  0.1762646E+004  0.2421316E+02  0.7546771E-02  0.1477802E+00
         21   -1    0    0  503  502  0.00000000000E+00  0.00000000000E+00  0.22374410129E+02  0.22374410129E+02  0.00000000000E+00 0.  1.
         21   -1    0    0  501  503 -0.00000000000E+00 -0.00000000000E+00 -0.37105182924E+02  0.37105182924E+02  0.00000000000E+00 0. -1.
          2    1    1    2  501    0 -0.21136303747E+02  0.11812444690E+02 -0.23485829549E+02  0.33732200866E+02  0.00000000000E+00 0. -1.
         -2    1    1    2    0  502  0.21136303747E+02 -0.11812444690E+02  0.87550567540E+01  0.25747392187E+02  0.00000000000E+00 0.  1.
</event>
<event>
 4    1  0.1762646E+004  0.2365234E+02  0.7546771E-02  0.1484465E+00
         21   -1    0    0  503  502  0.00000000000E+00  0.00000000000E+00  0.26720814619E+02  0.26720814619E+02  0.00000000000E+00 0.  1.
         21   -1    0    0  501  503 -0.00000000000E+00 -0.00000000000E+00 -0.47997180192E+02  0.47997180192E+02  0.00000000000E+00 0. -1.
          2    1    1    2  501    0  0.17970161058E+02 -0.15378765439E+02 -0.38689862628E+02  0.45346869628E+02  0.00000000000E+00 0. -1.
         -2    1    1    2    0  502 -0.17970161058E+02  0.15378765439E+02  0.17413497054E+02  0.29371125184E+02  0.00000000000E+00 0.  1.
</event>
<event>
 4    1  0.1762646E+004  0.2315366E+02  0.7546771E-02  0.1490578E+00
         21   -1    0    0  501  502  0.00000000000E+00  0.00000000000E+00  0.89650673334E+02  0.89650673334E+02  0.00000000000E+00 0.  1.
         21   -1    0    0  502  503 -0.00000000000E+00 -0.00000000000E+00 -0.16806786842E+02  0.16806786842E+02  0.00000000000E+00 0. -1.
          2    1    1    2  501    0 -0.12223439036E+02 -0.19664164061E+02  0.79144560590E+02  0.82461829237E+02  0.00000000000E+00 0.  1.
         -2    1    1    2    0  503  0.12223439036E+02  0.19664164061E+02 -0.63006740979E+01  0.23995630939E+02  0.00000000000E+00 0. -1.
</event>
<event>
 4    1  0.1762646E+004  0.2023225E+02  0.7546771E-02  0.1530515E+00
         21   -1    0    0  501  502  0.00000000000E+00  0.00000000000E+00  0.32310472128E+02  0.32310472128E+02  0.00000000000E+00 0. -1.
         21   -1    0    0  502  503 -0.00000000000E+00 -0.00000000000E+00 -0.14424197139E+02  0.14424197139E+02  0.00000000000E+00 0.  1.
          2    1    1    2  501    0 -0.16411052475E+02  0.11833059869E+02  0.79203350443E+00  0.20247747189E+02  0.00000000000E+00 0.  1.
         -2    1    1    2    0  503  0.16411052475E+02 -0.11833059869E+02  0.17094241485E+02  0.26486922078E+02  0.00000000000E+00 0. -1.
</event>
<event>
 4    1  0.1762646E+004  0.2771275E+02  0.7546771E-02  0.1440577E+00
         21   -1    0    0  501  502  0.00000000000E+00  0.00000000000E+00  0.26212205000E+03  0.26212205000E+03  0.00000000000E+00 0. -1.
         21   -1    0    0  502  503 -0.00000000000E+00 -0.00000000000E+00 -0.69710406976E+01  0.69710406976E+01  0.00000000000E+00 0.  1.
          2    1    1    2  501    0 -0.74876078884E+01 -0.26682060430E+02  0.23001670445E+03  0.23168012635E+03  0.00000000000E+00 0. -1.
         -2    1    1    2    0  503  0.74876078884E+01  0.26682060430E+02  0.25134304853E+02  0.37412964346E+02  0.00000000000E+00 0.  1.
</event>
<event>
 4    1  0.1762646E+004  0.3564709E+02  0.7546771E-02  0.1376070E+00
         21   -1    0    0  501  502  0.00000000000E+00  0.00000000000E+00  0.43394179609E+01  0.43394179609E+01  0.00000000000E+00 0.  1.
         21   -1    0    0  502  503 -0.00000000000E+00 -0.00000000000E+00 -0.29614902768E+03  0.29614902768E+03  0.00000000000E+00 0. -1.
          2    1    1    2  501    0 -0.35260011299E+02 -0.52389216667E+01 -0.13000089885E+03  0.13479966023E+03  0.00000000000E+00 0. -1.
         -2    1    1    2    0  503  0.35260011299E+02  0.52389216667E+01 -0.16180871087E+03  0.16568878541E+03  0.00000000000E+00 0.  1.
</event>
<event>
 4    1  0.1762646E+004  0.3418402E+02  0.7546771E-02  0.1386392E+00
         21   -1    0    0  503  502  0.00000000000E+00  0.00000000000E+00  0.14206822786E+03  0.14206822786E+03  0.00000000000E+00 0.  1.
         21   -1    0    0  501  503 -0.00000000000E+00 -0.00000000000E+00 -0.37166026790E+02  0.37166026790E+02  0.00000000000E+00 0. -1.
          2    1    1    2  501    0 -0.27597787979E+01  0.34072435311E+02 -0.26630056391E+02  0.43332518164E+02  0.00000000000E+00 0. -1.
         -2    1    1    2    0  502  0.27597787979E+01 -0.34072435311E+02  0.13153225747E+03  0.13590173649E+03  0.00000000000E+00 0.  1.
</event>
<event>
 4    1  0.1762646E+004  0.2956828E+02  0.7546771E-02  0.1423386E+00
         21   -1    0    0  503  502  0.00000000000E+00  0.00000000000E+00  0.28598133435E+03  0.28598133435E+03  0.00000000000E+00 0.  1.
         21   -1    0    0  501  503 -0.00000000000E+00 -0.00000000000E+00 -0.66844899626E+01  0.66844899626E+01  0.00000000000E+00 0. -1.
          2    1    1    2  501    0  0.39582202388E+00  0.29565631105E+02  0.31852340499E+02  0.43460957341E+02  0.00000000000E+00 0. -1.
         -2    1    1    2    0  502 -0.39582202388E+00 -0.29565631105E+02  0.24744450389E+03  0.24920486697E+03  0.00000000000E+00 0.  1.
</event>
<event>
 4    1  0.1762646E+004  0.2147041E+02  0.7546771E-02  0.1512653E+00
         21   -1    0    0  503  502  0.00000000000E+00  0.00000000000E+00  0.14129151321E+03  0.14129151321E+03  0.00000000000E+00 0.  1.
         21   -1    0    0  501  503 -0.00000000000E+00 -0.00000000000E+00 -0.40780832324E+01  0.40780832324E+01  0.00000000000E+00 0. -1.
          2    1    1    2  501    0 -0.11787213951E+02  0.17945477719E+02  0.36103869547E+02  0.42005570816E+02  0.00000000000E+00 0. -1.
         -2    1    1    2    0  502  0.11787213951E+02 -0.17945477719E+02  0.10110956043E+03  0.10336402562E+03  0.00000000000E+00 0.  1.
</event>
<event>
 4    1  0.1762646E+004  0.4174361E+02  0.7546771E-02  0.1338560E+00
         21   -1    0    0  503  502  0.00000000000E+00  0.00000000000E+00  0.49068114028E+03  0.49068114028E+03  0.00000000000E+00 0. -1.
         21   -1    0    0  501  503 -0.00000000000E+00 -0.00000000000E+00 -0.50295741723E+01  0.50295741723E+01  0.00000000000E+00 0.  1.
          2    1    1    2  501    0  0.20799911199E+02 -0.36192443132E+02  0.10845087332E+03  0.11620723372E+03  0.00000000000E+00 0.  1.
         -2    1    1    2    0  502 -0.20799911199E+02  0.36192443132E+02  0.37720069279E+03  0.37950348073E+03  0.00000000000E+00 0. -1.
</event>
<event>
 4    1  0.1762646E+004  0.2482563E+02  0.7546771E-02  0.1470764E+00
         21   -1    0    0  503  502  0.00000000000E+00  0.00000000000E+00  0.17357440015E+02  0.17357440015E+02  0.00000000000E+00 0. -1.
         21   -1    0    0  501  503 -0.00000000000E+00 -0.00000000000E+00 -0.35539025706E+02  0.35539025706E+02  0.00000000000E+00 0.  1.
          2    1    1    2  501    0 -0.21606035430E+02  0.12226655936E+02 -0.82977427974E+01  0.26175645511E+02  0.00000000000E+00 0. -1.
         -2    1    1    2    0  502  0.21606035430E+02 -0.12226655936E+02 -0.98838428932E+01  0.26720820210E+02  0.00000000000E+00 0.  1.
</event>
<event>
 4    1  0.1762646E+004  0.2109906E+02  0.7546771E-02  0.1517855E+00
         21   -1    0    0  503  502  0.00000000000E+00  0.00000000000E+00  0.93521997009E+02  0.93521997009E+02  0.00000000000E+00 0. -1.
         21   -1    0    0  501  503 -0.00000000000E+00 -0.00000000000E+00 -0.95816171611E+01  0.95816171611E+01  0.00000000000E+00 0.  1.
          2    1    1    2  501    0 -0.20876853580E+02  0.30540670342E+01  0.54007646664E+01  0.21779315872E+02  0.00000000000E+00 0.  1.
         -2    1    1    2    0  502  0.20876853580E+02 -0.30540670342E+01  0.78539615181E+02  0.81324298298E+02  0.00000000000E+00 0. -1.
</event>
<event>
 4    1  0.1762646E+004  0.2653081E+02  0.7546771E-02  0.1452379E+00
         21   -1    0    0  503  502  0.00000000000E+00  0.00000000000E+00  0.21183789460E+02  0.21183789460E+02  0.00000000000E+00 0. -1.
         21   -1    0    0  501  503 -0.00000000000E+00 -0.00000000000E+00 -0.33746800856E+02  0.33746800856E+02  0.00000000000E+00 0.  1.
          2    1    1    2  501    0 -0.26038336072E+02 -0.50881307894E+01 -0.28744104496E+01  0.26686068570E+02  0.00000000000E+00 0. -1.
         -2    1    1    2    0  502  0.26038336072E+02  0.50881307894E+01 -0.96886009470E+01  0.28244521745E+02  0.00000000000E+00 0.  1.
</event>
<event>
 4    1  0.1762646E+004  0.2338301E+02  0.7546771E-02  0.1487744E+00
         21   -1    0    0  501  502  0.00000000000E+00  0.00000000000E+00  0.18555990312E+02  0.18555990312E+02  0.00000000000E+00 0.  1.
         21   -1    0    0  502  503 -0.00000000000E+00 -0.00000000000E+00 -0.33790749718E+02  0.33790749718E+02  0.00000000000E+00 0. -1.
          2    1    1    2  501    0 -0.23288349314E+02 -0.21019145325E+01  0.17465090040E+01  0.23448146029E+02  0.00000000000E+00 0. -1.
         -2    1    1    2    0  503  0.23288349314E+02  0.21019145325E+01 -0.16981268410E+02  0.28898594002E+02  0.00000000000E+00 0.  1.
</event>
<event>
 4    1  0.1762646E+004  0.5864574E+02  0.7546771E-02  0.1264505E+00
         21   -1    0    0  503  502  0.00000000000E+00  0.00000000000E+00  0.36454130068E+02  0.36454130068E+02  0.00000000000E+00 0.  1.
         21   -1    0    0  501  503 -0.00000000000E+00 -0.00000000000E+00 -0.11936196115E+03  0.11936196115E+03  0.00000000000E+00 0. -1.
          2    1    1    2  501    0  0.26030678092E+02 -0.52552131868E+02 -0.77119786630E+02  0.96885418179E+02  0.00000000000E+00 0. -1.
         -2    1    1    2    0  502 -0.26030678092E+02  0.52552131868E+02 -0.57880444486E+01  0.58930673035E+02  0.00000000000E+00 0.  1.
</event>
<event>
 4    1  0.1762646E+004  0.2172342E+02  0.7546771E-02  0.1509182E+00
         21   -1    0    0  501  502  0.00000000000E+00  0.00000000000E+00  0.53000086251E+02  0.53000086251E+02  0.00000000000E+00 0. -1.
         21   -1    0    0  502  503 -0.00000000000E+00 -0.00000000000E+00 -0.98361791587E+01  0.98361791587E+01  0.00000000000E+00 0.  1.
          2    1    1    2  501    0  0.42910605889E+00  0.21719181367E+02  0.31254533431E+02  0.38062485878E+02  0.00000000000E+00 0. -1.
         -2    1    1    2    0  503 -0.42910605889E+00 -0.21719181367E+02  0.11909373662E+02  0.24773779532E+02  0.00000000000E+00 0.  1.
</event>
<event>
 4    1  0.1762646E+004  0.2239825E+02  0.7546771E-02  0.1500196E+00
         21   -1    0    0  501  502  0.00000000000E+00  0.00000000000E+00  0.47905383510E+02  0.47905383510E+02  0.00000000000E+00 0. -1.
         21   -1    0    0  502  503 -0.00000000000E+00 -0.00000000000E+00 -0.46219032909E+02  0.46219032909E+02  0.00000000000E+00 0.  1.
          2    1    1    2  501    0  0.14582937477E+02 -0.17000569464E+02  0.42231687326E+02  0.47803732511E+02  0.00000000000E+00 0. -1.
         -2    1    1    2    0  503 -0.14582937477E+02  0.17000569464E+02 -0.40545336725E+02  0.46320683908E+02  0.00000000000E+00 0.  1.
</event>
<event>
 4    1  0.1762646E+004  0.4920242E+02  0.7546771E-02  0.1301668E+00
         21   -1    0    0  501  502  0.00000000000E+00  0.00000000000E+00  0.18508007074E+03  0.18508007074E+03  0.00000000000E+00 0.  1.
         21   -1    0    0  502  503 -0.00000000000E+00 -0.00000000000E+00 -0.21616950440E+02  0.21616950440E+02  0.00000000000E+00 0. -1.
          2    1    1    2  501    0  0.44189512720E+02  0.21637126098E+02  0.14667781872E+03  0.15471024777E+03  0.00000000000E+00 0.  1.
         -2    1    1    2    0  503 -0.44189512720E+02 -0.21637126098E+02  0.16785301575E+02  0.51986773406E+02  0.00000000000E+00 0. -1.
</event>
<event>
 4    1  0.1762646E+004  0.2613577E+02  0.7546771E-02  0.1456488E+00
         21   -1    0    0  501  502  0.00000000000E+00  0.00000000000E+00  0.11805496544E+03  0.11805496544E+03  0.00000000000E+00 0. -1.
         21   -1    0    0  502  503 -0.00000000000E+00 -0.00000000000E+00 -0.27990491233E+02  0.27990491233E+02  0.00000000000E+00 0.  1.
          2    1    1    2  501    0 -0.22875302469E+02 -0.12641166134E+02  0.11007098502E+03  0.11313134087E+03  0.00000000000E+00 0. -1.
         -2    1    1    2    0  503  0.22875302469E+02  0.12641166134E+02 -0.20006510811E+02  0.32914115803E+02  0.00000000000E+00 0.  1.
</event>
<event>
 4    1  0.1762646E+004  0.2244935E+02  0.7546771E-02  0.1499531E+00
         21   -1    0    0  503  502  0.00000000000E+00  0.00000000000E+00  0.86230952982E+01  0.86230952982E+01  0.00000000000E+00 0.  1.
         21   -1    0    0  501  503 -0.00000000000E+00 -0.00000000000E+00 -0.20632179633E+03  0.20632179633E+03  0.00000000000E+00 0. -1.
          2    1    1    2  501    0  0.21439526783E+02  0.66573432455E+01 -0.18983547189E+03  0.19115825882E+03  0.00000000000E+00 0. -1.
         -2    1    1    2    0  502 -0.21439526783E+02 -0.66573432455E+01 -0.78632291416E+01  0.23786632807E+02  0.00000000000E+00 0.  1.
</event>
<event>
 4    1  0.1762646E+004  0.2122493E+02  0.7546771E-02  0.1516078E+00
         21   -1    0    0  501  502  0.00000000000E+00  0.00000000000E+00  0.21650631032E+02  0.21650631032E+02  0.00000000000E+00 0.  1.
         21   -1    0    0  502  503 -0.00000000000E+00 -0.00000000000E+00 -0.27443610415E+02  0.27443610415E+02  0.00000000000E+00 0. -1.
          2    1    1    2  501    0 -0.19781091464E+02 -0.76945451618E+01  0.91742411027E+01  0.23122809184E+02  0.00000000000E+00 0.  1.
         -2    1    1    2    0  503  0.19781091464E+02  0.76945451618E+01 -0.14967220485E+02  0.25971432263E+02  0.00000000000E+00 0. -1.
</event>
<event>
 4    1  0.1762646E+004  0.2101473E+02  0.7546771E-02  0.1519055E+00
         21   -1    0    0  501  502  0.00000000000E+00  0.00000000000E+00  0.14901008495E+02  0.14901008495E+02  0.00000000000E+00 0.  1.
         21   -1    0    0  502  503 -0.00000000000E+00 -0.00000000000E+00 -0.31809662700E+02  0.31809662700E+02  0.00000000000E+00 0. -1.
          2    1    1    2  501    0  0.86749034225E+01  0.19140656564E+02 -0.23502566145E+01  0.21145741634E+02  0.00000000000E+00 0.  1.
         -2    1    1    2    0  503 -0.86749034225E+01 -0.19140656564E+02 -0.14558397590E+02  0.25564929561E+02  0.00000000000E+00 0. -1.
</event>
<event>
 4    1  0.1762646E+004  0.2962117E+02  0.7546771E-02  0.1422917E+00
         21   -1    0    0  503  502  0.00000000000E+00  0.00000000000E+00  0.25473159754E+02  0.25473159754E+02  0.00000000000E+00 0. -1.
         21   -1    0    0  501  503 -0.00000000000E+00 -0.00000000000E+00 -0.72341002754E+02  0.72341002754E+02  0.00000000000E+00 0.  1.
          2    1    1    2  501    0 -0.21993971355E+02 -0.19841344837E+02 -0.58831883981E+02  0.65868082662E+02  0.00000000000E+00 0.  1.
         -2    1    1    2    0  502  0.21993971355E+02  0.19841344837E+02  0.11964040980E+02  0.31946079845E+02  0.00000000000E+00 0. -1.
</event>
<event>
 4    1  0.1762646E+004  0.2870839E+02  0.7546771E-02  0.1431163E+00
         21   -1    0    0  503  502  0.00000000000E+00  0.00000000000E+00  0.15924274241E+02  0.15924274241E+02  0.00000000000E+00 0. -1.
         21   -1    0    0  501  503 -0.00000000000E+00 -0.00000000000E+00 -0.87121668173E+02  0.87121668173E+02  0.00000000000E+00 0.  1.
          2    1    1    2  501    0 -0.27804227794E+02 -0.71481992880E+01 -0.68425654417E+02  0.74204056619E+02  0.00000000000E+00 0.  1.
         -2    1    1    2    0  502  0.27804227794E+02  0.71481992880E+01 -0.27717395141E+01  0.28841885795E+02  0.00000000000E+00 0. -1.
</event>
<event>
 4    1  0.1762646E+004  0.2722637E+02  0.7546771E-02  0.1445347E+00
         21   -1    0    0  501  502  0.00000000000E+00  0.00000000000E+00  0.70271806339E+00  0.70271806339E+00  0.00000000000E+00 0.  1.
         21   -1    0    0  502  503 -0.00000000000E+00 -0.00000000000E+00 -0.10611574794E+04  0.10611574794E+04  0.00000000000E+00 0. -1.
          2    1    1    2  501    0  0.76871846145E+01  0.26118621947E+02 -0.48935461154E+03  0.49011142718E+03  0.00000000000E+00 0.  1.
         -2    1    1    2    0  503 -0.76871846145E+01 -0.26118621947E+02 -0.57110014982E+03  0.57174877030E+03  0.00000000000E+00 0. -1.
</event>
<event>
 4    1  0.1762646E+004  0.2230500E+02  0.7546771E-02  0.1501415E+00
         21   -1    0    0  503  502  0.00000000000E+00  0.00000000000E+00  0.95126387809E+02  0.95126387809E+02  0.00000000000E+00 0.  1.
         21   -1    0    0  501  503 -0.00000000000E+00 -0.00000000000E+00 -0.75595397399E+01  0.75595397399E+01  0.00000000000E+00 0. -1.
          2    1    1    2  501    0 -0.80272476961E+01 -0.20810484554E+02  0.15282010858E+02  0.27037988624E+02  0.00000000000E+00 0. -1.
         -2    1    1    2    0  502  0.80272476961E+01  0.20810484554E+02  0.72284837211E+02  0.75647938925E+02  0.00000000000E+00 0.  1.
</event>
<event>
 4    1  0.1762646E+004  0.2115680E+02  0.7546771E-02  0.1517038E+00
         21   -1    0    0  501  502  0.00000000000E+00  0.00000000000E+00  0.98462577603E+02  0.98462577603E+02  0.00000000000E+00 0.  1.
         21   -1    0    0  502  503 -0.00000000000E+00 -0.00000000000E+00 -0.95914944087E+01  0.95914944087E+01  0.00000000000E+00 0. -1.
          2    1    1    2  501    0  0.10970510558E+02  0.18090272325E+02  0.83620575570E+02  0.86255496714E+02  0.00000000000E+00 0.  1.
         -2    1    1    2    0  503 -0.10970510558E+02 -0.18090272325E+02  0.52505076246E+01  0.21798575298E+02  0.00000000000E+00 0. -1.
</event>
<event>
 4    1  0.1762646E+004  0.2374989E+02  0.7546771E-02  0.1483290E+00
         21   -1    0    0  501  502  0.00000000000E+00  0.00000000000E+00  0.48815673271E+03  0.48815673271E+03  0.00000000000E+00 0.  1.
         21   -1    0    0  502  503 -0.00000000000E+00 -0.00000000000E+00 -0.41840408221E+01  0.41840408221E+01  0.00000000000E+00 0. -1.
          2    1    1    2  501    0  0.21157839390E+02  0.10789025447E+02  0.45142446212E+03  0.45204878303E+03  0.00000000000E+00 0.  1.
         -2    1    1    2    0  503 -0.21157839390E+02 -0.10789025447E+02  0.32548229774E+02  0.40291990509E+02  0.00000000000E+00 0. -1.
</event>
<event>
 4    1  0.1762646E+004  0.2110571E+02  0.7546771E-02  0.1517761E+00
         21   -1    0    0  503  502  0.00000000000E+00  0.00000000000E+00  0.17531352222E+03  0.17531352222E+03  0.00000000000E+00 0.  1.
         21   -1    0    0  501  503 -0.00000000000E+00 -0.00000000000E+00 -0.25922909686E+01  0.25922909686E+01  0.00000000000E+00 0. -1.
          2    1    1    2  501    0  0.21105563068E+02 -0.78762856264E-01  0.73833901671E+02  0.76791249709E+02  0.00000000000E+00 0.  1.
         -2    1    1    2    0  502 -0.21105563068E+02  0.78762856264E-01  0.98887329585E+02  0.10111456348E+03  0.00000000000E+00 0. -1.
</event>
<event>
 4    1  0.1762646E+004  0.2120842E+02  0.7546771E-02  0.1516310E+00
         21   -1    0    0  501  502  0.00000000000E+00  0.00000000000E+00  0.17098906979E+03  0.17098906979E+03  0.00000000000E+00 0. -1.
         21   -1    0    0  502  503 -0.00000000000E+00 -0.00000000000E+00 -0.10175413081E+02  0.10175413081E+02  0.00000000000E+00 0.  1.
          2    1    1    2  501    0 -0.94283306657E+01 -0.18997460381E+02  0.15840644118E+03  0.15981989090E+03  0.00000000000E+00 0. -1.
         -2    1    1    2    0  503  0.94283306657E+01  0.18997460381E+02  0.24072155373E+01  0.21344591978E+02  0.00000000000E+00 0.  1.
</event>
<event>
 4    1  0.1762646E+004  0.2066983E+02  0.7546771E-02  0.1524031E+00
         21   -1    0    0  503  502  0.00000000000E+00  0.00000000000E+00  0.44926021752E+02  0.44926021752E+02  0.00000000000E+00 0.  1.
         21   -1    0    0  501  503 -0.00000000000E+00 -0.00000000000E+00 -0.13488380242E+02  0.13488380242E+02  0.00000000000E+00 0. -1.
          2    1    1    2  501    0 -0.63904341515E+01 -0.19657162527E+02 -0.14358265893E+00  0.20670324217E+02  0.00000000000E+00 0. -1.
         -2    1    1    2    0  502  0.63904341515E+01  0.19657162527E+02  0.31581224169E+02  0.37744077777E+02  0.00000000000E+00 0.  1.
</event>
<event>
 4    1  0.1762646E+004  0.2547855E+02  0.7546771E-02  0.1463520E+00
         21   -1    0    0  503  502  0.00000000000E+00  0.00000000000E+00  0.12628873036E+02  0.12628873036E+02  0.00000000000E+00 0. -1.
         21   -1    0    0  501  503 -0.00000000000E+00 -0.00000000000E+00 -0.76363634202E+02  0.76363634202E+02  0.00000000000E+00 0.  1.
          2    1    1    2  501    0 -0.25405910457E+02 -0.19225950358E+01 -0.57307058782E+02  0.62715673034E+02  0.00000000000E+00 0.  1.
         -2    1    1    2    0  502  0.25405910457E+02  0.19225950358E+01 -0.64277023841E+01  0.26276834204E+02  0.00000000000E+00 0. -1.
</event>
<event>
 4    1  0.1762646E+004  0.2152135E+02  0.7546771E-02  0.1511950E+00
         21   -1    0    0  501  502  0.00000000000E+00  0.00000000000E+00  0.10390835942E+04  0.10390835942E+04  0.00000000000E+00 0. -1.
         21   -1    0    0  502  503 -0.00000000000E+00 -0.00000000000E+00 -0.44615034175E+00  0.44615034175E+00  0.00000000000E+00 0.  1.
          2    1    1    2  501    0  0.21400219456E+02  0.22801969366E+01  0.53494118460E+03  0.53537392509E+03  0.00000000000E+00 0.  1.
         -2    1    1    2    0  503 -0.21400219456E+02 -0.22801969366E+01  0.50369625927E+03  0.50415581945E+03  0.00000000000E+00 0. -1.
</event>
<event>
 4    1  0.1762646E+004  0.2074179E+02  0.7546771E-02  0.1522983E+00
         21   -1    0    0  501  502  0.00000000000E+00  0.00000000000E+00  0.19002560141E+00  0.19002560141E+00  0.00000000000E+00 0.  1.
         21   -1    0    0  502  503 -0.00000000000E+00 -0.00000000000E+00 -0.23519104310E+04  0.23519104310E+04  0.00000000000E+00 0. -1.
          2    1    1    2  501    0  0.19621961032E+01  0.20648772935E+02 -0.14032037860E+04  0.14033570776E+04  0.00000000000E+00 0. -1.
         -2    1    1    2    0  503 -0.19621961032E+01 -0.20648772935E+02 -0.94851661935E+03  0.94874337901E+03  0.00000000000E+00 0.  1.
</event>
<event>
 4    1  0.1762646E+004  0.2293046E+02  0.7546771E-02  0.1493373E+00
         21   -1    0    0  501  502  0.00000000000E+00  0.00000000000E+00  0.52133043892E+01  0.52133043892E+01  0.00000000000E+00 0.  1.
         21   -1    0    0  502  503 -0.00000000000E+00 -0.00000000000E+00 -0.10766265265E+03  0.10766265265E+03  0.00000000000E+00 0. -1.
          2    1    1    2  501    0  0.14667710630E+02 -0.17625671731E+02 -0.37036514414E+02  0.43560411374E+02  0.00000000000E+00 0. -1.
         -2    1    1    2    0  503 -0.14667710630E+02  0.17625671731E+02 -0.65412833848E+02  0.69315545667E+02  0.00000000000E+00 0.  1.
</event>
<event>
 4    1  0.1762646E+004  0.3229432E+02  0.7546771E-02  0.1400653E+00
         21   -1    0    0  503  502  0.00000000000E+00  0.00000000000E+00  0.41455433383E+01  0.41455433383E+01  0.00000000000E+00 0.  1.
         21   -1    0    0  501  503 -0.00000000000E+00 -0.00000000000E+00 -0.28774081627E+03  0.28774081627E+03  0.00000000000E+00 0. -1.
          2    1    1    2  501    0  0.31783328314E+01  0.32137537540E+02 -0.19353693545E+03  0.19621281431E+03  0.00000000000E+00 0. -1.
         -2    1    1    2    0  502 -0.31783328314E+01 -0.32137537540E+02 -0.90058337487E+02  0.95673545297E+02  0.00000000000E+00 0.  1.
</event>
<event>
 4    1  0.1762646E+004  0.2388282E+02  0.7546771E-02  0.1481700E+00
         21   -1    0    0  501  502  0.00000000000E+00  0.00000000000E+00  0.40000950770E+02  0.40000950770E+02  0.00000000000E+00 0.  1.
         21   -1    0    0  502  503 -0.00000000000E+00 -0.00000000000E+00 -0.55735884168E+02  0.55735884168E+02  0.00000000000E+00 0. -1.
          2    1    1    2  501    0  0.23338826295E+02 -0.50683651931E+01  0.33426123645E+02  0.41081563754E+02  0.00000000000E+00 0.  1.
         -2    1    1    2    0  503 -0.23338826295E+02  0.50683651931E+01 -0.49161057043E+02  0.54655271184E+02  0.00000000000E+00 0. -1.
</event>
<event>
 4    1  0.1762646E+004  0.2496569E+02  0.7546771E-02  0.1469188E+00
         21   -1    0    0  503  502  0.00000000000E+00  0.00000000000E+00  0.47583586463E+01  0.47583586463E+01  0.00000000000E+00 0. -1.
         21   -1    0    0  501  503 -0.00000000000E+00 -0.00000000000E+00 -0.15408556727E+03  0.15408556727E+03  0.00000000000E+00 0.  1.
          2    1    1    2  501    0  0.20031157222E+02 -0.14900952295E+02 -0.10541375076E+03  0.10832979502E+03  0.00000000000E+00 0.  1.
         -2    1    1    2    0  502 -0.20031157222E+02  0.14900952295E+02 -0.43913457857E+02  0.50514130893E+02  0.00000000000E+00 0. -1.
</event>
<event>
 4    1  0.1762646E+004  0.4228501E+02  0.7546771E-02  0.1335592E+00
         21   -1    0    0  501  502  0.00000000000E+00  0.00000000000E+00  0.12284162959E+03  0.12284162959E+03  0.00000000000E+00 0. -1.
         21   -1    0    0  502  503 -0.00000000000E+00 -0.00000000000E+00 -0.19154216544E+02  0.19154216544E+02  0.00000000000E+00 0.  1.
          2    1    1    2  501    0  0.41818915567E+02 -0.62609890868E+01  0.86631880727E+02  0.96400749177E+02  0.00000000000E+00 0. -1.
         -2    1    1    2    0  503 -0.41818915567E+02  0.62609890868E+01  0.17055532315E+02  0.45595096952E+02  0.00000000000E+00 0.  1.
</event>
<event>
 4    1  0.1762646E+004  0.2040101E+02  0.7546771E-02  0.1527991E+00
         21   -1    0    0  503  502  0.00000000000E+00  0.00000000000E+00  0.11287520554E+01  0.11287520554E+01  0.00000000000E+00 0.  1.
         21   -1    0    0  501  503 -0.00000000000E+00 -0.00000000000E+00 -0.39149318230E+03  0.39149318230E+03  0.00000000000E+00 0. -1.
          2    1    1    2  501    0  0.19730123887E+02 -0.51887608390E+01 -0.24252244548E+03  0.24337899990E+03  0.00000000000E+00 0. -1.
         -2    1    1    2    0  502 -0.19730123887E+02  0.51887608390E+01 -0.14784198476E+03  0.14924293446E+03  0.00000000000E+00 0.  1.
</event>
<event>
 4    1  0.1762646E+004  0.3024967E+02  0.7546771E-02  0.1417439E+00
         21   -1    0    0  503  502  0.00000000000E+00  0.00000000000E+00  0.10696243830E+02  0.10696243830E+02  0.00000000000E+00 0.  1.
         21   -1    0    0  501  503 -0.00000000000E+00 -0.00000000000E+00 -0.19676246044E+03  0.19676246044E+03  0.00000000000E+00 0. -1.
          2    1    1    2  501    0  0.46743830041E+01  0.29886332357E+02 -0.17101811080E+03  0.17367278699E+03  0.00000000000E+00 0. -1.
         -2    1    1    2    0  502 -0.46743830041E+01 -0.29886332357E+02 -0.15048105812E+02  0.33785917284E+02  0.00000000000E+00 0.  1.
</event>
<event>
 4    1  0.1762646E+004  0.2482323E+02  0.7546771E-02  0.1470791E+00
         21   -1    0    0  503  502  0.00000000000E+00  0.00000000000E+00  0.11392800784E+03  0.11392800784E+03  0.00000000000E+00 0.  1.
         21   -1    0    0  501  503 -0.00000000000E+00 -0.00000000000E+00 -0.70828493049E+01  0.70828493049E+01  0.00000000000E+00 0. -1.
          2    1    1    2  501    0  0.19626672190E+02 -0.15198247563E+02  0.24005593871E+02  0.34532036247E+02  0.00000000000E+00 0. -1.
         -2    1    1    2    0  502 -0.19626672190E+02  0.15198247563E+02  0.82839564660E+02  0.86478820894E+02  0.00000000000E+00 0.  1.
</event>
<event>
 4    1  0.1762646E+004  0.2709014E+02  0.7546771E-02  0.1446705E+00
         21   -1    0    0  503  502  0.00000000000E+00  0.00000000000E+00  0.78182015712E+03  0.78182015712E+03  0.00000000000E+00 0. -1.
         21   -1    0    0  501  503 -0.00000000000E+00 -0.00000000000E+00 -0.98117923198E+00  0.98117923198E+00  0.00000000000E+00 0.  1.
          2    1    1    2  501    0 -0.29440127289E+01 -0.26929699530E+02  0.30895700497E+03  0.31014239770E+03  0.00000000000E+00 0.  1.
         -2    1    1    2    0  502  0.29440127289E+01  0.26929699530E+02  0.47188197291E+03  0.47265893865E+03  0.00000000000E+00 0. -1.
</event>
<event>
 4    1  0.1762646E+004  0.2008870E+02  0.7546771E-02  0.1532684E+00
         21   -1    0    0  503  502  0.00000000000E+00  0.00000000000E+00  0.10165380924E+02  0.10165380924E+02  0.00000000000E+00 0. -1.
         21   -1    0    0  501  503 -0.00000000000E+00 -0.00000000000E+00 -0.69303332265E+02  0.69303332265E+02  0.00000000000E+00 0.  1.
          2    1    1    2  501    0 -0.15536673726E+02 -0.12734506093E+02 -0.55538647369E+02  0.59060115370E+02  0.00000000000E+00 0.  1.
         -2    1    1    2    0  502  0.15536673726E+02  0.12734506093E+02 -0.35993039717E+01  0.20408597820E+02  0.00000000000E+00 0. -1.
</event>
<event>
 4    1  0.1762646E+004  0.2003926E+02  0.7546771E-02  0.1533436E+00
         21   -1    0    0  501  502  0.00000000000E+00  0.00000000000E+00  0.10452533912E+03  0.10452533912E+03  0.00000000000E+00 0.  1.
         21   -1    0    0  502  503 -0.00000000000E+00 -0.00000000000E+00 -0.49830149906E+01  0.49830149906E+01  0.00000000000E+00 0. -1.
          2    1    1    2  501    0  0.17095106539E+02 -0.10456058879E+02  0.75973694414E+02  0.78572094778E+02  0.00000000000E+00 0.  1.
         -2    1    1    2    0  503 -0.17095106539E+02  0.10456058879E+02  0.23568629717E+02  0.30936259335E+02  0.00000000000E+00 0. -1.
</event>
<event>
 4    1  0.1762646E+004  0.2066465E+02  0.7546771E-02  0.1524107E+00
         21   -1    0    0  503  502  0.00000000000E+00  0.00000000000E+00  0.20024874269E+02  0.20024874269E+02  0.00000000000E+00 0.  1.
         21   -1    0    0  501  503 -0.00000000000E+00 -0.00000000000E+00 -0.77004966805E+02  0.77004966805E+02  0.00000000000E+00 0. -1.
          2    1    1    2  501    0 -0.13109558869E+02  0.15973956503E+02 -0.69744035435E+02  0.72741035866E+02  0.00000000000E+00 0. -1.
         -2    1    1    2    0  502  0.13109558869E+02 -0.15973956503E+02  0.12763942900E+02  0.24288805208E+02  0.00000000000E+00 0.  1.
</event>
<event>
 4    1  0.1762646E+004  0.2523184E+02  0.7546771E-02  0.1466226E+00
         21   -1    0    0  501  502  0.00000000000E+00  0.00000000000E+00  0.38608510894E+02  0.38608510894E+02  0.00000000000E+00 0. -1.
         21   -1    0    0  502  503 -0.00000000000E+00 -0.00000000000E+00 -0.29749157298E+02  0.29749157298E+02  0.00000000000E+00 0.  1.
          2    1    1    2  501    0  0.23089076857E+02  0.10175465612E+02  0.27247887878E+02  0.37136140946E+02  0.00000000000E+00 0. -1.
         -2    1    1    2    0  503 -0.23089076857E+02 -0.10175465612E+02 -0.18388534282E+02  0.31221527246E+02  0.00000000000E+00 0.  1.
</event>
<event>
 4    1  0.1762646E+004  0.2231203E+02  0.7546771E-02  0.1501323E+00
         21   -1    0    0  501  502  0.00000000000E+00  0.00000000000E+00  0.40435612161E+02  0.40435612161E+02  0.00000000000E+00 0.  1.
         21   -1    0    0  502  503 -0.00000000000E+00 -0.00000000000E+00 -0.12403027142E+02  0.12403027142E+02  0.00000000000E+00 0. -1.
          2    1    1    2  501    0 -0.16265551229E+02 -0.15272800600E+02  0.11747869720E+02  0.25215848943E+02  0.00000000000E+00 0.  1.
         -2    1    1    2    0  503  0.16265551229E+02  0.15272800600E+02  0.16284715298E+02  0.27622790361E+02  0.00000000000E+00 0. -1.
</event>
<event>
 4    1  0.1762646E+004  0.2602917E+02  0.7546771E-02  0.1457612E+00
         21   -1    0    0  501  502  0.00000000000E+00  0.00000000000E+00  0.98789102438E+01  0.98789102438E+01  0.00000000000E+00 0. -1.
         21   -1    0    0  502  503 -0.00000000000E+00 -0.00000000000E+00 -0.80468641886E+02  0.80468641886E+02  0.00000000000E+00 0.  1.
          2    1    1    2  501    0 -0.22271209251E+02 -0.13472602284E+02 -0.17932923872E+02  0.31608662301E+02  0.00000000000E+00 0. -1.
         -2    1    1    2    0  503  0.22271209251E+02  0.13472602284E+02 -0.52656807769E+02  0.58738889829E+02  0.00000000000E+00 0.  1.
</event>
<event>
 4    1  0.1762646E+004  0.3638248E+02  0.7546771E-02  0.1371096E+00
         21   -1    0    0  501  502  0.00000000000E+00  0.00000000000E+00  0.80173402291E+02  0.80173402291E+02  0.00000000000E+00 0.  1.
         21   -1    0    0  502  503 -0.00000000000E+00 -0.00000000000E+00 -0.36275089742E+02  0.36275089742E+02  0.00000000000E+00 0. -1.
          2    1    1    2  501    0 -0.27010280855E+02  0.24374778956E+02  0.64927133550E+02  0.74425921506E+02  0.00000000000E+00 0.  1.
         -2    1    1    2    0  503  0.27010280855E+02 -0.24374778956E+02 -0.21028821001E+02  0.42022570527E+02  0.00000000000E+00 0. -1.
</event>
<event>
 4    1  0.1762646E+004  0.2293624E+02  0.7546771E-02  0.1493300E+00
         21   -1    0    0  501  502  0.00000000000E+00  0.00000000000E+00  0.75360065539E+00  0.75360065539E+00  0.00000000000E+00 0. -1.
         21   -1    0    0  502  503 -0.00000000000E+00 -0.00000000000E+00 -0.72559701117E+03  0.72559701117E+03  0.00000000000E+00 0.  1.
          2    1    1    2  501    0 -0.64157780630E+01  0.22020641859E+02 -0.29169276513E+03  0.29259313065E+03  0.00000000000E+00 0.  1.
         -2    1    1    2    0  503  0.64157780630E+01 -0.22020641859E+02 -0.43315064539E+03  0.43375748118E+03  0.00000000000E+00 0. -1.
</event>
<event>
 4    1  0.1762646E+004  0.2612221E+02  0.7546771E-02  0.1456631E+00
         21   -1    0    0  501  502  0.00000000000E+00  0.00000000000E+00  0.63898031399E+03  0.63898031399E+03  0.00000000000E+00 0. -1.
         21   -1    0    0  502  503 -0.00000000000E+00 -0.00000000000E+00 -0.16207881216E+01  0.16207881216E+01  0.00000000000E+00 0.  1.
          2    1    1    2  501    0  0.18986758477E+02 -0.17940822020E+02  0.50575286158E+03  0.50642702049E+03  0.00000000000E+00 0. -1.
         -2    1    1    2    0  503 -0.18986758477E+02  0.17940822020E+02  0.13160666429E+03  0.13417408162E+03  0.00000000000E+00 0.  1.
</event>
<event>
 4    1  0.1762646E+004  0.4508846E+02  0.7546771E-02  0.1320998E+00
         21   -1    0    0  503  502  0.00000000000E+00  0.00000000000E+00  0.50986674922E+03  0.50986674922E+03  0.00000000000E+00 0. -1.
         21   -1    0    0  501  503 -0.00000000000E+00 -0.00000000000E+00 -0.61452340525E+01  0.61452340525E+01  0.00000000000E+00 0.  1.
          2    1    1    2  501    0 -0.26001102730E+02 -0.36836281692E+02  0.98968976108E+02  0.10875581467E+03  0.00000000000E+00 0.  1.
         -2    1    1    2    0  502  0.26001102730E+02  0.36836281692E+02  0.40475253906E+03  0.40725616860E+03  0.00000000000E+00 0. -1.
</event>
<event>
 4    1  0.1762646E+004  0.2561758E+02  0.7546771E-02  0.1462012E+00
         21   -1    0    0  501  502  0.00000000000E+00  0.00000000000E+00  0.20450007670E+01  0.20450007670E+01  0.00000000000E+00 0. -1.
         21   -1    0    0  502  503 -0.00000000000E+00 -0.00000000000E+00 -0.77121476007E+03  0.77121476007E+03  0.00000000000E+00 0.  1.
          2    1    1    2  501    0  0.10712420960E+02 -0.23270243672E+02 -0.89150350998E+02  0.92757993113E+02  0.00000000000E+00 0. -1.
         -2    1    1    2    0  503 -0.10712420960E+02  0.23270243672E+02 -0.68001940831E+03  0.68050176773E+03  0.00000000000E+00 0.  1.
</event>
<event>
 4    1  0.1762646E+004  0.2860370E+02  0.7546771E-02  0.1432131E+00
         21   -1    0    0  503  502  0.00000000000E+00  0.00000000000E+00  0.31433443957E+02  0.31433443957E+02  0.00000000000E+00 0.  1.
         21   -1    0    0  501  503 -0.00000000000E+00 -0.00000000000E+00 -0.40400134532E+02  0.40400134532E+02  0.00000000000E+00 0. -1.
          2    1    1    2  501    0  0.22582196897E+02 -0.17556075469E+02 -0.25905161832E+02  0.38590786622E+02  0.00000000000E+00 0. -1.
         -2    1    1    2    0  502 -0.22582196897E+02  0.17556075469E+02  0.16938471257E+02  0.33242791866E+02  0.00000000000E+00 0.  1.
</event>
<event>
 4    1  0.1762646E+004  0.4346663E+02  0.7546771E-02  0.1329287E+00
         21   -1    0    0  501  502  0.00000000000E+00  0.00000000000E+00  0.13132324944E+03  0.13132324944E+03  0.00000000000E+00 0.  1.
         21   -1    0    0  502  503 -0.00000000000E+00 -0.00000000000E+00 -0.23630245730E+02  0.23630245730E+02  0.00000000000E+00 0. -1.
          2    1    1    2  501    0  0.42711460576E+02  0.80671812671E+01  0.10230270578E+03  0.11115391081E+03  0.00000000000E+00 0.  1.
         -2    1    1    2    0  503 -0.42711460576E+02 -0.80671812671E+01  0.53902979266E+01  0.43799584358E+02  0.00000000000E+00 0. -1.
</event>
<event>
 4    1  0.1762646E+004  0.2025616E+02  0.7546771E-02  0.1530155E+00
         21   -1    0    0  501  502  0.00000000000E+00  0.00000000000E+00  0.83234032742E+03  0.83234032742E+03  0.00000000000E+00 0.  1.
         21   -1    0    0  502  503 -0.00000000000E+00 -0.00000000000E+00 -0.65030531276E+00  0.65030531276E+00  0.00000000000E+00 0. -1.
          2    1    1    2  501    0  0.16204348592E+02  0.12154470469E+02  0.21097624117E+03  0.21194642343E+03  0.00000000000E+00 0. -1.
         -2    1    1    2    0  503 -0.16204348592E+02 -0.12154470469E+02  0.62071378094E+03  0.62104420930E+03  0.00000000000E+00 0.  1.
</event>
<event>
 4    1  0.1762646E+004  0.2839218E+02  0.7546771E-02  0.1434103E+00
         21   -1    0    0  501  502  0.00000000000E+00  0.00000000000E+00  0.72413759524E+03  0.72413759524E+03  0.00000000000E+00 0. -1.
         21   -1    0    0  502  503 -0.00000000000E+00 -0.00000000000E+00 -0.62931609345E+01  0.62931609345E+01  0.00000000000E+00 0.  1.
          2    1    1    2  501    0 -0.27432582877E+02 -0.73191114078E+01  0.69026501150E+03  0.69084868248E+03  0.00000000000E+00 0. -1.
         -2    1    1    2    0  503  0.27432582877E+02  0.73191114078E+01  0.27579422811E+02  0.39582073691E+02  0.00000000000E+00 0.  1.
</event>
<event>
 4    1  0.1762646E+004  0.3189106E+02  0.7546771E-02  0.1403845E+00
         21   -1    0    0  501  502  0.00000000000E+00  0.00000000000E+00  0.42002760019E+03  0.42002760019E+03  0.00000000000E+00 0. -1.
         21   -1    0    0  502  503 -0.00000000000E+00 -0.00000000000E+00 -0.76238254899E+01  0.76238254899E+01  0.00000000000E+00 0.  1.
          2    1    1    2  501    0 -0.21529038443E+02  0.23527440488E+02  0.38283733698E+03  0.38416333315E+03  0.00000000000E+00 0. -1.
         -2    1    1    2    0  503  0.21529038443E+02 -0.23527440488E+02  0.29566437718E+02  0.43488092526E+02  0.00000000000E+00 0.  1.
</event>
<event>
 4    1  0.1762646E+004  0.4868851E+02  0.7546771E-02  0.1303961E+00
         21   -1    0    0  501  502  0.00000000000E+00  0.00000000000E+00  0.27652036258E+01  0.27652036258E+01  0.00000000000E+00 0.  1.
         21   -1    0    0  502  503 -0.00000000000E+00 -0.00000000000E+00 -0.87214684706E+03  0.87214684706E+03  0.00000000000E+00 0. -1.
          2    1    1    2  501    0 -0.43908789446E+02  0.21037799404E+02 -0.37758780416E+03  0.38071396171E+03  0.00000000000E+00 0. -1.
         -2    1    1    2    0  503  0.43908789446E+02 -0.21037799404E+02 -0.49179383928E+03  0.49419808898E+03  0.00000000000E+00 0.  1.
</event>
<event>
 4    1  0.1762646E+004  0.2271648E+02  0.7546771E-02  0.1496089E+00
         21   -1    0    0  501  502  0.00000000000E+00  0.00000000000E+00  0.46291421223E+02  0.46291421223E+02  0.00000000000E+00 0. -1.
         21   -1    0    0  502  503 -0.00000000000E+00 -0.00000000000E+00 -0.28920125358E+02  0.28920125358E+02  0.00000000000E+00 0.  1.
          2    1    1    2  501    0  0.22293039888E+02  0.43656536663E+01  0.38165746201E+02  0.44414668100E+02  0.00000000000E+00 0. -1.
         -2    1    1    2    0  503 -0.22293039888E+02 -0.43656536663E+01 -0.20794450336E+02  0.30796878481E+02  0.00000000000E+00 0.  1.
</event>
<event>
 4    1  0.1762646E+004  0.2133746E+02  0.7546771E-02  0.1514501E+00
         21   -1    0    0  503  502  0.00000000000E+00  0.00000000000E+00  0.19483451531E+02  0.19483451531E+02  0.00000000000E+00 0.  1.
         21   -1    0    0  501  503 -0.00000000000E+00 -0.00000000000E+00 -0.26701004778E+03  0.26701004778E+03  0.00000000000E+00 0. -1.
          2    1    1    2  501    0 -0.17640849868E+02 -0.12003644098E+02 -0.26059829830E+03  0.26147038099E+03  0.00000000000E+00 0. -1.
         -2    1    1    2    0  502  0.17640849868E+02  0.12003644098E+02  0.13071702058E+02  0.25023118319E+02  0.00000000000E+00 0.  1.
</event>
<event>
 4    1  0.1762646E+004  0.2367034E+02  0.7546771E-02  0.1484248E+00
         21   -1    0    0  503  502  0.00000000000E+00  0.00000000000E+00  0.48157708486E+02  0.48157708486E+02  0.00000000000E+00 0. -1.
         21   -1    0    0  501  503 -0.00000000000E+00 -0.00000000000E+00 -0.13392461341E+02  0.13392461341E+02  0.00000000000E+00 0.  1.
          2    1    1    2  501    0 -0.89690308288E+01 -0.21905287798E+02  0.62322769142E+01  0.24477059118E+02  0.00000000000E+00 0.  1.
         -2    1    1    2    0  502  0.89690308288E+01  0.21905287798E+02  0.28532970230E+02  0.37073110709E+02  0.00000000000E+00 0. -1.
</event>
<event>
 4    1  0.1762646E+004  0.2159863E+02  0.7546771E-02  0.1510887E+00
         21   -1    0    0  503  502  0.00000000000E+00  0.00000000000E+00  0.57849352374E+02  0.57849352374E+02  0.00000000000E+00 0. -1.
         21   -1    0    0  501  503 -0.00000000000E+00 -0.00000000000E+00 -0.89037329651E+01  0.89037329651E+01  0.00000000000E+00 0.  1.
          2    1    1    2  501    0 -0.12655227096E+02 -0.17502742636E+02  0.14223141305E+02  0.25861139209E+02  0.00000000000E+00 0. -1.
         -2    1    1    2    0  502  0.12655227096E+02  0.17502742636E+02  0.34722478103E+02  0.40891946130E+02  0.00000000000E+00 0.  1.
</event>
<event>
 4    1  0.1762646E+004  0.2475976E+02  0.7546771E-02  0.1471509E+00
         21   -1    0    0  501  502  0.00000000000E+00  0.00000000000E+00  0.14432176582E+03  0.14432176582E+03  0.00000000000E+00 0.  1.
         21   -1    0    0  502  503 -0.00000000000E+00 -0.00000000000E+00 -0.54429199303E+01  0.54429199303E+01  0.00000000000E+00 0. -1.
          2    1    1    2  501    0 -0.23426772911E+02 -0.80144886034E+01  0.10452871322E+03  0.10742112271E+03  0.00000000000E+00 0.  1.
         -2    1    1    2    0  503  0.23426772911E+02  0.80144886034E+01  0.34350132667E+02  0.42343563039E+02  0.00000000000E+00 0. -1.
</event>
<event>
 4    1  0.1762646E+004  0.2016753E+02  0.7546771E-02  0.1531490E+00
         21   -1    0    0  503  502  0.00000000000E+00  0.00000000000E+00  0.36755177675E+01  0.36755177675E+01  0.00000000000E+00 0. -1.
         21   -1    0    0  501  503 -0.00000000000E+00 -0.00000000000E+00 -0.12414174226E+03  0.12414174226E+03  0.00000000000E+00 0.  1.
          2    1    1    2  501    0 -0.17866970229E+02  0.93541883383E+01 -0.81294558916E+02  0.83758789234E+02  0.00000000000E+00 0. -1.
         -2    1    1    2    0  502  0.17866970229E+02 -0.93541883383E+01 -0.39171665577E+02  0.44058470794E+02  0.00000000000E+00 0.  1.
</event>
<event>
 4    1  0.1762646E+004  0.2019065E+02  0.7546771E-02  0.1531141E+00
         21   -1    0    0  501  502  0.00000000000E+00  0.00000000000E+00  0.25694639373E+01  0.25694639373E+01  0.00000000000E+00 0. -1.
         21   -1    0    0  502  503 -0.00000000000E+00 -0.00000000000E+00 -0.15958464996E+03  0.15958464996E+03  0.00000000000E+00 0.  1.
          2    1    1    2  501    0  0.17335912800E+02  0.10350292154E+02 -0.72324762342E+02  0.75090170250E+02  0.00000000000E+00 0.  1.
         -2    1    1    2    0  503 -0.17335912800E+02 -0.10350292154E+02 -0.84690423682E+02  0.87063943649E+02  0.00000000000E+00 0. -1.
</event>
<event>
 4    1  0.1762646E+004  0.3713668E+02  0.7546771E-02  0.1366134E+00
         21   -1    0    0  501  502  0.00000000000E+00  0.00000000000E+00  0.51421159411E+03  0.51421159411E+03  0.00000000000E+00 0. -1.
         21   -1    0    0  502  503 -0.00000000000E+00 -0.00000000000E+00 -0.35948125588E+01  0.35948125588E+01  0.00000000000E+00 0.  1.
          2    1    1    2  501    0  0.13805174796E+01 -0.37111007856E+02  0.38576981865E+03  0.38755320372E+03  0.00000000000E+00 0. -1.
         -2    1    1    2    0  503 -0.13805174796E+01  0.37111007856E+02  0.12484696289E+03  0.13025320294E+03  0.00000000000E+00 0.  1.
</event>
<event>
 4    1  0.1762646E+004  0.2254733E+02  0.7546771E-02  0.1498262E+00
         21   -1    0    0  503  502  0.00000000000E+00  0.00000000000E+00  0.77241491440E+01  0.77241491440E+01  0.00000000000E+00 0.  1.
         21   -1    0    0  501  503 -0.00000000000E+00 -0.00000000000E+00 -0.67009963075E+02  0.67009963075E+02  0.00000000000E+00 0. -1.
          2    1    1    2  501    0 -0.22111404397E+02 -0.44122674295E+01 -0.24657668527E+02  0.33412316972E+02  0.00000000000E+00 0. -1.
         -2    1    1    2    0  502  0.22111404397E+02  0.44122674295E+01 -0.34628145405E+02  0.41321795247E+02  0.00000000000E+00 0.  1.
</event>
<event>
 4    1  0.1762646E+004  0.2752506E+02  0.7546771E-02  0.1442404E+00
         21   -1    0    0  503  502  0.00000000000E+00  0.00000000000E+00  0.22061429539E+02  0.22061429539E+02  0.00000000000E+00 0. -1.
         21   -1    0    0  501  503 -0.00000000000E+00 -0.00000000000E+00 -0.37213513905E+02  0.37213513905E+02  0.00000000000E+00 0.  1.
          2    1    1    2  501    0  0.18889004462E+02  0.20020852245E+02  0.65703218181E+00  0.27532902235E+02  0.00000000000E+00 0.  1.
         -2    1    1    2    0  502 -0.18889004462E+02 -0.20020852245E+02 -0.15809116548E+02  0.31742041210E+02  0.00000000000E+00 0. -1.
</event>
<event>
 4    1  0.1762646E+004  0.4917766E+02  0.7546771E-02  0.1301778E+00
         21   -1    0    0  503  502  0.00000000000E+00  0.00000000000E+00  0.18952039573E+02  0.18952039573E+02  0.00000000000E+00 0. -1.
         21   -1    0    0  501  503 -0.00000000000E+00 -0.00000000000E+00 -0.17913085057E+03  0.17913085057E+03  0.00000000000E+00 0.  1.
          2    1    1    2  501    0  0.32432314546E+02 -0.36967386948E+02 -0.13320588722E+03  0.14199384182E+03  0.00000000000E+00 0. -1.
         -2    1    1    2    0  502 -0.32432314546E+02  0.36967386948E+02 -0.26972923774E+02  0.56089048320E+02  0.00000000000E+00 0.  1.
</event>
<event>
 4    1  0.1762646E+004  0.3553572E+02  0.7546771E-02  0.1376836E+00
         21   -1    0    0  501  502  0.00000000000E+00  0.00000000000E+00  0.37859863313E+02  0.37859863313E+02  0.00000000000E+00 0. -1.
         21   -1    0    0  502  503 -0.00000000000E+00 -0.00000000000E+00 -0.46047154844E+02  0.46047154844E+02  0.00000000000E+00 0.  1.
          2    1    1    2  501    0 -0.29901982995E+02 -0.19200494712E+02  0.17932945647E+02  0.39804247560E+02  0.00000000000E+00 0. -1.
         -2    1    1    2    0  503  0.29901982995E+02  0.19200494712E+02 -0.26120237177E+02  0.44102770598E+02  0.00000000000E+00 0.  1.
</event>
<event>
 4    1  0.1762646E+004  0.2157353E+02  0.7546771E-02  0.1511232E+00
         21   -1    0    0  501  502  0.00000000000E+00  0.00000000000E+00  0.24093164494E+02  0.24093164494E+02  0.00000000000E+00 0. -1.
         21   -1    0    0  502  503 -0.00000000000E+00 -0.00000000000E+00 -0.14389603309E+03  0.14389603309E+03  0.00000000000E+00 0.  1.
          2    1    1    2  501    0  0.19605515772E+02 -0.90022626945E+01  0.18252123379E+02  0.28258750682E+02  0.00000000000E+00 0. -1.
         -2    1    1    2    0  503 -0.19605515772E+02  0.90022626945E+01 -0.13805499197E+03  0.13973044690E+03  0.00000000000E+00 0.  1.
</event>
<event>
 4    1  0.1762646E+004  0.2175259E+02  0.7546771E-02  0.1508785E+00
         21   -1    0    0  501  502  0.00000000000E+00  0.00000000000E+00  0.64727070698E+01  0.64727070698E+01  0.00000000000E+00 0.  1.
         21   -1    0    0  502  503 -0.00000000000E+00 -0.00000000000E+00 -0.10407390480E+04  0.10407390480E+04  0.00000000000E+00 0. -1.
          2    1    1    2  501    0 -0.16668096727E+02 -0.13976760772E+02 -0.12251535452E+02  0.24965484396E+02  0.00000000000E+00 0.  1.
         -2    1    1    2    0  503  0.16668096727E+02  0.13976760772E+02 -0.10220148054E+04  0.10222462706E+04  0.00000000000E+00 0. -1.
</event>
<event>
 4    1  0.1762646E+004  0.2060372E+02  0.7546771E-02  0.1524999E+00
         21   -1    0    0  501  502  0.00000000000E+00  0.00000000000E+00  0.23547495889E+01  0.23547495889E+01  0.00000000000E+00 0.  1.
         21   -1    0    0  502  503 -0.00000000000E+00 -0.00000000000E+00 -0.18255103034E+03  0.18255103034E+03  0.00000000000E+00 0. -1.
          2    1    1    2  501    0 -0.82442058983E+01 -0.18882429805E+02 -0.10041119466E+03  0.10250327361E+03  0.00000000000E+00 0. -1.
         -2    1    1    2    0  503  0.82442058983E+01  0.18882429805E+02 -0.79785086089E+02  0.82402506324E+02  0.00000000000E+00 0.  1.
</event>
<event>
 4    1  0.1762646E+004  0.2047956E+02  0.7546771E-02  0.1526827E+00
         21   -1    0    0  501  502  0.00000000000E+00  0.00000000000E+00  0.16908558676E+03  0.16908558676E+03  0.00000000000E+00 0.  1.
         21   -1    0    0  502  503 -0.00000000000E+00 -0.00000000000E+00 -0.69027337872E+01  0.69027337872E+01  0.00000000000E+00 0. -1.
          2    1    1    2  501    0 -0.41297042257E+01  0.20058861112E+02  0.10660171802E+02  0.23087910883E+02  0.00000000000E+00 0. -1.
         -2    1    1    2    0  503  0.41297042257E+01 -0.20058861112E+02  0.15152268117E+03  0.15290040966E+03  0.00000000000E+00 0.  1.
</event>
<event>
 4    1  0.1762646E+004  0.2880790E+02  0.7546771E-02  0.1430246E+00
         21   -1    0    0  503  502  0.00000000000E+00  0.00000000000E+00  0.20163525166E+02  0.20163525166E+02  0.00000000000E+00 0. -1.
         21   -1    0    0  501  503 -0.00000000000E+00 -0.00000000000E+00 -0.92349985025E+02  0.92349985025E+02  0.00000000000E+00 0.  1.
          2    1    1    2  501    0 -0.39663473498E+01 -0.28533543241E+02 -0.77978013357E+02  0.83129210079E+02  0.00000000000E+00 0.  1.
         -2    1    1    2    0  502  0.39663473498E+01  0.28533543241E+02  0.57915534977E+01  0.29384300112E+02  0.00000000000E+00 0. -1.
</event>
<event>
 4    1  0.1762646E+004  0.2052449E+02  0.7546771E-02  0.1526163E+00
         21   -1    0    0  503  502  0.00000000000E+00  0.00000000000E+00  0.10615735927E+03  0.10615735927E+03  0.00000000000E+00 0.  1.
         21   -1    0    0  501  503 -0.00000000000E+00 -0.00000000000E+00 -0.21007745964E+02  0.21007745964E+02  0.00000000000E+00 0. -1.
          2    1    1    2  501    0 -0.19894390050E+02 -0.50465676471E+01 -0.14688592460E+02  0.25239044137E+02  0.00000000000E+00 0. -1.
         -2    1    1    2    0  502  0.19894390050E+02  0.50465676471E+01  0.99838205768E+02  0.10192606110E+03  0.00000000000E+00 0.  1.
</event>
<event>
 4    1  0.1762646E+004  0.2416486E+02  0.7546771E-02  0.1478367E+00
         21   -1    0    0  503  502  0.00000000000E+00  0.00000000000E+00  0.51388816634E+01  0.51388816634E+01  0.00000000000E+00 0.  1.
         21   -1    0    0  501  503 -0.00000000000E+00 -0.00000000000E+00 -0.47773742874E+03  0.47773742874E+03  0.00000000000E+00 0. -1.
          2    1    1    2  501    0 -0.39059031123E+00 -0.24161704293E+02 -0.44707711376E+03  0.44772970212E+03  0.00000000000E+00 0. -1.
         -2    1    1    2    0  502  0.39059031123E+00  0.24161704293E+02 -0.25521433319E+02  0.35146608283E+02  0.00000000000E+00 0.  1.
</event>
<event>
 4    1  0.1762646E+004  0.2294437E+02  0.7546771E-02  0.1493198E+00
         21   -1    0    0  503  502  0.00000000000E+00  0.00000000000E+00  0.20963969186E+02  0.20963969186E+02  0.00000000000E+00 0. -1.
         21   -1    0    0  501  503 -0.00000000000E+00 -0.00000000000E+00 -0.48838768557E+02  0.48838768557E+02  0.00000000000E+00 0.  1.
          2    1    1    2  501    0 -0.93155204812E+00 -0.22925447620E+02 -0.38263966795E+02  0.44615861447E+02  0.00000000000E+00 0.  1.
         -2    1    1    2    0  502  0.93155204812E+00  0.22925447620E+02  0.10389167424E+02  0.25186876296E+02  0.00000000000E+00 0. -1.
</event>
<event>
 4    1  0.1762646E+004  0.2101046E+02  0.7546771E-02  0.1519115E+00
         21   -1    0    0  501  502  0.00000000000E+00  0.00000000000E+00  0.70665037944E+00  0.70665037944E+00  0.00000000000E+00 0.  1.
         21   -1    0    0  502  503 -0.00000000000E+00 -0.00000000000E+00 -0.69595306811E+03  0.69595306811E+03  0.00000000000E+00 0. -1.
          2    1    1    2  501    0  0.20064820953E+02  0.62323708981E+01 -0.23616191075E+03  0.23709468062E+03  0.00000000000E+00 0.  1.
         -2    1    1    2    0  503 -0.20064820953E+02 -0.62323708981E+01 -0.45908450698E+03  0.45956503788E+03  0.00000000000E+00 0. -1.
</event>
<event>
 4    1  0.1762646E+004  0.2492201E+02  0.7546771E-02  0.1469678E+00
         21   -1    0    0  503  502  0.00000000000E+00  0.00000000000E+00  0.18507031726E+03  0.18507031726E+03  0.00000000000E+00 0. -1.
         21   -1    0    0  501  503 -0.00000000000E+00 -0.00000000000E+00 -0.82093148767E+01  0.82093148767E+01  0.00000000000E+00 0.  1.
          2    1    1    2  501    0  0.18681185054E+02  0.16496057675E+02  0.14125284110E+02  0.28646644568E+02  0.00000000000E+00 0.  1.
         -2    1    1    2    0  502 -0.18681185054E+02 -0.16496057675E+02  0.16273571828E+03  0.16463298757E+03  0.00000000000E+00 0. -1.
</event>
<event>
 4    1  0.1762646E+004  0.2411465E+02  0.7546771E-02  0.1478956E+00
         21   -1    0    0  503  502  0.00000000000E+00  0.00000000000E+00  0.16554012657E+02  0.16554012657E+02  0.00000000000E+00 0.  1.
         21   -1    0    0  501  503 -0.00000000000E+00 -0.00000000000E+00 -0.11494357592E+03  0.11494357592E+03  0.00000000000E+00 0. -1.
          2    1    1    2  501    0 -0.91925963361E+01  0.22293777842E+02 -0.10398311836E+03  0.10674270590E+03  0.00000000000E+00 0. -1.
         -2    1    1    2    0  502  0.91925963361E+01 -0.22293777842E+02  0.55935550985E+01  0.24754882680E+02  0.00000000000E+00 0.  1.
</event>
<event>
 4    1  0.1762646E+004  0.2804145E+02  0.7546771E-02  0.1437418E+00
         21   -1    0    0  503  502  0.00000000000E+00  0.00000000000E+00  0.77196495435E+01  0.77196495435E+01  0.00000000000E+00 0. -1.
         21   -1    0    0  501  503 -0.00000000000E+00 -0.00000000000E+00 -0.45457743400E+03  0.45457743400E+03  0.00000000000E+00 0.  1.
          2    1    1    2  501    0 -0.46007018674E+01 -0.27661466455E+02 -0.42703964528E+03  0.42795932263E+03  0.00000000000E+00 0.  1.
         -2    1    1    2    0  502  0.46007018674E+01  0.27661466455E+02 -0.19818139172E+02  0.34337760911E+02  0.00000000000E+00 0. -1.
</event>
<event>
 4    1  0.1762646E+004  0.2080554E+02  0.7546771E-02  0.1522059E+00
         21   -1    0    0  501  502  0.00000000000E+00  0.00000000000E+00  0.25475784354E+02  0.25475784354E+02  0.00000000000E+00 0. -1.
         21   -1    0    0  502  503 -0.00000000000E+00 -0.00000000000E+00 -0.17620546511E+02  0.17620546511E+02  0.00000000000E+00 0.  1.
          2    1    1    2  501    0  0.20795720016E+02 -0.63924539985E+00  0.79991526644E+01  0.22290290465E+02  0.00000000000E+00 0. -1.
         -2    1    1    2    0  503 -0.20795720016E+02  0.63924539985E+00 -0.14391482133E+00  0.20806040400E+02  0.00000000000E+00 0.  1.
</event>
<event>
 4    1  0.1762646E+004  0.2198820E+02  0.7546771E-02  0.1505610E+00
         21   -1    0    0  503  502  0.00000000000E+00  0.00000000000E+00  0.27557998497E+03  0.27557998497E+03  0.00000000000E+00 0.  1.
         21   -1    0    0  501  503 -0.00000000000E+00 -0.00000000000E+00 -0.18160808777E+01  0.18160808777E+01  0.00000000000E+00 0. -1.
          2    1    1    2  501    0 -0.22386400446E+01 -0.21873945318E+02  0.11132355095E+03  0.11347428779E+03  0.00000000000E+00 0.  1.
         -2    1    1    2    0  502  0.22386400446E+01  0.21873945318E+02  0.16244035314E+03  0.16392177806E+03  0.00000000000E+00 0. -1.
</event>
<event>
 4    1  0.1762646E+004  0.2959443E+02  0.7546771E-02  0.1423154E+00
         21   -1    0    0  503  502  0.00000000000E+00  0.00000000000E+00  0.45822748791E+03  0.45822748791E+03  0.00000000000E+00 0. -1.
         21   -1    0    0  501  503 -0.00000000000E+00 -0.00000000000E+00 -0.19436248645E+01  0.19436248645E+01  0.00000000000E+00 0.  1.
          2    1    1    2  501    0 -0.29310148170E+02 -0.40921269253E+01  0.19848974278E+03  0.20068385156E+03  0.00000000000E+00 0.  1.
         -2    1    1    2    0  502  0.29310148170E+02  0.40921269253E+01  0.25779412027E+03  0.25948726122E+03  0.00000000000E+00 0. -1.
</event>
<event>
 4    1  0.1762646E+004  0.2784771E+02  0.7546771E-02  0.1439274E+00
         21   -1    0    0  501  502  0.00000000000E+00  0.00000000000E+00  0.21330376549E+02  0.21330376549E+02  0.00000000000E+00 0.  1.
         21   -1    0    0  502  503 -0.00000000000E+00 -0.00000000000E+00 -0.36843914743E+02  0.36843914743E+02  0.00000000000E+00 0. -1.
          2    1    1    2  501    0  0.18336655567E+02  0.20958582865E+02 -0.44107841961E+01  0.28194860353E+02  0.00000000000E+00 0. -1.
         -2    1    1    2    0  503 -0.18336655567E+02 -0.20958582865E+02 -0.11102753998E+02  0.29979430939E+02  0.00000000000E+00 0.  1.
</event>
<event>
 4    1  0.1762646E+004  0.3882406E+02  0.7546771E-02  0.1355518E+00
         21   -1    0    0  501  502  0.00000000000E+00  0.00000000000E+00  0.33482733728E+02  0.33482733728E+02  0.00000000000E+00 0. -1.
         21   -1    0    0  502  503 -0.00000000000E+00 -0.00000000000E+00 -0.45231979748E+02  0.45231979748E+02  0.00000000000E+00 0.  1.
          2    1    1    2  501    0 -0.34833567656E+02  0.17144385112E+02 -0.31641548134E+01  0.38952782342E+02  0.00000000000E+00 0.  1.
         -2    1    1    2    0  503  0.34833567656E+02 -0.17144385112E+02 -0.85850912066E+01  0.39761931134E+02  0.00000000000E+00 0. -1.
</event>
<event>
 4    1  0.1762646E+004  0.2514195E+02  0.7546771E-02  0.1467222E+00
         21   -1    0    0  501  502  0.00000000000E+00  0.00000000000E+00  0.15785653246E+04  0.15785653246E+04  0.00000000000E+00 0.  1.
         21   -1    0    0  502  503 -0.00000000000E+00 -0.00000000000E+00 -0.44082355056E+00  0.44082355056E+00  0.00000000000E+00 0. -1.
          2    1    1    2  501    0  0.25058931098E+02  0.20414175319E+01  0.10280275668E+04  0.10283349627E+04  0.00000000000E+00 0.  1.
         -2    1    1    2    0  503 -0.25058931098E+02 -0.20414175319E+01  0.55009693418E+03  0.55067118538E+03  0.00000000000E+00 0. -1.
</event>
<event>
 4    1  0.1762646E+004  0.4106210E+02  0.7546771E-02  0.1342372E+00
         21   -1    0    0  503  502  0.00000000000E+00  0.00000000000E+00  0.33505234296E+01  0.33505234296E+01  0.00000000000E+00 0.  1.
         21   -1    0    0  501  503 -0.00000000000E+00 -0.00000000000E+00 -0.53181491549E+03  0.53181491549E+03  0.00000000000E+00 0. -1.
          2    1    1    2  501    0 -0.40903422477E+02 -0.36064401583E+01 -0.20219988297E+03  0.20632714086E+03  0.00000000000E+00 0.  1.
         -2    1    1    2    0  502  0.40903422477E+02  0.36064401583E+01 -0.32626450909E+03  0.32883829806E+03  0.00000000000E+00 0. -1.
</event>
<event>
 4    1  0.1762646E+004  0.2122065E+02  0.7546771E-02  0.1516138E+00
         21   -1    0    0  501  502  0.00000000000E+00  0.00000000000E+00  0.11199251983E+02  0.11199251983E+02  0.00000000000E+00 0. -1.
         21   -1    0    0  502  503 -0.00000000000E+00 -0.00000000000E+00 -0.40226851871E+02  0.40226851871E+02  0.00000000000E+00 0.  1.
          2    1    1    2  501    0 -0.80242015898E+00  0.21205475559E+02 -0.15048178304E+02  0.26014683202E+02  0.00000000000E+00 0. -1.
         -2    1    1    2    0  503  0.80242015898E+00 -0.21205475559E+02 -0.13979421584E+02  0.25411420653E+02  0.00000000000E+00 0.  1.
</event>
<event>
 4    1  0.1762646E+004  0.2739194E+02  0.7546771E-02  0.1443710E+00
         21   -1    0    0  503  502  0.00000000000E+00  0.00000000000E+00  0.12950631921E+02  0.12950631921E+02  0.00000000000E+00 0. -1.
         21   -1    0    0  501  503 -0.00000000000E+00 -0.00000000000E+00 -0.88016671691E+02  0.88016671691E+02  0.00000000000E+00 0.  1.
          2    1    1    2  501    0  0.24276223043E+02  0.12687930317E+02 -0.67045523492E+02  0.72425277364E+02  0.00000000000E+00 0.  1.
         -2    1    1    2    0  502 -0.24276223043E+02 -0.12687930317E+02 -0.80205162786E+01  0.28542026248E+02  0.00000000000E+00 0. -1.
</event>
<event>
 4    1  0.1762646E+004  0.2242508E+02  0.7546771E-02  0.1499846E+00
         21   -1    0    0  501  502  0.00000000000E+00  0.00000000000E+00  0.91680588634E+00  0.91680588634E+00  0.00000000000E+00 0. -1.
         21   -1    0    0  502  503 -0.00000000000E+00 -0.00000000000E+00 -0.75576613488E+03  0.75576613488E+03  0.00000000000E+00 0.  1.
          2    1    1    2  501    0 -0.19770552722E+02  0.10583449259E+02 -0.57554815965E+03  0.57598486806E+03  0.00000000000E+00 0.  1.
         -2    1    1    2    0  503  0.19770552722E+02 -0.10583449259E+02 -0.17930116934E+03  0.18069807271E+03  0.00000000000E+00 0. -1.
</event>
<event>
 4    1  0.1762646E+004  0.4808534E+02  0.7546771E-02  0.1306694E+00
         21   -1    0    0  503  502  0.00000000000E+00  0.00000000000E+00  0.22909816369E+03  0.22909816369E+03  0.00000000000E+00 0. -1.
         21   -1    0    0  501  503 -0.00000000000E+00 -0.00000000000E+00 -0.12321517956E+02  0.12321517956E+02  0.00000000000E+00 0.  1.
          2    1    1    2  501    0 -0.48956864126E+01 -0.47835467048E+02  0.57048293588E+02  0.74610370958E+02  0.00000000000E+00 0.  1.
         -2    1    1    2    0  502  0.48956864126E+01  0.47835467048E+02  0.15972835215E+03  0.16680931069E+03  0.00000000000E+00 0. -1.
</event>
<event>
 4    1  0.1762646E+004  0.2225612E+02  0.7546771E-02  0.1502057E+00
         21   -1    0    0  501  502  0.00000000000E+00  0.00000000000E+00  0.12311591957E+03  0.12311591957E+03  0.00000000000E+00 0. -1.
         21   -1    0    0  502  503 -0.00000000000E+00 -0.00000000000E+00 -0.56441971255E+01  0.56441971255E+01  0.00000000000E+00 0.  1.
          2    1    1    2  501    0  0.20305545316E+02 -0.91115031361E+01  0.93236363260E+02  0.95855902760E+02  0.00000000000E+00 0.  1.
         -2    1    1    2    0  503 -0.20305545316E+02  0.91115031361E+01  0.24235359189E+02  0.32904213940E+02  0.00000000000E+00 0. -1.
</event>
<event>
 4    1  0.1762646E+004  0.2579162E+02  0.7546771E-02  0.1460139E+00
         21   -1    0    0  503  502  0.00000000000E+00  0.00000000000E+00  0.51792706755E+02  0.51792706755E+02  0.00000000000E+00 0.  1.
         21   -1    0    0  501  503 -0.00000000000E+00 -0.00000000000E+00 -0.38681078408E+02  0.38681078408E+02  0.00000000000E+00 0. -1.
          2    1    1    2  501    0  0.25659392939E+02  0.26083179152E+01 -0.30415770101E+02  0.39878902181E+02  0.00000000000E+00 0. -1.
         -2    1    1    2    0  502 -0.25659392939E+02 -0.26083179152E+01  0.43527398447E+02  0.50594882982E+02  0.00000000000E+00 0.  1.
</event>
<event>
 4    1  0.1762646E+004  0.4177944E+02  0.7546771E-02  0.1338362E+00
         21   -1    0    0  501  502  0.00000000000E+00  0.00000000000E+00  0.56682018305E+01  0.56682018305E+01  0.00000000000E+00 0.  1.
         21   -1    0    0  502  503 -0.00000000000E+00 -0.00000000000E+00 -0.31460988719E+03  0.31460988719E+03  0.00000000000E+00 0. -1.
          2    1    1    2  501    0  0.36413527178E+02  0.20483568891E+02 -0.13117108657E+03  0.13766399496E+03  0.00000000000E+00 0.  1.
         -2    1    1    2    0  503 -0.36413527178E+02 -0.20483568891E+02 -0.17777059879E+03  0.18261409406E+03  0.00000000000E+00 0. -1.
</event>
<event>
 4    1  0.1762646E+004  0.3284486E+02  0.7546771E-02  0.1396382E+00
         21   -1    0    0  503  502  0.00000000000E+00  0.00000000000E+00  0.62437501417E+02  0.62437501417E+02  0.00000000000E+00 0. -1.
         21   -1    0    0  501  503 -0.00000000000E+00 -0.00000000000E+00 -0.48771200735E+02  0.48771200735E+02  0.00000000000E+00 0.  1.
          2    1    1    2  501    0  0.64963031285E+01  0.32196006108E+02 -0.37849260799E+02  0.50113384506E+02  0.00000000000E+00 0.  1.
         -2    1    1    2    0  502 -0.64963031285E+01 -0.32196006108E+02  0.51515561481E+02  0.61095317646E+02  0.00000000000E+00 0. -1.
</event>
<event>
 4    1  0.1762646E+004  0.2679753E+02  0.7546771E-02  0.1449653E+00
         21   -1    0    0  503  502  0.00000000000E+00  0.00000000000E+00  0.36855266928E+01  0.36855266928E+01  0.00000000000E+00 0.  1.
         21   -1    0    0  501  503 -0.00000000000E+00 -0.00000000000E+00 -0.34796416515E+03  0.34796416515E+03  0.00000000000E+00 0. -1.
          2    1    1    2  501    0 -0.13918615579E+02 -0.22899338116E+02 -0.28877390174E+03  0.29001460976E+03  0.00000000000E+00 0. -1.
         -2    1    1    2    0  502  0.13918615579E+02  0.22899338116E+02 -0.55504736717E+02  0.61635082087E+02  0.00000000000E+00 0.  1.
</event>
<event>
 4    1  0.1762646E+004  0.2327690E+02  0.7546771E-02  0.1489050E+00
         21   -1    0    0  501  502  0.00000000000E+00  0.00000000000E+00  0.62013324838E+02  0.62013324838E+02  0.00000000000E+00 0. -1.
         21   -1    0    0  502  503 -0.00000000000E+00 -0.00000000000E+00 -0.13758507975E+02  0.13758507975E+02  0.00000000000E+00 0.  1.
          2    1    1    2  501    0 -0.18969068204E+02  0.13490311012E+02  0.47015347063E+02  0.52461956684E+02  0.00000000000E+00 0. -1.
         -2    1    1    2    0  503  0.18969068204E+02 -0.13490311012E+02  0.12394698006E+01  0.23309876128E+02  0.00000000000E+00 0.  1.
</event>
<event>
 4    1  0.1762646E+004  0.2555257E+02  0.7546771E-02  0.1462716E+00
         21   -1    0    0  503  502  0.00000000000E+00  0.00000000000E+00  0.12582222567E+01  0.12582222567E+01  0.00000000000E+00 0. -1.
         21   -1    0    0  501  503 -0.00000000000E+00 -0.00000000000E+00 -0.11437371276E+04  0.11437371276E+04  0.00000000000E+00 0.  1.
          2    1    1    2  501    0 -0.12590119703E+02  0.22235622768E+02 -0.99437770779E+03  0.99470596650E+03  0.00000000000E+00 0.  1.
         -2    1    1    2    0  502  0.12590119703E+02 -0.22235622768E+02 -0.14810119753E+03  0.15028938334E+03  0.00000000000E+00 0. -1.
</event>
<event>
 4    1  0.1762646E+004  0.2462494E+02  0.7546771E-02  0.1473043E+00
         21   -1    0    0  503  502  0.00000000000E+00  0.00000000000E+00  0.93710236088E+02  0.93710236088E+02  0.00000000000E+00 0. -1.
         21   -1    0    0  501  503 -0.00000000000E+00 -0.00000000000E+00 -0.65677571686E+01  0.65677571686E+01  0.00000000000E+00 0.  1.
          2    1    1    2  501    0  0.23513887498E+02  0.73133172031E+01  0.37481733093E+02  0.44847160773E+02  0.00000000000E+00 0.  1.
         -2    1    1    2    0  502 -0.23513887498E+02 -0.73133172031E+01  0.49660745827E+02  0.55430832483E+02  0.00000000000E+00 0. -1.
</event>
<event>
 4    1  0.1762646E+004  0.2851505E+02  0.7546771E-02  0.1432955E+00
         21   -1    0    0  503  502  0.00000000000E+00  0.00000000000E+00  0.93896232323E+03  0.93896232323E+03  0.00000000000E+00 0.  1.
         21   -1    0    0  501  503 -0.00000000000E+00 -0.00000000000E+00 -0.20589795007E+01  0.20589795007E+01  0.00000000000E+00 0. -1.
          2    1    1    2  501    0  0.25763457995E+02 -0.12220977198E+02  0.11030048250E+03  0.11392675055E+03  0.00000000000E+00 0. -1.
         -2    1    1    2    0  502 -0.25763457995E+02  0.12220977198E+02  0.82660286123E+03  0.82709455218E+03  0.00000000000E+00 0.  1.
</event>
<event>
 4    1  0.1762646E+004  0.3284442E+02  0.7546771E-02  0.1396386E+00
         21   -1    0    0  503  502  0.00000000000E+00  0.00000000000E+00  0.14292469376E+02  0.14292469376E+02  0.00000000000E+00 0. -1.
         21   -1    0    0  501  503 -0.00000000000E+00 -0.00000000000E+00 -0.32490394081E+03  0.32490394081E+03  0.00000000000E+00 0.  1.
          2    1    1    2  501    0 -0.20842060623E+02  0.25384329237E+02 -0.30390452211E+03  0.30567419619E+03  0.00000000000E+00 0.  1.
         -2    1    1    2    0  502  0.20842060623E+02 -0.25384329237E+02 -0.67069493299E+01  0.33522213995E+02  0.00000000000E+00 0. -1.
</event>
<event>
 4    1  0.1762646E+004  0.3098327E+02  0.7546771E-02  0.1411240E+00
         21   -1    0    0  503  502  0.00000000000E+00  0.00000000000E+00  0.14413222842E+04  0.14413222842E+04  0.00000000000E+00 0. -1.
         21   -1    0    0  501  503 -0.00000000000E+00 -0.00000000000E+00 -0.77362499966E+00  0.77362499966E+00  0.00000000000E+00 0.  1.
          2    1    1    2  501    0  0.14218371022E+02  0.27528188701E+02  0.45137121503E+03  0.45243335090E+03  0.00000000000E+00 0.  1.
         -2    1    1    2    0  502 -0.14218371022E+02 -0.27528188701E+02  0.98917744415E+03  0.98966255828E+03  0.00000000000E+00 0. -1.
</event>
<event>
 4    1  0.1762646E+004  0.2634649E+02  0.7546771E-02  0.1454285E+00
         21   -1    0    0  503  502  0.00000000000E+00  0.00000000000E+00  0.30366730247E+02  0.30366730247E+02  0.00000000000E+00 0. -1.
         21   -1    0    0  501  503 -0.00000000000E+00 -0.00000000000E+00 -0.28614566057E+02  0.28614566057E+02  0.00000000000E+00 0.  1.
          2    1    1    2  501    0 -0.26003204020E+02 -0.42392135165E+01 -0.12350695727E+02  0.29097718734E+02  0.00000000000E+00 0.  1.
         -2    1    1    2    0  502  0.26003204020E+02  0.42392135165E+01  0.14102859917E+02  0.29883577570E+02  0.00000000000E+00 0. -1.
</event>
<event>
 4    1  0.1762646E+004  0.2157483E+02  0.7546771E-02  0.1511214E+00
         21   -1    0    0  503  502  0.00000000000E+00  0.00000000000E+00  0.16197162860E+02  0.16197162860E+02  0.00000000000E+00 0.  1.
         21   -1    0    0  501  503 -0.00000000000E+00 -0.00000000000E+00 -0.33200127913E+02  0.33200127913E+02  0.00000000000E+00 0. -1.
          2    1    1    2  501    0  0.36996092775E+01 -0.21255264063E+02 -0.17556230952E+02  0.27815366337E+02  0.00000000000E+00 0. -1.
         -2    1    1    2    0  502 -0.36996092775E+01  0.21255264063E+02  0.55326589954E+00  0.21581924436E+02  0.00000000000E+00 0.  1.
</event>
<event>
 4    1  0.1762646E+004  0.2197719E+02  0.7546771E-02  0.1505757E+00
         21   -1    0    0  501  502  0.00000000000E+00  0.00000000000E+00  0.15883200759E+02  0.15883200759E+02  0.00000000000E+00 0. -1.
         21   -1    0    0  502  503 -0.00000000000E+00 -0.00000000000E+00 -0.16197908168E+03  0.16197908168E+03  0.00000000000E+00 0.  1.
          2    1    1    2  501    0  0.93413919372E+01  0.19893098002E+02  0.71018669380E+01  0.23096178590E+02  0.00000000000E+00 0. -1.
         -2    1    1    2    0  503 -0.93413919372E+01 -0.19893098002E+02 -0.15319774786E+03  0.15476610384E+03  0.00000000000E+00 0.  1.
</event>
<event>
 4    1  0.1762646E+004  0.2999394E+02  0.7546771E-02  0.1419649E+00
         21   -1    0    0  503  502  0.00000000000E+00  0.00000000000E+00  0.20348048042E+02  0.20348048042E+02  0.00000000000E+00 0. -1.
         21   -1    0    0  501  503 -0.00000000000E+00 -0.00000000000E+00 -0.45585373319E+02  0.45585373319E+02  0.00000000000E+00 0.  1.
          2    1    1    2  501    0 -0.16042583954E+02 -0.25343086984E+02 -0.18339898827E+02  0.35156627352E+02  0.00000000000E+00 0.  1.
         -2    1    1    2    0  502  0.16042583954E+02  0.25343086984E+02 -0.68974264505E+01  0.30776794008E+02  0.00000000000E+00 0. -1.
</event>
<event>
 4    1  0.1762646E+004  0.2106538E+02  0.7546771E-02  0.1518333E+00
         21   -1    0    0  503  502  0.00000000000E+00  0.00000000000E+00  0.34877346406E+01  0.34877346406E+01  0.00000000000E+00 0.  1.
         21   -1    0    0  501  503 -0.00000000000E+00 -0.00000000000E+00 -0.13383613317E+03  0.13383613317E+03  0.00000000000E+00 0. -1.
          2    1    1    2  501    0  0.21065360573E+02 -0.27756174589E-01 -0.80426986052E+02  0.83139943902E+02  0.00000000000E+00 0. -1.
         -2    1    1    2    0  502 -0.21065360573E+02  0.27756174589E-01 -0.49921412476E+02  0.54183923908E+02  0.00000000000E+00 0.  1.
</event>
<event>
 4    1  0.1762646E+004  0.2306283E+02  0.7546771E-02  0.1491711E+00
         21   -1    0    0  501  502  0.00000000000E+00  0.00000000000E+00  0.53945748362E+02  0.53945748362E+02  0.00000000000E+00 0.  1.
         21   -1    0    0  502  503 -0.00000000000E+00 -0.00000000000E+00 -0.13237443924E+02  0.13237443924E+02  0.00000000000E+00 0. -1.
          2    1    1    2  501    0 -0.93805238756E+01  0.21068935955E+02  0.37322341675E+02  0.43873129345E+02  0.00000000000E+00 0.  1.
         -2    1    1    2    0  503  0.93805238756E+01 -0.21068935955E+02  0.33859627632E+01  0.23310062940E+02  0.00000000000E+00 0. -1.
</event>
<event>
 4    1  0.1762646E+004  0.2070102E+02  0.7546771E-02  0.1523577E+00
         21   -1    0    0  503  502  0.00000000000E+00  0.00000000000E+00  0.36808945508E+03  0.36808945508E+03  0.00000000000E+00 0.  1.
         21   -1    0    0  501  503 -0.00000000000E+00 -0.00000000000E+00 -0.12685830470E+01  0.12685830470E+01  0.00000000000E+00 0. -1.
          2    1    1    2  501    0  0.71861015908E+01 -0.19413712871E+02  0.13043694134E+03  0.13206940588E+03  0.00000000000E+00 0. -1.
         -2    1    1    2    0  502 -0.71861015908E+01  0.19413712871E+02  0.23638393069E+03  0.23728863225E+03  0.00000000000E+00 0.  1.
</event>
<event>
 4    1  0.1762646E+004  0.2522233E+02  0.7546771E-02  0.1466331E+00
         21   -1    0    0  503  502  0.00000000000E+00  0.00000000000E+00  0.87082423898E+01  0.87082423898E+01  0.00000000000E+00 0.  1.
         21   -1    0    0  501  503 -0.00000000000E+00 -0.00000000000E+00 -0.80475174615E+02  0.80475174615E+02  0.00000000000E+00 0. -1.
          2    1    1    2  501    0  0.16778193454E+02  0.18832368046E+02 -0.49425375220E+02  0.55489040156E+02  0.00000000000E+00 0. -1.
         -2    1    1    2    0  502 -0.16778193454E+02 -0.18832368046E+02 -0.22341557006E+02  0.33694376849E+02  0.00000000000E+00 0.  1.
</event>
<event>
 4    1  0.1762646E+004  0.2185217E+02  0.7546771E-02  0.1507437E+00
         21   -1    0    0  503  502  0.00000000000E+00  0.00000000000E+00  0.20837599501E+02  0.20837599501E+02  0.00000000000E+00 0.  1.
         21   -1    0    0  501  503 -0.00000000000E+00 -0.00000000000E+00 -0.68419523235E+02  0.68419523235E+02  0.00000000000E+00 0. -1.
          2    1    1    2  501    0 -0.87697476404E+01 -0.20015211978E+02 -0.60186215226E+02  0.64030443442E+02  0.00000000000E+00 0. -1.
         -2    1    1    2    0  502  0.87697476404E+01  0.20015211978E+02  0.12604291491E+02  0.25226679294E+02  0.00000000000E+00 0.  1.
</event>
<event>
 4    1  0.1762646E+004  0.2203984E+02  0.7546771E-02  0.1504920E+00
         21   -1    0    0  501  502  0.00000000000E+00  0.00000000000E+00  0.12638028457E+03  0.12638028457E+03  0.00000000000E+00 0. -1.
         21   -1    0    0  502  503 -0.00000000000E+00 -0.00000000000E+00 -0.43848126630E+01  0.43848126630E+01  0.00000000000E+00 0.  1.
          2    1    1    2  501    0  0.17045723967E+02  0.13971322498E+02  0.83968346196E+02  0.86812658760E+02  0.00000000000E+00 0. -1.
         -2    1    1    2    0  503 -0.17045723967E+02 -0.13971322498E+02  0.38027125707E+02  0.43952438470E+02  0.00000000000E+00 0.  1.
</event>
<event>
 4    1  0.1762646E+004  0.3207993E+02  0.7546771E-02  0.1402343E+00
         21   -1    0    0  503  502  0.00000000000E+00  0.00000000000E+00  0.18528349784E+02  0.18528349784E+02  0.00000000000E+00 0. -1.
         21   -1    0    0  501  503 -0.00000000000E+00 -0.00000000000E+00 -0.72033505731E+02  0.72033505731E+02  0.00000000000E+00 0.  1.
          2    1    1    2  501    0 -0.12451967103E+02 -0.29564680458E+02 -0.48417834310E+02  0.58081051080E+02  0.00000000000E+00 0.  1.
         -2    1    1    2    0  502  0.12451967103E+02  0.29564680458E+02 -0.50873216370E+01  0.32480804435E+02  0.00000000000E+00 0. -1.
</event>
<event>
 4    1  0.1762646E+004  0.2029973E+02  0.7546771E-02  0.1529502E+00
         21   -1    0    0  501  502  0.00000000000E+00  0.00000000000E+00  0.18187799234E+02  0.18187799234E+02  0.00000000000E+00 0. -1.
         21   -1    0    0  502  503 -0.00000000000E+00 -0.00000000000E+00 -0.69371777533E+02  0.69371777533E+02  0.00000000000E+00 0.  1.
          2    1    1    2  501    0  0.54803829782E+01  0.19545954825E+02  0.10334096862E+02  0.22778773135E+02  0.00000000000E+00 0. -1.
         -2    1    1    2    0  503 -0.54803829782E+01 -0.19545954825E+02 -0.61518075161E+02  0.64780803631E+02  0.00000000000E+00 0.  1.
</event>
<event>
 4    1  0.1762646E+004  0.2316180E+02  0.7546771E-02  0.1490476E+00
         21   -1    0    0  501  502  0.00000000000E+00  0.00000000000E+00  0.22486942266E+03  0.22486942266E+03  0.00000000000E+00 0. -1.
         21   -1    0    0  502  503 -0.00000000000E+00 -0.00000000000E+00 -0.64497698407E+01  0.64497698407E+01  0.00000000000E+00 0.  1.
          2    1    1    2  501    0 -0.11236207428E+02 -0.20253805301E+02  0.20101995987E+03  0.20234992773E+03  0.00000000000E+00 0. -1.
         -2    1    1    2    0  503  0.11236207428E+02  0.20253805301E+02  0.17399692948E+02  0.28969264769E+02  0.00000000000E+00 0.  1.
</event>
<event>
 4    1  0.1762646E+004  0.2241045E+02  0.7546771E-02  0.1500037E+00
         21   -1    0    0  503  502  0.00000000000E+00  0.00000000000E+00  0.18031933719E+01  0.18031933719E+01  0.00000000000E+00 0.  1.
         21   -1    0    0  501  503 -0.00000000000E+00 -0.00000000000E+00 -0.29239012764E+03  0.29239012764E+03  0.00000000000E+00 0. -1.
          2    1    1    2  501    0 -0.19396792556E+00  0.22409611286E+02 -0.11325758758E+03  0.11545349474E+03  0.00000000000E+00 0. -1.
         -2    1    1    2    0  502  0.19396792556E+00 -0.22409611286E+02 -0.17732934669E+03  0.17873982628E+03  0.00000000000E+00 0.  1.
</event>
<event>
 4    1  0.1762646E+004  0.2074539E+02  0.7546771E-02  0.1522931E+00
         21   -1    0    0  503  502  0.00000000000E+00  0.00000000000E+00  0.17960499894E+02  0.17960499894E+02  0.00000000000E+00 0.  1.
         21   -1    0    0  501  503 -0.00000000000E+00 -0.00000000000E+00 -0.24196912829E+02  0.24196912829E+02  0.00000000000E+00 0. -1.
          2    1    1    2  501    0  0.18724103173E+02  0.89319215094E+01 -0.51946808840E+01  0.21385882516E+02  0.00000000000E+00 0.  1.
         -2    1    1    2    0  502 -0.18724103173E+02 -0.89319215094E+01 -0.10417320518E+01  0.20771530207E+02  0.00000000000E+00 0. -1.
</event>
<event>
 4    1  0.1762646E+004  0.2109906E+02  0.7546771E-02  0.1517855E+00
         21   -1    0    0  503  502  0.00000000000E+00  0.00000000000E+00  0.18818957840E+02  0.18818957840E+02  0.00000000000E+00 0.  1.
         21   -1    0    0  501  503 -0.00000000000E+00 -0.00000000000E+00 -0.78177406982E+02  0.78177406982E+02  0.00000000000E+00 0. -1.
          2    1    1    2  501    0  0.17803247989E+02 -0.11323198535E+02  0.10822232307E+02  0.23712679649E+02  0.00000000000E+00 0.  1.
         -2    1    1    2    0  502 -0.17803247989E+02  0.11323198535E+02 -0.70180681449E+02  0.73283685174E+02  0.00000000000E+00 0. -1.
</event>
<event>
 4    1  0.1762646E+004  0.2693300E+02  0.7546771E-02  0.1448282E+00
         21   -1    0    0  503  502  0.00000000000E+00  0.00000000000E+00  0.27591579803E+02  0.27591579803E+02  0.00000000000E+00 0. -1.
         21   -1    0    0  501  503 -0.00000000000E+00 -0.00000000000E+00 -0.30869021127E+02  0.30869021127E+02  0.00000000000E+00 0.  1.
          2    1    1    2  501    0  0.19785584860E+02 -0.18273406055E+02 -0.12896458226E+02  0.29861436200E+02  0.00000000000E+00 0.  1.
         -2    1    1    2    0  502 -0.19785584860E+02  0.18273406055E+02  0.96190169020E+01  0.28599164731E+02  0.00000000000E+00 0. -1.
</event>
<event>
 4    1  0.1762646E+004  0.2002613E+02  0.7546771E-02  0.1533637E+00
         21   -1    0    0  501  502  0.00000000000E+00  0.00000000000E+00  0.18978697962E+03  0.18978697962E+03  0.00000000000E+00 0.  1.
         21   -1    0    0  502  503 -0.00000000000E+00 -0.00000000000E+00 -0.21337210537E+01  0.21337210537E+01  0.00000000000E+00 0. -1.
          2    1    1    2  501    0  0.15902895960E+02  0.12171427206E+02  0.10325196260E+03  0.10517610717E+03  0.00000000000E+00 0.  1.
         -2    1    1    2    0  503 -0.15902895960E+02 -0.12171427206E+02  0.84401295968E+02  0.86744593498E+02  0.00000000000E+00 0. -1.
</event>
<event>
 4    1  0.1762646E+004  0.2851120E+02  0.7546771E-02  0.1432991E+00
         21   -1    0    0  503  502  0.00000000000E+00  0.00000000000E+00  0.43202638409E+02  0.43202638409E+02  0.00000000000E+00 0. -1.
         21   -1    0    0  501  503 -0.00000000000E+00 -0.00000000000E+00 -0.19482663791E+02  0.19482663791E+02  0.00000000000E+00 0.  1.
          2    1    1    2  501    0  0.19719910608E+01 -0.28442920522E+02  0.17659055549E+02  0.33537005225E+02  0.00000000000E+00 0. -1.
         -2    1    1    2    0  502 -0.19719910608E+01  0.28442920522E+02  0.60609190689E+01  0.29148296975E+02  0.00000000000E+00 0.  1.
</event>
<event>
 4    1  0.1762646E+004  0.2384950E+02  0.7546771E-02  0.1482098E+00
         21   -1    0    0  501  502  0.00000000000E+00  0.00000000000E+00  0.55426517877E+02  0.55426517877E+02  0.00000000000E+00 0. -1.
         21   -1    0    0  502  503 -0.00000000000E+00 -0.00000000000E+00 -0.13132271075E+02  0.13132271075E+02  0.00000000000E+00 0.  1.
          2    1    1    2  501    0  0.23811045455E+02 -0.13538085540E+01  0.37172514291E+02  0.44165535229E+02  0.00000000000E+00 0. -1.
         -2    1    1    2    0  503 -0.23811045455E+02  0.13538085540E+01  0.51217325110E+01  0.24393253723E+02  0.00000000000E+00 0.  1.
</event>
<event>
 4    1  0.1762646E+004  0.2996426E+02  0.7546771E-02  0.1419907E+00
         21   -1    0    0  503  502  0.00000000000E+00  0.00000000000E+00  0.91412088391E+02  0.91412088391E+02  0.00000000000E+00 0. -1.
         21   -1    0    0  501  503 -0.00000000000E+00 -0.00000000000E+00 -0.13716375875E+02  0.13716375875E+02  0.00000000000E+00 0.  1.
          2    1    1    2  501    0 -0.50287813093E+01  0.29539268946E+02  0.10839670237E+02  0.31864643450E+02  0.00000000000E+00 0.  1.
         -2    1    1    2    0  502  0.50287813093E+01 -0.29539268946E+02  0.66856042279E+02  0.73263820816E+02  0.00000000000E+00 0. -1.
</event>
<event>
 4    1  0.1762646E+004  0.3261122E+02  0.7546771E-02  0.1398182E+00
         21   -1    0    0  501  502  0.00000000000E+00  0.00000000000E+00  0.31107107230E+02  0.31107107230E+02  0.00000000000E+00 0.  1.
         21   -1    0    0  502  503 -0.00000000000E+00 -0.00000000000E+00 -0.41321720889E+02  0.41321720889E+02  0.00000000000E+00 0. -1.
          2    1    1    2  501    0  0.31826335876E+02 -0.71116672680E+01  0.99396498635E+01  0.34092346737E+02  0.00000000000E+00 0.  1.
         -2    1    1    2    0  503 -0.31826335876E+02  0.71116672680E+01 -0.20154263523E+02  0.38336481382E+02  0.00000000000E+00 0. -1.
</event>
<event>
 4    1  0.1762646E+004  0.2296687E+02  0.7546771E-02  0.1492915E+00
         21   -1    0    0  501  502  0.00000000000E+00  0.00000000000E+00  0.25326079661E+02  0.25326079661E+02  0.00000000000E+00 0.  1.
         21   -1    0    0  502  503 -0.00000000000E+00 -0.00000000000E+00 -0.52303565101E+02  0.52303565101E+02  0.00000000000E+00 0. -1.
          2    1    1    2  501    0 -0.17966336161E+02 -0.14306915359E+02  0.16622084146E+02  0.28350850843E+02  0.00000000000E+00 0.  1.
         -2    1    1    2    0  503  0.17966336161E+02  0.14306915359E+02 -0.43599569586E+02  0.49278793920E+02  0.00000000000E+00 0. -1.
</event>
<event>
 4    1  0.1762646E+004  0.2123537E+02  0.7546771E-02  0.1515931E+00
         21   -1    0    0  501  502  0.00000000000E+00  0.00000000000E+00  0.29031121172E+01  0.29031121172E+01  0.00000000000E+00 0.  1.
         21   -1    0    0  502  503 -0.00000000000E+00 -0.00000000000E+00 -0.17705299334E+03  0.17705299334E+03  0.00000000000E+00 0. -1.
          2    1    1    2  501    0  0.52636385753E+01  0.20572679592E+02 -0.55558104490E+02  0.59478096903E+02  0.00000000000E+00 0.  1.
         -2    1    1    2    0  503 -0.52636385753E+01 -0.20572679592E+02 -0.11859177673E+03  0.12047800855E+03  0.00000000000E+00 0. -1.
</event>
<event>
 4    1  0.1762646E+004  0.2413290E+02  0.7546771E-02  0.1478742E+00
         21   -1    0    0  503  502  0.00000000000E+00  0.00000000000E+00  0.13134578194E+03  0.13134578194E+03  0.00000000000E+00 0. -1.
         21   -1    0    0  501  503 -0.00000000000E+00 -0.00000000000E+00 -0.10125948511E+02  0.10125948511E+02  0.00000000000E+00 0.  1.
          2    1    1    2  501    0 -0.20037088922E+02 -0.13450357105E+02  0.75765210228E+01  0.25294282151E+02  0.00000000000E+00 0.  1.
         -2    1    1    2    0  502  0.20037088922E+02  0.13450357105E+02  0.11364331241E+03  0.11617744830E+03  0.00000000000E+00 0. -1.
</event>
<event>
 4    1  0.1762646E+004  0.2058282E+02  0.7546771E-02  0.1525305E+00
         21   -1    0    0  503  502  0.00000000000E+00  0.00000000000E+00  0.40614629798E+02  0.40614629798E+02  0.00000000000E+00 0. -1.
         21   -1    0    0  501  503 -0.00000000000E+00 -0.00000000000E+00 -0.15020104708E+02  0.15020104708E+02  0.00000000000E+00 0.  1.
          2    1    1    2  501    0 -0.20475269868E+02 -0.21013494998E+01 -0.25786958997E+01  0.20743722386E+02  0.00000000000E+00 0.  1.
         -2    1    1    2    0  502  0.20475269868E+02  0.21013494998E+01  0.28173220990E+02  0.34891012121E+02  0.00000000000E+00 0. -1.
</event>
<event>
 4    1  0.1762646E+004  0.2636810E+02  0.7546771E-02  0.1454061E+00
         21   -1    0    0  503  502  0.00000000000E+00  0.00000000000E+00  0.10101256176E+03  0.10101256176E+03  0.00000000000E+00 0. -1.
         21   -1    0    0  501  503 -0.00000000000E+00 -0.00000000000E+00 -0.73833752451E+01  0.73833752451E+01  0.00000000000E+00 0.  1.
          2    1    1    2  501    0 -0.16072712194E+02 -0.20903222557E+02  0.32706381778E+02  0.42011715028E+02  0.00000000000E+00 0.  1.
         -2    1    1    2    0  502  0.16072712194E+02  0.20903222557E+02  0.60922804738E+02  0.66384221979E+02  0.00000000000E+00 0. -1.
</event>
<event>
 4    1  0.1762646E+004  0.2447067E+02  0.7546771E-02  0.1474813E+00
         21   -1    0    0  501  502  0.00000000000E+00  0.00000000000E+00  0.95925188054E+02  0.95925188054E+02  0.00000000000E+00 0.  1.
         21   -1    0    0  502  503 -0.00000000000E+00 -0.00000000000E+00 -0.90021329309E+01  0.90021329309E+01  0.00000000000E+00 0. -1.
          2    1    1    2  501    0  0.14877966520E+02  0.19428325925E+02  0.72509172177E+02  0.76527078774E+02  0.00000000000E+00 0.  1.
         -2    1    1    2    0  503 -0.14877966520E+02 -0.19428325925E+02  0.14413882946E+02  0.28400242210E+02  0.00000000000E+00 0. -1.
</event>
<event>
 4    1  0.1762646E+004  0.2573326E+02  0.7546771E-02  0.1460765E+00
         21   -1    0    0  503  502  0.00000000000E+00  0.00000000000E+00  0.37451547744E+02  0.37451547744E+02  0.00000000000E+00 0.  1.
         21   -1    0    0  501  503 -0.00000000000E+00 -0.00000000000E+00 -0.19198460383E+03  0.19198460383E+03  0.00000000000E+00 0. -1.
          2    1    1    2  501    0 -0.10534779523E+02 -0.23478052966E+02 -0.18657433461E+03  0.18834060339E+03  0.00000000000E+00 0. -1.
         -2    1    1    2    0  502  0.10534779523E+02  0.23478052966E+02  0.32041278526E+02  0.41095548181E+02  0.00000000000E+00 0.  1.
</event>
<event>
 4    1  0.1762646E+004  0.2980009E+02  0.7546771E-02  0.1421342E+00
         21   -1    0    0  501  502  0.00000000000E+00  0.00000000000E+00  0.24793263624E+02  0.24793263624E+02  0.00000000000E+00 0. -1.
         21   -1    0    0  502  503 -0.00000000000E+00 -0.00000000000E+00 -0.37903190129E+02  0.37903190129E+02  0.00000000000E+00 0.  1.
          2    1    1    2  501    0 -0.18852659511E+02  0.23078623379E+02  0.79771872752E+00  0.29810769579E+02  0.00000000000E+00 0. -1.
         -2    1    1    2    0  503  0.18852659511E+02 -0.23078623379E+02 -0.13907645233E+02  0.32885684175E+02  0.00000000000E+00 0.  1.
</event>
<event>
 4    1  0.1762646E+004  0.2078921E+02  0.7546771E-02  0.1522296E+00
         21   -1    0    0  501  502  0.00000000000E+00  0.00000000000E+00  0.43730978233E+02  0.43730978233E+02  0.00000000000E+00 0. -1.
         21   -1    0    0  502  503 -0.00000000000E+00 -0.00000000000E+00 -0.15634183428E+02  0.15634183428E+02  0.00000000000E+00 0.  1.
          2    1    1    2  501    0 -0.20105449869E+02  0.52879404981E+01  0.32051371064E+02  0.38203165003E+02  0.00000000000E+00 0. -1.
         -2    1    1    2    0  503  0.20105449869E+02 -0.52879404981E+01 -0.39545762593E+01  0.21161996658E+02  0.00000000000E+00 0.  1.
</event>
<event>
 4    1  0.1762646E+004  0.2772365E+02  0.7546771E-02  0.1440471E+00
         21   -1    0    0  503  502  0.00000000000E+00  0.00000000000E+00  0.32675528766E+02  0.32675528766E+02  0.00000000000E+00 0.  1.
         21   -1    0    0  501  503 -0.00000000000E+00 -0.00000000000E+00 -0.67844821713E+02  0.67844821713E+02  0.00000000000E+00 0. -1.
          2    1    1    2  501    0 -0.21108740239E+02  0.17972802805E+02 -0.58208239388E+02  0.64473247846E+02  0.00000000000E+00 0. -1.
         -2    1    1    2    0  502  0.21108740239E+02 -0.17972802805E+02  0.23038946441E+02  0.36047102634E+02  0.00000000000E+00 0.  1.
</event>
<event>
 4    1  0.1762646E+004  0.6596826E+02  0.7546771E-02  0.1240800E+00
         21   -1    0    0  503  502  0.00000000000E+00  0.00000000000E+00  0.42830784590E+02  0.42830784590E+02  0.00000000000E+00 0.  1.
         21   -1    0    0  501  503 -0.00000000000E+00 -0.00000000000E+00 -0.17520464149E+03  0.17520464149E+03  0.00000000000E+00 0. -1.
          2    1    1    2  501    0 -0.24653206601E+02  0.61188484415E+02 -0.13684517348E+03  0.15191580802E+03  0.00000000000E+00 0. -1.
         -2    1    1    2    0  502  0.24653206601E+02 -0.61188484415E+02  0.44713165812E+01  0.66119618063E+02  0.00000000000E+00 0.  1.
</event>
<event>
 4    1  0.1762646E+004  0.2408854E+02  0.7546771E-02  0.1479264E+00
         21   -1    0    0  501  502  0.00000000000E+00  0.00000000000E+00  0.89879216903E+02  0.89879216903E+02  0.00000000000E+00 0.  1.
         21   -1    0    0  502  503 -0.00000000000E+00 -0.00000000000E+00 -0.21011987700E+02  0.21011987700E+02  0.00000000000E+00 0. -1.
          2    1    1    2  501    0 -0.46460793988E+01  0.23636236229E+02  0.80581817429E+02  0.84105213970E+02  0.00000000000E+00 0.  1.
         -2    1    1    2    0  503  0.46460793988E+01 -0.23636236229E+02 -0.11714588226E+02  0.26785990632E+02  0.00000000000E+00 0. -1.
</event>
<event>
 4    1  0.1762646E+004  0.2171418E+02  0.7546771E-02  0.1509308E+00
         21   -1    0    0  503  502  0.00000000000E+00  0.00000000000E+00  0.16428425978E+02  0.16428425978E+02  0.00000000000E+00 0. -1.
         21   -1    0    0  501  503 -0.00000000000E+00 -0.00000000000E+00 -0.60514549816E+02  0.60514549816E+02  0.00000000000E+00 0.  1.
          2    1    1    2  501    0 -0.21464203137E+02  0.32853629735E+01 -0.49937518099E+02  0.54454213244E+02  0.00000000000E+00 0.  1.
         -2    1    1    2    0  502  0.21464203137E+02 -0.32853629735E+01  0.58513942613E+01  0.22488762549E+02  0.00000000000E+00 0. -1.
</event>
<event>
 4    1  0.1762646E+004  0.2438668E+02  0.7546771E-02  0.1475783E+00
         21   -1    0    0  501  502  0.00000000000E+00  0.00000000000E+00  0.10695563132E+02  0.10695563132E+02  0.00000000000E+00 0. -1.
         21   -1    0    0  502  503 -0.00000000000E+00 -0.00000000000E+00 -0.57874738209E+02  0.57874738209E+02  0.00000000000E+00 0.  1.
          2    1    1    2  501    0  0.74431487439E+01 -0.23223040536E+02 -0.30381606208E+02  0.38958337628E+02  0.00000000000E+00 0.  1.
         -2    1    1    2    0  503 -0.74431487439E+01  0.23223040536E+02 -0.16797568870E+02  0.29611963713E+02  0.00000000000E+00 0. -1.
</event>
<event>
 4    1  0.1762646E+004  0.2873930E+02  0.7546771E-02  0.1430878E+00
         21   -1    0    0  503  502  0.00000000000E+00  0.00000000000E+00  0.60535256119E+00  0.60535256119E+00  0.00000000000E+00 0. -1.
         21   -1    0    0  501  503 -0.00000000000E+00 -0.00000000000E+00 -0.22756970918E+04  0.22756970918E+04  0.00000000000E+00 0.  1.
          2    1    1    2  501    0  0.17576232323E+02  0.22738146318E+02 -0.18577756558E+04  0.18579979372E+04  0.00000000000E+00 0.  1.
         -2    1    1    2    0  502 -0.17576232323E+02 -0.22738146318E+02 -0.41731608340E+03  0.41830450716E+03  0.00000000000E+00 0. -1.
</event>
<event>
 4    1  0.1762646E+004  0.2475183E+02  0.7546771E-02  0.1471599E+00
         21   -1    0    0  501  502  0.00000000000E+00  0.00000000000E+00  0.94703000380E+01  0.94703000380E+01  0.00000000000E+00 0. -1.
         21   -1    0    0  502  503 -0.00000000000E+00 -0.00000000000E+00 -0.14693323333E+03  0.14693323333E+03  0.00000000000E+00 0.  1.
          2    1    1    2  501    0  0.20115268562E+02  0.14423214883E+02 -0.10225358083E+02  0.26780797315E+02  0.00000000000E+00 0. -1.
         -2    1    1    2    0  503 -0.20115268562E+02 -0.14423214883E+02 -0.12723757521E+03  0.12962273606E+03  0.00000000000E+00 0.  1.
</event>
<event>
 4    1  0.1762646E+004  0.2066942E+02  0.7546771E-02  0.1524037E+00
         21   -1    0    0  501  502  0.00000000000E+00  0.00000000000E+00  0.45613123806E+01  0.45613123806E+01  0.00000000000E+00 0. -1.
         21   -1    0    0  502  503 -0.00000000000E+00 -0.00000000000E+00 -0.94786780675E+02  0.94786780675E+02  0.00000000000E+00 0.  1.
          2    1    1    2  501    0 -0.65352396950E+01 -0.19609067539E+02 -0.50522171376E+02  0.54586762939E+02  0.00000000000E+00 0.  1.
         -2    1    1    2    0  503  0.65352396950E+01  0.19609067539E+02 -0.39703296919E+02  0.44761330117E+02  0.00000000000E+00 0. -1.
</event>
<event>
 4    1  0.1762646E+004  0.2037026E+02  0.7546771E-02  0.1528449E+00
         21   -1    0    0  503  502  0.00000000000E+00  0.00000000000E+00  0.21651136399E+03  0.21651136399E+03  0.00000000000E+00 0. -1.
         21   -1    0    0  501  503 -0.00000000000E+00 -0.00000000000E+00 -0.20115285787E+01  0.20115285787E+01  0.00000000000E+00 0.  1.
          2    1    1    2  501    0  0.63274952029E+01 -0.19362603295E+02  0.83503765492E+02  0.85952466243E+02  0.00000000000E+00 0.  1.
         -2    1    1    2    0  502 -0.63274952029E+01  0.19362603295E+02  0.13099606992E+03  0.13257042633E+03  0.00000000000E+00 0. -1.
</event>
<event>
 4    1  0.1762646E+004  0.2192603E+02  0.7546771E-02  0.1506443E+00
         21   -1    0    0  501  502  0.00000000000E+00  0.00000000000E+00  0.20901000290E+04  0.20901000290E+04  0.00000000000E+00 0. -1.
         21   -1    0    0  502  503 -0.00000000000E+00 -0.00000000000E+00 -0.23421002471E+00  0.23421002471E+00  0.00000000000E+00 0.  1.
          2    1    1    2  501    0  0.13831634764E+02  0.17012844257E+02  0.11848380465E+04  0.11850409054E+04  0.00000000000E+00 0. -1.
         -2    1    1    2    0  503 -0.13831634764E+02 -0.17012844257E+02  0.90502777248E+03  0.90529333365E+03  0.00000000000E+00 0.  1.
</event>
<event>
 4    1  0.1762646E+004  0.2657400E+02  0.7546771E-02  0.1451935E+00
         21   -1    0    0  503  502  0.00000000000E+00  0.00000000000E+00  0.74700203732E+03  0.74700203732E+03  0.00000000000E+00 0. -1.
         21   -1    0    0  501  503 -0.00000000000E+00 -0.00000000000E+00 -0.34958608945E+01  0.34958608945E+01  0.00000000000E+00 0.  1.
          2    1    1    2  501    0 -0.36144739949E+01 -0.26327040760E+02  0.51232371838E+02  0.57714239331E+02  0.00000000000E+00 0.  1.
         -2    1    1    2    0  502  0.36144739949E+01  0.26327040760E+02  0.69227380459E+03  0.69278365888E+03  0.00000000000E+00 0. -1.
</event>
<event>
 4    1  0.1762646E+004  0.2012085E+02  0.7546771E-02  0.1532196E+00
         21   -1    0    0  503  502  0.00000000000E+00  0.00000000000E+00  0.73648604728E+02  0.73648604728E+02  0.00000000000E+00 0.  1.
         21   -1    0    0  501  503 -0.00000000000E+00 -0.00000000000E+00 -0.60215802463E+01  0.60215802463E+01  0.00000000000E+00 0. -1.
          2    1    1    2  501    0  0.16723073226E+02 -0.11188710022E+02  0.22056278626E+02  0.29855114082E+02  0.00000000000E+00 0. -1.
         -2    1    1    2    0  502 -0.16723073226E+02  0.11188710022E+02  0.45570745856E+02  0.49815070892E+02  0.00000000000E+00 0.  1.
</event>
<event>
 4    1  0.1762646E+004  0.2016308E+02  0.7546771E-02  0.1531557E+00
         21   -1    0    0  503  502  0.00000000000E+00  0.00000000000E+00  0.78613965741E+03  0.78613965741E+03  0.00000000000E+00 0. -1.
         21   -1    0    0  501  503 -0.00000000000E+00 -0.00000000000E+00 -0.54007216578E+00  0.54007216578E+00  0.00000000000E+00 0.  1.
          2    1    1    2  501    0 -0.13917463732E+02 -0.14589516238E+02  0.47383954840E+03  0.47426834958E+03  0.00000000000E+00 0.  1.
         -2    1    1    2    0  502  0.13917463732E+02  0.14589516238E+02  0.31176003684E+03  0.31241138000E+03  0.00000000000E+00 0. -1.
</event>
<event>
 4    1  0.1762646E+004  0.2894964E+02  0.7546771E-02  0.1428949E+00
         21   -1    0    0  503  502  0.00000000000E+00  0.00000000000E+00  0.58440308802E+02  0.58440308802E+02  0.00000000000E+00 0. -1.
         21   -1    0    0  501  503 -0.00000000000E+00 -0.00000000000E+00 -0.14817009703E+02  0.14817009703E+02  0.00000000000E+00 0.  1.
          2    1    1    2  501    0  0.73639752294E+01  0.27997388482E+02  0.15245191434E+02  0.32718461988E+02  0.00000000000E+00 0.  1.
         -2    1    1    2    0  502 -0.73639752294E+01 -0.27997388482E+02  0.28378107666E+02  0.40538856517E+02  0.00000000000E+00 0. -1.
</event>
<event>
 4    1  0.1762646E+004  0.2032227E+02  0.7546771E-02  0.1529165E+00
         21   -1    0    0  501  502  0.00000000000E+00  0.00000000000E+00  0.16636473305E+03  0.16636473305E+03  0.00000000000E+00 0. -1.
         21   -1    0    0  502  503 -0.00000000000E+00 -0.00000000000E+00 -0.42425068828E+01  0.42425068828E+01  0.00000000000E+00 0.  1.
          2    1    1    2  501    0  0.10284363466E+02 -0.17527880521E+02  0.13600477618E+03  0.13751470420E+03  0.00000000000E+00 0. -1.
         -2    1    1    2    0  503 -0.10284363466E+02  0.17527880521E+02  0.26117449993E+02  0.33092535739E+02  0.00000000000E+00 0.  1.
</event>
<event>
 4    1  0.1762646E+004  0.7138397E+02  0.7546771E-02  0.1225400E+00
         21   -1    0    0  503  502  0.00000000000E+00  0.00000000000E+00  0.43911459219E+02  0.43911459219E+02  0.00000000000E+00 0.  1.
         21   -1    0    0  501  503 -0.00000000000E+00 -0.00000000000E+00 -0.11873396749E+03  0.11873396749E+03  0.00000000000E+00 0. -1.
          2    1    1    2  501    0  0.28236579274E+02  0.65561931121E+02 -0.49651208033E+02  0.86953514480E+02  0.00000000000E+00 0. -1.
         -2    1    1    2    0  502 -0.28236579274E+02 -0.65561931121E+02 -0.25171300239E+02  0.75691912230E+02  0.00000000000E+00 0.  1.
</event>
<event>
 4    1  0.1762646E+004  0.2230188E+02  0.7546771E-02  0.1501456E+00
         21   -1    0    0  503  502  0.00000000000E+00  0.00000000000E+00  0.70669118329E+02  0.70669118329E+02  0.00000000000E+00 0. -1.
         21   -1    0    0  501  503 -0.00000000000E+00 -0.00000000000E+00 -0.77866690447E+01  0.77866690447E+01  0.00000000000E+00 0.  1.
          2    1    1    2  501    0 -0.22291312186E+02  0.68652225716E+00  0.43604343635E+02  0.48976654598E+02  0.00000000000E+00 0. -1.
         -2    1    1    2    0  502  0.22291312186E+02 -0.68652225716E+00  0.19278105649E+02  0.29479132776E+02  0.00000000000E+00 0.  1.
</event>
<event>
 4    1  0.1762646E+004  0.3035227E+02  0.7546771E-02  0.1416559E+00
         21   -1    0    0  503  502  0.00000000000E+00  0.00000000000E+00  0.94569644615E+01  0.94569644615E+01  0.00000000000E+00 0.  1.
         21   -1    0    0  501  503 -0.00000000000E+00 -0.00000000000E+00 -0.10519046453E+03  0.10519046453E+03  0.00000000000E+00 0. -1.
          2    1    1    2  501    0 -0.29283642103E+02  0.79830377078E+01 -0.32282761605E+02  0.44310690388E+02  0.00000000000E+00 0.  1.
         -2    1    1    2    0  502  0.29283642103E+02 -0.79830377078E+01 -0.63450738468E+02  0.70336738608E+02  0.00000000000E+00 0. -1.
</event>
<event>
 4    1  0.1762646E+004  0.2926297E+02  0.7546771E-02  0.1426111E+00
         21   -1    0    0  503  502  0.00000000000E+00  0.00000000000E+00  0.13313474884E+03  0.13313474884E+03  0.00000000000E+00 0.  1.
         21   -1    0    0  501  503 -0.00000000000E+00 -0.00000000000E+00 -0.84469629357E+01  0.84469629357E+01  0.00000000000E+00 0. -1.
          2    1    1    2  501    0  0.24122042875E+02  0.16566481139E+02  0.27768941626E+02  0.40341484465E+02  0.00000000000E+00 0. -1.
         -2    1    1    2    0  502 -0.24122042875E+02 -0.16566481139E+02  0.96918844281E+02  0.10124022731E+03  0.00000000000E+00 0.  1.
</event>
<event>
 4    1  0.1762646E+004  0.2668904E+02  0.7546771E-02  0.1450757E+00
         21   -1    0    0  503  502  0.00000000000E+00  0.00000000000E+00  0.24429840052E+03  0.24429840052E+03  0.00000000000E+00 0.  1.
         21   -1    0    0  501  503 -0.00000000000E+00 -0.00000000000E+00 -0.29625785460E+01  0.29625785460E+01  0.00000000000E+00 0. -1.
          2    1    1    2  501    0  0.23076330483E+02  0.13408496298E+02  0.13621691992E+03  0.13880689491E+03  0.00000000000E+00 0.  1.
         -2    1    1    2    0  502 -0.23076330483E+02 -0.13408496298E+02  0.10511890205E+03  0.10845408416E+03  0.00000000000E+00 0. -1.
</event>
<event>
 4    1  0.1762646E+004  0.3212793E+02  0.7546771E-02  0.1401963E+00
         21   -1    0    0  503  502  0.00000000000E+00  0.00000000000E+00  0.77987213087E+03  0.77987213087E+03  0.00000000000E+00 0. -1.
         21   -1    0    0  501  503 -0.00000000000E+00 -0.00000000000E+00 -0.20200563801E+01  0.20200563801E+01  0.00000000000E+00 0.  1.
          2    1    1    2  501    0 -0.20622163480E+02 -0.24635960859E+02  0.15936619957E+03  0.16257241390E+03  0.00000000000E+00 0.  1.
         -2    1    1    2    0  502  0.20622163480E+02  0.24635960859E+02  0.61848587492E+03  0.61931977335E+03  0.00000000000E+00 0. -1.
</event>
<event>
 4    1  0.1762646E+004  0.2289673E+02  0.7546771E-02  0.1493799E+00
         21   -1    0    0  503  502  0.00000000000E+00  0.00000000000E+00  0.77300022395E+03  0.77300022395E+03  0.00000000000E+00 0.  1.
         21   -1    0    0  501  503 -0.00000000000E+00 -0.00000000000E+00 -0.69354113364E+00  0.69354113364E+00  0.00000000000E+00 0. -1.
          2    1    1    2  501    0  0.19184587955E+02  0.12498475665E+02  0.44366024565E+03  0.44425068810E+03  0.00000000000E+00 0.  1.
         -2    1    1    2    0  502 -0.19184587955E+02 -0.12498475665E+02  0.32864643717E+03  0.32944307699E+03  0.00000000000E+00 0. -1.
</event>
<event>
 4    1  0.1762646E+004  0.3594299E+02  0.7546771E-02  0.1374052E+00
         21   -1    0    0  503  502  0.00000000000E+00  0.00000000000E+00  0.14369395122E+03  0.14369395122E+03  0.00000000000E+00 0. -1.
         21   -1    0    0  501  503 -0.00000000000E+00 -0.00000000000E+00 -0.71713827771E+02  0.71713827771E+02  0.00000000000E+00 0.  1.
          2    1    1    2  501    0 -0.11220392357E+02 -0.34146759230E+02 -0.64736509305E+02  0.74045351019E+02  0.00000000000E+00 0.  1.
         -2    1    1    2    0  502  0.11220392357E+02  0.34146759230E+02  0.13671663276E+03  0.14136242797E+03  0.00000000000E+00 0. -1.
</event>
<event>
 4    1  0.1762646E+004  0.2199751E+02  0.7546771E-02  0.1505485E+00
         21   -1    0    0  503  502  0.00000000000E+00  0.00000000000E+00  0.10356418846E+02  0.10356418846E+02  0.00000000000E+00 0.  1.
         21   -1    0    0  501  503 -0.00000000000E+00 -0.00000000000E+00 -0.21912558791E+03  0.21912558791E+03  0.00000000000E+00 0. -1.
          2    1    1    2  501    0  0.48429134432E+01 -0.21457783435E+02 -0.20616004968E+03  0.20733030739E+03  0.00000000000E+00 0. -1.
         -2    1    1    2    0  502 -0.48429134432E+01  0.21457783435E+02 -0.26091193822E+01  0.22151699359E+02  0.00000000000E+00 0.  1.
</event>
<event>
 4    1  0.1762646E+004  0.2767932E+02  0.7546771E-02  0.1440901E+00
         21   -1    0    0  501  502  0.00000000000E+00  0.00000000000E+00  0.43801629384E+01  0.43801629384E+01  0.00000000000E+00 0. -1.
         21   -1    0    0  502  503 -0.00000000000E+00 -0.00000000000E+00 -0.19757755997E+03  0.19757755997E+03  0.00000000000E+00 0.  1.
          2    1    1    2  501    0  0.10433221782E+02  0.25637723198E+02 -0.62397548077E+02  0.68261255288E+02  0.00000000000E+00 0. -1.
         -2    1    1    2    0  503 -0.10433221782E+02 -0.25637723198E+02 -0.13079984895E+03  0.13369646762E+03  0.00000000000E+00 0.  1.
</event>
<event>
 4    1  0.1762646E+004  0.4517259E+02  0.7546771E-02  0.1320579E+00
         21   -1    0    0  501  502  0.00000000000E+00  0.00000000000E+00  0.69454480363E+02  0.69454480363E+02  0.00000000000E+00 0.  1.
         21   -1    0    0  502  503 -0.00000000000E+00 -0.00000000000E+00 -0.49995903978E+02  0.49995903978E+02  0.00000000000E+00 0. -1.
          2    1    1    2  501    0  0.93209569577E+00 -0.45162968459E+02  0.48081734257E+02  0.65972840560E+02  0.00000000000E+00 0.  1.
         -2    1    1    2    0  503 -0.93209569577E+00  0.45162968459E+02 -0.28623157872E+02  0.53477543782E+02  0.00000000000E+00 0. -1.
</event>
<event>
 4    1  0.1762646E+004  0.3788786E+02  0.7546771E-02  0.1361328E+00
         21   -1    0    0  501  502  0.00000000000E+00  0.00000000000E+00  0.31052791735E+02  0.31052791735E+02  0.00000000000E+00 0. -1.
         21   -1    0    0  502  503 -0.00000000000E+00 -0.00000000000E+00 -0.86195083731E+02  0.86195083731E+02  0.00000000000E+00 0.  1.
          2    1    1    2  501    0  0.37457762436E+02  0.56926206049E+01  0.12348641060E+02  0.39849452093E+02  0.00000000000E+00 0. -1.
         -2    1    1    2    0  503 -0.37457762436E+02 -0.56926206049E+01 -0.67490933055E+02  0.77398423373E+02  0.00000000000E+00 0.  1.
</event>
<event>
 4    1  0.1762646E+004  0.3081687E+02  0.7546771E-02  0.1412628E+00
         21   -1    0    0  503  502  0.00000000000E+00  0.00000000000E+00  0.64108844548E+01  0.64108844548E+01  0.00000000000E+00 0. -1.
         21   -1    0    0  501  503 -0.00000000000E+00 -0.00000000000E+00 -0.14814288556E+03  0.14814288556E+03  0.00000000000E+00 0.  1.
          2    1    1    2  501    0  0.12235541583E+02 -0.28283762765E+02 -0.71410827773E+02  0.77776513403E+02  0.00000000000E+00 0.  1.
         -2    1    1    2    0  502 -0.12235541583E+02  0.28283762765E+02 -0.70321173335E+02  0.76777256615E+02  0.00000000000E+00 0. -1.
</event>
<event>
 4    1  0.1762646E+004  0.3216133E+02  0.7546771E-02  0.1401699E+00
         21   -1    0    0  503  502  0.00000000000E+00  0.00000000000E+00  0.18577884588E+03  0.18577884588E+03  0.00000000000E+00 0.  1.
         21   -1    0    0  501  503 -0.00000000000E+00 -0.00000000000E+00 -0.83211892467E+01  0.83211892467E+01  0.00000000000E+00 0. -1.
          2    1    1    2  501    0  0.14167715474E+02 -0.28872599584E+02  0.32901257175E+02  0.46009171827E+02  0.00000000000E+00 0. -1.
         -2    1    1    2    0  502 -0.14167715474E+02  0.28872599584E+02  0.14455639946E+03  0.14809086330E+03  0.00000000000E+00 0.  1.
</event>
<event>
 4    1  0.1762646E+004  0.2540435E+02  0.7546771E-02  0.1464330E+00
         21   -1    0    0  501  502  0.00000000000E+00  0.00000000000E+00  0.19872766898E+03  0.19872766898E+03  0.00000000000E+00 0.  1.
         21   -1    0    0  502  503 -0.00000000000E+00 -0.00000000000E+00 -0.36761326554E+01  0.36761326554E+01  0.00000000000E+00 0. -1.
          2    1    1    2  501    0  0.21226888821E+02 -0.13957091004E+02  0.13208008643E+03  0.13450104248E+03  0.00000000000E+00 0.  1.
         -2    1    1    2    0  503 -0.21226888821E+02  0.13957091004E+02  0.62971449895E+02  0.67902759150E+02  0.00000000000E+00 0. -1.
</event>
<event>
 4    1  0.1762646E+004  0.2111016E+02  0.7546771E-02  0.1517698E+00
         21   -1    0    0  501  502  0.00000000000E+00  0.00000000000E+00  0.33960534797E+01  0.33960534797E+01  0.00000000000E+00 0.  1.
         21   -1    0    0  502  503 -0.00000000000E+00 -0.00000000000E+00 -0.20853110513E+03  0.20853110513E+03  0.00000000000E+00 0. -1.
          2    1    1    2  501    0  0.20171088905E+02 -0.62262465546E+01 -0.38048941447E+02  0.43512767310E+02  0.00000000000E+00 0.  1.
         -2    1    1    2    0  503 -0.20171088905E+02  0.62262465546E+01 -0.16708611020E+03  0.16841439129E+03  0.00000000000E+00 0. -1.
</event>
<event>
 4    1  0.1762646E+004  0.2792558E+02  0.7546771E-02  0.1438526E+00
         21   -1    0    0  503  502  0.00000000000E+00  0.00000000000E+00  0.23394430746E+03  0.23394430746E+03  0.00000000000E+00 0.  1.
         21   -1    0    0  501  503 -0.00000000000E+00 -0.00000000000E+00 -0.52854894872E+01  0.52854894872E+01  0.00000000000E+00 0. -1.
          2    1    1    2  501    0 -0.15936857310E+02 -0.22931523171E+02  0.41637073645E+02  0.50134659444E+02  0.00000000000E+00 0. -1.
         -2    1    1    2    0  502  0.15936857310E+02  0.22931523171E+02  0.18702174432E+03  0.18909513750E+03  0.00000000000E+00 0.  1.
</event>
<event>
 4    1  0.1762646E+004  0.3531804E+02  0.7546771E-02  0.1378341E+00
         21   -1    0    0  503  502  0.00000000000E+00  0.00000000000E+00  0.27728171837E+02  0.27728171837E+02  0.00000000000E+00 0. -1.
         21   -1    0    0  501  503 -0.00000000000E+00 -0.00000000000E+00 -0.45268532628E+02  0.45268532628E+02  0.00000000000E+00 0.  1.
          2    1    1    2  501    0  0.24600197910E+02 -0.25341555658E+02 -0.11656434930E+02  0.37191889649E+02  0.00000000000E+00 0.  1.
         -2    1    1    2    0  502 -0.24600197910E+02  0.25341555658E+02 -0.58839258616E+01  0.35804814815E+02  0.00000000000E+00 0. -1.
</event>
<event>
 4    1  0.1762646E+004  0.5666980E+02  0.7546771E-02  0.1271587E+00
         21   -1    0    0  503  502  0.00000000000E+00  0.00000000000E+00  0.72867209934E+01  0.72867209934E+01  0.00000000000E+00 0.  1.
         21   -1    0    0  501  503 -0.00000000000E+00 -0.00000000000E+00 -0.54395199952E+03  0.54395199952E+03  0.00000000000E+00 0. -1.
          2    1    1    2  501    0 -0.85977457588E+01 -0.56013795602E+02 -0.38839820077E+03  0.39251067360E+03  0.00000000000E+00 0. -1.
         -2    1    1    2    0  502  0.85977457588E+01  0.56013795602E+02 -0.14826707775E+03  0.15872804691E+03  0.00000000000E+00 0.  1.
</event>
<event>
 4    1  0.1762646E+004  0.2560916E+02  0.7546771E-02  0.1462103E+00
         21   -1    0    0  503  502  0.00000000000E+00  0.00000000000E+00  0.29811030113E+03  0.29811030113E+03  0.00000000000E+00 0. -1.
         21   -1    0    0  501  503 -0.00000000000E+00 -0.00000000000E+00 -0.84699076083E+01  0.84699076083E+01  0.00000000000E+00 0.  1.
          2    1    1    2  501    0  0.25495562762E+02 -0.24093849834E+01  0.12931687952E+02  0.28688977148E+02  0.00000000000E+00 0.  1.
         -2    1    1    2    0  502 -0.25495562762E+02  0.24093849834E+01  0.27670870557E+03  0.27789123159E+03  0.00000000000E+00 0. -1.
</event>
<event>
 4    1  0.1762646E+004  0.2691789E+02  0.7546771E-02  0.1448435E+00
         21   -1    0    0  501  502  0.00000000000E+00  0.00000000000E+00  0.81902725216E+02  0.81902725216E+02  0.00000000000E+00 0. -1.
         21   -1    0    0  502  503 -0.00000000000E+00 -0.00000000000E+00 -0.13775741831E+02  0.13775741831E+02  0.00000000000E+00 0.  1.
          2    1    1    2  501    0 -0.90136806055E+01  0.25363884377E+02  0.62679278534E+02  0.68214844618E+02  0.00000000000E+00 0. -1.
         -2    1    1    2    0  503  0.90136806055E+01 -0.25363884377E+02  0.54477048505E+01  0.27463622428E+02  0.00000000000E+00 0.  1.
</event>
<event>
 4    1  0.1762646E+004  0.2116117E+02  0.7546771E-02  0.1516976E+00
         21   -1    0    0  501  502  0.00000000000E+00  0.00000000000E+00  0.31927865284E+03  0.31927865284E+03  0.00000000000E+00 0. -1.
         21   -1    0    0  502  503 -0.00000000000E+00 -0.00000000000E+00 -0.34214557014E+01  0.34214557014E+01  0.00000000000E+00 0.  1.
          2    1    1    2  501    0  0.10036562434E+02  0.18629614096E+02  0.28187238533E+03  0.28266559168E+03  0.00000000000E+00 0. -1.
         -2    1    1    2    0  503 -0.10036562434E+02 -0.18629614096E+02  0.33984811810E+02  0.40034516865E+02  0.00000000000E+00 0.  1.
</event>
<event>
 4    1  0.1762646E+004  0.2357453E+02  0.7546771E-02  0.1485407E+00
         21   -1    0    0  501  502  0.00000000000E+00  0.00000000000E+00  0.20144365386E+02  0.20144365386E+02  0.00000000000E+00 0.  1.
         21   -1    0    0  502  503 -0.00000000000E+00 -0.00000000000E+00 -0.37956119587E+02  0.37956119587E+02  0.00000000000E+00 0. -1.
          2    1    1    2  501    0  0.22435748834E+02  0.72384718832E+01  0.62766019779E+01  0.24395779006E+02  0.00000000000E+00 0.  1.
         -2    1    1    2    0  503 -0.22435748834E+02 -0.72384718832E+01 -0.24088356179E+02  0.33704705967E+02  0.00000000000E+00 0. -1.
</event>
<event>
 4    1  0.1762646E+004  0.2232096E+02  0.7546771E-02  0.1501206E+00
         21   -1    0    0  501  502  0.00000000000E+00  0.00000000000E+00  0.14913513804E+02  0.14913513804E+02  0.00000000000E+00 0.  1.
         21   -1    0    0  502  503 -0.00000000000E+00 -0.00000000000E+00 -0.49029080766E+02  0.49029080766E+02  0.00000000000E+00 0. -1.
          2    1    1    2  501    0 -0.58213640191E+01  0.21548479518E+02  0.98875761225E+00  0.22342848749E+02  0.00000000000E+00 0.  1.
         -2    1    1    2    0  503  0.58213640191E+01 -0.21548479518E+02 -0.35104324575E+02  0.41599745822E+02  0.00000000000E+00 0. -1.
</event>
<event>
 4    1  0.1762646E+004  0.2072584E+02  0.7546771E-02  0.1523215E+00
         21   -1    0    0  503  502  0.00000000000E+00  0.00000000000E+00  0.44608873347E+03  0.44608873347E+03  0.00000000000E+00 0. -1.
         21   -1    0    0  501  503 -0.00000000000E+00 -0.00000000000E+00 -0.11137586104E+01  0.11137586104E+01  0.00000000000E+00 0.  1.
          2    1    1    2  501    0  0.18673408340E+00  0.20724999119E+02  0.14020754648E+03  0.14173114178E+03  0.00000000000E+00 0.  1.
         -2    1    1    2    0  502 -0.18673408340E+00 -0.20724999119E+02  0.30476742838E+03  0.30547135031E+03  0.00000000000E+00 0. -1.
</event>
<event>
 4    1  0.1762646E+004  0.3082425E+02  0.7546771E-02  0.1412566E+00
         21   -1    0    0  501  502  0.00000000000E+00  0.00000000000E+00  0.11640623342E+03  0.11640623342E+03  0.00000000000E+00 0.  1.
         21   -1    0    0  502  503 -0.00000000000E+00 -0.00000000000E+00 -0.92630877169E+01  0.92630877169E+01  0.00000000000E+00 0. -1.
          2    1    1    2  501    0  0.24073967846E+02  0.19250417224E+02  0.75232992286E+02  0.81302752840E+02  0.00000000000E+00 0.  1.
         -2    1    1    2    0  503 -0.24073967846E+02 -0.19250417224E+02  0.31910153413E+02  0.44366568292E+02  0.00000000000E+00 0. -1.
</event>
<event>
 4    1  0.1762646E+004  0.2108315E+02  0.7546771E-02  0.1518081E+00
         21   -1    0    0  501  502  0.00000000000E+00  0.00000000000E+00  0.18116957823E+03  0.18116957823E+03  0.00000000000E+00 0. -1.
         21   -1    0    0  502  503 -0.00000000000E+00 -0.00000000000E+00 -0.72240635899E+01  0.72240635899E+01  0.00000000000E+00 0.  1.
          2    1    1    2  501    0  0.14329895970E+02 -0.15464583859E+02  0.16352014649E+03  0.16487370191E+03  0.00000000000E+00 0. -1.
         -2    1    1    2    0  503 -0.14329895970E+02  0.15464583859E+02  0.10425368151E+02  0.23519939913E+02  0.00000000000E+00 0.  1.
</event>
<event>
 4    1  0.1762646E+004  0.2261503E+02  0.7546771E-02  0.1497390E+00
         21   -1    0    0  503  502  0.00000000000E+00  0.00000000000E+00  0.94622768995E+03  0.94622768995E+03  0.00000000000E+00 0.  1.
         21   -1    0    0  501  503 -0.00000000000E+00 -0.00000000000E+00 -0.55216641341E+00  0.55216641341E+00  0.00000000000E+00 0. -1.
          2    1    1    2  501    0  0.11544019003E+02  0.19446728330E+02  0.40403864894E+03  0.40467106328E+03  0.00000000000E+00 0.  1.
         -2    1    1    2    0  502 -0.11544019003E+02 -0.19446728330E+02  0.54163687459E+03  0.54210879308E+03  0.00000000000E+00 0. -1.
</event>
<event>
 4    1  0.1762646E+004  0.3127988E+02  0.7546771E-02  0.1408791E+00
         21   -1    0    0  501  502  0.00000000000E+00  0.00000000000E+00  0.53066484401E+03  0.53066484401E+03  0.00000000000E+00 0.  1.
         21   -1    0    0  502  503 -0.00000000000E+00 -0.00000000000E+00 -0.62552049109E+01  0.62552049109E+01  0.00000000000E+00 0. -1.
          2    1    1    2  501    0 -0.29257520185E+02 -0.11064731320E+02  0.48765373874E+03  0.48865591133E+03  0.00000000000E+00 0.  1.
         -2    1    1    2    0  503  0.29257520185E+02  0.11064731320E+02  0.36755900356E+02  0.48264137593E+02  0.00000000000E+00 0. -1.
</event>
<event>
 4    1  0.1762646E+004  0.5200415E+02  0.7546771E-02  0.1289709E+00
         21   -1    0    0  501  502  0.00000000000E+00  0.00000000000E+00  0.60442105881E+03  0.60442105881E+03  0.00000000000E+00 0.  1.
         21   -1    0    0  502  503 -0.00000000000E+00 -0.00000000000E+00 -0.68038499336E+01  0.68038499336E+01  0.00000000000E+00 0. -1.
          2    1    1    2  501    0 -0.30669639473E+02  0.41997678017E+02  0.47762972384E+03  0.48045247928E+03  0.00000000000E+00 0.  1.
         -2    1    1    2    0  503  0.30669639473E+02 -0.41997678017E+02  0.11998748503E+03  0.13077242947E+03  0.00000000000E+00 0. -1.
</event>
<event>
 4    1  0.1762646E+004  0.2064850E+02  0.7546771E-02  0.1524343E+00
         21   -1    0    0  503  502  0.00000000000E+00  0.00000000000E+00  0.70237842601E+02  0.70237842601E+02  0.00000000000E+00 0. -1.
         21   -1    0    0  501  503 -0.00000000000E+00 -0.00000000000E+00 -0.24975441983E+02  0.24975441983E+02  0.00000000000E+00 0.  1.
          2    1    1    2  501    0 -0.20647283155E+02 -0.22443461134E+00 -0.18787989843E+02  0.27916827093E+02  0.00000000000E+00 0.  1.
         -2    1    1    2    0  502  0.20647283155E+02  0.22443461134E+00  0.64050390462E+02  0.67296457491E+02  0.00000000000E+00 0. -1.
</event>
<event>
 4    1  0.1762646E+004  0.5934898E+02  0.7546771E-02  0.1262061E+00
         21   -1    0    0  503  502  0.00000000000E+00  0.00000000000E+00  0.95657426767E+01  0.95657426767E+01  0.00000000000E+00 0.  1.
         21   -1    0    0  501  503 -0.00000000000E+00 -0.00000000000E+00 -0.40818756317E+03  0.40818756317E+03  0.00000000000E+00 0. -1.
          2    1    1    2  501    0 -0.59264042805E+02  0.31741449497E+01 -0.26467082341E+03  0.27124333491E+03  0.00000000000E+00 0. -1.
         -2    1    1    2    0  502  0.59264042805E+02 -0.31741449497E+01 -0.13395099708E+03  0.14650997094E+03  0.00000000000E+00 0.  1.
</event>
<event>
 4    1  0.1762646E+004  0.2197820E+02  0.7546771E-02  0.1505743E+00
         21   -1    0    0  501  502  0.00000000000E+00  0.00000000000E+00  0.22236990730E+02  0.22236990730E+02  0.00000000000E+00 0. -1.
         21   -1    0    0  502  503 -0.00000000000E+00 -0.00000000000E+00 -0.24436279860E+02  0.24436279860E+02  0.00000000000E+00 0.  1.
          2    1    1    2  501    0 -0.16447875583E+02 -0.14577683521E+02  0.66773827813E+01  0.22970174332E+02  0.00000000000E+00 0. -1.
         -2    1    1    2    0  503  0.16447875583E+02  0.14577683521E+02 -0.88766719109E+01  0.23703096258E+02  0.00000000000E+00 0.  1.
</event>
<event>
 4    1  0.1762646E+004  0.3588843E+02  0.7546771E-02  0.1374423E+00
         21   -1    0    0  503  502  0.00000000000E+00  0.00000000000E+00  0.24501651369E+02  0.24501651369E+02  0.00000000000E+00 0. -1.
         21   -1    0    0  501  503 -0.00000000000E+00 -0.00000000000E+00 -0.65349301602E+03  0.65349301602E+03  0.00000000000E+00 0.  1.
          2    1    1    2  501    0 -0.31455177559E+02  0.17278632779E+02 -0.63957272111E+03  0.64057883584E+03  0.00000000000E+00 0.  1.
         -2    1    1    2    0  502  0.31455177559E+02 -0.17278632779E+02  0.10581356455E+02  0.37415831548E+02  0.00000000000E+00 0. -1.
</event>
<event>
 4    1  0.1762646E+004  0.2486102E+02  0.7546771E-02  0.1470364E+00
         21   -1    0    0  503  502  0.00000000000E+00  0.00000000000E+00  0.94486979860E+02  0.94486979860E+02  0.00000000000E+00 0. -1.
         21   -1    0    0  501  503 -0.00000000000E+00 -0.00000000000E+00 -0.80554381089E+01  0.80554381089E+01  0.00000000000E+00 0.  1.
          2    1    1    2  501    0 -0.10532379041E+02  0.22519752670E+02  0.20987391831E+02  0.32535225286E+02  0.00000000000E+00 0.  1.
         -2    1    1    2    0  502  0.10532379041E+02 -0.22519752670E+02  0.65444149920E+02  0.70007192683E+02  0.00000000000E+00 0. -1.
</event>
<event>
 4    1  0.1762646E+004  0.2001702E+02  0.7546771E-02  0.1533776E+00
         21   -1    0    0  503  502  0.00000000000E+00  0.00000000000E+00  0.14262771320E+03  0.14262771320E+03  0.00000000000E+00 0. -1.
         21   -1    0    0  501  503 -0.00000000000E+00 -0.00000000000E+00 -0.38418291461E+01  0.38418291461E+01  0.00000000000E+00 0.  1.
          2    1    1    2  501    0 -0.60907933734E+01  0.19067862376E+02  0.31426164786E+02  0.37259696358E+02  0.00000000000E+00 0.  1.
         -2    1    1    2    0  502  0.60907933734E+01 -0.19067862376E+02  0.10735971927E+03  0.10920984599E+03  0.00000000000E+00 0. -1.
</event>
<event>
 4    1  0.1762646E+004  0.2760121E+02  0.7546771E-02  0.1441661E+00
         21   -1    0    0  503  502  0.00000000000E+00  0.00000000000E+00  0.84303197641E+01  0.84303197641E+01  0.00000000000E+00 0. -1.
         21   -1    0    0  501  503 -0.00000000000E+00 -0.00000000000E+00 -0.19703659248E+03  0.19703659248E+03  0.00000000000E+00 0.  1.
          2    1    1    2  501    0 -0.27107349571E+02 -0.51979217245E+01 -0.16989199472E+03  0.17211948368E+03  0.00000000000E+00 0.  1.
         -2    1    1    2    0  502  0.27107349571E+02  0.51979217245E+01 -0.18714277990E+02  0.33347428562E+02  0.00000000000E+00 0. -1.
</event>
<event>
 4    1  0.1762646E+004  0.2386121E+02  0.7546771E-02  0.1481958E+00
         21   -1    0    0  503  502  0.00000000000E+00  0.00000000000E+00  0.35397601143E+02  0.35397601143E+02  0.00000000000E+00 0.  1.
         21   -1    0    0  501  503 -0.00000000000E+00 -0.00000000000E+00 -0.23601351095E+02  0.23601351095E+02  0.00000000000E+00 0. -1.
          2    1    1    2  501    0 -0.23525143571E+02  0.39905832099E+01 -0.10749804857E+02  0.26170889149E+02  0.00000000000E+00 0. -1.
         -2    1    1    2    0  502  0.23525143571E+02 -0.39905832099E+01  0.22546054905E+02  0.32828063089E+02  0.00000000000E+00 0.  1.
</event>
<event>
 4    1  0.1762646E+004  0.2607445E+02  0.7546771E-02  0.1457134E+00
         21   -1    0    0  503  502  0.00000000000E+00  0.00000000000E+00  0.57516482923E+02  0.57516482923E+02  0.00000000000E+00 0.  1.
         21   -1    0    0  501  503 -0.00000000000E+00 -0.00000000000E+00 -0.16209739668E+02  0.16209739668E+02  0.00000000000E+00 0. -1.
          2    1    1    2  501    0  0.18591456290E+01  0.26008085604E+02  0.14712901555E+01  0.26115926826E+02  0.00000000000E+00 0. -1.
         -2    1    1    2    0  502 -0.18591456290E+01 -0.26008085604E+02  0.39835453100E+02  0.47610295766E+02  0.00000000000E+00 0.  1.
</event>
<event>
 4    1  0.1762646E+004  0.2814429E+02  0.7546771E-02  0.1436440E+00
         21   -1    0    0  501  502  0.00000000000E+00  0.00000000000E+00  0.19201374966E+01  0.19201374966E+01  0.00000000000E+00 0. -1.
         21   -1    0    0  502  503 -0.00000000000E+00 -0.00000000000E+00 -0.54705162899E+03  0.54705162899E+03  0.00000000000E+00 0.  1.
          2    1    1    2  501    0  0.72059640834E+01  0.27206158573E+02 -0.13644850775E+03  0.13932083925E+03  0.00000000000E+00 0. -1.
         -2    1    1    2    0  503 -0.72059640834E+01 -0.27206158573E+02 -0.40868298375E+03  0.40965092724E+03  0.00000000000E+00 0.  1.
</event>
<event>
 4    1  0.1762646E+004  0.2253978E+02  0.7546771E-02  0.1498359E+00
         21   -1    0    0  503  502  0.00000000000E+00  0.00000000000E+00  0.47602623695E+02  0.47602623695E+02  0.00000000000E+00 0. -1.
         21   -1    0    0  501  503 -0.00000000000E+00 -0.00000000000E+00 -0.11886708707E+03  0.11886708707E+03  0.00000000000E+00 0.  1.
          2    1    1    2  501    0 -0.22130667000E+02 -0.42749516307E+01 -0.11504257528E+03  0.11722984160E+03  0.00000000000E+00 0.  1.
         -2    1    1    2    0  502  0.22130667000E+02  0.42749516307E+01  0.43778111909E+02  0.49239869167E+02  0.00000000000E+00 0. -1.
</event>
<event>
 4    1  0.1762646E+004  0.2324072E+02  0.7546771E-02  0.1489497E+00
         21   -1    0    0  503  502  0.00000000000E+00  0.00000000000E+00  0.11086168465E+03  0.11086168465E+03  0.00000000000E+00 0.  1.
         21   -1    0    0  501  503 -0.00000000000E+00 -0.00000000000E+00 -0.15796444419E+03  0.15796444419E+03  0.00000000000E+00 0. -1.
          2    1    1    2  501    0 -0.19677849913E+02 -0.12365811412E+02 -0.15587535016E+03  0.15759840055E+03  0.00000000000E+00 0. -1.
         -2    1    1    2    0  502  0.19677849913E+02  0.12365811412E+02  0.10877259062E+03  0.11122772829E+03  0.00000000000E+00 0.  1.
</event>
<event>
 4    1  0.1762646E+004  0.2019312E+02  0.7546771E-02  0.1531104E+00
         21   -1    0    0  503  502  0.00000000000E+00  0.00000000000E+00  0.11418030518E+03  0.11418030518E+03  0.00000000000E+00 0.  1.
         21   -1    0    0  501  503 -0.00000000000E+00 -0.00000000000E+00 -0.57333887232E+01  0.57333887232E+01  0.00000000000E+00 0. -1.
          2    1    1    2  501    0  0.18410631859E+02 -0.82952201511E+01  0.17403888002E+02  0.26658157483E+02  0.00000000000E+00 0.  1.
         -2    1    1    2    0  502 -0.18410631859E+02  0.82952201511E+01  0.91043028451E+02  0.93255536417E+02  0.00000000000E+00 0. -1.
</event>
<event>
 4    1  0.1762646E+004  0.2284865E+02  0.7546771E-02  0.1494407E+00
         21   -1    0    0  503  502  0.00000000000E+00  0.00000000000E+00  0.55455514897E+02  0.55455514897E+02  0.00000000000E+00 0. -1.
         21   -1    0    0  501  503 -0.00000000000E+00 -0.00000000000E+00 -0.12348086222E+02  0.12348086222E+02  0.00000000000E+00 0.  1.
          2    1    1    2  501    0  0.20985912403E+02  0.90361676214E+01  0.50281664299E+01  0.23395369250E+02  0.00000000000E+00 0.  1.
         -2    1    1    2    0  502 -0.20985912403E+02 -0.90361676214E+01  0.38079262245E+02  0.44408231870E+02  0.00000000000E+00 0. -1.
</event>
<event>
 4    1  0.1762646E+004  0.3234754E+02  0.7546771E-02  0.1400236E+00
         21   -1    0    0  501  502  0.00000000000E+00  0.00000000000E+00  0.20984592777E+02  0.20984592777E+02  0.00000000000E+00 0. -1.
         21   -1    0    0  502  503 -0.00000000000E+00 -0.00000000000E+00 -0.52639847372E+02  0.52639847372E+02  0.00000000000E+00 0.  1.
          2    1    1    2  501    0  0.21073918600E+02  0.24540856072E+02 -0.73733305089E+01  0.33177246189E+02  0.00000000000E+00 0. -1.
         -2    1    1    2    0  503 -0.21073918600E+02 -0.24540856072E+02 -0.24281924086E+02  0.40447193960E+02  0.00000000000E+00 0.  1.
</event>
<event>
 4    1  0.1762646E+004  0.2395331E+02  0.7546771E-02  0.1480862E+00
         21   -1    0    0  503  502  0.00000000000E+00  0.00000000000E+00  0.47537107279E+03  0.47537107279E+03  0.00000000000E+00 0. -1.
         21   -1    0    0  501  503 -0.00000000000E+00 -0.00000000000E+00 -0.14989310229E+01  0.14989310229E+01  0.00000000000E+00 0.  1.
          2    1    1    2  501    0  0.18868430801E+02 -0.14756131951E+02  0.13170651631E+03  0.13386697707E+03  0.00000000000E+00 0.  1.
         -2    1    1    2    0  502 -0.18868430801E+02  0.14756131951E+02  0.34216562545E+03  0.34300302674E+03  0.00000000000E+00 0. -1.
</event>
<event>
 4    1  0.1762646E+004  0.2120664E+02  0.7546771E-02  0.1516335E+00
         21   -1    0    0  501  502  0.00000000000E+00  0.00000000000E+00  0.69882102087E+03  0.69882102087E+03  0.00000000000E+00 0. -1.
         21   -1    0    0  502  503 -0.00000000000E+00 -0.00000000000E+00 -0.69622828416E+01  0.69622828416E+01  0.00000000000E+00 0.  1.
          2    1    1    2  501    0 -0.13429418093E+02 -0.16412566109E+02  0.68211626392E+03  0.68244583602E+03  0.00000000000E+00 0. -1.
         -2    1    1    2    0  503  0.13429418093E+02  0.16412566109E+02  0.97424741110E+01  0.23337467694E+02  0.00000000000E+00 0.  1.
</event>
<event>
 4    1  0.1762646E+004  0.2716423E+02  0.7546771E-02  0.1445965E+00
         21   -1    0    0  503  502  0.00000000000E+00  0.00000000000E+00  0.92587597811E+03  0.92587597811E+03  0.00000000000E+00 0.  1.
         21   -1    0    0  501  503 -0.00000000000E+00 -0.00000000000E+00 -0.93663279502E+00  0.93663279502E+00  0.00000000000E+00 0. -1.
          2    1    1    2  501    0 -0.26256842749E+02 -0.69622976074E+01  0.28352547449E+03  0.28482378774E+03  0.00000000000E+00 0. -1.
         -2    1    1    2    0  502  0.26256842749E+02  0.69622976074E+01  0.64141387083E+03  0.64198882317E+03  0.00000000000E+00 0.  1.
</event>
<event>
 4    1  0.1762646E+004  0.2235779E+02  0.7546771E-02  0.1500724E+00
         21   -1    0    0  501  502  0.00000000000E+00  0.00000000000E+00  0.63005749564E+01  0.63005749564E+01  0.00000000000E+00 0. -1.
         21   -1    0    0  502  503 -0.00000000000E+00 -0.00000000000E+00 -0.79971598558E+02  0.79971598558E+02  0.00000000000E+00 0.  1.
          2    1    1    2  501    0  0.14831741110E+02  0.16729916164E+02 -0.40677162596E+02  0.46416615517E+02  0.00000000000E+00 0.  1.
         -2    1    1    2    0  503 -0.14831741110E+02 -0.16729916164E+02 -0.32993861005E+02  0.39855557997E+02  0.00000000000E+00 0. -1.
</event>
<event>
 4    1  0.1762646E+004  0.2178268E+02  0.7546771E-02  0.1508377E+00
         21   -1    0    0  503  502  0.00000000000E+00  0.00000000000E+00  0.13604666451E+04  0.13604666451E+04  0.00000000000E+00 0. -1.
         21   -1    0    0  501  503 -0.00000000000E+00 -0.00000000000E+00 -0.62232546024E+00  0.62232546024E+00  0.00000000000E+00 0.  1.
          2    1    1    2  501    0  0.19285406118E+02  0.10127099461E+02  0.22871778829E+03  0.22975271861E+03  0.00000000000E+00 0.  1.
         -2    1    1    2    0  502 -0.19285406118E+02 -0.10127099461E+02  0.11311265314E+04  0.11313362519E+04  0.00000000000E+00 0. -1.
</event>
<event>
 4    1  0.1762646E+004  0.3239807E+02  0.7546771E-02  0.1399840E+00
         21   -1    0    0  503  502  0.00000000000E+00  0.00000000000E+00  0.63016741984E+02  0.63016741984E+02  0.00000000000E+00 0. -1.
         21   -1    0    0  501  503 -0.00000000000E+00 -0.00000000000E+00 -0.32040599165E+02  0.32040599165E+02  0.00000000000E+00 0.  1.
          2    1    1    2  501    0 -0.29590706720E+01  0.32262649197E+02 -0.17445757367E+02  0.36796590638E+02  0.00000000000E+00 0.  1.
         -2    1    1    2    0  502  0.29590706720E+01 -0.32262649197E+02  0.48421900187E+02  0.58260750511E+02  0.00000000000E+00 0. -1.
</event>
<event>
 4    1  0.1762646E+004  0.2059300E+02  0.7546771E-02  0.1525156E+00
         21   -1    0    0  501  502  0.00000000000E+00  0.00000000000E+00  0.10405062971E+02  0.10405062971E+02  0.00000000000E+00 0.  1.
         21   -1    0    0  502  503 -0.00000000000E+00 -0.00000000000E+00 -0.16213893850E+03  0.16213893850E+03  0.00000000000E+00 0. -1.
          2    1    1    2  501    0  0.40705550264E+01 -0.20186689147E+02 -0.12212886002E+01  0.20629187642E+02  0.00000000000E+00 0.  1.
         -2    1    1    2    0  503 -0.40705550264E+01  0.20186689147E+02 -0.15051258693E+03  0.15191481383E+03  0.00000000000E+00 0. -1.
</event>
<event>
 4    1  0.1762646E+004  0.2956989E+02  0.7546771E-02  0.1423371E+00
         21   -1    0    0  501  502  0.00000000000E+00  0.00000000000E+00  0.50853248606E+02  0.50853248606E+02  0.00000000000E+00 0. -1.
         21   -1    0    0  502  503 -0.00000000000E+00 -0.00000000000E+00 -0.25178867865E+02  0.25178867865E+02  0.00000000000E+00 0.  1.
          2    1    1    2  501    0  0.29422741634E+02 -0.29463304622E+01  0.34245316925E+02  0.45245113767E+02  0.00000000000E+00 0. -1.
         -2    1    1    2    0  503 -0.29422741634E+02  0.29463304622E+01 -0.85709361837E+01  0.30787002705E+02  0.00000000000E+00 0.  1.
</event>
<event>
 4    1  0.1762646E+004  0.2071709E+02  0.7546771E-02  0.1523343E+00
         21   -1    0    0  503  502  0.00000000000E+00  0.00000000000E+00  0.12255293770E+02  0.12255293770E+02  0.00000000000E+00 0.  1.
         21   -1    0    0  501  503 -0.00000000000E+00 -0.00000000000E+00 -0.37908440238E+02  0.37908440238E+02  0.00000000000E+00 0. -1.
          2    1    1    2  501    0 -0.18856914908E+02  0.85798902679E+01 -0.19748340979E+02  0.28621578018E+02  0.00000000000E+00 0. -1.
         -2    1    1    2    0  502  0.18856914908E+02 -0.85798902679E+01 -0.59048054891E+01  0.21542155990E+02  0.00000000000E+00 0.  1.
</event>
<event>
 4    1  0.1762646E+004  0.4053401E+02  0.7546771E-02  0.1345385E+00
         21   -1    0    0  501  502  0.00000000000E+00  0.00000000000E+00  0.44096989139E+03  0.44096989139E+03  0.00000000000E+00 0. -1.
         21   -1    0    0  502  503 -0.00000000000E+00 -0.00000000000E+00 -0.40633594874E+01  0.40633594874E+01  0.00000000000E+00 0.  1.
          2    1    1    2  501    0  0.40468956191E+02 -0.22956182846E+01  0.28257949215E+03  0.28547184740E+03  0.00000000000E+00 0. -1.
         -2    1    1    2    0  503 -0.40468956191E+02  0.22956182846E+01  0.15432703976E+03  0.15956140347E+03  0.00000000000E+00 0.  1.
</event>
<event>
 4    1  0.1762646E+004  0.2076430E+02  0.7546771E-02  0.1522657E+00
         21   -1    0    0  503  502  0.00000000000E+00  0.00000000000E+00  0.59499476795E+02  0.59499476795E+02  0.00000000000E+00 0. -1.
         21   -1    0    0  501  503 -0.00000000000E+00 -0.00000000000E+00 -0.92586739626E+01  0.92586739626E+01  0.00000000000E+00 0.  1.
          2    1    1    2  501    0 -0.20763716144E+02  0.15583165161E+00  0.90929365930E+01  0.22667988166E+02  0.00000000000E+00 0.  1.
         -2    1    1    2    0  502  0.20763716144E+02 -0.15583165161E+00  0.41147866239E+02  0.46090162591E+02  0.00000000000E+00 0. -1.
</event>
<event>
 4    1  0.1762646E+004  0.2028006E+02  0.7546771E-02  0.1529797E+00
         21   -1    0    0  501  502  0.00000000000E+00  0.00000000000E+00  0.10070923821E+03  0.10070923821E+03  0.00000000000E+00 0. -1.
         21   -1    0    0  502  503 -0.00000000000E+00 -0.00000000000E+00 -0.55977903568E+01  0.55977903568E+01  0.00000000000E+00 0.  1.
          2    1    1    2  501    0 -0.19183164273E+02 -0.65792809001E+01  0.75198333498E+02  0.77884979871E+02  0.00000000000E+00 0. -1.
         -2    1    1    2    0  503  0.19183164273E+02  0.65792809001E+01  0.19913114352E+02  0.28422048693E+02  0.00000000000E+00 0.  1.
</event>
<event>
 4    1  0.1762646E+004  0.4413645E+02  0.7546771E-02  0.1325814E+00
         21   -1    0    0  503  502  0.00000000000E+00  0.00000000000E+00  0.55497069527E+02  0.55497069527E+02  0.00000000000E+00 0. -1.
         21   -1    0    0  501  503 -0.00000000000E+00 -0.00000000000E+00 -0.10949938342E+03  0.10949938342E+03  0.00000000000E+00 0.  1.
          2    1    1    2  501    0 -0.36364374300E+02  0.25013158936E+02 -0.95002784110E+02  0.10475473654E+03  0.00000000000E+00 0.  1.
         -2    1    1    2    0  502  0.36364374300E+02 -0.25013158936E+02  0.41000470216E+02  0.60241716411E+02  0.00000000000E+00 0. -1.
</event>
<event>
 4    1  0.1762646E+004  0.2343354E+02  0.7546771E-02  0.1487125E+00
         21   -1    0    0  503  502  0.00000000000E+00  0.00000000000E+00  0.87818315179E+01  0.87818315179E+01  0.00000000000E+00 0.  1.
         21   -1    0    0  501  503 -0.00000000000E+00 -0.00000000000E+00 -0.20274841915E+03  0.20274841915E+03  0.00000000000E+00 0. -1.
          2    1    1    2  501    0 -0.74308596274E+01 -0.22224155346E+02 -0.18493935730E+03  0.18641806949E+03  0.00000000000E+00 0. -1.
         -2    1    1    2    0  502  0.74308596274E+01  0.22224155346E+02 -0.90272303281E+01  0.25112181169E+02  0.00000000000E+00 0.  1.
</event>
<event>
 4    1  0.1762646E+004  0.2056640E+02  0.7546771E-02  0.1525547E+00
         21   -1    0    0  501  502  0.00000000000E+00  0.00000000000E+00  0.86094510377E+02  0.86094510377E+02  0.00000000000E+00 0.  1.
         21   -1    0    0  502  503 -0.00000000000E+00 -0.00000000000E+00 -0.76514717888E+01  0.76514717888E+01  0.00000000000E+00 0. -1.
          2    1    1    2  501    0 -0.19290132291E+02  0.71321416702E+01  0.67263555452E+02  0.70337490292E+02  0.00000000000E+00 0.  1.
         -2    1    1    2    0  503  0.19290132291E+02 -0.71321416702E+01  0.11179483136E+02  0.23408491874E+02  0.00000000000E+00 0. -1.
</event>
<event>
 4    1  0.1762646E+004  0.4187555E+02  0.7546771E-02  0.1337832E+00
         21   -1    0    0  501  502  0.00000000000E+00  0.00000000000E+00  0.26093010901E+03  0.26093010901E+03  0.00000000000E+00 0.  1.
         21   -1    0    0  502  503 -0.00000000000E+00 -0.00000000000E+00 -0.10117773425E+02  0.10117773425E+02  0.00000000000E+00 0. -1.
          2    1    1    2  501    0  0.22377411985E+02 -0.35395101963E+02  0.46874747812E+02  0.62855419755E+02  0.00000000000E+00 0. -1.
         -2    1    1    2    0  503 -0.22377411985E+02  0.35395101963E+02  0.20393758777E+03  0.20819246268E+03  0.00000000000E+00 0.  1.
</event>
<event>
 4    1  0.1762646E+004  0.2001818E+02  0.7546771E-02  0.1533758E+00
         21   -1    0    0  501  502  0.00000000000E+00  0.00000000000E+00  0.77901049550E+02  0.77901049550E+02  0.00000000000E+00 0. -1.
         21   -1    0    0  502  503 -0.00000000000E+00 -0.00000000000E+00 -0.59350152712E+01  0.59350152712E+01  0.00000000000E+00 0.  1.
          2    1    1    2  501    0  0.36823820920E+01  0.19676571161E+02  0.20680357232E+02  0.28782018097E+02  0.00000000000E+00 0. -1.
         -2    1    1    2    0  503 -0.36823820920E+01 -0.19676571161E+02  0.51285677047E+02  0.55054046724E+02  0.00000000000E+00 0.  1.
</event>
<event>
 4    1  0.1762646E+004  0.2940455E+02  0.7546771E-02  0.1424842E+00
         21   -1    0    0  501  502  0.00000000000E+00  0.00000000000E+00  0.16958184867E+02  0.16958184867E+02  0.00000000000E+00 0.  1.
         21   -1    0    0  502  503 -0.00000000000E+00 -0.00000000000E+00 -0.62930191335E+02  0.62930191335E+02  0.00000000000E+00 0. -1.
          2    1    1    2  501    0  0.25183866423E+02 -0.15178948122E+02 -0.55837677217E+01  0.29930019313E+02  0.00000000000E+00 0.  1.
         -2    1    1    2    0  503 -0.25183866423E+02  0.15178948122E+02 -0.40388238746E+02  0.49958356890E+02  0.00000000000E+00 0. -1.
</event>
<event>
 4    1  0.1762646E+004  0.2948079E+02  0.7546771E-02  0.1424163E+00
         21   -1    0    0  503  502  0.00000000000E+00  0.00000000000E+00  0.60916034034E+02  0.60916034034E+02  0.00000000000E+00 0.  1.
         21   -1    0    0  501  503 -0.00000000000E+00 -0.00000000000E+00 -0.18122117977E+02  0.18122117977E+02  0.00000000000E+00 0. -1.
          2    1    1    2  501    0  0.97096963411E+01 -0.27835923834E+02  0.31707873288E+01  0.29650813665E+02  0.00000000000E+00 0. -1.
         -2    1    1    2    0  502 -0.97096963411E+01  0.27835923834E+02  0.39623128728E+02  0.49387338346E+02  0.00000000000E+00 0.  1.
</event>
<event>
 4    1  0.1762646E+004  0.2191925E+02  0.7546771E-02  0.1506534E+00
         21   -1    0    0  501  502  0.00000000000E+00  0.00000000000E+00  0.49928007466E+02  0.49928007466E+02  0.00000000000E+00 0. -1.
         21   -1    0    0  502  503 -0.00000000000E+00 -0.00000000000E+00 -0.12970599120E+02  0.12970599120E+02  0.00000000000E+00 0.  1.
          2    1    1    2  501    0  0.21492583030E+02  0.43037798879E+01  0.34455966653E+02  0.40837082224E+02  0.00000000000E+00 0. -1.
         -2    1    1    2    0  503 -0.21492583030E+02 -0.43037798879E+01  0.25014416939E+01  0.22061524362E+02  0.00000000000E+00 0.  1.
</event>
<event>
 4    1  0.1762646E+004  0.2177101E+02  0.7546771E-02  0.1508535E+00
         21   -1    0    0  503  502  0.00000000000E+00  0.00000000000E+00  0.52501271482E+00  0.52501271482E+00  0.00000000000E+00 0.  1.
         21   -1    0    0  501  503 -0.00000000000E+00 -0.00000000000E+00 -0.13357970122E+04  0.13357970122E+04  0.00000000000E+00 0. -1.
          2    1    1    2  501    0  0.18499165909E+02 -0.11478580205E+02 -0.10480510404E+04  0.10482771391E+04  0.00000000000E+00 0. -1.
         -2    1    1    2    0  502 -0.18499165909E+02  0.11478580205E+02 -0.28722095906E+03  0.28804488585E+03  0.00000000000E+00 0.  1.
</event>
<event>
 4    1  0.1762646E+004  0.2883121E+02  0.7546771E-02  0.1430032E+00
         21   -1    0    0  501  502  0.00000000000E+00  0.00000000000E+00  0.35751144537E+03  0.35751144537E+03  0.00000000000E+00 0. -1.
         21   -1    0    0  502  503 -0.00000000000E+00 -0.00000000000E+00 -0.53568124602E+01  0.53568124602E+01  0.00000000000E+00 0.  1.
          2    1    1    2  501    0  0.27973484692E+02  0.69801638143E+01  0.31257083742E+03  0.31389770139E+03  0.00000000000E+00 0. -1.
         -2    1    1    2    0  503 -0.27973484692E+02 -0.69801638143E+01  0.39583795491E+02  0.48970556441E+02  0.00000000000E+00 0.  1.
</event>
<event>
 4    1  0.1762646E+004  0.2234471E+02  0.7546771E-02  0.1500895E+00
         21   -1    0    0  503  502  0.00000000000E+00  0.00000000000E+00  0.25607638943E+02  0.25607638943E+02  0.00000000000E+00 0. -1.
         21   -1    0    0  501  503 -0.00000000000E+00 -0.00000000000E+00 -0.19788308967E+02  0.19788308967E+02  0.00000000000E+00 0.  1.
          2    1    1    2  501    0  0.18890669535E+02 -0.11934349038E+02  0.15826746971E+00  0.22345270888E+02  0.00000000000E+00 0. -1.
         -2    1    1    2    0  502 -0.18890669535E+02  0.11934349038E+02  0.56610625062E+01  0.23050677022E+02  0.00000000000E+00 0.  1.
</event>
<event>
 4    1  0.1762646E+004  0.2570590E+02  0.7546771E-02  0.1461059E+00
         21   -1    0    0  501  502  0.00000000000E+00  0.00000000000E+00  0.12976270693E+03  0.12976270693E+03  0.00000000000E+00 0. -1.
         21   -1    0    0  502  503 -0.00000000000E+00 -0.00000000000E+00 -0.26031116997E+02  0.26031116997E+02  0.00000000000E+00 0.  1.
          2    1    1    2  501    0  0.90004364872E+01 -0.24078735163E+02  0.12172919109E+03  0.12441378263E+03  0.00000000000E+00 0. -1.
         -2    1    1    2    0  503 -0.90004364872E+01  0.24078735163E+02 -0.17997601164E+02  0.31380041295E+02  0.00000000000E+00 0.  1.
</event>
<event>
 4    1  0.1762646E+004  0.2111495E+02  0.7546771E-02  0.1517630E+00
         21   -1    0    0  501  502  0.00000000000E+00  0.00000000000E+00  0.13107442162E+02  0.13107442162E+02  0.00000000000E+00 0.  1.
         21   -1    0    0  502  503 -0.00000000000E+00 -0.00000000000E+00 -0.50395183903E+02  0.50395183903E+02  0.00000000000E+00 0. -1.
          2    1    1    2  501    0 -0.20881388161E+02 -0.31318585476E+01 -0.54150267288E+00  0.21121887573E+02  0.00000000000E+00 0.  1.
         -2    1    1    2    0  503  0.20881388161E+02  0.31318585476E+01 -0.36746239068E+02  0.42380738492E+02  0.00000000000E+00 0. -1.
</event>
<event>
 4    1  0.1762646E+004  0.2545532E+02  0.7546771E-02  0.1463774E+00
         21   -1    0    0  503  502  0.00000000000E+00  0.00000000000E+00  0.67450503249E+01  0.67450503249E+01  0.00000000000E+00 0. -1.
         21   -1    0    0  501  503 -0.00000000000E+00 -0.00000000000E+00 -0.11030176429E+03  0.11030176429E+03  0.00000000000E+00 0.  1.
          2    1    1    2  501    0  0.15752364909E+01  0.25406532735E+02 -0.72802648539E+02  0.77124567486E+02  0.00000000000E+00 0.  1.
         -2    1    1    2    0  502 -0.15752364909E+01 -0.25406532735E+02 -0.30754065426E+02  0.39922247129E+02  0.00000000000E+00 0. -1.
</event>
<event>
 4    1  0.1762646E+004  0.2212641E+02  0.7546771E-02  0.1503769E+00
         21   -1    0    0  501  502  0.00000000000E+00  0.00000000000E+00  0.94502731581E+02  0.94502731581E+02  0.00000000000E+00 0. -1.
         21   -1    0    0  502  503 -0.00000000000E+00 -0.00000000000E+00 -0.76962675260E+01  0.76962675260E+01  0.00000000000E+00 0.  1.
          2    1    1    2  501    0  0.20787225288E+02 -0.75808521958E+01  0.72618222213E+02  0.75914321788E+02  0.00000000000E+00 0. -1.
         -2    1    1    2    0  503 -0.20787225288E+02  0.75808521958E+01  0.14188241842E+02  0.26284677319E+02  0.00000000000E+00 0.  1.
</event>
<event>
 4    1  0.1762646E+004  0.2020363E+02  0.7546771E-02  0.1530945E+00
         21   -1    0    0  503  502  0.00000000000E+00  0.00000000000E+00  0.11232323693E+01  0.11232323693E+01  0.00000000000E+00 0.  1.
         21   -1    0    0  501  503 -0.00000000000E+00 -0.00000000000E+00 -0.38777988452E+03  0.38777988452E+03  0.00000000000E+00 0. -1.
          2    1    1    2  501    0 -0.20139124715E+02 -0.16131296037E+01 -0.24208159896E+03  0.24292321233E+03  0.00000000000E+00 0. -1.
         -2    1    1    2    0  502  0.20139124715E+02  0.16131296037E+01 -0.14457505319E+03  0.14597990457E+03  0.00000000000E+00 0.  1.
</event>
<event>
 4    1  0.1762646E+004  0.2538977E+02  0.7546771E-02  0.1464490E+00
         21   -1    0    0  501  502  0.00000000000E+00  0.00000000000E+00  0.14041637102E+03  0.14041637102E+03  0.00000000000E+00 0.  1.
         21   -1    0    0  502  503 -0.00000000000E+00 -0.00000000000E+00 -0.50691781401E+01  0.50691781401E+01  0.00000000000E+00 0. -1.
          2    1    1    2  501    0  0.24732904087E+02  0.57379261545E+01  0.90017148797E+02  0.93529286422E+02  0.00000000000E+00 0.  1.
         -2    1    1    2    0  503 -0.24732904087E+02 -0.57379261545E+01  0.45330044082E+02  0.51956262737E+02  0.00000000000E+00 0. -1.
</event>
<event>
 4    1  0.1762646E+004  0.2882093E+02  0.7546771E-02  0.1430127E+00
         21   -1    0    0  501  502  0.00000000000E+00  0.00000000000E+00  0.22363032255E+01  0.22363032255E+01  0.00000000000E+00 0. -1.
         21   -1    0    0  502  503 -0.00000000000E+00 -0.00000000000E+00 -0.48742696388E+03  0.48742696388E+03  0.00000000000E+00 0.  1.
          2    1    1    2  501    0 -0.22190581650E+02 -0.18390868415E+02 -0.12316275435E+03  0.12648996013E+03  0.00000000000E+00 0. -1.
         -2    1    1    2    0  503  0.22190581650E+02  0.18390868415E+02 -0.36202790631E+03  0.36317330698E+03  0.00000000000E+00 0.  1.
</event>
<event>
 4    1  0.1762646E+004  0.2849053E+02  0.7546771E-02  0.1433184E+00
         21   -1    0    0  503  502  0.00000000000E+00  0.00000000000E+00  0.21953548383E+03  0.21953548383E+03  0.00000000000E+00 0. -1.
         21   -1    0    0  501  503 -0.00000000000E+00 -0.00000000000E+00 -0.38703525021E+01  0.38703525021E+01  0.00000000000E+00 0.  1.
          2    1    1    2  501    0 -0.28437989062E+02 -0.17295109555E+01  0.13144566919E+03  0.13449786012E+03  0.00000000000E+00 0.  1.
         -2    1    1    2    0  502  0.28437989062E+02  0.17295109555E+01  0.84219462146E+02  0.88907976212E+02  0.00000000000E+00 0. -1.
</event>
<event>
 4    1  0.1762646E+004  0.2780455E+02  0.7546771E-02  0.1439689E+00
         21   -1    0    0  501  502  0.00000000000E+00  0.00000000000E+00  0.24303768053E+01  0.24303768053E+01  0.00000000000E+00 0.  1.
         21   -1    0    0  502  503 -0.00000000000E+00 -0.00000000000E+00 -0.76342203337E+03  0.76342203337E+03  0.00000000000E+00 0. -1.
          2    1    1    2  501    0  0.93049462606E+01  0.26201359129E+02 -0.88032267109E+02  0.92318867505E+02  0.00000000000E+00 0.  1.
         -2    1    1    2    0  503 -0.93049462606E+01 -0.26201359129E+02 -0.67295938946E+03  0.67353354267E+03  0.00000000000E+00 0. -1.
</event>
<event>
 4    1  0.1762646E+004  0.2263170E+02  0.7546771E-02  0.1497175E+00
         21   -1    0    0  503  502  0.00000000000E+00  0.00000000000E+00  0.53297630702E+01  0.53297630702E+01  0.00000000000E+00 0. -1.
         21   -1    0    0  501  503 -0.00000000000E+00 -0.00000000000E+00 -0.21800227079E+03  0.21800227079E+03  0.00000000000E+00 0.  1.
          2    1    1    2  501    0  0.18164402470E+02 -0.13499937509E+02 -0.18983793355E+03  0.19118220326E+03  0.00000000000E+00 0.  1.
         -2    1    1    2    0  502 -0.18164402470E+02  0.13499937509E+02 -0.22834574165E+02  0.32149830593E+02  0.00000000000E+00 0. -1.
</event>
<event>
 4    1  0.1762646E+004  0.2013923E+02  0.7546771E-02  0.1531918E+00
         21   -1    0    0  503  502  0.00000000000E+00  0.00000000000E+00  0.43681365289E+02  0.43681365289E+02  0.00000000000E+00 0.  1.
         21   -1    0    0  501  503 -0.00000000000E+00 -0.00000000000E+00 -0.95803591157E+01  0.95803591157E+01  0.00000000000E+00 0. -1.
          2    1    1    2  501    0 -0.63422520257E+01  0.19114509457E+02  0.12375853625E+02  0.23637901462E+02  0.00000000000E+00 0.  1.
         -2    1    1    2    0  502  0.63422520257E+01 -0.19114509457E+02  0.21725152548E+02  0.29623822943E+02  0.00000000000E+00 0. -1.
</event>
<event>
 4    1  0.1762646E+004  0.3715767E+02  0.7546771E-02  0.1365998E+00
         21   -1    0    0  503  502  0.00000000000E+00  0.00000000000E+00  0.22727888435E+02  0.22727888435E+02  0.00000000000E+00 0.  1.
         21   -1    0    0  501  503 -0.00000000000E+00 -0.00000000000E+00 -0.64128860023E+02  0.64128860023E+02  0.00000000000E+00 0. -1.
          2    1    1    2  501    0 -0.19494001451E+02 -0.31633474602E+02 -0.30670748224E+02  0.48180780449E+02  0.00000000000E+00 0. -1.
         -2    1    1    2    0  502  0.19494001451E+02  0.31633474602E+02 -0.10730223364E+02  0.38675968009E+02  0.00000000000E+00 0.  1.
</event>
<event>
 4    1  0.1762646E+004  0.2525400E+02  0.7546771E-02  0.1465982E+00
         21   -1    0    0  501  502  0.00000000000E+00  0.00000000000E+00  0.53249420376E+02  0.53249420376E+02  0.00000000000E+00 0. -1.
         21   -1    0    0  502  503 -0.00000000000E+00 -0.00000000000E+00 -0.12047253254E+02  0.12047253254E+02  0.00000000000E+00 0.  1.
          2    1    1    2  501    0 -0.15753703440E+02 -0.19737919063E+02  0.18106694659E+02  0.31074378714E+02  0.00000000000E+00 0.  1.
         -2    1    1    2    0  503  0.15753703440E+02  0.19737919063E+02  0.23095472463E+02  0.34222294916E+02  0.00000000000E+00 0. -1.
</event>
<event>
 4    1  0.1762646E+004  0.2849719E+02  0.7546771E-02  0.1433122E+00
         21   -1    0    0  503  502  0.00000000000E+00  0.00000000000E+00  0.88488451335E+01  0.88488451335E+01  0.00000000000E+00 0.  1.
         21   -1    0    0  501  503 -0.00000000000E+00 -0.00000000000E+00 -0.11731318879E+03  0.11731318879E+03  0.00000000000E+00 0. -1.
          2    1    1    2  501    0  0.21891326853E+02  0.18244441591E+02 -0.83665049739E+02  0.88385125378E+02  0.00000000000E+00 0. -1.
         -2    1    1    2    0  502 -0.21891326853E+02 -0.18244441591E+02 -0.24799293916E+02  0.37776908544E+02  0.00000000000E+00 0.  1.
</event>
<event>
 4    1  0.1762646E+004  0.6783096E+02  0.7546771E-02  0.1235320E+00
         21   -1    0    0  503  502  0.00000000000E+00  0.00000000000E+00  0.35095368546E+03  0.35095368546E+03  0.00000000000E+00 0. -1.
         21   -1    0    0  501  503 -0.00000000000E+00 -0.00000000000E+00 -0.23055243088E+02  0.23055243088E+02  0.00000000000E+00 0.  1.
          2    1    1    2  501    0 -0.64284493895E+02  0.21645844929E+02  0.41128233105E+02  0.79325722918E+02  0.00000000000E+00 0.  1.
         -2    1    1    2    0  502  0.64284493895E+02 -0.21645844929E+02  0.28677020927E+03  0.29468320564E+03  0.00000000000E+00 0. -1.
</event>
<event>
 4    1  0.1762646E+004  0.2725148E+02  0.7546771E-02  0.1445098E+00
         21   -1    0    0  503  502  0.00000000000E+00  0.00000000000E+00  0.53656823438E+02  0.53656823438E+02  0.00000000000E+00 0.  1.
         21   -1    0    0  501  503 -0.00000000000E+00 -0.00000000000E+00 -0.18824646169E+02  0.18824646169E+02  0.00000000000E+00 0. -1.
          2    1    1    2  501    0  0.24541628094E+02  0.11847001905E+02 -0.12315713392E+01  0.27279291260E+02  0.00000000000E+00 0. -1.
         -2    1    1    2    0  502 -0.24541628094E+02 -0.11847001905E+02  0.36063748608E+02  0.45202178347E+02  0.00000000000E+00 0.  1.
</event>
<event>
 4    1  0.1762646E+004  0.2100003E+02  0.7546771E-02  0.1519264E+00
         21   -1    0    0  501  502  0.00000000000E+00  0.00000000000E+00  0.39123054314E+02  0.39123054314E+02  0.00000000000E+00 0.  1.
         21   -1    0    0  502  503 -0.00000000000E+00 -0.00000000000E+00 -0.13198971133E+02  0.13198971133E+02  0.00000000000E+00 0. -1.
          2    1    1    2  501    0 -0.66238195945E+01  0.19928023951E+02  0.22957544998E+02  0.31113501843E+02  0.00000000000E+00 0.  1.
         -2    1    1    2    0  503  0.66238195945E+01 -0.19928023951E+02  0.29665381828E+01  0.21208523603E+02  0.00000000000E+00 0. -1.
</event>
<event>
 4    1  0.1762646E+004  0.2338637E+02  0.7546771E-02  0.1487703E+00
         21   -1    0    0  501  502  0.00000000000E+00  0.00000000000E+00  0.58215540457E+01  0.58215540457E+01  0.00000000000E+00 0. -1.
         21   -1    0    0  502  503 -0.00000000000E+00 -0.00000000000E+00 -0.26804348577E+03  0.26804348577E+03  0.00000000000E+00 0.  1.
          2    1    1    2  501    0 -0.23378459331E+02 -0.60835071294E+00 -0.20754465027E+02  0.31267719294E+02  0.00000000000E+00 0. -1.
         -2    1    1    2    0  503  0.23378459331E+02  0.60835071294E+00 -0.24146746669E+03  0.24259732052E+03  0.00000000000E+00 0.  1.
</event>
<event>
 4    1  0.1762646E+004  0.2055473E+02  0.7546771E-02  0.1525718E+00
         21   -1    0    0  503  502  0.00000000000E+00  0.00000000000E+00  0.20527976074E+03  0.20527976074E+03  0.00000000000E+00 0.  1.
         21   -1    0    0  501  503 -0.00000000000E+00 -0.00000000000E+00 -0.67147796179E+01  0.67147796179E+01  0.00000000000E+00 0. -1.
          2    1    1    2  501    0  0.11092445800E+02 -0.17304761028E+02  0.11012207782E+02  0.23318787025E+02  0.00000000000E+00 0. -1.
         -2    1    1    2    0  502 -0.11092445800E+02  0.17304761028E+02  0.18755277334E+03  0.18867575333E+03  0.00000000000E+00 0.  1.
</event>
<event>
 4    1  0.1762646E+004  0.3835696E+02  0.7546771E-02  0.1358393E+00
         21   -1    0    0  501  502  0.00000000000E+00  0.00000000000E+00  0.24592713974E+01  0.24592713974E+01  0.00000000000E+00 0. -1.
         21   -1    0    0  502  503 -0.00000000000E+00 -0.00000000000E+00 -0.61126778411E+03  0.61126778411E+03  0.00000000000E+00 0.  1.
          2    1    1    2  501    0  0.35627868447E+02 -0.14209553219E+02 -0.34918758494E+03  0.35128795295E+03  0.00000000000E+00 0.  1.
         -2    1    1    2    0  503 -0.35627868447E+02  0.14209553219E+02 -0.25962092778E+03  0.26243910256E+03  0.00000000000E+00 0. -1.
</event>
<event>
 4    1  0.1762646E+004  0.2215079E+02  0.7546771E-02  0.1503446E+00
         21   -1    0    0  501  502  0.00000000000E+00  0.00000000000E+00  0.74279016291E+02  0.74279016291E+02  0.00000000000E+00 0.  1.
         21   -1    0    0  502  503 -0.00000000000E+00 -0.00000000000E+00 -0.67691591472E+01  0.67691591472E+01  0.00000000000E+00 0. -1.
          2    1    1    2  501    0 -0.20827224575E+02 -0.75421605235E+01  0.40054098498E+02  0.45771041886E+02  0.00000000000E+00 0. -1.
         -2    1    1    2    0  503  0.20827224575E+02  0.75421605235E+01  0.27455758645E+02  0.35277133552E+02  0.00000000000E+00 0.  1.
</event>
<event>
 4    1  0.1762646E+004  0.2293352E+02  0.7546771E-02  0.1493335E+00
         21   -1    0    0  503  502  0.00000000000E+00  0.00000000000E+00  0.12445294889E+01  0.12445294889E+01  0.00000000000E+00 0.  1.
         21   -1    0    0  501  503 -0.00000000000E+00 -0.00000000000E+00 -0.13749812324E+04  0.13749812324E+04  0.00000000000E+00 0. -1.
          2    1    1    2  501    0  0.19332839422E+02  0.12336432913E+02 -0.12595525940E+04  0.12597613597E+04  0.00000000000E+00 0. -1.
         -2    1    1    2    0  502 -0.19332839422E+02 -0.12336432913E+02 -0.11418410891E+03  0.11646440222E+03  0.00000000000E+00 0.  1.
</event>
<event>
 4    1  0.1762646E+004  0.4221303E+02  0.7546771E-02  0.1335984E+00
         21   -1    0    0  503  502  0.00000000000E+00  0.00000000000E+00  0.36721961503E+01  0.36721961503E+01  0.00000000000E+00 0.  1.
         21   -1    0    0  501  503 -0.00000000000E+00 -0.00000000000E+00 -0.50987684001E+03  0.50987684001E+03  0.00000000000E+00 0. -1.
          2    1    1    2  501    0 -0.30110869576E+02 -0.29585052162E+02 -0.30953202766E+03  0.31239720858E+03  0.00000000000E+00 0.  1.
         -2    1    1    2    0  502  0.30110869576E+02  0.29585052162E+02 -0.19667261619E+03  0.20115182758E+03  0.00000000000E+00 0. -1.
</event>
<event>
 4    1  0.1762646E+004  0.2050595E+02  0.7546771E-02  0.1526437E+00
         21   -1    0    0  503  502  0.00000000000E+00  0.00000000000E+00  0.40279246474E+02  0.40279246474E+02  0.00000000000E+00 0. -1.
         21   -1    0    0  501  503 -0.00000000000E+00 -0.00000000000E+00 -0.55799567009E+02  0.55799567009E+02  0.00000000000E+00 0.  1.
          2    1    1    2  501    0  0.16828383339E+02 -0.11717485678E+02 -0.51073254650E+02  0.55036090858E+02  0.00000000000E+00 0.  1.
         -2    1    1    2    0  502 -0.16828383339E+02  0.11717485678E+02  0.35552934114E+02  0.41042722626E+02  0.00000000000E+00 0. -1.
</event>
<event>
 4    1  0.1762646E+004  0.2149238E+02  0.7546771E-02  0.1512350E+00
         21   -1    0    0  503  502  0.00000000000E+00  0.00000000000E+00  0.74935967589E+01  0.74935967589E+01  0.00000000000E+00 0. -1.
         21   -1    0    0  501  503 -0.00000000000E+00 -0.00000000000E+00 -0.12707898065E+03  0.12707898065E+03  0.00000000000E+00 0.  1.
          2    1    1    2  501    0 -0.18091132648E+01  0.21416102404E+02 -0.10807638000E+03  0.11019267783E+03  0.00000000000E+00 0.  1.
         -2    1    1    2    0  502  0.18091132648E+01 -0.21416102404E+02 -0.11509003889E+02  0.24379899579E+02  0.00000000000E+00 0. -1.
</event>
<event>
 4    1  0.1762646E+004  0.2823655E+02  0.7546771E-02  0.1435567E+00
         21   -1    0    0  501  502  0.00000000000E+00  0.00000000000E+00  0.39621667487E+01  0.39621667487E+01  0.00000000000E+00 0.  1.
         21   -1    0    0  502  503 -0.00000000000E+00 -0.00000000000E+00 -0.20500810795E+03  0.20500810795E+03  0.00000000000E+00 0. -1.
          2    1    1    2  501    0 -0.93581950682E+01 -0.26640696156E+02 -0.86336686044E+02  0.90836808969E+02  0.00000000000E+00 0.  1.
         -2    1    1    2    0  503  0.93581950682E+01  0.26640696156E+02 -0.11470925516E+03  0.11813346573E+03  0.00000000000E+00 0. -1.
</event>
<event>
 4    1  0.1762646E+004  0.3222573E+02  0.7546771E-02  0.1401192E+00
         21   -1    0    0  501  502  0.00000000000E+00  0.00000000000E+00  0.29733793726E+01  0.29733793726E+01  0.00000000000E+00 0.  1.
         21   -1    0    0  502  503 -0.00000000000E+00 -0.00000000000E+00 -0.45856311384E+03  0.45856311384E+03  0.00000000000E+00 0. -1.
          2    1    1    2  501    0 -0.31884152471E+02 -0.46795953297E+01 -0.11513155166E+03  0.11955656393E+03  0.00000000000E+00 0.  1.
         -2    1    1    2    0  503  0.31884152471E+02  0.46795953297E+01 -0.34045818281E+03  0.34197992928E+03  0.00000000000E+00 0. -1.
</event>
<event>
 4    1  0.1762646E+004  0.2388289E+02  0.7546771E-02  0.1481700E+00
         21   -1    0    0  503  502  0.00000000000E+00  0.00000000000E+00  0.75560266046E+03  0.75560266046E+03  0.00000000000E+00 0.  1.
         21   -1    0    0  501  503 -0.00000000000E+00 -0.00000000000E+00 -0.12103390796E+01  0.12103390796E+01  0.00000000000E+00 0. -1.
          2    1    1    2  501    0  0.34736106707E+01 -0.23628928549E+02  0.14506795613E+03  0.14702076088E+03  0.00000000000E+00 0. -1.
         -2    1    1    2    0  502 -0.34736106707E+01  0.23628928549E+02  0.60932436525E+03  0.60979223865E+03  0.00000000000E+00 0.  1.
</event>
<event>
 4    1  0.1762646E+004  0.2760093E+02  0.7546771E-02  0.1441663E+00
         21   -1    0    0  501  502  0.00000000000E+00  0.00000000000E+00  0.14095647691E+03  0.14095647691E+03  0.00000000000E+00 0. -1.
         21   -1    0    0  502  503 -0.00000000000E+00 -0.00000000000E+00 -0.11381143830E+02  0.11381143830E+02  0.00000000000E+00 0.  1.
          2    1    1    2  501    0 -0.52814106287E+01  0.27090918551E+02  0.11998395054E+03  0.12311766548E+03  0.00000000000E+00 0. -1.
         -2    1    1    2    0  503  0.52814106287E+01 -0.27090918551E+02  0.95913825370E+01  0.29219955256E+02  0.00000000000E+00 0.  1.
</event>
<event>
 4    1  0.1762646E+004  0.2245961E+02  0.7546771E-02  0.1499398E+00
         21   -1    0    0  501  502  0.00000000000E+00  0.00000000000E+00  0.12006204855E+02  0.12006204855E+02  0.00000000000E+00 0. -1.
         21   -1    0    0  502  503 -0.00000000000E+00 -0.00000000000E+00 -0.43262510279E+02  0.43262510279E+02  0.00000000000E+00 0.  1.
          2    1    1    2  501    0 -0.11119994809E+02 -0.19513582767E+02 -0.10934512484E+02  0.24979947163E+02  0.00000000000E+00 0. -1.
         -2    1    1    2    0  503  0.11119994809E+02  0.19513582767E+02 -0.20321792940E+02  0.30288767972E+02  0.00000000000E+00 0.  1.
</event>
<event>
 4    1  0.1762646E+004  0.2013804E+02  0.7546771E-02  0.1531936E+00
         21   -1    0    0  503  502  0.00000000000E+00  0.00000000000E+00  0.21885298182E+01  0.21885298182E+01  0.00000000000E+00 0.  1.
         21   -1    0    0  501  503 -0.00000000000E+00 -0.00000000000E+00 -0.28604025603E+03  0.28604025603E+03  0.00000000000E+00 0. -1.
          2    1    1    2  501    0 -0.12018220575E+02 -0.16158687888E+02 -0.22745008903E+03  0.22833984282E+03  0.00000000000E+00 0. -1.
         -2    1    1    2    0  502  0.12018220575E+02  0.16158687888E+02 -0.56401637185E+02  0.59888943030E+02  0.00000000000E+00 0.  1.
</event>
<event>
 4    1  0.1762646E+004  0.3496137E+02  0.7546771E-02  0.1380835E+00
         21   -1    0    0  503  502  0.00000000000E+00  0.00000000000E+00  0.21805868160E+03  0.21805868160E+03  0.00000000000E+00 0.  1.
         21   -1    0    0  501  503 -0.00000000000E+00 -0.00000000000E+00 -0.12734227296E+02  0.12734227296E+02  0.00000000000E+00 0. -1.
          2    1    1    2  501    0  0.13164897472E+02 -0.32388010144E+02  0.16321363636E+02  0.38583476223E+02  0.00000000000E+00 0. -1.
         -2    1    1    2    0  502 -0.13164897472E+02  0.32388010144E+02  0.18900309067E+03  0.19220943268E+03  0.00000000000E+00 0.  1.
</event>
<event>
 4    1  0.1762646E+004  0.5142625E+02  0.7546771E-02  0.1292104E+00
         21   -1    0    0  501  502  0.00000000000E+00  0.00000000000E+00  0.94410792368E+02  0.94410792368E+02  0.00000000000E+00 0.  1.
         21   -1    0    0  502  503 -0.00000000000E+00 -0.00000000000E+00 -0.59055449871E+02  0.59055449871E+02  0.00000000000E+00 0. -1.
          2    1    1    2  501    0 -0.48417594159E+02  0.17331920094E+02  0.73311135134E+02  0.89549882260E+02  0.00000000000E+00 0.  1.
         -2    1    1    2    0  503  0.48417594159E+02 -0.17331920094E+02 -0.37955792637E+02  0.63916359979E+02  0.00000000000E+00 0. -1.
</event>
<event>
 4    1  0.1762646E+004  0.2488489E+02  0.7546771E-02  0.1470095E+00
         21   -1    0    0  501  502  0.00000000000E+00  0.00000000000E+00  0.74570508994E+02  0.74570508994E+02  0.00000000000E+00 0. -1.
         21   -1    0    0  502  503 -0.00000000000E+00 -0.00000000000E+00 -0.12794272589E+02  0.12794272589E+02  0.00000000000E+00 0.  1.
          2    1    1    2  501    0 -0.16081167145E+02 -0.18990885498E+02  0.56765437435E+02  0.61980420747E+02  0.00000000000E+00 0. -1.
         -2    1    1    2    0  503  0.16081167145E+02  0.18990885498E+02  0.50107989689E+01  0.25384360836E+02  0.00000000000E+00 0.  1.
</event>
<event>
 4    1  0.1762646E+004  0.2288364E+02  0.7546771E-02  0.1493964E+00
         21   -1    0    0  503  502  0.00000000000E+00  0.00000000000E+00  0.57251809671E+02  0.57251809671E+02  0.00000000000E+00 0.  1.
         21   -1    0    0  501  503 -0.00000000000E+00 -0.00000000000E+00 -0.26389147200E+02  0.26389147200E+02  0.00000000000E+00 0. -1.
          2    1    1    2  501    0 -0.12082534763E+02  0.19433819958E+02 -0.18373337030E+02  0.29346899633E+02  0.00000000000E+00 0. -1.
         -2    1    1    2    0  502  0.12082534763E+02 -0.19433819958E+02  0.49235999501E+02  0.54294057238E+02  0.00000000000E+00 0.  1.
</event>
<event>
 4    1  0.1762646E+004  0.2027006E+02  0.7546771E-02  0.1529947E+00
         21   -1    0    0  501  502  0.00000000000E+00  0.00000000000E+00  0.26425039138E+01  0.26425039138E+01  0.00000000000E+00 0. -1.
         21   -1    0    0  502  503 -0.00000000000E+00 -0.00000000000E+00 -0.19524393572E+03  0.19524393572E+03  0.00000000000E+00 0.  1.
          2    1    1    2  501    0  0.19777212629E+01  0.20173348028E+02 -0.14094881762E+03  0.14239889234E+03  0.00000000000E+00 0.  1.
         -2    1    1    2    0  503 -0.19777212629E+01 -0.20173348028E+02 -0.51652614185E+02  0.55487547290E+02  0.00000000000E+00 0. -1.
</event>
<event>
 4    1  0.1762646E+004  0.2034011E+02  0.7546771E-02  0.1528898E+00
         21   -1    0    0  501  502  0.00000000000E+00  0.00000000000E+00  0.36971661671E+01  0.36971661671E+01  0.00000000000E+00 0. -1.
         21   -1    0    0  502  503 -0.00000000000E+00 -0.00000000000E+00 -0.62262931280E+03  0.62262931280E+03  0.00000000000E+00 0.  1.
          2    1    1    2  501    0  0.19424159320E+02  0.60350645816E+01 -0.25837112370E+02  0.32882766694E+02  0.00000000000E+00 0. -1.
         -2    1    1    2    0  503 -0.19424159320E+02 -0.60350645816E+01 -0.59309503426E+03  0.59344371227E+03  0.00000000000E+00 0.  1.
</event>
<event>
 4    1  0.1762646E+004  0.2180980E+02  0.7546771E-02  0.1508010E+00
         21   -1    0    0  501  502  0.00000000000E+00  0.00000000000E+00  0.12325382296E+03  0.12325382296E+03  0.00000000000E+00 0.  1.
         21   -1    0    0  502  503 -0.00000000000E+00 -0.00000000000E+00 -0.38874214234E+01  0.38874214234E+01  0.00000000000E+00 0. -1.
          2    1    1    2  501    0 -0.17254327509E+02  0.13339992188E+02  0.65094938355E+02  0.68651425395E+02  0.00000000000E+00 0.  1.
         -2    1    1    2    0  503  0.17254327509E+02 -0.13339992188E+02  0.54271463183E+02  0.58489818990E+02  0.00000000000E+00 0. -1.
</event>
<event>
 4    1  0.1762646E+004  0.3293628E+02  0.7546771E-02  0.1395683E+00
         21   -1    0    0  501  502  0.00000000000E+00  0.00000000000E+00  0.56709001884E+02  0.56709001884E+02  0.00000000000E+00 0.  1.
         21   -1    0    0  502  503 -0.00000000000E+00 -0.00000000000E+00 -0.20156768187E+02  0.20156768187E+02  0.00000000000E+00 0. -1.
          2    1    1    2  501    0  0.27905325170E+02  0.17495460371E+02  0.26953646749E+02  0.42559339509E+02  0.00000000000E+00 0. -1.
         -2    1    1    2    0  503 -0.27905325170E+02 -0.17495460371E+02  0.95985869482E+01  0.34306430561E+02  0.00000000000E+00 0.  1.
</event>
<event>
 4    1  0.1762646E+004  0.2320928E+02  0.7546771E-02  0.1489887E+00
         21   -1    0    0  501  502  0.00000000000E+00  0.00000000000E+00  0.36842694805E+02  0.36842694805E+02  0.00000000000E+00 0. -1.
         21   -1    0    0  502  503 -0.00000000000E+00 -0.00000000000E+00 -0.52259306152E+02  0.52259306152E+02  0.00000000000E+00 0.  1.
          2    1    1    2  501    0 -0.18723558163E+02 -0.13714923525E+02  0.30100387005E+02  0.38009262758E+02  0.00000000000E+00 0. -1.
         -2    1    1    2    0  503  0.18723558163E+02  0.13714923525E+02 -0.45516998352E+02  0.51092738198E+02  0.00000000000E+00 0.  1.
</event>
<event>
 4    1  0.1762646E+004  0.2084570E+02  0.7546771E-02  0.1521479E+00
         21   -1    0    0  501  502  0.00000000000E+00  0.00000000000E+00  0.44633637230E+01  0.44633637230E+01  0.00000000000E+00 0. -1.
         21   -1    0    0  502  503 -0.00000000000E+00 -0.00000000000E+00 -0.14619169884E+03  0.14619169884E+03  0.00000000000E+00 0.  1.
          2    1    1    2  501    0 -0.33836196560E+01  0.20569251853E+02 -0.27327684264E+02  0.34370704547E+02  0.00000000000E+00 0. -1.
         -2    1    1    2    0  503  0.33836196560E+01 -0.20569251853E+02 -0.11440065086E+03  0.11628435802E+03  0.00000000000E+00 0.  1.
</event>
<event>
 4    1  0.1762646E+004  0.2242710E+02  0.7546771E-02  0.1499820E+00
         21   -1    0    0  501  502  0.00000000000E+00  0.00000000000E+00  0.53605276712E+02  0.53605276712E+02  0.00000000000E+00 0.  1.
         21   -1    0    0  502  503 -0.00000000000E+00 -0.00000000000E+00 -0.10256896161E+02  0.10256896161E+02  0.00000000000E+00 0. -1.
          2    1    1    2  501    0  0.23529080938E+01 -0.22303336245E+02  0.30994944452E+02  0.38257830123E+02  0.00000000000E+00 0.  1.
         -2    1    1    2    0  503 -0.23529080938E+01  0.22303336245E+02  0.12353436100E+02  0.25604342750E+02  0.00000000000E+00 0. -1.
</event>
<event>
 4    1  0.1762646E+004  0.2274725E+02  0.7546771E-02  0.1495697E+00
         21   -1    0    0  503  502  0.00000000000E+00  0.00000000000E+00  0.46299673500E+01  0.46299673500E+01  0.00000000000E+00 0. -1.
         21   -1    0    0  501  503 -0.00000000000E+00 -0.00000000000E+00 -0.11256421703E+03  0.11256421703E+03  0.00000000000E+00 0.  1.
          2    1    1    2  501    0 -0.20255391297E+02 -0.10351638377E+02 -0.58925281697E+02  0.63163487212E+02  0.00000000000E+00 0. -1.
         -2    1    1    2    0  502  0.20255391297E+02  0.10351638377E+02 -0.49008967979E+02  0.54030697164E+02  0.00000000000E+00 0.  1.
</event>
<event>
 4    1  0.1762646E+004  0.4351672E+02  0.7546771E-02  0.1329025E+00
         21   -1    0    0  503  502  0.00000000000E+00  0.00000000000E+00  0.11014971468E+02  0.11014971468E+02  0.00000000000E+00 0.  1.
         21   -1    0    0  501  503 -0.00000000000E+00 -0.00000000000E+00 -0.22278178963E+03  0.22278178963E+03  0.00000000000E+00 0. -1.
          2    1    1    2  501    0 -0.10341533053E+02 -0.42270058122E+02 -0.16173815987E+03  0.16749011159E+03  0.00000000000E+00 0. -1.
         -2    1    1    2    0  502  0.10341533053E+02  0.42270058122E+02 -0.50028658288E+02  0.66306649513E+02  0.00000000000E+00 0.  1.
</event>
<event>
 4    1  0.1762646E+004  0.3057756E+02  0.7546771E-02  0.1414643E+00
         21   -1    0    0  501  502  0.00000000000E+00  0.00000000000E+00  0.38160633945E+01  0.38160633945E+01  0.00000000000E+00 0. -1.
         21   -1    0    0  502  503 -0.00000000000E+00 -0.00000000000E+00 -0.35148140772E+03  0.35148140772E+03  0.00000000000E+00 0.  1.
          2    1    1    2  501    0 -0.30535063770E+02  0.16115289171E+01 -0.76059377385E+02  0.81975703919E+02  0.00000000000E+00 0. -1.
         -2    1    1    2    0  503  0.30535063770E+02 -0.16115289171E+01 -0.27160596694E+03  0.27332176720E+03  0.00000000000E+00 0.  1.
</event>
<event>
 4    1  0.1762646E+004  0.2514292E+02  0.7546771E-02  0.1467211E+00
         21   -1    0    0  501  502  0.00000000000E+00  0.00000000000E+00  0.64910776624E+00  0.64910776624E+00  0.00000000000E+00 0.  1.
         21   -1    0    0  502  503 -0.00000000000E+00 -0.00000000000E+00 -0.13827681534E+04  0.13827681534E+04  0.00000000000E+00 0. -1.
          2    1    1    2  501    0 -0.16535610666E+02 -0.18940432700E+02 -0.31492788931E+03  0.31592996356E+03  0.00000000000E+00 0.  1.
         -2    1    1    2    0  503  0.16535610666E+02  0.18940432700E+02 -0.10671911563E+04  0.10674872976E+04  0.00000000000E+00 0. -1.
</event>
<event>
 4    1  0.1762646E+004  0.2237005E+02  0.7546771E-02  0.1500564E+00
         21   -1    0    0  501  502  0.00000000000E+00  0.00000000000E+00  0.89419758593E+01  0.89419758593E+01  0.00000000000E+00 0.  1.
         21   -1    0    0  502  503 -0.00000000000E+00 -0.00000000000E+00 -0.18871530579E+03  0.18871530579E+03  0.00000000000E+00 0. -1.
          2    1    1    2  501    0  0.10699542793E+02  0.19645325214E+02 -0.69969896217E+01  0.23438790124E+02  0.00000000000E+00 0.  1.
         -2    1    1    2    0  503 -0.10699542793E+02 -0.19645325214E+02 -0.17277634031E+03  0.17421849153E+03  0.00000000000E+00 0. -1.
</event>
<event>
 4    1  0.1762646E+004  0.3034090E+02  0.7546771E-02  0.1416657E+00
         21   -1    0    0  503  502  0.00000000000E+00  0.00000000000E+00  0.13113551770E+02  0.13113551770E+02  0.00000000000E+00 0.  1.
         21   -1    0    0  501  503 -0.00000000000E+00 -0.00000000000E+00 -0.86692514690E+02  0.86692514690E+02  0.00000000000E+00 0. -1.
          2    1    1    2  501    0  0.66982602026E+01 -0.29592286436E+02 -0.58555591291E+02  0.65949430458E+02  0.00000000000E+00 0. -1.
         -2    1    1    2    0  502 -0.66982602026E+01  0.29592286436E+02 -0.15023371629E+02  0.33856636002E+02  0.00000000000E+00 0.  1.
</event>
<event>
 4    1  0.1762646E+004  0.4320656E+02  0.7546771E-02  0.1330655E+00
         21   -1    0    0  501  502  0.00000000000E+00  0.00000000000E+00  0.81843057261E+02  0.81843057261E+02  0.00000000000E+00 0.  1.
         21   -1    0    0  502  503 -0.00000000000E+00 -0.00000000000E+00 -0.30421910581E+02  0.30421910581E+02  0.00000000000E+00 0. -1.
          2    1    1    2  501    0 -0.41135665577E+02  0.13216060096E+02  0.53789424022E+02  0.68993545811E+02  0.00000000000E+00 0.  1.
         -2    1    1    2    0  503  0.41135665577E+02 -0.13216060096E+02 -0.23682773424E+01  0.43271422030E+02  0.00000000000E+00 0. -1.
</event>
<event>
 4    1  0.1762646E+004  0.4215733E+02  0.7546771E-02  0.1336287E+00
         21   -1    0    0  503  502  0.00000000000E+00  0.00000000000E+00  0.58434355924E+01  0.58434355924E+01  0.00000000000E+00 0.  1.
         21   -1    0    0  501  503 -0.00000000000E+00 -0.00000000000E+00 -0.34444861466E+03  0.34444861466E+03  0.00000000000E+00 0. -1.
          2    1    1    2  501    0  0.35312208142E+02  0.23027989481E+02 -0.10938966063E+03  0.11723198453E+03  0.00000000000E+00 0. -1.
         -2    1    1    2    0  502 -0.35312208142E+02 -0.23027989481E+02 -0.22921551843E+03  0.23306006572E+03  0.00000000000E+00 0.  1.
</event>
<event>
 4    1  0.1762646E+004  0.2380696E+02  0.7546771E-02  0.1482606E+00
         21   -1    0    0  501  502  0.00000000000E+00  0.00000000000E+00  0.35763580344E+03  0.35763580344E+03  0.00000000000E+00 0. -1.
         21   -1    0    0  502  503 -0.00000000000E+00 -0.00000000000E+00 -0.37086812841E+01  0.37086812841E+01  0.00000000000E+00 0.  1.
          2    1    1    2  501    0 -0.21965847687E+02 -0.91800276940E+01  0.31368909020E+03  0.31459118977E+03  0.00000000000E+00 0. -1.
         -2    1    1    2    0  503  0.21965847687E+02  0.91800276940E+01  0.40238031962E+02  0.46753294956E+02  0.00000000000E+00 0.  1.
</event>
<event>
 4    1  0.1762646E+004  0.2518270E+02  0.7546771E-02  0.1466770E+00
         21   -1    0    0  503  502  0.00000000000E+00  0.00000000000E+00  0.54069260266E+00  0.54069260266E+00  0.00000000000E+00 0.  1.
         21   -1    0    0  501  503 -0.00000000000E+00 -0.00000000000E+00 -0.13712787270E+04  0.13712787270E+04  0.00000000000E+00 0. -1.
          2    1    1    2  501    0  0.10280598011E+02  0.22988643445E+02 -0.94626760868E+03  0.94660263874E+03  0.00000000000E+00 0.  1.
         -2    1    1    2    0  502 -0.10280598011E+02 -0.22988643445E+02 -0.42447042574E+03  0.42521678089E+03  0.00000000000E+00 0. -1.
</event>
<event>
 4    1  0.1762646E+004  0.4172539E+02  0.7546771E-02  0.1338661E+00
         21   -1    0    0  503  502  0.00000000000E+00  0.00000000000E+00  0.92488169767E+03  0.92488169767E+03  0.00000000000E+00 0.  1.
         21   -1    0    0  501  503 -0.00000000000E+00 -0.00000000000E+00 -0.83522041594E+01  0.83522041594E+01  0.00000000000E+00 0. -1.
          2    1    1    2  501    0 -0.17117476763E+02  0.38052597170E+02  0.47583251878E+02  0.63286444215E+02  0.00000000000E+00 0. -1.
         -2    1    1    2    0  502  0.17117476763E+02 -0.38052597170E+02  0.86894624164E+03  0.86994745762E+03  0.00000000000E+00 0.  1.
</event>
<event>
 4    1  0.1762646E+004  0.2079181E+02  0.7546771E-02  0.1522258E+00
         21   -1    0    0  501  502  0.00000000000E+00  0.00000000000E+00  0.52594054411E+03  0.52594054411E+03  0.00000000000E+00 0.  1.
         21   -1    0    0  502  503 -0.00000000000E+00 -0.00000000000E+00 -0.84691951197E+00  0.84691951197E+00  0.00000000000E+00 0. -1.
          2    1    1    2  501    0 -0.83891131414E+01 -0.19024252100E+02  0.30776853556E+03  0.30847004857E+03  0.00000000000E+00 0.  1.
         -2    1    1    2    0  503  0.83891131414E+01  0.19024252100E+02  0.21732508904E+03  0.21831741505E+03  0.00000000000E+00 0. -1.
</event>
<event>
 4    1  0.1762646E+004  0.3933607E+02  0.7546771E-02  0.1352421E+00
         21   -1    0    0  503  502  0.00000000000E+00  0.00000000000E+00  0.64575609745E+02  0.64575609745E+02  0.00000000000E+00 0.  1.
         21   -1    0    0  501  503 -0.00000000000E+00 -0.00000000000E+00 -0.33006478530E+02  0.33006478530E+02  0.00000000000E+00 0. -1.
          2    1    1    2  501    0 -0.17428529110E+02  0.35264322945E+02 -0.97568620440E+01  0.40528045311E+02  0.00000000000E+00 0. -1.
         -2    1    1    2    0  502  0.17428529110E+02 -0.35264322945E+02  0.41325993259E+02  0.57054042965E+02  0.00000000000E+00 0.  1.
</event>
<event>
 4    1  0.1762646E+004  0.2002251E+02  0.7546771E-02  0.1533692E+00
         21   -1    0    0  503  502  0.00000000000E+00  0.00000000000E+00  0.53507032573E+01  0.53507032573E+01  0.00000000000E+00 0. -1.
         21   -1    0    0  501  503 -0.00000000000E+00 -0.00000000000E+00 -0.21995085302E+03  0.21995085302E+03  0.00000000000E+00 0.  1.
          2    1    1    2  501    0 -0.10078168493E+02  0.17301200760E+02 -0.19877334406E+03  0.19977923650E+03  0.00000000000E+00 0.  1.
         -2    1    1    2    0  502  0.10078168493E+02 -0.17301200760E+02 -0.15826805697E+02  0.25522319771E+02  0.00000000000E+00 0. -1.
</event>
<event>
 4    1  0.1762646E+004  0.2434586E+02  0.7546771E-02  0.1476256E+00
         21   -1    0    0  501  502  0.00000000000E+00  0.00000000000E+00  0.74532306164E+01  0.74532306164E+01  0.00000000000E+00 0.  1.
         21   -1    0    0  502  503 -0.00000000000E+00 -0.00000000000E+00 -0.98524680359E+02  0.98524680359E+02  0.00000000000E+00 0. -1.
          2    1    1    2  501    0  0.58931757130E+01  0.23621839438E+02 -0.22266499836E+02  0.32992693636E+02  0.00000000000E+00 0. -1.
         -2    1    1    2    0  503 -0.58931757130E+01 -0.23621839438E+02 -0.68804949907E+02  0.72985217340E+02  0.00000000000E+00 0.  1.
</event>
<event>
 4    1  0.1762646E+004  0.2188795E+02  0.7546771E-02  0.1506955E+00
         21   -1    0    0  501  502  0.00000000000E+00  0.00000000000E+00  0.47569515419E+01  0.47569515419E+01  0.00000000000E+00 0. -1.
         21   -1    0    0  502  503 -0.00000000000E+00 -0.00000000000E+00 -0.10352052048E+03  0.10352052048E+03  0.00000000000E+00 0.  1.
          2    1    1    2  501    0 -0.63779934841E+01 -0.20938084287E+02 -0.40464501760E+02  0.46004978830E+02  0.00000000000E+00 0. -1.
         -2    1    1    2    0  503  0.63779934841E+01  0.20938084287E+02 -0.58299067181E+02  0.62272493194E+02  0.00000000000E+00 0.  1.
</event>
<event>
 4    1  0.1762646E+004  0.2032730E+02  0.7546771E-02  0.1529090E+00
         21   -1    0    0  501  502  0.00000000000E+00  0.00000000000E+00  0.75745547932E+02  0.75745547932E+02  0.00000000000E+00 0.  1.
         21   -1    0    0  502  503 -0.00000000000E+00 -0.00000000000E+00 -0.17608775587E+02  0.17608775587E+02  0.00000000000E+00 0. -1.
          2    1    1    2  501    0  0.19778556619E+02 -0.46912631653E+01  0.67847131067E+02  0.70826777747E+02  0.00000000000E+00 0.  1.
         -2    1    1    2    0  503 -0.19778556619E+02  0.46912631653E+01 -0.97103587216E+01  0.22527545772E+02  0.00000000000E+00 0. -1.
</event>
<event>
 4    1  0.1762646E+004  0.2225475E+02  0.7546771E-02  0.1502074E+00
         21   -1    0    0  503  502  0.00000000000E+00  0.00000000000E+00  0.12420161719E+03  0.12420161719E+03  0.00000000000E+00 0.  1.
         21   -1    0    0  501  503 -0.00000000000E+00 -0.00000000000E+00 -0.47566096020E+01  0.47566096020E+01  0.00000000000E+00 0. -1.
          2    1    1    2  501    0  0.18501861782E+02 -0.12367497699E+02  0.85647523007E+02  0.88491649809E+02  0.00000000000E+00 0.  1.
         -2    1    1    2    0  502 -0.18501861782E+02  0.12367497699E+02  0.33797484585E+02  0.40466576986E+02  0.00000000000E+00 0. -1.
</event>
<event>
 4    1  0.1762646E+004  0.2862498E+02  0.7546771E-02  0.1431934E+00
         21   -1    0    0  503  502  0.00000000000E+00  0.00000000000E+00  0.37461222161E+01  0.37461222161E+01  0.00000000000E+00 0.  1.
         21   -1    0    0  501  503 -0.00000000000E+00 -0.00000000000E+00 -0.22250689180E+03  0.22250689180E+03  0.00000000000E+00 0. -1.
          2    1    1    2  501    0 -0.21197263977E+02 -0.19237086624E+02 -0.12411901106E+03  0.12737707175E+03  0.00000000000E+00 0.  1.
         -2    1    1    2    0  502  0.21197263977E+02  0.19237086624E+02 -0.94641758526E+02  0.98875942265E+02  0.00000000000E+00 0. -1.
</event>
<event>
 4    1  0.1762646E+004  0.3695330E+02  0.7546771E-02  0.1367328E+00
         21   -1    0    0  501  502  0.00000000000E+00  0.00000000000E+00  0.12165871691E+02  0.12165871691E+02  0.00000000000E+00 0. -1.
         21   -1    0    0  502  503 -0.00000000000E+00 -0.00000000000E+00 -0.11683744597E+03  0.11683744597E+03  0.00000000000E+00 0.  1.
          2    1    1    2  501    0  0.36650002484E+02 -0.47247751250E+01 -0.39546425979E+02  0.54124541474E+02  0.00000000000E+00 0. -1.
         -2    1    1    2    0  503 -0.36650002484E+02  0.47247751250E+01 -0.65125148297E+02  0.74878776183E+02  0.00000000000E+00 0.  1.
</event>
<event>
 4    1  0.1762646E+004  0.2243303E+02  0.7546771E-02  0.1499743E+00
         21   -1    0    0  501  502  0.00000000000E+00  0.00000000000E+00  0.41037188715E+02  0.41037188715E+02  0.00000000000E+00 0.  1.
         21   -1    0    0  502  503 -0.00000000000E+00 -0.00000000000E+00 -0.37310319851E+02  0.37310319851E+02  0.00000000000E+00 0. -1.
          2    1    1    2  501    0 -0.54711343328E+01  0.21755629946E+02  0.33960178591E+02  0.40700546374E+02  0.00000000000E+00 0.  1.
         -2    1    1    2    0  503  0.54711343328E+01 -0.21755629946E+02 -0.30233309727E+02  0.37646962192E+02  0.00000000000E+00 0. -1.
</event>
<event>
 4    1  0.1762646E+004  0.5985884E+02  0.7546771E-02  0.1260313E+00
         21   -1    0    0  503  502  0.00000000000E+00  0.00000000000E+00  0.13535026412E+03  0.13535026412E+03  0.00000000000E+00 0. -1.
         21   -1    0    0  501  503 -0.00000000000E+00 -0.00000000000E+00 -0.26683233380E+02  0.26683233380E+02  0.00000000000E+00 0.  1.
          2    1    1    2  501    0 -0.59631833555E+02  0.52081769222E+01  0.47136312564E+02  0.76189977308E+02  0.00000000000E+00 0. -1.
         -2    1    1    2    0  502  0.59631833555E+02 -0.52081769222E+01  0.61530718179E+02  0.85843520196E+02  0.00000000000E+00 0.  1.
</event>
<event>
 4    1  0.1762646E+004  0.2954290E+02  0.7546771E-02  0.1423611E+00
         21   -1    0    0  503  502  0.00000000000E+00  0.00000000000E+00  0.45547782741E+02  0.45547782741E+02  0.00000000000E+00 0. -1.
         21   -1    0    0  501  503 -0.00000000000E+00 -0.00000000000E+00 -0.19269365262E+02  0.19269365262E+02  0.00000000000E+00 0.  1.
          2    1    1    2  501    0 -0.24727403724E+02 -0.16165973373E+02  0.15559179108E+02  0.33389687697E+02  0.00000000000E+00 0. -1.
         -2    1    1    2    0  502  0.24727403724E+02  0.16165973373E+02  0.10719238372E+02  0.31427460306E+02  0.00000000000E+00 0.  1.
</event>
<event>
 4    1  0.1762646E+004  0.3081719E+02  0.7546771E-02  0.1412625E+00
         21   -1    0    0  503  502  0.00000000000E+00  0.00000000000E+00  0.31307905146E+02  0.31307905146E+02  0.00000000000E+00 0. -1.
         21   -1    0    0  501  503 -0.00000000000E+00 -0.00000000000E+00 -0.31372706914E+02  0.31372706914E+02  0.00000000000E+00 0.  1.
          2    1    1    2  501    0  0.89703280871E+00 -0.30804127838E+02  0.56697747780E+01  0.31334410888E+02  0.00000000000E+00 0. -1.
         -2    1    1    2    0  502 -0.89703280871E+00  0.30804127838E+02 -0.57345765460E+01  0.31346201171E+02  0.00000000000E+00 0.  1.
</event>
<event>
 4    1  0.1762646E+004  0.2172526E+02  0.7546771E-02  0.1509157E+00
         21   -1    0    0  503  502  0.00000000000E+00  0.00000000000E+00  0.21264072728E+02  0.21264072728E+02  0.00000000000E+00 0. -1.
         21   -1    0    0  501  503 -0.00000000000E+00 -0.00000000000E+00 -0.77165065998E+02  0.77165065998E+02  0.00000000000E+00 0.  1.
          2    1    1    2  501    0  0.17999165837E+02 -0.12166226613E+02  0.13587036756E+02  0.25624102104E+02  0.00000000000E+00 0. -1.
         -2    1    1    2    0  502 -0.17999165837E+02  0.12166226613E+02 -0.69488030025E+02  0.72805036622E+02  0.00000000000E+00 0.  1.
</event>
<event>
 4    1  0.1762646E+004  0.4460644E+02  0.7546771E-02  0.1323419E+00
         21   -1    0    0  503  502  0.00000000000E+00  0.00000000000E+00  0.77649327390E+01  0.77649327390E+01  0.00000000000E+00 0.  1.
         21   -1    0    0  501  503 -0.00000000000E+00 -0.00000000000E+00 -0.34734078586E+03  0.34734078586E+03  0.00000000000E+00 0. -1.
          2    1    1    2  501    0  0.20668105965E+01 -0.44558534215E+02 -0.26071558556E+03  0.26450397206E+03  0.00000000000E+00 0. -1.
         -2    1    1    2    0  502 -0.20668105965E+01  0.44558534215E+02 -0.78860267554E+02  0.90601746540E+02  0.00000000000E+00 0.  1.
</event>
<event>
 4    1  0.1762646E+004  0.2157916E+02  0.7546771E-02  0.1511154E+00
         21   -1    0    0  503  502  0.00000000000E+00  0.00000000000E+00  0.24489937546E+03  0.24489937546E+03  0.00000000000E+00 0. -1.
         21   -1    0    0  501  503 -0.00000000000E+00 -0.00000000000E+00 -0.21163957807E+01  0.21163957807E+01  0.00000000000E+00 0.  1.
          2    1    1    2  501    0  0.14643433581E+02  0.15850233219E+02  0.82029531297E+02  0.84820422334E+02  0.00000000000E+00 0.  1.
         -2    1    1    2    0  502 -0.14643433581E+02 -0.15850233219E+02  0.16075344838E+03  0.16219534891E+03  0.00000000000E+00 0. -1.
</event>
<event>
 4    1  0.1762646E+004  0.3189984E+02  0.7546771E-02  0.1403775E+00
         21   -1    0    0  503  502  0.00000000000E+00  0.00000000000E+00  0.64011826218E+02  0.64011826218E+02  0.00000000000E+00 0. -1.
         21   -1    0    0  501  503 -0.00000000000E+00 -0.00000000000E+00 -0.18823654141E+02  0.18823654141E+02  0.00000000000E+00 0.  1.
          2    1    1    2  501    0  0.61253274697E+01  0.31306233030E+02  0.62629778062E+01  0.32508841169E+02  0.00000000000E+00 0.  1.
         -2    1    1    2    0  502 -0.61253274697E+01 -0.31306233030E+02  0.38925194271E+02  0.50326639190E+02  0.00000000000E+00 0. -1.
</event>
<event>
 4    1  0.1762646E+004  0.2206357E+02  0.7546771E-02  0.1504604E+00
         21   -1    0    0  501  502  0.00000000000E+00  0.00000000000E+00  0.49888797487E+01  0.49888797487E+01  0.00000000000E+00 0. -1.
         21   -1    0    0  502  503 -0.00000000000E+00 -0.00000000000E+00 -0.31513844140E+03  0.31513844140E+03  0.00000000000E+00 0.  1.
          2    1    1    2  501    0 -0.18328488610E+02  0.12282825703E+02 -0.22080568857E+02  0.31214625146E+02  0.00000000000E+00 0. -1.
         -2    1    1    2    0  503  0.18328488610E+02 -0.12282825703E+02 -0.28806899280E+03  0.28891269600E+03  0.00000000000E+00 0.  1.
</event>
<event>
 4    1  0.1762646E+004  0.2621372E+02  0.7546771E-02  0.1455670E+00
         21   -1    0    0  503  502  0.00000000000E+00  0.00000000000E+00  0.24746634459E+01  0.24746634459E+01  0.00000000000E+00 0. -1.
         21   -1    0    0  501  503 -0.00000000000E+00 -0.00000000000E+00 -0.32378381285E+03  0.32378381285E+03  0.00000000000E+00 0.  1.
          2    1    1    2  501    0 -0.89503951488E+01 -0.24638378356E+02 -0.22221232229E+03  0.22375315738E+03  0.00000000000E+00 0.  1.
         -2    1    1    2    0  502  0.89503951488E+01  0.24638378356E+02 -0.99096827116E+02  0.10250531891E+03  0.00000000000E+00 0. -1.
</event>
<event>
 4    1  0.1762646E+004  0.2110035E+02  0.7546771E-02  0.1517837E+00
         21   -1    0    0  501  502  0.00000000000E+00  0.00000000000E+00  0.61450187196E+00  0.61450187196E+00  0.00000000000E+00 0. -1.
         21   -1    0    0  502  503 -0.00000000000E+00 -0.00000000000E+00 -0.76295966848E+03  0.76295966848E+03  0.00000000000E+00 0.  1.
          2    1    1    2  501    0  0.11878325456E+02 -0.17439323360E+02 -0.29548701479E+03  0.29623943108E+03  0.00000000000E+00 0. -1.
         -2    1    1    2    0  503 -0.11878325456E+02  0.17439323360E+02 -0.46685815182E+03  0.46733473928E+03  0.00000000000E+00 0.  1.
</event>
<event>
 4    1  0.1762646E+004  0.2710207E+02  0.7546771E-02  0.1446586E+00
         21   -1    0    0  501  502  0.00000000000E+00  0.00000000000E+00  0.65998231336E+02  0.65998231336E+02  0.00000000000E+00 0. -1.
         21   -1    0    0  502  503 -0.00000000000E+00 -0.00000000000E+00 -0.26911017391E+02  0.26911017391E+02  0.00000000000E+00 0.  1.
          2    1    1    2  501    0  0.19587780964E+02  0.18730747238E+02  0.55118153278E+02  0.61420948185E+02  0.00000000000E+00 0. -1.
         -2    1    1    2    0  503 -0.19587780964E+02 -0.18730747238E+02 -0.16030939332E+02  0.31488300542E+02  0.00000000000E+00 0.  1.
</event>
<event>
 4    1  0.1762646E+004  0.2048424E+02  0.7546771E-02  0.1526757E+00
         21   -1    0    0  503  502  0.00000000000E+00  0.00000000000E+00  0.25218553244E+03  0.25218553244E+03  0.00000000000E+00 0. -1.
         21   -1    0    0  501  503 -0.00000000000E+00 -0.00000000000E+00 -0.17535697281E+01  0.17535697281E+01  0.00000000000E+00 0.  1.
          2    1    1    2  501    0 -0.20447648879E+02 -0.12238432561E+01  0.96499464965E+02  0.98649636976E+02  0.00000000000E+00 0. -1.
         -2    1    1    2    0  502  0.20447648879E+02  0.12238432561E+01  0.15393249775E+03  0.15528946520E+03  0.00000000000E+00 0.  1.
</event>
<event>
 4    1  0.1762646E+004  0.2220014E+02  0.7546771E-02  0.1502794E+00
         21   -1    0    0  501  502  0.00000000000E+00  0.00000000000E+00  0.10357016827E+01  0.10357016827E+01  0.00000000000E+00 0.  1.
         21   -1    0    0  502  503 -0.00000000000E+00 -0.00000000000E+00 -0.51737609496E+03  0.51737609496E+03  0.00000000000E+00 0. -1.
          2    1    1    2  501    0  0.20009545801E+02  0.96158305359E+01 -0.18474172205E+03  0.18607081981E+03  0.00000000000E+00 0.  1.
         -2    1    1    2    0  503 -0.20009545801E+02 -0.96158305359E+01 -0.33159867122E+03  0.33234097683E+03  0.00000000000E+00 0. -1.
</event>
<event>
 4    1  0.1762646E+004  0.6133375E+02  0.7546771E-02  0.1255367E+00
         21   -1    0    0  501  502  0.00000000000E+00  0.00000000000E+00  0.15749015198E+03  0.15749015198E+03  0.00000000000E+00 0. -1.
         21   -1    0    0  502  503 -0.00000000000E+00 -0.00000000000E+00 -0.73208677286E+02  0.73208677286E+02  0.00000000000E+00 0.  1.
          2    1    1    2  501    0 -0.49699992561E+02 -0.35940782180E+02  0.13682044236E+03  0.14993886265E+03  0.00000000000E+00 0. -1.
         -2    1    1    2    0  503  0.49699992561E+02  0.35940782180E+02 -0.52538967668E+02  0.80759966617E+02  0.00000000000E+00 0.  1.
</event>
<event>
 4    1  0.1762646E+004  0.2545854E+02  0.7546771E-02  0.1463739E+00
         21   -1    0    0  503  502  0.00000000000E+00  0.00000000000E+00  0.33424964193E+03  0.33424964193E+03  0.00000000000E+00 0.  1.
         21   -1    0    0  501  503 -0.00000000000E+00 -0.00000000000E+00 -0.33691542559E+01  0.33691542559E+01  0.00000000000E+00 0. -1.
          2    1    1    2  501    0 -0.18049396917E+02  0.17954294251E+02  0.55459870827E+02  0.61024050040E+02  0.00000000000E+00 0. -1.
         -2    1    1    2    0  502  0.18049396917E+02 -0.17954294251E+02  0.27542061685E+03  0.27659474615E+03  0.00000000000E+00 0.  1.
</event>
<event>
 4    1  0.1762646E+004  0.4400074E+02  0.7546771E-02  0.1326512E+00
         21   -1    0    0  503  502  0.00000000000E+00  0.00000000000E+00  0.44473147877E+02  0.44473147877E+02  0.00000000000E+00 0.  1.
         21   -1    0    0  501  503 -0.00000000000E+00 -0.00000000000E+00 -0.13954488334E+03  0.13954488334E+03  0.00000000000E+00 0. -1.
          2    1    1    2  501    0 -0.10986039100E+02 -0.42607179582E+02 -0.12385530230E+03  0.13143896194E+03  0.00000000000E+00 0. -1.
         -2    1    1    2    0  502  0.10986039100E+02  0.42607179582E+02  0.28783566834E+02  0.52579069284E+02  0.00000000000E+00 0.  1.
</event>
<event>
 4    1  0.1762646E+004  0.2260317E+02  0.7546771E-02  0.1497542E+00
         21   -1    0    0  501  502  0.00000000000E+00  0.00000000000E+00  0.59467489871E+02  0.59467489871E+02  0.00000000000E+00 0.  1.
         21   -1    0    0  502  503 -0.00000000000E+00 -0.00000000000E+00 -0.90677708779E+01  0.90677708779E+01  0.00000000000E+00 0. -1.
          2    1    1    2  501    0  0.20427265878E+02 -0.96762629917E+01  0.33054935081E+02  0.40044125536E+02  0.00000000000E+00 0. -1.
         -2    1    1    2    0  503 -0.20427265878E+02  0.96762629917E+01  0.17344783912E+02  0.28491135213E+02  0.00000000000E+00 0.  1.
</event>
<event>
 4    1  0.1762646E+004  0.2642203E+02  0.7546771E-02  0.1453502E+00
         21   -1    0    0  501  502  0.00000000000E+00  0.00000000000E+00  0.15300422828E+02  0.15300422828E+02  0.00000000000E+00 0.  1.
         21   -1    0    0  502  503 -0.00000000000E+00 -0.00000000000E+00 -0.10713313429E+03  0.10713313429E+03  0.00000000000E+00 0. -1.
          2    1    1    2  501    0  0.18676040701E+02  0.18690347341E+02  0.46732417031E+00  0.26426160748E+02  0.00000000000E+00 0.  1.
         -2    1    1    2    0  503 -0.18676040701E+02 -0.18690347341E+02 -0.92300035630E+02  0.96007396368E+02  0.00000000000E+00 0. -1.
</event>
<event>
 4    1  0.1762646E+004  0.2680097E+02  0.7546771E-02  0.1449618E+00
         21   -1    0    0  503  502  0.00000000000E+00  0.00000000000E+00  0.14252264548E+02  0.14252264548E+02  0.00000000000E+00 0.  1.
         21   -1    0    0  501  503 -0.00000000000E+00 -0.00000000000E+00 -0.59055627345E+02  0.59055627345E+02  0.00000000000E+00 0. -1.
          2    1    1    2  501    0  0.14235944753E+02 -0.22707479714E+02 -0.36435593393E+02  0.45231009538E+02  0.00000000000E+00 0. -1.
         -2    1    1    2    0  502 -0.14235944753E+02  0.22707479714E+02 -0.83677694040E+01  0.28076882355E+02  0.00000000000E+00 0.  1.
</event>
<event>
 4    1  0.1762646E+004  0.3340390E+02  0.7546771E-02  0.1392145E+00
         21   -1    0    0  503  502  0.00000000000E+00  0.00000000000E+00  0.14259373397E+03  0.14259373397E+03  0.00000000000E+00 0.  1.
         21   -1    0    0  501  503 -0.00000000000E+00 -0.00000000000E+00 -0.78423858513E+01  0.78423858513E+01  0.00000000000E+00 0. -1.
          2    1    1    2  501    0 -0.30984314036E+02 -0.12481702991E+02  0.63851759077E+02  0.72061555375E+02  0.00000000000E+00 0. -1.
         -2    1    1    2    0  502  0.30984314036E+02  0.12481702991E+02  0.70899589041E+02  0.78374564446E+02  0.00000000000E+00 0.  1.
</event>
<event>
 4    1  0.1762646E+004  0.2405995E+02  0.7546771E-02  0.1479601E+00
         21   -1    0    0  501  502  0.00000000000E+00  0.00000000000E+00  0.39414935921E+02  0.39414935921E+02  0.00000000000E+00 0. -1.
         21   -1    0    0  502  503 -0.00000000000E+00 -0.00000000000E+00 -0.24544389284E+02  0.24544389284E+02  0.00000000000E+00 0.  1.
          2    1    1    2  501    0 -0.23987095616E+02 -0.18709160292E+01  0.27701930198E+02  0.36691661444E+02  0.00000000000E+00 0. -1.
         -2    1    1    2    0  503  0.23987095616E+02  0.18709160292E+01 -0.12831383561E+02  0.27267663760E+02  0.00000000000E+00 0.  1.
</event>
<event>
 4    1  0.1762646E+004  0.2084171E+02  0.7546771E-02  0.1521537E+00
         21   -1    0    0  503  502  0.00000000000E+00  0.00000000000E+00  0.65884765507E+01  0.65884765507E+01  0.00000000000E+00 0.  1.
         21   -1    0    0  501  503 -0.00000000000E+00 -0.00000000000E+00 -0.87153863548E+02  0.87153863548E+02  0.00000000000E+00 0. -1.
          2    1    1    2  501    0 -0.20581435201E+02  0.32834894273E+01 -0.63412766076E+02  0.66749948907E+02  0.00000000000E+00 0. -1.
         -2    1    1    2    0  502  0.20581435201E+02 -0.32834894273E+01 -0.17152620922E+02  0.26992391192E+02  0.00000000000E+00 0.  1.
</event>
<event>
 4    1  0.1762646E+004  0.3134073E+02  0.7546771E-02  0.1408293E+00
         21   -1    0    0  501  502  0.00000000000E+00  0.00000000000E+00  0.38474855766E+01  0.38474855766E+01  0.00000000000E+00 0. -1.
         21   -1    0    0  502  503 -0.00000000000E+00 -0.00000000000E+00 -0.59381965689E+03  0.59381965689E+03  0.00000000000E+00 0.  1.
          2    1    1    2  501    0  0.14628256764E+02 -0.27717416530E+02 -0.69355634022E+02  0.76108114191E+02  0.00000000000E+00 0. -1.
         -2    1    1    2    0  503 -0.14628256764E+02  0.27717416530E+02 -0.52061653730E+03  0.52155902828E+03  0.00000000000E+00 0.  1.
</event>
<event>
 4    1  0.1762646E+004  0.2467838E+02  0.7546771E-02  0.1472434E+00
         21   -1    0    0  501  502  0.00000000000E+00  0.00000000000E+00  0.18125887018E+02  0.18125887018E+02  0.00000000000E+00 0. -1.
         21   -1    0    0  502  503 -0.00000000000E+00 -0.00000000000E+00 -0.35629690963E+02  0.35629690963E+02  0.00000000000E+00 0.  1.
          2    1    1    2  501    0  0.11496203363E+02  0.21837119539E+02 -0.23361777777E+01  0.24788711305E+02  0.00000000000E+00 0. -1.
         -2    1    1    2    0  503 -0.11496203363E+02 -0.21837119539E+02 -0.15167626167E+02  0.28966866677E+02  0.00000000000E+00 0.  1.
</event>
<event>
 4    1  0.1762646E+004  0.3789800E+02  0.7546771E-02  0.1361264E+00
         21   -1    0    0  503  502  0.00000000000E+00  0.00000000000E+00  0.83943910021E+02  0.83943910021E+02  0.00000000000E+00 0.  1.
         21   -1    0    0  501  503 -0.00000000000E+00 -0.00000000000E+00 -0.22635915283E+02  0.22635915283E+02  0.00000000000E+00 0. -1.
          2    1    1    2  501    0  0.20285139736E+02  0.32012054543E+02  0.56984447320E+02  0.68435997593E+02  0.00000000000E+00 0. -1.
         -2    1    1    2    0  502 -0.20285139736E+02 -0.32012054543E+02  0.43235474186E+01  0.38143827711E+02  0.00000000000E+00 0.  1.
</event>
<event>
 4    1  0.1762646E+004  0.3417320E+02  0.7546771E-02  0.1386471E+00
         21   -1    0    0  501  502  0.00000000000E+00  0.00000000000E+00  0.22313943546E+02  0.22313943546E+02  0.00000000000E+00 0.  1.
         21   -1    0    0  502  503 -0.00000000000E+00 -0.00000000000E+00 -0.55889750914E+02  0.55889750914E+02  0.00000000000E+00 0. -1.
          2    1    1    2  501    0  0.24372478798E+02  0.23953905896E+02 -0.69270083092E+01  0.34868191444E+02  0.00000000000E+00 0. -1.
         -2    1    1    2    0  503 -0.24372478798E+02 -0.23953905896E+02 -0.26648799059E+02  0.43335503017E+02  0.00000000000E+00 0.  1.
</event>
<event>
 4    1  0.1762646E+004  0.2230012E+02  0.7546771E-02  0.1501479E+00
         21   -1    0    0  503  502  0.00000000000E+00  0.00000000000E+00  0.16963946388E+03  0.16963946388E+03  0.00000000000E+00 0.  1.
         21   -1    0    0  501  503 -0.00000000000E+00 -0.00000000000E+00 -0.34929053972E+01  0.34929053972E+01  0.00000000000E+00 0. -1.
          2    1    1    2  501    0 -0.22275733720E+02  0.10426247220E+01  0.48367697059E+02  0.53260956600E+02  0.00000000000E+00 0. -1.
         -2    1    1    2    0  502  0.22275733720E+02 -0.10426247220E+01  0.11777886142E+03  0.11987141268E+03  0.00000000000E+00 0.  1.
</event>
<event>
 4    1  0.1762646E+004  0.2943464E+02  0.7546771E-02  0.1424574E+00
         21   -1    0    0  503  502  0.00000000000E+00  0.00000000000E+00  0.28838720239E+02  0.28838720239E+02  0.00000000000E+00 0.  1.
         21   -1    0    0  501  503 -0.00000000000E+00 -0.00000000000E+00 -0.40642220164E+02  0.40642220164E+02  0.00000000000E+00 0. -1.
          2    1    1    2  501    0  0.10539522832E+02 -0.27483018409E+02 -0.23643099705E+02  0.37754390554E+02  0.00000000000E+00 0. -1.
         -2    1    1    2    0  502 -0.10539522832E+02  0.27483018409E+02  0.11839599780E+02  0.31726549850E+02  0.00000000000E+00 0.  1.
</event>
<event>
 4    1  0.1762646E+004  0.2375607E+02  0.7546771E-02  0.1483216E+00
         21   -1    0    0  501  502  0.00000000000E+00  0.00000000000E+00  0.11436454749E+03  0.11436454749E+03  0.00000000000E+00 0. -1.
         21   -1    0    0  502  503 -0.00000000000E+00 -0.00000000000E+00 -0.31214839710E+02  0.31214839710E+02  0.00000000000E+00 0.  1.
          2    1    1    2  501    0  0.89323599964E+01 -0.22012806067E+02  0.10836362672E+03  0.11093703747E+03  0.00000000000E+00 0. -1.
         -2    1    1    2    0  503 -0.89323599964E+01  0.22012806067E+02 -0.25213918946E+02  0.34642349728E+02  0.00000000000E+00 0.  1.
</event>
<event>
 4    1  0.1762646E+004  0.3097177E+02  0.7546771E-02  0.1411335E+00
         21   -1    0    0  501  502  0.00000000000E+00  0.00000000000E+00  0.41077633354E+03  0.41077633354E+03  0.00000000000E+00 0. -1.
         21   -1    0    0  502  503 -0.00000000000E+00 -0.00000000000E+00 -0.11737670244E+02  0.11737670244E+02  0.00000000000E+00 0.  1.
          2    1    1    2  501    0 -0.46054692803E+01  0.30627446549E+02  0.38859724903E+03  0.38982954324E+03  0.00000000000E+00 0. -1.
         -2    1    1    2    0  503  0.46054692803E+01 -0.30627446549E+02  0.10441414273E+02  0.32684460550E+02  0.00000000000E+00 0.  1.
</event>
<event>
 4    1  0.1762646E+004  0.2006238E+02  0.7546771E-02  0.1533084E+00
         21   -1    0    0  503  502  0.00000000000E+00  0.00000000000E+00  0.73934343874E+02  0.73934343874E+02  0.00000000000E+00 0. -1.
         21   -1    0    0  501  503 -0.00000000000E+00 -0.00000000000E+00 -0.85401724597E+01  0.85401724597E+01  0.00000000000E+00 0.  1.
          2    1    1    2  501    0 -0.19555612215E+02 -0.44807647039E+01  0.78675606119E+01  0.21549889360E+02  0.00000000000E+00 0. -1.
         -2    1    1    2    0  502  0.19555612215E+02  0.44807647039E+01  0.57526610803E+02  0.60924626974E+02  0.00000000000E+00 0.  1.
</event>
<event>
 4    1  0.1762646E+004  0.8113798E+02  0.7546771E-02  0.1201230E+00
         21   -1    0    0  501  502  0.00000000000E+00  0.00000000000E+00  0.23649925372E+03  0.23649925372E+03  0.00000000000E+00 0.  1.
         21   -1    0    0  502  503 -0.00000000000E+00 -0.00000000000E+00 -0.37506724936E+02  0.37506724936E+02  0.00000000000E+00 0. -1.
          2    1    1    2  501    0 -0.73967763844E+02  0.33348784318E+02  0.16906082720E+03  0.18752315803E+03  0.00000000000E+00 0.  1.
         -2    1    1    2    0  503  0.73967763844E+02 -0.33348784318E+02  0.29931701583E+02  0.86482820625E+02  0.00000000000E+00 0. -1.
</event>
<event>
 4    1  0.1762646E+004  0.2053835E+02  0.7546771E-02  0.1525959E+00
         21   -1    0    0  501  502  0.00000000000E+00  0.00000000000E+00  0.58003031580E+00  0.58003031580E+00  0.00000000000E+00 0.  1.
         21   -1    0    0  502  503 -0.00000000000E+00 -0.00000000000E+00 -0.77184795351E+03  0.77184795351E+03  0.00000000000E+00 0. -1.
          2    1    1    2  501    0 -0.19597651456E+02  0.61445754958E+01 -0.29279136872E+03  0.29351083344E+03  0.00000000000E+00 0. -1.
         -2    1    1    2    0  503  0.19597651456E+02 -0.61445754958E+01 -0.47847655448E+03  0.47891715039E+03  0.00000000000E+00 0.  1.
</event>
<event>
 4    1  0.1762646E+004  0.2441092E+02  0.7546771E-02  0.1475502E+00
         21   -1    0    0  503  502  0.00000000000E+00  0.00000000000E+00  0.43509998322E+02  0.43509998322E+02  0.00000000000E+00 0. -1.
         21   -1    0    0  501  503 -0.00000000000E+00 -0.00000000000E+00 -0.55654701161E+02  0.55654701161E+02  0.00000000000E+00 0.  1.
          2    1    1    2  501    0 -0.22092277252E+02 -0.10383843163E+02 -0.49123979186E+02  0.54854883503E+02  0.00000000000E+00 0.  1.
         -2    1    1    2    0  502  0.22092277252E+02  0.10383843163E+02  0.36979276348E+02  0.44309815980E+02  0.00000000000E+00 0. -1.
</event>
<event>
 4    1  0.1762646E+004  0.2332879E+02  0.7546771E-02  0.1488410E+00
         21   -1    0    0  501  502  0.00000000000E+00  0.00000000000E+00  0.30591494609E+01  0.30591494609E+01  0.00000000000E+00 0.  1.
         21   -1    0    0  502  503 -0.00000000000E+00 -0.00000000000E+00 -0.60030072846E+03  0.60030072846E+03  0.00000000000E+00 0. -1.
          2    1    1    2  501    0 -0.34065122363E+01  0.23078734112E+02 -0.45561251082E+02  0.51186520628E+02  0.00000000000E+00 0.  1.
         -2    1    1    2    0  503  0.34065122363E+01 -0.23078734112E+02 -0.55168032792E+03  0.55217335729E+03  0.00000000000E+00 0. -1.
</event>
<event>
 4    1  0.1762646E+004  0.3214616E+02  0.7546771E-02  0.1401819E+00
         21   -1    0    0  501  502  0.00000000000E+00  0.00000000000E+00  0.24482251209E+02  0.24482251209E+02  0.00000000000E+00 0. -1.
         21   -1    0    0  502  503 -0.00000000000E+00 -0.00000000000E+00 -0.57237376706E+02  0.57237376706E+02  0.00000000000E+00 0.  1.
          2    1    1    2  501    0  0.32143309788E+02 -0.42831003851E+00  0.45592187747E+01  0.32467865489E+02  0.00000000000E+00 0. -1.
         -2    1    1    2    0  503 -0.32143309788E+02  0.42831003851E+00 -0.37314344272E+02  0.49251762425E+02  0.00000000000E+00 0.  1.
</event>
<event>
 4    1  0.1762646E+004  0.3152571E+02  0.7546771E-02  0.1406786E+00
         21   -1    0    0  503  502  0.00000000000E+00  0.00000000000E+00  0.44459273249E+02  0.44459273249E+02  0.00000000000E+00 0.  1.
         21   -1    0    0  501  503 -0.00000000000E+00 -0.00000000000E+00 -0.60203925166E+02  0.60203925166E+02  0.00000000000E+00 0. -1.
          2    1    1    2  501    0 -0.26942544971E+02 -0.16369772359E+02 -0.49365872481E+02  0.58573539610E+02  0.00000000000E+00 0. -1.
         -2    1    1    2    0  502  0.26942544971E+02  0.16369772359E+02  0.33621220564E+02  0.46089658806E+02  0.00000000000E+00 0.  1.
</event>
<event>
 4    1  0.1762646E+004  0.2058928E+02  0.7546771E-02  0.1525210E+00
         21   -1    0    0  503  502  0.00000000000E+00  0.00000000000E+00  0.28244711205E+00  0.28244711205E+00  0.00000000000E+00 0.  1.
         21   -1    0    0  501  503 -0.00000000000E+00 -0.00000000000E+00 -0.17248248463E+04  0.17248248463E+04  0.00000000000E+00 0. -1.
          2    1    1    2  501    0 -0.36463267909E+01 -0.20263832960E+02 -0.11730749129E+04  0.11732555859E+04  0.00000000000E+00 0. -1.
         -2    1    1    2    0  502  0.36463267909E+01  0.20263832960E+02 -0.55146748629E+03  0.55185170749E+03  0.00000000000E+00 0.  1.
</event>
<event>
 4    1  0.1762646E+004  0.2218609E+02  0.7546771E-02  0.1502979E+00
         21   -1    0    0  503  502  0.00000000000E+00  0.00000000000E+00  0.94796307339E+00  0.94796307339E+00  0.00000000000E+00 0.  1.
         21   -1    0    0  501  503 -0.00000000000E+00 -0.00000000000E+00 -0.59864334478E+03  0.59864334478E+03  0.00000000000E+00 0. -1.
          2    1    1    2  501    0 -0.16512666946E+02 -0.14817372954E+02 -0.40803039086E+03  0.40863311488E+03  0.00000000000E+00 0. -1.
         -2    1    1    2    0  502  0.16512666946E+02  0.14817372954E+02 -0.18966499084E+03  0.19095819297E+03  0.00000000000E+00 0.  1.
</event>
<event>
 4    1  0.1762646E+004  0.2809409E+02  0.7546771E-02  0.1436917E+00
         21   -1    0    0  501  502  0.00000000000E+00  0.00000000000E+00  0.79645050431E+01  0.79645050431E+01  0.00000000000E+00 0. -1.
         21   -1    0    0  502  503 -0.00000000000E+00 -0.00000000000E+00 -0.12958662639E+03  0.12958662639E+03  0.00000000000E+00 0.  1.
          2    1    1    2  501    0  0.76547422372E+01 -0.27031148097E+02 -0.27452085363E+02  0.39279702607E+02  0.00000000000E+00 0. -1.
         -2    1    1    2    0  503 -0.76547422372E+01  0.27031148097E+02 -0.94170035981E+02  0.98271428823E+02  0.00000000000E+00 0.  1.
</event>
<event>
 4    1  0.1762646E+004  0.3234817E+02  0.7546771E-02  0.1400231E+00
         21   -1    0    0  503  502  0.00000000000E+00  0.00000000000E+00  0.96702222009E+01  0.96702222009E+01  0.00000000000E+00 0.  1.
         21   -1    0    0  501  503 -0.00000000000E+00 -0.00000000000E+00 -0.19949211172E+03  0.19949211172E+03  0.00000000000E+00 0. -1.
          2    1    1    2  501    0 -0.86479480178E+01 -0.31170770174E+02 -0.16565437630E+03  0.16878322282E+03  0.00000000000E+00 0. -1.
         -2    1    1    2    0  502  0.86479480178E+01  0.31170770174E+02 -0.24167513222E+02  0.40379111103E+02  0.00000000000E+00 0.  1.
</event>
<event>
 4    1  0.1762646E+004  0.2706592E+02  0.7546771E-02  0.1446947E+00
         21   -1    0    0  503  502  0.00000000000E+00  0.00000000000E+00  0.15850272181E+04  0.15850272181E+04  0.00000000000E+00 0. -1.
         21   -1    0    0  501  503 -0.00000000000E+00 -0.00000000000E+00 -0.17474147424E+01  0.17474147424E+01  0.00000000000E+00 0.  1.
          2    1    1    2  501    0  0.49288917546E+01  0.26613340543E+02  0.11121701740E+03  0.11446304569E+03  0.00000000000E+00 0.  1.
         -2    1    1    2    0  502 -0.49288917546E+01 -0.26613340543E+02  0.14720627860E+04  0.14723115872E+04  0.00000000000E+00 0. -1.
</event>
<event>
 4    1  0.1762646E+004  0.2077135E+02  0.7546771E-02  0.1522555E+00
         21   -1    0    0  501  502  0.00000000000E+00  0.00000000000E+00  0.28359934297E+03  0.28359934297E+03  0.00000000000E+00 0. -1.
         21   -1    0    0  502  503 -0.00000000000E+00 -0.00000000000E+00 -0.21673407835E+01  0.21673407835E+01  0.00000000000E+00 0.  1.
          2    1    1    2  501    0  0.10745899147E+02 -0.17775678814E+02  0.21872357912E+03  0.21970765387E+03  0.00000000000E+00 0. -1.
         -2    1    1    2    0  503 -0.10745899147E+02  0.17775678814E+02  0.62708423075E+02  0.66059029892E+02  0.00000000000E+00 0.  1.
</event>
<event>
 4    1  0.1762646E+004  0.3484668E+02  0.7546771E-02  0.1381644E+00
         21   -1    0    0  503  502  0.00000000000E+00  0.00000000000E+00  0.31961659047E+02  0.31961659047E+02  0.00000000000E+00 0.  1.
         21   -1    0    0  501  503 -0.00000000000E+00 -0.00000000000E+00 -0.51469638447E+02  0.51469638447E+02  0.00000000000E+00 0. -1.
          2    1    1    2  501    0  0.34743444823E+02 -0.26803120151E+01 -0.31100578725E+02  0.46706926978E+02  0.00000000000E+00 0. -1.
         -2    1    1    2    0  502 -0.34743444823E+02  0.26803120151E+01  0.11592599325E+02  0.36724370516E+02  0.00000000000E+00 0.  1.
</event>
<event>
 4    1  0.1762646E+004  0.2437409E+02  0.7546771E-02  0.1475929E+00
         21   -1    0    0  501  502  0.00000000000E+00  0.00000000000E+00  0.22193272726E+01  0.22193272726E+01  0.00000000000E+00 0.  1.
         21   -1    0    0  502  503 -0.00000000000E+00 -0.00000000000E+00 -0.28909714014E+03  0.28909714014E+03  0.00000000000E+00 0. -1.
          2    1    1    2  501    0 -0.13971561068E+02 -0.19972270136E+02 -0.10380449001E+03  0.10662770859E+03  0.00000000000E+00 0.  1.
         -2    1    1    2    0  503  0.13971561068E+02  0.19972270136E+02 -0.18307332286E+03  0.18468875882E+03  0.00000000000E+00 0. -1.
</event>
<event>
 4    1  0.1762646E+004  0.2010881E+02  0.7546771E-02  0.1532379E+00
         21   -1    0    0  501  502  0.00000000000E+00  0.00000000000E+00  0.54345281938E+02  0.54345281938E+02  0.00000000000E+00 0.  1.
         21   -1    0    0  502  503 -0.00000000000E+00 -0.00000000000E+00 -0.26248789591E+02  0.26248789591E+02  0.00000000000E+00 0. -1.
          2    1    1    2  501    0 -0.52064746053E-01  0.20108742835E+02  0.48159004458E+02  0.52188638222E+02  0.00000000000E+00 0.  1.
         -2    1    1    2    0  503  0.52064746053E-01 -0.20108742835E+02 -0.20062512111E+02  0.28405433307E+02  0.00000000000E+00 0. -1.
</event>
<event>
 4    1  0.1762646E+004  0.3249203E+02  0.7546771E-02  0.1399108E+00
         21   -1    0    0  501  502  0.00000000000E+00  0.00000000000E+00  0.13498227582E+03  0.13498227582E+03  0.00000000000E+00 0. -1.
         21   -1    0    0  502  503 -0.00000000000E+00 -0.00000000000E+00 -0.12250863788E+02  0.12250863788E+02  0.00000000000E+00 0.  1.
          2    1    1    2  501    0  0.93310073523E+01  0.31123375824E+02  0.10563212515E+03  0.11051641545E+03  0.00000000000E+00 0. -1.
         -2    1    1    2    0  503 -0.93310073523E+01 -0.31123375824E+02  0.17099286885E+02  0.36716724158E+02  0.00000000000E+00 0.  1.
</event>
<event>
 4    1  0.1762646E+004  0.4411748E+02  0.7546771E-02  0.1325912E+00
         21   -1    0    0  503  502  0.00000000000E+00  0.00000000000E+00  0.10942665577E+02  0.10942665577E+02  0.00000000000E+00 0. -1.
         21   -1    0    0  501  503 -0.00000000000E+00 -0.00000000000E+00 -0.25731384989E+03  0.25731384989E+03  0.00000000000E+00 0.  1.
          2    1    1    2  501    0  0.41408894986E+02  0.15220222381E+02 -0.19771434981E+03  0.20257669134E+03  0.00000000000E+00 0.  1.
         -2    1    1    2    0  502 -0.41408894986E+02 -0.15220222381E+02 -0.48656834499E+02  0.65679824122E+02  0.00000000000E+00 0. -1.
</event>
<event>
 4    1  0.1762646E+004  0.3150584E+02  0.7546771E-02  0.1406947E+00
         21   -1    0    0  503  502  0.00000000000E+00  0.00000000000E+00  0.13037463330E+03  0.13037463330E+03  0.00000000000E+00 0.  1.
         21   -1    0    0  501  503 -0.00000000000E+00 -0.00000000000E+00 -0.93117006724E+02  0.93117006724E+02  0.00000000000E+00 0. -1.
          2    1    1    2  501    0 -0.23901577401E+00 -0.31504930730E+02 -0.88451230901E+02  0.93894824334E+02  0.00000000000E+00 0. -1.
         -2    1    1    2    0  502  0.23901577401E+00  0.31504930730E+02  0.12570885748E+03  0.12959681569E+03  0.00000000000E+00 0.  1.
</event>
<event>
 4    1  0.1762646E+004  0.2427809E+02  0.7546771E-02  0.1477044E+00
         21   -1    0    0  503  502  0.00000000000E+00  0.00000000000E+00  0.21853030912E+01  0.21853030912E+01  0.00000000000E+00 0.  1.
         21   -1    0    0  501  503 -0.00000000000E+00 -0.00000000000E+00 -0.42963912336E+03  0.42963912336E+03  0.00000000000E+00 0. -1.
          2    1    1    2  501    0  0.80940232405E+01  0.22889133410E+02 -0.34545304914E+03  0.34630511807E+03  0.00000000000E+00 0. -1.
         -2    1    1    2    0  502 -0.80940232405E+01 -0.22889133410E+02 -0.82000771125E+02  0.85519308379E+02  0.00000000000E+00 0.  1.
</event>
<event>
 4    1  0.1762646E+004  0.2408454E+02  0.7546771E-02  0.1479311E+00
         21   -1    0    0  503  502  0.00000000000E+00  0.00000000000E+00  0.42400478428E+01  0.42400478428E+01  0.00000000000E+00 0. -1.
         21   -1    0    0  501  503 -0.00000000000E+00 -0.00000000000E+00 -0.33722171437E+03  0.33722171437E+03  0.00000000000E+00 0.  1.
          2    1    1    2  501    0 -0.22067163154E+02  0.96491035746E+01 -0.29811025250E+03  0.29908157337E+03  0.00000000000E+00 0.  1.
         -2    1    1    2    0  502  0.22067163154E+02 -0.96491035746E+01 -0.34871414036E+02  0.42380188843E+02  0.00000000000E+00 0. -1.
</event>
<event>
 4    1  0.1762646E+004  0.2182705E+02  0.7546771E-02  0.1507777E+00
         21   -1    0    0  503  502  0.00000000000E+00  0.00000000000E+00  0.18037067909E+01  0.18037067909E+01  0.00000000000E+00 0.  1.
         21   -1    0    0  501  503 -0.00000000000E+00 -0.00000000000E+00 -0.13596498798E+04  0.13596498798E+04  0.00000000000E+00 0. -1.
          2    1    1    2  501    0 -0.18615267366E+02 -0.11397021553E+02 -0.12899616782E+04  0.12901463295E+04  0.00000000000E+00 0. -1.
         -2    1    1    2    0  502  0.18615267366E+02  0.11397021553E+02 -0.67884494810E+02  0.71307257099E+02  0.00000000000E+00 0.  1.
</event>
<event>
 4    1  0.1762646E+004  0.2582233E+02  0.7546771E-02  0.1459811E+00
         21   -1    0    0  503  502  0.00000000000E+00  0.00000000000E+00  0.32994659100E+02  0.32994659100E+02  0.00000000000E+00 0.  1.
         21   -1    0    0  501  503 -0.00000000000E+00 -0.00000000000E+00 -0.37690803691E+02  0.37690803691E+02  0.00000000000E+00 0. -1.
          2    1    1    2  501    0  0.24489949926E+01 -0.25705937224E+02 -0.26417963672E+02  0.36941867706E+02  0.00000000000E+00 0. -1.
         -2    1    1    2    0  502 -0.24489949926E+01  0.25705937224E+02  0.21721819081E+02  0.33743595085E+02  0.00000000000E+00 0.  1.
</event>
<event>
 4    1  0.1762646E+004  0.3648028E+02  0.7546771E-02  0.1370445E+00
         21   -1    0    0  501  502  0.00000000000E+00  0.00000000000E+00  0.77542426659E+01  0.77542426659E+01  0.00000000000E+00 0.  1.
         21   -1    0    0  502  503 -0.00000000000E+00 -0.00000000000E+00 -0.21953564083E+03  0.21953564083E+03  0.00000000000E+00 0. -1.
          2    1    1    2  501    0 -0.22882534855E+02 -0.28411275647E+02 -0.52799814661E+02  0.64176564364E+02  0.00000000000E+00 0.  1.
         -2    1    1    2    0  503  0.22882534855E+02  0.28411275647E+02 -0.15898158350E+03  0.16311331913E+03  0.00000000000E+00 0. -1.
</event>
<event>
 4    1  0.1762646E+004  0.2012481E+02  0.7546771E-02  0.1532136E+00
         21   -1    0    0  501  502  0.00000000000E+00  0.00000000000E+00  0.22579179224E+03  0.22579179224E+03  0.00000000000E+00 0.  1.
         21   -1    0    0  502  503 -0.00000000000E+00 -0.00000000000E+00 -0.27490889786E+01  0.27490889786E+01  0.00000000000E+00 0. -1.
          2    1    1    2  501    0  0.20100873295E+02 -0.98131121059E+00  0.17888478909E+03  0.18001326575E+03  0.00000000000E+00 0.  1.
         -2    1    1    2    0  503 -0.20100873295E+02  0.98131121059E+00  0.44157914174E+02  0.48527615469E+02  0.00000000000E+00 0. -1.
</event>
<event>
 4    1  0.1762646E+004  0.2781161E+02  0.7546771E-02  0.1439621E+00
         21   -1    0    0  501  502  0.00000000000E+00  0.00000000000E+00  0.11367361299E+02  0.11367361299E+02  0.00000000000E+00 0.  1.
         21   -1    0    0  502  503 -0.00000000000E+00 -0.00000000000E+00 -0.12743619380E+03  0.12743619380E+03  0.00000000000E+00 0. -1.
          2    1    1    2  501    0 -0.11925722449E+02 -0.25124943425E+02 -0.10655262015E+02  0.29782885129E+02  0.00000000000E+00 0.  1.
         -2    1    1    2    0  503  0.11925722449E+02  0.25124943425E+02 -0.10541357048E+03  0.10902066997E+03  0.00000000000E+00 0. -1.
</event>
<event>
 4    1  0.1762646E+004  0.2848659E+02  0.7546771E-02  0.1433221E+00
         21   -1    0    0  503  502  0.00000000000E+00  0.00000000000E+00  0.40991881203E+02  0.40991881203E+02  0.00000000000E+00 0.  1.
         21   -1    0    0  501  503 -0.00000000000E+00 -0.00000000000E+00 -0.38692263310E+02  0.38692263310E+02  0.00000000000E+00 0. -1.
          2    1    1    2  501    0  0.26670634165E+02 -0.10008139799E+02 -0.26693120542E+02  0.39038548554E+02  0.00000000000E+00 0. -1.
         -2    1    1    2    0  502 -0.26670634165E+02  0.10008139799E+02  0.28992738434E+02  0.40645595959E+02  0.00000000000E+00 0.  1.
</event>
<event>
 4    1  0.1762646E+004  0.2731726E+02  0.7546771E-02  0.1444447E+00
         21   -1    0    0  501  502  0.00000000000E+00  0.00000000000E+00  0.14368215623E+03  0.14368215623E+03  0.00000000000E+00 0. -1.
         21   -1    0    0  502  503 -0.00000000000E+00 -0.00000000000E+00 -0.23603535250E+02  0.23603535250E+02  0.00000000000E+00 0.  1.
          2    1    1    2  501    0  0.26911761715E+02 -0.46893132308E+01  0.13390895321E+03  0.13666689550E+03  0.00000000000E+00 0. -1.
         -2    1    1    2    0  503 -0.26911761715E+02  0.46893132308E+01 -0.13830332231E+02  0.30618795973E+02  0.00000000000E+00 0.  1.
</event>
<event>
 4    1  0.1762646E+004  0.4119388E+02  0.7546771E-02  0.1341628E+00
         21   -1    0    0  503  502  0.00000000000E+00  0.00000000000E+00  0.56086945020E+03  0.56086945020E+03  0.00000000000E+00 0.  1.
         21   -1    0    0  501  503 -0.00000000000E+00 -0.00000000000E+00 -0.10297799744E+02  0.10297799744E+02  0.00000000000E+00 0. -1.
          2    1    1    2  501    0 -0.40900744311E+02  0.49055840450E+01  0.35294452924E+02  0.54246050982E+02  0.00000000000E+00 0. -1.
         -2    1    1    2    0  502  0.40900744311E+02 -0.49055840450E+01  0.51527719753E+03  0.51692119896E+03  0.00000000000E+00 0.  1.
</event>
<event>
 4    1  0.1762646E+004  0.2223394E+02  0.7546771E-02  0.1502348E+00
         21   -1    0    0  501  502  0.00000000000E+00  0.00000000000E+00  0.65641835634E+00  0.65641835634E+00  0.00000000000E+00 0. -1.
         21   -1    0    0  502  503 -0.00000000000E+00 -0.00000000000E+00 -0.17710141385E+04  0.17710141385E+04  0.00000000000E+00 0.  1.
          2    1    1    2  501    0 -0.18956377401E+02 -0.11619115104E+02 -0.21359891118E+03  0.21475298121E+03  0.00000000000E+00 0. -1.
         -2    1    1    2    0  503  0.18956377401E+02  0.11619115104E+02 -0.15567588089E+04  0.15569175756E+04  0.00000000000E+00 0.  1.
</event>
<event>
 4    1  0.1762646E+004  0.3175364E+02  0.7546771E-02  0.1404946E+00
         21   -1    0    0  503  502  0.00000000000E+00  0.00000000000E+00  0.12443262685E+02  0.12443262685E+02  0.00000000000E+00 0.  1.
         21   -1    0    0  501  503 -0.00000000000E+00 -0.00000000000E+00 -0.21922358971E+03  0.21922358971E+03  0.00000000000E+00 0. -1.
          2    1    1    2  501    0  0.26264510613E+02  0.17845701013E+02 -0.19535719959E+03  0.19792101706E+03  0.00000000000E+00 0. -1.
         -2    1    1    2    0  502 -0.26264510613E+02 -0.17845701013E+02 -0.11423127442E+02  0.33745835342E+02  0.00000000000E+00 0.  1.
</event>
<event>
 4    1  0.1762646E+004  0.2203608E+02  0.7546771E-02  0.1504970E+00
         21   -1    0    0  503  502  0.00000000000E+00  0.00000000000E+00  0.31702807268E+02  0.31702807268E+02  0.00000000000E+00 0. -1.
         21   -1    0    0  501  503 -0.00000000000E+00 -0.00000000000E+00 -0.20672237588E+02  0.20672237588E+02  0.00000000000E+00 0.  1.
          2    1    1    2  501    0  0.17044943104E+02 -0.13966346122E+02 -0.78136014717E+01  0.23380360933E+02  0.00000000000E+00 0.  1.
         -2    1    1    2    0  502 -0.17044943104E+02  0.13966346122E+02  0.18844171151E+02  0.28994683923E+02  0.00000000000E+00 0. -1.
</event>
<event>
 4    1  0.1762646E+004  0.2330197E+02  0.7546771E-02  0.1488741E+00
         21   -1    0    0  503  502  0.00000000000E+00  0.00000000000E+00  0.24837731630E+03  0.24837731630E+03  0.00000000000E+00 0.  1.
         21   -1    0    0  501  503 -0.00000000000E+00 -0.00000000000E+00 -0.32296518195E+01  0.32296518195E+01  0.00000000000E+00 0. -1.
          2    1    1    2  501    0 -0.11505024743E+02 -0.20263672168E+02  0.51063601475E+02  0.56129078023E+02  0.00000000000E+00 0.  1.
         -2    1    1    2    0  502  0.11505024743E+02  0.20263672168E+02  0.19408406301E+03  0.19547789010E+03  0.00000000000E+00 0. -1.
</event>
<event>
 4    1  0.1762646E+004  0.2149975E+02  0.7546771E-02  0.1512248E+00
         21   -1    0    0  501  502  0.00000000000E+00  0.00000000000E+00  0.61861951842E+02  0.61861951842E+02  0.00000000000E+00 0.  1.
         21   -1    0    0  502  503 -0.00000000000E+00 -0.00000000000E+00 -0.12974576311E+02  0.12974576311E+02  0.00000000000E+00 0. -1.
          2    1    1    2  501    0  0.20829911036E+02 -0.53248385032E+01  0.48811462626E+02  0.53336647650E+02  0.00000000000E+00 0.  1.
         -2    1    1    2    0  503 -0.20829911036E+02  0.53248385032E+01  0.75912905046E-01  0.21499880502E+02  0.00000000000E+00 0. -1.
</event>
<event>
 4    1  0.1762646E+004  0.2348405E+02  0.7546771E-02  0.1486508E+00
         21   -1    0    0  503  502  0.00000000000E+00  0.00000000000E+00  0.23308065534E+03  0.23308065534E+03  0.00000000000E+00 0. -1.
         21   -1    0    0  501  503 -0.00000000000E+00 -0.00000000000E+00 -0.24416549189E+01  0.24416549189E+01  0.00000000000E+00 0.  1.
          2    1    1    2  501    0  0.20322243651E+02  0.11768909498E+02  0.94609302718E+02  0.97480362015E+02  0.00000000000E+00 0.  1.
         -2    1    1    2    0  502 -0.20322243651E+02 -0.11768909498E+02  0.13602969770E+03  0.13804194824E+03  0.00000000000E+00 0. -1.
</event>
<event>
 4    1  0.1762646E+004  0.2511812E+02  0.7546771E-02  0.1467486E+00
         21   -1    0    0  501  502  0.00000000000E+00  0.00000000000E+00  0.14944348422E+03  0.14944348422E+03  0.00000000000E+00 0. -1.
         21   -1    0    0  502  503 -0.00000000000E+00 -0.00000000000E+00 -0.14627677715E+02  0.14627677715E+02  0.00000000000E+00 0.  1.
          2    1    1    2  501    0  0.25118117937E+02  0.23201112300E-02  0.13659960561E+03  0.13888978403E+03  0.00000000000E+00 0. -1.
         -2    1    1    2    0  503 -0.25118117937E+02 -0.23201112300E-02 -0.17837991064E+01  0.25181377908E+02  0.00000000000E+00 0.  1.
</event>
<event>
 4    1  0.1762646E+004  0.5011220E+02  0.7546771E-02  0.1297687E+00
         21   -1    0    0  503  502  0.00000000000E+00  0.00000000000E+00  0.32373594287E+03  0.32373594287E+03  0.00000000000E+00 0.  1.
         21   -1    0    0  501  503 -0.00000000000E+00 -0.00000000000E+00 -0.77857521198E+01  0.77857521198E+01  0.00000000000E+00 0. -1.
          2    1    1    2  501    0  0.45897196874E+02 -0.20116649213E+02  0.14790870685E+03  0.15616727512E+03  0.00000000000E+00 0. -1.
         -2    1    1    2    0  502 -0.45897196874E+02  0.20116649213E+02  0.16804148390E+03  0.17535441987E+03  0.00000000000E+00 0.  1.
</event>
<event>
 4    1  0.1762646E+004  0.2366386E+02  0.7546771E-02  0.1484326E+00
         21   -1    0    0  503  502  0.00000000000E+00  0.00000000000E+00  0.51047979898E+02  0.51047979898E+02  0.00000000000E+00 0.  1.
         21   -1    0    0  501  503 -0.00000000000E+00 -0.00000000000E+00 -0.11121120678E+02  0.11121120678E+02  0.00000000000E+00 0. -1.
          2    1    1    2  501    0 -0.23586951977E+02  0.19062369462E+01  0.23591257439E+02  0.33414450024E+02  0.00000000000E+00 0. -1.
         -2    1    1    2    0  502  0.23586951977E+02 -0.19062369462E+01  0.16335601781E+02  0.28754650552E+02  0.00000000000E+00 0.  1.
</event>
<event>
 4    1  0.1762646E+004  0.3169075E+02  0.7546771E-02  0.1405451E+00
         21   -1    0    0  501  502  0.00000000000E+00  0.00000000000E+00  0.23067881589E+03  0.23067881589E+03  0.00000000000E+00 0.  1.
         21   -1    0    0  502  503 -0.00000000000E+00 -0.00000000000E+00 -0.23537611932E+02  0.23537611932E+02  0.00000000000E+00 0. -1.
          2    1    1    2  501    0  0.28273116326E+02 -0.14315537974E+02  0.21832283143E+03  0.22061088472E+03  0.00000000000E+00 0.  1.
         -2    1    1    2    0  503 -0.28273116326E+02  0.14315537974E+02 -0.11181627470E+02  0.33605543101E+02  0.00000000000E+00 0. -1.
</event>
<event>
 4    1  0.1762646E+004  0.2188812E+02  0.7546771E-02  0.1506953E+00
         21   -1    0    0  501  502  0.00000000000E+00  0.00000000000E+00  0.54532068709E+02  0.54532068709E+02  0.00000000000E+00 0.  1.
         21   -1    0    0  502  503 -0.00000000000E+00 -0.00000000000E+00 -0.28674118007E+02  0.28674118007E+02  0.00000000000E+00 0. -1.
          2    1    1    2  501    0  0.19221837797E+02  0.10469522955E+02  0.47577376505E+02  0.52370762017E+02  0.00000000000E+00 0.  1.
         -2    1    1    2    0  503 -0.19221837797E+02 -0.10469522955E+02 -0.21719425803E+02  0.30835424700E+02  0.00000000000E+00 0. -1.
</event>
<event>
 4    1  0.1762646E+004  0.2663037E+02  0.7546771E-02  0.1451357E+00
         21   -1    0    0  501  502  0.00000000000E+00  0.00000000000E+00  0.46594806541E+02  0.46594806541E+02  0.00000000000E+00 0.  1.
         21   -1    0    0  502  503 -0.00000000000E+00 -0.00000000000E+00 -0.15275401406E+02  0.15275401406E+02  0.00000000000E+00 0. -1.
          2    1    1    2  501    0 -0.64515986093E+01  0.25837058214E+02  0.13798042860E+02  0.29992710590E+02  0.00000000000E+00 0. -1.
         -2    1    1    2    0  503  0.64515986093E+01 -0.25837058214E+02  0.17521362275E+02  0.31877497357E+02  0.00000000000E+00 0.  1.
</event>
<event>
 4    1  0.1762646E+004  0.2334009E+02  0.7546771E-02  0.1488271E+00
         21   -1    0    0  503  502  0.00000000000E+00  0.00000000000E+00  0.12547878333E+02  0.12547878333E+02  0.00000000000E+00 0. -1.
         21   -1    0    0  501  503 -0.00000000000E+00 -0.00000000000E+00 -0.74034706673E+02  0.74034706673E+02  0.00000000000E+00 0.  1.
          2    1    1    2  501    0 -0.20004080268E+02 -0.12024828042E+02 -0.58584554172E+02  0.63062744186E+02  0.00000000000E+00 0.  1.
         -2    1    1    2    0  502  0.20004080268E+02  0.12024828042E+02 -0.29022741680E+01  0.23519840819E+02  0.00000000000E+00 0. -1.
</event>
<event>
 4    1  0.1762646E+004  0.2349464E+02  0.7546771E-02  0.1486379E+00
         21   -1    0    0  503  502  0.00000000000E+00  0.00000000000E+00  0.10391259408E+04  0.10391259408E+04  0.00000000000E+00 0.  1.
         21   -1    0    0  501  503 -0.00000000000E+00 -0.00000000000E+00 -0.97181420159E+00  0.97181420159E+00  0.00000000000E+00 0. -1.
          2    1    1    2  501    0  0.22142115033E+02 -0.78565016012E+01  0.16891018474E+03  0.17053635502E+03  0.00000000000E+00 0. -1.
         -2    1    1    2    0  502 -0.22142115033E+02  0.78565016012E+01  0.86924394181E+03  0.86956139993E+03  0.00000000000E+00 0.  1.
</event>
<event>
 4    1  0.1762646E+004  0.3309255E+02  0.7546771E-02  0.1394493E+00
         21   -1    0    0  501  502  0.00000000000E+00  0.00000000000E+00  0.16138708707E+03  0.16138708707E+03  0.00000000000E+00 0.  1.
         21   -1    0    0  502  503 -0.00000000000E+00 -0.00000000000E+00 -0.26910700863E+02  0.26910700863E+02  0.00000000000E+00 0. -1.
          2    1    1    2  501    0  0.14098065391E+02  0.29939295932E+02  0.14865633207E+03  0.15229518034E+03  0.00000000000E+00 0.  1.
         -2    1    1    2    0  503 -0.14098065391E+02 -0.29939295932E+02 -0.14179945869E+02  0.36002607593E+02  0.00000000000E+00 0. -1.
</event>
<event>
 4    1  0.1762646E+004  0.2437469E+02  0.7546771E-02  0.1475922E+00
         21   -1    0    0  503  502  0.00000000000E+00  0.00000000000E+00  0.79285280593E+01  0.79285280593E+01  0.00000000000E+00 0. -1.
         21   -1    0    0  501  503 -0.00000000000E+00 -0.00000000000E+00 -0.98344038446E+02  0.98344038446E+02  0.00000000000E+00 0.  1.
          2    1    1    2  501    0  0.12971489347E+02  0.20636517058E+02 -0.19283419958E+02  0.31080148929E+02  0.00000000000E+00 0. -1.
         -2    1    1    2    0  502 -0.12971489347E+02 -0.20636517058E+02 -0.71132090429E+02  0.75192417577E+02  0.00000000000E+00 0.  1.
</event>
<event>
 4    1  0.1762646E+004  0.2119954E+02  0.7546771E-02  0.1516435E+00
         21   -1    0    0  501  502  0.00000000000E+00  0.00000000000E+00  0.33220954261E+01  0.33220954261E+01  0.00000000000E+00 0. -1.
         21   -1    0    0  502  503 -0.00000000000E+00 -0.00000000000E+00 -0.14516486563E+03  0.14516486563E+03  0.00000000000E+00 0.  1.
          2    1    1    2  501    0 -0.43124098456E+01  0.20756287111E+02 -0.51549811067E+02  0.55738706070E+02  0.00000000000E+00 0. -1.
         -2    1    1    2    0  503  0.43124098456E+01 -0.20756287111E+02 -0.90292959133E+02  0.92748254982E+02  0.00000000000E+00 0.  1.
</event>
<event>
 4    1  0.1762646E+004  0.2236127E+02  0.7546771E-02  0.1500678E+00
         21   -1    0    0  503  502  0.00000000000E+00  0.00000000000E+00  0.54480869321E+03  0.54480869321E+03  0.00000000000E+00 0.  1.
         21   -1    0    0  501  503 -0.00000000000E+00 -0.00000000000E+00 -0.94419222761E+00  0.94419222761E+00  0.00000000000E+00 0. -1.
          2    1    1    2  501    0  0.19558928142E+02 -0.10838571071E+02  0.22631168606E+03  0.22741373208E+03  0.00000000000E+00 0.  1.
         -2    1    1    2    0  502 -0.19558928142E+02  0.10838571071E+02  0.31755281493E+03  0.31833915336E+03  0.00000000000E+00 0. -1.
</event>
<event>
 4    1  0.1762646E+004  0.2998225E+02  0.7546771E-02  0.1419751E+00
         21   -1    0    0  503  502  0.00000000000E+00  0.00000000000E+00  0.40670171062E+02  0.40670171062E+02  0.00000000000E+00 0. -1.
         21   -1    0    0  501  503 -0.00000000000E+00 -0.00000000000E+00 -0.15222029479E+03  0.15222029479E+03  0.00000000000E+00 0.  1.
          2    1    1    2  501    0 -0.65555802250E+01 -0.29256790407E+02 -0.14494365035E+03  0.14801215219E+03  0.00000000000E+00 0.  1.
         -2    1    1    2    0  502  0.65555802250E+01  0.29256790407E+02  0.33393526625E+02  0.44878313666E+02  0.00000000000E+00 0. -1.
</event>
<event>
 4    1  0.1762646E+004  0.2120197E+02  0.7546771E-02  0.1516401E+00
         21   -1    0    0  501  502  0.00000000000E+00  0.00000000000E+00  0.92037313558E+02  0.92037313558E+02  0.00000000000E+00 0.  1.
         21   -1    0    0  502  503 -0.00000000000E+00 -0.00000000000E+00 -0.74956656395E+01  0.74956656395E+01  0.00000000000E+00 0. -1.
          2    1    1    2  501    0  0.90441196427E+01 -0.19176221242E+02  0.12895771048E+02  0.24815810931E+02  0.00000000000E+00 0. -1.
         -2    1    1    2    0  503 -0.90441196427E+01  0.19176221242E+02  0.71645876870E+02  0.74717168266E+02  0.00000000000E+00 0.  1.
</event>
<event>
 4    1  0.1762646E+004  0.2023889E+02  0.7546771E-02  0.1530415E+00
         21   -1    0    0  501  502  0.00000000000E+00  0.00000000000E+00  0.64760509876E+02  0.64760509876E+02  0.00000000000E+00 0.  1.
         21   -1    0    0  502  503 -0.00000000000E+00 -0.00000000000E+00 -0.12937603586E+02  0.12937603586E+02  0.00000000000E+00 0. -1.
          2    1    1    2  501    0  0.70295881938E+00  0.20226676847E+02  0.53685463590E+02  0.57373701365E+02  0.00000000000E+00 0.  1.
         -2    1    1    2    0  503 -0.70295881938E+00 -0.20226676847E+02 -0.18625572997E+01  0.20324412097E+02  0.00000000000E+00 0. -1.
</event>
<event>
 4    1  0.1762646E+004  0.2097272E+02  0.7546771E-02  0.1519655E+00
         21   -1    0    0  501  502  0.00000000000E+00  0.00000000000E+00  0.10400918717E+02  0.10400918717E+02  0.00000000000E+00 0. -1.
         21   -1    0    0  502  503 -0.00000000000E+00 -0.00000000000E+00 -0.80511175564E+02  0.80511175564E+02  0.00000000000E+00 0.  1.
          2    1    1    2  501    0  0.20708474092E+02  0.33187789570E+01 -0.37355853751E+01  0.21302811811E+02  0.00000000000E+00 0. -1.
         -2    1    1    2    0  503 -0.20708474092E+02 -0.33187789570E+01 -0.66374671471E+02  0.69609282469E+02  0.00000000000E+00 0.  1.
</event>
<event>
 4    1  0.1762646E+004  0.3016208E+02  0.7546771E-02  0.1418193E+00
         21   -1    0    0  501  502  0.00000000000E+00  0.00000000000E+00  0.52077110739E+03  0.52077110739E+03  0.00000000000E+00 0.  1.
         21   -1    0    0  502  503 -0.00000000000E+00 -0.00000000000E+00 -0.65765048516E+01  0.65765048516E+01  0.00000000000E+00 0. -1.
          2    1    1    2  501    0  0.43134411500E+00  0.30158997354E+02  0.48305327246E+03  0.48399402395E+03  0.00000000000E+00 0.  1.
         -2    1    1    2    0  503 -0.43134411500E+00 -0.30158997354E+02  0.31141330075E+02  0.43353588294E+02  0.00000000000E+00 0. -1.
</event>
<event>
 4    1  0.1762646E+004  0.3612527E+02  0.7546771E-02  0.1372820E+00
         21   -1    0    0  503  502  0.00000000000E+00  0.00000000000E+00  0.87287001139E+02  0.87287001139E+02  0.00000000000E+00 0.  1.
         21   -1    0    0  501  503 -0.00000000000E+00 -0.00000000000E+00 -0.16206160907E+02  0.16206160907E+02  0.00000000000E+00 0. -1.
          2    1    1    2  501    0  0.19933943095E+02  0.30127616126E+02  0.21139950727E+02  0.41856097017E+02  0.00000000000E+00 0. -1.
         -2    1    1    2    0  502 -0.19933943095E+02 -0.30127616126E+02  0.49940889505E+02  0.61637065028E+02  0.00000000000E+00 0.  1.
</event>
<event>
 4    1  0.1762646E+004  0.3689440E+02  0.7546771E-02  0.1367713E+00
         21   -1    0    0  501  502  0.00000000000E+00  0.00000000000E+00  0.91102835293E+02  0.91102835293E+02  0.00000000000E+00 0. -1.
         21   -1    0    0  502  503 -0.00000000000E+00 -0.00000000000E+00 -0.22351280059E+02  0.22351280059E+02  0.00000000000E+00 0.  1.
          2    1    1    2  501    0 -0.35251638597E+02 -0.10886631558E+02  0.17134642230E+01  0.36934167516E+02  0.00000000000E+00 0.  1.
         -2    1    1    2    0  503  0.35251638597E+02  0.10886631558E+02  0.67038091011E+02  0.76519947836E+02  0.00000000000E+00 0. -1.
</event>
<event>
 4    1  0.1762646E+004  0.2133030E+02  0.7546771E-02  0.1514601E+00
         21   -1    0    0  501  502  0.00000000000E+00  0.00000000000E+00  0.26511560908E+02  0.26511560908E+02  0.00000000000E+00 0. -1.
         21   -1    0    0  502  503 -0.00000000000E+00 -0.00000000000E+00 -0.20921997118E+02  0.20921997118E+02  0.00000000000E+00 0.  1.
          2    1    1    2  501    0 -0.11943659863E+02 -0.17672884494E+02  0.12849472207E+02  0.24901622302E+02  0.00000000000E+00 0. -1.
         -2    1    1    2    0  503  0.11943659863E+02  0.17672884494E+02 -0.72599084168E+01  0.22531935724E+02  0.00000000000E+00 0.  1.
</event>
<event>
 4    1  0.1762646E+004  0.2551967E+02  0.7546771E-02  0.1463073E+00
         21   -1    0    0  503  502  0.00000000000E+00  0.00000000000E+00  0.51475410588E+01  0.51475410588E+01  0.00000000000E+00 0.  1.
         21   -1    0    0  501  503 -0.00000000000E+00 -0.00000000000E+00 -0.33797199057E+03  0.33797199057E+03  0.00000000000E+00 0. -1.
          2    1    1    2  501    0  0.25475855806E+02 -0.14947510806E+01 -0.30211341257E+03  0.30318932628E+03  0.00000000000E+00 0. -1.
         -2    1    1    2    0  502 -0.25475855806E+02  0.14947510806E+01 -0.30711036936E+02  0.39930205353E+02  0.00000000000E+00 0.  1.
</event>
<event>
 4    1  0.1762646E+004  0.2348727E+02  0.7546771E-02  0.1486468E+00
         21   -1    0    0  503  502  0.00000000000E+00  0.00000000000E+00  0.32718312079E+03  0.32718312079E+03  0.00000000000E+00 0.  1.
         21   -1    0    0  501  503 -0.00000000000E+00 -0.00000000000E+00 -0.35466329566E+01  0.35466329566E+01  0.00000000000E+00 0. -1.
          2    1    1    2  501    0  0.20632293223E+02 -0.11223214759E+02  0.42045528799E+02  0.48160965160E+02  0.00000000000E+00 0. -1.
         -2    1    1    2    0  502 -0.20632293223E+02  0.11223214759E+02  0.28159095904E+03  0.28256878859E+03  0.00000000000E+00 0.  1.
</event>
<event>
 4    1  0.1762646E+004  0.2102521E+02  0.7546771E-02  0.1518905E+00
         21   -1    0    0  503  502  0.00000000000E+00  0.00000000000E+00  0.14560178979E+02  0.14560178979E+02  0.00000000000E+00 0. -1.
         21   -1    0    0  501  503 -0.00000000000E+00 -0.00000000000E+00 -0.52274741763E+02  0.52274741763E+02  0.00000000000E+00 0.  1.
          2    1    1    2  501    0  0.12584323689E+02 -0.16843230919E+02 -0.40493785909E+02  0.45626815884E+02  0.00000000000E+00 0. -1.
         -2    1    1    2    0  502 -0.12584323689E+02  0.16843230919E+02  0.27792231251E+01  0.21208104858E+02  0.00000000000E+00 0.  1.
</event>
<event>
 4    1  0.1762646E+004  0.2105357E+02  0.7546771E-02  0.1518501E+00
         21   -1    0    0  501  502  0.00000000000E+00  0.00000000000E+00  0.93943786938E+01  0.93943786938E+01  0.00000000000E+00 0. -1.
         21   -1    0    0  502  503 -0.00000000000E+00 -0.00000000000E+00 -0.56627142925E+02  0.56627142925E+02  0.00000000000E+00 0.  1.
          2    1    1    2  501    0  0.16357722750E+01  0.20989930369E+02 -0.10135153235E+02  0.23366092076E+02  0.00000000000E+00 0. -1.
         -2    1    1    2    0  503 -0.16357722750E+01 -0.20989930369E+02 -0.37097610996E+02  0.42655429542E+02  0.00000000000E+00 0.  1.
</event>
<event>
 4    1  0.1762646E+004  0.3215593E+02  0.7546771E-02  0.1401742E+00
         21   -1    0    0  503  502  0.00000000000E+00  0.00000000000E+00  0.16743356190E+02  0.16743356190E+02  0.00000000000E+00 0. -1.
         21   -1    0    0  501  503 -0.00000000000E+00 -0.00000000000E+00 -0.74852988583E+02  0.74852988583E+02  0.00000000000E+00 0.  1.
          2    1    1    2  501    0 -0.31671077023E+02  0.55629651734E+01 -0.48211852086E+02  0.57951586543E+02  0.00000000000E+00 0.  1.
         -2    1    1    2    0  502  0.31671077023E+02 -0.55629651734E+01 -0.98977803074E+01  0.33644758230E+02  0.00000000000E+00 0. -1.
</event>
<event>
 4    1  0.1762646E+004  0.3147628E+02  0.7546771E-02  0.1407187E+00
         21   -1    0    0  503  502  0.00000000000E+00  0.00000000000E+00  0.21926895043E+03  0.21926895043E+03  0.00000000000E+00 0. -1.
         21   -1    0    0  501  503 -0.00000000000E+00 -0.00000000000E+00 -0.21081588475E+02  0.21081588475E+02  0.00000000000E+00 0.  1.
          2    1    1    2  501    0  0.31098607339E+02  0.48613328922E+01 -0.74271992314E+01  0.32340674457E+02  0.00000000000E+00 0.  1.
         -2    1    1    2    0  502 -0.31098607339E+02 -0.48613328922E+01  0.20561456118E+03  0.20800986445E+03  0.00000000000E+00 0. -1.
</event>
<event>
 4    1  0.1762646E+004  0.3209608E+02  0.7546771E-02  0.1402215E+00
         21   -1    0    0  503  502  0.00000000000E+00  0.00000000000E+00  0.53125852704E+01  0.53125852704E+01  0.00000000000E+00 0. -1.
         21   -1    0    0  501  503 -0.00000000000E+00 -0.00000000000E+00 -0.19933967396E+03  0.19933967396E+03  0.00000000000E+00 0.  1.
          2    1    1    2  501    0 -0.13159532756E+02  0.29274307310E+02 -0.80124134242E+02  0.86313586757E+02  0.00000000000E+00 0. -1.
         -2    1    1    2    0  502  0.13159532756E+02 -0.29274307310E+02 -0.11390295445E+03  0.11833867248E+03  0.00000000000E+00 0.  1.
</event>
<event>
 4    1  0.1762646E+004  0.2245671E+02  0.7546771E-02  0.1499435E+00
         21   -1    0    0  503  502  0.00000000000E+00  0.00000000000E+00  0.75512312516E+00  0.75512312516E+00  0.00000000000E+00 0.  1.
         21   -1    0    0  501  503 -0.00000000000E+00 -0.00000000000E+00 -0.10107614695E+04  0.10107614695E+04  0.00000000000E+00 0. -1.
          2    1    1    2  501    0  0.43647491687E+01  0.22028449819E+02 -0.79959056966E+03  0.79990585866E+03  0.00000000000E+00 0. -1.
         -2    1    1    2    0  502 -0.43647491687E+01 -0.22028449819E+02 -0.21041577667E+03  0.21161073391E+03  0.00000000000E+00 0.  1.
</event>
<event>
 4    1  0.1762646E+004  0.2315971E+02  0.7546771E-02  0.1490502E+00
         21   -1    0    0  501  502  0.00000000000E+00  0.00000000000E+00  0.80459515780E+01  0.80459515780E+01  0.00000000000E+00 0.  1.
         21   -1    0    0  502  503 -0.00000000000E+00 -0.00000000000E+00 -0.79831870686E+02  0.79831870686E+02  0.00000000000E+00 0. -1.
          2    1    1    2  501    0  0.17758262084E+02  0.14866621090E+02 -0.18047608100E+02  0.29361342834E+02  0.00000000000E+00 0.  1.
         -2    1    1    2    0  503 -0.17758262084E+02 -0.14866621090E+02 -0.53738311008E+02  0.58516479430E+02  0.00000000000E+00 0. -1.
</event>
<event>
 4    1  0.1762646E+004  0.2046231E+02  0.7546771E-02  0.1527082E+00
         21   -1    0    0  501  502  0.00000000000E+00  0.00000000000E+00  0.76137326732E+02  0.76137326732E+02  0.00000000000E+00 0.  1.
         21   -1    0    0  502  503 -0.00000000000E+00 -0.00000000000E+00 -0.20864322330E+02  0.20864322330E+02  0.00000000000E+00 0. -1.
          2    1    1    2  501    0 -0.24104859988E+01 -0.20319834399E+02  0.69257531356E+02  0.72217115439E+02  0.00000000000E+00 0.  1.
         -2    1    1    2    0  503  0.24104859988E+01  0.20319834399E+02 -0.13984526955E+02  0.24784533623E+02  0.00000000000E+00 0. -1.
</event>
<event>
 4    1  0.1762646E+004  0.2275669E+02  0.7546771E-02  0.1495576E+00
         21   -1    0    0  501  502  0.00000000000E+00  0.00000000000E+00  0.40466050131E+02  0.40466050131E+02  0.00000000000E+00 0. -1.
         21   -1    0    0  502  503 -0.00000000000E+00 -0.00000000000E+00 -0.14435199321E+02  0.14435199321E+02  0.00000000000E+00 0.  1.
          2    1    1    2  501    0  0.17181970502E+02 -0.14921357532E+02  0.37695309369E+01  0.23066780972E+02  0.00000000000E+00 0.  1.
         -2    1    1    2    0  503 -0.17181970502E+02  0.14921357532E+02  0.22261319873E+02  0.31834468480E+02  0.00000000000E+00 0. -1.
</event>
<event>
 4    1  0.1762646E+004  0.3365826E+02  0.7546771E-02  0.1390249E+00
         21   -1    0    0  501  502  0.00000000000E+00  0.00000000000E+00  0.33940655055E+02  0.33940655055E+02  0.00000000000E+00 0.  1.
         21   -1    0    0  502  503 -0.00000000000E+00 -0.00000000000E+00 -0.33631187977E+02  0.33631187977E+02  0.00000000000E+00 0. -1.
          2    1    1    2  501    0 -0.12565581732E+00  0.33658028483E+02 -0.27754643347E+01  0.33772501728E+02  0.00000000000E+00 0. -1.
         -2    1    1    2    0  503  0.12565581732E+00 -0.33658028483E+02  0.30849314131E+01  0.33799341303E+02  0.00000000000E+00 0.  1.
</event>
<event>
 4    1  0.1762646E+004  0.2006154E+02  0.7546771E-02  0.1533097E+00
         21   -1    0    0  501  502  0.00000000000E+00  0.00000000000E+00  0.17457018338E+02  0.17457018338E+02  0.00000000000E+00 0. -1.
         21   -1    0    0  502  503 -0.00000000000E+00 -0.00000000000E+00 -0.53219635143E+02  0.53219635143E+02  0.00000000000E+00 0.  1.
          2    1    1    2  501    0 -0.10093828321E+02 -0.17337245293E+02  0.87235893842E+01  0.21876161827E+02  0.00000000000E+00 0. -1.
         -2    1    1    2    0  503  0.10093828321E+02  0.17337245293E+02 -0.44486206189E+02  0.48800491654E+02  0.00000000000E+00 0.  1.
</event>
<event>
 4    1  0.1762646E+004  0.2176581E+02  0.7546771E-02  0.1508606E+00
         21   -1    0    0  503  502  0.00000000000E+00  0.00000000000E+00  0.14839137624E+03  0.14839137624E+03  0.00000000000E+00 0.  1.
         21   -1    0    0  501  503 -0.00000000000E+00 -0.00000000000E+00 -0.63484269472E+02  0.63484269472E+02  0.00000000000E+00 0. -1.
          2    1    1    2  501    0  0.16614816169E+01  0.21702304537E+02 -0.60786144840E+02  0.64565516708E+02  0.00000000000E+00 0. -1.
         -2    1    1    2    0  502 -0.16614816169E+01 -0.21702304537E+02  0.14569325161E+03  0.14731012900E+03  0.00000000000E+00 0.  1.
</event>
<event>
 4    1  0.1762646E+004  0.4916932E+02  0.7546771E-02  0.1301815E+00
         21   -1    0    0  501  502  0.00000000000E+00  0.00000000000E+00  0.33409344519E+01  0.33409344519E+01  0.00000000000E+00 0.  1.
         21   -1    0    0  502  503 -0.00000000000E+00 -0.00000000000E+00 -0.77511922855E+03  0.77511922855E+03  0.00000000000E+00 0. -1.
          2    1    1    2  501    0  0.15262838777E+02  0.46740429945E+02 -0.28557711826E+03  0.28977907535E+03  0.00000000000E+00 0. -1.
         -2    1    1    2    0  503 -0.15262838777E+02 -0.46740429945E+02 -0.48620117584E+03  0.48868108765E+03  0.00000000000E+00 0.  1.
</event>
<event>
 4    1  0.1762646E+004  0.2465937E+02  0.7546771E-02  0.1472650E+00
         21   -1    0    0  501  502  0.00000000000E+00  0.00000000000E+00  0.79758769635E+00  0.79758769635E+00  0.00000000000E+00 0.  1.
         21   -1    0    0  502  503 -0.00000000000E+00 -0.00000000000E+00 -0.76767808734E+03  0.76767808734E+03  0.00000000000E+00 0. -1.
          2    1    1    2  501    0 -0.24110700845E+02 -0.51728746492E+01 -0.35159390639E+03  0.35245759963E+03  0.00000000000E+00 0.  1.
         -2    1    1    2    0  503  0.24110700845E+02  0.51728746492E+01 -0.41528659326E+03  0.41601807541E+03  0.00000000000E+00 0. -1.
</event>
<event>
 4    1  0.1762646E+004  0.2448271E+02  0.7546771E-02  0.1474674E+00
         21   -1    0    0  501  502  0.00000000000E+00  0.00000000000E+00  0.31698321871E+03  0.31698321871E+03  0.00000000000E+00 0.  1.
         21   -1    0    0  502  503 -0.00000000000E+00 -0.00000000000E+00 -0.13310258040E+02  0.13310258040E+02  0.00000000000E+00 0. -1.
          2    1    1    2  501    0 -0.23630169961E+02  0.64045570312E+01  0.30480301409E+03  0.30578469661E+03  0.00000000000E+00 0.  1.
         -2    1    1    2    0  503  0.23630169961E+02 -0.64045570312E+01 -0.11300534210E+01  0.24508780139E+02  0.00000000000E+00 0. -1.
</event>
<event>
 4    1  0.1762646E+004  0.2602796E+02  0.7546771E-02  0.1457625E+00
         21   -1    0    0  503  502  0.00000000000E+00  0.00000000000E+00  0.28363140902E+01  0.28363140902E+01  0.00000000000E+00 0.  1.
         21   -1    0    0  501  503 -0.00000000000E+00 -0.00000000000E+00 -0.27145373260E+03  0.27145373260E+03  0.00000000000E+00 0. -1.
          2    1    1    2  501    0 -0.12152285536E+02 -0.23016878068E+02 -0.18183820686E+03  0.18369155722E+03  0.00000000000E+00 0. -1.
         -2    1    1    2    0  502  0.12152285536E+02  0.23016878068E+02 -0.86779211643E+02  0.90598489463E+02  0.00000000000E+00 0.  1.
</event>
<event>
 4    1  0.1762646E+004  0.2002439E+02  0.7546771E-02  0.1533663E+00
         21   -1    0    0  501  502  0.00000000000E+00  0.00000000000E+00  0.58969527388E+02  0.58969527388E+02  0.00000000000E+00 0. -1.
         21   -1    0    0  502  503 -0.00000000000E+00 -0.00000000000E+00 -0.31134662967E+02  0.31134662967E+02  0.00000000000E+00 0.  1.
          2    1    1    2  501    0  0.28072155972E+01  0.19826642872E+02  0.53747228216E+02  0.57356261802E+02  0.00000000000E+00 0. -1.
         -2    1    1    2    0  503 -0.28072155972E+01 -0.19826642872E+02 -0.25912363796E+02  0.32747928552E+02  0.00000000000E+00 0.  1.
</event>
<event>
 4    1  0.1762646E+004  0.2438713E+02  0.7546771E-02  0.1475778E+00
         21   -1    0    0  501  502  0.00000000000E+00  0.00000000000E+00  0.61763550560E+02  0.61763550560E+02  0.00000000000E+00 0.  1.
         21   -1    0    0  502  503 -0.00000000000E+00 -0.00000000000E+00 -0.15834891400E+02  0.15834891400E+02  0.00000000000E+00 0. -1.
          2    1    1    2  501    0  0.23378541221E+02  0.69408836424E+01  0.47253429029E+02  0.53175357172E+02  0.00000000000E+00 0.  1.
         -2    1    1    2    0  503 -0.23378541221E+02 -0.69408836424E+01 -0.13247698691E+01  0.24423084788E+02  0.00000000000E+00 0. -1.
</event>
<event>
 4    1  0.1762646E+004  0.2114802E+02  0.7546771E-02  0.1517162E+00
         21   -1    0    0  503  502  0.00000000000E+00  0.00000000000E+00  0.36447618674E+02  0.36447618674E+02  0.00000000000E+00 0.  1.
         21   -1    0    0  501  503 -0.00000000000E+00 -0.00000000000E+00 -0.19226547323E+03  0.19226547323E+03  0.00000000000E+00 0. -1.
          2    1    1    2  501    0  0.19732567679E+02  0.76068861449E+01 -0.18855609147E+03  0.18973834239E+03  0.00000000000E+00 0. -1.
         -2    1    1    2    0  502 -0.19732567679E+02 -0.76068861449E+01  0.32738236908E+02  0.38974749516E+02  0.00000000000E+00 0.  1.
</event>
<event>
 4    1  0.1762646E+004  0.2517256E+02  0.7546771E-02  0.1466882E+00
         21   -1    0    0  501  502  0.00000000000E+00  0.00000000000E+00  0.13642318428E+03  0.13642318428E+03  0.00000000000E+00 0. -1.
         21   -1    0    0  502  503 -0.00000000000E+00 -0.00000000000E+00 -0.68375913519E+01  0.68375913519E+01  0.00000000000E+00 0.  1.
          2    1    1    2  501    0 -0.25152140692E+02 -0.10137851227E+01  0.10535716538E+03  0.10832262109E+03  0.00000000000E+00 0. -1.
         -2    1    1    2    0  503  0.25152140692E+02  0.10137851227E+01  0.24228427545E+02  0.34938154544E+02  0.00000000000E+00 0.  1.
</event>
<event>
 4    1  0.1762646E+004  0.3466034E+02  0.7546771E-02  0.1382967E+00
         21   -1    0    0  503  502  0.00000000000E+00  0.00000000000E+00  0.39022777735E+02  0.39022777735E+02  0.00000000000E+00 0.  1.
         21   -1    0    0  501  503 -0.00000000000E+00 -0.00000000000E+00 -0.11673845339E+03  0.11673845339E+03  0.00000000000E+00 0. -1.
          2    1    1    2  501    0  0.30136515581E+02  0.17121035020E+02 -0.10568493105E+03  0.11122339710E+03  0.00000000000E+00 0. -1.
         -2    1    1    2    0  502 -0.30136515581E+02 -0.17121035020E+02  0.27969255401E+02  0.44537834020E+02  0.00000000000E+00 0.  1.
</event>
<event>
 4    1  0.1762646E+004  0.2441775E+02  0.7546771E-02  0.1475424E+00
         21   -1    0    0  501  502  0.00000000000E+00  0.00000000000E+00  0.21083302454E+03  0.21083302454E+03  0.00000000000E+00 0.  1.
         21   -1    0    0  502  503 -0.00000000000E+00 -0.00000000000E+00 -0.79709427675E+01  0.79709427675E+01  0.00000000000E+00 0. -1.
          2    1    1    2  501    0  0.20151463517E+02  0.13789302823E+02  0.18930862058E+03  0.19087687178E+03  0.00000000000E+00 0.  1.
         -2    1    1    2    0  503 -0.20151463517E+02 -0.13789302823E+02  0.13553461187E+02  0.27927095523E+02  0.00000000000E+00 0. -1.
</event>
<event>
 4    1  0.1762646E+004  0.2319782E+02  0.7546771E-02  0.1490029E+00
         21   -1    0    0  503  502  0.00000000000E+00  0.00000000000E+00  0.46940187369E+02  0.46940187369E+02  0.00000000000E+00 0.  1.
         21   -1    0    0  501  503 -0.00000000000E+00 -0.00000000000E+00 -0.15551123121E+02  0.15551123121E+02  0.00000000000E+00 0. -1.
          2    1    1    2  501    0  0.23044425010E+02  0.26632875915E+01 -0.32313071757E+00  0.23200065480E+02  0.00000000000E+00 0. -1.
         -2    1    1    2    0  502 -0.23044425010E+02 -0.26632875915E+01  0.31712194966E+02  0.39291245009E+02  0.00000000000E+00 0.  1.
</event>
<event>
 4    1  0.1762646E+004  0.2628560E+02  0.7546771E-02  0.1454919E+00
         21   -1    0    0  501  502  0.00000000000E+00  0.00000000000E+00  0.43429394920E+02  0.43429394920E+02  0.00000000000E+00 0.  1.
         21   -1    0    0  502  503 -0.00000000000E+00 -0.00000000000E+00 -0.16184328590E+02  0.16184328590E+02  0.00000000000E+00 0. -1.
          2    1    1    2  501    0 -0.44395471339E+01  0.25907976331E+02  0.17507879741E+02  0.31582569075E+02  0.00000000000E+00 0. -1.
         -2    1    1    2    0  503  0.44395471339E+01 -0.25907976331E+02  0.97371865883E+01  0.28031154435E+02  0.00000000000E+00 0.  1.
</event>
<event>
 4    1  0.1762646E+004  0.2475917E+02  0.7546771E-02  0.1471516E+00
         21   -1    0    0  503  502  0.00000000000E+00  0.00000000000E+00  0.33740447487E+03  0.33740447487E+03  0.00000000000E+00 0.  1.
         21   -1    0    0  501  503 -0.00000000000E+00 -0.00000000000E+00 -0.20995903879E+01  0.20995903879E+01  0.00000000000E+00 0. -1.
          2    1    1    2  501    0  0.68173781188E+01  0.23802096671E+02  0.10536012381E+03  0.10823018128E+03  0.00000000000E+00 0. -1.
         -2    1    1    2    0  502 -0.68173781188E+01 -0.23802096671E+02  0.22994476068E+03  0.23127388398E+03  0.00000000000E+00 0.  1.
</event>
<event>
 4    1  0.1762646E+004  0.4245491E+02  0.7546771E-02  0.1334671E+00
         21   -1    0    0  503  502  0.00000000000E+00  0.00000000000E+00  0.43976463218E+03  0.43976463218E+03  0.00000000000E+00 0. -1.
         21   -1    0    0  501  503 -0.00000000000E+00 -0.00000000000E+00 -0.48735084726E+01  0.48735084726E+01  0.00000000000E+00 0.  1.
          2    1    1    2  501    0  0.39687686420E+02  0.15076713357E+02  0.12879514265E+03  0.13561197775E+03  0.00000000000E+00 0. -1.
         -2    1    1    2    0  502 -0.39687686420E+02 -0.15076713357E+02  0.30609598106E+03  0.30902616290E+03  0.00000000000E+00 0.  1.
</event>
<event>
 4    1  0.1762646E+004  0.2052548E+02  0.7546771E-02  0.1526149E+00
         21   -1    0    0  503  502  0.00000000000E+00  0.00000000000E+00  0.59103039620E+02  0.59103039620E+02  0.00000000000E+00 0.  1.
         21   -1    0    0  501  503 -0.00000000000E+00 -0.00000000000E+00 -0.12643274443E+02  0.12643274443E+02  0.00000000000E+00 0. -1.
          2    1    1    2  501    0  0.19029377361E+02  0.76927285265E+01 -0.46297871591E+00  0.20530699555E+02  0.00000000000E+00 0. -1.
         -2    1    1    2    0  502 -0.19029377361E+02 -0.76927285265E+01  0.46922743893E+02  0.51215614508E+02  0.00000000000E+00 0.  1.
</event>
<event>
 4    1  0.1762646E+004  0.2456939E+02  0.7546771E-02  0.1473679E+00
         21   -1    0    0  501  502  0.00000000000E+00  0.00000000000E+00  0.53846314893E+02  0.53846314893E+02  0.00000000000E+00 0. -1.
         21   -1    0    0  502  503 -0.00000000000E+00 -0.00000000000E+00 -0.11259775502E+02  0.11259775502E+02  0.00000000000E+00 0.  1.
          2    1    1    2  501    0 -0.22332041009E+02  0.10243760786E+02  0.19144079350E+02  0.31147238478E+02  0.00000000000E+00 0.  1.
         -2    1    1    2    0  503  0.22332041009E+02 -0.10243760786E+02  0.23442460041E+02  0.33958851916E+02  0.00000000000E+00 0. -1.
</event>
<event>
 4    1  0.1762646E+004  0.2056199E+02  0.7546771E-02  0.1525611E+00
         21   -1    0    0  501  502  0.00000000000E+00  0.00000000000E+00  0.38529734372E+02  0.38529734372E+02  0.00000000000E+00 0.  1.
         21   -1    0    0  502  503 -0.00000000000E+00 -0.00000000000E+00 -0.11008992038E+02  0.11008992038E+02  0.00000000000E+00 0. -1.
          2    1    1    2  501    0  0.59488858337E+01 -0.19682633948E+02  0.12348477876E+02  0.23985000055E+02  0.00000000000E+00 0. -1.
         -2    1    1    2    0  503 -0.59488858337E+01  0.19682633948E+02  0.15172264458E+02  0.25553726355E+02  0.00000000000E+00 0.  1.
</event>
<event>
 4    1  0.1762646E+004  0.2527827E+02  0.7546771E-02  0.1465714E+00
         21   -1    0    0  503  502  0.00000000000E+00  0.00000000000E+00  0.29247867453E+04  0.29247867453E+04  0.00000000000E+00 0.  1.
         21   -1    0    0  501  503 -0.00000000000E+00 -0.00000000000E+00 -0.23418634195E+00  0.23418634195E+00  0.00000000000E+00 0. -1.
          2    1    1    2  501    0  0.24979453859E+02  0.38752672537E+01  0.18410973820E+04  0.18412709091E+04  0.00000000000E+00 0.  1.
         -2    1    1    2    0  502 -0.24979453859E+02 -0.38752672537E+01  0.10834551769E+04  0.10837500225E+04  0.00000000000E+00 0. -1.
</event>
<event>
 4    1  0.1762646E+004  0.3029418E+02  0.7546771E-02  0.1417057E+00
         21   -1    0    0  501  502  0.00000000000E+00  0.00000000000E+00  0.16463509633E+02  0.16463509633E+02  0.00000000000E+00 0.  1.
         21   -1    0    0  502  503 -0.00000000000E+00 -0.00000000000E+00 -0.62479867719E+02  0.62479867719E+02  0.00000000000E+00 0. -1.
          2    1    1    2  501    0 -0.25873203542E+02  0.15758003743E+02 -0.10047692195E+02  0.31916977644E+02  0.00000000000E+00 0.  1.
         -2    1    1    2    0  503  0.25873203542E+02 -0.15758003743E+02 -0.35968665891E+02  0.47026399707E+02  0.00000000000E+00 0. -1.
</event>
<event>
 4    1  0.1762646E+004  0.2968488E+02  0.7546771E-02  0.1422355E+00
         21   -1    0    0  503  502  0.00000000000E+00  0.00000000000E+00  0.11508613314E+03  0.11508613314E+03  0.00000000000E+00 0.  1.
         21   -1    0    0  501  503 -0.00000000000E+00 -0.00000000000E+00 -0.77338207323E+01  0.77338207323E+01  0.00000000000E+00 0. -1.
          2    1    1    2  501    0 -0.11415845379E+02  0.27402015314E+02  0.59804375816E+02  0.66766423715E+02  0.00000000000E+00 0.  1.
         -2    1    1    2    0  502  0.11415845379E+02 -0.27402015314E+02  0.47547936596E+02  0.56053530161E+02  0.00000000000E+00 0. -1.
</event>
<event>
 4    1  0.1762646E+004  0.3223478E+02  0.7546771E-02  0.1401121E+00
         21   -1    0    0  501  502  0.00000000000E+00  0.00000000000E+00  0.13827991355E+04  0.13827991355E+04  0.00000000000E+00 0.  1.
         21   -1    0    0  502  503 -0.00000000000E+00 -0.00000000000E+00 -0.15212328803E+01  0.15212328803E+01  0.00000000000E+00 0. -1.
          2    1    1    2  501    0  0.25655695769E+02  0.19515798037E+02  0.11830158189E+04  0.11834549036E+04  0.00000000000E+00 0.  1.
         -2    1    1    2    0  503 -0.25655695769E+02 -0.19515798037E+02  0.19826208369E+03  0.20086546474E+03  0.00000000000E+00 0. -1.
</event>
<event>
 4    1  0.1762646E+004  0.2202417E+02  0.7546771E-02  0.1505129E+00
         21   -1    0    0  501  502  0.00000000000E+00  0.00000000000E+00  0.50672013791E+03  0.50672013791E+03  0.00000000000E+00 0.  1.
         21   -1    0    0  502  503 -0.00000000000E+00 -0.00000000000E+00 -0.96678213898E+00  0.96678213898E+00  0.00000000000E+00 0. -1.
          2    1    1    2  501    0  0.21383923649E+02  0.52718058045E+01  0.27806588879E+03  0.27893673590E+03  0.00000000000E+00 0.  1.
         -2    1    1    2    0  503 -0.21383923649E+02 -0.52718058045E+01  0.22768746699E+03  0.22875018415E+03  0.00000000000E+00 0. -1.
</event>
<event>
 4    1  0.1762646E+004  0.2112095E+02  0.7546771E-02  0.1517545E+00
         21   -1    0    0  501  502  0.00000000000E+00  0.00000000000E+00  0.24726441800E+02  0.24726441800E+02  0.00000000000E+00 0. -1.
         21   -1    0    0  502  503 -0.00000000000E+00 -0.00000000000E+00 -0.23659114223E+02  0.23659114223E+02  0.00000000000E+00 0.  1.
          2    1    1    2  501    0  0.21120480410E+02 -0.14145134752E+00 -0.11255256237E+02  0.23932728515E+02  0.00000000000E+00 0.  1.
         -2    1    1    2    0  503 -0.21120480410E+02  0.14145134752E+00  0.12322583814E+02  0.24452827507E+02  0.00000000000E+00 0. -1.
</event>
<event>
 4    1  0.1762646E+004  0.2395630E+02  0.7546771E-02  0.1480827E+00
         21   -1    0    0  501  502  0.00000000000E+00  0.00000000000E+00  0.11318574626E+03  0.11318574626E+03  0.00000000000E+00 0. -1.
         21   -1    0    0  502  503 -0.00000000000E+00 -0.00000000000E+00 -0.88588825550E+01  0.88588825550E+01  0.00000000000E+00 0.  1.
          2    1    1    2  501    0  0.36383396697E+01 -0.23678401753E+02  0.92068512622E+02  0.95134195964E+02  0.00000000000E+00 0. -1.
         -2    1    1    2    0  503 -0.36383396697E+01  0.23678401753E+02  0.12258351087E+02  0.26910432856E+02  0.00000000000E+00 0.  1.
</event>
<event>
 4    1  0.1762646E+004  0.2141565E+02  0.7546771E-02  0.1513412E+00
         21   -1    0    0  501  502  0.00000000000E+00  0.00000000000E+00  0.63893202906E+02  0.63893202906E+02  0.00000000000E+00 0.  1.
         21   -1    0    0  502  503 -0.00000000000E+00 -0.00000000000E+00 -0.10853387052E+02  0.10853387052E+02  0.00000000000E+00 0. -1.
          2    1    1    2  501    0  0.20317972067E+02  0.67683029220E+01  0.48268248227E+02  0.52805811236E+02  0.00000000000E+00 0.  1.
         -2    1    1    2    0  503 -0.20317972067E+02 -0.67683029220E+01  0.47715676268E+01  0.21940778723E+02  0.00000000000E+00 0. -1.
</event>
<event>
 4    1  0.1762646E+004  0.2305241E+02  0.7546771E-02  0.1491841E+00
         21   -1    0    0  503  502  0.00000000000E+00  0.00000000000E+00  0.12317641867E+02  0.12317641867E+02  0.00000000000E+00 0.  1.
         21   -1    0    0  501  503 -0.00000000000E+00 -0.00000000000E+00 -0.45179720647E+02  0.45179720647E+02  0.00000000000E+00 0. -1.
          2    1    1    2  501    0 -0.41621641040E+01 -0.22673553683E+02 -0.22535778017E+02  0.32237787416E+02  0.00000000000E+00 0. -1.
         -2    1    1    2    0  502  0.41621641040E+01  0.22673553683E+02 -0.10326300763E+02  0.25259575097E+02  0.00000000000E+00 0.  1.
</event>
<event>
 4    1  0.1762646E+004  0.3338791E+02  0.7546771E-02  0.1392265E+00
         21   -1    0    0  501  502  0.00000000000E+00  0.00000000000E+00  0.13653782716E+03  0.13653782716E+03  0.00000000000E+00 0.  1.
         21   -1    0    0  502  503 -0.00000000000E+00 -0.00000000000E+00 -0.11492582439E+02  0.11492582439E+02  0.00000000000E+00 0. -1.
          2    1    1    2  501    0  0.38591688532E+01 -0.33164129254E+02  0.10235297543E+03  0.10766096894E+03  0.00000000000E+00 0.  1.
         -2    1    1    2    0  503 -0.38591688532E+01  0.33164129254E+02  0.22692269286E+02  0.40369440655E+02  0.00000000000E+00 0. -1.
</event>
<event>
 4    1  0.1762646E+004  0.2520433E+02  0.7546771E-02  0.1466530E+00
         21   -1    0    0  501  502  0.00000000000E+00  0.00000000000E+00  0.11818532446E+02  0.11818532446E+02  0.00000000000E+00 0. -1.
         21   -1    0    0  502  503 -0.00000000000E+00 -0.00000000000E+00 -0.13919089788E+03  0.13919089788E+03  0.00000000000E+00 0.  1.
          2    1    1    2  501    0 -0.95682722586E+01  0.23317515443E+02 -0.45301657648E+01  0.25608216695E+02  0.00000000000E+00 0. -1.
         -2    1    1    2    0  503  0.95682722586E+01 -0.23317515443E+02 -0.12284219967E+03  0.12540121363E+03  0.00000000000E+00 0.  1.
</event>
<event>
 4    1  0.1762646E+004  0.3167759E+02  0.7546771E-02  0.1405558E+00
         21   -1    0    0  501  502  0.00000000000E+00  0.00000000000E+00  0.81514351073E+01  0.81514351073E+01  0.00000000000E+00 0. -1.
         21   -1    0    0  502  503 -0.00000000000E+00 -0.00000000000E+00 -0.18494290031E+03  0.18494290031E+03  0.00000000000E+00 0.  1.
          2    1    1    2  501    0  0.70865703049E+01  0.30874747666E+02 -0.32567532170E+02  0.45432517801E+02  0.00000000000E+00 0. -1.
         -2    1    1    2    0  503 -0.70865703049E+01 -0.30874747666E+02 -0.14422393303E+03  0.14766181761E+03  0.00000000000E+00 0.  1.
</event>
<event>
 4    1  0.1762646E+004  0.2397894E+02  0.7546771E-02  0.1480558E+00
         21   -1    0    0  503  502  0.00000000000E+00  0.00000000000E+00  0.11174913060E+03  0.11174913060E+03  0.00000000000E+00 0. -1.
         21   -1    0    0  501  503 -0.00000000000E+00 -0.00000000000E+00 -0.65590058061E+01  0.65590058061E+01  0.00000000000E+00 0.  1.
          2    1    1    2  501    0  0.20792514401E+01 -0.23888621815E+02  0.25132827950E+02  0.34736847576E+02  0.00000000000E+00 0.  1.
         -2    1    1    2    0  502 -0.20792514401E+01  0.23888621815E+02  0.80057296846E+02  0.83571288832E+02  0.00000000000E+00 0. -1.
</event>
<event>
 4    1  0.1762646E+004  0.2154033E+02  0.7546771E-02  0.1511688E+00
         21   -1    0    0  503  502  0.00000000000E+00  0.00000000000E+00  0.40771373683E+03  0.40771373683E+03  0.00000000000E+00 0.  1.
         21   -1    0    0  501  503 -0.00000000000E+00 -0.00000000000E+00 -0.22752856987E+01  0.22752856987E+01  0.00000000000E+00 0. -1.
          2    1    1    2  501    0  0.17553105553E+02  0.12484967563E+02  0.57790174456E+02  0.61674064186E+02  0.00000000000E+00 0. -1.
         -2    1    1    2    0  502 -0.17553105553E+02 -0.12484967563E+02  0.34764827668E+03  0.34831495834E+03  0.00000000000E+00 0.  1.
</event>
<event>
 4    1  0.1762646E+004  0.2107430E+02  0.7546771E-02  0.1518207E+00
         21   -1    0    0  501  502  0.00000000000E+00  0.00000000000E+00  0.12342700266E+02  0.12342700266E+02  0.00000000000E+00 0.  1.
         21   -1    0    0  502  503 -0.00000000000E+00 -0.00000000000E+00 -0.14367234304E+03  0.14367234304E+03  0.00000000000E+00 0. -1.
          2    1    1    2  501    0 -0.13768671840E+01  0.21029272837E+02  0.18713551423E+01  0.21157222156E+02  0.00000000000E+00 0.  1.
         -2    1    1    2    0  503  0.13768671840E+01 -0.21029272837E+02 -0.13320099792E+03  0.13485782115E+03  0.00000000000E+00 0. -1.
</event>
<event>
 4    1  0.1762646E+004  0.2055026E+02  0.7546771E-02  0.1525784E+00
         21   -1    0    0  503  502  0.00000000000E+00  0.00000000000E+00  0.21386261350E+02  0.21386261350E+02  0.00000000000E+00 0. -1.
         21   -1    0    0  501  503 -0.00000000000E+00 -0.00000000000E+00 -0.22312791157E+02  0.22312791157E+02  0.00000000000E+00 0.  1.
          2    1    1    2  501    0 -0.90148466635E+01 -0.18467427290E+02 -0.78726192273E+01  0.22006623198E+02  0.00000000000E+00 0.  1.
         -2    1    1    2    0  502  0.90148466635E+01  0.18467427290E+02  0.69460894194E+01  0.21692429309E+02  0.00000000000E+00 0. -1.
</event>
<event>
 4    1  0.1762646E+004  0.2037732E+02  0.7546771E-02  0.1528344E+00
         21   -1    0    0  501  502  0.00000000000E+00  0.00000000000E+00  0.63121179059E+02  0.63121179059E+02  0.00000000000E+00 0.  1.
         21   -1    0    0  502  503 -0.00000000000E+00 -0.00000000000E+00 -0.75459949583E+01  0.75459949583E+01  0.00000000000E+00 0. -1.
          2    1    1    2  501    0  0.49691967023E+01 -0.19762138465E+02  0.15134956275E+02  0.25383103317E+02  0.00000000000E+00 0. -1.
         -2    1    1    2    0  503 -0.49691967023E+01  0.19762138465E+02  0.40440227825E+02  0.45284070700E+02  0.00000000000E+00 0.  1.
</event>
<event>
 4    1  0.1762646E+004  0.2095376E+02  0.7546771E-02  0.1519926E+00
         21   -1    0    0  501  502  0.00000000000E+00  0.00000000000E+00  0.22226267883E+02  0.22226267883E+02  0.00000000000E+00 0.  1.
         21   -1    0    0  502  503 -0.00000000000E+00 -0.00000000000E+00 -0.19837922255E+02  0.19837922255E+02  0.00000000000E+00 0. -1.
          2    1    1    2  501    0 -0.20691174341E+02 -0.33068621749E+01  0.25612742778E+01  0.21109717169E+02  0.00000000000E+00 0.  1.
         -2    1    1    2    0  503  0.20691174341E+02  0.33068621749E+01 -0.17292864958E+00  0.20954472968E+02  0.00000000000E+00 0. -1.
</event>
<event>
 4    1  0.1762646E+004  0.2497910E+02  0.7546771E-02  0.1469037E+00
         21   -1    0    0  503  502  0.00000000000E+00  0.00000000000E+00  0.48209838650E+01  0.48209838650E+01  0.00000000000E+00 0. -1.
         21   -1    0    0  501  503 -0.00000000000E+00 -0.00000000000E+00 -0.87937532697E+03  0.87937532697E+03  0.00000000000E+00 0.  1.
          2    1    1    2  501    0  0.17848420327E+02 -0.17475389165E+02 -0.84554752457E+03  0.84591640937E+03  0.00000000000E+00 0.  1.
         -2    1    1    2    0  502 -0.17848420327E+02  0.17475389165E+02 -0.29006818535E+02  0.38279901465E+02  0.00000000000E+00 0. -1.
</event>
<event>
 4    1  0.1762646E+004  0.2736460E+02  0.7546771E-02  0.1443980E+00
         21   -1    0    0  503  502  0.00000000000E+00  0.00000000000E+00  0.52736856469E+01  0.52736856469E+01  0.00000000000E+00 0.  1.
         21   -1    0    0  501  503 -0.00000000000E+00 -0.00000000000E+00 -0.23427507520E+03  0.23427507520E+03  0.00000000000E+00 0. -1.
          2    1    1    2  501    0  0.18990866887E+02 -0.19701983130E+02 -0.18967370176E+03  0.19163750756E+03  0.00000000000E+00 0.  1.
         -2    1    1    2    0  502 -0.18990866887E+02  0.19701983130E+02 -0.39327687793E+02  0.47911253287E+02  0.00000000000E+00 0. -1.
</event>
<event>
 4    1  0.1762646E+004  0.2412044E+02  0.7546771E-02  0.1478888E+00
         21   -1    0    0  503  502  0.00000000000E+00  0.00000000000E+00  0.97990475066E+02  0.97990475066E+02  0.00000000000E+00 0. -1.
         21   -1    0    0  501  503 -0.00000000000E+00 -0.00000000000E+00 -0.78348252311E+01  0.78348252311E+01  0.00000000000E+00 0.  1.
          2    1    1    2  501    0 -0.23336954987E+02 -0.60977219892E+01  0.19037743703E+02  0.30728347935E+02  0.00000000000E+00 0.  1.
         -2    1    1    2    0  502  0.23336954987E+02  0.60977219892E+01  0.71117906133E+02  0.75096952363E+02  0.00000000000E+00 0. -1.
</event>
<event>
 4    1  0.1762646E+004  0.2060106E+02  0.7546771E-02  0.1525038E+00
         21   -1    0    0  503  502  0.00000000000E+00  0.00000000000E+00  0.73829089892E+01  0.73829089892E+01  0.00000000000E+00 0.  1.
         21   -1    0    0  501  503 -0.00000000000E+00 -0.00000000000E+00 -0.98810652140E+03  0.98810652140E+03  0.00000000000E+00 0. -1.
          2    1    1    2  501    0  0.44090769652E+01 -0.20123706012E+02 -0.97341106062E+03  0.97362903431E+03  0.00000000000E+00 0. -1.
         -2    1    1    2    0  502 -0.44090769652E+01  0.20123706012E+02 -0.73125517921E+01  0.21860396086E+02  0.00000000000E+00 0.  1.
</event>
<event>
 4    1  0.1762646E+004  0.2381058E+02  0.7546771E-02  0.1482563E+00
         21   -1    0    0  501  502  0.00000000000E+00  0.00000000000E+00  0.94953847537E+01  0.94953847537E+01  0.00000000000E+00 0.  1.
         21   -1    0    0  502  503 -0.00000000000E+00 -0.00000000000E+00 -0.13183465855E+03  0.13183465855E+03  0.00000000000E+00 0. -1.
          2    1    1    2  501    0  0.98626499847E+01 -0.21671918436E+02 -0.89011809950E+01  0.25419971214E+02  0.00000000000E+00 0.  1.
         -2    1    1    2    0  503 -0.98626499847E+01  0.21671918436E+02 -0.11343809280E+03  0.11591007209E+03  0.00000000000E+00 0. -1.
</event>
<event>
 4    1  0.1762646E+004  0.2019554E+02  0.7546771E-02  0.1531067E+00
         21   -1    0    0  501  502  0.00000000000E+00  0.00000000000E+00  0.39662293239E+02  0.39662293239E+02  0.00000000000E+00 0.  1.
         21   -1    0    0  502  503 -0.00000000000E+00 -0.00000000000E+00 -0.48900814452E+02  0.48900814452E+02  0.00000000000E+00 0. -1.
          2    1    1    2  501    0 -0.65110306300E+01  0.19117168240E+02  0.34731842439E+02  0.40176616590E+02  0.00000000000E+00 0.  1.
         -2    1    1    2    0  503  0.65110306300E+01 -0.19117168240E+02 -0.43970363652E+02  0.48386491101E+02  0.00000000000E+00 0. -1.
</event>
<event>
 4    1  0.1762646E+004  0.2166285E+02  0.7546771E-02  0.1510008E+00
         21   -1    0    0  501  502  0.00000000000E+00  0.00000000000E+00  0.76549624475E+01  0.76549624475E+01  0.00000000000E+00 0. -1.
         21   -1    0    0  502  503 -0.00000000000E+00 -0.00000000000E+00 -0.18018990102E+03  0.18018990102E+03  0.00000000000E+00 0.  1.
          2    1    1    2  501    0 -0.21602930282E+02  0.16101618711E+01 -0.99771513374E+01  0.23850005594E+02  0.00000000000E+00 0. -1.
         -2    1    1    2    0  503  0.21602930282E+02 -0.16101618711E+01 -0.16255778723E+03  0.16399485787E+03  0.00000000000E+00 0.  1.
</event>
<event>
 4    1  0.1762646E+004  0.3178936E+02  0.7546771E-02  0.1404659E+00
         21   -1    0    0  503  502  0.00000000000E+00  0.00000000000E+00  0.29359995616E+02  0.29359995616E+02  0.00000000000E+00 0.  1.
         21   -1    0    0  501  503 -0.00000000000E+00 -0.00000000000E+00 -0.47075585200E+02  0.47075585200E+02  0.00000000000E+00 0. -1.
          2    1    1    2  501    0  0.31683766316E+02  0.25889304849E+01  0.10958076583E+02  0.33625036081E+02  0.00000000000E+00 0.  1.
         -2    1    1    2    0  502 -0.31683766316E+02 -0.25889304849E+01 -0.28673666167E+02  0.42810544735E+02  0.00000000000E+00 0. -1.
</event>
<event>
 4    1  0.1762646E+004  0.2346300E+02  0.7546771E-02  0.1486765E+00
         21   -1    0    0  501  502  0.00000000000E+00  0.00000000000E+00  0.28102119121E+02  0.28102119121E+02  0.00000000000E+00 0.  1.
         21   -1    0    0  502  503 -0.00000000000E+00 -0.00000000000E+00 -0.62198512188E+02  0.62198512188E+02  0.00000000000E+00 0. -1.
          2    1    1    2  501    0 -0.71946966879E+01 -0.22332677457E+02  0.20321579551E+02  0.31039953902E+02  0.00000000000E+00 0.  1.
         -2    1    1    2    0  503  0.71946966879E+01  0.22332677457E+02 -0.54417972618E+02  0.59260677407E+02  0.00000000000E+00 0. -1.
</event>
<event>
 4    1  0.1762646E+004  0.2518991E+02  0.7546771E-02  0.1466690E+00
         21   -1    0    0  501  502  0.00000000000E+00  0.00000000000E+00  0.48106441553E+01  0.48106441553E+01  0.00000000000E+00 0.  1.
         21   -1    0    0  502  503 -0.00000000000E+00 -0.00000000000E+00 -0.24506491844E+03  0.24506491844E+03  0.00000000000E+00 0. -1.
          2    1    1    2  501    0  0.25016866696E+02  0.29475481672E+01 -0.35227456943E+02  0.43307105446E+02  0.00000000000E+00 0.  1.
         -2    1    1    2    0  503 -0.25016866696E+02 -0.29475481672E+01 -0.20502681734E+03  0.20656845715E+03  0.00000000000E+00 0. -1.
</event>
<event>
 4    1  0.1762646E+004  0.2609311E+02  0.7546771E-02  0.1456937E+00
         21   -1    0    0  501  502  0.00000000000E+00  0.00000000000E+00  0.50970681999E+02  0.50970681999E+02  0.00000000000E+00 0.  1.
         21   -1    0    0  502  503 -0.00000000000E+00 -0.00000000000E+00 -0.16821173457E+02  0.16821173457E+02  0.00000000000E+00 0. -1.
          2    1    1    2  501    0  0.18526448272E+02 -0.18374473033E+02  0.32455449592E+02  0.41643808100E+02  0.00000000000E+00 0. -1.
         -2    1    1    2    0  503 -0.18526448272E+02  0.18374473033E+02  0.16940589490E+01  0.26148047356E+02  0.00000000000E+00 0.  1.
</event>
<event>
 4    1  0.1762646E+004  0.3893627E+02  0.7546771E-02  0.1354834E+00
         21   -1    0    0  501  502  0.00000000000E+00  0.00000000000E+00  0.60421083924E+01  0.60421083924E+01  0.00000000000E+00 0.  1.
         21   -1    0    0  502  503 -0.00000000000E+00 -0.00000000000E+00 -0.23333370557E+04  0.23333370557E+04  0.00000000000E+00 0. -1.
          2    1    1    2  501    0  0.45610784753E+01  0.38668201974E+02 -0.58636360189E+02  0.70386476094E+02  0.00000000000E+00 0.  1.
         -2    1    1    2    0  503 -0.45610784753E+01 -0.38668201974E+02 -0.22686585871E+04  0.22689926880E+04  0.00000000000E+00 0. -1.
</event>
<event>
 4    1  0.1762646E+004  0.2036006E+02  0.7546771E-02  0.1528601E+00
         21   -1    0    0  501  502  0.00000000000E+00  0.00000000000E+00  0.13861131937E+01  0.13861131937E+01  0.00000000000E+00 0. -1.
         21   -1    0    0  502  503 -0.00000000000E+00 -0.00000000000E+00 -0.32000094575E+03  0.32000094575E+03  0.00000000000E+00 0.  1.
          2    1    1    2  501    0 -0.88859058011E+01 -0.18318648105E+02 -0.11820076609E+03  0.11994145778E+03  0.00000000000E+00 0.  1.
         -2    1    1    2    0  503  0.88859058011E+01  0.18318648105E+02 -0.20041406646E+03  0.20144560116E+03  0.00000000000E+00 0. -1.
</event>
<event>
 4    1  0.1762646E+004  0.2648983E+02  0.7546771E-02  0.1452801E+00
         21   -1    0    0  503  502  0.00000000000E+00  0.00000000000E+00  0.70809893534E+02  0.70809893534E+02  0.00000000000E+00 0. -1.
         21   -1    0    0  501  503 -0.00000000000E+00 -0.00000000000E+00 -0.10040946848E+02  0.10040946848E+02  0.00000000000E+00 0.  1.
          2    1    1    2  501    0  0.26408285076E+02  0.20768617967E+01  0.25764178488E+02  0.36952723428E+02  0.00000000000E+00 0.  1.
         -2    1    1    2    0  502 -0.26408285076E+02 -0.20768617967E+01  0.35004768198E+02  0.43898116955E+02  0.00000000000E+00 0. -1.
</event>
<event>
 4    1  0.1762646E+004  0.2017691E+02  0.7546771E-02  0.1531348E+00
         21   -1    0    0  501  502  0.00000000000E+00  0.00000000000E+00  0.72372721613E+02  0.72372721613E+02  0.00000000000E+00 0. -1.
         21   -1    0    0  502  503 -0.00000000000E+00 -0.00000000000E+00 -0.18357623600E+02  0.18357623600E+02  0.00000000000E+00 0.  1.
          2    1    1    2  501    0 -0.20138968495E+02  0.12367568746E+01  0.64788308237E+02  0.67857442509E+02  0.00000000000E+00 0. -1.
         -2    1    1    2    0  503  0.20138968495E+02 -0.12367568746E+01 -0.10773210224E+02  0.22872902704E+02  0.00000000000E+00 0.  1.
</event>
<event>
 4    1  0.1762646E+004  0.2223417E+02  0.7546771E-02  0.1502345E+00
         21   -1    0    0  503  502  0.00000000000E+00  0.00000000000E+00  0.11398293725E+02  0.11398293725E+02  0.00000000000E+00 0. -1.
         21   -1    0    0  501  503 -0.00000000000E+00 -0.00000000000E+00 -0.43407521716E+02  0.43407521716E+02  0.00000000000E+00 0.  1.
          2    1    1    2  501    0 -0.18136115118E+02  0.12862334015E+02 -0.15212539399E+02  0.26940298121E+02  0.00000000000E+00 0. -1.
         -2    1    1    2    0  502  0.18136115118E+02 -0.12862334015E+02 -0.16796688592E+02  0.27865517320E+02  0.00000000000E+00 0.  1.
</event>
<event>
 4    1  0.1762646E+004  0.2425643E+02  0.7546771E-02  0.1477296E+00
         21   -1    0    0  503  502  0.00000000000E+00  0.00000000000E+00  0.80353168531E+02  0.80353168531E+02  0.00000000000E+00 0.  1.
         21   -1    0    0  501  503 -0.00000000000E+00 -0.00000000000E+00 -0.79592466945E+01  0.79592466945E+01  0.00000000000E+00 0. -1.
          2    1    1    2  501    0  0.14796385480E+02 -0.19220852742E+02  0.23706182098E+02  0.33916917210E+02  0.00000000000E+00 0. -1.
         -2    1    1    2    0  502 -0.14796385480E+02  0.19220852742E+02  0.48687739739E+02  0.54395498016E+02  0.00000000000E+00 0.  1.
</event>
<event>
 4    1  0.1762646E+004  0.2199272E+02  0.7546771E-02  0.1505549E+00
         21   -1    0    0  501  502  0.00000000000E+00  0.00000000000E+00  0.37705033091E+02  0.37705033091E+02  0.00000000000E+00 0. -1.
         21   -1    0    0  502  503 -0.00000000000E+00 -0.00000000000E+00 -0.12843149238E+02  0.12843149238E+02  0.00000000000E+00 0.  1.
          2    1    1    2  501    0  0.20673480705E+02 -0.75024737417E+01  0.11562722785E+02  0.24847061695E+02  0.00000000000E+00 0. -1.
         -2    1    1    2    0  503 -0.20673480705E+02  0.75024737417E+01  0.13299161069E+02  0.25701120634E+02  0.00000000000E+00 0.  1.
</event>
<event>
 4    1  0.1762646E+004  0.2447645E+02  0.7546771E-02  0.1474746E+00
         21   -1    0    0  503  502  0.00000000000E+00  0.00000000000E+00  0.12300846349E+03  0.12300846349E+03  0.00000000000E+00 0.  1.
         21   -1    0    0  501  503 -0.00000000000E+00 -0.00000000000E+00 -0.63515992947E+01  0.63515992947E+01  0.00000000000E+00 0. -1.
          2    1    1    2  501    0  0.23080366269E+02 -0.81482132556E+01  0.27093549722E+02  0.36512424226E+02  0.00000000000E+00 0. -1.
         -2    1    1    2    0  502 -0.23080366269E+02  0.81482132556E+01  0.89563314471E+02  0.92847638556E+02  0.00000000000E+00 0.  1.
</event>
<event>
 4    1  0.1762646E+004  0.2514255E+02  0.7546771E-02  0.1467215E+00
         21   -1    0    0  503  502  0.00000000000E+00  0.00000000000E+00  0.20312354452E+02  0.20312354452E+02  0.00000000000E+00 0.  1.
         21   -1    0    0  501  503 -0.00000000000E+00 -0.00000000000E+00 -0.42216931092E+02  0.42216931092E+02  0.00000000000E+00 0. -1.
          2    1    1    2  501    0 -0.25141601182E+02  0.21876957478E+00 -0.26980500829E+02  0.36879471188E+02  0.00000000000E+00 0. -1.
         -2    1    1    2    0  502  0.25141601182E+02 -0.21876957478E+00  0.50759241885E+01  0.25649814356E+02  0.00000000000E+00 0.  1.
</event>
<event>
 4    1  0.1762646E+004  0.2856607E+02  0.7546771E-02  0.1432481E+00
         21   -1    0    0  503  502  0.00000000000E+00  0.00000000000E+00  0.79541156298E+01  0.79541156298E+01  0.00000000000E+00 0.  1.
         21   -1    0    0  501  503 -0.00000000000E+00 -0.00000000000E+00 -0.22025112301E+03  0.22025112301E+03  0.00000000000E+00 0. -1.
          2    1    1    2  501    0 -0.15828032919E+02  0.23780107721E+02 -0.18954567489E+03  0.19168615760E+03  0.00000000000E+00 0. -1.
         -2    1    1    2    0  502  0.15828032919E+02 -0.23780107721E+02 -0.22751332492E+02  0.36519081033E+02  0.00000000000E+00 0.  1.
</event>
<event>
 4    1  0.1762646E+004  0.2142885E+02  0.7546771E-02  0.1513229E+00
         21   -1    0    0  501  502  0.00000000000E+00  0.00000000000E+00  0.75529500378E+01  0.75529500378E+01  0.00000000000E+00 0. -1.
         21   -1    0    0  502  503 -0.00000000000E+00 -0.00000000000E+00 -0.61076682819E+02  0.61076682819E+02  0.00000000000E+00 0.  1.
          2    1    1    2  501    0  0.14284942608E+02 -0.15972977741E+02 -0.24439183497E+02  0.32503373567E+02  0.00000000000E+00 0. -1.
         -2    1    1    2    0  503 -0.14284942608E+02  0.15972977741E+02 -0.29084549284E+02  0.36126259290E+02  0.00000000000E+00 0.  1.
</event>
<event>
 4    1  0.1762646E+004  0.2079151E+02  0.7546771E-02  0.1522262E+00
         21   -1    0    0  501  502  0.00000000000E+00  0.00000000000E+00  0.18271887321E+03  0.18271887321E+03  0.00000000000E+00 0.  1.
         21   -1    0    0  502  503 -0.00000000000E+00 -0.00000000000E+00 -0.33822837158E+01  0.33822837158E+01  0.00000000000E+00 0. -1.
          2    1    1    2  501    0  0.20348913766E+01 -0.20691695144E+02  0.14067787366E+03  0.14220601664E+03  0.00000000000E+00 0.  1.
         -2    1    1    2    0  503 -0.20348913766E+01  0.20691695144E+02  0.38658715836E+02  0.43895140289E+02  0.00000000000E+00 0. -1.
</event>
<event>
 4    1  0.1762646E+004  0.2897092E+02  0.7546771E-02  0.1428755E+00
         21   -1    0    0  501  502  0.00000000000E+00  0.00000000000E+00  0.38041024536E+02  0.38041024536E+02  0.00000000000E+00 0. -1.
         21   -1    0    0  502  503 -0.00000000000E+00 -0.00000000000E+00 -0.23585744833E+02  0.23585744833E+02  0.00000000000E+00 0.  1.
          2    1    1    2  501    0  0.35774374602E+01 -0.28749194446E+02  0.15056012740E+02  0.32649621127E+02  0.00000000000E+00 0. -1.
         -2    1    1    2    0  503 -0.35774374602E+01  0.28749194446E+02 -0.60073303726E+00  0.28977148242E+02  0.00000000000E+00 0.  1.
</event>
<event>
 4    1  0.1762646E+004  0.3509435E+02  0.7546771E-02  0.1379901E+00
         21   -1    0    0  501  502  0.00000000000E+00  0.00000000000E+00  0.55573917682E+01  0.55573917682E+01  0.00000000000E+00 0. -1.
         21   -1    0    0  502  503 -0.00000000000E+00 -0.00000000000E+00 -0.24327869812E+03  0.24327869812E+03  0.00000000000E+00 0.  1.
          2    1    1    2  501    0 -0.20803585683E+01  0.35032633970E+02 -0.81734832732E+02  0.88950526790E+02  0.00000000000E+00 0. -1.
         -2    1    1    2    0  503  0.20803585683E+01 -0.35032633970E+02 -0.15598647362E+03  0.15988556309E+03  0.00000000000E+00 0.  1.
</event>
<event>
 4    1  0.1762646E+004  0.2024020E+02  0.7546771E-02  0.1530395E+00
         21   -1    0    0  503  502  0.00000000000E+00  0.00000000000E+00  0.93075330871E+02  0.93075330871E+02  0.00000000000E+00 0.  1.
         21   -1    0    0  501  503 -0.00000000000E+00 -0.00000000000E+00 -0.53449820391E+01  0.53449820391E+01  0.00000000000E+00 0. -1.
          2    1    1    2  501    0 -0.56380164175E+01  0.19439099614E+02  0.23189417819E+02  0.30780105940E+02  0.00000000000E+00 0. -1.
         -2    1    1    2    0  502  0.56380164175E+01 -0.19439099614E+02  0.64540931013E+02  0.67640206970E+02  0.00000000000E+00 0.  1.
</event>
<event>
 4    1  0.1762646E+004  0.2097823E+02  0.7546771E-02  0.1519576E+00
         21   -1    0    0  501  502  0.00000000000E+00  0.00000000000E+00  0.20100495934E+02  0.20100495934E+02  0.00000000000E+00 0. -1.
         21   -1    0    0  502  503 -0.00000000000E+00 -0.00000000000E+00 -0.97137438526E+02  0.97137438526E+02  0.00000000000E+00 0.  1.
          2    1    1    2  501    0  0.62406933518E+01  0.20028477319E+02  0.13073047010E+02  0.24718226380E+02  0.00000000000E+00 0. -1.
         -2    1    1    2    0  503 -0.62406933518E+01 -0.20028477319E+02 -0.90109989602E+02  0.92519708080E+02  0.00000000000E+00 0.  1.
</event>
<event>
 4    1  0.1762646E+004  0.2307889E+02  0.7546771E-02  0.1491510E+00
         21   -1    0    0  501  502  0.00000000000E+00  0.00000000000E+00  0.49156601057E+02  0.49156601057E+02  0.00000000000E+00 0. -1.
         21   -1    0    0  502  503 -0.00000000000E+00 -0.00000000000E+00 -0.13729105229E+02  0.13729105229E+02  0.00000000000E+00 0.  1.
          2    1    1    2  501    0  0.21983648230E+02 -0.70252803011E+01  0.32148920949E+02  0.39575099128E+02  0.00000000000E+00 0.  1.
         -2    1    1    2    0  503 -0.21983648230E+02  0.70252803011E+01  0.32785748788E+01  0.23310607158E+02  0.00000000000E+00 0. -1.
</event>
<event>
 4    1  0.1762646E+004  0.2114507E+02  0.7546771E-02  0.1517204E+00
         21   -1    0    0  501  502  0.00000000000E+00  0.00000000000E+00  0.99472613648E+01  0.99472613648E+01  0.00000000000E+00 0.  1.
         21   -1    0    0  502  503 -0.00000000000E+00 -0.00000000000E+00 -0.59780650068E+02  0.59780650068E+02  0.00000000000E+00 0. -1.
          2    1    1    2  501    0 -0.15504244229E+02  0.14378191709E+02 -0.75507212705E+01  0.22452781067E+02  0.00000000000E+00 0.  1.
         -2    1    1    2    0  503  0.15504244229E+02 -0.14378191709E+02 -0.42282667433E+02  0.47275130366E+02  0.00000000000E+00 0. -1.
</event>
<event>
 4    1  0.1762646E+004  0.2994452E+02  0.7546771E-02  0.1420079E+00
         21   -1    0    0  503  502  0.00000000000E+00  0.00000000000E+00  0.23885653478E+02  0.23885653478E+02  0.00000000000E+00 0. -1.
         21   -1    0    0  501  503 -0.00000000000E+00 -0.00000000000E+00 -0.26288102406E+03  0.26288102406E+03  0.00000000000E+00 0.  1.
          2    1    1    2  501    0 -0.17386314591E+01 -0.29894006094E+02 -0.25224902699E+03  0.25402016860E+03  0.00000000000E+00 0.  1.
         -2    1    1    2    0  502  0.17386314591E+01  0.29894006094E+02  0.13253656402E+02  0.32746508940E+02  0.00000000000E+00 0. -1.
</event>
<event>
 4    1  0.1762646E+004  0.4509892E+02  0.7546771E-02  0.1320945E+00
         21   -1    0    0  501  502  0.00000000000E+00  0.00000000000E+00  0.23336852375E+03  0.23336852375E+03  0.00000000000E+00 0.  1.
         21   -1    0    0  502  503 -0.00000000000E+00 -0.00000000000E+00 -0.28513700970E+02  0.28513700970E+02  0.00000000000E+00 0. -1.
          2    1    1    2  501    0 -0.26490284800E+02  0.36499004775E+02  0.21153692099E+03  0.21629096487E+03  0.00000000000E+00 0.  1.
         -2    1    1    2    0  503  0.26490284800E+02 -0.36499004775E+02 -0.66820982162E+01  0.45591259852E+02  0.00000000000E+00 0. -1.
</event>
<event>
 4    1  0.1762646E+004  0.5463404E+02  0.7546771E-02  0.1279241E+00
         21   -1    0    0  501  502  0.00000000000E+00  0.00000000000E+00  0.20255493845E+03  0.20255493845E+03  0.00000000000E+00 0. -1.
         21   -1    0    0  502  503 -0.00000000000E+00 -0.00000000000E+00 -0.20791460067E+02  0.20791460067E+02  0.00000000000E+00 0.  1.
          2    1    1    2  501    0 -0.12887628548E+02 -0.53092256420E+02  0.15114808877E+03  0.16071908225E+03  0.00000000000E+00 0. -1.
         -2    1    1    2    0  503  0.12887628548E+02  0.53092256420E+02  0.30615389616E+02  0.62627316266E+02  0.00000000000E+00 0.  1.
</event>
<event>
 4    1  0.1762646E+004  0.2443320E+02  0.7546771E-02  0.1475245E+00
         21   -1    0    0  503  502  0.00000000000E+00  0.00000000000E+00  0.32517921505E+01  0.32517921505E+01  0.00000000000E+00 0.  1.
         21   -1    0    0  501  503 -0.00000000000E+00 -0.00000000000E+00 -0.56717540676E+03  0.56717540676E+03  0.00000000000E+00 0. -1.
          2    1    1    2  501    0  0.89594438962E+01 -0.22731242942E+02 -0.51651711615E+03  0.51709468409E+03  0.00000000000E+00 0. -1.
         -2    1    1    2    0  502 -0.89594438962E+01  0.22731242942E+02 -0.47406498457E+02  0.53332514815E+02  0.00000000000E+00 0.  1.
</event>
<event>
 4    1  0.1762646E+004  0.2157477E+02  0.7546771E-02  0.1511215E+00
         21   -1    0    0  503  502  0.00000000000E+00  0.00000000000E+00  0.10564973671E+02  0.10564973671E+02  0.00000000000E+00 0. -1.
         21   -1    0    0  501  503 -0.00000000000E+00 -0.00000000000E+00 -0.71673062066E+02  0.71673062066E+02  0.00000000000E+00 0.  1.
          2    1    1    2  501    0 -0.16466686846E+02 -0.13939833008E+02 -0.56077438375E+02  0.60084522255E+02  0.00000000000E+00 0.  1.
         -2    1    1    2    0  502  0.16466686846E+02  0.13939833008E+02 -0.50306500208E+01  0.22153513482E+02  0.00000000000E+00 0. -1.
</event>
<event>
 4    1  0.1762646E+004  0.2259979E+02  0.7546771E-02  0.1497586E+00
         21   -1    0    0  503  502  0.00000000000E+00  0.00000000000E+00  0.76955564975E+01  0.76955564975E+01  0.00000000000E+00 0.  1.
         21   -1    0    0  501  503 -0.00000000000E+00 -0.00000000000E+00 -0.97879679711E+02  0.97879679711E+02  0.00000000000E+00 0. -1.
          2    1    1    2  501    0  0.16564948943E+02  0.15373772947E+02 -0.75043043543E+02  0.78372245165E+02  0.00000000000E+00 0. -1.
         -2    1    1    2    0  502 -0.16564948943E+02 -0.15373772947E+02 -0.15141079671E+02  0.27202991043E+02  0.00000000000E+00 0.  1.
</event>
<event>
 4    1  0.1762646E+004  0.3391600E+02  0.7546771E-02  0.1388348E+00
         21   -1    0    0  503  502  0.00000000000E+00  0.00000000000E+00  0.10037856087E+03  0.10037856087E+03  0.00000000000E+00 0. -1.
         21   -1    0    0  501  503 -0.00000000000E+00 -0.00000000000E+00 -0.56461330244E+02  0.56461330244E+02  0.00000000000E+00 0.  1.
          2    1    1    2  501    0  0.69169461306E+01  0.33203173864E+02 -0.48052298462E+02  0.58815969650E+02  0.00000000000E+00 0.  1.
         -2    1    1    2    0  502 -0.69169461306E+01 -0.33203173864E+02  0.91969529090E+02  0.98023921465E+02  0.00000000000E+00 0. -1.
</event>
<event>
 4    1  0.1762646E+004  0.2182892E+02  0.7546771E-02  0.1507751E+00
         21   -1    0    0  501  502  0.00000000000E+00  0.00000000000E+00  0.77594115783E+02  0.77594115783E+02  0.00000000000E+00 0. -1.
         21   -1    0    0  502  503 -0.00000000000E+00 -0.00000000000E+00 -0.12249263292E+02  0.12249263292E+02  0.00000000000E+00 0.  1.
          2    1    1    2  501    0  0.21461663086E+02  0.39873125802E+01  0.64394511072E+02  0.67993784276E+02  0.00000000000E+00 0. -1.
         -2    1    1    2    0  503 -0.21461663086E+02 -0.39873125802E+01  0.95034141988E+00  0.21849594798E+02  0.00000000000E+00 0.  1.
</event>
<event>
 4    1  0.1762646E+004  0.2008185E+02  0.7546771E-02  0.1532788E+00
         21   -1    0    0  501  502  0.00000000000E+00  0.00000000000E+00  0.75482602422E+02  0.75482602422E+02  0.00000000000E+00 0.  1.
         21   -1    0    0  502  503 -0.00000000000E+00 -0.00000000000E+00 -0.62126963221E+01  0.62126963221E+01  0.00000000000E+00 0. -1.
          2    1    1    2  501    0 -0.17884057225E+02  0.91346144000E+01  0.49920691781E+02  0.53808513740E+02  0.00000000000E+00 0.  1.
         -2    1    1    2    0  503  0.17884057225E+02 -0.91346144000E+01  0.19349214319E+02  0.27886785004E+02  0.00000000000E+00 0. -1.
</event>
<event>
 4    1  0.1762646E+004  0.5623285E+02  0.7546771E-02  0.1273199E+00
         21   -1    0    0  501  502  0.00000000000E+00  0.00000000000E+00  0.29979899253E+02  0.29979899253E+02  0.00000000000E+00 0.  1.
         21   -1    0    0  502  503 -0.00000000000E+00 -0.00000000000E+00 -0.27233064705E+03  0.27233064705E+03  0.00000000000E+00 0. -1.
          2    1    1    2  501    0 -0.43041221002E+02 -0.36188209592E+02 -0.28588632831E+01  0.56305473251E+02  0.00000000000E+00 0.  1.
         -2    1    1    2    0  503  0.43041221002E+02  0.36188209592E+02 -0.23949188452E+03  0.24600507306E+03  0.00000000000E+00 0. -1.
</event>
<event>
 4    1  0.1762646E+004  0.2127694E+02  0.7546771E-02  0.1515347E+00
         21   -1    0    0  503  502  0.00000000000E+00  0.00000000000E+00  0.45907017826E+02  0.45907017826E+02  0.00000000000E+00 0.  1.
         21   -1    0    0  501  503 -0.00000000000E+00 -0.00000000000E+00 -0.44144187554E+02  0.44144187554E+02  0.00000000000E+00 0. -1.
          2    1    1    2  501    0 -0.15815805616E+02 -0.14232655301E+02 -0.38797586396E+02  0.44248851898E+02  0.00000000000E+00 0. -1.
         -2    1    1    2    0  502  0.15815805616E+02  0.14232655301E+02  0.40560416668E+02  0.45802353482E+02  0.00000000000E+00 0.  1.
</event>
<event>
 4    1  0.1762646E+004  0.2677132E+02  0.7546771E-02  0.1449919E+00
         21   -1    0    0  501  502  0.00000000000E+00  0.00000000000E+00  0.36764578901E+02  0.36764578901E+02  0.00000000000E+00 0. -1.
         21   -1    0    0  502  503 -0.00000000000E+00 -0.00000000000E+00 -0.51154403486E+02  0.51154403486E+02  0.00000000000E+00 0.  1.
          2    1    1    2  501    0 -0.24170200079E+02 -0.11511078273E+02  0.27388401676E+02  0.38299191130E+02  0.00000000000E+00 0. -1.
         -2    1    1    2    0  503  0.24170200079E+02  0.11511078273E+02 -0.41778226261E+02  0.49619791257E+02  0.00000000000E+00 0.  1.
</event>
<event>
 4    1  0.1762646E+004  0.2356230E+02  0.7546771E-02  0.1485556E+00
         21   -1    0    0  501  502  0.00000000000E+00  0.00000000000E+00  0.34693224613E+01  0.34693224613E+01  0.00000000000E+00 0.  1.
         21   -1    0    0  502  503 -0.00000000000E+00 -0.00000000000E+00 -0.33721689384E+03  0.33721689384E+03  0.00000000000E+00 0. -1.
          2    1    1    2  501    0  0.49718682313E+01 -0.23031768307E+02 -0.43395499036E+02  0.49379663442E+02  0.00000000000E+00 0.  1.
         -2    1    1    2    0  503 -0.49718682313E+01  0.23031768307E+02 -0.29035207234E+03  0.29130655286E+03  0.00000000000E+00 0. -1.
</event>
<event>
 4    1  0.1762646E+004  0.2119842E+02  0.7546771E-02  0.1516451E+00
         21   -1    0    0  501  502  0.00000000000E+00  0.00000000000E+00  0.45943139234E+01  0.45943139234E+01  0.00000000000E+00 0. -1.
         21   -1    0    0  502  503 -0.00000000000E+00 -0.00000000000E+00 -0.20685304549E+03  0.20685304549E+03  0.00000000000E+00 0.  1.
          2    1    1    2  501    0 -0.18441663837E+02  0.10453605696E+02 -0.24368652816E+02  0.32298669898E+02  0.00000000000E+00 0. -1.
         -2    1    1    2    0  503  0.18441663837E+02 -0.10453605696E+02 -0.17789007875E+03  0.17914868951E+03  0.00000000000E+00 0.  1.
</event>
<event>
 4    1  0.1762646E+004  0.2446078E+02  0.7546771E-02  0.1474927E+00
         21   -1    0    0  501  502  0.00000000000E+00  0.00000000000E+00  0.15666904461E+02  0.15666904461E+02  0.00000000000E+00 0. -1.
         21   -1    0    0  502  503 -0.00000000000E+00 -0.00000000000E+00 -0.39523973820E+02  0.39523973820E+02  0.00000000000E+00 0.  1.
          2    1    1    2  501    0 -0.13876228019E+02 -0.20143988475E+02 -0.68601748828E+01  0.25404566029E+02  0.00000000000E+00 0.  1.
         -2    1    1    2    0  503  0.13876228019E+02  0.20143988475E+02 -0.16996894476E+02  0.29786312252E+02  0.00000000000E+00 0. -1.
</event>
<event>
 4    1  0.1762646E+004  0.2532356E+02  0.7546771E-02  0.1465216E+00
         21   -1    0    0  503  502  0.00000000000E+00  0.00000000000E+00  0.11148954942E+02  0.11148954942E+02  0.00000000000E+00 0.  1.
         21   -1    0    0  501  503 -0.00000000000E+00 -0.00000000000E+00 -0.75801907568E+02  0.75801907568E+02  0.00000000000E+00 0. -1.
          2    1    1    2  501    0  0.19522288208E+02 -0.16129561344E+02 -0.53677580558E+02  0.59351201678E+02  0.00000000000E+00 0. -1.
         -2    1    1    2    0  502 -0.19522288208E+02  0.16129561344E+02 -0.10975372067E+02  0.27599660832E+02  0.00000000000E+00 0.  1.
</event>
<event>
 4    1  0.1762646E+004  0.2061280E+02  0.7546771E-02  0.1524866E+00
         21   -1    0    0  501  502  0.00000000000E+00  0.00000000000E+00  0.25189132521E+02  0.25189132521E+02  0.00000000000E+00 0. -1.
         21   -1    0    0  502  503 -0.00000000000E+00 -0.00000000000E+00 -0.23760720959E+02  0.23760720959E+02  0.00000000000E+00 0.  1.
          2    1    1    2  501    0 -0.19367849211E+01  0.20521604801E+02  0.13896486443E+02  0.24859600458E+02  0.00000000000E+00 0. -1.
         -2    1    1    2    0  503  0.19367849211E+01 -0.20521604801E+02 -0.12468074882E+02  0.24090253023E+02  0.00000000000E+00 0.  1.
</event>
<event>
 4    1  0.1762646E+004  0.2544698E+02  0.7546771E-02  0.1463865E+00
         21   -1    0    0  501  502  0.00000000000E+00  0.00000000000E+00  0.39532567433E+02  0.39532567433E+02  0.00000000000E+00 0.  1.
         21   -1    0    0  502  503 -0.00000000000E+00 -0.00000000000E+00 -0.16383105941E+02  0.16383105941E+02  0.00000000000E+00 0. -1.
          2    1    1    2  501    0  0.13571029792E+02  0.21526165884E+02  0.11951418863E+02  0.28113788078E+02  0.00000000000E+00 0.  1.
         -2    1    1    2    0  503 -0.13571029792E+02 -0.21526165884E+02  0.11198042629E+02  0.27801885296E+02  0.00000000000E+00 0. -1.
</event>
<event>
 4    1  0.1762646E+004  0.2486901E+02  0.7546771E-02  0.1470274E+00
         21   -1    0    0  503  502  0.00000000000E+00  0.00000000000E+00  0.27294462503E+02  0.27294462503E+02  0.00000000000E+00 0.  1.
         21   -1    0    0  501  503 -0.00000000000E+00 -0.00000000000E+00 -0.25517572578E+02  0.25517572578E+02  0.00000000000E+00 0. -1.
          2    1    1    2  501    0  0.13633602704E+02  0.20798860788E+02 -0.79494912463E+01  0.26108660323E+02  0.00000000000E+00 0. -1.
         -2    1    1    2    0  502 -0.13633602704E+02 -0.20798860788E+02  0.97263811717E+01  0.26703374758E+02  0.00000000000E+00 0.  1.
</event>
<event>
 4    1  0.1762646E+004  0.3291807E+02  0.7546771E-02  0.1395822E+00
         21   -1    0    0  503  502  0.00000000000E+00  0.00000000000E+00  0.31780223635E+02  0.31780223635E+02  0.00000000000E+00 0. -1.
         21   -1    0    0  501  503 -0.00000000000E+00 -0.00000000000E+00 -0.60523938740E+02  0.60523938740E+02  0.00000000000E+00 0.  1.
          2    1    1    2  501    0 -0.31970535166E+02 -0.78411989072E+01 -0.44868632230E+02  0.55648842551E+02  0.00000000000E+00 0.  1.
         -2    1    1    2    0  502  0.31970535166E+02  0.78411989072E+01  0.16124917124E+02  0.36655319824E+02  0.00000000000E+00 0. -1.
</event>
<event>
 4    1  0.1762646E+004  0.2740320E+02  0.7546771E-02  0.1443599E+00
         21   -1    0    0  503  502  0.00000000000E+00  0.00000000000E+00  0.27315760551E+01  0.27315760551E+01  0.00000000000E+00 0. -1.
         21   -1    0    0  501  503 -0.00000000000E+00 -0.00000000000E+00 -0.29945305580E+03  0.29945305580E+03  0.00000000000E+00 0.  1.
          2    1    1    2  501    0 -0.25989630479E+02  0.86876107132E+01 -0.19161701569E+03  0.19356656781E+03  0.00000000000E+00 0.  1.
         -2    1    1    2    0  502  0.25989630479E+02 -0.86876107132E+01 -0.10510446406E+03  0.10861806405E+03  0.00000000000E+00 0. -1.
</event>
<event>
 4    1  0.1762646E+004  0.2784622E+02  0.7546771E-02  0.1439288E+00
         21   -1    0    0  501  502  0.00000000000E+00  0.00000000000E+00  0.20724174248E+02  0.20724174248E+02  0.00000000000E+00 0.  1.
         21   -1    0    0  502  503 -0.00000000000E+00 -0.00000000000E+00 -0.41357636544E+02  0.41357636544E+02  0.00000000000E+00 0. -1.
          2    1    1    2  501    0  0.24606144349E+02 -0.13036480362E+02 -0.19899791690E+02  0.34225923936E+02  0.00000000000E+00 0. -1.
         -2    1    1    2    0  503 -0.24606144349E+02  0.13036480362E+02 -0.73367060579E+00  0.27855886856E+02  0.00000000000E+00 0.  1.
</event>
<event>
 4    1  0.1762646E+004  0.2614430E+02  0.7546771E-02  0.1456398E+00
         21   -1    0    0  501  502  0.00000000000E+00  0.00000000000E+00  0.59331858888E+02  0.59331858888E+02  0.00000000000E+00 0. -1.
         21   -1    0    0  502  503 -0.00000000000E+00 -0.00000000000E+00 -0.13018354777E+02  0.13018354777E+02  0.00000000000E+00 0.  1.
          2    1    1    2  501    0  0.63076738226E+01 -0.25371980931E+02  0.10885540887E+02  0.28319942900E+02  0.00000000000E+00 0.  1.
         -2    1    1    2    0  503 -0.63076738226E+01  0.25371980931E+02  0.35427963224E+02  0.44030270765E+02  0.00000000000E+00 0. -1.
</event>
<event>
 4    1  0.1762646E+004  0.2495223E+02  0.7546771E-02  0.1469338E+00
         21   -1    0    0  501  502  0.00000000000E+00  0.00000000000E+00  0.10166230186E+02  0.10166230186E+02  0.00000000000E+00 0. -1.
         21   -1    0    0  502  503 -0.00000000000E+00 -0.00000000000E+00 -0.61614229591E+02  0.61614229591E+02  0.00000000000E+00 0.  1.
          2    1    1    2  501    0  0.22873707421E+02 -0.99703311191E+01 -0.28508531467E+02  0.37886018004E+02  0.00000000000E+00 0. -1.
         -2    1    1    2    0  503 -0.22873707421E+02  0.99703311191E+01 -0.22939467939E+02  0.33894441773E+02  0.00000000000E+00 0.  1.
</event>
<event>
 4    1  0.1762646E+004  0.2000565E+02  0.7546771E-02  0.1533949E+00
         21   -1    0    0  501  502  0.00000000000E+00  0.00000000000E+00  0.37150266327E+02  0.37150266327E+02  0.00000000000E+00 0.  1.
         21   -1    0    0  502  503 -0.00000000000E+00 -0.00000000000E+00 -0.10911311638E+03  0.10911311638E+03  0.00000000000E+00 0. -1.
          2    1    1    2  501    0 -0.19606973093E+02 -0.39739894492E+01  0.33446171381E+02  0.38972713096E+02  0.00000000000E+00 0.  1.
         -2    1    1    2    0  503  0.19606973093E+02  0.39739894492E+01 -0.10540902143E+03  0.10729066961E+03  0.00000000000E+00 0. -1.
</event>
<event>
 4    1  0.1762646E+004  0.2514869E+02  0.7546771E-02  0.1467147E+00
         21   -1    0    0  501  502  0.00000000000E+00  0.00000000000E+00  0.80371799664E+02  0.80371799664E+02  0.00000000000E+00 0. -1.
         21   -1    0    0  502  503 -0.00000000000E+00 -0.00000000000E+00 -0.24899800976E+02  0.24899800976E+02  0.00000000000E+00 0.  1.
          2    1    1    2  501    0 -0.21521959491E+02 -0.13010070071E+02  0.71267043960E+02  0.75574124001E+02  0.00000000000E+00 0. -1.
         -2    1    1    2    0  503  0.21521959491E+02  0.13010070071E+02 -0.15795045272E+02  0.29697476639E+02  0.00000000000E+00 0.  1.
</event>
<event>
 4    1  0.1762646E+004  0.2144022E+02  0.7546771E-02  0.1513071E+00
         21   -1    0    0  501  502  0.00000000000E+00  0.00000000000E+00  0.10425584147E+02  0.10425584147E+02  0.00000000000E+00 0.  1.
         21   -1    0    0  502  503 -0.00000000000E+00 -0.00000000000E+00 -0.60178822319E+02  0.60178822319E+02  0.00000000000E+00 0. -1.
          2    1    1    2  501    0  0.20890015416E+02  0.48260224696E+01 -0.66243359299E+01  0.22440255423E+02  0.00000000000E+00 0.  1.
         -2    1    1    2    0  503 -0.20890015416E+02 -0.48260224696E+01 -0.43128902243E+02  0.48164151042E+02  0.00000000000E+00 0. -1.
</event>
<event>
 4    1  0.1762646E+004  0.2552080E+02  0.7546771E-02  0.1463061E+00
         21   -1    0    0  503  502  0.00000000000E+00  0.00000000000E+00  0.12244432093E+02  0.12244432093E+02  0.00000000000E+00 0. -1.
         21   -1    0    0  501  503 -0.00000000000E+00 -0.00000000000E+00 -0.74313365716E+02  0.74313365716E+02  0.00000000000E+00 0.  1.
          2    1    1    2  501    0  0.22863698380E+02 -0.11338548290E+02 -0.54107201716E+02  0.59823913768E+02  0.00000000000E+00 0.  1.
         -2    1    1    2    0  502 -0.22863698380E+02  0.11338548290E+02 -0.79617319078E+01  0.26733884041E+02  0.00000000000E+00 0. -1.
</event>
<event>
 4    1  0.1762646E+004  0.3170605E+02  0.7546771E-02  0.1405328E+00
         21   -1    0    0  501  502  0.00000000000E+00  0.00000000000E+00  0.36907695181E+01  0.36907695181E+01  0.00000000000E+00 0.  1.
         21   -1    0    0  502  503 -0.00000000000E+00 -0.00000000000E+00 -0.29229399607E+03  0.29229399607E+03  0.00000000000E+00 0. -1.
          2    1    1    2  501    0 -0.28929016717E+02 -0.12976352557E+02 -0.18293493022E+03  0.18566222672E+03  0.00000000000E+00 0. -1.
         -2    1    1    2    0  503  0.28929016717E+02  0.12976352557E+02 -0.10566829632E+03  0.11032253887E+03  0.00000000000E+00 0.  1.
</event>
<event>
 4    1  0.1762646E+004  0.3260717E+02  0.7546771E-02  0.1398214E+00
         21   -1    0    0  503  502  0.00000000000E+00  0.00000000000E+00  0.19276344426E+02  0.19276344426E+02  0.00000000000E+00 0. -1.
         21   -1    0    0  501  503 -0.00000000000E+00 -0.00000000000E+00 -0.77174751761E+02  0.77174751761E+02  0.00000000000E+00 0.  1.
          2    1    1    2  501    0 -0.28658178259E+02 -0.15554310334E+02 -0.31904528362E+01  0.32762886631E+02  0.00000000000E+00 0. -1.
         -2    1    1    2    0  502  0.28658178259E+02  0.15554310334E+02 -0.54707954498E+02  0.63688209556E+02  0.00000000000E+00 0.  1.
</event>
<event>
 4    1  0.1762646E+004  0.3311616E+02  0.7546771E-02  0.1394314E+00
         21   -1    0    0  501  502  0.00000000000E+00  0.00000000000E+00  0.72420616633E+01  0.72420616633E+01  0.00000000000E+00 0. -1.
         21   -1    0    0  502  503 -0.00000000000E+00 -0.00000000000E+00 -0.15391309736E+03  0.15391309736E+03  0.00000000000E+00 0.  1.
          2    1    1    2  501    0 -0.32721776329E+02 -0.50956396034E+01 -0.63105070652E+02  0.71266613018E+02  0.00000000000E+00 0. -1.
         -2    1    1    2    0  503  0.32721776329E+02  0.50956396034E+01 -0.83565965047E+02  0.89888546008E+02  0.00000000000E+00 0.  1.
</event>
<event>
 4    1  0.1762646E+004  0.2385631E+02  0.7546771E-02  0.1482017E+00
         21   -1    0    0  501  502  0.00000000000E+00  0.00000000000E+00  0.24610669063E+03  0.24610669063E+03  0.00000000000E+00 0. -1.
         21   -1    0    0  502  503 -0.00000000000E+00 -0.00000000000E+00 -0.24407066412E+01  0.24407066412E+01  0.00000000000E+00 0.  1.
          2    1    1    2  501    0  0.97481557970E+01  0.21773762819E+02  0.15031469224E+03  0.15219602489E+03  0.00000000000E+00 0. -1.
         -2    1    1    2    0  503 -0.97481557970E+01 -0.21773762819E+02  0.93351291742E+02  0.96351372376E+02  0.00000000000E+00 0.  1.
</event>
<event>
 4    1  0.1762646E+004  0.2375338E+02  0.7546771E-02  0.1483249E+00
         21   -1    0    0  501  502  0.00000000000E+00  0.00000000000E+00  0.72952828239E+01  0.72952828239E+01  0.00000000000E+00 0.  1.
         21   -1    0    0  502  503 -0.00000000000E+00 -0.00000000000E+00 -0.11160050707E+03  0.11160050707E+03  0.00000000000E+00 0. -1.
          2    1    1    2  501    0  0.20491242433E+02 -0.12013819238E+02 -0.85090469284E+02  0.88343708504E+02  0.00000000000E+00 0. -1.
         -2    1    1    2    0  503 -0.20491242433E+02  0.12013819238E+02 -0.19214754967E+02  0.30552081395E+02  0.00000000000E+00 0.  1.
</event>
<event>
 4    1  0.1762646E+004  0.2966839E+02  0.7546771E-02  0.1422500E+00
         21   -1    0    0  503  502  0.00000000000E+00  0.00000000000E+00  0.54812470499E+01  0.54812470499E+01  0.00000000000E+00 0.  1.
         21   -1    0    0  501  503 -0.00000000000E+00 -0.00000000000E+00 -0.18149980375E+03  0.18149980375E+03  0.00000000000E+00 0. -1.
          2    1    1    2  501    0 -0.12687789175E+02  0.26818528872E+02 -0.56273997364E+02  0.63615849160E+02  0.00000000000E+00 0.  1.
         -2    1    1    2    0  502  0.12687789175E+02 -0.26818528872E+02 -0.11974455933E+03  0.12336520164E+03  0.00000000000E+00 0. -1.
</event>
<event>
 4    1  0.1762646E+004  0.2268237E+02  0.7546771E-02  0.1496526E+00
         21   -1    0    0  501  502  0.00000000000E+00  0.00000000000E+00  0.10400615749E+03  0.10400615749E+03  0.00000000000E+00 0.  1.
         21   -1    0    0  502  503 -0.00000000000E+00 -0.00000000000E+00 -0.52236740989E+02  0.52236740989E+02  0.00000000000E+00 0. -1.
          2    1    1    2  501    0 -0.21012860636E+02  0.85410430037E+01  0.10021519738E+03  0.10275006333E+03  0.00000000000E+00 0.  1.
         -2    1    1    2    0  503  0.21012860636E+02 -0.85410430037E+01 -0.48445780879E+02  0.53492835152E+02  0.00000000000E+00 0. -1.
</event>
<event>
 4    1  0.1762646E+004  0.3316460E+02  0.7546771E-02  0.1393947E+00
         21   -1    0    0  503  502  0.00000000000E+00  0.00000000000E+00  0.60415885864E+02  0.60415885864E+02  0.00000000000E+00 0. -1.
         21   -1    0    0  501  503 -0.00000000000E+00 -0.00000000000E+00 -0.63265108419E+02  0.63265108419E+02  0.00000000000E+00 0.  1.
          2    1    1    2  501    0 -0.30144519133E+02  0.13827459670E+02 -0.53614384157E+02  0.63042785973E+02  0.00000000000E+00 0.  1.
         -2    1    1    2    0  502  0.30144519133E+02 -0.13827459670E+02  0.50765161601E+02  0.60638208310E+02  0.00000000000E+00 0. -1.
</event>
<event>
 4    1  0.1762646E+004  0.4669898E+02  0.7546771E-02  0.1313156E+00
         21   -1    0    0  501  502  0.00000000000E+00  0.00000000000E+00  0.11973948760E+04  0.11973948760E+04  0.00000000000E+00 0. -1.
         21   -1    0    0  502  503 -0.00000000000E+00 -0.00000000000E+00 -0.18213308703E+01  0.18213308703E+01  0.00000000000E+00 0.  1.
          2    1    1    2  501    0 -0.34734623777E+02  0.31213790992E+02  0.59471021056E+03  0.59654088659E+03  0.00000000000E+00 0. -1.
         -2    1    1    2    0  503  0.34734623777E+02 -0.31213790992E+02  0.60086333461E+03  0.60267532032E+03  0.00000000000E+00 0.  1.
</event>
<event>
 4    1  0.1762646E+004  0.3616617E+02  0.7546771E-02  0.1372545E+00
         21   -1    0    0  501  502  0.00000000000E+00  0.00000000000E+00  0.77349991951E+02  0.77349991951E+02  0.00000000000E+00 0. -1.
         21   -1    0    0  502  503 -0.00000000000E+00 -0.00000000000E+00 -0.17566859226E+02  0.17566859226E+02  0.00000000000E+00 0.  1.
          2    1    1    2  501    0  0.32277107937E+02  0.16315029722E+02  0.20714849323E+02  0.41678494143E+02  0.00000000000E+00 0.  1.
         -2    1    1    2    0  503 -0.32277107937E+02 -0.16315029722E+02  0.39068283402E+02  0.53238357033E+02  0.00000000000E+00 0. -1.
</event>
<event>
 4    1  0.1762646E+004  0.8500563E+02  0.7546771E-02  0.1192680E+00
         21   -1    0    0  503  502  0.00000000000E+00  0.00000000000E+00  0.10693606605E+03  0.10693606605E+03  0.00000000000E+00 0.  1.
         21   -1    0    0  501  503 -0.00000000000E+00 -0.00000000000E+00 -0.68951480531E+02  0.68951480531E+02  0.00000000000E+00 0. -1.
          2    1    1    2  501    0 -0.32212599205E+00 -0.85005023631E+02  0.65562502566E+01  0.85258091845E+02  0.00000000000E+00 0. -1.
         -2    1    1    2    0  502  0.32212599205E+00  0.85005023631E+02  0.31428335258E+02  0.90629454731E+02  0.00000000000E+00 0.  1.
</event>
<event>
 4    1  0.1762646E+004  0.2078474E+02  0.7546771E-02  0.1522361E+00
         21   -1    0    0  503  502  0.00000000000E+00  0.00000000000E+00  0.17997522564E+02  0.17997522564E+02  0.00000000000E+00 0.  1.
         21   -1    0    0  501  503 -0.00000000000E+00 -0.00000000000E+00 -0.26493034719E+02  0.26493034719E+02  0.00000000000E+00 0. -1.
          2    1    1    2  501    0 -0.16742429381E+02  0.12316507726E+02 -0.11066784567E+02  0.23547378299E+02  0.00000000000E+00 0. -1.
         -2    1    1    2    0  502  0.16742429381E+02 -0.12316507726E+02  0.25712724120E+01  0.20943178984E+02  0.00000000000E+00 0.  1.
</event>
<event>
 4    1  0.1762646E+004  0.2426840E+02  0.7546771E-02  0.1477157E+00
         21   -1    0    0  503  502  0.00000000000E+00  0.00000000000E+00  0.79645045343E+00  0.79645045343E+00  0.00000000000E+00 0. -1.
         21   -1    0    0  501  503 -0.00000000000E+00 -0.00000000000E+00 -0.10838048234E+04  0.10838048234E+04  0.00000000000E+00 0.  1.
          2    1    1    2  501    0 -0.63586986143E+01 -0.23420548907E+02 -0.84717355961E+03  0.84752108839E+03  0.00000000000E+00 0.  1.
         -2    1    1    2    0  502  0.63586986143E+01  0.23420548907E+02 -0.23583481338E+03  0.23708018551E+03  0.00000000000E+00 0. -1.
</event>
<event>
 4    1  0.1762646E+004  0.3031195E+02  0.7546771E-02  0.1416905E+00
         21   -1    0    0  503  502  0.00000000000E+00  0.00000000000E+00  0.44224667146E+01  0.44224667146E+01  0.00000000000E+00 0. -1.
         21   -1    0    0  501  503 -0.00000000000E+00 -0.00000000000E+00 -0.26539702473E+03  0.26539702473E+03  0.00000000000E+00 0.  1.
          2    1    1    2  501    0 -0.12282697904E+02 -0.27711900367E+02 -0.19335736103E+03  0.19571888809E+03  0.00000000000E+00 0.  1.
         -2    1    1    2    0  502  0.12282697904E+02  0.27711900367E+02 -0.67617196987E+02  0.74100603359E+02  0.00000000000E+00 0. -1.
</event>
<event>
 4    1  0.1762646E+004  0.2579664E+02  0.7546771E-02  0.1460085E+00
         21   -1    0    0  501  502  0.00000000000E+00  0.00000000000E+00  0.60561488141E+02  0.60561488141E+02  0.00000000000E+00 0.  1.
         21   -1    0    0  502  503 -0.00000000000E+00 -0.00000000000E+00 -0.14406271334E+02  0.14406271334E+02  0.00000000000E+00 0. -1.
          2    1    1    2  501    0  0.13472410467E+02 -0.21999108903E+02  0.41335649052E+02  0.48724762892E+02  0.00000000000E+00 0.  1.
         -2    1    1    2    0  503 -0.13472410467E+02  0.21999108903E+02  0.48195677551E+01  0.26242996583E+02  0.00000000000E+00 0. -1.
</event>
<event>
 4    1  0.1762646E+004  0.3058471E+02  0.7546771E-02  0.1414582E+00
         21   -1    0    0  503  502  0.00000000000E+00  0.00000000000E+00  0.62665585315E+02  0.62665585315E+02  0.00000000000E+00 0. -1.
         21   -1    0    0  501  503 -0.00000000000E+00 -0.00000000000E+00 -0.15041898143E+02  0.15041898143E+02  0.00000000000E+00 0.  1.
          2    1    1    2  501    0  0.25755821476E+02  0.16494307675E+02  0.20419693199E+02  0.36774833731E+02  0.00000000000E+00 0.  1.
         -2    1    1    2    0  502 -0.25755821476E+02 -0.16494307675E+02  0.27203993973E+02  0.40932649727E+02  0.00000000000E+00 0. -1.
</event>
<event>
 4    1  0.1762646E+004  0.3064991E+02  0.7546771E-02  0.1414031E+00
         21   -1    0    0  501  502  0.00000000000E+00  0.00000000000E+00  0.52038951051E+03  0.52038951051E+03  0.00000000000E+00 0.  1.
         21   -1    0    0  502  503 -0.00000000000E+00 -0.00000000000E+00 -0.23062066386E+01  0.23062066386E+01  0.00000000000E+00 0. -1.
          2    1    1    2  501    0 -0.29958730135E+02 -0.64723773868E+01  0.13723157477E+03  0.14061266762E+03  0.00000000000E+00 0. -1.
         -2    1    1    2    0  503  0.29958730135E+02  0.64723773868E+01  0.38085172910E+03  0.38208304953E+03  0.00000000000E+00 0.  1.
</event>
<event>
 4    1  0.1762646E+004  0.2581845E+02  0.7546771E-02  0.1459852E+00
         21   -1    0    0  503  502  0.00000000000E+00  0.00000000000E+00  0.32665574670E+02  0.32665574670E+02  0.00000000000E+00 0. -1.
         21   -1    0    0  501  503 -0.00000000000E+00 -0.00000000000E+00 -0.26810992007E+02  0.26810992007E+02  0.00000000000E+00 0.  1.
          2    1    1    2  501    0 -0.25716885024E+02 -0.22878225339E+01 -0.11607187170E+02  0.28307580280E+02  0.00000000000E+00 0.  1.
         -2    1    1    2    0  502  0.25716885024E+02  0.22878225339E+01  0.17461769832E+02  0.31168986397E+02  0.00000000000E+00 0. -1.
</event>
<event>
 4    1  0.1762646E+004  0.2005048E+02  0.7546771E-02  0.1533265E+00
         21   -1    0    0  501  502  0.00000000000E+00  0.00000000000E+00  0.70543101310E+01  0.70543101310E+01  0.00000000000E+00 0.  1.
         21   -1    0    0  502  503 -0.00000000000E+00 -0.00000000000E+00 -0.58926957385E+02  0.58926957385E+02  0.00000000000E+00 0. -1.
          2    1    1    2  501    0 -0.14393433545E+02 -0.13958903388E+02 -0.31918302443E+02  0.37693500022E+02  0.00000000000E+00 0. -1.
         -2    1    1    2    0  503  0.14393433545E+02  0.13958903388E+02 -0.19954344810E+02  0.28287767494E+02  0.00000000000E+00 0.  1.
</event>
<event>
 4    1  0.1762646E+004  0.2675194E+02  0.7546771E-02  0.1450116E+00
         21   -1    0    0  503  502  0.00000000000E+00  0.00000000000E+00  0.39206006626E+01  0.39206006626E+01  0.00000000000E+00 0. -1.
         21   -1    0    0  501  503 -0.00000000000E+00 -0.00000000000E+00 -0.26163126059E+03  0.26163126059E+03  0.00000000000E+00 0.  1.
          2    1    1    2  501    0 -0.25336940257E+02 -0.85852154340E+01 -0.20185800454E+03  0.20362298608E+03  0.00000000000E+00 0.  1.
         -2    1    1    2    0  502  0.25336940257E+02  0.85852154340E+01 -0.55852655391E+02  0.61928875170E+02  0.00000000000E+00 0. -1.
</event>
<event>
 4    1  0.1762646E+004  0.2345424E+02  0.7546771E-02  0.1486872E+00
         21   -1    0    0  501  502  0.00000000000E+00  0.00000000000E+00  0.12713505464E+03  0.12713505464E+03  0.00000000000E+00 0.  1.
         21   -1    0    0  502  503 -0.00000000000E+00 -0.00000000000E+00 -0.90595901615E+01  0.90595901615E+01  0.00000000000E+00 0. -1.
          2    1    1    2  501    0  0.20969783894E+02  0.10505685172E+02  0.10825636936E+03  0.11076796813E+03  0.00000000000E+00 0.  1.
         -2    1    1    2    0  503 -0.20969783894E+02 -0.10505685172E+02  0.98190951213E+01  0.25426676670E+02  0.00000000000E+00 0. -1.
</event>
<event>
 4    1  0.1762646E+004  0.2879314E+02  0.7546771E-02  0.1430382E+00
         21   -1    0    0  503  502  0.00000000000E+00  0.00000000000E+00  0.44830444015E+02  0.44830444015E+02  0.00000000000E+00 0.  1.
         21   -1    0    0  501  503 -0.00000000000E+00 -0.00000000000E+00 -0.22282095155E+02  0.22282095155E+02  0.00000000000E+00 0. -1.
          2    1    1    2  501    0 -0.28555142539E+02 -0.36944590172E+01 -0.25636812845E+01  0.28907051988E+02  0.00000000000E+00 0. -1.
         -2    1    1    2    0  502  0.28555142539E+02  0.36944590172E+01  0.25112030145E+02  0.38205487183E+02  0.00000000000E+00 0.  1.
</event>
<event>
 4    1  0.1762646E+004  0.2181406E+02  0.7546771E-02  0.1507952E+00
         21   -1    0    0  501  502  0.00000000000E+00  0.00000000000E+00  0.34941587714E+02  0.34941587714E+02  0.00000000000E+00 0.  1.
         21   -1    0    0  502  503 -0.00000000000E+00 -0.00000000000E+00 -0.30652520098E+02  0.30652520098E+02  0.00000000000E+00 0. -1.
          2    1    1    2  501    0 -0.21803449124E+02  0.68042378276E+00  0.26593461886E+02  0.34395720450E+02  0.00000000000E+00 0.  1.
         -2    1    1    2    0  503  0.21803449124E+02 -0.68042378276E+00 -0.22304394270E+02  0.31198387361E+02  0.00000000000E+00 0. -1.
</event>
<event>
 4    1  0.1762646E+004  0.3367755E+02  0.7546771E-02  0.1390106E+00
         21   -1    0    0  503  502  0.00000000000E+00  0.00000000000E+00  0.17088768649E+02  0.17088768649E+02  0.00000000000E+00 0. -1.
         21   -1    0    0  501  503 -0.00000000000E+00 -0.00000000000E+00 -0.40368068541E+03  0.40368068541E+03  0.00000000000E+00 0.  1.
          2    1    1    2  501    0 -0.33646855388E+02  0.14375519525E+01 -0.38560974943E+03  0.38707758433E+03  0.00000000000E+00 0.  1.
         -2    1    1    2    0  502  0.33646855388E+02 -0.14375519525E+01 -0.98216732633E+00  0.33691869728E+02  0.00000000000E+00 0. -1.
</event>
<event>
 4    1  0.1762646E+004  0.2011413E+02  0.7546771E-02  0.1532298E+00
         21   -1    0    0  503  502  0.00000000000E+00  0.00000000000E+00  0.16720346354E+02  0.16720346354E+02  0.00000000000E+00 0.  1.
         21   -1    0    0  501  503 -0.00000000000E+00 -0.00000000000E+00 -0.16419933393E+03  0.16419933393E+03  0.00000000000E+00 0. -1.
          2    1    1    2  501    0  0.11212512881E+02  0.16699039998E+02 -0.15726865385E+03  0.15854970157E+03  0.00000000000E+00 0. -1.
         -2    1    1    2    0  502 -0.11212512881E+02 -0.16699039998E+02  0.97896662779E+01  0.22369978717E+02  0.00000000000E+00 0.  1.
</event>
<event>
 4    1  0.1762646E+004  0.2519235E+02  0.7546771E-02  0.1466663E+00
         21   -1    0    0  503  502  0.00000000000E+00  0.00000000000E+00  0.24493152175E+01  0.24493152175E+01  0.00000000000E+00 0.  1.
         21   -1    0    0  501  503 -0.00000000000E+00 -0.00000000000E+00 -0.30525228668E+03  0.30525228668E+03  0.00000000000E+00 0. -1.
          2    1    1    2  501    0 -0.24092374621E+02 -0.73628741978E+01 -0.91588415507E+02  0.94989958872E+02  0.00000000000E+00 0.  1.
         -2    1    1    2    0  502  0.24092374621E+02  0.73628741978E+01 -0.21121455595E+03  0.21271164302E+03  0.00000000000E+00 0. -1.
</event>
<event>
 4    1  0.1762646E+004  0.5090314E+02  0.7546771E-02  0.1294304E+00
         21   -1    0    0  503  502  0.00000000000E+00  0.00000000000E+00  0.95610912435E+03  0.95610912435E+03  0.00000000000E+00 0. -1.
         21   -1    0    0  501  503 -0.00000000000E+00 -0.00000000000E+00 -0.86681303982E+01  0.86681303982E+01  0.00000000000E+00 0.  1.
          2    1    1    2  501    0 -0.50404649105E+02 -0.71063927202E+01  0.73788148450E+02  0.89642737132E+02  0.00000000000E+00 0.  1.
         -2    1    1    2    0  502  0.50404649105E+02  0.71063927202E+01  0.87365284550E+03  0.87513451761E+03  0.00000000000E+00 0. -1.
</event>
<event>
 4    1  0.1762646E+004  0.3056259E+02  0.7546771E-02  0.1414769E+00
         21   -1    0    0  503  502  0.00000000000E+00  0.00000000000E+00  0.38543807272E+01  0.38543807272E+01  0.00000000000E+00 0.  1.
         21   -1    0    0  501  503 -0.00000000000E+00 -0.00000000000E+00 -0.26293411745E+03  0.26293411745E+03  0.00000000000E+00 0. -1.
          2    1    1    2  501    0 -0.20360582162E+02  0.22792954674E+02 -0.16687186558E+03  0.16964755115E+03  0.00000000000E+00 0. -1.
         -2    1    1    2    0  502  0.20360582162E+02 -0.22792954674E+02 -0.92207871135E+02  0.97140947021E+02  0.00000000000E+00 0.  1.
</event>
<event>
 4    1  0.1762646E+004  0.2262354E+02  0.7546771E-02  0.1497280E+00
         21   -1    0    0  501  502  0.00000000000E+00  0.00000000000E+00  0.65570224848E+02  0.65570224848E+02  0.00000000000E+00 0. -1.
         21   -1    0    0  502  503 -0.00000000000E+00 -0.00000000000E+00 -0.28884009648E+02  0.28884009648E+02  0.00000000000E+00 0.  1.
          2    1    1    2  501    0  0.16218970386E+02  0.15772437513E+02  0.58687211240E+02  0.62896848479E+02  0.00000000000E+00 0. -1.
         -2    1    1    2    0  503 -0.16218970386E+02 -0.15772437513E+02 -0.22000996039E+02  0.31557386017E+02  0.00000000000E+00 0.  1.
</event>
<event>
 4    1  0.1762646E+004  0.2228234E+02  0.7546771E-02  0.1501712E+00
         21   -1    0    0  501  502  0.00000000000E+00  0.00000000000E+00  0.15653931538E+02  0.15653931538E+02  0.00000000000E+00 0. -1.
         21   -1    0    0  502  503 -0.00000000000E+00 -0.00000000000E+00 -0.69227774975E+02  0.69227774975E+02  0.00000000000E+00 0.  1.
          2    1    1    2  501    0 -0.10935029186E+02 -0.19414624210E+02  0.44536837435E+01  0.22723067474E+02  0.00000000000E+00 0. -1.
         -2    1    1    2    0  503  0.10935029186E+02  0.19414624210E+02 -0.58027527180E+02  0.62158639039E+02  0.00000000000E+00 0.  1.
</event>
<event>
 4    1  0.1762646E+004  0.2018158E+02  0.7546771E-02  0.1531278E+00
         21   -1    0    0  501  502  0.00000000000E+00  0.00000000000E+00  0.59462420167E+02  0.59462420167E+02  0.00000000000E+00 0.  1.
         21   -1    0    0  502  503 -0.00000000000E+00 -0.00000000000E+00 -0.10157821039E+02  0.10157821039E+02  0.00000000000E+00 0. -1.
          2    1    1    2  501    0 -0.10952451429E+02  0.16951100353E+02  0.44517825981E+02  0.48878756383E+02  0.00000000000E+00 0.  1.
         -2    1    1    2    0  503  0.10952451429E+02 -0.16951100353E+02  0.47867731467E+01  0.20741484822E+02  0.00000000000E+00 0. -1.
</event>
<event>
 4    1  0.1762646E+004  0.2330517E+02  0.7546771E-02  0.1488701E+00
         21   -1    0    0  503  502  0.00000000000E+00  0.00000000000E+00  0.16595511214E+02  0.16595511214E+02  0.00000000000E+00 0. -1.
         21   -1    0    0  501  503 -0.00000000000E+00 -0.00000000000E+00 -0.32847266828E+02  0.32847266828E+02  0.00000000000E+00 0.  1.
          2    1    1    2  501    0 -0.17922339791E+02  0.14897008223E+02 -0.66336850511E+01  0.24230907844E+02  0.00000000000E+00 0.  1.
         -2    1    1    2    0  502  0.17922339791E+02 -0.14897008223E+02 -0.96180705631E+01  0.25211870199E+02  0.00000000000E+00 0. -1.
</event>
<event>
 4    1  0.1762646E+004  0.2568316E+02  0.7546771E-02  0.1461304E+00
         21   -1    0    0  503  502  0.00000000000E+00  0.00000000000E+00  0.18805517220E+03  0.18805517220E+03  0.00000000000E+00 0.  1.
         21   -1    0    0  501  503 -0.00000000000E+00 -0.00000000000E+00 -0.11504461444E+02  0.11504461444E+02  0.00000000000E+00 0. -1.
          2    1    1    2  501    0 -0.20359526247E+02  0.15656137825E+02  0.50857698507E+01  0.26181864249E+02  0.00000000000E+00 0. -1.
         -2    1    1    2    0  502  0.20359526247E+02 -0.15656137825E+02  0.17146494090E+03  0.17337776939E+03  0.00000000000E+00 0.  1.
</event>
<event>
 4    1  0.1762646E+004  0.2288450E+02  0.7546771E-02  0.1493954E+00
         21   -1    0    0  501  502  0.00000000000E+00  0.00000000000E+00  0.18884268214E+02  0.18884268214E+02  0.00000000000E+00 0.  1.
         21   -1    0    0  502  503 -0.00000000000E+00 -0.00000000000E+00 -0.43610785984E+02  0.43610785984E+02  0.00000000000E+00 0. -1.
          2    1    1    2  501    0 -0.50648458920E+01  0.22316985085E+02  0.64917145091E+01  0.23787451408E+02  0.00000000000E+00 0.  1.
         -2    1    1    2    0  503  0.50648458920E+01 -0.22316985085E+02 -0.31218232279E+02  0.38707602791E+02  0.00000000000E+00 0. -1.
</event>
<event>
 4    1  0.1762646E+004  0.3357699E+02  0.7546771E-02  0.1390853E+00
         21   -1    0    0  503  502  0.00000000000E+00  0.00000000000E+00  0.26823331474E+02  0.26823331474E+02  0.00000000000E+00 0. -1.
         21   -1    0    0  501  503 -0.00000000000E+00 -0.00000000000E+00 -0.64760726465E+02  0.64760726465E+02  0.00000000000E+00 0.  1.
          2    1    1    2  501    0 -0.24893673960E+02 -0.22532620590E+02 -0.46097475255E+02  0.57029739775E+02  0.00000000000E+00 0.  1.
         -2    1    1    2    0  502  0.24893673960E+02  0.22532620590E+02  0.81600802642E+01  0.34554318164E+02  0.00000000000E+00 0. -1.
</event>
<event>
 4    1  0.1762646E+004  0.2600099E+02  0.7546771E-02  0.1457910E+00
         21   -1    0    0  501  502  0.00000000000E+00  0.00000000000E+00  0.18883074953E+04  0.18883074953E+04  0.00000000000E+00 0. -1.
         21   -1    0    0  502  503 -0.00000000000E+00 -0.00000000000E+00 -0.48819992413E+00  0.48819992413E+00  0.00000000000E+00 0.  1.
          2    1    1    2  501    0 -0.25457457379E+02  0.52886074502E+01  0.14315823497E+04  0.14318184506E+04  0.00000000000E+00 0. -1.
         -2    1    1    2    0  503  0.25457457379E+02 -0.52886074502E+01  0.45623694570E+03  0.45697724465E+03  0.00000000000E+00 0.  1.
</event>
<event>
 4    1  0.1762646E+004  0.2155083E+02  0.7546771E-02  0.1511544E+00
         21   -1    0    0  503  502  0.00000000000E+00  0.00000000000E+00  0.99755423129E+02  0.99755423129E+02  0.00000000000E+00 0. -1.
         21   -1    0    0  501  503 -0.00000000000E+00 -0.00000000000E+00 -0.21540890647E+02  0.21540890647E+02  0.00000000000E+00 0.  1.
          2    1    1    2  501    0  0.13404080678E+02 -0.16875101727E+02 -0.14588228254E+02  0.26024120364E+02  0.00000000000E+00 0.  1.
         -2    1    1    2    0  502 -0.13404080678E+02  0.16875101727E+02  0.92802760737E+02  0.95272193412E+02  0.00000000000E+00 0. -1.
</event>
<event>
 4    1  0.1762646E+004  0.3082503E+02  0.7546771E-02  0.1412560E+00
         21   -1    0    0  503  502  0.00000000000E+00  0.00000000000E+00  0.98974670791E+03  0.98974670791E+03  0.00000000000E+00 0.  1.
         21   -1    0    0  501  503 -0.00000000000E+00 -0.00000000000E+00 -0.14520448238E+01  0.14520448238E+01  0.00000000000E+00 0. -1.
          2    1    1    2  501    0  0.29839187846E+02  0.77333931583E+01  0.20565675540E+03  0.20795404190E+03  0.00000000000E+00 0. -1.
         -2    1    1    2    0  502 -0.29839187846E+02 -0.77333931583E+01  0.78263790769E+03  0.78324471083E+03  0.00000000000E+00 0.  1.
</event>
<event>
 4    1  0.1762646E+004  0.3359967E+02  0.7546771E-02  0.1390684E+00
         21   -1    0    0  501  502  0.00000000000E+00  0.00000000000E+00  0.40846508663E+03  0.40846508663E+03  0.00000000000E+00 0. -1.
         21   -1    0    0  502  503 -0.00000000000E+00 -0.00000000000E+00 -0.60101389803E+01  0.60101389803E+01  0.00000000000E+00 0.  1.
          2    1    1    2  501    0  0.31917978971E+02  0.10496680978E+02  0.35353440675E+03  0.35512746226E+03  0.00000000000E+00 0. -1.
         -2    1    1    2    0  503 -0.31917978971E+02 -0.10496680978E+02  0.48920540902E+02  0.59347763356E+02  0.00000000000E+00 0.  1.
</event>
<event>
 4    1  0.1762646E+004  0.3348948E+02  0.7546771E-02  0.1391505E+00
         21   -1    0    0  503  502  0.00000000000E+00  0.00000000000E+00  0.12804589244E+04  0.12804589244E+04  0.00000000000E+00 0.  1.
         21   -1    0    0  501  503 -0.00000000000E+00 -0.00000000000E+00 -0.88501882965E+00  0.88501882965E+00  0.00000000000E+00 0. -1.
          2    1    1    2  501    0  0.33386721627E+02 -0.26214314444E+01  0.70484398550E+03  0.70563913510E+03  0.00000000000E+00 0. -1.
         -2    1    1    2    0  502 -0.33386721627E+02  0.26214314444E+01  0.57472992005E+03  0.57570480811E+03  0.00000000000E+00 0.  1.
</event>
<event>
 4    1  0.1762646E+004  0.2287658E+02  0.7546771E-02  0.1494054E+00
         21   -1    0    0  503  502  0.00000000000E+00  0.00000000000E+00  0.35562765804E+01  0.35562765804E+01  0.00000000000E+00 0. -1.
         21   -1    0    0  501  503 -0.00000000000E+00 -0.00000000000E+00 -0.19858463316E+03  0.19858463316E+03  0.00000000000E+00 0.  1.
          2    1    1    2  501    0  0.13874626273E+02  0.18188800356E+02 -0.46081197943E+02  0.51447201251E+02  0.00000000000E+00 0. -1.
         -2    1    1    2    0  502 -0.13874626273E+02 -0.18188800356E+02 -0.14894715864E+03  0.15069370849E+03  0.00000000000E+00 0.  1.
</event>
<event>
 4    1  0.1762646E+004  0.2926272E+02  0.7546771E-02  0.1426113E+00
         21   -1    0    0  501  502  0.00000000000E+00  0.00000000000E+00  0.15385096616E+03  0.15385096616E+03  0.00000000000E+00 0. -1.
         21   -1    0    0  502  503 -0.00000000000E+00 -0.00000000000E+00 -0.56320106429E+01  0.56320106429E+01  0.00000000000E+00 0.  1.
          2    1    1    2  501    0  0.23447074815E+02 -0.17508321702E+02  0.82754255897E+02  0.87775700028E+02  0.00000000000E+00 0.  1.
         -2    1    1    2    0  503 -0.23447074815E+02  0.17508321702E+02  0.65464699621E+02  0.71707276776E+02  0.00000000000E+00 0. -1.
</event>
<event>
 4    1  0.1762646E+004  0.3400715E+02  0.7546771E-02  0.1387681E+00
         21   -1    0    0  501  502  0.00000000000E+00  0.00000000000E+00  0.37109370584E+01  0.37109370584E+01  0.00000000000E+00 0.  1.
         21   -1    0    0  502  503 -0.00000000000E+00 -0.00000000000E+00 -0.43812881201E+03  0.43812881201E+03  0.00000000000E+00 0. -1.
          2    1    1    2  501    0  0.29144375648E+02 -0.17524038586E+02 -0.98507699354E+02  0.10421253952E+03  0.00000000000E+00 0.  1.
         -2    1    1    2    0  503 -0.29144375648E+02  0.17524038586E+02 -0.33591017560E+03  0.33762720956E+03  0.00000000000E+00 0. -1.
</event>
<event>
 4    1  0.1762646E+004  0.2187577E+02  0.7546771E-02  0.1507119E+00
         21   -1    0    0  503  502  0.00000000000E+00  0.00000000000E+00  0.42071043155E+01  0.42071043155E+01  0.00000000000E+00 0. -1.
         21   -1    0    0  501  503 -0.00000000000E+00 -0.00000000000E+00 -0.17352184385E+03  0.17352184385E+03  0.00000000000E+00 0.  1.
          2    1    1    2  501    0  0.11610576088E+02 -0.18540325992E+02 -0.13681371531E+03  0.13855158556E+03  0.00000000000E+00 0.  1.
         -2    1    1    2    0  502 -0.11610576088E+02  0.18540325992E+02 -0.32501024231E+02  0.39177362610E+02  0.00000000000E+00 0. -1.
</event>
<event>
 4    1  0.1762646E+004  0.2032933E+02  0.7546771E-02  0.1529059E+00
         21   -1    0    0  501  502  0.00000000000E+00  0.00000000000E+00  0.75081916649E+01  0.75081916649E+01  0.00000000000E+00 0. -1.
         21   -1    0    0  502  503 -0.00000000000E+00 -0.00000000000E+00 -0.72617433667E+02  0.72617433667E+02  0.00000000000E+00 0.  1.
          2    1    1    2  501    0 -0.21150267774E+01  0.20219008821E+02 -0.12846371107E+02  0.24048095696E+02  0.00000000000E+00 0. -1.
         -2    1    1    2    0  503  0.21150267774E+01 -0.20219008821E+02 -0.52262870895E+02  0.56077529636E+02  0.00000000000E+00 0.  1.
</event>
<event>
 4    1  0.1762646E+004  0.4124081E+02  0.7546771E-02  0.1341364E+00
         21   -1    0    0  501  502  0.00000000000E+00  0.00000000000E+00  0.68010364599E+03  0.68010364599E+03  0.00000000000E+00 0. -1.
         21   -1    0    0  502  503 -0.00000000000E+00 -0.00000000000E+00 -0.49364773086E+01  0.49364773086E+01  0.00000000000E+00 0.  1.
          2    1    1    2  501    0  0.34794357179E+02  0.22139488397E+02  0.57817890679E+03  0.57964786940E+03  0.00000000000E+00 0. -1.
         -2    1    1    2    0  503 -0.34794357179E+02 -0.22139488397E+02  0.96988261888E+02  0.10539225390E+03  0.00000000000E+00 0.  1.
</event>
<event>
 4    1  0.1762646E+004  0.2107963E+02  0.7546771E-02  0.1518131E+00
         21   -1    0    0  503  502  0.00000000000E+00  0.00000000000E+00  0.54875523471E+03  0.54875523471E+03  0.00000000000E+00 0. -1.
         21   -1    0    0  501  503 -0.00000000000E+00 -0.00000000000E+00 -0.36013557258E+01  0.36013557258E+01  0.00000000000E+00 0.  1.
          2    1    1    2  501    0 -0.20696357057E+02 -0.40014731115E+01  0.29421449256E+02  0.36193544436E+02  0.00000000000E+00 0.  1.
         -2    1    1    2    0  502  0.20696357057E+02  0.40014731115E+01  0.51573242972E+03  0.51616304600E+03  0.00000000000E+00 0. -1.
</event>
<event>
 4    1  0.1762646E+004  0.2291586E+02  0.7546771E-02  0.1493557E+00
         21   -1    0    0  501  502  0.00000000000E+00  0.00000000000E+00  0.92759969865E+02  0.92759969865E+02  0.00000000000E+00 0.  1.
         21   -1    0    0  502  503 -0.00000000000E+00 -0.00000000000E+00 -0.13406428847E+02  0.13406428847E+02  0.00000000000E+00 0. -1.
          2    1    1    2  501    0 -0.61240423630E+00  0.22907673378E+02  0.80024259882E+02  0.83240727460E+02  0.00000000000E+00 0.  1.
         -2    1    1    2    0  503  0.61240423630E+00 -0.22907673378E+02 -0.67071886430E+00  0.22925671252E+02  0.00000000000E+00 0. -1.
</event>
<event>
 4    1  0.1762646E+004  0.2827878E+02  0.7546771E-02  0.1435169E+00
         21   -1    0    0  501  502  0.00000000000E+00  0.00000000000E+00  0.32090515855E+02  0.32090515855E+02  0.00000000000E+00 0.  1.
         21   -1    0    0  502  503 -0.00000000000E+00 -0.00000000000E+00 -0.13779592796E+03  0.13779592796E+03  0.00000000000E+00 0. -1.
          2    1    1    2  501    0 -0.19596234117E+02  0.20388152171E+02  0.24026978959E+02  0.37107746609E+02  0.00000000000E+00 0.  1.
         -2    1    1    2    0  503  0.19596234117E+02 -0.20388152171E+02 -0.12973239106E+03  0.13277869720E+03  0.00000000000E+00 0. -1.
</event>
<event>
 4    1  0.1762646E+004  0.2299297E+02  0.7546771E-02  0.1492586E+00
         21   -1    0    0  503  502  0.00000000000E+00  0.00000000000E+00  0.49089897263E+02  0.49089897263E+02  0.00000000000E+00 0. -1.
         21   -1    0    0  501  503 -0.00000000000E+00 -0.00000000000E+00 -0.10925775280E+02  0.10925775280E+02  0.00000000000E+00 0.  1.
          2    1    1    2  501    0  0.85372154101E+00 -0.22977117725E+02  0.15493956732E+02  0.27726151457E+02  0.00000000000E+00 0.  1.
         -2    1    1    2    0  502 -0.85372154101E+00  0.22977117725E+02  0.22670165251E+02  0.32289521085E+02  0.00000000000E+00 0. -1.
</event>
<event>
 4    1  0.1762646E+004  0.2506738E+02  0.7546771E-02  0.1468051E+00
         21   -1    0    0  503  502  0.00000000000E+00  0.00000000000E+00  0.19143443679E+02  0.19143443679E+02  0.00000000000E+00 0. -1.
         21   -1    0    0  501  503 -0.00000000000E+00 -0.00000000000E+00 -0.36857837401E+02  0.36857837401E+02  0.00000000000E+00 0.  1.
          2    1    1    2  501    0  0.15452149678E+02  0.19738399169E+02  0.40549263490E+00  0.25070655270E+02  0.00000000000E+00 0. -1.
         -2    1    1    2    0  502 -0.15452149678E+02 -0.19738399169E+02 -0.18119886356E+02  0.30930625810E+02  0.00000000000E+00 0.  1.
</event>
<event>
 4    1  0.1762646E+004  0.2783159E+02  0.7546771E-02  0.1439429E+00
         21   -1    0    0  503  502  0.00000000000E+00  0.00000000000E+00  0.45602755545E+01  0.45602755545E+01  0.00000000000E+00 0. -1.
         21   -1    0    0  501  503 -0.00000000000E+00 -0.00000000000E+00 -0.68245901936E+03  0.68245901936E+03  0.00000000000E+00 0.  1.
          2    1    1    2  501    0 -0.22991479909E+02  0.15684041484E+02 -0.63665741393E+03  0.63726545491E+03  0.00000000000E+00 0.  1.
         -2    1    1    2    0  502  0.22991479909E+02 -0.15684041484E+02 -0.41241329881E+02  0.49753840013E+02  0.00000000000E+00 0. -1.
</event>
<event>
 4    1  0.1762646E+004  0.2421865E+02  0.7546771E-02  0.1477737E+00
         21   -1    0    0  501  502  0.00000000000E+00  0.00000000000E+00  0.56384628201E+02  0.56384628201E+02  0.00000000000E+00 0.  1.
         21   -1    0    0  502  503 -0.00000000000E+00 -0.00000000000E+00 -0.14373456389E+02  0.14373456389E+02  0.00000000000E+00 0. -1.
          2    1    1    2  501    0  0.90006667375E+01 -0.22484014740E+02  0.39601231164E+02  0.46419827986E+02  0.00000000000E+00 0.  1.
         -2    1    1    2    0  503 -0.90006667375E+01  0.22484014740E+02  0.24099406480E+01  0.24338256603E+02  0.00000000000E+00 0. -1.
</event>
<event>
 4    1  0.1762646E+004  0.2538183E+02  0.7546771E-02  0.1464577E+00
         21   -1    0    0  501  502  0.00000000000E+00  0.00000000000E+00  0.43276768644E+02  0.43276768644E+02  0.00000000000E+00 0. -1.
         21   -1    0    0  502  503 -0.00000000000E+00 -0.00000000000E+00 -0.24010156376E+02  0.24010156376E+02  0.00000000000E+00 0.  1.
          2    1    1    2  501    0 -0.12112916027E+02 -0.22305034019E+02  0.30372359933E+02  0.39581782744E+02  0.00000000000E+00 0. -1.
         -2    1    1    2    0  503  0.12112916027E+02  0.22305034019E+02 -0.11105747666E+02  0.27705142275E+02  0.00000000000E+00 0.  1.
</event>
<event>
 4    1  0.1762646E+004  0.3054702E+02  0.7546771E-02  0.1414901E+00
         21   -1    0    0  501  502  0.00000000000E+00  0.00000000000E+00  0.34300871399E+01  0.34300871399E+01  0.00000000000E+00 0. -1.
         21   -1    0    0  502  503 -0.00000000000E+00 -0.00000000000E+00 -0.27493723434E+03  0.27493723434E+03  0.00000000000E+00 0.  1.
          2    1    1    2  501    0  0.30546309725E+02 -0.20854249456E+00 -0.12146557032E+03  0.12524777563E+03  0.00000000000E+00 0. -1.
         -2    1    1    2    0  503 -0.30546309725E+02  0.20854249456E+00 -0.15004157688E+03  0.15311954585E+03  0.00000000000E+00 0.  1.
</event>
<event>
 4    1  0.1762646E+004  0.5880835E+02  0.7546771E-02  0.1263936E+00
         21   -1    0    0  503  502  0.00000000000E+00  0.00000000000E+00  0.24964994308E+02  0.24964994308E+02  0.00000000000E+00 0. -1.
         21   -1    0    0  501  503 -0.00000000000E+00 -0.00000000000E+00 -0.16435562415E+03  0.16435562415E+03  0.00000000000E+00 0.  1.
          2    1    1    2  501    0 -0.32413495161E+02  0.49069215171E+02 -0.10721797993E+03  0.12228703025E+03  0.00000000000E+00 0.  1.
         -2    1    1    2    0  502  0.32413495161E+02 -0.49069215171E+02 -0.32172649909E+02  0.67033588209E+02  0.00000000000E+00 0. -1.
</event>
<event>
 4    1  0.1762646E+004  0.2729905E+02  0.7546771E-02  0.1444627E+00
         21   -1    0    0  503  502  0.00000000000E+00  0.00000000000E+00  0.17220732045E+02  0.17220732045E+02  0.00000000000E+00 0. -1.
         21   -1    0    0  501  503 -0.00000000000E+00 -0.00000000000E+00 -0.47220155521E+02  0.47220155521E+02  0.00000000000E+00 0.  1.
          2    1    1    2  501    0  0.31085182264E+01 -0.27121491175E+02 -0.24312178725E+02  0.36555713692E+02  0.00000000000E+00 0.  1.
         -2    1    1    2    0  502 -0.31085182264E+01  0.27121491175E+02 -0.56872447509E+01  0.27885173874E+02  0.00000000000E+00 0. -1.
</event>
<event>
 4    1  0.1762646E+004  0.4036010E+02  0.7546771E-02  0.1346388E+00
         21   -1    0    0  501  502  0.00000000000E+00  0.00000000000E+00  0.18817736857E+01  0.18817736857E+01  0.00000000000E+00 0. -1.
         21   -1    0    0  502  503 -0.00000000000E+00 -0.00000000000E+00 -0.89735524810E+03  0.89735524810E+03  0.00000000000E+00 0.  1.
          2    1    1    2  501    0 -0.29950333459E+02 -0.27053930114E+02 -0.53226453307E+03  0.53379253533E+03  0.00000000000E+00 0. -1.
         -2    1    1    2    0  503  0.29950333459E+02  0.27053930114E+02 -0.36320894134E+03  0.36544448645E+03  0.00000000000E+00 0.  1.
</event>
<event>
 4    1  0.1762646E+004  0.3178765E+02  0.7546771E-02  0.1404673E+00
         21   -1    0    0  503  502  0.00000000000E+00  0.00000000000E+00  0.14159201902E+03  0.14159201902E+03  0.00000000000E+00 0.  1.
         21   -1    0    0  501  503 -0.00000000000E+00 -0.00000000000E+00 -0.17022595181E+02  0.17022595181E+02  0.00000000000E+00 0. -1.
          2    1    1    2  501    0 -0.10133010627E+02 -0.30129336433E+02  0.18459873741E+01  0.31841207384E+02  0.00000000000E+00 0. -1.
         -2    1    1    2    0  502  0.10133010627E+02  0.30129336433E+02  0.12272343646E+03  0.12677340682E+03  0.00000000000E+00 0.  1.
</event>
<event>
 4    1  0.1762646E+004  0.2650781E+02  0.7546771E-02  0.1452616E+00
         21   -1    0    0  501  502  0.00000000000E+00  0.00000000000E+00  0.13330957207E+01  0.13330957207E+01  0.00000000000E+00 0.  1.
         21   -1    0    0  502  503 -0.00000000000E+00 -0.00000000000E+00 -0.12605729274E+04  0.12605729274E+04  0.00000000000E+00 0. -1.
          2    1    1    2  501    0 -0.26124565178E+02 -0.44912309542E+01 -0.14832923928E+03  0.15067921982E+03  0.00000000000E+00 0.  1.
         -2    1    1    2    0  503  0.26124565178E+02  0.44912309542E+01 -0.11109105924E+04  0.11112268033E+04  0.00000000000E+00 0. -1.
</event>
<event>
 4    1  0.1762646E+004  0.2463157E+02  0.7546771E-02  0.1472967E+00
         21   -1    0    0  503  502  0.00000000000E+00  0.00000000000E+00  0.79340401771E+02  0.79340401771E+02  0.00000000000E+00 0.  1.
         21   -1    0    0  501  503 -0.00000000000E+00 -0.00000000000E+00 -0.76476448101E+01  0.76476448101E+01  0.00000000000E+00 0. -1.
          2    1    1    2  501    0  0.57381502427E+01 -0.23953867070E+02  0.35439514259E+02  0.43158698853E+02  0.00000000000E+00 0. -1.
         -2    1    1    2    0  502 -0.57381502427E+01  0.23953867070E+02  0.36253242702E+02  0.43829347728E+02  0.00000000000E+00 0.  1.
</event>
<event>
 4    1  0.1762646E+004  0.2711423E+02  0.7546771E-02  0.1446464E+00
         21   -1    0    0  501  502  0.00000000000E+00  0.00000000000E+00  0.47897150329E+01  0.47897150329E+01  0.00000000000E+00 0.  1.
         21   -1    0    0  502  503 -0.00000000000E+00 -0.00000000000E+00 -0.39146739539E+03  0.39146739539E+03  0.00000000000E+00 0. -1.
          2    1    1    2  501    0  0.26522045896E+02  0.56358140843E+01 -0.38861205231E+02  0.47385383727E+02  0.00000000000E+00 0.  1.
         -2    1    1    2    0  503 -0.26522045896E+02 -0.56358140843E+01 -0.34781647512E+03  0.34887172669E+03  0.00000000000E+00 0. -1.
</event>
<event>
 4    1  0.1762646E+004  0.2245410E+02  0.7546771E-02  0.1499469E+00
         21   -1    0    0  501  502  0.00000000000E+00  0.00000000000E+00  0.64665492250E+02  0.64665492250E+02  0.00000000000E+00 0. -1.
         21   -1    0    0  502  503 -0.00000000000E+00 -0.00000000000E+00 -0.79324592156E+01  0.79324592156E+01  0.00000000000E+00 0.  1.
          2    1    1    2  501    0 -0.21143967302E+02  0.75577295944E+01  0.23620297659E+02  0.32589953841E+02  0.00000000000E+00 0.  1.
         -2    1    1    2    0  503  0.21143967302E+02 -0.75577295944E+01  0.33112735376E+02  0.40007997625E+02  0.00000000000E+00 0. -1.
</event>
<event>
 4    1  0.1762646E+004  0.4380918E+02  0.7546771E-02  0.1327502E+00
         21   -1    0    0  503  502  0.00000000000E+00  0.00000000000E+00  0.80401134620E+01  0.80401134620E+01  0.00000000000E+00 0.  1.
         21   -1    0    0  501  503 -0.00000000000E+00 -0.00000000000E+00 -0.26474296627E+03  0.26474296627E+03  0.00000000000E+00 0. -1.
          2    1    1    2  501    0  0.16497988785E+02  0.40583998111E+02 -0.17112232777E+03  0.17664114922E+03  0.00000000000E+00 0. -1.
         -2    1    1    2    0  502 -0.16497988785E+02 -0.40583998111E+02 -0.85580525040E+02  0.96141930513E+02  0.00000000000E+00 0.  1.
</event>
<event>
 4    1  0.1762646E+004  0.4724434E+02  0.7546771E-02  0.1310583E+00
         21   -1    0    0  503  502  0.00000000000E+00  0.00000000000E+00  0.49323214421E+03  0.49323214421E+03  0.00000000000E+00 0.  1.
         21   -1    0    0  501  503 -0.00000000000E+00 -0.00000000000E+00 -0.63913640470E+01  0.63913640470E+01  0.00000000000E+00 0. -1.
          2    1    1    2  501    0 -0.36017899949E+01 -0.47106840884E+02  0.10843758857E+03  0.11828244994E+03  0.00000000000E+00 0. -1.
         -2    1    1    2    0  502  0.36017899949E+01  0.47106840884E+02  0.37840319160E+03  0.38134105832E+03  0.00000000000E+00 0.  1.
</event>
<event>
 4    1  0.1762646E+004  0.2151223E+02  0.7546771E-02  0.1512076E+00
         21   -1    0    0  501  502  0.00000000000E+00  0.00000000000E+00  0.14037349402E+02  0.14037349402E+02  0.00000000000E+00 0.  1.
         21   -1    0    0  502  503 -0.00000000000E+00 -0.00000000000E+00 -0.48684694529E+02  0.48684694529E+02  0.00000000000E+00 0. -1.
          2    1    1    2  501    0  0.15276603883E+02  0.15146000853E+02  0.49526635164E+00  0.21517928729E+02  0.00000000000E+00 0.  1.
         -2    1    1    2    0  503 -0.15276603883E+02 -0.15146000853E+02 -0.35142611479E+02  0.41204115202E+02  0.00000000000E+00 0. -1.
</event>
<event>
 4    1  0.1762646E+004  0.3039607E+02  0.7546771E-02  0.1416185E+00
         21   -1    0    0  503  502  0.00000000000E+00  0.00000000000E+00  0.15647496351E+02  0.15647496351E+02  0.00000000000E+00 0. -1.
         21   -1    0    0  501  503 -0.00000000000E+00 -0.00000000000E+00 -0.10104161874E+03  0.10104161874E+03  0.00000000000E+00 0.  1.
          2    1    1    2  501    0 -0.22489265611E+02 -0.20448808511E+02 -0.80311328149E+02  0.85871009463E+02  0.00000000000E+00 0.  1.
         -2    1    1    2    0  502  0.22489265611E+02  0.20448808511E+02 -0.50827942411E+01  0.30818105629E+02  0.00000000000E+00 0. -1.
</event>
<event>
 4    1  0.1762646E+004  0.2188055E+02  0.7546771E-02  0.1507055E+00
         21   -1    0    0  503  502  0.00000000000E+00  0.00000000000E+00  0.50962562032E+02  0.50962562032E+02  0.00000000000E+00 0.  1.
         21   -1    0    0  501  503 -0.00000000000E+00 -0.00000000000E+00 -0.11058563604E+02  0.11058563604E+02  0.00000000000E+00 0. -1.
          2    1    1    2  501    0 -0.12135647304E+02 -0.18206715324E+02  0.79218990898E+01  0.23270472783E+02  0.00000000000E+00 0. -1.
         -2    1    1    2    0  502  0.12135647304E+02  0.18206715324E+02  0.31982099338E+02  0.38750652852E+02  0.00000000000E+00 0.  1.
</event>
<event>
 4    1  0.1762646E+004  0.2469602E+02  0.7546771E-02  0.1472233E+00
         21   -1    0    0  501  502  0.00000000000E+00  0.00000000000E+00  0.17276696062E+03  0.17276696062E+03  0.00000000000E+00 0.  1.
         21   -1    0    0  502  503 -0.00000000000E+00 -0.00000000000E+00 -0.91218497499E+01  0.91218497499E+01  0.00000000000E+00 0. -1.
          2    1    1    2  501    0  0.24459486096E+02 -0.34098112091E+01  0.15302689365E+03  0.15500684970E+03  0.00000000000E+00 0.  1.
         -2    1    1    2    0  503 -0.24459486096E+02  0.34098112091E+01  0.10618217215E+02  0.26881960669E+02  0.00000000000E+00 0. -1.
</event>
<event>
 4    1  0.1762646E+004  0.2992023E+02  0.7546771E-02  0.1420291E+00
         21   -1    0    0  503  502  0.00000000000E+00  0.00000000000E+00  0.30849495096E+02  0.30849495096E+02  0.00000000000E+00 0.  1.
         21   -1    0    0  501  503 -0.00000000000E+00 -0.00000000000E+00 -0.31790256749E+02  0.31790256749E+02  0.00000000000E+00 0. -1.
          2    1    1    2  501    0  0.23470230525E+02 -0.18557159929E+02  0.87769297160E+01  0.31180994223E+02  0.00000000000E+00 0.  1.
         -2    1    1    2    0  502 -0.23470230525E+02  0.18557159929E+02 -0.97176913693E+01  0.31458757621E+02  0.00000000000E+00 0. -1.
</event>
<event>
 4    1  0.1762646E+004  0.2276388E+02  0.7546771E-02  0.1495485E+00
         21   -1    0    0  501  502  0.00000000000E+00  0.00000000000E+00  0.48589324045E+02  0.48589324045E+02  0.00000000000E+00 0. -1.
         21   -1    0    0  502  503 -0.00000000000E+00 -0.00000000000E+00 -0.24502541239E+02  0.24502541239E+02  0.00000000000E+00 0.  1.
          2    1    1    2  501    0  0.66825357922E+01  0.21760932123E+02  0.39507556518E+02  0.45596507251E+02  0.00000000000E+00 0. -1.
         -2    1    1    2    0  503 -0.66825357922E+01 -0.21760932123E+02 -0.15420773713E+02  0.27495358033E+02  0.00000000000E+00 0.  1.
</event>
<event>
 4    1  0.1762646E+004  0.5039535E+02  0.7546771E-02  0.1296467E+00
         21   -1    0    0  503  502  0.00000000000E+00  0.00000000000E+00  0.22623389569E+03  0.22623389569E+03  0.00000000000E+00 0. -1.
         21   -1    0    0  501  503 -0.00000000000E+00 -0.00000000000E+00 -0.15961492974E+02  0.15961492974E+02  0.00000000000E+00 0.  1.
          2    1    1    2  501    0  0.50051203628E+02  0.58795128863E+01  0.39175729238E+02  0.63831257372E+02  0.00000000000E+00 0.  1.
         -2    1    1    2    0  502 -0.50051203628E+02 -0.58795128863E+01  0.17109667348E+03  0.17836413130E+03  0.00000000000E+00 0. -1.
</event>
<event>
 4    1  0.1762646E+004  0.2249113E+02  0.7546771E-02  0.1498989E+00
         21   -1    0    0  501  502  0.00000000000E+00  0.00000000000E+00  0.42199961613E+02  0.42199961613E+02  0.00000000000E+00 0.  1.
         21   -1    0    0  502  503 -0.00000000000E+00 -0.00000000000E+00 -0.14345031761E+02  0.14345031761E+02  0.00000000000E+00 0. -1.
          2    1    1    2  501    0  0.19063542550E+02 -0.11934493252E+02  0.25390208327E+02  0.33919219664E+02  0.00000000000E+00 0.  1.
         -2    1    1    2    0  503 -0.19063542550E+02  0.11934493252E+02  0.24647215247E+01  0.22625773709E+02  0.00000000000E+00 0. -1.
</event>
<event>
 4    1  0.1762646E+004  0.2459789E+02  0.7546771E-02  0.1473352E+00
         21   -1    0    0  503  502  0.00000000000E+00  0.00000000000E+00  0.14723696816E+02  0.14723696816E+02  0.00000000000E+00 0.  1.
         21   -1    0    0  501  503 -0.00000000000E+00 -0.00000000000E+00 -0.41338441748E+02  0.41338441748E+02  0.00000000000E+00 0. -1.
          2    1    1    2  501    0  0.13580757440E+02  0.20509006818E+02 -0.15462663243E+02  0.29054264539E+02  0.00000000000E+00 0.  1.
         -2    1    1    2    0  502 -0.13580757440E+02 -0.20509006818E+02 -0.11152081689E+02  0.27007874025E+02  0.00000000000E+00 0. -1.
</event>
<event>
 4    1  0.1762646E+004  0.2316531E+02  0.7546771E-02  0.1490433E+00
         21   -1    0    0  501  502  0.00000000000E+00  0.00000000000E+00  0.15073533752E+02  0.15073533752E+02  0.00000000000E+00 0.  1.
         21   -1    0    0  502  503 -0.00000000000E+00 -0.00000000000E+00 -0.10859991267E+03  0.10859991267E+03  0.00000000000E+00 0. -1.
          2    1    1    2  501    0 -0.32778264845E+00 -0.23162992755E+02  0.39347329430E+01  0.23497101910E+02  0.00000000000E+00 0.  1.
         -2    1    1    2    0  503  0.32778264845E+00  0.23162992755E+02 -0.97461111863E+02  0.10017634451E+03  0.00000000000E+00 0. -1.
</event>
<event>
 4    1  0.1762646E+004  0.2305714E+02  0.7546771E-02  0.1491782E+00
         21   -1    0    0  501  502  0.00000000000E+00  0.00000000000E+00  0.18837448442E+02  0.18837448442E+02  0.00000000000E+00 0.  1.
         21   -1    0    0  502  503 -0.00000000000E+00 -0.00000000000E+00 -0.30063927628E+02  0.30063927628E+02  0.00000000000E+00 0. -1.
          2    1    1    2  501    0  0.16454951581E+02 -0.16151352098E+02  0.43873918290E+00  0.23061311718E+02  0.00000000000E+00 0.  1.
         -2    1    1    2    0  503 -0.16454951581E+02  0.16151352098E+02 -0.11665218369E+02  0.25840064352E+02  0.00000000000E+00 0. -1.
</event>
<event>
 4    1  0.1762646E+004  0.2180191E+02  0.7546771E-02  0.1508117E+00
         21   -1    0    0  503  502  0.00000000000E+00  0.00000000000E+00  0.37876394398E+01  0.37876394398E+01  0.00000000000E+00 0. -1.
         21   -1    0    0  501  503 -0.00000000000E+00 -0.00000000000E+00 -0.12603815404E+03  0.12603815404E+03  0.00000000000E+00 0.  1.
          2    1    1    2  501    0  0.94091761096E+01 -0.19666990967E+02 -0.65393466603E+02  0.68932057877E+02  0.00000000000E+00 0.  1.
         -2    1    1    2    0  502 -0.94091761096E+01  0.19666990967E+02 -0.56857048001E+02  0.60893735607E+02  0.00000000000E+00 0. -1.
</event>
<event>
 4    1  0.1762646E+004  0.2054203E+02  0.7546771E-02  0.1525905E+00
         21   -1    0    0  501  502  0.00000000000E+00  0.00000000000E+00  0.36092888357E+03  0.36092888357E+03  0.00000000000E+00 0.  1.
         21   -1    0    0  502  503 -0.00000000000E+00 -0.00000000000E+00 -0.11920285128E+01  0.11920285128E+01  0.00000000000E+00 0. -1.
          2    1    1    2  501    0 -0.18230773463E+01  0.20460970065E+02  0.15477683750E+03  0.15613405885E+03  0.00000000000E+00 0. -1.
         -2    1    1    2    0  503  0.18230773463E+01 -0.20460970065E+02  0.20496001756E+03  0.20598685323E+03  0.00000000000E+00 0.  1.
</event>
<event>
 4    1  0.1762646E+004  0.2903475E+02  0.7546771E-02  0.1428174E+00
         21   -1    0    0  503  502  0.00000000000E+00  0.00000000000E+00  0.43812765759E+02  0.43812765759E+02  0.00000000000E+00 0. -1.
         21   -1    0    0  501  503 -0.00000000000E+00 -0.00000000000E+00 -0.66913343201E+02  0.66913343201E+02  0.00000000000E+00 0.  1.
          2    1    1    2  501    0  0.28215221658E+02 -0.68496575582E+01 -0.58280243022E+02  0.65112235936E+02  0.00000000000E+00 0.  1.
         -2    1    1    2    0  502 -0.28215221658E+02  0.68496575582E+01  0.35179665580E+02  0.45613873024E+02  0.00000000000E+00 0. -1.
</event>
<event>
 4    1  0.1762646E+004  0.2131609E+02  0.7546771E-02  0.1514799E+00
         21   -1    0    0  503  502  0.00000000000E+00  0.00000000000E+00  0.78479983933E+02  0.78479983933E+02  0.00000000000E+00 0.  1.
         21   -1    0    0  501  503 -0.00000000000E+00 -0.00000000000E+00 -0.59372368993E+01  0.59372368993E+01  0.00000000000E+00 0. -1.
          2    1    1    2  501    0 -0.18309376253E+02 -0.10915240172E+02  0.29617782239E+02  0.36490940678E+02  0.00000000000E+00 0.  1.
         -2    1    1    2    0  502  0.18309376253E+02  0.10915240172E+02  0.42924964794E+02  0.47926280154E+02  0.00000000000E+00 0. -1.
</event>
<event>
 4    1  0.1762646E+004  0.2763228E+02  0.7546771E-02  0.1441358E+00
         21   -1    0    0  503  502  0.00000000000E+00  0.00000000000E+00  0.98484150349E+02  0.98484150349E+02  0.00000000000E+00 0.  1.
         21   -1    0    0  501  503 -0.00000000000E+00 -0.00000000000E+00 -0.84758054695E+01  0.84758054695E+01  0.00000000000E+00 0. -1.
          2    1    1    2  501    0  0.27613366242E+02  0.10222394626E+01  0.60622179865E+02  0.66622756325E+02  0.00000000000E+00 0.  1.
         -2    1    1    2    0  502 -0.27613366242E+02 -0.10222394626E+01  0.29386165015E+02  0.40337199494E+02  0.00000000000E+00 0. -1.
</event>
<event>
 4    1  0.1762646E+004  0.3202004E+02  0.7546771E-02  0.1402818E+00
         21   -1    0    0  503  502  0.00000000000E+00  0.00000000000E+00  0.12725225435E+03  0.12725225435E+03  0.00000000000E+00 0. -1.
         21   -1    0    0  501  503 -0.00000000000E+00 -0.00000000000E+00 -0.16242913920E+02  0.16242913920E+02  0.00000000000E+00 0.  1.
          2    1    1    2  501    0  0.11791701619E+02  0.29769767035E+02  0.45708291550E+01  0.32344639982E+02  0.00000000000E+00 0.  1.
         -2    1    1    2    0  502 -0.11791701619E+02 -0.29769767035E+02  0.10643851128E+03  0.11115052829E+03  0.00000000000E+00 0. -1.
</event>
<event>
 4    1  0.1762646E+004  0.2725636E+02  0.7546771E-02  0.1445050E+00
         21   -1    0    0  501  502  0.00000000000E+00  0.00000000000E+00  0.16070465119E+02  0.16070465119E+02  0.00000000000E+00 0. -1.
         21   -1    0    0  502  503 -0.00000000000E+00 -0.00000000000E+00 -0.12018467873E+03  0.12018467873E+03  0.00000000000E+00 0.  1.
          2    1    1    2  501    0  0.76016977797E+00  0.27245754007E+02  0.13853501707E+01  0.27291540165E+02  0.00000000000E+00 0. -1.
         -2    1    1    2    0  503 -0.76016977797E+00 -0.27245754007E+02 -0.10549956378E+03  0.10896360368E+03  0.00000000000E+00 0.  1.
</event>
<event>
 4    1  0.1762646E+004  0.2336086E+02  0.7546771E-02  0.1488016E+00
         21   -1    0    0  503  502  0.00000000000E+00  0.00000000000E+00  0.60227927947E+01  0.60227927947E+01  0.00000000000E+00 0. -1.
         21   -1    0    0  501  503 -0.00000000000E+00 -0.00000000000E+00 -0.10625157929E+03  0.10625157929E+03  0.00000000000E+00 0.  1.
          2    1    1    2  501    0  0.10376602343E+02  0.20929785765E+02 -0.71652758972E+02  0.75364764158E+02  0.00000000000E+00 0.  1.
         -2    1    1    2    0  502 -0.10376602343E+02 -0.20929785765E+02 -0.28576027527E+02  0.36909607930E+02  0.00000000000E+00 0. -1.
</event>
<event>
 4    1  0.1762646E+004  0.2336742E+02  0.7546771E-02  0.1487935E+00
         21   -1    0    0  501  502  0.00000000000E+00  0.00000000000E+00  0.86651831775E+02  0.86651831775E+02  0.00000000000E+00 0. -1.
         21   -1    0    0  502  503 -0.00000000000E+00 -0.00000000000E+00 -0.44097057399E+02  0.44097057399E+02  0.00000000000E+00 0.  1.
          2    1    1    2  501    0 -0.13197338142E+02 -0.19283837182E+02  0.81800828201E+02  0.85072978112E+02  0.00000000000E+00 0. -1.
         -2    1    1    2    0  503  0.13197338142E+02  0.19283837182E+02 -0.39246053825E+02  0.45675911062E+02  0.00000000000E+00 0.  1.
</event>
<event>
 4    1  0.1762646E+004  0.2321657E+02  0.7546771E-02  0.1489796E+00
         21   -1    0    0  501  502  0.00000000000E+00  0.00000000000E+00  0.30228632465E+02  0.30228632465E+02  0.00000000000E+00 0. -1.
         21   -1    0    0  502  503 -0.00000000000E+00 -0.00000000000E+00 -0.18018245362E+02  0.18018245362E+02  0.00000000000E+00 0.  1.
          2    1    1    2  501    0 -0.11827597386E+02 -0.19977915940E+02  0.36465538706E+01  0.23501202956E+02  0.00000000000E+00 0. -1.
         -2    1    1    2    0  503  0.11827597386E+02  0.19977915940E+02  0.85638332321E+01  0.24745674872E+02  0.00000000000E+00 0.  1.
</event>
<event>
 4    1  0.1762646E+004  0.3298709E+02  0.7546771E-02  0.1395295E+00
         21   -1    0    0  503  502  0.00000000000E+00  0.00000000000E+00  0.69964429408E+02  0.69964429408E+02  0.00000000000E+00 0.  1.
         21   -1    0    0  501  503 -0.00000000000E+00 -0.00000000000E+00 -0.27062486133E+02  0.27062486133E+02  0.00000000000E+00 0. -1.
          2    1    1    2  501    0 -0.22158991719E+02 -0.24436186108E+02 -0.10187004044E+02  0.34524240134E+02  0.00000000000E+00 0. -1.
         -2    1    1    2    0  502  0.22158991719E+02  0.24436186108E+02  0.53088947319E+02  0.62502675406E+02  0.00000000000E+00 0.  1.
</event>
<event>
 4    1  0.1762646E+004  0.2432388E+02  0.7546771E-02  0.1476511E+00
         21   -1    0    0  503  502  0.00000000000E+00  0.00000000000E+00  0.19136873701E+03  0.19136873701E+03  0.00000000000E+00 0. -1.
         21   -1    0    0  501  503 -0.00000000000E+00 -0.00000000000E+00 -0.32140563075E+01  0.32140563075E+01  0.00000000000E+00 0.  1.
          2    1    1    2  501    0 -0.80178008340E+01  0.22964448330E+02  0.75093011292E+02  0.78934221743E+02  0.00000000000E+00 0. -1.
         -2    1    1    2    0  502  0.80178008340E+01 -0.22964448330E+02  0.11306166942E+03  0.11564857158E+03  0.00000000000E+00 0.  1.
</event>
<event>
 4    1  0.1762646E+004  0.3368687E+02  0.7546771E-02  0.1390037E+00
         21   -1    0    0  501  502  0.00000000000E+00  0.00000000000E+00  0.45761568019E+01  0.45761568019E+01  0.00000000000E+00 0.  1.
         21   -1    0    0  502  503 -0.00000000000E+00 -0.00000000000E+00 -0.26412722775E+03  0.26412722775E+03  0.00000000000E+00 0. -1.
          2    1    1    2  501    0  0.12543793820E+02  0.31264334923E+02 -0.16299220150E+03  0.16643696450E+03  0.00000000000E+00 0. -1.
         -2    1    1    2    0  503 -0.12543793820E+02 -0.31264334923E+02 -0.96558869454E+02  0.10226642006E+03  0.00000000000E+00 0.  1.
</event>
<event>
 4    1  0.1762646E+004  0.2157129E+02  0.7546771E-02  0.1511262E+00
         21   -1    0    0  501  502  0.00000000000E+00  0.00000000000E+00  0.33920973967E+03  0.33920973967E+03  0.00000000000E+00 0. -1.
         21   -1    0    0  502  503 -0.00000000000E+00 -0.00000000000E+00 -0.47809097808E+01  0.47809097808E+01  0.00000000000E+00 0.  1.
          2    1    1    2  501    0 -0.19303914831E+02 -0.96270225421E+01  0.31245340445E+03  0.31319714341E+03  0.00000000000E+00 0. -1.
         -2    1    1    2    0  503  0.19303914831E+02  0.96270225421E+01  0.21975425442E+02  0.30793506039E+02  0.00000000000E+00 0.  1.
</event>
<event>
 4    1  0.1762646E+004  0.2602775E+02  0.7546771E-02  0.1457627E+00
         21   -1    0    0  503  502  0.00000000000E+00  0.00000000000E+00  0.67072740685E+02  0.67072740685E+02  0.00000000000E+00 0.  1.
         21   -1    0    0  501  503 -0.00000000000E+00 -0.00000000000E+00 -0.21463166320E+02  0.21463166320E+02  0.00000000000E+00 0. -1.
          2    1    1    2  501    0 -0.25293302749E+02  0.61394148049E+01 -0.94051365431E+01  0.27674901473E+02  0.00000000000E+00 0. -1.
         -2    1    1    2    0  502  0.25293302749E+02 -0.61394148049E+01  0.55014710908E+02  0.60861005532E+02  0.00000000000E+00 0.  1.
</event>
<event>
 4    1  0.1762646E+004  0.2974980E+02  0.7546771E-02  0.1421783E+00
         21   -1    0    0  501  502  0.00000000000E+00  0.00000000000E+00  0.58255517127E+03  0.58255517127E+03  0.00000000000E+00 0. -1.
         21   -1    0    0  502  503 -0.00000000000E+00 -0.00000000000E+00 -0.22207867931E+01  0.22207867931E+01  0.00000000000E+00 0.  1.
          2    1    1    2  501    0  0.92173128591E+00 -0.29735521760E+02  0.45450187675E+03  0.45547448535E+03  0.00000000000E+00 0. -1.
         -2    1    1    2    0  503 -0.92173128591E+00  0.29735521760E+02  0.12583250773E+03  0.12930147271E+03  0.00000000000E+00 0.  1.
</event>
<event>
 4    1  0.1762646E+004  0.2542230E+02  0.7546771E-02  0.1464134E+00
         21   -1    0    0  501  502  0.00000000000E+00  0.00000000000E+00  0.62809612039E+02  0.62809612039E+02  0.00000000000E+00 0.  1.
         21   -1    0    0  502  503 -0.00000000000E+00 -0.00000000000E+00 -0.31282678477E+02  0.31282678477E+02  0.00000000000E+00 0. -1.
          2    1    1    2  501    0  0.23260317101E+02  0.10259192462E+02  0.54303216774E+02  0.59959425728E+02  0.00000000000E+00 0.  1.
         -2    1    1    2    0  503 -0.23260317101E+02 -0.10259192462E+02 -0.22776283212E+02  0.34132864787E+02  0.00000000000E+00 0. -1.
</event>
<event>
 4    1  0.1762646E+004  0.2289125E+02  0.7546771E-02  0.1493868E+00
         21   -1    0    0  503  502  0.00000000000E+00  0.00000000000E+00  0.46209523942E+02  0.46209523942E+02  0.00000000000E+00 0. -1.
         21   -1    0    0  501  503 -0.00000000000E+00 -0.00000000000E+00 -0.15716419205E+02  0.15716419205E+02  0.00000000000E+00 0.  1.
          2    1    1    2  501    0  0.11038485800E+02  0.20053952587E+02 -0.10927161748E+01  0.22917312490E+02  0.00000000000E+00 0.  1.
         -2    1    1    2    0  502 -0.11038485800E+02 -0.20053952587E+02  0.31585820912E+02  0.39008630658E+02  0.00000000000E+00 0. -1.
</event>
<event>
 4    1  0.1762646E+004  0.2032683E+02  0.7546771E-02  0.1529097E+00
         21   -1    0    0  503  502  0.00000000000E+00  0.00000000000E+00  0.42244593157E+02  0.42244593157E+02  0.00000000000E+00 0. -1.
         21   -1    0    0  501  503 -0.00000000000E+00 -0.00000000000E+00 -0.10817710615E+03  0.10817710615E+03  0.00000000000E+00 0.  1.
          2    1    1    2  501    0  0.19519024939E+02  0.56734060213E+01 -0.10469653690E+03  0.10665151059E+03  0.00000000000E+00 0.  1.
         -2    1    1    2    0  502 -0.19519024939E+02 -0.56734060213E+01  0.38764023914E+02  0.43770188719E+02  0.00000000000E+00 0. -1.
</event>
<event>
 4    1  0.1762646E+004  0.2003152E+02  0.7546771E-02  0.1533554E+00
         21   -1    0    0  501  502  0.00000000000E+00  0.00000000000E+00  0.48440794771E+01  0.48440794771E+01  0.00000000000E+00 0. -1.
         21   -1    0    0  502  503 -0.00000000000E+00 -0.00000000000E+00 -0.83700193869E+02  0.83700193869E+02  0.00000000000E+00 0.  1.
          2    1    1    2  501    0  0.14012142192E+02  0.14315086650E+02 -0.34928250862E+02  0.40264681085E+02  0.00000000000E+00 0.  1.
         -2    1    1    2    0  503 -0.14012142192E+02 -0.14315086650E+02 -0.43927863530E+02  0.48279592261E+02  0.00000000000E+00 0. -1.
</event>
<event>
 4    1  0.1762646E+004  0.2789768E+02  0.7546771E-02  0.1438793E+00
         21   -1    0    0  503  502  0.00000000000E+00  0.00000000000E+00  0.22678492291E+03  0.22678492291E+03  0.00000000000E+00 0. -1.
         21   -1    0    0  501  503 -0.00000000000E+00 -0.00000000000E+00 -0.10400422248E+02  0.10400422248E+02  0.00000000000E+00 0.  1.
          2    1    1    2  501    0  0.26729814934E+02  0.79873405325E+01  0.11117604207E+02  0.30031345932E+02  0.00000000000E+00 0. -1.
         -2    1    1    2    0  502 -0.26729814934E+02 -0.79873405325E+01  0.20526689645E+03  0.20715399922E+03  0.00000000000E+00 0.  1.
</event>
<event>
 4    1  0.1762646E+004  0.2078945E+02  0.7546771E-02  0.1522292E+00
         21   -1    0    0  501  502  0.00000000000E+00  0.00000000000E+00  0.19239519685E+03  0.19239519685E+03  0.00000000000E+00 0. -1.
         21   -1    0    0  502  503 -0.00000000000E+00 -0.00000000000E+00 -0.16295655067E+02  0.16295655067E+02  0.00000000000E+00 0.  1.
          2    1    1    2  501    0 -0.56860221780E+01 -0.19996756208E+02  0.18493638721E+03  0.18610123165E+03  0.00000000000E+00 0. -1.
         -2    1    1    2    0  503  0.56860221780E+01  0.19996756208E+02 -0.88368454230E+01  0.22589620273E+02  0.00000000000E+00 0.  1.
</event>
<event>
 4    1  0.1762646E+004  0.3849653E+02  0.7546771E-02  0.1357529E+00
         21   -1    0    0  501  502  0.00000000000E+00  0.00000000000E+00  0.60111026304E+02  0.60111026304E+02  0.00000000000E+00 0.  1.
         21   -1    0    0  502  503 -0.00000000000E+00 -0.00000000000E+00 -0.85179603159E+02  0.85179603159E+02  0.00000000000E+00 0. -1.
          2    1    1    2  501    0 -0.33939328448E+02 -0.18168788640E+02  0.48702023841E+02  0.62079545926E+02  0.00000000000E+00 0.  1.
         -2    1    1    2    0  503  0.33939328448E+02  0.18168788640E+02 -0.73770600697E+02  0.83211083537E+02  0.00000000000E+00 0. -1.
</event>
<event>
 4    1  0.1762646E+004  0.2555334E+02  0.7546771E-02  0.1462707E+00
         21   -1    0    0  501  502  0.00000000000E+00  0.00000000000E+00  0.10833919369E+01  0.10833919369E+01  0.00000000000E+00 0.  1.
         21   -1    0    0  502  503 -0.00000000000E+00 -0.00000000000E+00 -0.10035618412E+04  0.10035618412E+04  0.00000000000E+00 0. -1.
          2    1    1    2  501    0 -0.92441344344E+01 -0.23822658702E+02 -0.18376999626E+03  0.18553809478E+03  0.00000000000E+00 0.  1.
         -2    1    1    2    0  503  0.92441344344E+01  0.23822658702E+02 -0.81870845302E+03  0.81910713838E+03  0.00000000000E+00 0. -1.
</event>
<event>
 4    1  0.1762646E+004  0.2329180E+02  0.7546771E-02  0.1488866E+00
         21   -1    0    0  501  502  0.00000000000E+00  0.00000000000E+00  0.29920577337E+03  0.29920577337E+03  0.00000000000E+00 0. -1.
         21   -1    0    0  502  503 -0.00000000000E+00 -0.00000000000E+00 -0.43903818292E+01  0.43903818292E+01  0.00000000000E+00 0.  1.
          2    1    1    2  501    0 -0.12147788781E+02  0.19873080748E+02  0.26371071201E+03  0.26473731837E+03  0.00000000000E+00 0. -1.
         -2    1    1    2    0  503  0.12147788781E+02 -0.19873080748E+02  0.31104679529E+02  0.38858836824E+02  0.00000000000E+00 0.  1.
</event>
<event>
 4    1  0.1762646E+004  0.4425797E+02  0.7546771E-02  0.1325192E+00
         21   -1    0    0  503  502  0.00000000000E+00  0.00000000000E+00  0.19742224231E+02  0.19742224231E+02  0.00000000000E+00 0. -1.
         21   -1    0    0  501  503 -0.00000000000E+00 -0.00000000000E+00 -0.15775480302E+03  0.15775480302E+03  0.00000000000E+00 0.  1.
          2    1    1    2  501    0 -0.42720032507E+01 -0.44051309608E+02 -0.12306769341E+03  0.13078388682E+03  0.00000000000E+00 0.  1.
         -2    1    1    2    0  502  0.42720032507E+01  0.44051309608E+02 -0.14944885377E+02  0.46713140431E+02  0.00000000000E+00 0. -1.
</event>
<event>
 4    1  0.1762646E+004  0.2049701E+02  0.7546771E-02  0.1526569E+00
         21   -1    0    0  503  502  0.00000000000E+00  0.00000000000E+00  0.31440714235E+00  0.31440714235E+00  0.00000000000E+00 0.  1.
         21   -1    0    0  501  503 -0.00000000000E+00 -0.00000000000E+00 -0.14860721788E+04  0.14860721788E+04  0.00000000000E+00 0. -1.
          2    1    1    2  501    0 -0.15968782325E+02 -0.12850115120E+02 -0.97885368572E+03  0.97906826397E+03  0.00000000000E+00 0. -1.
         -2    1    1    2    0  502  0.15968782325E+02  0.12850115120E+02 -0.50690408595E+03  0.50731832198E+03  0.00000000000E+00 0.  1.
</event>
<event>
 4    1  0.1762646E+004  0.3713895E+02  0.7546771E-02  0.1366119E+00
         21   -1    0    0  501  502  0.00000000000E+00  0.00000000000E+00  0.14600440949E+03  0.14600440949E+03  0.00000000000E+00 0.  1.
         21   -1    0    0  502  503 -0.00000000000E+00 -0.00000000000E+00 -0.13382829481E+02  0.13382829481E+02  0.00000000000E+00 0. -1.
          2    1    1    2  501    0 -0.18783685173E+02  0.32038648469E+02  0.10952916258E+03  0.11565439586E+03  0.00000000000E+00 0.  1.
         -2    1    1    2    0  503  0.18783685173E+02 -0.32038648469E+02  0.23092417426E+02  0.43732843116E+02  0.00000000000E+00 0. -1.
</event>
<event>
 4    1  0.1762646E+004  0.2349181E+02  0.7546771E-02  0.1486413E+00
         21   -1    0    0  503  502  0.00000000000E+00  0.00000000000E+00  0.16835153596E+01  0.16835153596E+01  0.00000000000E+00 0.  1.
         21   -1    0    0  501  503 -0.00000000000E+00 -0.00000000000E+00 -0.46079274298E+03  0.46079274298E+03  0.00000000000E+00 0. -1.
          2    1    1    2  501    0 -0.79163885846E+01 -0.22117774892E+02 -0.35378047900E+03  0.35455957538E+03  0.00000000000E+00 0. -1.
         -2    1    1    2    0  502  0.79163885846E+01  0.22117774892E+02 -0.10532874862E+03  0.10791668296E+03  0.00000000000E+00 0.  1.
</event>
<event>
 4    1  0.1762646E+004  0.3183592E+02  0.7546771E-02  0.1404286E+00
         21   -1    0    0  503  502  0.00000000000E+00  0.00000000000E+00  0.50381721447E+02  0.50381721447E+02  0.00000000000E+00 0.  1.
         21   -1    0    0  501  503 -0.00000000000E+00 -0.00000000000E+00 -0.24933667963E+02  0.24933667963E+02  0.00000000000E+00 0. -1.
          2    1    1    2  501    0  0.29920750086E+02 -0.10875396514E+02 -0.38274664721E+01  0.32065168558E+02  0.00000000000E+00 0. -1.
         -2    1    1    2    0  502 -0.29920750086E+02  0.10875396514E+02  0.29275519956E+02  0.43250220852E+02  0.00000000000E+00 0.  1.
</event>
<event>
 4    1  0.1762646E+004  0.2416933E+02  0.7546771E-02  0.1478315E+00
         21   -1    0    0  503  502  0.00000000000E+00  0.00000000000E+00  0.40623609561E+02  0.40623609561E+02  0.00000000000E+00 0.  1.
         21   -1    0    0  501  503 -0.00000000000E+00 -0.00000000000E+00 -0.32835107627E+02  0.32835107627E+02  0.00000000000E+00 0. -1.
          2    1    1    2  501    0 -0.21298043923E+02  0.11425841044E+02 -0.23642049737E+02  0.33809806777E+02  0.00000000000E+00 0. -1.
         -2    1    1    2    0  502  0.21298043923E+02 -0.11425841044E+02  0.31430551671E+02  0.39648910412E+02  0.00000000000E+00 0.  1.
</event>
<event>
 4    1  0.1762646E+004  0.3531261E+02  0.7546771E-02  0.1378379E+00
         21   -1    0    0  503  502  0.00000000000E+00  0.00000000000E+00  0.45700222107E+01  0.45700222107E+01  0.00000000000E+00 0. -1.
         21   -1    0    0  501  503 -0.00000000000E+00 -0.00000000000E+00 -0.47893533390E+03  0.47893533390E+03  0.00000000000E+00 0.  1.
          2    1    1    2  501    0 -0.33297384425E+01  0.35155270030E+02 -0.39576139456E+03  0.39733369048E+03  0.00000000000E+00 0.  1.
         -2    1    1    2    0  502  0.33297384425E+01 -0.35155270030E+02 -0.78603917130E+02  0.86171665629E+02  0.00000000000E+00 0. -1.
</event>
<event>
 4    1  0.1762646E+004  0.2198892E+02  0.7546771E-02  0.1505600E+00
         21   -1    0    0  503  502  0.00000000000E+00  0.00000000000E+00  0.50242764138E+03  0.50242764138E+03  0.00000000000E+00 0.  1.
         21   -1    0    0  501  503 -0.00000000000E+00 -0.00000000000E+00 -0.12315323885E+01  0.12315323885E+01  0.00000000000E+00 0. -1.
          2    1    1    2  501    0  0.11693615763E+02  0.18621811636E+02  0.13286318573E+03  0.13467048169E+03  0.00000000000E+00 0. -1.
         -2    1    1    2    0  502 -0.11693615763E+02 -0.18621811636E+02  0.36833292327E+03  0.36898869208E+03  0.00000000000E+00 0.  1.
</event>
<event>
 4    1  0.1762646E+004  0.2566129E+02  0.7546771E-02  0.1461540E+00
         21   -1    0    0  501  502  0.00000000000E+00  0.00000000000E+00  0.13178952022E+02  0.13178952022E+02  0.00000000000E+00 0. -1.
         21   -1    0    0  502  503 -0.00000000000E+00 -0.00000000000E+00 -0.95923794221E+02  0.95923794221E+02  0.00000000000E+00 0.  1.
          2    1    1    2  501    0  0.25636968302E+02 -0.11169615464E+01 -0.36133500735E+01  0.25914437011E+02  0.00000000000E+00 0. -1.
         -2    1    1    2    0  503 -0.25636968302E+02  0.11169615464E+01 -0.79131492125E+02  0.83188309232E+02  0.00000000000E+00 0.  1.
</event>
<event>
 4    1  0.1762646E+004  0.2754436E+02  0.7546771E-02  0.1442215E+00
         21   -1    0    0  501  502  0.00000000000E+00  0.00000000000E+00  0.93777982082E+01  0.93777982082E+01  0.00000000000E+00 0.  1.
         21   -1    0    0  502  503 -0.00000000000E+00 -0.00000000000E+00 -0.18648282942E+03  0.18648282942E+03  0.00000000000E+00 0. -1.
          2    1    1    2  501    0 -0.15887885549E+02 -0.22500379389E+02 -0.16223906257E+03  0.16456064354E+03  0.00000000000E+00 0. -1.
         -2    1    1    2    0  503  0.15887885549E+02  0.22500379389E+02 -0.14865968637E+02  0.31299984080E+02  0.00000000000E+00 0.  1.
</event>
<event>
 4    1  0.1762646E+004  0.2350930E+02  0.7546771E-02  0.1486200E+00
         21   -1    0    0  503  502  0.00000000000E+00  0.00000000000E+00  0.79014349483E+02  0.79014349483E+02  0.00000000000E+00 0. -1.
         21   -1    0    0  501  503 -0.00000000000E+00 -0.00000000000E+00 -0.10052424287E+03  0.10052424287E+03  0.00000000000E+00 0.  1.
          2    1    1    2  501    0  0.12545124896E+02  0.19882330017E+02 -0.97344731040E+02  0.10014331664E+03  0.00000000000E+00 0.  1.
         -2    1    1    2    0  502 -0.12545124896E+02 -0.19882330017E+02  0.75834837650E+02  0.79395275721E+02  0.00000000000E+00 0. -1.
</event>
<event>
 4    1  0.1762646E+004  0.4866289E+02  0.7546771E-02  0.1304076E+00
         21   -1    0    0  503  502  0.00000000000E+00  0.00000000000E+00  0.70146321603E+03  0.70146321603E+03  0.00000000000E+00 0. -1.
         21   -1    0    0  501  503 -0.00000000000E+00 -0.00000000000E+00 -0.35619864908E+01  0.35619864908E+01  0.00000000000E+00 0.  1.
          2    1    1    2  501    0 -0.10431399320E+02 -0.47531704723E+02  0.26838055849E+03  0.27275667036E+03  0.00000000000E+00 0.  1.
         -2    1    1    2    0  502  0.10431399320E+02  0.47531704723E+02  0.42952067104E+03  0.43226853217E+03  0.00000000000E+00 0. -1.
</event>
<event>
 4    1  0.1762646E+004  0.2304399E+02  0.7546771E-02  0.1491946E+00
         21   -1    0    0  501  502  0.00000000000E+00  0.00000000000E+00  0.22007560157E+01  0.22007560157E+01  0.00000000000E+00 0. -1.
         21   -1    0    0  502  503 -0.00000000000E+00 -0.00000000000E+00 -0.61945330769E+03  0.61945330769E+03  0.00000000000E+00 0.  1.
          2    1    1    2  501    0  0.20620957970E+02  0.10285998815E+02 -0.65768051891E+02  0.69688322758E+02  0.00000000000E+00 0. -1.
         -2    1    1    2    0  503 -0.20620957970E+02 -0.10285998815E+02 -0.55148449979E+03  0.55196574095E+03  0.00000000000E+00 0.  1.
</event>
<event>
 4    1  0.1762646E+004  0.2348749E+02  0.7546771E-02  0.1486466E+00
         21   -1    0    0  503  502  0.00000000000E+00  0.00000000000E+00  0.66873454939E+02  0.66873454939E+02  0.00000000000E+00 0.  1.
         21   -1    0    0  501  503 -0.00000000000E+00 -0.00000000000E+00 -0.94177666148E+01  0.94177666148E+01  0.00000000000E+00 0. -1.
          2    1    1    2  501    0  0.23168932930E+02  0.38552452449E+01  0.15291845997E+02  0.28026825061E+02  0.00000000000E+00 0. -1.
         -2    1    1    2    0  502 -0.23168932930E+02 -0.38552452449E+01  0.42163842327E+02  0.48264396493E+02  0.00000000000E+00 0.  1.
</event>
<event>
 4    1  0.1762646E+004  0.3035986E+02  0.7546771E-02  0.1416495E+00
         21   -1    0    0  503  502  0.00000000000E+00  0.00000000000E+00  0.29042957774E+03  0.29042957774E+03  0.00000000000E+00 0.  1.
         21   -1    0    0  501  503 -0.00000000000E+00 -0.00000000000E+00 -0.74464725070E+01  0.74464725070E+01  0.00000000000E+00 0. -1.
          2    1    1    2  501    0 -0.22387779179E+02 -0.20506299089E+02  0.28671090480E+02  0.41758261317E+02  0.00000000000E+00 0. -1.
         -2    1    1    2    0  502  0.22387779179E+02  0.20506299089E+02  0.25431201475E+03  0.25611778893E+03  0.00000000000E+00 0.  1.
</event>
<event>
 4    1  0.1762646E+004  0.2156980E+02  0.7546771E-02  0.1511283E+00
         21   -1    0    0  501  502  0.00000000000E+00  0.00000000000E+00  0.26973840480E+02  0.26973840480E+02  0.00000000000E+00 0.  1.
         21   -1    0    0  502  503 -0.00000000000E+00 -0.00000000000E+00 -0.27322348136E+02  0.27322348136E+02  0.00000000000E+00 0. -1.
          2    1    1    2  501    0 -0.13266436883E+02  0.17007579402E+02  0.16310398156E+02  0.27042285271E+02  0.00000000000E+00 0.  1.
         -2    1    1    2    0  503  0.13266436883E+02 -0.17007579402E+02 -0.16658905812E+02  0.27253903345E+02  0.00000000000E+00 0. -1.
</event>
<event>
 4    1  0.1762646E+004  0.2327287E+02  0.7546771E-02  0.1489100E+00
         21   -1    0    0  501  502  0.00000000000E+00  0.00000000000E+00  0.51079870086E+02  0.51079870086E+02  0.00000000000E+00 0.  1.
         21   -1    0    0  502  503 -0.00000000000E+00 -0.00000000000E+00 -0.16376223166E+02  0.16376223166E+02  0.00000000000E+00 0. -1.
          2    1    1    2  501    0 -0.48818156142E+00 -0.23267747403E+02  0.37376889343E+02  0.44030196995E+02  0.00000000000E+00 0.  1.
         -2    1    1    2    0  503  0.48818156142E+00  0.23267747403E+02 -0.26732424226E+01  0.23425896258E+02  0.00000000000E+00 0. -1.
</event>
<event>
 4    1  0.1762646E+004  0.2059798E+02  0.7546771E-02  0.1525083E+00
         21   -1    0    0  501  502  0.00000000000E+00  0.00000000000E+00  0.88988512131E+00  0.88988512131E+00  0.00000000000E+00 0.  1.
         21   -1    0    0  502  503 -0.00000000000E+00 -0.00000000000E+00 -0.15794344001E+04  0.15794344001E+04  0.00000000000E+00 0. -1.
          2    1    1    2  501    0 -0.12944451478E+02 -0.16022420786E+02 -0.12905676245E+03  0.13069018603E+03  0.00000000000E+00 0.  1.
         -2    1    1    2    0  503  0.12944451478E+02  0.16022420786E+02 -0.14494877525E+04  0.14496340992E+04  0.00000000000E+00 0. -1.
</event>
<event>
 4    1  0.1762646E+004  0.3189732E+02  0.7546771E-02  0.1403795E+00
         21   -1    0    0  503  502  0.00000000000E+00  0.00000000000E+00  0.26973916388E+03  0.26973916388E+03  0.00000000000E+00 0. -1.
         21   -1    0    0  501  503 -0.00000000000E+00 -0.00000000000E+00 -0.13642089996E+02  0.13642089996E+02  0.00000000000E+00 0.  1.
          2    1    1    2  501    0 -0.31502239972E+02 -0.50047569107E+01  0.75275600540E+01  0.32773508743E+02  0.00000000000E+00 0.  1.
         -2    1    1    2    0  502  0.31502239972E+02  0.50047569107E+01  0.24856951383E+03  0.25060774513E+03  0.00000000000E+00 0. -1.
</event>
<event>
 4    1  0.1762646E+004  0.3599938E+02  0.7546771E-02  0.1373670E+00
         21   -1    0    0  501  502  0.00000000000E+00  0.00000000000E+00  0.12567577002E+02  0.12567577002E+02  0.00000000000E+00 0. -1.
         21   -1    0    0  502  503 -0.00000000000E+00 -0.00000000000E+00 -0.28656761720E+03  0.28656761720E+03  0.00000000000E+00 0.  1.
          2    1    1    2  501    0 -0.17281521699E+02 -0.31580123645E+02 -0.17331132474E+02  0.39954015499E+02  0.00000000000E+00 0. -1.
         -2    1    1    2    0  503  0.17281521699E+02  0.31580123645E+02 -0.25666890772E+03  0.25918117870E+03  0.00000000000E+00 0.  1.
</event>
<event>
 4    1  0.1762646E+004  0.2076166E+02  0.7546771E-02  0.1522695E+00
         21   -1    0    0  501  502  0.00000000000E+00  0.00000000000E+00  0.15012095369E+03  0.15012095369E+03  0.00000000000E+00 0. -1.
         21   -1    0    0  502  503 -0.00000000000E+00 -0.00000000000E+00 -0.48053518480E+01  0.48053518480E+01  0.00000000000E+00 0.  1.
          2    1    1    2  501    0 -0.18091566969E+02  0.10185368798E+02  0.12180100391E+03  0.12355780463E+03  0.00000000000E+00 0. -1.
         -2    1    1    2    0  503  0.18091566969E+02 -0.10185368798E+02  0.23514597931E+02  0.31368500902E+02  0.00000000000E+00 0.  1.
</event>
<event>
 4    1  0.1762646E+004  0.2101782E+02  0.7546771E-02  0.1519010E+00
         21   -1    0    0  501  502  0.00000000000E+00  0.00000000000E+00  0.19588883372E+02  0.19588883372E+02  0.00000000000E+00 0. -1.
         21   -1    0    0  502  503 -0.00000000000E+00 -0.00000000000E+00 -0.27601717149E+02  0.27601717149E+02  0.00000000000E+00 0.  1.
          2    1    1    2  501    0  0.20738513620E+02  0.34150791556E+01  0.60869117024E+01  0.21881480912E+02  0.00000000000E+00 0. -1.
         -2    1    1    2    0  503 -0.20738513620E+02 -0.34150791556E+01 -0.14099745479E+02  0.25309119609E+02  0.00000000000E+00 0.  1.
</event>
<event>
 4    1  0.1762646E+004  0.4502635E+02  0.7546771E-02  0.1321308E+00
         21   -1    0    0  503  502  0.00000000000E+00  0.00000000000E+00  0.14159084881E+02  0.14159084881E+02  0.00000000000E+00 0. -1.
         21   -1    0    0  501  503 -0.00000000000E+00 -0.00000000000E+00 -0.24045520858E+03  0.24045520858E+03  0.00000000000E+00 0.  1.
          2    1    1    2  501    0 -0.44952727922E+02 -0.25738150943E+01 -0.19411822790E+03  0.19927182107E+03  0.00000000000E+00 0.  1.
         -2    1    1    2    0  502  0.44952727922E+02  0.25738150943E+01 -0.32177895801E+02  0.55342472388E+02  0.00000000000E+00 0. -1.
</event>
<event>
 4    1  0.1762646E+004  0.2131482E+02  0.7546771E-02  0.1514817E+00
         21   -1    0    0  501  502  0.00000000000E+00  0.00000000000E+00  0.11842876433E+03  0.11842876433E+03  0.00000000000E+00 0.  1.
         21   -1    0    0  502  503 -0.00000000000E+00 -0.00000000000E+00 -0.91843700657E+01  0.91843700657E+01  0.00000000000E+00 0. -1.
          2    1    1    2  501    0 -0.44657536360E+01  0.20841746650E+02  0.10331240247E+03  0.10548826410E+03  0.00000000000E+00 0.  1.
         -2    1    1    2    0  503  0.44657536360E+01 -0.20841746650E+02  0.59319917964E+01  0.22124870297E+02  0.00000000000E+00 0. -1.
</event>
<event>
 4    1  0.1762646E+004  0.3517490E+02  0.7546771E-02  0.1379338E+00
         21   -1    0    0  503  502  0.00000000000E+00  0.00000000000E+00  0.72596294415E+02  0.72596294415E+02  0.00000000000E+00 0.  1.
         21   -1    0    0  501  503 -0.00000000000E+00 -0.00000000000E+00 -0.82643809047E+02  0.82643809047E+02  0.00000000000E+00 0. -1.
          2    1    1    2  501    0  0.24059964218E+02 -0.25659151041E+02 -0.74178611001E+02  0.82095920973E+02  0.00000000000E+00 0. -1.
         -2    1    1    2    0  502 -0.24059964218E+02  0.25659151041E+02  0.64131096370E+02  0.73144182489E+02  0.00000000000E+00 0.  1.
</event>
<event>
 4    1  0.1762646E+004  0.2945541E+02  0.7546771E-02  0.1424389E+00
         21   -1    0    0  501  502  0.00000000000E+00  0.00000000000E+00  0.38653143550E+02  0.38653143550E+02  0.00000000000E+00 0. -1.
         21   -1    0    0  502  503 -0.00000000000E+00 -0.00000000000E+00 -0.22591021418E+02  0.22591021418E+02  0.00000000000E+00 0.  1.
          2    1    1    2  501    0 -0.15906127425E+02 -0.24791459911E+02  0.10481715184E+02  0.31264800133E+02  0.00000000000E+00 0.  1.
         -2    1    1    2    0  503  0.15906127425E+02  0.24791459911E+02  0.55804069482E+01  0.29979364835E+02  0.00000000000E+00 0. -1.
</event>
<event>
 4    1  0.1762646E+004  0.3119217E+02  0.7546771E-02  0.1409512E+00
         21   -1    0    0  503  502  0.00000000000E+00  0.00000000000E+00  0.21059002858E+02  0.21059002858E+02  0.00000000000E+00 0.  1.
         21   -1    0    0  501  503 -0.00000000000E+00 -0.00000000000E+00 -0.58609676571E+02  0.58609676571E+02  0.00000000000E+00 0. -1.
          2    1    1    2  501    0 -0.25402358927E+02  0.18101710308E+02 -0.37104039858E+02  0.48473307386E+02  0.00000000000E+00 0. -1.
         -2    1    1    2    0  502  0.25402358927E+02 -0.18101710308E+02 -0.44663385469E+00  0.31195372044E+02  0.00000000000E+00 0.  1.
</event>
<event>
 4    1  0.1762646E+004  0.2109073E+02  0.7546771E-02  0.1517973E+00
         21   -1    0    0  501  502  0.00000000000E+00  0.00000000000E+00  0.12312942545E+03  0.12312942545E+03  0.00000000000E+00 0.  1.
         21   -1    0    0  502  503 -0.00000000000E+00 -0.00000000000E+00 -0.42720194376E+01  0.42720194376E+01  0.00000000000E+00 0. -1.
          2    1    1    2  501    0 -0.10641820833E+02  0.18209081742E+02  0.84455439296E+02  0.87049067974E+02  0.00000000000E+00 0.  1.
         -2    1    1    2    0  503  0.10641820833E+02 -0.18209081742E+02  0.34401966711E+02  0.40352376908E+02  0.00000000000E+00 0. -1.
</event>
<event>
 4    1  0.1762646E+004  0.2067815E+02  0.7546771E-02  0.1523910E+00
         21   -1    0    0  501  502  0.00000000000E+00  0.00000000000E+00  0.14255952481E+03  0.14255952481E+03  0.00000000000E+00 0. -1.
         21   -1    0    0  502  503 -0.00000000000E+00 -0.00000000000E+00 -0.11957374594E+02  0.11957374594E+02  0.00000000000E+00 0.  1.
          2    1    1    2  501    0 -0.84009463051E+00  0.20661074004E+02  0.13217152212E+03  0.13377928464E+03  0.00000000000E+00 0. -1.
         -2    1    1    2    0  503  0.84009463051E+00 -0.20661074004E+02 -0.15693719071E+01  0.20737614766E+02  0.00000000000E+00 0.  1.
</event>
<event>
 4    1  0.1762646E+004  0.2594266E+02  0.7546771E-02  0.1458528E+00
         21   -1    0    0  503  502  0.00000000000E+00  0.00000000000E+00  0.91660039816E+02  0.91660039816E+02  0.00000000000E+00 0.  1.
         21   -1    0    0  501  503 -0.00000000000E+00 -0.00000000000E+00 -0.14786903704E+02  0.14786903704E+02  0.00000000000E+00 0. -1.
          2    1    1    2  501    0 -0.70085165675E+01  0.24978037453E+02  0.67264984482E+00  0.25951379873E+02  0.00000000000E+00 0. -1.
         -2    1    1    2    0  502  0.70085165675E+01 -0.24978037453E+02  0.76200486268E+02  0.80495563647E+02  0.00000000000E+00 0.  1.
</event>
<event>
 4    1  0.1762646E+004  0.2566599E+02  0.7546771E-02  0.1461489E+00
         21   -1    0    0  501  502  0.00000000000E+00  0.00000000000E+00  0.67033551434E+02  0.67033551434E+02  0.00000000000E+00 0.  1.
         21   -1    0    0  502  503 -0.00000000000E+00 -0.00000000000E+00 -0.33366162910E+02  0.33366162910E+02  0.00000000000E+00 0. -1.
          2    1    1    2  501    0  0.16384538269E+02 -0.19755755983E+02  0.58997933322E+02  0.64338939415E+02  0.00000000000E+00 0.  1.
         -2    1    1    2    0  503 -0.16384538269E+02  0.19755755983E+02 -0.25330544798E+02  0.36060774929E+02  0.00000000000E+00 0. -1.
</event>
<event>
 4    1  0.1762646E+004  0.2697462E+02  0.7546771E-02  0.1447863E+00
         21   -1    0    0  503  502  0.00000000000E+00  0.00000000000E+00  0.25407957857E+02  0.25407957857E+02  0.00000000000E+00 0.  1.
         21   -1    0    0  501  503 -0.00000000000E+00 -0.00000000000E+00 -0.45948444427E+02  0.45948444427E+02  0.00000000000E+00 0. -1.
          2    1    1    2  501    0 -0.16010154432E+02 -0.21709566964E+02 -0.32169179165E+02  0.41981977453E+02  0.00000000000E+00 0. -1.
         -2    1    1    2    0  502  0.16010154432E+02  0.21709566964E+02  0.11628692595E+02  0.29374424831E+02  0.00000000000E+00 0.  1.
</event>
<event>
 4    1  0.1762646E+004  0.2595525E+02  0.7546771E-02  0.1458395E+00
         21   -1    0    0  503  502  0.00000000000E+00  0.00000000000E+00  0.24068851617E+02  0.24068851617E+02  0.00000000000E+00 0.  1.
         21   -1    0    0  501  503 -0.00000000000E+00 -0.00000000000E+00 -0.15341442828E+03  0.15341442828E+03  0.00000000000E+00 0. -1.
          2    1    1    2  501    0 -0.90778660838E+01  0.24315985716E+02 -0.14491193476E+03  0.14721801402E+03  0.00000000000E+00 0. -1.
         -2    1    1    2    0  502  0.90778660838E+01 -0.24315985716E+02  0.15566358104E+02  0.30265265877E+02  0.00000000000E+00 0.  1.
</event>
<event>
 4    1  0.1762646E+004  0.2514391E+02  0.7546771E-02  0.1467200E+00
         21   -1    0    0  501  502  0.00000000000E+00  0.00000000000E+00  0.53879950955E+02  0.53879950955E+02  0.00000000000E+00 0. -1.
         21   -1    0    0  502  503 -0.00000000000E+00 -0.00000000000E+00 -0.12631394092E+02  0.12631394092E+02  0.00000000000E+00 0.  1.
          2    1    1    2  501    0 -0.18827265263E+02  0.16665847942E+02  0.29489320879E+02  0.38753534688E+02  0.00000000000E+00 0. -1.
         -2    1    1    2    0  503  0.18827265263E+02 -0.16665847942E+02  0.11759235984E+02  0.27757810358E+02  0.00000000000E+00 0.  1.
</event>
<event>
 4    1  0.1762646E+004  0.2114744E+02  0.7546771E-02  0.1517170E+00
         21   -1    0    0  503  502  0.00000000000E+00  0.00000000000E+00  0.19898241160E+02  0.19898241160E+02  0.00000000000E+00 0. -1.
         21   -1    0    0  501  503 -0.00000000000E+00 -0.00000000000E+00 -0.50703867322E+02  0.50703867322E+02  0.00000000000E+00 0.  1.
          2    1    1    2  501    0 -0.20690532885E+02 -0.43722141891E+01 -0.41742663429E+02  0.46793849576E+02  0.00000000000E+00 0.  1.
         -2    1    1    2    0  502  0.20690532885E+02  0.43722141891E+01  0.10937037267E+02  0.23808258907E+02  0.00000000000E+00 0. -1.
</event>
<event>
 4    1  0.1762646E+004  0.2244250E+02  0.7546771E-02  0.1499620E+00
         21   -1    0    0  501  502  0.00000000000E+00  0.00000000000E+00  0.11059940670E+02  0.11059940670E+02  0.00000000000E+00 0.  1.
         21   -1    0    0  502  503 -0.00000000000E+00 -0.00000000000E+00 -0.51975977608E+02  0.51975977608E+02  0.00000000000E+00 0. -1.
          2    1    1    2  501    0  0.95908093694E+01  0.20289950552E+02 -0.31549157751E+02  0.38717116016E+02  0.00000000000E+00 0. -1.
         -2    1    1    2    0  503 -0.95908093694E+01 -0.20289950552E+02 -0.93668791867E+01  0.24318802262E+02  0.00000000000E+00 0.  1.
</event>
<event>
 4    1  0.1762646E+004  0.2564961E+02  0.7546771E-02  0.1461666E+00
         21   -1    0    0  501  502  0.00000000000E+00  0.00000000000E+00  0.49522867124E+01  0.49522867124E+01  0.00000000000E+00 0. -1.
         21   -1    0    0  502  503 -0.00000000000E+00 -0.00000000000E+00 -0.19001493991E+03  0.19001493991E+03  0.00000000000E+00 0.  1.
          2    1    1    2  501    0  0.21893270261E+02  0.13363651103E+02 -0.14600122972E+03  0.14823718000E+03  0.00000000000E+00 0.  1.
         -2    1    1    2    0  503 -0.21893270261E+02 -0.13363651103E+02 -0.39061423473E+02  0.46730046622E+02  0.00000000000E+00 0. -1.
</event>
<event>
 4    1  0.1762646E+004  0.2538130E+02  0.7546771E-02  0.1464583E+00
         21   -1    0    0  503  502  0.00000000000E+00  0.00000000000E+00  0.31287616207E+02  0.31287616207E+02  0.00000000000E+00 0.  1.
         21   -1    0    0  501  503 -0.00000000000E+00 -0.00000000000E+00 -0.43155537016E+02  0.43155537016E+02  0.00000000000E+00 0. -1.
          2    1    1    2  501    0 -0.52873195064E+01  0.24824478389E+02 -0.32849296877E+02  0.41512489448E+02  0.00000000000E+00 0. -1.
         -2    1    1    2    0  502  0.52873195064E+01 -0.24824478389E+02  0.20981376068E+02  0.32930663774E+02  0.00000000000E+00 0.  1.
</event>
<event>
 4    1  0.1762646E+004  0.2557761E+02  0.7546771E-02  0.1462444E+00
         21   -1    0    0  501  502  0.00000000000E+00  0.00000000000E+00  0.26939637748E+03  0.26939637748E+03  0.00000000000E+00 0.  1.
         21   -1    0    0  502  503 -0.00000000000E+00 -0.00000000000E+00 -0.27293780667E+01  0.27293780667E+01  0.00000000000E+00 0. -1.
          2    1    1    2  501    0 -0.68885477956E+01 -0.24632544655E+02  0.17851312197E+03  0.18033621118E+03  0.00000000000E+00 0. -1.
         -2    1    1    2    0  503  0.68885477956E+01  0.24632544655E+02  0.88153877441E+02  0.91789544365E+02  0.00000000000E+00 0.  1.
</event>
<event>
 4    1  0.1762646E+004  0.2404887E+02  0.7546771E-02  0.1479731E+00
         21   -1    0    0  501  502  0.00000000000E+00  0.00000000000E+00  0.48968613960E+02  0.48968613960E+02  0.00000000000E+00 0. -1.
         21   -1    0    0  502  503 -0.00000000000E+00 -0.00000000000E+00 -0.17320082790E+02  0.17320082790E+02  0.00000000000E+00 0.  1.
          2    1    1    2  501    0 -0.21766863707E+02 -0.10225052996E+02  0.34517757737E+02  0.42069272202E+02  0.00000000000E+00 0. -1.
         -2    1    1    2    0  503  0.21766863707E+02  0.10225052996E+02 -0.28692265668E+01  0.24219424549E+02  0.00000000000E+00 0.  1.
</event>
<event>
 4    1  0.1762646E+004  0.3962650E+02  0.7546771E-02  0.1350688E+00
         21   -1    0    0  503  502  0.00000000000E+00  0.00000000000E+00  0.16756667408E+04  0.16756667408E+04  0.00000000000E+00 0. -1.
         21   -1    0    0  501  503 -0.00000000000E+00 -0.00000000000E+00 -0.94648619880E+00  0.94648619880E+00  0.00000000000E+00 0.  1.
          2    1    1    2  501    0 -0.36259108652E+02 -0.15985512768E+02  0.75385805799E+03  0.75489882181E+03  0.00000000000E+00 0.  1.
         -2    1    1    2    0  502  0.36259108652E+02  0.15985512768E+02  0.92086219661E+03  0.92171440518E+03  0.00000000000E+00 0. -1.
</event>
<event>
 4    1  0.1762646E+004  0.2712540E+02  0.7546771E-02  0.1446352E+00
         21   -1    0    0  503  502  0.00000000000E+00  0.00000000000E+00  0.16614719456E+02  0.16614719456E+02  0.00000000000E+00 0.  1.
         21   -1    0    0  501  503 -0.00000000000E+00 -0.00000000000E+00 -0.10729671943E+03  0.10729671943E+03  0.00000000000E+00 0. -1.
          2    1    1    2  501    0 -0.25655102179E+02  0.88092646766E+01 -0.92819599714E+02  0.96701941568E+02  0.00000000000E+00 0. -1.
         -2    1    1    2    0  502  0.25655102179E+02 -0.88092646766E+01  0.21375997346E+01  0.27209497323E+02  0.00000000000E+00 0.  1.
</event>
<event>
 4    1  0.1762646E+004  0.2271288E+02  0.7546771E-02  0.1496135E+00
         21   -1    0    0  503  502  0.00000000000E+00  0.00000000000E+00  0.42419045097E+03  0.42419045097E+03  0.00000000000E+00 0.  1.
         21   -1    0    0  501  503 -0.00000000000E+00 -0.00000000000E+00 -0.22113151380E+01  0.22113151380E+01  0.00000000000E+00 0. -1.
          2    1    1    2  501    0  0.13623147434E+02  0.18173735983E+02  0.67964054506E+02  0.71658827304E+02  0.00000000000E+00 0. -1.
         -2    1    1    2    0  502 -0.13623147434E+02 -0.18173735983E+02  0.35401508132E+03  0.35474293880E+03  0.00000000000E+00 0.  1.
</event>
<event>
 4    1  0.1762646E+004  0.2809277E+02  0.7546771E-02  0.1436929E+00
         21   -1    0    0  501  502  0.00000000000E+00  0.00000000000E+00  0.13843789589E+04  0.13843789589E+04  0.00000000000E+00 0.  1.
         21   -1    0    0  502  503 -0.00000000000E+00 -0.00000000000E+00 -0.16849704710E+01  0.16849704710E+01  0.00000000000E+00 0. -1.
          2    1    1    2  501    0 -0.76748588309E+01  0.27024067134E+02  0.12550802506E+04  0.12553946149E+04  0.00000000000E+00 0.  1.
         -2    1    1    2    0  503  0.76748588309E+01 -0.27024067134E+02  0.12761373778E+03  0.13066931443E+03  0.00000000000E+00 0. -1.
</event>
<event>
 4    1  0.1762646E+004  0.3223151E+02  0.7546771E-02  0.1401146E+00
         21   -1    0    0  503  502  0.00000000000E+00  0.00000000000E+00  0.51039877558E+02  0.51039877558E+02  0.00000000000E+00 0.  1.
         21   -1    0    0  501  503 -0.00000000000E+00 -0.00000000000E+00 -0.29126908860E+02  0.29126908860E+02  0.00000000000E+00 0. -1.
          2    1    1    2  501    0 -0.26815681383E+02  0.17882656096E+02 -0.11041703805E+02  0.34070359259E+02  0.00000000000E+00 0. -1.
         -2    1    1    2    0  502  0.26815681383E+02 -0.17882656096E+02  0.32954672502E+02  0.46096427159E+02  0.00000000000E+00 0.  1.
</event>
<event>
 4    1  0.1762646E+004  0.2190979E+02  0.7546771E-02  0.1506661E+00
         21   -1    0    0  503  502  0.00000000000E+00  0.00000000000E+00  0.10041924396E+02  0.10041924396E+02  0.00000000000E+00 0.  1.
         21   -1    0    0  501  503 -0.00000000000E+00 -0.00000000000E+00 -0.10281562316E+03  0.10281562316E+03  0.00000000000E+00 0. -1.
          2    1    1    2  501    0 -0.12120349498E+02 -0.18252013854E+02 -0.87663111242E+02  0.90359614620E+02  0.00000000000E+00 0. -1.
         -2    1    1    2    0  502  0.12120349498E+02  0.18252013854E+02 -0.51105875259E+01  0.22497932939E+02  0.00000000000E+00 0.  1.
</event>
<event>
 4    1  0.1762646E+004  0.2298152E+02  0.7546771E-02  0.1492730E+00
         21   -1    0    0  501  502  0.00000000000E+00  0.00000000000E+00  0.17194955919E+03  0.17194955919E+03  0.00000000000E+00 0. -1.
         21   -1    0    0  502  503 -0.00000000000E+00 -0.00000000000E+00 -0.39405316560E+01  0.39405316560E+01  0.00000000000E+00 0.  1.
          2    1    1    2  501    0 -0.22942008776E+02  0.13470564776E+01  0.12530367390E+03  0.12739372442E+03  0.00000000000E+00 0.  1.
         -2    1    1    2    0  503  0.22942008776E+02 -0.13470564776E+01  0.42705353630E+02  0.48496366426E+02  0.00000000000E+00 0. -1.
</event>
<event>
 4    1  0.1762646E+004  0.2578335E+02  0.7546771E-02  0.1460228E+00
         21   -1    0    0  501  502  0.00000000000E+00  0.00000000000E+00  0.74812494804E+02  0.74812494804E+02  0.00000000000E+00 0.  1.
         21   -1    0    0  502  503 -0.00000000000E+00 -0.00000000000E+00 -0.13384399167E+02  0.13384399167E+02  0.00000000000E+00 0. -1.
          2    1    1    2  501    0  0.17691151340E+02  0.18756448934E+02  0.56279562385E+02  0.61904526124E+02  0.00000000000E+00 0.  1.
         -2    1    1    2    0  503 -0.17691151340E+02 -0.18756448934E+02  0.51485332522E+01  0.26292367847E+02  0.00000000000E+00 0. -1.
</event>
<event>
 4    1  0.1762646E+004  0.2557023E+02  0.7546771E-02  0.1462524E+00
         21   -1    0    0  501  502  0.00000000000E+00  0.00000000000E+00  0.14254151341E+01  0.14254151341E+01  0.00000000000E+00 0.  1.
         21   -1    0    0  502  503 -0.00000000000E+00 -0.00000000000E+00 -0.48888055871E+03  0.48888055871E+03  0.00000000000E+00 0. -1.
          2    1    1    2  501    0  0.24958330198E+02  0.55604263518E+01 -0.18281510618E+03  0.18459469016E+03  0.00000000000E+00 0.  1.
         -2    1    1    2    0  503 -0.24958330198E+02 -0.55604263518E+01 -0.30464003739E+03  0.30571128368E+03  0.00000000000E+00 0. -1.
</event>
<event>
 4    1  0.1762646E+004  0.2591238E+02  0.7546771E-02  0.1458850E+00
         21   -1    0    0  501  502  0.00000000000E+00  0.00000000000E+00  0.11820887889E+03  0.11820887889E+03  0.00000000000E+00 0.  1.
         21   -1    0    0  502  503 -0.00000000000E+00 -0.00000000000E+00 -0.72632073852E+01  0.72632073852E+01  0.00000000000E+00 0. -1.
          2    1    1    2  501    0  0.24649299384E+02  0.79914645314E+01  0.84761040833E+02  0.88633433356E+02  0.00000000000E+00 0. -1.
         -2    1    1    2    0  503 -0.24649299384E+02 -0.79914645314E+01  0.26184630674E+02  0.36838652921E+02  0.00000000000E+00 0.  1.
</event>
<event>
 4    1  0.1762646E+004  0.2111366E+02  0.7546771E-02  0.1517648E+00
         21   -1    0    0  501  502  0.00000000000E+00  0.00000000000E+00  0.62238984011E+02  0.62238984011E+02  0.00000000000E+00 0.  1.
         21   -1    0    0  502  503 -0.00000000000E+00 -0.00000000000E+00 -0.11298491105E+02  0.11298491105E+02  0.00000000000E+00 0. -1.
          2    1    1    2  501    0  0.19573396209E+02  0.79163695103E+01  0.47716571264E+02  0.52179094650E+02  0.00000000000E+00 0.  1.
         -2    1    1    2    0  503 -0.19573396209E+02 -0.79163695103E+01  0.32239216428E+01  0.21358380466E+02  0.00000000000E+00 0. -1.
</event>
<event>
 4    1  0.1762646E+004  0.2837539E+02  0.7546771E-02  0.1434261E+00
         21   -1    0    0  503  502  0.00000000000E+00  0.00000000000E+00  0.93010752901E+01  0.93010752901E+01  0.00000000000E+00 0.  1.
         21   -1    0    0  501  503 -0.00000000000E+00 -0.00000000000E+00 -0.15800160196E+03  0.15800160196E+03  0.00000000000E+00 0. -1.
          2    1    1    2  501    0  0.28337338112E+02  0.14689288413E+01 -0.13059704452E+03  0.13364411892E+03  0.00000000000E+00 0. -1.
         -2    1    1    2    0  502 -0.28337338112E+02 -0.14689288413E+01 -0.18103482149E+02  0.33658558334E+02  0.00000000000E+00 0.  1.
</event>
<event>
 4    1  0.1762646E+004  0.2002598E+02  0.7546771E-02  0.1533639E+00
         21   -1    0    0  501  502  0.00000000000E+00  0.00000000000E+00  0.35914373160E+01  0.35914373160E+01  0.00000000000E+00 0. -1.
         21   -1    0    0  502  503 -0.00000000000E+00 -0.00000000000E+00 -0.11379849709E+03  0.11379849709E+03  0.00000000000E+00 0.  1.
          2    1    1    2  501    0 -0.77228692784E+01 -0.18476935607E+02 -0.47067868682E+02  0.51150993359E+02  0.00000000000E+00 0. -1.
         -2    1    1    2    0  503  0.77228692784E+01  0.18476935607E+02 -0.63139191091E+02  0.66238941046E+02  0.00000000000E+00 0.  1.
</event>
<event>
 4    1  0.1762646E+004  0.2119543E+02  0.7546771E-02  0.1516493E+00
         21   -1    0    0  503  502  0.00000000000E+00  0.00000000000E+00  0.51798310086E+02  0.51798310086E+02  0.00000000000E+00 0. -1.
         21   -1    0    0  501  503 -0.00000000000E+00 -0.00000000000E+00 -0.91793732832E+01  0.91793732832E+01  0.00000000000E+00 0.  1.
          2    1    1    2  501    0  0.13511335752E+02 -0.16330653014E+02  0.14148488331E+02  0.25483840835E+02  0.00000000000E+00 0.  1.
         -2    1    1    2    0  502 -0.13511335752E+02  0.16330653014E+02  0.28470448471E+02  0.35493842534E+02  0.00000000000E+00 0. -1.
</event>
<event>
 4    1  0.1762646E+004  0.2828455E+02  0.7546771E-02  0.1435114E+00
         21   -1    0    0  501  502  0.00000000000E+00  0.00000000000E+00  0.15130682867E+02  0.15130682867E+02  0.00000000000E+00 0. -1.
         21   -1    0    0  502  503 -0.00000000000E+00 -0.00000000000E+00 -0.63619896237E+02  0.63619896237E+02  0.00000000000E+00 0.  1.
          2    1    1    2  501    0  0.58691852377E+01 -0.27668906273E+02 -0.40427417882E+02  0.49339556406E+02  0.00000000000E+00 0.  1.
         -2    1    1    2    0  503 -0.58691852377E+01  0.27668906273E+02 -0.80617954882E+01  0.29411022699E+02  0.00000000000E+00 0. -1.
</event>
<event>
 4    1  0.1762646E+004  0.2098890E+02  0.7546771E-02  0.1519423E+00
         21   -1    0    0  501  502  0.00000000000E+00  0.00000000000E+00  0.33396434339E+01  0.33396434339E+01  0.00000000000E+00 0. -1.
         21   -1    0    0  502  503 -0.00000000000E+00 -0.00000000000E+00 -0.14489868918E+03  0.14489868918E+03  0.00000000000E+00 0.  1.
          2    1    1    2  501    0 -0.17652679299E+02  0.11354155346E+02 -0.48588714324E+02  0.52928225832E+02  0.00000000000E+00 0.  1.
         -2    1    1    2    0  503  0.17652679299E+02 -0.11354155346E+02 -0.92970331422E+02  0.95310106781E+02  0.00000000000E+00 0. -1.
</event>
<event>
 4    1  0.1762646E+004  0.2412342E+02  0.7546771E-02  0.1478853E+00
         21   -1    0    0  503  502  0.00000000000E+00  0.00000000000E+00  0.40892044484E+02  0.40892044484E+02  0.00000000000E+00 0.  1.
         21   -1    0    0  501  503 -0.00000000000E+00 -0.00000000000E+00 -0.16929983424E+02  0.16929983424E+02  0.00000000000E+00 0. -1.
          2    1    1    2  501    0  0.24118816281E+02  0.47135247613E+00  0.43784311225E+00  0.24127394774E+02  0.00000000000E+00 0. -1.
         -2    1    1    2    0  502 -0.24118816281E+02 -0.47135247613E+00  0.23524217948E+02  0.33694633134E+02  0.00000000000E+00 0.  1.
</event>
<event>
 4    1  0.1762646E+004  0.2665601E+02  0.7546771E-02  0.1451094E+00
         21   -1    0    0  501  502  0.00000000000E+00  0.00000000000E+00  0.75509439496E+02  0.75509439496E+02  0.00000000000E+00 0. -1.
         21   -1    0    0  502  503 -0.00000000000E+00 -0.00000000000E+00 -0.94463689339E+01  0.94463689339E+01  0.00000000000E+00 0.  1.
          2    1    1    2  501    0  0.11467855108E+02 -0.24063065005E+02  0.35667727924E+02  0.44527852109E+02  0.00000000000E+00 0. -1.
         -2    1    1    2    0  503 -0.11467855108E+02  0.24063065005E+02  0.30395342638E+02  0.40427956321E+02  0.00000000000E+00 0.  1.
</event>
<event>
 4    1  0.1762646E+004  0.2928158E+02  0.7546771E-02  0.1425944E+00
         21   -1    0    0  501  502  0.00000000000E+00  0.00000000000E+00  0.73734573807E+01  0.73734573807E+01  0.00000000000E+00 0.  1.
         21   -1    0    0  502  503 -0.00000000000E+00 -0.00000000000E+00 -0.30178741494E+03  0.30178741494E+03  0.00000000000E+00 0. -1.
          2    1    1    2  501    0 -0.23877516112E+02 -0.16949184985E+02 -0.26013115368E+02  0.39167496964E+02  0.00000000000E+00 0.  1.
         -2    1    1    2    0  503  0.23877516112E+02  0.16949184985E+02 -0.26840084219E+03  0.26999337535E+03  0.00000000000E+00 0. -1.
</event>
<event>
 4    1  0.1762646E+004  0.2388500E+02  0.7546771E-02  0.1481674E+00
         21   -1    0    0  503  502  0.00000000000E+00  0.00000000000E+00  0.66915502817E+02  0.66915502817E+02  0.00000000000E+00 0. -1.
         21   -1    0    0  501  503 -0.00000000000E+00 -0.00000000000E+00 -0.23893682049E+02  0.23893682049E+02  0.00000000000E+00 0.  1.
          2    1    1    2  501    0 -0.20759635596E+02  0.11812311936E+02 -0.14903092346E+02  0.28153069900E+02  0.00000000000E+00 0.  1.
         -2    1    1    2    0  502  0.20759635596E+02 -0.11812311936E+02  0.57924913114E+02  0.62656114966E+02  0.00000000000E+00 0. -1.
</event>
<event>
 4    1  0.1762646E+004  0.2312118E+02  0.7546771E-02  0.1490982E+00
         21   -1    0    0  501  502  0.00000000000E+00  0.00000000000E+00  0.40646746672E+02  0.40646746672E+02  0.00000000000E+00 0. -1.
         21   -1    0    0  502  503 -0.00000000000E+00 -0.00000000000E+00 -0.14090315745E+02  0.14090315745E+02  0.00000000000E+00 0.  1.
          2    1    1    2  501    0  0.79324112188E+01 -0.21717867142E+02  0.20340564582E+02  0.30794926018E+02  0.00000000000E+00 0. -1.
         -2    1    1    2    0  503 -0.79324112188E+01  0.21717867142E+02  0.62158663447E+01  0.23942136399E+02  0.00000000000E+00 0.  1.
</event>
<event>
 4    1  0.1762646E+004  0.2121679E+02  0.7546771E-02  0.1516192E+00
         21   -1    0    0  501  502  0.00000000000E+00  0.00000000000E+00  0.46905765590E+01  0.46905765590E+01  0.00000000000E+00 0. -1.
         21   -1    0    0  502  503 -0.00000000000E+00 -0.00000000000E+00 -0.22594668836E+03  0.22594668836E+03  0.00000000000E+00 0.  1.
          2    1    1    2  501    0  0.13832679113E+02 -0.16087543199E+02 -0.23163892962E+02  0.31412067662E+02  0.00000000000E+00 0. -1.
         -2    1    1    2    0  503 -0.13832679113E+02  0.16087543199E+02 -0.19809221884E+03  0.19922519726E+03  0.00000000000E+00 0.  1.
</event>
<event>
 4    1  0.1762646E+004  0.4081871E+02  0.7546771E-02  0.1343754E+00
         21   -1    0    0  503  502  0.00000000000E+00  0.00000000000E+00  0.56372477511E+02  0.56372477511E+02  0.00000000000E+00 0.  1.
         21   -1    0    0  501  503 -0.00000000000E+00 -0.00000000000E+00 -0.29745154853E+02  0.29745154853E+02  0.00000000000E+00 0. -1.
          2    1    1    2  501    0  0.18640454077E+02  0.36313912276E+02  0.98834714632E+01  0.41998211405E+02  0.00000000000E+00 0. -1.
         -2    1    1    2    0  502 -0.18640454077E+02 -0.36313912276E+02  0.16743851194E+02  0.44119420960E+02  0.00000000000E+00 0.  1.
</event>
<event>
 4    1  0.1762646E+004  0.2646942E+02  0.7546771E-02  0.1453012E+00
         21   -1    0    0  501  502  0.00000000000E+00  0.00000000000E+00  0.33643160053E+03  0.33643160053E+03  0.00000000000E+00 0.  1.
         21   -1    0    0  502  503 -0.00000000000E+00 -0.00000000000E+00 -0.23987403100E+01  0.23987403100E+01  0.00000000000E+00 0. -1.
          2    1    1    2  501    0  0.26464235886E+02  0.52401843048E+00  0.10550643650E+03  0.10877609351E+03  0.00000000000E+00 0. -1.
         -2    1    1    2    0  503 -0.26464235886E+02 -0.52401843048E+00  0.22852642373E+03  0.23005424734E+03  0.00000000000E+00 0.  1.
</event>
<event>
 4    1  0.1762646E+004  0.2110018E+02  0.7546771E-02  0.1517839E+00
         21   -1    0    0  501  502  0.00000000000E+00  0.00000000000E+00  0.64967162577E+02  0.64967162577E+02  0.00000000000E+00 0.  1.
         21   -1    0    0  502  503 -0.00000000000E+00 -0.00000000000E+00 -0.96541391753E+01  0.96541391753E+01  0.00000000000E+00 0. -1.
          2    1    1    2  501    0  0.21099460977E+02  0.17358551764E+00  0.47754216803E+02  0.52208070333E+02  0.00000000000E+00 0.  1.
         -2    1    1    2    0  503 -0.21099460977E+02 -0.17358551764E+00  0.75588065992E+01  0.22413231419E+02  0.00000000000E+00 0. -1.
</event>
<event>
 4    1  0.1762646E+004  0.2695947E+02  0.7546771E-02  0.1448016E+00
         21   -1    0    0  501  502  0.00000000000E+00  0.00000000000E+00  0.31215363153E+01  0.31215363153E+01  0.00000000000E+00 0.  1.
         21   -1    0    0  502  503 -0.00000000000E+00 -0.00000000000E+00 -0.43851691540E+03  0.43851691540E+03  0.00000000000E+00 0. -1.
          2    1    1    2  501    0 -0.23112383775E+02 -0.13879147190E+02 -0.66467552779E+02  0.71726902784E+02  0.00000000000E+00 0.  1.
         -2    1    1    2    0  503  0.23112383775E+02  0.13879147190E+02 -0.36892782631E+03  0.36991154893E+03  0.00000000000E+00 0. -1.
</event>
<event>
 4    1  0.1762646E+004  0.2524481E+02  0.7546771E-02  0.1466083E+00
         21   -1    0    0  503  502  0.00000000000E+00  0.00000000000E+00  0.17247466899E+03  0.17247466899E+03  0.00000000000E+00 0.  1.
         21   -1    0    0  501  503 -0.00000000000E+00 -0.00000000000E+00 -0.56437391729E+01  0.56437391729E+01  0.00000000000E+00 0. -1.
          2    1    1    2  501    0 -0.59585766437E+01 -0.24531521715E+02  0.31083368200E+02  0.40043426076E+02  0.00000000000E+00 0. -1.
         -2    1    1    2    0  502  0.59585766437E+01  0.24531521715E+02  0.13574756161E+03  0.13807498208E+03  0.00000000000E+00 0.  1.
</event>
<event>
 4    1  0.1762646E+004  0.2632805E+02  0.7546771E-02  0.1454477E+00
         21   -1    0    0  503  502  0.00000000000E+00  0.00000000000E+00  0.84973373981E+02  0.84973373981E+02  0.00000000000E+00 0.  1.
         21   -1    0    0  501  503 -0.00000000000E+00 -0.00000000000E+00 -0.16487260439E+02  0.16487260439E+02  0.00000000000E+00 0. -1.
          2    1    1    2  501    0  0.24155074848E+02 -0.10473699788E+02 -0.18157120719E+01  0.26390582383E+02  0.00000000000E+00 0. -1.
         -2    1    1    2    0  502 -0.24155074848E+02  0.10473699788E+02  0.70301825614E+02  0.75070052037E+02  0.00000000000E+00 0.  1.
</event>
<event>
 4    1  0.1762646E+004  0.2031882E+02  0.7546771E-02  0.1529217E+00
         21   -1    0    0  503  502  0.00000000000E+00  0.00000000000E+00  0.41140880127E+02  0.41140880127E+02  0.00000000000E+00 0. -1.
         21   -1    0    0  501  503 -0.00000000000E+00 -0.00000000000E+00 -0.12913215379E+02  0.12913215379E+02  0.00000000000E+00 0.  1.
          2    1    1    2  501    0 -0.11355878622E+02 -0.16849281184E+02  0.13543538058E+01  0.20363902621E+02  0.00000000000E+00 0. -1.
         -2    1    1    2    0  502  0.11355878622E+02  0.16849281184E+02  0.26873310942E+02  0.33690192886E+02  0.00000000000E+00 0.  1.
</event>
<event>
 4    1  0.1762646E+004  0.2107187E+02  0.7546771E-02  0.1518241E+00
         21   -1    0    0  501  502  0.00000000000E+00  0.00000000000E+00  0.24341269699E+02  0.24341269699E+02  0.00000000000E+00 0. -1.
         21   -1    0    0  502  503 -0.00000000000E+00 -0.00000000000E+00 -0.56854572858E+02  0.56854572858E+02  0.00000000000E+00 0.  1.
          2    1    1    2  501    0 -0.16958545676E+02  0.12507249711E+02  0.17200406362E+02  0.27200690172E+02  0.00000000000E+00 0. -1.
         -2    1    1    2    0  503  0.16958545676E+02 -0.12507249711E+02 -0.49713709521E+02  0.53995152385E+02  0.00000000000E+00 0.  1.
</event>
<event>
 4    1  0.1762646E+004  0.2549858E+02  0.7546771E-02  0.1463302E+00
         21   -1    0    0  503  502  0.00000000000E+00  0.00000000000E+00  0.13560271840E+03  0.13560271840E+03  0.00000000000E+00 0.  1.
         21   -1    0    0  501  503 -0.00000000000E+00 -0.00000000000E+00 -0.55066558140E+01  0.55066558140E+01  0.00000000000E+00 0. -1.
          2    1    1    2  501    0  0.24765493544E+02  0.60702413462E+01  0.39679148202E+02  0.47165795897E+02  0.00000000000E+00 0. -1.
         -2    1    1    2    0  502 -0.24765493544E+02 -0.60702413462E+01  0.90416914388E+02  0.93943578322E+02  0.00000000000E+00 0.  1.
</event>
<event>
 4    1  0.1762646E+004  0.2400661E+02  0.7546771E-02  0.1480231E+00
         21   -1    0    0  501  502  0.00000000000E+00  0.00000000000E+00  0.32589235640E+02  0.32589235640E+02  0.00000000000E+00 0. -1.
         21   -1    0    0  502  503 -0.00000000000E+00 -0.00000000000E+00 -0.19850274012E+02  0.19850274012E+02  0.00000000000E+00 0.  1.
          2    1    1    2  501    0 -0.12194972758E+02 -0.20678492363E+02  0.15030585026E+02  0.28323769050E+02  0.00000000000E+00 0. -1.
         -2    1    1    2    0  503  0.12194972758E+02  0.20678492363E+02 -0.22916233973E+01  0.24115740602E+02  0.00000000000E+00 0.  1.
</event>
<event>
 4    1  0.1762646E+004  0.2125373E+02  0.7546771E-02  0.1515673E+00
         21   -1    0    0  503  502  0.00000000000E+00  0.00000000000E+00  0.43734687894E+01  0.43734687894E+01  0.00000000000E+00 0.  1.
         21   -1    0    0  501  503 -0.00000000000E+00 -0.00000000000E+00 -0.10390721811E+03  0.10390721811E+03  0.00000000000E+00 0. -1.
          2    1    1    2  501    0  0.21023470929E+02 -0.31200537154E+01 -0.53950789889E+02  0.57986281090E+02  0.00000000000E+00 0.  1.
         -2    1    1    2    0  502 -0.21023470929E+02  0.31200537154E+01 -0.45582959429E+02  0.50294405806E+02  0.00000000000E+00 0. -1.
</event>
<event>
 4    1  0.1762646E+004  0.2305344E+02  0.7546771E-02  0.1491828E+00
         21   -1    0    0  503  502  0.00000000000E+00  0.00000000000E+00  0.41448812594E+02  0.41448812594E+02  0.00000000000E+00 0. -1.
         21   -1    0    0  501  503 -0.00000000000E+00 -0.00000000000E+00 -0.16924206051E+02  0.16924206051E+02  0.00000000000E+00 0.  1.
          2    1    1    2  501    0 -0.22263700144E+02  0.59823724045E+01 -0.21068460824E+01  0.23149512394E+02  0.00000000000E+00 0.  1.
         -2    1    1    2    0  502  0.22263700144E+02 -0.59823724045E+01  0.26631452625E+02  0.35223506251E+02  0.00000000000E+00 0. -1.
</event>
<event>
 4    1  0.1762646E+004  0.2812740E+02  0.7546771E-02  0.1436600E+00
         21   -1    0    0  501  502  0.00000000000E+00  0.00000000000E+00  0.44455520666E+02  0.44455520666E+02  0.00000000000E+00 0. -1.
         21   -1    0    0  502  503 -0.00000000000E+00 -0.00000000000E+00 -0.18946413345E+02  0.18946413345E+02  0.00000000000E+00 0.  1.
          2    1    1    2  501    0  0.21370004726E+02 -0.18288617432E+02  0.49445678384E+01  0.28558700612E+02  0.00000000000E+00 0. -1.
         -2    1    1    2    0  503 -0.21370004726E+02  0.18288617432E+02  0.20564539483E+02  0.34843233399E+02  0.00000000000E+00 0.  1.
</event>
<event>
 4    1  0.1762646E+004  0.2545359E+02  0.7546771E-02  0.1463793E+00
         21   -1    0    0  503  502  0.00000000000E+00  0.00000000000E+00  0.14180202481E+04  0.14180202481E+04  0.00000000000E+00 0. -1.
         21   -1    0    0  501  503 -0.00000000000E+00 -0.00000000000E+00 -0.74900261669E+00  0.74900261669E+00  0.00000000000E+00 0.  1.
          2    1    1    2  501    0 -0.56701275327E+01 -0.24814005997E+02  0.26562704762E+03  0.26684380013E+03  0.00000000000E+00 0.  1.
         -2    1    1    2    0  502  0.56701275327E+01  0.24814005997E+02  0.11516441979E+04  0.11519254506E+04  0.00000000000E+00 0. -1.
</event>
<event>
 4    1  0.1762646E+004  0.2746646E+02  0.7546771E-02  0.1442978E+00
         21   -1    0    0  503  502  0.00000000000E+00  0.00000000000E+00  0.85614178114E+02  0.85614178114E+02  0.00000000000E+00 0. -1.
         21   -1    0    0  501  503 -0.00000000000E+00 -0.00000000000E+00 -0.91270932129E+01  0.91270932129E+01  0.00000000000E+00 0.  1.
          2    1    1    2  501    0  0.19257417386E+02  0.19584643731E+02  0.47049358610E+02  0.54479799376E+02  0.00000000000E+00 0. -1.
         -2    1    1    2    0  502 -0.19257417386E+02 -0.19584643731E+02  0.29437726291E+02  0.40261471951E+02  0.00000000000E+00 0.  1.
</event>
<event>
 4    1  0.1762646E+004  0.2573911E+02  0.7546771E-02  0.1460702E+00
         21   -1    0    0  503  502  0.00000000000E+00  0.00000000000E+00  0.10676096037E+03  0.10676096037E+03  0.00000000000E+00 0. -1.
         21   -1    0    0  501  503 -0.00000000000E+00 -0.00000000000E+00 -0.89370980175E+01  0.89370980175E+01  0.00000000000E+00 0.  1.
          2    1    1    2  501    0 -0.17369105834E+02 -0.18995160525E+02  0.16929713422E+02  0.30807745088E+02  0.00000000000E+00 0. -1.
         -2    1    1    2    0  502  0.17369105834E+02  0.18995160525E+02  0.80894148930E+02  0.84890313299E+02  0.00000000000E+00 0.  1.
</event>
<event>
 4    1  0.1762646E+004  0.2113877E+02  0.7546771E-02  0.1517293E+00
         21   -1    0    0  503  502  0.00000000000E+00  0.00000000000E+00  0.84536121354E+00  0.84536121354E+00  0.00000000000E+00 0.  1.
         21   -1    0    0  501  503 -0.00000000000E+00 -0.00000000000E+00 -0.58276592455E+03  0.58276592455E+03  0.00000000000E+00 0. -1.
          2    1    1    2  501    0 -0.39525889673E+01 -0.20765946162E+02 -0.20198706748E+03  0.20309018418E+03  0.00000000000E+00 0.  1.
         -2    1    1    2    0  502  0.39525889673E+01  0.20765946162E+02 -0.37993349586E+03  0.38052110159E+03  0.00000000000E+00 0. -1.
</event>
<event>
 4    1  0.1762646E+004  0.2021549E+02  0.7546771E-02  0.1530767E+00
         21   -1    0    0  503  502  0.00000000000E+00  0.00000000000E+00  0.15493558302E+03  0.15493558302E+03  0.00000000000E+00 0.  1.
         21   -1    0    0  501  503 -0.00000000000E+00 -0.00000000000E+00 -0.32174089991E+01  0.32174089991E+01  0.00000000000E+00 0. -1.
          2    1    1    2  501    0 -0.15180849896E+02  0.13349452620E+02  0.42291708180E+02  0.46874883142E+02  0.00000000000E+00 0. -1.
         -2    1    1    2    0  502  0.15180849896E+02 -0.13349452620E+02  0.10942646584E+03  0.11127810888E+03  0.00000000000E+00 0.  1.
</event>
<event>
 4    1  0.1762646E+004  0.2886249E+02  0.7546771E-02  0.1429746E+00
         21   -1    0    0  501  502  0.00000000000E+00  0.00000000000E+00  0.89841295344E+02  0.89841295344E+02  0.00000000000E+00 0.  1.
         21   -1    0    0  502  503 -0.00000000000E+00 -0.00000000000E+00 -0.10528951276E+02  0.10528951276E+02  0.00000000000E+00 0. -1.
          2    1    1    2  501    0 -0.19543756155E+02  0.21238759120E+02  0.22319141045E+02  0.36485440255E+02  0.00000000000E+00 0. -1.
         -2    1    1    2    0  503  0.19543756155E+02 -0.21238759120E+02  0.56993203022E+02  0.63884806365E+02  0.00000000000E+00 0.  1.
</event>
<event>
 4    1  0.1762646E+004  0.3171907E+02  0.7546771E-02  0.1405224E+00
         21   -1    0    0  501  502  0.00000000000E+00  0.00000000000E+00  0.18568606635E+01  0.18568606635E+01  0.00000000000E+00 0. -1.
         21   -1    0    0  502  503 -0.00000000000E+00 -0.00000000000E+00 -0.55207137486E+03  0.55207137486E+03  0.00000000000E+00 0.  1.
          2    1    1    2  501    0 -0.55163852475E+01 -0.31235696041E+02 -0.23738079095E+03  0.23949058254E+03  0.00000000000E+00 0. -1.
         -2    1    1    2    0  503  0.55163852475E+01  0.31235696041E+02 -0.31283372324E+03  0.31443765298E+03  0.00000000000E+00 0.  1.
</event>
<event>
 4    1  0.1762646E+004  0.3205623E+02  0.7546771E-02  0.1402531E+00
         21   -1    0    0  501  502  0.00000000000E+00  0.00000000000E+00  0.69483789429E+03  0.69483789429E+03  0.00000000000E+00 0.  1.
         21   -1    0    0  502  503 -0.00000000000E+00 -0.00000000000E+00 -0.17795031792E+01  0.17795031792E+01  0.00000000000E+00 0. -1.
          2    1    1    2  501    0  0.26499875681E+02  0.18037689475E+02  0.48968389087E+03  0.49073201916E+03  0.00000000000E+00 0.  1.
         -2    1    1    2    0  503 -0.26499875681E+02 -0.18037689475E+02  0.20337450025E+03  0.20588537831E+03  0.00000000000E+00 0. -1.
</event>
<event>
 4    1  0.1762646E+004  0.2165567E+02  0.7546771E-02  0.1510106E+00
         21   -1    0    0  501  502  0.00000000000E+00  0.00000000000E+00  0.19091868691E+01  0.19091868691E+01  0.00000000000E+00 0.  1.
         21   -1    0    0  502  503 -0.00000000000E+00 -0.00000000000E+00 -0.70966742803E+03  0.70966742803E+03  0.00000000000E+00 0. -1.
          2    1    1    2  501    0 -0.43680871709E+01  0.21210561384E+02 -0.66180897593E+02  0.69633894807E+02  0.00000000000E+00 0.  1.
         -2    1    1    2    0  503  0.43680871709E+01 -0.21210561384E+02 -0.64157734357E+03  0.64194272010E+03  0.00000000000E+00 0. -1.
</event>
<event>
 4    1  0.1762646E+004  0.3335598E+02  0.7546771E-02  0.1392505E+00
         21   -1    0    0  501  502  0.00000000000E+00  0.00000000000E+00  0.40018931474E+02  0.40018931474E+02  0.00000000000E+00 0. -1.
         21   -1    0    0  502  503 -0.00000000000E+00 -0.00000000000E+00 -0.31858899804E+02  0.31858899804E+02  0.00000000000E+00 0.  1.
          2    1    1    2  501    0 -0.14286016761E+02  0.30141845316E+02 -0.87440858358E+01  0.34483041499E+02  0.00000000000E+00 0.  1.
         -2    1    1    2    0  503  0.14286016761E+02 -0.30141845316E+02  0.16904117506E+02  0.37394789778E+02  0.00000000000E+00 0. -1.
</event>
<event>
 4    1  0.1762646E+004  0.2237523E+02  0.7546771E-02  0.1500496E+00
         21   -1    0    0  501  502  0.00000000000E+00  0.00000000000E+00  0.13516662122E+03  0.13516662122E+03  0.00000000000E+00 0. -1.
         21   -1    0    0  502  503 -0.00000000000E+00 -0.00000000000E+00 -0.37573741018E+01  0.37573741018E+01  0.00000000000E+00 0.  1.
          2    1    1    2  501    0 -0.22277887396E+02 -0.20848911509E+01  0.73986994552E+02  0.77296354382E+02  0.00000000000E+00 0.  1.
         -2    1    1    2    0  503  0.22277887396E+02  0.20848911509E+01  0.57422252563E+02  0.61627640936E+02  0.00000000000E+00 0. -1.
</event>
<event>
 4    1  0.1762646E+004  0.5164931E+02  0.7546771E-02  0.1291176E+00
         21   -1    0    0  503  502  0.00000000000E+00  0.00000000000E+00  0.60899747595E+02  0.60899747595E+02  0.00000000000E+00 0.  1.
         21   -1    0    0  501  503 -0.00000000000E+00 -0.00000000000E+00 -0.55931458398E+02  0.55931458398E+02  0.00000000000E+00 0. -1.
          2    1    1    2  501    0  0.40790558591E+02 -0.31682514499E+02 -0.24716927819E+02  0.57258867575E+02  0.00000000000E+00 0. -1.
         -2    1    1    2    0  502 -0.40790558591E+02  0.31682514499E+02  0.29685217016E+02  0.59572338417E+02  0.00000000000E+00 0.  1.
</event>
<event>
 4    1  0.1762646E+004  0.2571282E+02  0.7546771E-02  0.1460985E+00
         21   -1    0    0  501  502  0.00000000000E+00  0.00000000000E+00  0.11130914863E+03  0.11130914863E+03  0.00000000000E+00 0.  1.
         21   -1    0    0  502  503 -0.00000000000E+00 -0.00000000000E+00 -0.16550141080E+02  0.16550141080E+02  0.00000000000E+00 0. -1.
          2    1    1    2  501    0  0.17586839702E+02  0.18757724662E+02  0.98567369024E+02  0.10186596783E+03  0.00000000000E+00 0.  1.
         -2    1    1    2    0  503 -0.17586839702E+02 -0.18757724662E+02 -0.38083614762E+01  0.25993321880E+02  0.00000000000E+00 0. -1.
</event>
<event>
 4    1  0.1762646E+004  0.3260376E+02  0.7546771E-02  0.1398240E+00
         21   -1    0    0  503  502  0.00000000000E+00  0.00000000000E+00  0.22311544832E+02  0.22311544832E+02  0.00000000000E+00 0. -1.
         21   -1    0    0  501  503 -0.00000000000E+00 -0.00000000000E+00 -0.63317859945E+02  0.63317859945E+02  0.00000000000E+00 0.  1.
          2    1    1    2  501    0 -0.31782993943E+02  0.72695714388E+01 -0.41805209571E+02  0.53015855365E+02  0.00000000000E+00 0.  1.
         -2    1    1    2    0  502  0.31782993943E+02 -0.72695714388E+01  0.79889445759E+00  0.32613549412E+02  0.00000000000E+00 0. -1.
</event>
<event>
 4    1  0.1762646E+004  0.2456522E+02  0.7546771E-02  0.1473726E+00
         21   -1    0    0  503  502  0.00000000000E+00  0.00000000000E+00  0.27334084701E+03  0.27334084701E+03  0.00000000000E+00 0.  1.
         21   -1    0    0  501  503 -0.00000000000E+00 -0.00000000000E+00 -0.23278274764E+02  0.23278274764E+02  0.00000000000E+00 0. -1.
          2    1    1    2  501    0  0.23056048536E+02 -0.84775342953E+01 -0.16070372774E+02  0.29354843602E+02  0.00000000000E+00 0. -1.
         -2    1    1    2    0  502 -0.23056048536E+02  0.84775342953E+01  0.26613294502E+03  0.26726427817E+03  0.00000000000E+00 0.  1.
</event>
<event>
 4    1  0.1762646E+004  0.2331808E+02  0.7546771E-02  0.1488542E+00
         21   -1    0    0  501  502  0.00000000000E+00  0.00000000000E+00  0.67242485312E+02  0.67242485312E+02  0.00000000000E+00 0. -1.
         21   -1    0    0  502  503 -0.00000000000E+00 -0.00000000000E+00 -0.51645207489E+02  0.51645207489E+02  0.00000000000E+00 0.  1.
          2    1    1    2  501    0 -0.42804376493E+01 -0.22921842200E+02  0.62390904027E+02  0.66605989983E+02  0.00000000000E+00 0. -1.
         -2    1    1    2    0  503  0.42804376493E+01  0.22921842200E+02 -0.46793626204E+02  0.52281702819E+02  0.00000000000E+00 0.  1.
</event>
<event>
 4    1  0.1762646E+004  0.2184537E+02  0.7546771E-02  0.1507529E+00
         21   -1    0    0  501  502  0.00000000000E+00  0.00000000000E+00  0.98065451902E+01  0.98065451902E+01  0.00000000000E+00 0.  1.
         21   -1    0    0  502  503 -0.00000000000E+00 -0.00000000000E+00 -0.61833343870E+02  0.61833343870E+02  0.00000000000E+00 0. -1.
          2    1    1    2  501    0  0.20590579767E+02 -0.72971345303E+01 -0.94821767887E+01  0.23814529685E+02  0.00000000000E+00 0.  1.
         -2    1    1    2    0  503 -0.20590579767E+02  0.72971345303E+01 -0.42544621891E+02  0.47825359375E+02  0.00000000000E+00 0. -1.
</event>
<event>
 4    1  0.1762646E+004  0.2639016E+02  0.7546771E-02  0.1453832E+00
         21   -1    0    0  501  502  0.00000000000E+00  0.00000000000E+00  0.24227014248E+02  0.24227014248E+02  0.00000000000E+00 0.  1.
         21   -1    0    0  502  503 -0.00000000000E+00 -0.00000000000E+00 -0.28746508917E+02  0.28746508917E+02  0.00000000000E+00 0. -1.
          2    1    1    2  501    0 -0.25345201928E+02  0.73526217729E+01 -0.22174811409E+01  0.26483155596E+02  0.00000000000E+00 0.  1.
         -2    1    1    2    0  503  0.25345201928E+02 -0.73526217729E+01 -0.23020135278E+01  0.26490367570E+02  0.00000000000E+00 0. -1.
</event>
<event>
 4    1  0.1762646E+004  0.2158106E+02  0.7546771E-02  0.1511128E+00
         21   -1    0    0  503  502  0.00000000000E+00  0.00000000000E+00  0.16021460882E+03  0.16021460882E+03  0.00000000000E+00 0. -1.
         21   -1    0    0  501  503 -0.00000000000E+00 -0.00000000000E+00 -0.43890661631E+01  0.43890661631E+01  0.00000000000E+00 0.  1.
          2    1    1    2  501    0  0.41525734336E+01 -0.21177779638E+02  0.30087353407E+02  0.37026896326E+02  0.00000000000E+00 0. -1.
         -2    1    1    2    0  502 -0.41525734336E+01  0.21177779638E+02  0.12573818925E+03  0.12757677865E+03  0.00000000000E+00 0.  1.
</event>
<event>
 4    1  0.1762646E+004  0.2185567E+02  0.7546771E-02  0.1507390E+00
         21   -1    0    0  501  502  0.00000000000E+00  0.00000000000E+00  0.57989579251E+01  0.57989579251E+01  0.00000000000E+00 0. -1.
         21   -1    0    0  502  503 -0.00000000000E+00 -0.00000000000E+00 -0.86240993492E+02  0.86240993492E+02  0.00000000000E+00 0.  1.
          2    1    1    2  501    0  0.13826367286E+02  0.16926369502E+02 -0.30473331802E+02  0.37500591568E+02  0.00000000000E+00 0.  1.
         -2    1    1    2    0  503 -0.13826367286E+02 -0.16926369502E+02 -0.49968703764E+02  0.54539359849E+02  0.00000000000E+00 0. -1.
</event>
<event>
 4    1  0.1762646E+004  0.3231779E+02  0.7546771E-02  0.1400469E+00
         21   -1    0    0  501  502  0.00000000000E+00  0.00000000000E+00  0.51761776613E+01  0.51761776613E+01  0.00000000000E+00 0.  1.
         21   -1    0    0  502  503 -0.00000000000E+00 -0.00000000000E+00 -0.32813625873E+03  0.32813625873E+03  0.00000000000E+00 0. -1.
          2    1    1    2  501    0  0.30718167007E+02  0.10041602808E+02 -0.58062081257E+02  0.66450318669E+02  0.00000000000E+00 0.  1.
         -2    1    1    2    0  503 -0.30718167007E+02 -0.10041602808E+02 -0.26489799981E+03  0.26686211772E+03  0.00000000000E+00 0. -1.
</event>
<event>
 4    1  0.1762646E+004  0.2029461E+02  0.7546771E-02  0.1529579E+00
         21   -1    0    0  501  502  0.00000000000E+00  0.00000000000E+00  0.44532037547E+03  0.44532037547E+03  0.00000000000E+00 0. -1.
         21   -1    0    0  502  503 -0.00000000000E+00 -0.00000000000E+00 -0.30637784130E+01  0.30637784130E+01  0.00000000000E+00 0.  1.
          2    1    1    2  501    0 -0.13323878414E+02  0.15308340081E+02  0.40844907792E+03  0.40895295606E+03  0.00000000000E+00 0. -1.
         -2    1    1    2    0  503  0.13323878414E+02 -0.15308340081E+02  0.33807519140E+02  0.39431197831E+02  0.00000000000E+00 0.  1.
</event>
<event>
 4    1  0.1762646E+004  0.2121957E+02  0.7546771E-02  0.1516153E+00
         21   -1    0    0  503  502  0.00000000000E+00  0.00000000000E+00  0.11716582347E+03  0.11716582347E+03  0.00000000000E+00 0. -1.
         21   -1    0    0  501  503 -0.00000000000E+00 -0.00000000000E+00 -0.10510340619E+02  0.10510340619E+02  0.00000000000E+00 0.  1.
          2    1    1    2  501    0 -0.18991795998E+02 -0.94647781325E+01  0.24828671092E+01  0.21364338731E+02  0.00000000000E+00 0.  1.
         -2    1    1    2    0  502  0.18991795998E+02  0.94647781325E+01  0.10417261574E+03  0.10631182536E+03  0.00000000000E+00 0. -1.
</event>
<event>
 4    1  0.1762646E+004  0.2295002E+02  0.7546771E-02  0.1493127E+00
         21   -1    0    0  501  502  0.00000000000E+00  0.00000000000E+00  0.30116795058E+03  0.30116795058E+03  0.00000000000E+00 0. -1.
         21   -1    0    0  502  503 -0.00000000000E+00 -0.00000000000E+00 -0.54907028703E+01  0.54907028703E+01  0.00000000000E+00 0.  1.
          2    1    1    2  501    0 -0.33086766626E+00 -0.22947634300E+02  0.27441524224E+03  0.27537325318E+03  0.00000000000E+00 0. -1.
         -2    1    1    2    0  503  0.33086766626E+00  0.22947634300E+02  0.21262005466E+02  0.31285400267E+02  0.00000000000E+00 0.  1.
</event>
<event>
 4    1  0.1762646E+004  0.2445873E+02  0.7546771E-02  0.1474951E+00
         21   -1    0    0  503  502  0.00000000000E+00  0.00000000000E+00  0.58919982958E+03  0.58919982958E+03  0.00000000000E+00 0.  1.
         21   -1    0    0  501  503 -0.00000000000E+00 -0.00000000000E+00 -0.11818260095E+01  0.11818260095E+01  0.00000000000E+00 0. -1.
          2    1    1    2  501    0  0.24275858877E+02  0.29853136652E+01  0.18321039734E+03  0.18483581665E+03  0.00000000000E+00 0. -1.
         -2    1    1    2    0  502 -0.24275858877E+02 -0.29853136652E+01  0.40480760623E+03  0.40554583895E+03  0.00000000000E+00 0.  1.
</event>
<event>
 4    1  0.1762646E+004  0.2018864E+02  0.7546771E-02  0.1531171E+00
         21   -1    0    0  501  502  0.00000000000E+00  0.00000000000E+00  0.17212412335E+01  0.17212412335E+01  0.00000000000E+00 0. -1.
         21   -1    0    0  502  503 -0.00000000000E+00 -0.00000000000E+00 -0.45353763895E+03  0.45353763895E+03  0.00000000000E+00 0.  1.
          2    1    1    2  501    0  0.10234800563E+02  0.17402010986E+02 -0.68548306040E+02  0.71459438774E+02  0.00000000000E+00 0. -1.
         -2    1    1    2    0  503 -0.10234800563E+02 -0.17402010986E+02 -0.38326809167E+03  0.38379944140E+03  0.00000000000E+00 0.  1.
</event>
<event>
 4    1  0.1762646E+004  0.2504345E+02  0.7546771E-02  0.1468318E+00
         21   -1    0    0  503  502  0.00000000000E+00  0.00000000000E+00  0.12245788589E+02  0.12245788589E+02  0.00000000000E+00 0.  1.
         21   -1    0    0  501  503 -0.00000000000E+00 -0.00000000000E+00 -0.84729396855E+02  0.84729396855E+02  0.00000000000E+00 0. -1.
          2    1    1    2  501    0  0.25038660326E+02  0.48990665274E+00 -0.66736608622E+02  0.71280778964E+02  0.00000000000E+00 0. -1.
         -2    1    1    2    0  502 -0.25038660326E+02 -0.48990665274E+00 -0.57469996449E+01  0.25694406480E+02  0.00000000000E+00 0.  1.
</event>
<event>
 4    1  0.1762646E+004  0.3431847E+02  0.7546771E-02  0.1385419E+00
         21   -1    0    0  503  502  0.00000000000E+00  0.00000000000E+00  0.13179562249E+01  0.13179562249E+01  0.00000000000E+00 0. -1.
         21   -1    0    0  501  503 -0.00000000000E+00 -0.00000000000E+00 -0.16560599956E+04  0.16560599956E+04  0.00000000000E+00 0.  1.
          2    1    1    2  501    0  0.27642596624E+02  0.20338238815E+02 -0.13896544283E+04  0.13900781227E+04  0.00000000000E+00 0. -1.
         -2    1    1    2    0  502 -0.27642596624E+02 -0.20338238815E+02 -0.26508761102E+03  0.26729982907E+03  0.00000000000E+00 0.  1.
</event>
<event>
 4    1  0.1762646E+004  0.3376372E+02  0.7546771E-02  0.1389469E+00
         21   -1    0    0  503  502  0.00000000000E+00  0.00000000000E+00  0.26221271666E+02  0.26221271666E+02  0.00000000000E+00 0.  1.
         21   -1    0    0  501  503 -0.00000000000E+00 -0.00000000000E+00 -0.99517968390E+02  0.99517968390E+02  0.00000000000E+00 0. -1.
          2    1    1    2  501    0 -0.17664795454E+02 -0.28774010466E+02 -0.83827253524E+02  0.90371439682E+02  0.00000000000E+00 0. -1.
         -2    1    1    2    0  502  0.17664795454E+02  0.28774010466E+02  0.10530556801E+02  0.35367800374E+02  0.00000000000E+00 0.  1.
</event>
<event>
 4    1  0.1762646E+004  0.3998324E+02  0.7546771E-02  0.1348584E+00
         21   -1    0    0  503  502  0.00000000000E+00  0.00000000000E+00  0.85477705439E+02  0.85477705439E+02  0.00000000000E+00 0.  1.
         21   -1    0    0  501  503 -0.00000000000E+00 -0.00000000000E+00 -0.21191748517E+03  0.21191748517E+03  0.00000000000E+00 0. -1.
          2    1    1    2  501    0 -0.14545615858E+02 -0.37243588162E+02 -0.20520433918E+03  0.20906334117E+03  0.00000000000E+00 0. -1.
         -2    1    1    2    0  502  0.14545615858E+02  0.37243588162E+02  0.78764559454E+02  0.88331849442E+02  0.00000000000E+00 0.  1.
</event>
<event>
 4    1  0.1762646E+004  0.2126917E+02  0.7546771E-02  0.1515456E+00
         21   -1    0    0  501  502  0.00000000000E+00  0.00000000000E+00  0.10735338740E+01  0.10735338740E+01  0.00000000000E+00 0.  1.
         21   -1    0    0  502  503 -0.00000000000E+00 -0.00000000000E+00 -0.71911019474E+03  0.71911019474E+03  0.00000000000E+00 0. -1.
          2    1    1    2  501    0  0.20933928924E+02  0.37614059478E+01 -0.12732209602E+03  0.12908638072E+03  0.00000000000E+00 0.  1.
         -2    1    1    2    0  503 -0.20933928924E+02 -0.37614059478E+01 -0.59071456485E+03  0.59109734788E+03  0.00000000000E+00 0. -1.
</event>
<event>
 4    1  0.1762646E+004  0.2930740E+02  0.7546771E-02  0.1425712E+00
         21   -1    0    0  503  502  0.00000000000E+00  0.00000000000E+00  0.18779530859E+02  0.18779530859E+02  0.00000000000E+00 0.  1.
         21   -1    0    0  501  503 -0.00000000000E+00 -0.00000000000E+00 -0.11898418311E+03  0.11898418311E+03  0.00000000000E+00 0. -1.
          2    1    1    2  501    0  0.53218161547E+01 -0.28820165884E+02 -0.10414726342E+03  0.10819231103E+03  0.00000000000E+00 0. -1.
         -2    1    1    2    0  502 -0.53218161547E+01  0.28820165884E+02  0.39426111694E+01  0.29571402936E+02  0.00000000000E+00 0.  1.
</event>
<event>
 4    1  0.1762646E+004  0.2579731E+02  0.7546771E-02  0.1460078E+00
         21   -1    0    0  501  502  0.00000000000E+00  0.00000000000E+00  0.30260989264E+02  0.30260989264E+02  0.00000000000E+00 0.  1.
         21   -1    0    0  502  503 -0.00000000000E+00 -0.00000000000E+00 -0.23868110071E+02  0.23868110071E+02  0.00000000000E+00 0. -1.
          2    1    1    2  501    0  0.25417705315E+02 -0.44092589134E+01 -0.43913399643E+01  0.26168400301E+02  0.00000000000E+00 0.  1.
         -2    1    1    2    0  503 -0.25417705315E+02  0.44092589134E+01  0.10784219157E+02  0.27960699034E+02  0.00000000000E+00 0. -1.
</event>
<event>
 4    1  0.1762646E+004  0.2309644E+02  0.7546771E-02  0.1491291E+00
         21   -1    0    0  501  502  0.00000000000E+00  0.00000000000E+00  0.17689283052E+03  0.17689283052E+03  0.00000000000E+00 0. -1.
         21   -1    0    0  502  503 -0.00000000000E+00 -0.00000000000E+00 -0.11526046343E+02  0.11526046343E+02  0.00000000000E+00 0.  1.
          2    1    1    2  501    0 -0.22554249790E+02  0.49750573392E+01  0.16363571993E+03  0.16525766009E+03  0.00000000000E+00 0. -1.
         -2    1    1    2    0  503  0.22554249790E+02 -0.49750573392E+01  0.17310642412E+01  0.23161216775E+02  0.00000000000E+00 0.  1.
</event>
<event>
 4    1  0.1762646E+004  0.2203335E+02  0.7546771E-02  0.1505007E+00
         21   -1    0    0  501  502  0.00000000000E+00  0.00000000000E+00  0.35344972791E+03  0.35344972791E+03  0.00000000000E+00 0.  1.
         21   -1    0    0  502  503 -0.00000000000E+00 -0.00000000000E+00 -0.41290523667E+01  0.41290523667E+01  0.00000000000E+00 0. -1.
          2    1    1    2  501    0 -0.51751305493E+01  0.21416963767E+02  0.32071645200E+03  0.32147241079E+03  0.00000000000E+00 0.  1.
         -2    1    1    2    0  503  0.51751305493E+01 -0.21416963767E+02  0.28604223538E+02  0.36106369485E+02  0.00000000000E+00 0. -1.
</event>
<event>
 4    1  0.1762646E+004  0.2619054E+02  0.7546771E-02  0.1455913E+00
         21   -1    0    0  501  502  0.00000000000E+00  0.00000000000E+00  0.29219971139E+03  0.29219971139E+03  0.00000000000E+00 0. -1.
         21   -1    0    0  502  503 -0.00000000000E+00 -0.00000000000E+00 -0.27673108084E+01  0.27673108084E+01  0.00000000000E+00 0.  1.
          2    1    1    2  501    0  0.64116072684E+00  0.26182685939E+02  0.20215851217E+03  0.20384800262E+03  0.00000000000E+00 0. -1.
         -2    1    1    2    0  503 -0.64116072684E+00 -0.26182685939E+02  0.87273888405E+02  0.91119019570E+02  0.00000000000E+00 0.  1.
</event>
<event>
 4    1  0.1762646E+004  0.2565277E+02  0.7546771E-02  0.1461632E+00
         21   -1    0    0  501  502  0.00000000000E+00  0.00000000000E+00  0.25679334014E+02  0.25679334014E+02  0.00000000000E+00 0. -1.
         21   -1    0    0  502  503 -0.00000000000E+00 -0.00000000000E+00 -0.27520071258E+02  0.27520071258E+02  0.00000000000E+00 0.  1.
          2    1    1    2  501    0  0.13978363131E+02 -0.21509762380E+02 -0.78982538052E+01  0.26841142424E+02  0.00000000000E+00 0.  1.
         -2    1    1    2    0  503 -0.13978363131E+02  0.21509762380E+02  0.60575165609E+01  0.26358262848E+02  0.00000000000E+00 0. -1.
</event>
<event>
 4    1  0.1762646E+004  0.2122739E+02  0.7546771E-02  0.1516043E+00
         21   -1    0    0  503  502  0.00000000000E+00  0.00000000000E+00  0.83162431141E+01  0.83162431141E+01  0.00000000000E+00 0. -1.
         21   -1    0    0  501  503 -0.00000000000E+00 -0.00000000000E+00 -0.58600325874E+02  0.58600325874E+02  0.00000000000E+00 0.  1.
          2    1    1    2  501    0  0.20613227028E+02 -0.50692061017E+01 -0.34327815621E+02  0.40360883344E+02  0.00000000000E+00 0.  1.
         -2    1    1    2    0  502 -0.20613227028E+02  0.50692061017E+01 -0.15956267139E+02  0.26555685644E+02  0.00000000000E+00 0. -1.
</event>
<event>
 4    1  0.1762646E+004  0.2591106E+02  0.7546771E-02  0.1458864E+00
         21   -1    0    0  503  502  0.00000000000E+00  0.00000000000E+00  0.29778520849E+03  0.29778520849E+03  0.00000000000E+00 0. -1.
         21   -1    0    0  501  503 -0.00000000000E+00 -0.00000000000E+00 -0.29857372997E+01  0.29857372997E+01  0.00000000000E+00 0.  1.
          2    1    1    2  501    0 -0.17828665103E+02 -0.18802168753E+02  0.72980838157E+02  0.77444080389E+02  0.00000000000E+00 0.  1.
         -2    1    1    2    0  502  0.17828665103E+02  0.18802168753E+02  0.22181863303E+03  0.22332686540E+03  0.00000000000E+00 0. -1.
</event>
<event>
 4    1  0.1762646E+004  0.2668603E+02  0.7546771E-02  0.1450788E+00
         21   -1    0    0  501  502  0.00000000000E+00  0.00000000000E+00  0.31617274153E+03  0.31617274153E+03  0.00000000000E+00 0. -1.
         21   -1    0    0  502  503 -0.00000000000E+00 -0.00000000000E+00 -0.58280474488E+01  0.58280474488E+01  0.00000000000E+00 0.  1.
          2    1    1    2  501    0 -0.50611622321E+01  0.26201691859E+02  0.28128057172E+03  0.28254363211E+03  0.00000000000E+00 0. -1.
         -2    1    1    2    0  503  0.50611622321E+01 -0.26201691859E+02  0.29064122359E+02  0.39457156865E+02  0.00000000000E+00 0.  1.
</event>
<event>
 4    1  0.1762646E+004  0.2500971E+02  0.7546771E-02  0.1468695E+00
         21   -1    0    0  503  502  0.00000000000E+00  0.00000000000E+00  0.62669457966E+02  0.62669457966E+02  0.00000000000E+00 0. -1.
         21   -1    0    0  501  503 -0.00000000000E+00 -0.00000000000E+00 -0.10093982685E+02  0.10093982685E+02  0.00000000000E+00 0.  1.
          2    1    1    2  501    0  0.10368519108E+02  0.22759164169E+02  0.22433727718E+02  0.33596992149E+02  0.00000000000E+00 0.  1.
         -2    1    1    2    0  502 -0.10368519108E+02 -0.22759164169E+02  0.30141747563E+02  0.39166448503E+02  0.00000000000E+00 0. -1.
</event>
<event>
 4    1  0.1762646E+004  0.2430240E+02  0.7546771E-02  0.1476761E+00
         21   -1    0    0  503  502  0.00000000000E+00  0.00000000000E+00  0.17790871494E+02  0.17790871494E+02  0.00000000000E+00 0. -1.
         21   -1    0    0  501  503 -0.00000000000E+00 -0.00000000000E+00 -0.47627584523E+02  0.47627584523E+02  0.00000000000E+00 0.  1.
          2    1    1    2  501    0  0.65832997029E+01 -0.23393732793E+02  0.30861172887E+01  0.24497564958E+02  0.00000000000E+00 0. -1.
         -2    1    1    2    0  502 -0.65832997029E+01  0.23393732793E+02 -0.32922830318E+02  0.40920891059E+02  0.00000000000E+00 0.  1.
</event>
<event>
 4    1  0.1762646E+004  0.2491826E+02  0.7546771E-02  0.1469720E+00
         21   -1    0    0  503  502  0.00000000000E+00  0.00000000000E+00  0.78502453903E+01  0.78502453903E+01  0.00000000000E+00 0. -1.
         21   -1    0    0  501  503 -0.00000000000E+00 -0.00000000000E+00 -0.80901404901E+02  0.80901404901E+02  0.00000000000E+00 0.  1.
          2    1    1    2  501    0  0.21445574307E+02  0.12688855095E+02 -0.43155470963E+02  0.49832864407E+02  0.00000000000E+00 0.  1.
         -2    1    1    2    0  502 -0.21445574307E+02 -0.12688855095E+02 -0.29895688548E+02  0.38918785885E+02  0.00000000000E+00 0. -1.
</event>
<event>
 4    1  0.1762646E+004  0.3408753E+02  0.7546771E-02  0.1387094E+00
         21   -1    0    0  501  502  0.00000000000E+00  0.00000000000E+00  0.24387494241E+02  0.24387494241E+02  0.00000000000E+00 0. -1.
         21   -1    0    0  502  503 -0.00000000000E+00 -0.00000000000E+00 -0.52225987495E+02  0.52225987495E+02  0.00000000000E+00 0.  1.
          2    1    1    2  501    0  0.32842856711E+01 -0.33928942598E+02 -0.25749550605E+01  0.34184646726E+02  0.00000000000E+00 0. -1.
         -2    1    1    2    0  503 -0.32842856711E+01  0.33928942598E+02 -0.25263538194E+02  0.42428835010E+02  0.00000000000E+00 0.  1.
</event>
<event>
 4    1  0.1762646E+004  0.2737173E+02  0.7546771E-02  0.1443909E+00
         21   -1    0    0  501  502  0.00000000000E+00  0.00000000000E+00  0.67961062964E+02  0.67961062964E+02  0.00000000000E+00 0.  1.
         21   -1    0    0  502  503 -0.00000000000E+00 -0.00000000000E+00 -0.49069892959E+02  0.49069892959E+02  0.00000000000E+00 0. -1.
          2    1    1    2  501    0 -0.25817877214E+02  0.90911416132E+01  0.60970388765E+02  0.66832626358E+02  0.00000000000E+00 0.  1.
         -2    1    1    2    0  503  0.25817877214E+02 -0.90911416132E+01 -0.42079218760E+02  0.50198329565E+02  0.00000000000E+00 0. -1.
</event>
<event>
 4    1  0.1762646E+004  0.3385535E+02  0.7546771E-02  0.1388794E+00
         21   -1    0    0  503  502  0.00000000000E+00  0.00000000000E+00  0.27122386886E+03  0.27122386886E+03  0.00000000000E+00 0.  1.
         21   -1    0    0  501  503 -0.00000000000E+00 -0.00000000000E+00 -0.39968953598E+02  0.39968953598E+02  0.00000000000E+00 0. -1.
          2    1    1    2  501    0 -0.82594020712E+01  0.32832409230E+02 -0.31513496476E+02  0.46252408354E+02  0.00000000000E+00 0. -1.
         -2    1    1    2    0  502  0.82594020712E+01 -0.32832409230E+02  0.26276841174E+03  0.26494041410E+03  0.00000000000E+00 0.  1.
</event>
<event>
 4    1  0.1762646E+004  0.2151879E+02  0.7546771E-02  0.1511985E+00
         21   -1    0    0  503  502  0.00000000000E+00  0.00000000000E+00  0.67943416733E+01  0.67943416733E+01  0.00000000000E+00 0.  1.
         21   -1    0    0  501  503 -0.00000000000E+00 -0.00000000000E+00 -0.79991035338E+02  0.79991035338E+02  0.00000000000E+00 0. -1.
          2    1    1    2  501    0 -0.19897862610E+02 -0.81934848216E+01 -0.53291048790E+02  0.57471680079E+02  0.00000000000E+00 0. -1.
         -2    1    1    2    0  502  0.19897862610E+02  0.81934848216E+01 -0.19905644874E+02  0.29313696932E+02  0.00000000000E+00 0.  1.
</event>
<event>
 4    1  0.1762646E+004  0.2157925E+02  0.7546771E-02  0.1511153E+00
         21   -1    0    0  503  502  0.00000000000E+00  0.00000000000E+00  0.10863243307E+02  0.10863243307E+02  0.00000000000E+00 0.  1.
         21   -1    0    0  501  503 -0.00000000000E+00 -0.00000000000E+00 -0.70821871686E+02  0.70821871686E+02  0.00000000000E+00 0. -1.
          2    1    1    2  501    0  0.12900415208E+02 -0.17298655953E+02 -0.55639833778E+02  0.59677929867E+02  0.00000000000E+00 0. -1.
         -2    1    1    2    0  502 -0.12900415208E+02  0.17298655953E+02 -0.43187946005E+01  0.22007185125E+02  0.00000000000E+00 0.  1.
</event>
<event>
 4    1  0.1762646E+004  0.2128781E+02  0.7546771E-02  0.1515195E+00
         21   -1    0    0  503  502  0.00000000000E+00  0.00000000000E+00  0.26592381440E+03  0.26592381440E+03  0.00000000000E+00 0. -1.
         21   -1    0    0  501  503 -0.00000000000E+00 -0.00000000000E+00 -0.17049280467E+01  0.17049280467E+01  0.00000000000E+00 0.  1.
          2    1    1    2  501    0  0.17844399586E+02  0.11608110058E+02  0.13499041952E+03  0.13665864106E+03  0.00000000000E+00 0. -1.
         -2    1    1    2    0  502 -0.17844399586E+02 -0.11608110058E+02  0.12922846683E+03  0.13097010138E+03  0.00000000000E+00 0.  1.
</event>
<event>
 4    1  0.1762646E+004  0.2100502E+02  0.7546771E-02  0.1519193E+00
         21   -1    0    0  501  502  0.00000000000E+00  0.00000000000E+00  0.27465356818E+02  0.27465356818E+02  0.00000000000E+00 0. -1.
         21   -1    0    0  502  503 -0.00000000000E+00 -0.00000000000E+00 -0.34030157383E+02  0.34030157383E+02  0.00000000000E+00 0.  1.
          2    1    1    2  501    0 -0.20745727937E+02  0.32902609795E+01  0.19058760745E+02  0.28362782058E+02  0.00000000000E+00 0. -1.
         -2    1    1    2    0  503  0.20745727937E+02 -0.32902609795E+01 -0.25623561310E+02  0.33132732142E+02  0.00000000000E+00 0.  1.
</event>
<event>
 4    1  0.1762646E+004  0.2288967E+02  0.7546771E-02  0.1493888E+00
         21   -1    0    0  503  502  0.00000000000E+00  0.00000000000E+00  0.47027653491E+02  0.47027653491E+02  0.00000000000E+00 0.  1.
         21   -1    0    0  501  503 -0.00000000000E+00 -0.00000000000E+00 -0.11673161038E+02  0.11673161038E+02  0.00000000000E+00 0. -1.
          2    1    1    2  501    0  0.21925346186E+02 -0.65738907447E+01  0.11410729804E+02  0.25576192046E+02  0.00000000000E+00 0. -1.
         -2    1    1    2    0  502 -0.21925346186E+02  0.65738907447E+01  0.23943762649E+02  0.33124622484E+02  0.00000000000E+00 0.  1.
</event>
<event>
 4    1  0.1762646E+004  0.2184939E+02  0.7546771E-02  0.1507475E+00
         21   -1    0    0  503  502  0.00000000000E+00  0.00000000000E+00  0.12503246358E+02  0.12503246358E+02  0.00000000000E+00 0.  1.
         21   -1    0    0  501  503 -0.00000000000E+00 -0.00000000000E+00 -0.62597530993E+02  0.62597530993E+02  0.00000000000E+00 0. -1.
          2    1    1    2  501    0  0.47966680209E+01  0.21316372372E+02 -0.48498673081E+02  0.53193204884E+02  0.00000000000E+00 0. -1.
         -2    1    1    2    0  502 -0.47966680209E+01 -0.21316372372E+02 -0.15956115536E+01  0.21907572468E+02  0.00000000000E+00 0.  1.
</event>
<event>
 4    1  0.1762646E+004  0.3386377E+02  0.7546771E-02  0.1388732E+00
         21   -1    0    0  503  502  0.00000000000E+00  0.00000000000E+00  0.21230966491E+02  0.21230966491E+02  0.00000000000E+00 0.  1.
         21   -1    0    0  501  503 -0.00000000000E+00 -0.00000000000E+00 -0.10253029151E+03  0.10253029151E+03  0.00000000000E+00 0. -1.
          2    1    1    2  501    0  0.35943043222E+01  0.33672483289E+02 -0.83216896441E+02  0.89843235737E+02  0.00000000000E+00 0. -1.
         -2    1    1    2    0  502 -0.35943043222E+01 -0.33672483289E+02  0.19175714183E+01  0.33918022268E+02  0.00000000000E+00 0.  1.
</event>
<event>
 4    1  0.1762646E+004  0.2175616E+02  0.7546771E-02  0.1508737E+00
         21   -1    0    0  501  502  0.00000000000E+00  0.00000000000E+00  0.74225867261E+03  0.74225867261E+03  0.00000000000E+00 0. -1.
         21   -1    0    0  502  503 -0.00000000000E+00 -0.00000000000E+00 -0.11700180321E+01  0.11700180321E+01  0.00000000000E+00 0.  1.
          2    1    1    2  501    0  0.63668546809E+00 -0.21746845233E+02  0.62127234683E+03  0.62165316663E+03  0.00000000000E+00 0. -1.
         -2    1    1    2    0  503 -0.63668546809E+00  0.21746845233E+02  0.11981630775E+03  0.12177552401E+03  0.00000000000E+00 0.  1.
</event>
<event>
 4    1  0.1762646E+004  0.2544664E+02  0.7546771E-02  0.1463868E+00
         21   -1    0    0  503  502  0.00000000000E+00  0.00000000000E+00  0.48539608697E+02  0.48539608697E+02  0.00000000000E+00 0. -1.
         21   -1    0    0  501  503 -0.00000000000E+00 -0.00000000000E+00 -0.28946966668E+02  0.28946966668E+02  0.00000000000E+00 0.  1.
          2    1    1    2  501    0 -0.19956132035E+02 -0.15788742509E+02 -0.18651591521E+02  0.31550173725E+02  0.00000000000E+00 0.  1.
         -2    1    1    2    0  502  0.19956132035E+02  0.15788742509E+02  0.38244233550E+02  0.45936401640E+02  0.00000000000E+00 0. -1.
</event>
<event>
 4    1  0.1762646E+004  0.2626415E+02  0.7546771E-02  0.1455143E+00
         21   -1    0    0  501  502  0.00000000000E+00  0.00000000000E+00  0.56095298478E+02  0.56095298478E+02  0.00000000000E+00 0.  1.
         21   -1    0    0  502  503 -0.00000000000E+00 -0.00000000000E+00 -0.33715385089E+02  0.33715385089E+02  0.00000000000E+00 0. -1.
          2    1    1    2  501    0  0.12603713218E+02 -0.23042397633E+02  0.46981216214E+02  0.53824161420E+02  0.00000000000E+00 0.  1.
         -2    1    1    2    0  503 -0.12603713218E+02  0.23042397633E+02 -0.24601302825E+02  0.35986522148E+02  0.00000000000E+00 0. -1.
</event>
<event>
 4    1  0.1762646E+004  0.2251697E+02  0.7546771E-02  0.1498654E+00
         21   -1    0    0  501  502  0.00000000000E+00  0.00000000000E+00  0.41697125364E+02  0.41697125364E+02  0.00000000000E+00 0.  1.
         21   -1    0    0  502  503 -0.00000000000E+00 -0.00000000000E+00 -0.14886521143E+02  0.14886521143E+02  0.00000000000E+00 0. -1.
          2    1    1    2  501    0 -0.53603598711E+01  0.21869626887E+02  0.25514425372E+02  0.34029398176E+02  0.00000000000E+00 0.  1.
         -2    1    1    2    0  503  0.53603598711E+01 -0.21869626887E+02  0.12961788490E+01  0.22554248330E+02  0.00000000000E+00 0. -1.
</event>
<event>
 4    1  0.1762646E+004  0.5805014E+02  0.7546771E-02  0.1266605E+00
         21   -1    0    0  501  502  0.00000000000E+00  0.00000000000E+00  0.21060627816E+03  0.21060627816E+03  0.00000000000E+00 0. -1.
         21   -1    0    0  502  503 -0.00000000000E+00 -0.00000000000E+00 -0.16546159854E+02  0.16546159854E+02  0.00000000000E+00 0.  1.
          2    1    1    2  501    0  0.55407259826E+02  0.17316309838E+02  0.76405972902E+02  0.95956717966E+02  0.00000000000E+00 0.  1.
         -2    1    1    2    0  503 -0.55407259826E+02 -0.17316309838E+02  0.11765414541E+03  0.13119572005E+03  0.00000000000E+00 0. -1.
</event>
<event>
 4    1  0.1762646E+004  0.2358591E+02  0.7546771E-02  0.1485269E+00
         21   -1    0    0  501  502  0.00000000000E+00  0.00000000000E+00  0.73524812697E+01  0.73524812697E+01  0.00000000000E+00 0. -1.
         21   -1    0    0  502  503 -0.00000000000E+00 -0.00000000000E+00 -0.83810792944E+02  0.83810792944E+02  0.00000000000E+00 0.  1.
          2    1    1    2  501    0 -0.95102839705E+01 -0.21583546634E+02 -0.52443185390E+02  0.57502892800E+02  0.00000000000E+00 0.  1.
         -2    1    1    2    0  503  0.95102839705E+01  0.21583546634E+02 -0.24015126284E+02  0.33660381414E+02  0.00000000000E+00 0. -1.
</event>
<event>
 4    1  0.1762646E+004  0.2060997E+02  0.7546771E-02  0.1524907E+00
         21   -1    0    0  503  502  0.00000000000E+00  0.00000000000E+00  0.15707763271E+02  0.15707763271E+02  0.00000000000E+00 0. -1.
         21   -1    0    0  501  503 -0.00000000000E+00 -0.00000000000E+00 -0.20666944697E+03  0.20666944697E+03  0.00000000000E+00 0.  1.
          2    1    1    2  501    0  0.18577998805E+02 -0.89234914490E+01 -0.19914016860E+03  0.20020383985E+03  0.00000000000E+00 0.  1.
         -2    1    1    2    0  502 -0.18577998805E+02  0.89234914490E+01  0.81784849038E+01  0.22173370392E+02  0.00000000000E+00 0. -1.
</event>
<event>
 4    1  0.1762646E+004  0.2606094E+02  0.7546771E-02  0.1457276E+00
         21   -1    0    0  503  502  0.00000000000E+00  0.00000000000E+00  0.21827853979E+03  0.21827853979E+03  0.00000000000E+00 0. -1.
         21   -1    0    0  501  503 -0.00000000000E+00 -0.00000000000E+00 -0.31419776911E+01  0.31419776911E+01  0.00000000000E+00 0.  1.
          2    1    1    2  501    0  0.92860344614E+01 -0.24350408148E+02  0.96663786628E+02  0.10011523589E+03  0.00000000000E+00 0.  1.
         -2    1    1    2    0  502 -0.92860344614E+01  0.24350408148E+02  0.11847277547E+03  0.12130528158E+03  0.00000000000E+00 0. -1.
</event>
<event>
 4    1  0.1762646E+004  0.3425635E+02  0.7546771E-02  0.1385868E+00
         21   -1    0    0  501  502  0.00000000000E+00  0.00000000000E+00  0.32284510708E+02  0.32284510708E+02  0.00000000000E+00 0.  1.
         21   -1    0    0  502  503 -0.00000000000E+00 -0.00000000000E+00 -0.55011117122E+02  0.55011117122E+02  0.00000000000E+00 0. -1.
          2    1    1    2  501    0 -0.34256349610E+02  0.14772827576E-02  0.14059422589E+02  0.37029243232E+02  0.00000000000E+00 0.  1.
         -2    1    1    2    0  503  0.34256349610E+02 -0.14772827576E-02 -0.36786029003E+02  0.50266384598E+02  0.00000000000E+00 0. -1.
</event>
<event>
 4    1  0.1762646E+004  0.3434711E+02  0.7546771E-02  0.1385212E+00
         21   -1    0    0  501  502  0.00000000000E+00  0.00000000000E+00  0.84782636794E+02  0.84782636794E+02  0.00000000000E+00 0.  1.
         21   -1    0    0  502  503 -0.00000000000E+00 -0.00000000000E+00 -0.18674831245E+02  0.18674831245E+02  0.00000000000E+00 0. -1.
          2    1    1    2  501    0  0.71885253857E+01  0.33586442879E+02  0.59170311818E+02  0.68416736572E+02  0.00000000000E+00 0.  1.
         -2    1    1    2    0  503 -0.71885253857E+01 -0.33586442879E+02  0.69374937300E+01  0.35040731467E+02  0.00000000000E+00 0. -1.
</event>
<event>
 4    1  0.1762646E+004  0.3024319E+02  0.7546771E-02  0.1417495E+00
         21   -1    0    0  503  502  0.00000000000E+00  0.00000000000E+00  0.30314231037E+02  0.30314231037E+02  0.00000000000E+00 0. -1.
         21   -1    0    0  501  503 -0.00000000000E+00 -0.00000000000E+00 -0.41255497894E+02  0.41255497894E+02  0.00000000000E+00 0.  1.
          2    1    1    2  501    0 -0.75950312978E+01  0.29273986680E+02 -0.24018353664E+02  0.38620358741E+02  0.00000000000E+00 0.  1.
         -2    1    1    2    0  502  0.75950312978E+01 -0.29273986680E+02  0.13077086807E+02  0.32949370190E+02  0.00000000000E+00 0. -1.
</event>
<event>
 4    1  0.1762646E+004  0.2174057E+02  0.7546771E-02  0.1508949E+00
         21   -1    0    0  501  502  0.00000000000E+00  0.00000000000E+00  0.34736539123E+02  0.34736539123E+02  0.00000000000E+00 0.  1.
         21   -1    0    0  502  503 -0.00000000000E+00 -0.00000000000E+00 -0.95056451270E+02  0.95056451270E+02  0.00000000000E+00 0. -1.
          2    1    1    2  501    0  0.21684914533E+02 -0.15545925247E+01  0.29912463610E+02  0.36978476921E+02  0.00000000000E+00 0.  1.
         -2    1    1    2    0  503 -0.21684914533E+02  0.15545925247E+01 -0.90232375757E+02  0.92814513471E+02  0.00000000000E+00 0. -1.
</event>
<event>
 4    1  0.1762646E+004  0.2308351E+02  0.7546771E-02  0.1491452E+00
         21   -1    0    0  503  502  0.00000000000E+00  0.00000000000E+00  0.20066287645E+02  0.20066287645E+02  0.00000000000E+00 0.  1.
         21   -1    0    0  501  503 -0.00000000000E+00 -0.00000000000E+00 -0.50561029933E+02  0.50561029933E+02  0.00000000000E+00 0. -1.
          2    1    1    2  501    0 -0.23049385597E+02 -0.12546638611E+01 -0.39580631398E+02  0.45820025531E+02  0.00000000000E+00 0. -1.
         -2    1    1    2    0  502  0.23049385597E+02  0.12546638611E+01  0.90858891097E+01  0.24807292047E+02  0.00000000000E+00 0.  1.
</event>
<event>
 4    1  0.1762646E+004  0.2336155E+02  0.7546771E-02  0.1488007E+00
         21   -1    0    0  503  502  0.00000000000E+00  0.00000000000E+00  0.27081066502E+01  0.27081066502E+01  0.00000000000E+00 0.  1.
         21   -1    0    0  501  503 -0.00000000000E+00 -0.00000000000E+00 -0.24466927049E+03  0.24466927049E+03  0.00000000000E+00 0. -1.
          2    1    1    2  501    0 -0.22780967796E+02 -0.51758428811E+01 -0.17291820153E+03  0.17448915801E+03  0.00000000000E+00 0. -1.
         -2    1    1    2    0  502  0.22780967796E+02  0.51758428811E+01 -0.69042962313E+02  0.72888219132E+02  0.00000000000E+00 0.  1.
</event>
<event>
 4    1  0.1762646E+004  0.2780844E+02  0.7546771E-02  0.1439652E+00
         21   -1    0    0  501  502  0.00000000000E+00  0.00000000000E+00  0.10636049998E+02  0.10636049998E+02  0.00000000000E+00 0.  1.
         21   -1    0    0  502  503 -0.00000000000E+00 -0.00000000000E+00 -0.90130386436E+02  0.90130386436E+02  0.00000000000E+00 0. -1.
          2    1    1    2  501    0  0.16319714460E+02  0.22516135580E+02 -0.17594633693E+02  0.32907150839E+02  0.00000000000E+00 0.  1.
         -2    1    1    2    0  503 -0.16319714460E+02 -0.22516135580E+02 -0.61899702745E+02  0.67859285595E+02  0.00000000000E+00 0. -1.
</event>
<event>
 4    1  0.1762646E+004  0.2139790E+02  0.7546771E-02  0.1513659E+00
         21   -1    0    0  501  502  0.00000000000E+00  0.00000000000E+00  0.26745536041E+01  0.26745536041E+01  0.00000000000E+00 0. -1.
         21   -1    0    0  502  503 -0.00000000000E+00 -0.00000000000E+00 -0.19931643624E+03  0.19931643624E+03  0.00000000000E+00 0.  1.
          2    1    1    2  501    0 -0.20083781125E+02  0.73832016887E+01 -0.60385077166E+02  0.64064244909E+02  0.00000000000E+00 0.  1.
         -2    1    1    2    0  503  0.20083781125E+02 -0.73832016887E+01 -0.13625680547E+03  0.13792674494E+03  0.00000000000E+00 0. -1.
</event>
<event>
 4    1  0.1762646E+004  0.3027345E+02  0.7546771E-02  0.1417235E+00
         21   -1    0    0  501  502  0.00000000000E+00  0.00000000000E+00  0.70522240337E+01  0.70522240337E+01  0.00000000000E+00 0.  1.
         21   -1    0    0  502  503 -0.00000000000E+00 -0.00000000000E+00 -0.18801656846E+03  0.18801656846E+03  0.00000000000E+00 0. -1.
          2    1    1    2  501    0  0.54332150240E+01 -0.29781904380E+02 -0.36282222793E+02  0.47253373899E+02  0.00000000000E+00 0.  1.
         -2    1    1    2    0  503 -0.54332150240E+01  0.29781904380E+02 -0.14468212163E+03  0.14781541859E+03  0.00000000000E+00 0. -1.
</event>
<event>
 4    1  0.1762646E+004  0.2652338E+02  0.7546771E-02  0.1452455E+00
         21   -1    0    0  503  502  0.00000000000E+00  0.00000000000E+00  0.98706105053E+02  0.98706105053E+02  0.00000000000E+00 0. -1.
         21   -1    0    0  501  503 -0.00000000000E+00 -0.00000000000E+00 -0.73626165124E+01  0.73626165124E+01  0.00000000000E+00 0.  1.
          2    1    1    2  501    0 -0.20678954243E+02 -0.16609353884E+02  0.36186732306E+02  0.44866127312E+02  0.00000000000E+00 0. -1.
         -2    1    1    2    0  502  0.20678954243E+02  0.16609353884E+02  0.55156756235E+02  0.61202594254E+02  0.00000000000E+00 0.  1.
</event>
<event>
 4    1  0.1762646E+004  0.2706209E+02  0.7546771E-02  0.1446985E+00
         21   -1    0    0  501  502  0.00000000000E+00  0.00000000000E+00  0.46797313198E+01  0.46797313198E+01  0.00000000000E+00 0.  1.
         21   -1    0    0  502  503 -0.00000000000E+00 -0.00000000000E+00 -0.15654000329E+03  0.15654000329E+03  0.00000000000E+00 0. -1.
          2    1    1    2  501    0 -0.17982764338E+02 -0.20223181190E+02 -0.74570900692E+02  0.79329541160E+02  0.00000000000E+00 0.  1.
         -2    1    1    2    0  503  0.17982764338E+02  0.20223181190E+02 -0.77289371282E+02  0.81890193453E+02  0.00000000000E+00 0. -1.
</event>
<event>
 4    1  0.1762646E+004  0.2075979E+02  0.7546771E-02  0.1522722E+00
         21   -1    0    0  503  502  0.00000000000E+00  0.00000000000E+00  0.14998642003E+03  0.14998642003E+03  0.00000000000E+00 0.  1.
         21   -1    0    0  501  503 -0.00000000000E+00 -0.00000000000E+00 -0.14184595370E+02  0.14184595370E+02  0.00000000000E+00 0. -1.
          2    1    1    2  501    0  0.17587812080E+02 -0.11028942872E+02 -0.54005357985E+01  0.21450745943E+02  0.00000000000E+00 0. -1.
         -2    1    1    2    0  502 -0.17587812080E+02  0.11028942872E+02  0.14120236046E+03  0.14272026946E+03  0.00000000000E+00 0.  1.
</event>
<event>
 4    1  0.1762646E+004  0.2235572E+02  0.7546771E-02  0.1500751E+00
         21   -1    0    0  501  502  0.00000000000E+00  0.00000000000E+00  0.16181310999E+01  0.16181310999E+01  0.00000000000E+00 0.  1.
         21   -1    0    0  502  503 -0.00000000000E+00 -0.00000000000E+00 -0.45131151233E+03  0.45131151233E+03  0.00000000000E+00 0. -1.
          2    1    1    2  501    0  0.22354864868E+02 -0.19565719844E+00 -0.97615405064E+02  0.10014262614E+03  0.00000000000E+00 0. -1.
         -2    1    1    2    0  503 -0.22354864868E+02  0.19565719844E+00 -0.35207797616E+03  0.35278701729E+03  0.00000000000E+00 0.  1.
</event>
<event>
 4    1  0.1762646E+004  0.2594834E+02  0.7546771E-02  0.1458468E+00
         21   -1    0    0  503  502  0.00000000000E+00  0.00000000000E+00  0.21432231079E+03  0.21432231079E+03  0.00000000000E+00 0.  1.
         21   -1    0    0  501  503 -0.00000000000E+00 -0.00000000000E+00 -0.32516183808E+01  0.32516183808E+01  0.00000000000E+00 0. -1.
          2    1    1    2  501    0 -0.20206431966E+02  0.16279328733E+02  0.12554530548E+03  0.12819883059E+03  0.00000000000E+00 0.  1.
         -2    1    1    2    0  502  0.20206431966E+02 -0.16279328733E+02  0.85525386926E+02  0.89375098577E+02  0.00000000000E+00 0. -1.
</event>
<event>
 4    1  0.1762646E+004  0.2761891E+02  0.7546771E-02  0.1441488E+00
         21   -1    0    0  503  502  0.00000000000E+00  0.00000000000E+00  0.14139921832E+03  0.14139921832E+03  0.00000000000E+00 0. -1.
         21   -1    0    0  501  503 -0.00000000000E+00 -0.00000000000E+00 -0.58641920426E+01  0.58641920426E+01  0.00000000000E+00 0.  1.
          2    1    1    2  501    0 -0.27565896080E+02 -0.17104638985E+01  0.46933084831E+02  0.54456576878E+02  0.00000000000E+00 0.  1.
         -2    1    1    2    0  502  0.27565896080E+02  0.17104638985E+01  0.88601941447E+02  0.92806833486E+02  0.00000000000E+00 0. -1.
</event>
<event>
 4    1  0.1762646E+004  0.2564758E+02  0.7546771E-02  0.1461688E+00
         21   -1    0    0  503  502  0.00000000000E+00  0.00000000000E+00  0.27562977184E+03  0.27562977184E+03  0.00000000000E+00 0. -1.
         21   -1    0    0  501  503 -0.00000000000E+00 -0.00000000000E+00 -0.89473232008E+01  0.89473232008E+01  0.00000000000E+00 0.  1.
          2    1    1    2  501    0  0.10142384288E+02 -0.23556963421E+02  0.11497943097E+02  0.28106959638E+02  0.00000000000E+00 0.  1.
         -2    1    1    2    0  502 -0.10142384288E+02  0.23556963421E+02  0.25518450555E+03  0.25647013541E+03  0.00000000000E+00 0. -1.
</event>
<event>
 4    1  0.1762646E+004  0.2108948E+02  0.7546771E-02  0.1517991E+00
         21   -1    0    0  501  502  0.00000000000E+00  0.00000000000E+00  0.13816861637E+03  0.13816861637E+03  0.00000000000E+00 0.  1.
         21   -1    0    0  502  503 -0.00000000000E+00 -0.00000000000E+00 -0.34662663063E+01  0.34662663063E+01  0.00000000000E+00 0. -1.
          2    1    1    2  501    0  0.14752344661E+02  0.15070982506E+02  0.48437201660E+02  0.52829240874E+02  0.00000000000E+00 0.  1.
         -2    1    1    2    0  503 -0.14752344661E+02 -0.15070982506E+02  0.86265148402E+02  0.88805641800E+02  0.00000000000E+00 0. -1.
</event>
<event>
 4    1  0.1762646E+004  0.2847493E+02  0.7546771E-02  0.1433329E+00
         21   -1    0    0  501  502  0.00000000000E+00  0.00000000000E+00  0.42565185786E+02  0.42565185786E+02  0.00000000000E+00 0.  1.
         21   -1    0    0  502  503 -0.00000000000E+00 -0.00000000000E+00 -0.37251331222E+02  0.37251331222E+02  0.00000000000E+00 0. -1.
          2    1    1    2  501    0 -0.72724925916E+01 -0.27530568893E+02  0.30553842573E+02  0.41765520086E+02  0.00000000000E+00 0.  1.
         -2    1    1    2    0  503  0.72724925916E+01  0.27530568893E+02 -0.25239988009E+02  0.38050996922E+02  0.00000000000E+00 0. -1.
</event>
<event>
 4    1  0.1762646E+004  0.2534196E+02  0.7546771E-02  0.1465014E+00
         21   -1    0    0  503  502  0.00000000000E+00  0.00000000000E+00  0.26656968023E+02  0.26656968023E+02  0.00000000000E+00 0.  1.
         21   -1    0    0  501  503 -0.00000000000E+00 -0.00000000000E+00 -0.77084031499E+03  0.77084031499E+03  0.00000000000E+00 0. -1.
          2    1    1    2  501    0 -0.36240717581E+01 -0.25081488109E+02 -0.76455961154E+03  0.76497948635E+03  0.00000000000E+00 0. -1.
         -2    1    1    2    0  502  0.36240717581E+01  0.25081488109E+02  0.20376264571E+02  0.32517796662E+02  0.00000000000E+00 0.  1.
</event>
<event>
 4    1  0.1762646E+004  0.2077119E+02  0.7546771E-02  0.1522557E+00
         21   -1    0    0  503  502  0.00000000000E+00  0.00000000000E+00  0.15435005599E+02  0.15435005599E+02  0.00000000000E+00 0. -1.
         21   -1    0    0  501  503 -0.00000000000E+00 -0.00000000000E+00 -0.67892484549E+02  0.67892484549E+02  0.00000000000E+00 0.  1.
          2    1    1    2  501    0 -0.11826162151E+02  0.17075832522E+02 -0.58184790102E+02  0.61781161909E+02  0.00000000000E+00 0.  1.
         -2    1    1    2    0  502  0.11826162151E+02 -0.17075832522E+02  0.57273111526E+01  0.21546328239E+02  0.00000000000E+00 0. -1.
</event>
<event>
 4    1  0.1762646E+004  0.2608754E+02  0.7546771E-02  0.1456996E+00
         21   -1    0    0  503  502  0.00000000000E+00  0.00000000000E+00  0.21791611735E+03  0.21791611735E+03  0.00000000000E+00 0. -1.
         21   -1    0    0  501  503 -0.00000000000E+00 -0.00000000000E+00 -0.47916759802E+01  0.47916759802E+01  0.00000000000E+00 0.  1.
          2    1    1    2  501    0  0.67279856311E-01  0.26087451047E+02  0.40850449997E+02  0.48469772990E+02  0.00000000000E+00 0.  1.
         -2    1    1    2    0  502 -0.67279856311E-01 -0.26087451047E+02  0.17227399138E+03  0.17423802034E+03  0.00000000000E+00 0. -1.
</event>
<event>
 4    1  0.1762646E+004  0.2024088E+02  0.7546771E-02  0.1530385E+00
         21   -1    0    0  503  502  0.00000000000E+00  0.00000000000E+00  0.49891780720E+02  0.49891780720E+02  0.00000000000E+00 0.  1.
         21   -1    0    0  501  503 -0.00000000000E+00 -0.00000000000E+00 -0.10762922568E+03  0.10762922568E+03  0.00000000000E+00 0. -1.
          2    1    1    2  501    0  0.65715276682E+01  0.19144401366E+02 -0.10456508174E+03  0.10650610029E+03  0.00000000000E+00 0. -1.
         -2    1    1    2    0  502 -0.65715276682E+01 -0.19144401366E+02  0.46827636777E+02  0.51014906113E+02  0.00000000000E+00 0.  1.
</event>
<event>
 4    1  0.1762646E+004  0.2819584E+02  0.7546771E-02  0.1435952E+00
         21   -1    0    0  503  502  0.00000000000E+00  0.00000000000E+00  0.74981178279E+01  0.74981178279E+01  0.00000000000E+00 0.  1.
         21   -1    0    0  501  503 -0.00000000000E+00 -0.00000000000E+00 -0.15198097091E+03  0.15198097091E+03  0.00000000000E+00 0. -1.
          2    1    1    2  501    0 -0.11278887631E+02  0.25841672231E+02 -0.11608835321E+03  0.11946342989E+03  0.00000000000E+00 0. -1.
         -2    1    1    2    0  502  0.11278887631E+02 -0.25841672231E+02 -0.28394499863E+02  0.40015658839E+02  0.00000000000E+00 0.  1.
</event>
<event>
 4    1  0.1762646E+004  0.2773914E+02  0.7546771E-02  0.1440321E+00
         21   -1    0    0  503  502  0.00000000000E+00  0.00000000000E+00  0.37782931303E+02  0.37782931303E+02  0.00000000000E+00 0.  1.
         21   -1    0    0  501  503 -0.00000000000E+00 -0.00000000000E+00 -0.82489814463E+02  0.82489814463E+02  0.00000000000E+00 0. -1.
          2    1    1    2  501    0  0.27440564906E+02 -0.40589599446E+01 -0.74541202060E+02  0.79535215865E+02  0.00000000000E+00 0. -1.
         -2    1    1    2    0  502 -0.27440564906E+02  0.40589599446E+01  0.29834318900E+02  0.40737529901E+02  0.00000000000E+00 0.  1.
</event>
<event>
 4    1  0.1762646E+004  0.2550971E+02  0.7546771E-02  0.1463181E+00
         21   -1    0    0  503  502  0.00000000000E+00  0.00000000000E+00  0.40116714433E+01  0.40116714433E+01  0.00000000000E+00 0. -1.
         21   -1    0    0  501  503 -0.00000000000E+00 -0.00000000000E+00 -0.16457187402E+03  0.16457187402E+03  0.00000000000E+00 0.  1.
          2    1    1    2  501    0  0.16284501630E+02 -0.19635687528E+02 -0.70188485387E+02  0.74680443886E+02  0.00000000000E+00 0.  1.
         -2    1    1    2    0  502 -0.16284501630E+02  0.19635687528E+02 -0.90371717186E+02  0.93903101574E+02  0.00000000000E+00 0. -1.
</event>
<event>
 4    1  0.1762646E+004  0.2551122E+02  0.7546771E-02  0.1463165E+00
         21   -1    0    0  503  502  0.00000000000E+00  0.00000000000E+00  0.19872056827E+01  0.19872056827E+01  0.00000000000E+00 0. -1.
         21   -1    0    0  501  503 -0.00000000000E+00 -0.00000000000E+00 -0.33243223244E+03  0.33243223244E+03  0.00000000000E+00 0.  1.
          2    1    1    2  501    0 -0.24404227880E+02 -0.74334465520E+01 -0.14486839571E+03  0.14709750012E+03  0.00000000000E+00 0.  1.
         -2    1    1    2    0  502  0.24404227880E+02  0.74334465520E+01 -0.18557663105E+03  0.18732193800E+03  0.00000000000E+00 0. -1.
</event>
<event>
 4    1  0.1762646E+004  0.2565143E+02  0.7546771E-02  0.1461646E+00
         21   -1    0    0  503  502  0.00000000000E+00  0.00000000000E+00  0.30617454889E+03  0.30617454889E+03  0.00000000000E+00 0.  1.
         21   -1    0    0  501  503 -0.00000000000E+00 -0.00000000000E+00 -0.21903745844E+01  0.21903745844E+01  0.00000000000E+00 0. -1.
          2    1    1    2  501    0 -0.22447803273E+02 -0.12413378865E+02  0.13082389679E+03  0.13331499472E+03  0.00000000000E+00 0.  1.
         -2    1    1    2    0  502  0.22447803273E+02  0.12413378865E+02  0.17316027752E+03  0.17504992876E+03  0.00000000000E+00 0. -1.
</event>
<event>
 4    1  0.1762646E+004  0.2021758E+02  0.7546771E-02  0.1530735E+00
         21   -1    0    0  503  502  0.00000000000E+00  0.00000000000E+00  0.83164231463E+01  0.83164231463E+01  0.00000000000E+00 0. -1.
         21   -1    0    0  501  503 -0.00000000000E+00 -0.00000000000E+00 -0.88830026551E+02  0.88830026551E+02  0.00000000000E+00 0.  1.
          2    1    1    2  501    0 -0.14817960817E+02 -0.13754221622E+02 -0.72720955458E+02  0.75479056286E+02  0.00000000000E+00 0.  1.
         -2    1    1    2    0  502  0.14817960817E+02  0.13754221622E+02 -0.77926479466E+01  0.21667393411E+02  0.00000000000E+00 0. -1.
</event>
<event>
 4    1  0.1762646E+004  0.2147552E+02  0.7546771E-02  0.1512583E+00
         21   -1    0    0  501  502  0.00000000000E+00  0.00000000000E+00  0.57661186126E+02  0.57661186126E+02  0.00000000000E+00 0. -1.
         21   -1    0    0  502  503 -0.00000000000E+00 -0.00000000000E+00 -0.18092113159E+02  0.18092113159E+02  0.00000000000E+00 0.  1.
          2    1    1    2  501    0 -0.21433954616E+02  0.13354164900E+01  0.48075790348E+02  0.52654338523E+02  0.00000000000E+00 0. -1.
         -2    1    1    2    0  503  0.21433954616E+02 -0.13354164900E+01 -0.85067173811E+01  0.23098960762E+02  0.00000000000E+00 0.  1.
</event>
<event>
 4    1  0.1762646E+004  0.2091916E+02  0.7546771E-02  0.1520422E+00
         21   -1    0    0  503  502  0.00000000000E+00  0.00000000000E+00  0.13696714662E+01  0.13696714662E+01  0.00000000000E+00 0.  1.
         21   -1    0    0  501  503 -0.00000000000E+00 -0.00000000000E+00 -0.32551842001E+03  0.32551842001E+03  0.00000000000E+00 0. -1.
          2    1    1    2  501    0 -0.17126519252E+02  0.12012220427E+02 -0.18429695203E+03  0.18548039689E+03  0.00000000000E+00 0.  1.
         -2    1    1    2    0  502  0.17126519252E+02 -0.12012220427E+02 -0.13985179652E+03  0.14140769459E+03  0.00000000000E+00 0. -1.
</event>
<event>
 4    1  0.1762646E+004  0.3009209E+02  0.7546771E-02  0.1418798E+00
         21   -1    0    0  503  502  0.00000000000E+00  0.00000000000E+00  0.48879747319E+02  0.48879747319E+02  0.00000000000E+00 0. -1.
         21   -1    0    0  501  503 -0.00000000000E+00 -0.00000000000E+00 -0.60034130398E+02  0.60034130398E+02  0.00000000000E+00 0.  1.
          2    1    1    2  501    0 -0.18849200620E+02  0.23457225576E+02 -0.50858818921E+02  0.59094443544E+02  0.00000000000E+00 0.  1.
         -2    1    1    2    0  502  0.18849200620E+02 -0.23457225576E+02  0.39704435843E+02  0.49819434173E+02  0.00000000000E+00 0. -1.
</event>
<event>
 4    1  0.1762646E+004  0.2046753E+02  0.7546771E-02  0.1527005E+00
         21   -1    0    0  501  502  0.00000000000E+00  0.00000000000E+00  0.24947817040E+01  0.24947817040E+01  0.00000000000E+00 0.  1.
         21   -1    0    0  502  503 -0.00000000000E+00 -0.00000000000E+00 -0.17578651406E+03  0.17578651406E+03  0.00000000000E+00 0. -1.
          2    1    1    2  501    0 -0.34025496875E+01  0.20182726406E+02 -0.67786898406E+02  0.70809486547E+02  0.00000000000E+00 0.  1.
         -2    1    1    2    0  503  0.34025496875E+01 -0.20182726406E+02 -0.10550483395E+03  0.10747180922E+03  0.00000000000E+00 0. -1.
</event>
<event>
 4    1  0.1762646E+004  0.2397213E+02  0.7546771E-02  0.1480639E+00
         21   -1    0    0  503  502  0.00000000000E+00  0.00000000000E+00  0.82551801217E+01  0.82551801217E+01  0.00000000000E+00 0.  1.
         21   -1    0    0  501  503 -0.00000000000E+00 -0.00000000000E+00 -0.10088414244E+03  0.10088414244E+03  0.00000000000E+00 0. -1.
          2    1    1    2  501    0 -0.17139258630E+02 -0.16760342033E+02 -0.76696424537E+02  0.80355490094E+02  0.00000000000E+00 0. -1.
         -2    1    1    2    0  502  0.17139258630E+02  0.16760342033E+02 -0.15932537785E+02  0.28783832471E+02  0.00000000000E+00 0.  1.
</event>
<event>
 4    1  0.1762646E+004  0.2139220E+02  0.7546771E-02  0.1513738E+00
         21   -1    0    0  503  502  0.00000000000E+00  0.00000000000E+00  0.19234841546E+02  0.19234841546E+02  0.00000000000E+00 0. -1.
         21   -1    0    0  501  503 -0.00000000000E+00 -0.00000000000E+00 -0.48517117779E+02  0.48517117779E+02  0.00000000000E+00 0.  1.
          2    1    1    2  501    0 -0.11700924766E+02  0.17908503730E+02 -0.38824560083E+02  0.44328011594E+02  0.00000000000E+00 0.  1.
         -2    1    1    2    0  502  0.11700924766E+02 -0.17908503730E+02  0.95422838501E+01  0.23423947731E+02  0.00000000000E+00 0. -1.
</event>
<event>
 4    1  0.1762646E+004  0.2274426E+02  0.7546771E-02  0.1495735E+00
         21   -1    0    0  503  502  0.00000000000E+00  0.00000000000E+00  0.25117959418E+02  0.25117959418E+02  0.00000000000E+00 0.  1.
         21   -1    0    0  501  503 -0.00000000000E+00 -0.00000000000E+00 -0.25333557971E+02  0.25333557971E+02  0.00000000000E+00 0. -1.
          2    1    1    2  501    0 -0.36836965579E+01  0.22443969940E+02 -0.11017796879E+02  0.25272381270E+02  0.00000000000E+00 0. -1.
         -2    1    1    2    0  502  0.36836965579E+01 -0.22443969940E+02  0.10802198326E+02  0.25179136118E+02  0.00000000000E+00 0.  1.
</event>
<event>
 4    1  0.1762646E+004  0.2428667E+02  0.7546771E-02  0.1476944E+00
         21   -1    0    0  501  502  0.00000000000E+00  0.00000000000E+00  0.22755767432E+03  0.22755767432E+03  0.00000000000E+00 0.  1.
         21   -1    0    0  502  503 -0.00000000000E+00 -0.00000000000E+00 -0.40293818863E+01  0.40293818863E+01  0.00000000000E+00 0. -1.
          2    1    1    2  501    0  0.12827181654E+02  0.20622943194E+02  0.18092217441E+03  0.18254499601E+03  0.00000000000E+00 0.  1.
         -2    1    1    2    0  503 -0.12827181654E+02 -0.20622943194E+02  0.42606118020E+02  0.49042060193E+02  0.00000000000E+00 0. -1.
</event>
<event>
 4    1  0.1762646E+004  0.2309380E+02  0.7546771E-02  0.1491324E+00
         21   -1    0    0  501  502  0.00000000000E+00  0.00000000000E+00  0.18647729427E+02  0.18647729427E+02  0.00000000000E+00 0. -1.
         21   -1    0    0  502  503 -0.00000000000E+00 -0.00000000000E+00 -0.62793575596E+02  0.62793575596E+02  0.00000000000E+00 0.  1.
          2    1    1    2  501    0 -0.15465870190E+02 -0.17150231450E+02  0.79760673254E+01  0.24432380758E+02  0.00000000000E+00 0. -1.
         -2    1    1    2    0  503  0.15465870190E+02  0.17150231450E+02 -0.52121913494E+02  0.57008924265E+02  0.00000000000E+00 0.  1.
</event>
<event>
 4    1  0.1762646E+004  0.3667267E+02  0.7546771E-02  0.1369170E+00
         21   -1    0    0  503  502  0.00000000000E+00  0.00000000000E+00  0.10606266014E+03  0.10606266014E+03  0.00000000000E+00 0.  1.
         21   -1    0    0  501  503 -0.00000000000E+00 -0.00000000000E+00 -0.13411155180E+02  0.13411155180E+02  0.00000000000E+00 0. -1.
          2    1    1    2  501    0  0.19683980462E+02  0.30942291293E+02  0.32378567221E+02  0.48920916719E+02  0.00000000000E+00 0.  1.
         -2    1    1    2    0  502 -0.19683980462E+02 -0.30942291293E+02  0.60272937735E+02  0.70552898597E+02  0.00000000000E+00 0. -1.
</event>
<event>
 4    1  0.1762646E+004  0.2061262E+02  0.7546771E-02  0.1524868E+00
         21   -1    0    0  503  502  0.00000000000E+00  0.00000000000E+00  0.10715239651E+03  0.10715239651E+03  0.00000000000E+00 0.  1.
         21   -1    0    0  501  503 -0.00000000000E+00 -0.00000000000E+00 -0.53762864508E+02  0.53762864508E+02  0.00000000000E+00 0. -1.
          2    1    1    2  501    0 -0.37006308131E+01 -0.20277707280E+02 -0.50739030059E+02  0.54766132347E+02  0.00000000000E+00 0. -1.
         -2    1    1    2    0  502  0.37006308131E+01  0.20277707280E+02  0.10412856206E+03  0.10614912867E+03  0.00000000000E+00 0.  1.
</event>
<event>
 4    1  0.1762646E+004  0.2554951E+02  0.7546771E-02  0.1462749E+00
         21   -1    0    0  503  502  0.00000000000E+00  0.00000000000E+00  0.15244549618E+02  0.15244549618E+02  0.00000000000E+00 0. -1.
         21   -1    0    0  501  503 -0.00000000000E+00 -0.00000000000E+00 -0.60244200511E+02  0.60244200511E+02  0.00000000000E+00 0.  1.
          2    1    1    2  501    0 -0.11634324453E+02  0.22746871839E+02 -0.42798425416E+02  0.49844587489E+02  0.00000000000E+00 0.  1.
         -2    1    1    2    0  502  0.11634324453E+02 -0.22746871839E+02 -0.22012254778E+01  0.25644162640E+02  0.00000000000E+00 0. -1.
</event>
<event>
 4    1  0.1762646E+004  0.2053592E+02  0.7546771E-02  0.1525995E+00
         21   -1    0    0  503  502  0.00000000000E+00  0.00000000000E+00  0.37153297200E+02  0.37153297200E+02  0.00000000000E+00 0.  1.
         21   -1    0    0  501  503 -0.00000000000E+00 -0.00000000000E+00 -0.17768552998E+02  0.17768552998E+02  0.00000000000E+00 0. -1.
          2    1    1    2  501    0 -0.98487898589E+01 -0.18020132655E+02 -0.68111564842E+01  0.21635981495E+02  0.00000000000E+00 0. -1.
         -2    1    1    2    0  502  0.98487898589E+01  0.18020132655E+02  0.26195900686E+02  0.33285868704E+02  0.00000000000E+00 0.  1.
</event>
<event>
 4    1  0.1762646E+004  0.2668000E+02  0.7546771E-02  0.1450849E+00
         21   -1    0    0  503  502  0.00000000000E+00  0.00000000000E+00  0.19533129790E+02  0.19533129790E+02  0.00000000000E+00 0. -1.
         21   -1    0    0  501  503 -0.00000000000E+00 -0.00000000000E+00 -0.58893972251E+02  0.58893972251E+02  0.00000000000E+00 0.  1.
          2    1    1    2  501    0 -0.26567552346E+02 -0.24469806135E+01 -0.43892376363E+02  0.51365000288E+02  0.00000000000E+00 0.  1.
         -2    1    1    2    0  502  0.26567552346E+02  0.24469806135E+01  0.45315339030E+01  0.27062101753E+02  0.00000000000E+00 0. -1.
</event>
<event>
 4    1  0.1762646E+004  0.3724622E+02  0.7546771E-02  0.1365425E+00
         21   -1    0    0  501  502  0.00000000000E+00  0.00000000000E+00  0.36456166144E+03  0.36456166144E+03  0.00000000000E+00 0. -1.
         21   -1    0    0  502  503 -0.00000000000E+00 -0.00000000000E+00 -0.12977502929E+02  0.12977502929E+02  0.00000000000E+00 0.  1.
          2    1    1    2  501    0 -0.34204185520E+02 -0.14742951832E+02  0.33449040172E+03  0.33655773617E+03  0.00000000000E+00 0. -1.
         -2    1    1    2    0  503  0.34204185520E+02  0.14742951832E+02  0.17093756795E+02  0.40981428199E+02  0.00000000000E+00 0.  1.
</event>
<event>
 4    1  0.1762646E+004  0.2178518E+02  0.7546771E-02  0.1508343E+00
         21   -1    0    0  503  502  0.00000000000E+00  0.00000000000E+00  0.33728358479E+03  0.33728358479E+03  0.00000000000E+00 0.  1.
         21   -1    0    0  501  503 -0.00000000000E+00 -0.00000000000E+00 -0.15324439019E+01  0.15324439019E+01  0.00000000000E+00 0. -1.
          2    1    1    2  501    0  0.82550814901E+01  0.20160552884E+02  0.21632406255E+03  0.21741824740E+03  0.00000000000E+00 0.  1.
         -2    1    1    2    0  502 -0.82550814901E+01 -0.20160552884E+02  0.11942707834E+03  0.12139778129E+03  0.00000000000E+00 0. -1.
</event>
<event>
 4    1  0.1762646E+004  0.3699978E+02  0.7546771E-02  0.1367024E+00
         21   -1    0    0  501  502  0.00000000000E+00  0.00000000000E+00  0.51735503225E+03  0.51735503225E+03  0.00000000000E+00 0. -1.
         21   -1    0    0  502  503 -0.00000000000E+00 -0.00000000000E+00 -0.50768595974E+01  0.50768595974E+01  0.00000000000E+00 0.  1.
          2    1    1    2  501    0  0.11813384501E+02 -0.35063196292E+02  0.43688616067E+03  0.43845011252E+03  0.00000000000E+00 0. -1.
         -2    1    1    2    0  503 -0.11813384501E+02  0.35063196292E+02  0.75392011987E+02  0.83981779327E+02  0.00000000000E+00 0.  1.
</event>
<event>
 4    1  0.1762646E+004  0.3334665E+02  0.7546771E-02  0.1392575E+00
         21   -1    0    0  501  502  0.00000000000E+00  0.00000000000E+00  0.14296174658E+02  0.14296174658E+02  0.00000000000E+00 0.  1.
         21   -1    0    0  502  503 -0.00000000000E+00 -0.00000000000E+00 -0.10982972509E+03  0.10982972509E+03  0.00000000000E+00 0. -1.
          2    1    1    2  501    0  0.30534343956E+02  0.13403455241E+02 -0.14242100855E+02  0.36260670291E+02  0.00000000000E+00 0.  1.
         -2    1    1    2    0  503 -0.30534343956E+02 -0.13403455241E+02 -0.81291449575E+02  0.87865229456E+02  0.00000000000E+00 0. -1.
</event>
<event>
 4    1  0.1762646E+004  0.2649206E+02  0.7546771E-02  0.1452778E+00
         21   -1    0    0  503  502  0.00000000000E+00  0.00000000000E+00  0.25905355078E+02  0.25905355078E+02  0.00000000000E+00 0. -1.
         21   -1    0    0  501  503 -0.00000000000E+00 -0.00000000000E+00 -0.47420635681E+02  0.47420635681E+02  0.00000000000E+00 0.  1.
          2    1    1    2  501    0  0.11125280528E+02 -0.24042825717E+02 -0.34762422760E+02  0.43706468302E+02  0.00000000000E+00 0.  1.
         -2    1    1    2    0  502 -0.11125280528E+02  0.24042825717E+02  0.13247142157E+02  0.29619522457E+02  0.00000000000E+00 0. -1.
</event>
<event>
 4    1  0.1762646E+004  0.2240528E+02  0.7546771E-02  0.1500104E+00
         21   -1    0    0  501  502  0.00000000000E+00  0.00000000000E+00  0.29352365249E+02  0.29352365249E+02  0.00000000000E+00 0.  1.
         21   -1    0    0  502  503 -0.00000000000E+00 -0.00000000000E+00 -0.28846282734E+02  0.28846282734E+02  0.00000000000E+00 0. -1.
          2    1    1    2  501    0 -0.13776733308E+02  0.17669126519E+02  0.18820116473E+02  0.29260779153E+02  0.00000000000E+00 0.  1.
         -2    1    1    2    0  503  0.13776733308E+02 -0.17669126519E+02 -0.18314033958E+02  0.28937868830E+02  0.00000000000E+00 0. -1.
</event>
<event>
 4    1  0.1762646E+004  0.3729047E+02  0.7546771E-02  0.1365139E+00
         21   -1    0    0  501  502  0.00000000000E+00  0.00000000000E+00  0.63231246181E+02  0.63231246181E+02  0.00000000000E+00 0. -1.
         21   -1    0    0  502  503 -0.00000000000E+00 -0.00000000000E+00 -0.68426421361E+02  0.68426421361E+02  0.00000000000E+00 0.  1.
          2    1    1    2  501    0  0.27748195592E+02 -0.24912179875E+02  0.51630520303E+02  0.63689007619E+02  0.00000000000E+00 0. -1.
         -2    1    1    2    0  503 -0.27748195592E+02  0.24912179875E+02 -0.56825695483E+02  0.67968659923E+02  0.00000000000E+00 0.  1.
</event>
<event>
 4    1  0.1762646E+004  0.2738326E+02  0.7546771E-02  0.1443796E+00
         21   -1    0    0  501  502  0.00000000000E+00  0.00000000000E+00  0.15753417052E+03  0.15753417052E+03  0.00000000000E+00 0. -1.
         21   -1    0    0  502  503 -0.00000000000E+00 -0.00000000000E+00 -0.49013955670E+01  0.49013955670E+01  0.00000000000E+00 0.  1.
          2    1    1    2  501    0 -0.75251915007E+00  0.27372914544E+02  0.62515620686E+02  0.68249875938E+02  0.00000000000E+00 0.  1.
         -2    1    1    2    0  503  0.75251915007E+00 -0.27372914544E+02  0.90117154262E+02  0.94185690145E+02  0.00000000000E+00 0. -1.
</event>
<event>
 4    1  0.1762646E+004  0.4780090E+02  0.7546771E-02  0.1307999E+00
         21   -1    0    0  503  502  0.00000000000E+00  0.00000000000E+00  0.19215736534E+03  0.19215736534E+03  0.00000000000E+00 0. -1.
         21   -1    0    0  501  503 -0.00000000000E+00 -0.00000000000E+00 -0.12611490674E+02  0.12611490674E+02  0.00000000000E+00 0.  1.
          2    1    1    2  501    0 -0.40887965517E+02 -0.24760865274E+02  0.65299688182E+02  0.80925740342E+02  0.00000000000E+00 0.  1.
         -2    1    1    2    0  502  0.40887965517E+02  0.24760865274E+02  0.11424618648E+03  0.12384311567E+03  0.00000000000E+00 0. -1.
</event>
<event>
 4    1  0.1762646E+004  0.2367496E+02  0.7546771E-02  0.1484192E+00
         21   -1    0    0  503  502  0.00000000000E+00  0.00000000000E+00  0.39735621471E+03  0.39735621471E+03  0.00000000000E+00 0.  1.
         21   -1    0    0  501  503 -0.00000000000E+00 -0.00000000000E+00 -0.28698503896E+01  0.28698503896E+01  0.00000000000E+00 0. -1.
          2    1    1    2  501    0 -0.23325430106E+02 -0.40531313713E+01  0.54546683264E+02  0.59462965101E+02  0.00000000000E+00 0. -1.
         -2    1    1    2    0  502  0.23325430106E+02  0.40531313713E+01  0.33993968106E+03  0.34076310000E+03  0.00000000000E+00 0.  1.
</event>
<event>
 4    1  0.1762646E+004  0.2923567E+02  0.7546771E-02  0.1426357E+00
         21   -1    0    0  503  502  0.00000000000E+00  0.00000000000E+00  0.46646389602E+02  0.46646389602E+02  0.00000000000E+00 0.  1.
         21   -1    0    0  501  503 -0.00000000000E+00 -0.00000000000E+00 -0.22971981382E+02  0.22971981382E+02  0.00000000000E+00 0. -1.
          2    1    1    2  501    0 -0.21579437558E+02 -0.19724402724E+02 -0.38213304230E+01  0.29484347616E+02  0.00000000000E+00 0. -1.
         -2    1    1    2    0  502  0.21579437558E+02  0.19724402724E+02  0.27495738644E+02  0.40134023368E+02  0.00000000000E+00 0.  1.
</event>
<event>
 4    1  0.1762646E+004  0.3467828E+02  0.7546771E-02  0.1382839E+00
         21   -1    0    0  501  502  0.00000000000E+00  0.00000000000E+00  0.15777748465E+01  0.15777748465E+01  0.00000000000E+00 0.  1.
         21   -1    0    0  502  503 -0.00000000000E+00 -0.00000000000E+00 -0.76707336410E+03  0.76707336410E+03  0.00000000000E+00 0. -1.
          2    1    1    2  501    0 -0.27311589345E+02  0.21369608974E+02 -0.35212059095E+03  0.35382409990E+03  0.00000000000E+00 0. -1.
         -2    1    1    2    0  503  0.27311589345E+02 -0.21369608974E+02 -0.41337499830E+03  0.41482703904E+03  0.00000000000E+00 0.  1.
</event>
<event>
 4    1  0.1762646E+004  0.2457229E+02  0.7546771E-02  0.1473645E+00
         21   -1    0    0  501  502  0.00000000000E+00  0.00000000000E+00  0.70050868315E+02  0.70050868315E+02  0.00000000000E+00 0. -1.
         21   -1    0    0  502  503 -0.00000000000E+00 -0.00000000000E+00 -0.92321289529E+01  0.92321289529E+01  0.00000000000E+00 0.  1.
          2    1    1    2  501    0  0.21977727741E+02 -0.10989859493E+02  0.40621771661E+02  0.47475529078E+02  0.00000000000E+00 0. -1.
         -2    1    1    2    0  503 -0.21977727741E+02  0.10989859493E+02  0.20196967701E+02  0.31807468190E+02  0.00000000000E+00 0.  1.
</event>
<event>
 4    1  0.1762646E+004  0.2141214E+02  0.7546771E-02  0.1513461E+00
         21   -1    0    0  501  502  0.00000000000E+00  0.00000000000E+00  0.34125552558E+03  0.34125552558E+03  0.00000000000E+00 0. -1.
         21   -1    0    0  502  503 -0.00000000000E+00 -0.00000000000E+00 -0.14727603671E+01  0.14727603671E+01  0.00000000000E+00 0.  1.
          2    1    1    2  501    0  0.21003074161E+02 -0.41653833003E+01  0.22065740009E+03  0.22169386044E+03  0.00000000000E+00 0. -1.
         -2    1    1    2    0  503 -0.21003074161E+02  0.41653833003E+01  0.11912536513E+03  0.12103442551E+03  0.00000000000E+00 0.  1.
</event>
<event>
 4    1  0.1762646E+004  0.2006242E+02  0.7546771E-02  0.1533084E+00
         21   -1    0    0  501  502  0.00000000000E+00  0.00000000000E+00  0.19610756801E+01  0.19610756801E+01  0.00000000000E+00 0. -1.
         21   -1    0    0  502  503 -0.00000000000E+00 -0.00000000000E+00 -0.30312798978E+03  0.30312798978E+03  0.00000000000E+00 0.  1.
          2    1    1    2  501    0 -0.13449787573E+02  0.14886366107E+02 -0.63899730094E+02  0.66975190838E+02  0.00000000000E+00 0. -1.
         -2    1    1    2    0  503  0.13449787573E+02 -0.14886366107E+02 -0.23726718401E+03  0.23811387462E+03  0.00000000000E+00 0.  1.
</event>
<event>
 4    1  0.1762646E+004  0.2155546E+02  0.7546771E-02  0.1511480E+00
         21   -1    0    0  501  502  0.00000000000E+00  0.00000000000E+00  0.43988192588E+02  0.43988192588E+02  0.00000000000E+00 0.  1.
         21   -1    0    0  502  503 -0.00000000000E+00 -0.00000000000E+00 -0.23954173330E+02  0.23954173330E+02  0.00000000000E+00 0. -1.
          2    1    1    2  501    0 -0.16211543798E+02 -0.14206465908E+02  0.35416960502E+02  0.41460811824E+02  0.00000000000E+00 0.  1.
         -2    1    1    2    0  503  0.16211543798E+02  0.14206465908E+02 -0.15382941244E+02  0.26481554094E+02  0.00000000000E+00 0. -1.
</event>
<event>
 4    1  0.1762646E+004  0.3140490E+02  0.7546771E-02  0.1407768E+00
         21   -1    0    0  501  502  0.00000000000E+00  0.00000000000E+00  0.53869197911E+02  0.53869197911E+02  0.00000000000E+00 0.  1.
         21   -1    0    0  502  503 -0.00000000000E+00 -0.00000000000E+00 -0.18308650094E+02  0.18308650094E+02  0.00000000000E+00 0. -1.
          2    1    1    2  501    0  0.26590332879E+02  0.16709939180E+02  0.17703828279E+02  0.36051260806E+02  0.00000000000E+00 0. -1.
         -2    1    1    2    0  503 -0.26590332879E+02 -0.16709939180E+02  0.17856719538E+02  0.36126587199E+02  0.00000000000E+00 0.  1.
</event>
<event>
 4    1  0.1762646E+004  0.2659491E+02  0.7546771E-02  0.1451720E+00
         21   -1    0    0  503  502  0.00000000000E+00  0.00000000000E+00  0.63756591028E+01  0.63756591028E+01  0.00000000000E+00 0.  1.
         21   -1    0    0  501  503 -0.00000000000E+00 -0.00000000000E+00 -0.11294408649E+03  0.11294408649E+03  0.00000000000E+00 0. -1.
          2    1    1    2  501    0 -0.97647145903E+01  0.24737417208E+02 -0.45328980297E+02  0.52554789658E+02  0.00000000000E+00 0. -1.
         -2    1    1    2    0  502  0.97647145903E+01 -0.24737417208E+02 -0.61239447088E+02  0.66764955933E+02  0.00000000000E+00 0.  1.
</event>
<event>
 4    1  0.1762646E+004  0.2036967E+02  0.7546771E-02  0.1528458E+00
         21   -1    0    0  503  502  0.00000000000E+00  0.00000000000E+00  0.93811652919E+01  0.93811652919E+01  0.00000000000E+00 0.  1.
         21   -1    0    0  501  503 -0.00000000000E+00 -0.00000000000E+00 -0.83766717917E+02  0.83766717917E+02  0.00000000000E+00 0. -1.
          2    1    1    2  501    0 -0.11141323415E+02 -0.17052698785E+02 -0.69189879716E+02  0.72126022200E+02  0.00000000000E+00 0. -1.
         -2    1    1    2    0  502  0.11141323415E+02  0.17052698785E+02 -0.51956729087E+01  0.21021861008E+02  0.00000000000E+00 0.  1.
</event>
<event>
 4    1  0.1762646E+004  0.5542363E+02  0.7546771E-02  0.1276228E+00
         21   -1    0    0  503  502  0.00000000000E+00  0.00000000000E+00  0.20094026676E+03  0.20094026676E+03  0.00000000000E+00 0.  1.
         21   -1    0    0  501  503 -0.00000000000E+00 -0.00000000000E+00 -0.35630700546E+02  0.35630700546E+02  0.00000000000E+00 0. -1.
          2    1    1    2  501    0 -0.11059010653E+01 -0.55412591828E+02 -0.67239116200E+01  0.55830003920E+02  0.00000000000E+00 0. -1.
         -2    1    1    2    0  502  0.11059010653E+01  0.55412591828E+02  0.17203347784E+03  0.18074096339E+03  0.00000000000E+00 0.  1.
</event>
<event>
 4    1  0.1762646E+004  0.2153677E+02  0.7546771E-02  0.1511737E+00
         21   -1    0    0  503  502  0.00000000000E+00  0.00000000000E+00  0.45283402876E+03  0.45283402876E+03  0.00000000000E+00 0.  1.
         21   -1    0    0  501  503 -0.00000000000E+00 -0.00000000000E+00 -0.10246996105E+01  0.10246996105E+01  0.00000000000E+00 0. -1.
          2    1    1    2  501    0  0.21239730621E+02 -0.35646096815E+01  0.23045114697E+03  0.23145531694E+03  0.00000000000E+00 0.  1.
         -2    1    1    2    0  502 -0.21239730621E+02  0.35646096815E+01  0.22135818218E+03  0.22240341143E+03  0.00000000000E+00 0. -1.
</event>
<event>
 4    1  0.1762646E+004  0.2081539E+02  0.7546771E-02  0.1521917E+00
         21   -1    0    0  501  502  0.00000000000E+00  0.00000000000E+00  0.32347832741E+03  0.32347832741E+03  0.00000000000E+00 0.  1.
         21   -1    0    0  502  503 -0.00000000000E+00 -0.00000000000E+00 -0.16800719365E+01  0.16800719365E+01  0.00000000000E+00 0. -1.
          2    1    1    2  501    0 -0.20077798243E+02  0.54920380228E+01  0.23410441300E+03  0.23502799121E+03  0.00000000000E+00 0.  1.
         -2    1    1    2    0  503  0.20077798243E+02 -0.54920380228E+01  0.87693842473E+02  0.90130408141E+02  0.00000000000E+00 0. -1.
</event>
<event>
 4    1  0.1762646E+004  0.3517928E+02  0.7546771E-02  0.1379307E+00
         21   -1    0    0  503  502  0.00000000000E+00  0.00000000000E+00  0.53336725011E+02  0.53336725011E+02  0.00000000000E+00 0. -1.
         21   -1    0    0  501  503 -0.00000000000E+00 -0.00000000000E+00 -0.28482826819E+02  0.28482826819E+02  0.00000000000E+00 0.  1.
          2    1    1    2  501    0 -0.34728930798E+02  0.56109770708E+01  0.30040135853E+02  0.46260041722E+02  0.00000000000E+00 0. -1.
         -2    1    1    2    0  502  0.34728930798E+02 -0.56109770708E+01 -0.51862376607E+01  0.35559510108E+02  0.00000000000E+00 0.  1.
</event>
<event>
 4    1  0.1762646E+004  0.3119525E+02  0.7546771E-02  0.1409486E+00
         21   -1    0    0  503  502  0.00000000000E+00  0.00000000000E+00  0.18879397753E+01  0.18879397753E+01  0.00000000000E+00 0.  1.
         21   -1    0    0  501  503 -0.00000000000E+00 -0.00000000000E+00 -0.63809292656E+03  0.63809292656E+03  0.00000000000E+00 0. -1.
          2    1    1    2  501    0  0.29456879316E+02 -0.10268185994E+02 -0.17781732550E+03  0.18053294611E+03  0.00000000000E+00 0.  1.
         -2    1    1    2    0  502 -0.29456879316E+02  0.10268185994E+02 -0.45838766128E+03  0.45944792023E+03  0.00000000000E+00 0. -1.
</event>
<event>
 4    1  0.1762646E+004  0.3825455E+02  0.7546771E-02  0.1359029E+00
         21   -1    0    0  503  502  0.00000000000E+00  0.00000000000E+00  0.13894804530E+03  0.13894804530E+03  0.00000000000E+00 0.  1.
         21   -1    0    0  501  503 -0.00000000000E+00 -0.00000000000E+00 -0.14058028016E+02  0.14058028016E+02  0.00000000000E+00 0. -1.
          2    1    1    2  501    0 -0.64821231072E+01 -0.37701359292E+02  0.24131220228E+02  0.45229704865E+02  0.00000000000E+00 0. -1.
         -2    1    1    2    0  502  0.64821231072E+01  0.37701359292E+02  0.10075879705E+03  0.10777636845E+03  0.00000000000E+00 0.  1.
</event>
<event>
 4    1  0.1762646E+004  0.2225914E+02  0.7546771E-02  0.1502017E+00
         21   -1    0    0  501  502  0.00000000000E+00  0.00000000000E+00  0.56589952725E+01  0.56589952725E+01  0.00000000000E+00 0.  1.
         21   -1    0    0  502  503 -0.00000000000E+00 -0.00000000000E+00 -0.11224770273E+03  0.11224770273E+03  0.00000000000E+00 0. -1.
          2    1    1    2  501    0 -0.72881572417E-01  0.22259017424E+02 -0.25643373396E+02  0.33956615961E+02  0.00000000000E+00 0.  1.
         -2    1    1    2    0  503  0.72881572417E-01 -0.22259017424E+02 -0.80945334057E+02  0.83950082037E+02  0.00000000000E+00 0. -1.
</event>
<event>
 4    1  0.1762646E+004  0.2266293E+02  0.7546771E-02  0.1496775E+00
         21   -1    0    0  501  502  0.00000000000E+00  0.00000000000E+00  0.10285989244E+03  0.10285989244E+03  0.00000000000E+00 0. -1.
         21   -1    0    0  502  503 -0.00000000000E+00 -0.00000000000E+00 -0.10394093153E+02  0.10394093153E+02  0.00000000000E+00 0.  1.
          2    1    1    2  501    0  0.31643248226E+01 -0.22440927367E+02  0.87051658995E+02  0.89953318485E+02  0.00000000000E+00 0. -1.
         -2    1    1    2    0  503 -0.31643248226E+01  0.22440927367E+02  0.54141402943E+01  0.23300667111E+02  0.00000000000E+00 0.  1.
</event>
<event>
 4    1  0.1762646E+004  0.2086388E+02  0.7546771E-02  0.1521217E+00
         21   -1    0    0  501  502  0.00000000000E+00  0.00000000000E+00  0.31059495917E+02  0.31059495917E+02  0.00000000000E+00 0. -1.
         21   -1    0    0  502  503 -0.00000000000E+00 -0.00000000000E+00 -0.22255974967E+02  0.22255974967E+02  0.00000000000E+00 0.  1.
          2    1    1    2  501    0  0.17277530034E+02  0.11695652485E+02  0.20623115204E+02  0.29336226954E+02  0.00000000000E+00 0.  1.
         -2    1    1    2    0  503 -0.17277530034E+02 -0.11695652485E+02 -0.11819594254E+02  0.23979243930E+02  0.00000000000E+00 0. -1.
</event>
<event>
 4    1  0.1762646E+004  0.2024565E+02  0.7546771E-02  0.1530313E+00
         21   -1    0    0  503  502  0.00000000000E+00  0.00000000000E+00  0.12470783614E+01  0.12470783614E+01  0.00000000000E+00 0.  1.
         21   -1    0    0  501  503 -0.00000000000E+00 -0.00000000000E+00 -0.55753887385E+03  0.55753887385E+03  0.00000000000E+00 0. -1.
          2    1    1    2  501    0  0.18495796163E+02  0.82335797526E+01 -0.45715057366E+03  0.45759865964E+03  0.00000000000E+00 0. -1.
         -2    1    1    2    0  502 -0.18495796163E+02 -0.82335797526E+01 -0.99141221828E+02  0.10118729257E+03  0.00000000000E+00 0.  1.
</event>
<event>
 4    1  0.1762646E+004  0.2209389E+02  0.7546771E-02  0.1504201E+00
         21   -1    0    0  503  502  0.00000000000E+00  0.00000000000E+00  0.22527902316E+02  0.22527902316E+02  0.00000000000E+00 0. -1.
         21   -1    0    0  501  503 -0.00000000000E+00 -0.00000000000E+00 -0.23529812072E+02  0.23529812072E+02  0.00000000000E+00 0.  1.
          2    1    1    2  501    0 -0.16438605863E+02  0.14761856419E+02 -0.69783767876E+01  0.23169762844E+02  0.00000000000E+00 0. -1.
         -2    1    1    2    0  502  0.16438605863E+02 -0.14761856419E+02  0.59764670316E+01  0.22887951543E+02  0.00000000000E+00 0.  1.
</event>
<event>
 4    1  0.1762646E+004  0.2406511E+02  0.7546771E-02  0.1479540E+00
         21   -1    0    0  501  502  0.00000000000E+00  0.00000000000E+00  0.79046959353E+01  0.79046959353E+01  0.00000000000E+00 0. -1.
         21   -1    0    0  502  503 -0.00000000000E+00 -0.00000000000E+00 -0.11184709997E+03  0.11184709997E+03  0.00000000000E+00 0.  1.
          2    1    1    2  501    0 -0.22771759888E+02  0.77830864641E+01 -0.16803956909E+02  0.29351361997E+02  0.00000000000E+00 0. -1.
         -2    1    1    2    0  503  0.22771759888E+02 -0.77830864641E+01 -0.87138447125E+02  0.90400433907E+02  0.00000000000E+00 0.  1.
</event>
<event>
 4    1  0.1762646E+004  0.2854628E+02  0.7546771E-02  0.1432665E+00
         21   -1    0    0  501  502  0.00000000000E+00  0.00000000000E+00  0.90312795380E+02  0.90312795380E+02  0.00000000000E+00 0.  1.
         21   -1    0    0  502  503 -0.00000000000E+00 -0.00000000000E+00 -0.11878637983E+02  0.11878637983E+02  0.00000000000E+00 0. -1.
          2    1    1    2  501    0 -0.28540418484E+02 -0.57850725081E+00  0.64269781970E+02  0.70324213699E+02  0.00000000000E+00 0.  1.
         -2    1    1    2    0  503  0.28540418484E+02  0.57850725081E+00  0.14164375426E+02  0.31867219664E+02  0.00000000000E+00 0. -1.
</event>
<event>
 4    1  0.1762646E+004  0.2096209E+02  0.7546771E-02  0.1519807E+00
         21   -1    0    0  501  502  0.00000000000E+00  0.00000000000E+00  0.54685225889E+01  0.54685225889E+01  0.00000000000E+00 0. -1.
         21   -1    0    0  502  503 -0.00000000000E+00 -0.00000000000E+00 -0.11281518162E+03  0.11281518162E+03  0.00000000000E+00 0.  1.
          2    1    1    2  501    0  0.12312787776E+02 -0.16964801452E+02 -0.21948183820E+02  0.30350156575E+02  0.00000000000E+00 0. -1.
         -2    1    1    2    0  503 -0.12312787776E+02  0.16964801452E+02 -0.85398475211E+02  0.87933547634E+02  0.00000000000E+00 0.  1.
</event>
<event>
 4    1  0.1762646E+004  0.2493309E+02  0.7546771E-02  0.1469553E+00
         21   -1    0    0  503  502  0.00000000000E+00  0.00000000000E+00  0.46747263437E+02  0.46747263437E+02  0.00000000000E+00 0. -1.
         21   -1    0    0  501  503 -0.00000000000E+00 -0.00000000000E+00 -0.19331318117E+02  0.19331318117E+02  0.00000000000E+00 0.  1.
          2    1    1    2  501    0  0.23724187597E+02  0.76695570093E+01 -0.47492886041E+01  0.25381389326E+02  0.00000000000E+00 0.  1.
         -2    1    1    2    0  502 -0.23724187597E+02 -0.76695570093E+01  0.32165233924E+02  0.40697192228E+02  0.00000000000E+00 0. -1.
</event>
<event>
 4    1  0.1762646E+004  0.3400832E+02  0.7546771E-02  0.1387672E+00
         21   -1    0    0  503  502  0.00000000000E+00  0.00000000000E+00  0.41540943813E+02  0.41540943813E+02  0.00000000000E+00 0.  1.
         21   -1    0    0  501  503 -0.00000000000E+00 -0.00000000000E+00 -0.10013951818E+03  0.10013951818E+03  0.00000000000E+00 0. -1.
          2    1    1    2  501    0 -0.31758696190E+02  0.12163519960E+02 -0.89491476592E+02  0.95735523105E+02  0.00000000000E+00 0. -1.
         -2    1    1    2    0  502  0.31758696190E+02 -0.12163519960E+02  0.30892902226E+02  0.45944938888E+02  0.00000000000E+00 0.  1.
</event>
<event>
 4    1  0.1762646E+004  0.2871371E+02  0.7546771E-02  0.1431114E+00
         21   -1    0    0  501  502  0.00000000000E+00  0.00000000000E+00  0.15718935853E+04  0.15718935853E+04  0.00000000000E+00 0. -1.
         21   -1    0    0  502  503 -0.00000000000E+00 -0.00000000000E+00 -0.53108345467E+00  0.53108345467E+00  0.00000000000E+00 0.  1.
          2    1    1    2  501    0 -0.25304799564E+02 -0.13569968704E+02  0.69822483467E+03  0.69881499460E+03  0.00000000000E+00 0. -1.
         -2    1    1    2    0  503  0.25304799564E+02  0.13569968704E+02  0.87313766722E+03  0.87360967420E+03  0.00000000000E+00 0.  1.
</event>
<event>
 4    1  0.1762646E+004  0.2162464E+02  0.7546771E-02  0.1510530E+00
         21   -1    0    0  503  502  0.00000000000E+00  0.00000000000E+00  0.14830065270E+01  0.14830065270E+01  0.00000000000E+00 0. -1.
         21   -1    0    0  501  503 -0.00000000000E+00 -0.00000000000E+00 -0.35973121180E+03  0.35973121180E+03  0.00000000000E+00 0.  1.
          2    1    1    2  501    0 -0.16674809310E+02 -0.13768650692E+02 -0.24258130446E+03  0.24354324930E+03  0.00000000000E+00 0.  1.
         -2    1    1    2    0  502  0.16674809310E+02  0.13768650692E+02 -0.11566690082E+03  0.11767096903E+03  0.00000000000E+00 0. -1.
</event>
<event>
 4    1  0.1762646E+004  0.2186267E+02  0.7546771E-02  0.1507296E+00
         21   -1    0    0  501  502  0.00000000000E+00  0.00000000000E+00  0.29128581306E+03  0.29128581306E+03  0.00000000000E+00 0.  1.
         21   -1    0    0  502  503 -0.00000000000E+00 -0.00000000000E+00 -0.25561854842E+01  0.25561854842E+01  0.00000000000E+00 0. -1.
          2    1    1    2  501    0  0.57942634280E+01 -0.21080864628E+02  0.23227952192E+03  0.23330613503E+03  0.00000000000E+00 0.  1.
         -2    1    1    2    0  503 -0.57942634280E+01  0.21080864628E+02  0.56450105658E+02  0.60535863511E+02  0.00000000000E+00 0. -1.
</event>
<event>
 4    1  0.1762646E+004  0.2254400E+02  0.7546771E-02  0.1498305E+00
         21   -1    0    0  501  502  0.00000000000E+00  0.00000000000E+00  0.10552692088E+03  0.10552692088E+03  0.00000000000E+00 0.  1.
         21   -1    0    0  502  503 -0.00000000000E+00 -0.00000000000E+00 -0.49222607537E+01  0.49222607537E+01  0.00000000000E+00 0. -1.
          2    1    1    2  501    0  0.10356079404E+02 -0.20024573938E+02  0.42193471570E+02  0.47838488533E+02  0.00000000000E+00 0. -1.
         -2    1    1    2    0  503 -0.10356079404E+02  0.20024573938E+02  0.58411188561E+02  0.62610693105E+02  0.00000000000E+00 0.  1.
</event>
<event>
 4    1  0.1762646E+004  0.2790601E+02  0.7546771E-02  0.1438713E+00
         21   -1    0    0  501  502  0.00000000000E+00  0.00000000000E+00  0.67815112461E+02  0.67815112461E+02  0.00000000000E+00 0.  1.
         21   -1    0    0  502  503 -0.00000000000E+00 -0.00000000000E+00 -0.14426115004E+02  0.14426115004E+02  0.00000000000E+00 0. -1.
          2    1    1    2  501    0  0.22593602915E+02 -0.16379080159E+02  0.45266647482E+02  0.53177199379E+02  0.00000000000E+00 0.  1.
         -2    1    1    2    0  503 -0.22593602915E+02  0.16379080159E+02  0.81223499744E+01  0.29064028087E+02  0.00000000000E+00 0. -1.
</event>
<event>
 4    1  0.1762646E+004  0.2059146E+02  0.7546771E-02  0.1525178E+00
         21   -1    0    0  503  502  0.00000000000E+00  0.00000000000E+00  0.31931915133E+02  0.31931915133E+02  0.00000000000E+00 0.  1.
         21   -1    0    0  501  503 -0.00000000000E+00 -0.00000000000E+00 -0.40278311288E+02  0.40278311288E+02  0.00000000000E+00 0. -1.
          2    1    1    2  501    0  0.16469602469E+02 -0.12359627889E+02 -0.33733807277E+02  0.39521866864E+02  0.00000000000E+00 0. -1.
         -2    1    1    2    0  502 -0.16469602469E+02  0.12359627889E+02  0.25387411122E+02  0.32688359557E+02  0.00000000000E+00 0.  1.
</event>
<event>
 4    1  0.1762646E+004  0.2606264E+02  0.7546771E-02  0.1457258E+00
         21   -1    0    0  501  502  0.00000000000E+00  0.00000000000E+00  0.18115239939E+02  0.18115239939E+02  0.00000000000E+00 0.  1.
         21   -1    0    0  502  503 -0.00000000000E+00 -0.00000000000E+00 -0.40818927478E+02  0.40818927478E+02  0.00000000000E+00 0. -1.
          2    1    1    2  501    0  0.21564851936E+02 -0.14636201290E+02 -0.29451967277E+01  0.26228522852E+02  0.00000000000E+00 0.  1.
         -2    1    1    2    0  503 -0.21564851936E+02  0.14636201290E+02 -0.19758490812E+02  0.32705644565E+02  0.00000000000E+00 0. -1.
</event>
<event>
 4    1  0.1762646E+004  0.2028930E+02  0.7546771E-02  0.1529658E+00
         21   -1    0    0  501  502  0.00000000000E+00  0.00000000000E+00  0.38116354961E+01  0.38116354961E+01  0.00000000000E+00 0. -1.
         21   -1    0    0  502  503 -0.00000000000E+00 -0.00000000000E+00 -0.11134434903E+03  0.11134434903E+03  0.00000000000E+00 0.  1.
          2    1    1    2  501    0 -0.13172464853E+02  0.15431839781E+02 -0.43787118899E+02  0.48259375160E+02  0.00000000000E+00 0. -1.
         -2    1    1    2    0  503  0.13172464853E+02 -0.15431839781E+02 -0.63745594636E+02  0.66896609367E+02  0.00000000000E+00 0.  1.
</event>
<event>
 4    1  0.1762646E+004  0.2026981E+02  0.7546771E-02  0.1529950E+00
         21   -1    0    0  503  502  0.00000000000E+00  0.00000000000E+00  0.50861467639E+02  0.50861467639E+02  0.00000000000E+00 0.  1.
         21   -1    0    0  501  503 -0.00000000000E+00 -0.00000000000E+00 -0.11882852057E+02  0.11882852057E+02  0.00000000000E+00 0. -1.
          2    1    1    2  501    0 -0.12153758579E+02 -0.16221938148E+02  0.17373598146E+01  0.20344127998E+02  0.00000000000E+00 0. -1.
         -2    1    1    2    0  502  0.12153758579E+02  0.16221938148E+02  0.37241255767E+02  0.42400191698E+02  0.00000000000E+00 0.  1.
</event>
<event>
 4    1  0.1762646E+004  0.2094636E+02  0.7546771E-02  0.1520032E+00
         21   -1    0    0  501  502  0.00000000000E+00  0.00000000000E+00  0.20662086664E+02  0.20662086664E+02  0.00000000000E+00 0. -1.
         21   -1    0    0  502  503 -0.00000000000E+00 -0.00000000000E+00 -0.22712062894E+02  0.22712062894E+02  0.00000000000E+00 0.  1.
          2    1    1    2  501    0 -0.18351711863E+02  0.10097754259E+02 -0.65564425955E+01  0.21948505846E+02  0.00000000000E+00 0.  1.
         -2    1    1    2    0  503  0.18351711863E+02 -0.10097754259E+02  0.45064663653E+01  0.21425643712E+02  0.00000000000E+00 0. -1.
</event>
<event>
 4    1  0.1762646E+004  0.2402143E+02  0.7546771E-02  0.1480055E+00
         21   -1    0    0  501  502  0.00000000000E+00  0.00000000000E+00  0.24400286533E+02  0.24400286533E+02  0.00000000000E+00 0.  1.
         21   -1    0    0  502  503 -0.00000000000E+00 -0.00000000000E+00 -0.29513224360E+02  0.29513224360E+02  0.00000000000E+00 0. -1.
          2    1    1    2  501    0 -0.11396383367E+01 -0.23994385520E+02 -0.14573146327E+02  0.28096368198E+02  0.00000000000E+00 0. -1.
         -2    1    1    2    0  503  0.11396383367E+01  0.23994385520E+02  0.94602085002E+01  0.25817142695E+02  0.00000000000E+00 0.  1.
</event>
<event>
 4    1  0.1762646E+004  0.2210095E+02  0.7546771E-02  0.1504107E+00
         21   -1    0    0  503  502  0.00000000000E+00  0.00000000000E+00  0.21988792411E+03  0.21988792411E+03  0.00000000000E+00 0.  1.
         21   -1    0    0  501  503 -0.00000000000E+00 -0.00000000000E+00 -0.87200321977E+01  0.87200321977E+01  0.00000000000E+00 0. -1.
          2    1    1    2  501    0 -0.89612416088E+01 -0.20202677293E+02  0.69073075541E+01  0.23155192045E+02  0.00000000000E+00 0. -1.
         -2    1    1    2    0  502  0.89612416088E+01  0.20202677293E+02  0.20426058436E+03  0.20545276426E+03  0.00000000000E+00 0.  1.
</event>
<event>
 4    1  0.1762646E+004  0.3256874E+02  0.7546771E-02  0.1398512E+00
         21   -1    0    0  501  502  0.00000000000E+00  0.00000000000E+00  0.10263787513E+02  0.10263787513E+02  0.00000000000E+00 0. -1.
         21   -1    0    0  502  503 -0.00000000000E+00 -0.00000000000E+00 -0.10347268136E+03  0.10347268136E+03  0.00000000000E+00 0.  1.
          2    1    1    2  501    0 -0.10399507103E+02  0.30863779923E+02 -0.48593288725E+02  0.58498122775E+02  0.00000000000E+00 0. -1.
         -2    1    1    2    0  503  0.10399507103E+02 -0.30863779923E+02 -0.44615605120E+02  0.55238346095E+02  0.00000000000E+00 0.  1.
</event>
<event>
 4    1  0.1762646E+004  0.2343552E+02  0.7546771E-02  0.1487101E+00
         21   -1    0    0  503  502  0.00000000000E+00  0.00000000000E+00  0.32578234403E+03  0.32578234403E+03  0.00000000000E+00 0. -1.
         21   -1    0    0  501  503 -0.00000000000E+00 -0.00000000000E+00 -0.54794055433E+01  0.54794055433E+01  0.00000000000E+00 0.  1.
          2    1    1    2  501    0 -0.16731848107E+02 -0.16409409267E+02  0.22336237746E+02  0.32374850891E+02  0.00000000000E+00 0.  1.
         -2    1    1    2    0  502  0.16731848107E+02  0.16409409267E+02  0.29796670074E+03  0.29888689868E+03  0.00000000000E+00 0. -1.
</event>
<event>
 4    1  0.1762646E+004  0.2098530E+02  0.7546771E-02  0.1519475E+00
         21   -1    0    0  501  502  0.00000000000E+00  0.00000000000E+00  0.46890184695E+03  0.46890184695E+03  0.00000000000E+00 0.  1.
         21   -1    0    0  502  503 -0.00000000000E+00 -0.00000000000E+00 -0.96982773644E+00  0.96982773644E+00  0.00000000000E+00 0. -1.
          2    1    1    2  501    0  0.13110669364E+02  0.16385766463E+02  0.27573027443E+03  0.27652769704E+03  0.00000000000E+00 0. -1.
         -2    1    1    2    0  503 -0.13110669364E+02 -0.16385766463E+02  0.19220174478E+03  0.19334397764E+03  0.00000000000E+00 0.  1.
</event>
<event>
 4    1  0.1762646E+004  0.2301534E+02  0.7546771E-02  0.1492306E+00
         21   -1    0    0  503  502  0.00000000000E+00  0.00000000000E+00  0.59558888239E+02  0.59558888239E+02  0.00000000000E+00 0.  1.
         21   -1    0    0  501  503 -0.00000000000E+00 -0.00000000000E+00 -0.12000075236E+02  0.12000075236E+02  0.00000000000E+00 0. -1.
          2    1    1    2  501    0  0.26317381881E+01 -0.22864377094E+02  0.55756541565E+01  0.23681083275E+02  0.00000000000E+00 0. -1.
         -2    1    1    2    0  502 -0.26317381881E+01  0.22864377094E+02  0.41983158847E+02  0.47877880201E+02  0.00000000000E+00 0.  1.
</event>
<event>
 4    1  0.1762646E+004  0.2902818E+02  0.7546771E-02  0.1428234E+00
         21   -1    0    0  501  502  0.00000000000E+00  0.00000000000E+00  0.30327079154E+02  0.30327079154E+02  0.00000000000E+00 0.  1.
         21   -1    0    0  502  503 -0.00000000000E+00 -0.00000000000E+00 -0.95618242924E+02  0.95618242924E+02  0.00000000000E+00 0. -1.
          2    1    1    2  501    0  0.65853732906E+01 -0.28271332994E+02  0.20394381848E+02  0.35476276884E+02  0.00000000000E+00 0.  1.
         -2    1    1    2    0  503 -0.65853732906E+01  0.28271332994E+02 -0.85685545617E+02  0.90469045194E+02  0.00000000000E+00 0. -1.
</event>
<event>
 4    1  0.1762646E+004  0.2003623E+02  0.7546771E-02  0.1533483E+00
         21   -1    0    0  503  502  0.00000000000E+00  0.00000000000E+00  0.22567860706E+03  0.22567860706E+03  0.00000000000E+00 0.  1.
         21   -1    0    0  501  503 -0.00000000000E+00 -0.00000000000E+00 -0.13969132172E+02  0.13969132172E+02  0.00000000000E+00 0. -1.
          2    1    1    2  501    0 -0.17126671054E+02  0.10398441439E+02 -0.60801184256E+01  0.20938440386E+02  0.00000000000E+00 0. -1.
         -2    1    1    2    0  502  0.17126671054E+02 -0.10398441439E+02  0.21778959332E+03  0.21870929885E+03  0.00000000000E+00 0.  1.
</event>
<event>
 4    1  0.1762646E+004  0.2142733E+02  0.7546771E-02  0.1513250E+00
         21   -1    0    0  501  502  0.00000000000E+00  0.00000000000E+00  0.45599934496E+02  0.45599934496E+02  0.00000000000E+00 0. -1.
         21   -1    0    0  502  503 -0.00000000000E+00 -0.00000000000E+00 -0.10610994885E+02  0.10610994885E+02  0.00000000000E+00 0.  1.
          2    1    1    2  501    0 -0.20259650517E+02 -0.69768995197E+01  0.23848416902E+02  0.32060529545E+02  0.00000000000E+00 0. -1.
         -2    1    1    2    0  503  0.20259650517E+02  0.69768995197E+01  0.11140522710E+02  0.24150399836E+02  0.00000000000E+00 0.  1.
</event>
<event>
 4    1  0.1762646E+004  0.2010559E+02  0.7546771E-02  0.1532428E+00
         21   -1    0    0  501  502  0.00000000000E+00  0.00000000000E+00  0.95433221620E+02  0.95433221620E+02  0.00000000000E+00 0.  1.
         21   -1    0    0  502  503 -0.00000000000E+00 -0.00000000000E+00 -0.11582875351E+02  0.11582875351E+02  0.00000000000E+00 0. -1.
          2    1    1    2  501    0 -0.13340631144E+02  0.15042017714E+02  0.84540769599E+02  0.86898656264E+02  0.00000000000E+00 0.  1.
         -2    1    1    2    0  503  0.13340631144E+02 -0.15042017714E+02 -0.69042332992E+00  0.20117440707E+02  0.00000000000E+00 0. -1.
</event>
<event>
 4    1  0.1762646E+004  0.2478282E+02  0.7546771E-02  0.1471248E+00
         21   -1    0    0  503  502  0.00000000000E+00  0.00000000000E+00  0.34399417666E+02  0.34399417666E+02  0.00000000000E+00 0.  1.
         21   -1    0    0  501  503 -0.00000000000E+00 -0.00000000000E+00 -0.18033219019E+02  0.18033219019E+02  0.00000000000E+00 0. -1.
          2    1    1    2  501    0  0.43956918542E+01 -0.24389878225E+02  0.55740401057E+01  0.25401932797E+02  0.00000000000E+00 0. -1.
         -2    1    1    2    0  502 -0.43956918542E+01  0.24389878225E+02  0.10792158541E+02  0.27030703888E+02  0.00000000000E+00 0.  1.
</event>
<event>
 4    1  0.1762646E+004  0.2017387E+02  0.7546771E-02  0.1531394E+00
         21   -1    0    0  503  502  0.00000000000E+00  0.00000000000E+00  0.13092214922E+02  0.13092214922E+02  0.00000000000E+00 0.  1.
         21   -1    0    0  501  503 -0.00000000000E+00 -0.00000000000E+00 -0.33057402567E+02  0.33057402567E+02  0.00000000000E+00 0. -1.
          2    1    1    2  501    0  0.11583610366E+02  0.16516813303E+02 -0.43476873352E+01  0.20637042810E+02  0.00000000000E+00 0.  1.
         -2    1    1    2    0  502 -0.11583610366E+02 -0.16516813303E+02 -0.15617500310E+02  0.25512574678E+02  0.00000000000E+00 0. -1.
</event>
<event>
 4    1  0.1762646E+004  0.2279158E+02  0.7546771E-02  0.1495132E+00
         21   -1    0    0  503  502  0.00000000000E+00  0.00000000000E+00  0.36843224218E+02  0.36843224218E+02  0.00000000000E+00 0.  1.
         21   -1    0    0  501  503 -0.00000000000E+00 -0.00000000000E+00 -0.16613618035E+02  0.16613618035E+02  0.00000000000E+00 0. -1.
          2    1    1    2  501    0 -0.22762652244E+02 -0.11480217960E+01 -0.28364668640E+00  0.22793348738E+02  0.00000000000E+00 0. -1.
         -2    1    1    2    0  502  0.22762652244E+02  0.11480217960E+01  0.20513252870E+02  0.30663493515E+02  0.00000000000E+00 0.  1.
</event>
<event>
 4    1  0.1762646E+004  0.2077444E+02  0.7546771E-02  0.1522510E+00
         21   -1    0    0  501  502  0.00000000000E+00  0.00000000000E+00  0.30572945654E+02  0.30572945654E+02  0.00000000000E+00 0.  1.
         21   -1    0    0  502  503 -0.00000000000E+00 -0.00000000000E+00 -0.13760614209E+03  0.13760614209E+03  0.00000000000E+00 0. -1.
          2    1    1    2  501    0  0.14524617587E+02 -0.14853042723E+02  0.26143103300E+02  0.33392203346E+02  0.00000000000E+00 0.  1.
         -2    1    1    2    0  503 -0.14524617587E+02  0.14853042723E+02 -0.13317629973E+03  0.13478688439E+03  0.00000000000E+00 0. -1.
</event>
<event>
 4    1  0.1762646E+004  0.2721246E+02  0.7546771E-02  0.1445485E+00
         21   -1    0    0  503  502  0.00000000000E+00  0.00000000000E+00  0.36713895966E+01  0.36713895966E+01  0.00000000000E+00 0.  1.
         21   -1    0    0  501  503 -0.00000000000E+00 -0.00000000000E+00 -0.24417501080E+03  0.24417501080E+03  0.00000000000E+00 0. -1.
          2    1    1    2  501    0  0.33648425918E+01 -0.27003629026E+02 -0.17193750345E+03  0.17407763566E+03  0.00000000000E+00 0. -1.
         -2    1    1    2    0  502 -0.33648425918E+01  0.27003629026E+02 -0.68566117757E+02  0.73768764735E+02  0.00000000000E+00 0.  1.
</event>
<event>
 4    1  0.1762646E+004  0.2010794E+02  0.7546771E-02  0.1532392E+00
         21   -1    0    0  503  502  0.00000000000E+00  0.00000000000E+00  0.62095671873E+02  0.62095671873E+02  0.00000000000E+00 0.  1.
         21   -1    0    0  501  503 -0.00000000000E+00 -0.00000000000E+00 -0.77769622087E+01  0.77769622087E+01  0.00000000000E+00 0. -1.
          2    1    1    2  501    0 -0.14292562798E+02 -0.14143969062E+02  0.13065967676E+02  0.23980173549E+02  0.00000000000E+00 0. -1.
         -2    1    1    2    0  502  0.14292562798E+02  0.14143969062E+02  0.41252741989E+02  0.45892460533E+02  0.00000000000E+00 0.  1.
</event>
<event>
 4    1  0.1762646E+004  0.2876044E+02  0.7546771E-02  0.1430683E+00
         21   -1    0    0  503  502  0.00000000000E+00  0.00000000000E+00  0.41295810389E+02  0.41295810389E+02  0.00000000000E+00 0.  1.
         21   -1    0    0  501  503 -0.00000000000E+00 -0.00000000000E+00 -0.22605881580E+02  0.22605881580E+02  0.00000000000E+00 0. -1.
          2    1    1    2  501    0 -0.24553048495E+02 -0.14977012717E+02 -0.14399875734E+01  0.28796469653E+02  0.00000000000E+00 0. -1.
         -2    1    1    2    0  502  0.24553048495E+02  0.14977012717E+02  0.20129916382E+02  0.35105222316E+02  0.00000000000E+00 0.  1.
</event>
<event>
 4    1  0.1762646E+004  0.2300901E+02  0.7546771E-02  0.1492385E+00
         21   -1    0    0  501  502  0.00000000000E+00  0.00000000000E+00  0.11527453073E+01  0.11527453073E+01  0.00000000000E+00 0.  1.
         21   -1    0    0  502  503 -0.00000000000E+00 -0.00000000000E+00 -0.52082593303E+03  0.52082593303E+03  0.00000000000E+00 0. -1.
          2    1    1    2  501    0  0.11098362851E+02  0.20155413054E+02 -0.17010758738E+03  0.17165665038E+03  0.00000000000E+00 0.  1.
         -2    1    1    2    0  503 -0.11098362851E+02 -0.20155413054E+02 -0.34956560034E+03  0.35032202796E+03  0.00000000000E+00 0. -1.
</event>
<event>
 4    1  0.1762646E+004  0.2041461E+02  0.7546771E-02  0.1527789E+00
         21   -1    0    0  501  502  0.00000000000E+00  0.00000000000E+00  0.98089163409E+01  0.98089163409E+01  0.00000000000E+00 0. -1.
         21   -1    0    0  502  503 -0.00000000000E+00 -0.00000000000E+00 -0.11815001518E+03  0.11815001518E+03  0.00000000000E+00 0.  1.
          2    1    1    2  501    0  0.19596731231E+02 -0.57205268539E+01 -0.29712386786E+01  0.20629700961E+02  0.00000000000E+00 0. -1.
         -2    1    1    2    0  503 -0.19596731231E+02  0.57205268539E+01 -0.10536986016E+03  0.10732923056E+03  0.00000000000E+00 0.  1.
</event>
<event>
 4    1  0.1762646E+004  0.2422154E+02  0.7546771E-02  0.1477704E+00
         21   -1    0    0  503  502  0.00000000000E+00  0.00000000000E+00  0.99918692033E+02  0.99918692033E+02  0.00000000000E+00 0. -1.
         21   -1    0    0  501  503 -0.00000000000E+00 -0.00000000000E+00 -0.88897530295E+01  0.88897530295E+01  0.00000000000E+00 0.  1.
          2    1    1    2  501    0 -0.23243821322E+02 -0.68123416981E+01  0.13814566753E+02  0.27884143947E+02  0.00000000000E+00 0.  1.
         -2    1    1    2    0  502  0.23243821322E+02  0.68123416981E+01  0.77214372250E+02  0.80924301115E+02  0.00000000000E+00 0. -1.
</event>
<event>
 4    1  0.1762646E+004  0.2332064E+02  0.7546771E-02  0.1488511E+00
         21   -1    0    0  503  502  0.00000000000E+00  0.00000000000E+00  0.18092725736E+02  0.18092725736E+02  0.00000000000E+00 0. -1.
         21   -1    0    0  501  503 -0.00000000000E+00 -0.00000000000E+00 -0.32839550208E+03  0.32839550208E+03  0.00000000000E+00 0.  1.
          2    1    1    2  501    0 -0.22525993292E+02 -0.60358894678E+01 -0.32027643748E+03  0.32112435090E+03  0.00000000000E+00 0.  1.
         -2    1    1    2    0  502  0.22525993292E+02  0.60358894678E+01  0.99736611404E+01  0.25363876912E+02  0.00000000000E+00 0. -1.
</event>
<event>
 4    1  0.1762646E+004  0.2052724E+02  0.7546771E-02  0.1526123E+00
         21   -1    0    0  503  502  0.00000000000E+00  0.00000000000E+00  0.16037081608E+01  0.16037081608E+01  0.00000000000E+00 0. -1.
         21   -1    0    0  501  503 -0.00000000000E+00 -0.00000000000E+00 -0.29653040768E+03  0.29653040768E+03  0.00000000000E+00 0.  1.
          2    1    1    2  501    0 -0.40235080496E+01 -0.20129055993E+02 -0.97147270880E+02  0.99292294523E+02  0.00000000000E+00 0. -1.
         -2    1    1    2    0  502  0.40235080496E+01  0.20129055993E+02 -0.19777942864E+03  0.19884182132E+03  0.00000000000E+00 0.  1.
</event>
<event>
 4    1  0.1762646E+004  0.3981069E+02  0.7546771E-02  0.1349599E+00
         21   -1    0    0  501  502  0.00000000000E+00  0.00000000000E+00  0.19070118502E+03  0.19070118502E+03  0.00000000000E+00 0.  1.
         21   -1    0    0  502  503 -0.00000000000E+00 -0.00000000000E+00 -0.85371645796E+01  0.85371645796E+01  0.00000000000E+00 0. -1.
          2    1    1    2  501    0 -0.10071413933E+02 -0.38515678554E+02  0.10730133129E+03  0.11444853241E+03  0.00000000000E+00 0. -1.
         -2    1    1    2    0  503  0.10071413933E+02  0.38515678554E+02  0.74862689152E+02  0.84789817196E+02  0.00000000000E+00 0.  1.
</event>
<event>
 4    1  0.1762646E+004  0.3444170E+02  0.7546771E-02  0.1384531E+00
         21   -1    0    0  501  502  0.00000000000E+00  0.00000000000E+00  0.36691310147E+02  0.36691310147E+02  0.00000000000E+00 0. -1.
         21   -1    0    0  502  503 -0.00000000000E+00 -0.00000000000E+00 -0.46941708441E+02  0.46941708441E+02  0.00000000000E+00 0.  1.
          2    1    1    2  501    0  0.15596405673E+02 -0.30708021995E+02  0.18205011302E+02  0.38957065100E+02  0.00000000000E+00 0. -1.
         -2    1    1    2    0  503 -0.15596405673E+02  0.30708021995E+02 -0.28455409596E+02  0.44675953487E+02  0.00000000000E+00 0.  1.
</event>
<event>
 4    1  0.1762646E+004  0.2916026E+02  0.7546771E-02  0.1427037E+00
         21   -1    0    0  501  502  0.00000000000E+00  0.00000000000E+00  0.28632219560E+03  0.28632219560E+03  0.00000000000E+00 0. -1.
         21   -1    0    0  502  503 -0.00000000000E+00 -0.00000000000E+00 -0.30107987987E+01  0.30107987987E+01  0.00000000000E+00 0.  1.
          2    1    1    2  501    0  0.29130149797E+02  0.13248098532E+01  0.15853647673E+03  0.16119595281E+03  0.00000000000E+00 0.  1.
         -2    1    1    2    0  503 -0.29130149797E+02 -0.13248098532E+01  0.12477492007E+03  0.12813704159E+03  0.00000000000E+00 0. -1.
</event>
<event>
 4    1  0.1762646E+004  0.2460754E+02  0.7546771E-02  0.1473242E+00
         21   -1    0    0  503  502  0.00000000000E+00  0.00000000000E+00  0.14459709032E+02  0.14459709032E+02  0.00000000000E+00 0. -1.
         21   -1    0    0  501  503 -0.00000000000E+00 -0.00000000000E+00 -0.51396561635E+02  0.51396561635E+02  0.00000000000E+00 0.  1.
          2    1    1    2  501    0  0.23843654573E+02  0.60836929562E+01 -0.32639589727E+02  0.40876325678E+02  0.00000000000E+00 0.  1.
         -2    1    1    2    0  502 -0.23843654573E+02 -0.60836929562E+01 -0.42972628754E+01  0.24979944988E+02  0.00000000000E+00 0. -1.
</event>
<event>
 4    1  0.1762646E+004  0.2377138E+02  0.7546771E-02  0.1483033E+00
         21   -1    0    0  503  502  0.00000000000E+00  0.00000000000E+00  0.13313360518E+01  0.13313360518E+01  0.00000000000E+00 0.  1.
         21   -1    0    0  501  503 -0.00000000000E+00 -0.00000000000E+00 -0.48719489613E+03  0.48719489613E+03  0.00000000000E+00 0. -1.
          2    1    1    2  501    0 -0.21158346573E+02 -0.10835258559E+02 -0.33059436295E+03  0.33144790130E+03  0.00000000000E+00 0.  1.
         -2    1    1    2    0  502  0.21158346573E+02  0.10835258559E+02 -0.15526919712E+03  0.15707833088E+03  0.00000000000E+00 0. -1.
</event>
<event>
 4    1  0.1762646E+004  0.2454002E+02  0.7546771E-02  0.1474015E+00
         21   -1    0    0  503  502  0.00000000000E+00  0.00000000000E+00  0.15842045472E+04  0.15842045472E+04  0.00000000000E+00 0. -1.
         21   -1    0    0  501  503 -0.00000000000E+00 -0.00000000000E+00 -0.56316882579E+01  0.56316882579E+01  0.00000000000E+00 0.  1.
          2    1    1    2  501    0 -0.23300605224E+02  0.77002915523E+01  0.21665246721E+02  0.32735234981E+02  0.00000000000E+00 0.  1.
         -2    1    1    2    0  502  0.23300605224E+02 -0.77002915523E+01  0.15569076122E+04  0.15571010004E+04  0.00000000000E+00 0. -1.
</event>
<event>
 4    1  0.1762646E+004  0.3860084E+02  0.7546771E-02  0.1356886E+00
         21   -1    0    0  501  502  0.00000000000E+00  0.00000000000E+00  0.89630522342E+02  0.89630522342E+02  0.00000000000E+00 0. -1.
         21   -1    0    0  502  503 -0.00000000000E+00 -0.00000000000E+00 -0.46750176685E+02  0.46750176685E+02  0.00000000000E+00 0.  1.
          2    1    1    2  501    0  0.95359420415E+01 -0.37404417370E+02  0.76179915143E+02  0.85401429148E+02  0.00000000000E+00 0. -1.
         -2    1    1    2    0  503 -0.95359420415E+01  0.37404417370E+02 -0.33299569486E+02  0.50979269879E+02  0.00000000000E+00 0.  1.
</event>
<event>
 4    1  0.1762646E+004  0.2037942E+02  0.7546771E-02  0.1528312E+00
         21   -1    0    0  501  502  0.00000000000E+00  0.00000000000E+00  0.20450445605E+03  0.20450445605E+03  0.00000000000E+00 0. -1.
         21   -1    0    0  502  503 -0.00000000000E+00 -0.00000000000E+00 -0.31474622170E+01  0.31474622170E+01  0.00000000000E+00 0.  1.
          2    1    1    2  501    0  0.20146759429E+02  0.30706313333E+01  0.16251916848E+03  0.16379194369E+03  0.00000000000E+00 0. -1.
         -2    1    1    2    0  503 -0.20146759429E+02 -0.30706313333E+01  0.38837825352E+02  0.43859974582E+02  0.00000000000E+00 0.  1.
</event>
<event>
 4    1  0.1762646E+004  0.2417009E+02  0.7546771E-02  0.1478306E+00
         21   -1    0    0  501  502  0.00000000000E+00  0.00000000000E+00  0.47385508977E+01  0.47385508977E+01  0.00000000000E+00 0.  1.
         21   -1    0    0  502  503 -0.00000000000E+00 -0.00000000000E+00 -0.23216200366E+03  0.23216200366E+03  0.00000000000E+00 0. -1.
          2    1    1    2  501    0 -0.20908764752E+02 -0.12125051724E+02 -0.32595425465E+02  0.40578998066E+02  0.00000000000E+00 0.  1.
         -2    1    1    2    0  503  0.20908764752E+02  0.12125051724E+02 -0.19482802729E+03  0.19632155649E+03  0.00000000000E+00 0. -1.
</event>
<event>
 4    1  0.1762646E+004  0.3593393E+02  0.7546771E-02  0.1374114E+00
         21   -1    0    0  503  502  0.00000000000E+00  0.00000000000E+00  0.15019429948E+02  0.15019429948E+02  0.00000000000E+00 0.  1.
         21   -1    0    0  501  503 -0.00000000000E+00 -0.00000000000E+00 -0.10665940490E+03  0.10665940490E+03  0.00000000000E+00 0. -1.
          2    1    1    2  501    0  0.48740522839E+01 -0.35601843477E+02 -0.72614164582E+02  0.81018914721E+02  0.00000000000E+00 0. -1.
         -2    1    1    2    0  502 -0.48740522839E+01  0.35601843477E+02 -0.19025810372E+02  0.40659920129E+02  0.00000000000E+00 0.  1.
</event>
<event>
 4    1  0.1762646E+004  0.2186801E+02  0.7546771E-02  0.1507224E+00
         21   -1    0    0  503  502  0.00000000000E+00  0.00000000000E+00  0.84263985265E+02  0.84263985265E+02  0.00000000000E+00 0.  1.
         21   -1    0    0  501  503 -0.00000000000E+00 -0.00000000000E+00 -0.76173507010E+01  0.76173507010E+01  0.00000000000E+00 0. -1.
          2    1    1    2  501    0  0.18186667768E+02  0.12143103335E+02  0.15125688485E+02  0.26589401935E+02  0.00000000000E+00 0. -1.
         -2    1    1    2    0  502 -0.18186667768E+02 -0.12143103335E+02  0.61520946080E+02  0.65291934032E+02  0.00000000000E+00 0.  1.
</event>
<event>
 4    1  0.1762646E+004  0.2131649E+02  0.7546771E-02  0.1514794E+00
         21   -1    0    0  501  502  0.00000000000E+00  0.00000000000E+00  0.44793548752E+02  0.44793548752E+02  0.00000000000E+00 0.  1.
         21   -1    0    0  502  503 -0.00000000000E+00 -0.00000000000E+00 -0.10522165207E+02  0.10522165207E+02  0.00000000000E+00 0. -1.
          2    1    1    2  501    0 -0.13549915144E+02  0.16455776031E+02  0.11893451590E+02  0.24409976566E+02  0.00000000000E+00 0. -1.
         -2    1    1    2    0  503  0.13549915144E+02 -0.16455776031E+02  0.22377931955E+02  0.30905737392E+02  0.00000000000E+00 0.  1.
</event>
<event>
 4    1  0.1762646E+004  0.2067991E+02  0.7546771E-02  0.1523884E+00
         21   -1    0    0  501  502  0.00000000000E+00  0.00000000000E+00  0.18552867473E+02  0.18552867473E+02  0.00000000000E+00 0. -1.
         21   -1    0    0  502  503 -0.00000000000E+00 -0.00000000000E+00 -0.34863107904E+02  0.34863107904E+02  0.00000000000E+00 0.  1.
          2    1    1    2  501    0 -0.57142978113E+01 -0.19874745241E+02  0.73911151622E+01  0.21961040076E+02  0.00000000000E+00 0. -1.
         -2    1    1    2    0  503  0.57142978113E+01  0.19874745241E+02 -0.23701355594E+02  0.31454935302E+02  0.00000000000E+00 0.  1.
</event>
<event>
 4    1  0.1762646E+004  0.3039781E+02  0.7546771E-02  0.1416170E+00
         21   -1    0    0  501  502  0.00000000000E+00  0.00000000000E+00  0.47262971436E+01  0.47262971436E+01  0.00000000000E+00 0. -1.
         21   -1    0    0  502  503 -0.00000000000E+00 -0.00000000000E+00 -0.27970386164E+03  0.27970386164E+03  0.00000000000E+00 0.  1.
          2    1    1    2  501    0 -0.16212384719E+02  0.25713526014E+02 -0.59462140412E+02  0.66781531734E+02  0.00000000000E+00 0. -1.
         -2    1    1    2    0  503  0.16212384719E+02 -0.25713526014E+02 -0.21551542409E+03  0.21764862705E+03  0.00000000000E+00 0.  1.
</event>
<event>
 4    1  0.1762646E+004  0.2228643E+02  0.7546771E-02  0.1501658E+00
         21   -1    0    0  503  502  0.00000000000E+00  0.00000000000E+00  0.24605620161E+00  0.24605620161E+00  0.00000000000E+00 0. -1.
         21   -1    0    0  501  503 -0.00000000000E+00 -0.00000000000E+00 -0.20210062507E+04  0.20210062507E+04  0.00000000000E+00 0.  1.
          2    1    1    2  501    0 -0.13306218770E+02 -0.17878191224E+02 -0.97539431588E+03  0.97564889004E+03  0.00000000000E+00 0. -1.
         -2    1    1    2    0  502  0.13306218770E+02  0.17878191224E+02 -0.10453658786E+04  0.10456034169E+04  0.00000000000E+00 0.  1.
</event>
<event>
 4    1  0.1762646E+004  0.3067674E+02  0.7546771E-02  0.1413805E+00
         21   -1    0    0  503  502  0.00000000000E+00  0.00000000000E+00  0.19977781842E+02  0.19977781842E+02  0.00000000000E+00 0.  1.
         21   -1    0    0  501  503 -0.00000000000E+00 -0.00000000000E+00 -0.47190870242E+02  0.47190870242E+02  0.00000000000E+00 0. -1.
          2    1    1    2  501    0  0.29237147365E+02  0.92871680831E+01 -0.15035451813E+02  0.34163241771E+02  0.00000000000E+00 0. -1.
         -2    1    1    2    0  502 -0.29237147365E+02 -0.92871680831E+01 -0.12177636588E+02  0.33005410313E+02  0.00000000000E+00 0.  1.
</event>
<event>
 4    1  0.1762646E+004  0.2177904E+02  0.7546771E-02  0.1508427E+00
         21   -1    0    0  503  502  0.00000000000E+00  0.00000000000E+00  0.20760496651E+02  0.20760496651E+02  0.00000000000E+00 0.  1.
         21   -1    0    0  501  503 -0.00000000000E+00 -0.00000000000E+00 -0.78790356322E+02  0.78790356322E+02  0.00000000000E+00 0. -1.
          2    1    1    2  501    0  0.20816738765E+02  0.64023398294E+01 -0.70957067984E+02  0.74224201343E+02  0.00000000000E+00 0. -1.
         -2    1    1    2    0  502 -0.20816738765E+02 -0.64023398294E+01  0.12927208313E+02  0.25326651631E+02  0.00000000000E+00 0.  1.
</event>
<event>
 4    1  0.1762646E+004  0.4337687E+02  0.7546771E-02  0.1329758E+00
         21   -1    0    0  503  502  0.00000000000E+00  0.00000000000E+00  0.14013757884E+03  0.14013757884E+03  0.00000000000E+00 0. -1.
         21   -1    0    0  501  503 -0.00000000000E+00 -0.00000000000E+00 -0.16360621941E+02  0.16360621941E+02  0.00000000000E+00 0.  1.
          2    1    1    2  501    0 -0.40426353741E+01  0.43188081159E+02  0.95026044989E+02  0.10445813746E+03  0.00000000000E+00 0. -1.
         -2    1    1    2    0  502  0.40426353741E+01 -0.43188081159E+02  0.28750911912E+02  0.52040063324E+02  0.00000000000E+00 0.  1.
</event>
<event>
 4    1  0.1762646E+004  0.2059856E+02  0.7546771E-02  0.1525074E+00
         21   -1    0    0  501  502  0.00000000000E+00  0.00000000000E+00  0.65059058513E+02  0.65059058513E+02  0.00000000000E+00 0.  1.
         21   -1    0    0  502  503 -0.00000000000E+00 -0.00000000000E+00 -0.13618676559E+02  0.13618676559E+02  0.00000000000E+00 0. -1.
          2    1    1    2  501    0  0.99894749371E+01  0.18014195527E+02  0.54118249261E+02  0.57905835224E+02  0.00000000000E+00 0.  1.
         -2    1    1    2    0  503 -0.99894749371E+01 -0.18014195527E+02 -0.26778673067E+01  0.20771899848E+02  0.00000000000E+00 0. -1.
</event>
<event>
 4    1  0.1762646E+004  0.2195659E+02  0.7546771E-02  0.1506033E+00
         21   -1    0    0  503  502  0.00000000000E+00  0.00000000000E+00  0.13903468858E+01  0.13903468858E+01  0.00000000000E+00 0. -1.
         21   -1    0    0  501  503 -0.00000000000E+00 -0.00000000000E+00 -0.54031765717E+03  0.54031765717E+03  0.00000000000E+00 0.  1.
          2    1    1    2  501    0 -0.18078324143E+02  0.12460575944E+02 -0.43158342176E+03  0.43214157599E+03  0.00000000000E+00 0.  1.
         -2    1    1    2    0  502  0.18078324143E+02 -0.12460575944E+02 -0.10734388852E+03  0.10956642807E+03  0.00000000000E+00 0. -1.
</event>
<event>
 4    1  0.1762646E+004  0.2136408E+02  0.7546771E-02  0.1514130E+00
         21   -1    0    0  501  502  0.00000000000E+00  0.00000000000E+00  0.31591356081E+02  0.31591356081E+02  0.00000000000E+00 0.  1.
         21   -1    0    0  502  503 -0.00000000000E+00 -0.00000000000E+00 -0.83461962656E+02  0.83461962656E+02  0.00000000000E+00 0. -1.
          2    1    1    2  501    0  0.21364065975E+02 -0.23455632133E-01  0.26375831587E+02  0.33942721709E+02  0.00000000000E+00 0.  1.
         -2    1    1    2    0  503 -0.21364065975E+02  0.23455632133E-01 -0.78246438162E+02  0.81110597027E+02  0.00000000000E+00 0. -1.
</event>
<event>
 4    1  0.1762646E+004  0.2795419E+02  0.7546771E-02  0.1438252E+00
         21   -1    0    0  501  502  0.00000000000E+00  0.00000000000E+00  0.10733655541E+03  0.10733655541E+03  0.00000000000E+00 0. -1.
         21   -1    0    0  502  503 -0.00000000000E+00 -0.00000000000E+00 -0.67454992095E+02  0.67454992095E+02  0.00000000000E+00 0.  1.
          2    1    1    2  501    0  0.13654136312E+02 -0.24392653568E+02  0.10248573030E+03  0.10622975996E+03  0.00000000000E+00 0. -1.
         -2    1    1    2    0  503 -0.13654136312E+02  0.24392653568E+02 -0.62604166988E+02  0.68561787540E+02  0.00000000000E+00 0.  1.
</event>
<event>
 4    1  0.1762646E+004  0.2628892E+02  0.7546771E-02  0.1454885E+00
         21   -1    0    0  501  502  0.00000000000E+00  0.00000000000E+00  0.10820139339E+03  0.10820139339E+03  0.00000000000E+00 0. -1.
         21   -1    0    0  502  503 -0.00000000000E+00 -0.00000000000E+00 -0.81052631238E+01  0.81052631238E+01  0.00000000000E+00 0.  1.
          2    1    1    2  501    0 -0.20077392844E+02 -0.16970727850E+02  0.76821657155E+02  0.81195285055E+02  0.00000000000E+00 0. -1.
         -2    1    1    2    0  503  0.20077392844E+02  0.16970727850E+02  0.23274473115E+02  0.35111371462E+02  0.00000000000E+00 0.  1.
</event>
<event>
 4    1  0.1762646E+004  0.2979005E+02  0.7546771E-02  0.1421430E+00
         21   -1    0    0  503  502  0.00000000000E+00  0.00000000000E+00  0.93415613883E+01  0.93415613883E+01  0.00000000000E+00 0. -1.
         21   -1    0    0  501  503 -0.00000000000E+00 -0.00000000000E+00 -0.10394292054E+03  0.10394292054E+03  0.00000000000E+00 0.  1.
          2    1    1    2  501    0 -0.29579208756E+02  0.35380323801E+01 -0.30686250126E+02  0.42767899300E+02  0.00000000000E+00 0. -1.
         -2    1    1    2    0  502  0.29579208756E+02 -0.35380323801E+01 -0.63915109023E+02  0.70516582626E+02  0.00000000000E+00 0.  1.
</event>
<event>
 4    1  0.1762646E+004  0.2208721E+02  0.7546771E-02  0.1504290E+00
         21   -1    0    0  503  502  0.00000000000E+00  0.00000000000E+00  0.14014076368E+01  0.14014076368E+01  0.00000000000E+00 0. -1.
         21   -1    0    0  501  503 -0.00000000000E+00 -0.00000000000E+00 -0.99355378698E+03  0.99355378698E+03  0.00000000000E+00 0.  1.
          2    1    1    2  501    0  0.13297803579E+02  0.17635565465E+02 -0.89704156552E+03  0.89731344301E+03  0.00000000000E+00 0. -1.
         -2    1    1    2    0  502 -0.13297803579E+02 -0.17635565465E+02 -0.95110813827E+02  0.97641751603E+02  0.00000000000E+00 0.  1.
</event>
<event>
 4    1  0.1762646E+004  0.2118660E+02  0.7546771E-02  0.1516617E+00
         21   -1    0    0  503  502  0.00000000000E+00  0.00000000000E+00  0.13208405611E+03  0.13208405611E+03  0.00000000000E+00 0. -1.
         21   -1    0    0  501  503 -0.00000000000E+00 -0.00000000000E+00 -0.35951179620E+01  0.35951179620E+01  0.00000000000E+00 0.  1.
          2    1    1    2  501    0 -0.48054660198E+01 -0.20634429322E+02  0.48374807037E+02  0.52810928159E+02  0.00000000000E+00 0. -1.
         -2    1    1    2    0  502  0.48054660198E+01  0.20634429322E+02  0.80114131110E+02  0.82868245913E+02  0.00000000000E+00 0.  1.
</event>
<event>
 4    1  0.1762646E+004  0.3983976E+02  0.7546771E-02  0.1349427E+00
         21   -1    0    0  503  502  0.00000000000E+00  0.00000000000E+00  0.58674386857E+03  0.58674386857E+03  0.00000000000E+00 0. -1.
         21   -1    0    0  501  503 -0.00000000000E+00 -0.00000000000E+00 -0.37580553104E+02  0.37580553104E+02  0.00000000000E+00 0.  1.
          2    1    1    2  501    0  0.21404310849E+02  0.33601518704E+02 -0.26135780092E+02  0.47647513924E+02  0.00000000000E+00 0.  1.
         -2    1    1    2    0  502 -0.21404310849E+02 -0.33601518704E+02  0.57529909556E+03  0.57667690775E+03  0.00000000000E+00 0. -1.
</event>
<event>
 4    1  0.1762646E+004  0.2185447E+02  0.7546771E-02  0.1507406E+00
         21   -1    0    0  501  502  0.00000000000E+00  0.00000000000E+00  0.19598253746E+02  0.19598253746E+02  0.00000000000E+00 0. -1.
         21   -1    0    0  502  503 -0.00000000000E+00 -0.00000000000E+00 -0.36257999077E+02  0.36257999077E+02  0.00000000000E+00 0.  1.
          2    1    1    2  501    0  0.80473265169E+01  0.20318912427E+02  0.76615315985E+01  0.23158513181E+02  0.00000000000E+00 0. -1.
         -2    1    1    2    0  503 -0.80473265169E+01 -0.20318912427E+02 -0.24321276930E+02  0.32697739643E+02  0.00000000000E+00 0.  1.
</event>
<event>
 4    1  0.1762646E+004  0.4103182E+02  0.7546771E-02  0.1342543E+00
         21   -1    0    0  501  502  0.00000000000E+00  0.00000000000E+00  0.17035467419E+02  0.17035467419E+02  0.00000000000E+00 0.  1.
         21   -1    0    0  502  503 -0.00000000000E+00 -0.00000000000E+00 -0.18077361356E+03  0.18077361356E+03  0.00000000000E+00 0. -1.
          2    1    1    2  501    0  0.34625562154E+02  0.22015467187E+02 -0.15279377855E+02  0.43784354941E+02  0.00000000000E+00 0.  1.
         -2    1    1    2    0  503 -0.34625562154E+02 -0.22015467187E+02 -0.14845876829E+03  0.15402472604E+03  0.00000000000E+00 0. -1.
</event>
<event>
 4    1  0.1762646E+004  0.2092368E+02  0.7546771E-02  0.1520357E+00
         21   -1    0    0  501  502  0.00000000000E+00  0.00000000000E+00  0.11209446085E+01  0.11209446085E+01  0.00000000000E+00 0. -1.
         21   -1    0    0  502  503 -0.00000000000E+00 -0.00000000000E+00 -0.54268382203E+03  0.54268382203E+03  0.00000000000E+00 0.  1.
          2    1    1    2  501    0 -0.85175748807E+01 -0.19111549725E+02 -0.12682445783E+03  0.12853887940E+03  0.00000000000E+00 0. -1.
         -2    1    1    2    0  503  0.85175748807E+01  0.19111549725E+02 -0.41473841960E+03  0.41526588724E+03  0.00000000000E+00 0.  1.
</event>
<event>
 4    1  0.1762646E+004  0.2025735E+02  0.7546771E-02  0.1530137E+00
         21   -1    0    0  501  502  0.00000000000E+00  0.00000000000E+00  0.42150294775E+02  0.42150294775E+02  0.00000000000E+00 0. -1.
         21   -1    0    0  502  503 -0.00000000000E+00 -0.00000000000E+00 -0.12817375237E+02  0.12817375237E+02  0.00000000000E+00 0.  1.
          2    1    1    2  501    0  0.16469813380E+02  0.11794299797E+02  0.28142899400E+02  0.34675395414E+02  0.00000000000E+00 0. -1.
         -2    1    1    2    0  503 -0.16469813380E+02 -0.11794299797E+02  0.11900201378E+01  0.20292274599E+02  0.00000000000E+00 0.  1.
</event>
<event>
 4    1  0.1762646E+004  0.2531960E+02  0.7546771E-02  0.1465260E+00
         21   -1    0    0  501  502  0.00000000000E+00  0.00000000000E+00  0.51527512646E+03  0.51527512646E+03  0.00000000000E+00 0.  1.
         21   -1    0    0  502  503 -0.00000000000E+00 -0.00000000000E+00 -0.14922186645E+01  0.14922186645E+01  0.00000000000E+00 0. -1.
          2    1    1    2  501    0 -0.16877533512E+02 -0.18874078990E+02  0.36224050568E+03  0.36312431198E+03  0.00000000000E+00 0. -1.
         -2    1    1    2    0  503  0.16877533512E+02  0.18874078990E+02  0.15154240212E+03  0.15364303315E+03  0.00000000000E+00 0.  1.
</event>
<event>
 4    1  0.1762646E+004  0.2011530E+02  0.7546771E-02  0.1532280E+00
         21   -1    0    0  503  502  0.00000000000E+00  0.00000000000E+00  0.13832922644E+01  0.13832922644E+01  0.00000000000E+00 0.  1.
         21   -1    0    0  501  503 -0.00000000000E+00 -0.00000000000E+00 -0.30748807227E+03  0.30748807227E+03  0.00000000000E+00 0. -1.
          2    1    1    2  501    0 -0.19429848923E+02 -0.52063831222E+01 -0.18713837039E+03  0.18821635191E+03  0.00000000000E+00 0. -1.
         -2    1    1    2    0  502  0.19429848923E+02  0.52063831222E+01 -0.11896640962E+03  0.12065501262E+03  0.00000000000E+00 0.  1.
</event>
<event>
 4    1  0.1762646E+004  0.2007879E+02  0.7546771E-02  0.1532835E+00
         21   -1    0    0  503  502  0.00000000000E+00  0.00000000000E+00  0.25144850819E+01  0.25144850819E+01  0.00000000000E+00 0.  1.
         21   -1    0    0  501  503 -0.00000000000E+00 -0.00000000000E+00 -0.17297837900E+03  0.17297837900E+03  0.00000000000E+00 0. -1.
          2    1    1    2  501    0 -0.14588494307E+02  0.13796145054E+02 -0.61508377684E+02  0.64702691673E+02  0.00000000000E+00 0.  1.
         -2    1    1    2    0  502  0.14588494307E+02 -0.13796145054E+02 -0.10895551624E+03  0.11079017241E+03  0.00000000000E+00 0. -1.
</event>
<event>
 4    1  0.1762646E+004  0.2911725E+02  0.7546771E-02  0.1427426E+00
         21   -1    0    0  503  502  0.00000000000E+00  0.00000000000E+00  0.60848876664E+02  0.60848876664E+02  0.00000000000E+00 0.  1.
         21   -1    0    0  501  503 -0.00000000000E+00 -0.00000000000E+00 -0.15697238502E+02  0.15697238502E+02  0.00000000000E+00 0. -1.
          2    1    1    2  501    0 -0.16971246344E+02  0.23659897637E+02  0.97452207799E+01  0.30704776284E+02  0.00000000000E+00 0.  1.
         -2    1    1    2    0  502  0.16971246344E+02 -0.23659897637E+02  0.35406417382E+02  0.45841338882E+02  0.00000000000E+00 0. -1.
</event>
<event>
 4    1  0.1762646E+004  0.3651259E+02  0.7546771E-02  0.1370230E+00
         21   -1    0    0  501  502  0.00000000000E+00  0.00000000000E+00  0.63478536865E+02  0.63478536865E+02  0.00000000000E+00 0. -1.
         21   -1    0    0  502  503 -0.00000000000E+00 -0.00000000000E+00 -0.24686521097E+02  0.24686521097E+02  0.00000000000E+00 0.  1.
          2    1    1    2  501    0  0.33823061331E+02 -0.13753900352E+02  0.36426749437E+02  0.51575937483E+02  0.00000000000E+00 0. -1.
         -2    1    1    2    0  503 -0.33823061331E+02  0.13753900352E+02  0.23652663310E+01  0.36589120480E+02  0.00000000000E+00 0.  1.
</event>
<event>
 4    1  0.1762646E+004  0.2091353E+02  0.7546771E-02  0.1520503E+00
         21   -1    0    0  503  502  0.00000000000E+00  0.00000000000E+00  0.42785512826E+02  0.42785512826E+02  0.00000000000E+00 0.  1.
         21   -1    0    0  501  503 -0.00000000000E+00 -0.00000000000E+00 -0.12530983644E+02  0.12530983644E+02  0.00000000000E+00 0. -1.
          2    1    1    2  501    0  0.12567286932E+00  0.20913150697E+02  0.32560865988E+01  0.21165485246E+02  0.00000000000E+00 0. -1.
         -2    1    1    2    0  502 -0.12567286932E+00 -0.20913150697E+02  0.26998442582E+02  0.34151011224E+02  0.00000000000E+00 0.  1.
</event>
<event>
 4    1  0.1762646E+004  0.2340514E+02  0.7546771E-02  0.1487472E+00
         21   -1    0    0  501  502  0.00000000000E+00  0.00000000000E+00  0.48969612095E+02  0.48969612095E+02  0.00000000000E+00 0.  1.
         21   -1    0    0  502  503 -0.00000000000E+00 -0.00000000000E+00 -0.44853653462E+02  0.44853653462E+02  0.00000000000E+00 0. -1.
          2    1    1    2  501    0  0.36596623347E+01  0.23117255895E+02  0.42700867489E+02  0.48694606814E+02  0.00000000000E+00 0.  1.
         -2    1    1    2    0  503 -0.36596623347E+01 -0.23117255895E+02 -0.38584908855E+02  0.45128658742E+02  0.00000000000E+00 0. -1.
</event>
<event>
 4    1  0.1762646E+004  0.3759980E+02  0.7546771E-02  0.1363155E+00
         21   -1    0    0  501  502  0.00000000000E+00  0.00000000000E+00  0.66895625001E+03  0.66895625001E+03  0.00000000000E+00 0.  1.
         21   -1    0    0  502  503 -0.00000000000E+00 -0.00000000000E+00 -0.54418872646E+01  0.54418872646E+01  0.00000000000E+00 0. -1.
          2    1    1    2  501    0  0.14759603769E+02 -0.34581771171E+02  0.59547392959E+03  0.59665982404E+03  0.00000000000E+00 0.  1.
         -2    1    1    2    0  503 -0.14759603769E+02  0.34581771171E+02  0.68040433156E+02  0.77738313236E+02  0.00000000000E+00 0. -1.
</event>
<event>
 4    1  0.1762646E+004  0.9653920E+02  0.7546771E-02  0.1169944E+00
         21   -1    0    0  501  502  0.00000000000E+00  0.00000000000E+00  0.55584432390E+02  0.55584432390E+02  0.00000000000E+00 0. -1.
         21   -1    0    0  502  503 -0.00000000000E+00 -0.00000000000E+00 -0.24146551538E+03  0.24146551538E+03  0.00000000000E+00 0.  1.
          2    1    1    2  501    0 -0.95933356008E+02  0.10798518961E+02 -0.10832019691E+02  0.97144991931E+02  0.00000000000E+00 0. -1.
         -2    1    1    2    0  503  0.95933356008E+02 -0.10798518961E+02 -0.17504906330E+03  0.19990495584E+03  0.00000000000E+00 0.  1.
</event>
<event>
 4    1  0.1762646E+004  0.2422518E+02  0.7546771E-02  0.1477661E+00
         21   -1    0    0  501  502  0.00000000000E+00  0.00000000000E+00  0.18020519297E+02  0.18020519297E+02  0.00000000000E+00 0. -1.
         21   -1    0    0  502  503 -0.00000000000E+00 -0.00000000000E+00 -0.47944596152E+02  0.47944596152E+02  0.00000000000E+00 0.  1.
          2    1    1    2  501    0 -0.16200432455E+02 -0.18011249495E+02  0.37176910105E+01  0.24508781009E+02  0.00000000000E+00 0. -1.
         -2    1    1    2    0  503  0.16200432455E+02  0.18011249495E+02 -0.33641767865E+02  0.41456334440E+02  0.00000000000E+00 0.  1.
</event>
<event>
 4    1  0.1762646E+004  0.3083982E+02  0.7546771E-02  0.1412436E+00
         21   -1    0    0  503  502  0.00000000000E+00  0.00000000000E+00  0.54061325323E+03  0.54061325323E+03  0.00000000000E+00 0. -1.
         21   -1    0    0  501  503 -0.00000000000E+00 -0.00000000000E+00 -0.49042560523E+01  0.49042560523E+01  0.00000000000E+00 0.  1.
          2    1    1    2  501    0  0.85962704361E+01 -0.29617542630E+02  0.49430570644E+02  0.58262131878E+02  0.00000000000E+00 0.  1.
         -2    1    1    2    0  502 -0.85962704361E+01  0.29617542630E+02  0.48627842654E+03  0.48725537741E+03  0.00000000000E+00 0. -1.
</event>
<event>
 4    1  0.1762646E+004  0.3514405E+02  0.7546771E-02  0.1379553E+00
         21   -1    0    0  501  502  0.00000000000E+00  0.00000000000E+00  0.20476463942E+03  0.20476463942E+03  0.00000000000E+00 0.  1.
         21   -1    0    0  502  503 -0.00000000000E+00 -0.00000000000E+00 -0.62790724805E+01  0.62790724805E+01  0.00000000000E+00 0. -1.
          2    1    1    2  501    0 -0.24445805425E+02  0.25248892210E+02  0.78303452577E+02  0.85828518840E+02  0.00000000000E+00 0.  1.
         -2    1    1    2    0  503  0.24445805425E+02 -0.25248892210E+02  0.12018211437E+03  0.12521519306E+03  0.00000000000E+00 0. -1.
</event>
<event>
 4    1  0.1762646E+004  0.2367390E+02  0.7546771E-02  0.1484205E+00
         21   -1    0    0  501  502  0.00000000000E+00  0.00000000000E+00  0.35126098416E+02  0.35126098416E+02  0.00000000000E+00 0. -1.
         21   -1    0    0  502  503 -0.00000000000E+00 -0.00000000000E+00 -0.75108122235E+02  0.75108122235E+02  0.00000000000E+00 0.  1.
          2    1    1    2  501    0  0.18531132060E+01  0.23601261524E+02  0.28922639246E+02  0.37376097108E+02  0.00000000000E+00 0. -1.
         -2    1    1    2    0  503 -0.18531132060E+01 -0.23601261524E+02 -0.68904663065E+02  0.72858123543E+02  0.00000000000E+00 0.  1.
</event>
<event>
 4    1  0.1762646E+004  0.3642549E+02  0.7546771E-02  0.1370809E+00
         21   -1    0    0  501  502  0.00000000000E+00  0.00000000000E+00  0.13917564678E+03  0.13917564678E+03  0.00000000000E+00 0.  1.
         21   -1    0    0  502  503 -0.00000000000E+00 -0.00000000000E+00 -0.14996514832E+02  0.14996514832E+02  0.00000000000E+00 0. -1.
          2    1    1    2  501    0  0.90876698620E-01  0.36425379756E+02  0.10861614492E+03  0.11456126521E+03  0.00000000000E+00 0.  1.
         -2    1    1    2    0  503 -0.90876698620E-01 -0.36425379756E+02  0.15562987037E+02  0.39610896411E+02  0.00000000000E+00 0. -1.
</event>
<event>
 4    1  0.1762646E+004  0.2041788E+02  0.7546771E-02  0.1527741E+00
         21   -1    0    0  503  502  0.00000000000E+00  0.00000000000E+00  0.11529106603E+01  0.11529106603E+01  0.00000000000E+00 0. -1.
         21   -1    0    0  501  503 -0.00000000000E+00 -0.00000000000E+00 -0.37053912821E+03  0.37053912821E+03  0.00000000000E+00 0.  1.
          2    1    1    2  501    0 -0.16279657219E+02  0.12323253334E+02 -0.21356267971E+03  0.21453649567E+03  0.00000000000E+00 0. -1.
         -2    1    1    2    0  502  0.16279657219E+02 -0.12323253334E+02 -0.15582353784E+03  0.15715554319E+03  0.00000000000E+00 0.  1.
</event>
<event>
 4    1  0.1762646E+004  0.2070269E+02  0.7546771E-02  0.1523552E+00
         21   -1    0    0  501  502  0.00000000000E+00  0.00000000000E+00  0.85909396430E+02  0.85909396430E+02  0.00000000000E+00 0. -1.
         21   -1    0    0  502  503 -0.00000000000E+00 -0.00000000000E+00 -0.64248579333E+01  0.64248579333E+01  0.00000000000E+00 0.  1.
          2    1    1    2  501    0 -0.30263169578E+01  0.20480301727E+02  0.61567453743E+02  0.64955005301E+02  0.00000000000E+00 0. -1.
         -2    1    1    2    0  503  0.30263169578E+01 -0.20480301727E+02  0.17917084754E+02  0.27379249063E+02  0.00000000000E+00 0.  1.
</event>
<event>
 4    1  0.1762646E+004  0.3563351E+02  0.7546771E-02  0.1376163E+00
         21   -1    0    0  501  502  0.00000000000E+00  0.00000000000E+00  0.11396951163E+02  0.11396951163E+02  0.00000000000E+00 0.  1.
         21   -1    0    0  502  503 -0.00000000000E+00 -0.00000000000E+00 -0.17567752672E+03  0.17567752672E+03  0.00000000000E+00 0. -1.
          2    1    1    2  501    0  0.33665566509E+02  0.11678040033E+02 -0.25566079830E+02  0.43856258678E+02  0.00000000000E+00 0.  1.
         -2    1    1    2    0  503 -0.33665566509E+02 -0.11678040033E+02 -0.13871449572E+03  0.14321821920E+03  0.00000000000E+00 0. -1.
</event>
<event>
 4    1  0.1762646E+004  0.3782253E+02  0.7546771E-02  0.1361741E+00
         21   -1    0    0  503  502  0.00000000000E+00  0.00000000000E+00  0.17828464412E+03  0.17828464412E+03  0.00000000000E+00 0. -1.
         21   -1    0    0  501  503 -0.00000000000E+00 -0.00000000000E+00 -0.17844891414E+02  0.17844891414E+02  0.00000000000E+00 0.  1.
          2    1    1    2  501    0  0.34639553378E+02 -0.15187000147E+02  0.74698699337E+01  0.38553113862E+02  0.00000000000E+00 0.  1.
         -2    1    1    2    0  502 -0.34639553378E+02  0.15187000147E+02  0.15296988277E+03  0.15757642167E+03  0.00000000000E+00 0. -1.
</event>
<event>
 4    1  0.1762646E+004  0.4120746E+02  0.7546771E-02  0.1341552E+00
         21   -1    0    0  503  502  0.00000000000E+00  0.00000000000E+00  0.49900228752E+01  0.49900228752E+01  0.00000000000E+00 0. -1.
         21   -1    0    0  501  503 -0.00000000000E+00 -0.00000000000E+00 -0.49243016138E+03  0.49243016138E+03  0.00000000000E+00 0.  1.
          2    1    1    2  501    0 -0.26724459151E+02  0.31366517343E+02 -0.38196300639E+03  0.38417937657E+03  0.00000000000E+00 0.  1.
         -2    1    1    2    0  502  0.26724459151E+02 -0.31366517343E+02 -0.10547713211E+03  0.11324080768E+03  0.00000000000E+00 0. -1.
</event>
<event>
 4    1  0.1762646E+004  0.2434204E+02  0.7546771E-02  0.1476300E+00
         21   -1    0    0  503  502  0.00000000000E+00  0.00000000000E+00  0.22963562144E+02  0.22963562144E+02  0.00000000000E+00 0. -1.
         21   -1    0    0  501  503 -0.00000000000E+00 -0.00000000000E+00 -0.66395983764E+02  0.66395983764E+02  0.00000000000E+00 0.  1.
          2    1    1    2  501    0  0.24341943286E+02  0.67698866761E-01 -0.56651484034E+02  0.61659755346E+02  0.00000000000E+00 0.  1.
         -2    1    1    2    0  502 -0.24341943286E+02 -0.67698866761E-01  0.13219062415E+02  0.27699790562E+02  0.00000000000E+00 0. -1.
</event>
<event>
 4    1  0.1762646E+004  0.2245193E+02  0.7546771E-02  0.1499497E+00
         21   -1    0    0  501  502  0.00000000000E+00  0.00000000000E+00  0.64114078684E+01  0.64114078684E+01  0.00000000000E+00 0.  1.
         21   -1    0    0  502  503 -0.00000000000E+00 -0.00000000000E+00 -0.78624881690E+02  0.78624881690E+02  0.00000000000E+00 0. -1.
          2    1    1    2  501    0  0.18245330232E+02  0.13084238552E+02 -0.35950445656E+02  0.42385421038E+02  0.00000000000E+00 0.  1.
         -2    1    1    2    0  503 -0.18245330232E+02 -0.13084238552E+02 -0.36263028166E+02  0.42650868520E+02  0.00000000000E+00 0. -1.
</event>
<event>
 4    1  0.1762646E+004  0.2674253E+02  0.7546771E-02  0.1450212E+00
         21   -1    0    0  501  502  0.00000000000E+00  0.00000000000E+00  0.27147540649E+01  0.27147540649E+01  0.00000000000E+00 0. -1.
         21   -1    0    0  502  503 -0.00000000000E+00 -0.00000000000E+00 -0.26773511572E+03  0.26773511572E+03  0.00000000000E+00 0.  1.
          2    1    1    2  501    0  0.26654224124E+02  0.21714449348E+01 -0.11537398462E+03  0.11843276220E+03  0.00000000000E+00 0. -1.
         -2    1    1    2    0  503 -0.26654224124E+02 -0.21714449348E+01 -0.14964637704E+03  0.15201710758E+03  0.00000000000E+00 0.  1.
</event>
<event>
 4    1  0.1762646E+004  0.4988625E+02  0.7546771E-02  0.1298666E+00
         21   -1    0    0  503  502  0.00000000000E+00  0.00000000000E+00  0.23032849750E+02  0.23032849750E+02  0.00000000000E+00 0. -1.
         21   -1    0    0  501  503 -0.00000000000E+00 -0.00000000000E+00 -0.15695254656E+03  0.15695254656E+03  0.00000000000E+00 0.  1.
          2    1    1    2  501    0 -0.44895966087E+02 -0.21748334689E+02 -0.11719418825E+03  0.12736999486E+03  0.00000000000E+00 0.  1.
         -2    1    1    2    0  502  0.44895966087E+02  0.21748334689E+02 -0.16725508562E+02  0.52615401446E+02  0.00000000000E+00 0. -1.
</event>
<event>
 4    1  0.1762646E+004  0.1160717E+03  0.7546771E-02  0.1138546E+00
         21   -1    0    0  503  502  0.00000000000E+00  0.00000000000E+00  0.39879314322E+03  0.39879314322E+03  0.00000000000E+00 0. -1.
         21   -1    0    0  501  503 -0.00000000000E+00 -0.00000000000E+00 -0.40063443760E+02  0.40063443760E+02  0.00000000000E+00 0.  1.
          2    1    1    2  501    0  0.11303763454E+03 -0.26365416656E+02  0.92489780860E+02  0.14841496415E+03  0.00000000000E+00 0.  1.
         -2    1    1    2    0  502 -0.11303763454E+03  0.26365416656E+02  0.26623991860E+03  0.29044162284E+03  0.00000000000E+00 0. -1.
</event>
<event>
 4    1  0.1762646E+004  0.3162301E+02  0.7546771E-02  0.1405998E+00
         21   -1    0    0  503  502  0.00000000000E+00  0.00000000000E+00  0.90991056349E+01  0.90991056349E+01  0.00000000000E+00 0.  1.
         21   -1    0    0  501  503 -0.00000000000E+00 -0.00000000000E+00 -0.27852649793E+03  0.27852649793E+03  0.00000000000E+00 0. -1.
          2    1    1    2  501    0  0.61345678223E+01  0.31022277376E+02 -0.24661211670E+03  0.24863135506E+03  0.00000000000E+00 0.  1.
         -2    1    1    2    0  502 -0.61345678223E+01 -0.31022277376E+02 -0.22815275597E+02  0.38994248506E+02  0.00000000000E+00 0. -1.
</event>
<event>
 4    1  0.1762646E+004  0.3200958E+02  0.7546771E-02  0.1402901E+00
         21   -1    0    0  503  502  0.00000000000E+00  0.00000000000E+00  0.52103192198E+02  0.52103192198E+02  0.00000000000E+00 0. -1.
         21   -1    0    0  501  503 -0.00000000000E+00 -0.00000000000E+00 -0.52041525900E+02  0.52041525900E+02  0.00000000000E+00 0.  1.
          2    1    1    2  501    0  0.37879552811E+01 -0.31784656791E+02 -0.41041264499E+02  0.52048039388E+02  0.00000000000E+00 0.  1.
         -2    1    1    2    0  502 -0.37879552811E+01  0.31784656791E+02  0.41102930797E+02  0.52096678710E+02  0.00000000000E+00 0. -1.
</event>
<event>
 4    1  0.1762646E+004  0.2383125E+02  0.7546771E-02  0.1482316E+00
         21   -1    0    0  501  502  0.00000000000E+00  0.00000000000E+00  0.46684683258E+02  0.46684683258E+02  0.00000000000E+00 0. -1.
         21   -1    0    0  502  503 -0.00000000000E+00 -0.00000000000E+00 -0.14223417111E+02  0.14223417111E+02  0.00000000000E+00 0.  1.
          2    1    1    2  501    0  0.22899975810E+02 -0.65969302161E+01  0.46458216605E+01  0.24279869013E+02  0.00000000000E+00 0.  1.
         -2    1    1    2    0  503 -0.22899975810E+02  0.65969302161E+01  0.27815444487E+02  0.36628231357E+02  0.00000000000E+00 0. -1.
</event>
<event>
 4    1  0.1762646E+004  0.2159992E+02  0.7546771E-02  0.1510869E+00
         21   -1    0    0  501  502  0.00000000000E+00  0.00000000000E+00  0.44813016447E+02  0.44813016447E+02  0.00000000000E+00 0.  1.
         21   -1    0    0  502  503 -0.00000000000E+00 -0.00000000000E+00 -0.26314358990E+02  0.26314358990E+02  0.00000000000E+00 0. -1.
          2    1    1    2  501    0 -0.21149019388E+02 -0.43904097668E+01  0.36896599177E+02  0.42754131377E+02  0.00000000000E+00 0.  1.
         -2    1    1    2    0  503  0.21149019388E+02  0.43904097668E+01 -0.18397941719E+02  0.28373244060E+02  0.00000000000E+00 0. -1.
</event>
<event>
 4    1  0.1762646E+004  0.4703180E+02  0.7546771E-02  0.1311581E+00
         21   -1    0    0  501  502  0.00000000000E+00  0.00000000000E+00  0.22154541693E+03  0.22154541693E+03  0.00000000000E+00 0. -1.
         21   -1    0    0  502  503 -0.00000000000E+00 -0.00000000000E+00 -0.10623015488E+02  0.10623015488E+02  0.00000000000E+00 0.  1.
          2    1    1    2  501    0 -0.34476551626E+02 -0.31989960450E+02  0.13392422756E+03  0.14194255497E+03  0.00000000000E+00 0. -1.
         -2    1    1    2    0  503  0.34476551626E+02  0.31989960450E+02  0.76998173877E+02  0.90225877452E+02  0.00000000000E+00 0.  1.
</event>
<event>
 4    1  0.1762646E+004  0.2337778E+02  0.7546771E-02  0.1487808E+00
         21   -1    0    0  501  502  0.00000000000E+00  0.00000000000E+00  0.31114078341E+01  0.31114078341E+01  0.00000000000E+00 0. -1.
         21   -1    0    0  502  503 -0.00000000000E+00 -0.00000000000E+00 -0.48359554710E+03  0.48359554710E+03  0.00000000000E+00 0.  1.
          2    1    1    2  501    0  0.22211316497E+02 -0.72923118503E+01 -0.46049320426E+02  0.51643589190E+02  0.00000000000E+00 0. -1.
         -2    1    1    2    0  503 -0.22211316497E+02  0.72923118503E+01 -0.43443481884E+03  0.43506336575E+03  0.00000000000E+00 0.  1.
</event>
<event>
 4    1  0.1762646E+004  0.2081182E+02  0.7546771E-02  0.1521969E+00
         21   -1    0    0  503  502  0.00000000000E+00  0.00000000000E+00  0.53362097865E+03  0.53362097865E+03  0.00000000000E+00 0. -1.
         21   -1    0    0  501  503 -0.00000000000E+00 -0.00000000000E+00 -0.11352431426E+01  0.11352431426E+01  0.00000000000E+00 0.  1.
          2    1    1    2  501    0  0.68041965100E+01 -0.19668120450E+02  0.12349892467E+03  0.12524023494E+03  0.00000000000E+00 0.  1.
         -2    1    1    2    0  502 -0.68041965100E+01  0.19668120450E+02  0.40898681083E+03  0.40951598685E+03  0.00000000000E+00 0. -1.
</event>
<event>
 4    1  0.1762646E+004  0.2877912E+02  0.7546771E-02  0.1430511E+00
         21   -1    0    0  501  502  0.00000000000E+00  0.00000000000E+00  0.14617124952E+03  0.14617124952E+03  0.00000000000E+00 0.  1.
         21   -1    0    0  502  503 -0.00000000000E+00 -0.00000000000E+00 -0.13852526061E+02  0.13852526061E+02  0.00000000000E+00 0. -1.
          2    1    1    2  501    0  0.13596505674E+02  0.25364797761E+02  0.12766771689E+03  0.13087124920E+03  0.00000000000E+00 0.  1.
         -2    1    1    2    0  503 -0.13596505674E+02 -0.25364797761E+02  0.46510065652E+01  0.29152526375E+02  0.00000000000E+00 0. -1.
</event>
<event>
 4    1  0.1762646E+004  0.2466928E+02  0.7546771E-02  0.1472537E+00
         21   -1    0    0  501  502  0.00000000000E+00  0.00000000000E+00  0.91819182695E+01  0.91819182695E+01  0.00000000000E+00 0.  1.
         21   -1    0    0  502  503 -0.00000000000E+00 -0.00000000000E+00 -0.85097039990E+02  0.85097039990E+02  0.00000000000E+00 0. -1.
          2    1    1    2  501    0  0.15047022236E+02 -0.19548925016E+02 -0.60124640382E+02  0.64988812333E+02  0.00000000000E+00 0. -1.
         -2    1    1    2    0  503 -0.15047022236E+02  0.19548925016E+02 -0.15790481339E+02  0.29290145926E+02  0.00000000000E+00 0.  1.
</event>
<event>
 4    1  0.1762646E+004  0.2051960E+02  0.7546771E-02  0.1526235E+00
         21   -1    0    0  501  502  0.00000000000E+00  0.00000000000E+00  0.23521041489E+01  0.23521041489E+01  0.00000000000E+00 0. -1.
         21   -1    0    0  502  503 -0.00000000000E+00 -0.00000000000E+00 -0.19634618612E+03  0.19634618612E+03  0.00000000000E+00 0.  1.
          2    1    1    2  501    0 -0.19689895275E+02  0.57759824049E+01 -0.67477505251E+02  0.70528488312E+02  0.00000000000E+00 0.  1.
         -2    1    1    2    0  503  0.19689895275E+02 -0.57759824049E+01 -0.12651657672E+03  0.12816980196E+03  0.00000000000E+00 0. -1.
</event>
<event>
 4    1  0.1762646E+004  0.4210331E+02  0.7546771E-02  0.1336583E+00
         21   -1    0    0  501  502  0.00000000000E+00  0.00000000000E+00  0.11054388475E+03  0.11054388475E+03  0.00000000000E+00 0. -1.
         21   -1    0    0  502  503 -0.00000000000E+00 -0.00000000000E+00 -0.18783585063E+02  0.18783585063E+02  0.00000000000E+00 0.  1.
          2    1    1    2  501    0 -0.40441127235E+02  0.11713393779E+02  0.70611189600E+02  0.82210878007E+02  0.00000000000E+00 0. -1.
         -2    1    1    2    0  503  0.40441127235E+02 -0.11713393779E+02  0.21149110086E+02  0.47116591805E+02  0.00000000000E+00 0.  1.
</event>
<event>
 4    1  0.1762646E+004  0.2067258E+02  0.7546771E-02  0.1523991E+00
         21   -1    0    0  503  502  0.00000000000E+00  0.00000000000E+00  0.18986338303E+03  0.18986338303E+03  0.00000000000E+00 0. -1.
         21   -1    0    0  501  503 -0.00000000000E+00 -0.00000000000E+00 -0.32441461723E+01  0.32441461723E+01  0.00000000000E+00 0.  1.
          2    1    1    2  501    0 -0.10355964262E+02 -0.17891605416E+02  0.39883132848E+02  0.44922375560E+02  0.00000000000E+00 0.  1.
         -2    1    1    2    0  502  0.10355964262E+02  0.17891605416E+02  0.14673610401E+03  0.14818515364E+03  0.00000000000E+00 0. -1.
</event>
<event>
 4    1  0.1762646E+004  0.2793180E+02  0.7546771E-02  0.1438466E+00
         21   -1    0    0  501  502  0.00000000000E+00  0.00000000000E+00  0.17083958497E+02  0.17083958497E+02  0.00000000000E+00 0.  1.
         21   -1    0    0  502  503 -0.00000000000E+00 -0.00000000000E+00 -0.13156147129E+03  0.13156147129E+03  0.00000000000E+00 0. -1.
          2    1    1    2  501    0 -0.26314571830E+02  0.93663662220E+01  0.28146959073E+01  0.28073261653E+02  0.00000000000E+00 0.  1.
         -2    1    1    2    0  503  0.26314571830E+02 -0.93663662220E+01 -0.11729220870E+03  0.12057216814E+03  0.00000000000E+00 0. -1.
</event>
<event>
 4    1  0.1762646E+004  0.3140890E+02  0.7546771E-02  0.1407736E+00
         21   -1    0    0  501  502  0.00000000000E+00  0.00000000000E+00  0.10699250018E+03  0.10699250018E+03  0.00000000000E+00 0. -1.
         21   -1    0    0  502  503 -0.00000000000E+00 -0.00000000000E+00 -0.13386462859E+02  0.13386462859E+02  0.00000000000E+00 0.  1.
          2    1    1    2  501    0  0.26705275915E+01  0.31295168306E+02  0.80380479472E+02  0.86299135321E+02  0.00000000000E+00 0. -1.
         -2    1    1    2    0  503 -0.26705275915E+01 -0.31295168306E+02  0.13225557851E+02  0.34079827720E+02  0.00000000000E+00 0.  1.
</event>
<event>
 4    1  0.1762646E+004  0.2564721E+02  0.7546771E-02  0.1461692E+00
         21   -1    0    0  501  502  0.00000000000E+00  0.00000000000E+00  0.47317962675E+02  0.47317962675E+02  0.00000000000E+00 0. -1.
         21   -1    0    0  502  503 -0.00000000000E+00 -0.00000000000E+00 -0.32878439915E+02  0.32878439915E+02  0.00000000000E+00 0.  1.
          2    1    1    2  501    0 -0.21916884474E+02  0.13320270377E+02  0.37683633080E+02  0.45583282353E+02  0.00000000000E+00 0. -1.
         -2    1    1    2    0  503  0.21916884474E+02 -0.13320270377E+02 -0.23244110320E+02  0.34613120237E+02  0.00000000000E+00 0.  1.
</event>
<event>
 4    1  0.1762646E+004  0.2459854E+02  0.7546771E-02  0.1473345E+00
         21   -1    0    0  503  502  0.00000000000E+00  0.00000000000E+00  0.29221276936E+03  0.29221276936E+03  0.00000000000E+00 0.  1.
         21   -1    0    0  501  503 -0.00000000000E+00 -0.00000000000E+00 -0.28231124613E+01  0.28231124613E+01  0.00000000000E+00 0. -1.
          2    1    1    2  501    0 -0.17238827127E+02 -0.17547387484E+02  0.68538536117E+02  0.72819083360E+02  0.00000000000E+00 0. -1.
         -2    1    1    2    0  502  0.17238827127E+02  0.17547387484E+02  0.22085112078E+03  0.22221679846E+03  0.00000000000E+00 0.  1.
</event>
<event>
 4    1  0.1762646E+004  0.3302619E+02  0.7546771E-02  0.1394997E+00
         21   -1    0    0  503  502  0.00000000000E+00  0.00000000000E+00  0.16142602788E+02  0.16142602788E+02  0.00000000000E+00 0.  1.
         21   -1    0    0  501  503 -0.00000000000E+00 -0.00000000000E+00 -0.71518663817E+02  0.71518663817E+02  0.00000000000E+00 0. -1.
          2    1    1    2  501    0  0.69365390604E+00 -0.33018905972E+02 -0.17386946678E+02  0.37323387066E+02  0.00000000000E+00 0. -1.
         -2    1    1    2    0  502 -0.69365390604E+00  0.33018905972E+02 -0.37989114351E+02  0.50337879539E+02  0.00000000000E+00 0.  1.
</event>
<event>
 4    1  0.1762646E+004  0.2600740E+02  0.7546771E-02  0.1457842E+00
         21   -1    0    0  501  502  0.00000000000E+00  0.00000000000E+00  0.11364632458E+04  0.11364632458E+04  0.00000000000E+00 0.  1.
         21   -1    0    0  502  503 -0.00000000000E+00 -0.00000000000E+00 -0.10843765807E+01  0.10843765807E+01  0.00000000000E+00 0. -1.
          2    1    1    2  501    0  0.17249277064E+02 -0.19463995904E+02  0.94971927464E+03  0.95007530508E+03  0.00000000000E+00 0. -1.
         -2    1    1    2    0  503 -0.17249277064E+02  0.19463995904E+02  0.18565959462E+03  0.18747231735E+03  0.00000000000E+00 0.  1.
</event>
<event>
 4    1  0.1762646E+004  0.2372157E+02  0.7546771E-02  0.1483631E+00
         21   -1    0    0  501  502  0.00000000000E+00  0.00000000000E+00  0.44727946605E+02  0.44727946605E+02  0.00000000000E+00 0.  1.
         21   -1    0    0  502  503 -0.00000000000E+00 -0.00000000000E+00 -0.16321513491E+02  0.16321513491E+02  0.00000000000E+00 0. -1.
          2    1    1    2  501    0 -0.18697722917E+02  0.14598223404E+02  0.28816551419E+02  0.37324343323E+02  0.00000000000E+00 0.  1.
         -2    1    1    2    0  503  0.18697722917E+02 -0.14598223404E+02 -0.41011830536E+00  0.23725116772E+02  0.00000000000E+00 0. -1.
</event>
<event>
 4    1  0.1762646E+004  0.3193845E+02  0.7546771E-02  0.1403467E+00
         21   -1    0    0  503  502  0.00000000000E+00  0.00000000000E+00  0.27789095975E+02  0.27789095975E+02  0.00000000000E+00 0.  1.
         21   -1    0    0  501  503 -0.00000000000E+00 -0.00000000000E+00 -0.73229539763E+02  0.73229539763E+02  0.00000000000E+00 0. -1.
          2    1    1    2  501    0  0.75006484150E+01  0.31045206247E+02 -0.58390512826E+02  0.66554613256E+02  0.00000000000E+00 0. -1.
         -2    1    1    2    0  502 -0.75006484150E+01 -0.31045206247E+02  0.12950069038E+02  0.34464022482E+02  0.00000000000E+00 0.  1.
</event>
<event>
 4    1  0.1762646E+004  0.2164129E+02  0.7546771E-02  0.1510303E+00
         21   -1    0    0  501  502  0.00000000000E+00  0.00000000000E+00  0.82797600027E+02  0.82797600027E+02  0.00000000000E+00 0.  1.
         21   -1    0    0  502  503 -0.00000000000E+00 -0.00000000000E+00 -0.50721504806E+02  0.50721504806E+02  0.00000000000E+00 0. -1.
          2    1    1    2  501    0  0.21162942851E+02  0.45249441371E+01  0.78965047209E+02  0.81876882881E+02  0.00000000000E+00 0.  1.
         -2    1    1    2    0  503 -0.21162942851E+02 -0.45249441371E+01 -0.46888951989E+02  0.51642221952E+02  0.00000000000E+00 0. -1.
</event>
<event>
 4    1  0.1762646E+004  0.3927347E+02  0.7546771E-02  0.1352797E+00
         21   -1    0    0  501  502  0.00000000000E+00  0.00000000000E+00  0.75018280223E+02  0.75018280223E+02  0.00000000000E+00 0.  1.
         21   -1    0    0  502  503 -0.00000000000E+00 -0.00000000000E+00 -0.20586115688E+02  0.20586115688E+02  0.00000000000E+00 0. -1.
          2    1    1    2  501    0  0.13064803220E+02  0.37036692926E+02  0.28905650715E+02  0.48764150247E+02  0.00000000000E+00 0.  1.
         -2    1    1    2    0  503 -0.13064803220E+02 -0.37036692926E+02  0.25526513820E+02  0.46840245664E+02  0.00000000000E+00 0. -1.
</event>
<event>
 4    1  0.1762646E+004  0.2383431E+02  0.7546771E-02  0.1482279E+00
         21   -1    0    0  501  502  0.00000000000E+00  0.00000000000E+00  0.72892890250E+02  0.72892890250E+02  0.00000000000E+00 0. -1.
         21   -1    0    0  502  503 -0.00000000000E+00 -0.00000000000E+00 -0.82701730909E+01  0.82701730909E+01  0.00000000000E+00 0.  1.
          2    1    1    2  501    0 -0.19997601533E+02 -0.12968040139E+02  0.42056434363E+02  0.48340643391E+02  0.00000000000E+00 0.  1.
         -2    1    1    2    0  503  0.19997601533E+02  0.12968040139E+02  0.22566282797E+02  0.32822419950E+02  0.00000000000E+00 0. -1.
</event>
<event>
 4    1  0.1762646E+004  0.3092022E+02  0.7546771E-02  0.1411765E+00
         21   -1    0    0  503  502  0.00000000000E+00  0.00000000000E+00  0.17383687845E+03  0.17383687845E+03  0.00000000000E+00 0. -1.
         21   -1    0    0  501  503 -0.00000000000E+00 -0.00000000000E+00 -0.14614037226E+02  0.14614037226E+02  0.00000000000E+00 0.  1.
          2    1    1    2  501    0  0.23046514040E+02 -0.20613549189E+02  0.51991784129E+01  0.31354292780E+02  0.00000000000E+00 0.  1.
         -2    1    1    2    0  502 -0.23046514040E+02  0.20613549189E+02  0.15402366281E+03  0.15709662290E+03  0.00000000000E+00 0. -1.
</event>
<event>
 4    1  0.1762646E+004  0.2266264E+02  0.7546771E-02  0.1496778E+00
         21   -1    0    0  501  502  0.00000000000E+00  0.00000000000E+00  0.18771077644E+02  0.18771077644E+02  0.00000000000E+00 0.  1.
         21   -1    0    0  502  503 -0.00000000000E+00 -0.00000000000E+00 -0.27724893479E+02  0.27724893479E+02  0.00000000000E+00 0. -1.
          2    1    1    2  501    0 -0.22636158796E+02 -0.10952735860E+01 -0.18134725243E+01  0.22735082843E+02  0.00000000000E+00 0.  1.
         -2    1    1    2    0  503  0.22636158796E+02  0.10952735860E+01 -0.71403433104E+01  0.23760888280E+02  0.00000000000E+00 0. -1.
</event>
<event>
 4    1  0.1762646E+004  0.2235165E+02  0.7546771E-02  0.1500804E+00
         21   -1    0    0  501  502  0.00000000000E+00  0.00000000000E+00  0.52984216038E+02  0.52984216038E+02  0.00000000000E+00 0.  1.
         21   -1    0    0  502  503 -0.00000000000E+00 -0.00000000000E+00 -0.10587071334E+02  0.10587071334E+02  0.00000000000E+00 0. -1.
          2    1    1    2  501    0 -0.20433554444E+02 -0.90590283219E+01  0.31710504416E+02  0.38796291468E+02  0.00000000000E+00 0.  1.
         -2    1    1    2    0  503  0.20433554444E+02  0.90590283219E+01  0.10686640287E+02  0.24774995903E+02  0.00000000000E+00 0. -1.
</event>
<event>
 4    1  0.1762646E+004  0.3348141E+02  0.7546771E-02  0.1391565E+00
         21   -1    0    0  501  502  0.00000000000E+00  0.00000000000E+00  0.15479013954E+02  0.15479013954E+02  0.00000000000E+00 0. -1.
         21   -1    0    0  502  503 -0.00000000000E+00 -0.00000000000E+00 -0.33022087104E+03  0.33022087104E+03  0.00000000000E+00 0.  1.
          2    1    1    2  501    0  0.12830810560E+02  0.30925313487E+02 -0.46465452967E+01  0.33802294258E+02  0.00000000000E+00 0. -1.
         -2    1    1    2    0  503 -0.12830810560E+02 -0.30925313487E+02 -0.31009531179E+03  0.31189759073E+03  0.00000000000E+00 0.  1.
</event>
<event>
 4    1  0.1762646E+004  0.2675956E+02  0.7546771E-02  0.1450038E+00
         21   -1    0    0  503  502  0.00000000000E+00  0.00000000000E+00  0.47344248347E+02  0.47344248347E+02  0.00000000000E+00 0.  1.
         21   -1    0    0  501  503 -0.00000000000E+00 -0.00000000000E+00 -0.16736453667E+02  0.16736453667E+02  0.00000000000E+00 0. -1.
          2    1    1    2  501    0 -0.40435729749E+01 -0.26452288058E+02  0.53613776871E+01  0.27291361209E+02  0.00000000000E+00 0. -1.
         -2    1    1    2    0  502  0.40435729749E+01  0.26452288058E+02  0.25246416993E+02  0.36789340805E+02  0.00000000000E+00 0.  1.
</event>
<event>
 4    1  0.1762646E+004  0.2318221E+02  0.7546771E-02  0.1490223E+00
         21   -1    0    0  503  502  0.00000000000E+00  0.00000000000E+00  0.14129547336E+02  0.14129547336E+02  0.00000000000E+00 0. -1.
         21   -1    0    0  501  503 -0.00000000000E+00 -0.00000000000E+00 -0.19405503011E+03  0.19405503011E+03  0.00000000000E+00 0.  1.
          2    1    1    2  501    0  0.51278924232E+01  0.22607956809E+02 -0.18329816753E+03  0.18475831026E+03  0.00000000000E+00 0.  1.
         -2    1    1    2    0  502 -0.51278924232E+01 -0.22607956809E+02  0.33726847529E+01  0.23426267185E+02  0.00000000000E+00 0. -1.
</event>
<event>
 4    1  0.1762646E+004  0.2385950E+02  0.7546771E-02  0.1481978E+00
         21   -1    0    0  503  502  0.00000000000E+00  0.00000000000E+00  0.47826138351E+03  0.47826138351E+03  0.00000000000E+00 0. -1.
         21   -1    0    0  501  503 -0.00000000000E+00 -0.00000000000E+00 -0.12890854638E+01  0.12890854638E+01  0.00000000000E+00 0.  1.
          2    1    1    2  501    0 -0.23840845698E+02 -0.94324202227E+00  0.17211109087E+03  0.17375702354E+03  0.00000000000E+00 0. -1.
         -2    1    1    2    0  502  0.23840845698E+02  0.94324202227E+00  0.30486120718E+03  0.30579344543E+03  0.00000000000E+00 0.  1.
</event>
<event>
 4    1  0.1762646E+004  0.2528811E+02  0.7546771E-02  0.1465606E+00
         21   -1    0    0  503  502  0.00000000000E+00  0.00000000000E+00  0.38936729018E+01  0.38936729018E+01  0.00000000000E+00 0.  1.
         21   -1    0    0  501  503 -0.00000000000E+00 -0.00000000000E+00 -0.17734950372E+03  0.17734950372E+03  0.00000000000E+00 0. -1.
          2    1    1    2  501    0  0.21019394571E+02  0.14059636865E+02 -0.11136821396E+03  0.11420318479E+03  0.00000000000E+00 0. -1.
         -2    1    1    2    0  502 -0.21019394571E+02 -0.14059636865E+02 -0.62087616861E+02  0.67039991829E+02  0.00000000000E+00 0.  1.
</event>
<event>
 4    1  0.1762646E+004  0.3990488E+02  0.7546771E-02  0.1349044E+00
         21   -1    0    0  501  502  0.00000000000E+00  0.00000000000E+00  0.21960517905E+01  0.21960517905E+01  0.00000000000E+00 0. -1.
         21   -1    0    0  502  503 -0.00000000000E+00 -0.00000000000E+00 -0.74679586746E+03  0.74679586746E+03  0.00000000000E+00 0.  1.
          2    1    1    2  501    0 -0.36069992373E+02  0.17069133731E+02 -0.30849695111E+03  0.31106714471E+03  0.00000000000E+00 0.  1.
         -2    1    1    2    0  503  0.36069992373E+02 -0.17069133731E+02 -0.43610286456E+03  0.43792477454E+03  0.00000000000E+00 0. -1.
</event>
<event>
 4    1  0.1762646E+004  0.2077608E+02  0.7546771E-02  0.1522486E+00
         21   -1    0    0  503  502  0.00000000000E+00  0.00000000000E+00  0.58827394301E+03  0.58827394301E+03  0.00000000000E+00 0.  1.
         21   -1    0    0  501  503 -0.00000000000E+00 -0.00000000000E+00 -0.94415636913E+00  0.94415636913E+00  0.00000000000E+00 0. -1.
          2    1    1    2  501    0 -0.20441669417E+02 -0.37126255252E+01  0.15458813525E+03  0.15597800164E+03  0.00000000000E+00 0. -1.
         -2    1    1    2    0  502  0.20441669417E+02  0.37126255252E+01  0.43274165139E+03  0.43324009773E+03  0.00000000000E+00 0.  1.
</event>
<event>
 4    1  0.1762646E+004  0.2125225E+02  0.7546771E-02  0.1515694E+00
         21   -1    0    0  501  502  0.00000000000E+00  0.00000000000E+00  0.32793670477E+01  0.32793670477E+01  0.00000000000E+00 0. -1.
         21   -1    0    0  502  503 -0.00000000000E+00 -0.00000000000E+00 -0.19433985591E+03  0.19433985591E+03  0.00000000000E+00 0.  1.
          2    1    1    2  501    0  0.18603733219E+02 -0.10274196510E+02 -0.42199817263E+02  0.47249154285E+02  0.00000000000E+00 0. -1.
         -2    1    1    2    0  503 -0.18603733219E+02  0.10274196510E+02 -0.14886067160E+03  0.15037006867E+03  0.00000000000E+00 0.  1.
</event>
<event>
 4    1  0.1762646E+004  0.2212983E+02  0.7546771E-02  0.1503724E+00
         21   -1    0    0  501  502  0.00000000000E+00  0.00000000000E+00  0.25285100358E+03  0.25285100358E+03  0.00000000000E+00 0. -1.
         21   -1    0    0  502  503 -0.00000000000E+00 -0.00000000000E+00 -0.13921053276E+02  0.13921053276E+02  0.00000000000E+00 0.  1.
          2    1    1    2  501    0  0.74312172552E+01  0.20844817121E+02  0.24322467318E+03  0.24422934106E+03  0.00000000000E+00 0. -1.
         -2    1    1    2    0  503 -0.74312172552E+01 -0.20844817121E+02 -0.42947228803E+01  0.22542715793E+02  0.00000000000E+00 0.  1.
</event>
<event>
 4    1  0.1762646E+004  0.2371516E+02  0.7546771E-02  0.1483708E+00
         21   -1    0    0  501  502  0.00000000000E+00  0.00000000000E+00  0.95438319617E+01  0.95438319617E+01  0.00000000000E+00 0.  1.
         21   -1    0    0  502  503 -0.00000000000E+00 -0.00000000000E+00 -0.81342088384E+02  0.81342088384E+02  0.00000000000E+00 0. -1.
          2    1    1    2  501    0 -0.22222890102E+02 -0.82796059497E+01 -0.12045219260E+02  0.26598797457E+02  0.00000000000E+00 0.  1.
         -2    1    1    2    0  503  0.22222890102E+02  0.82796059497E+01 -0.59753037163E+02  0.64287122889E+02  0.00000000000E+00 0. -1.
</event>
<event>
 4    1  0.1762646E+004  0.3567575E+02  0.7546771E-02  0.1375874E+00
         21   -1    0    0  503  502  0.00000000000E+00  0.00000000000E+00  0.50175811132E+02  0.50175811132E+02  0.00000000000E+00 0. -1.
         21   -1    0    0  501  503 -0.00000000000E+00 -0.00000000000E+00 -0.25760111612E+02  0.25760111612E+02  0.00000000000E+00 0.  1.
          2    1    1    2  501    0  0.26145256079E+02 -0.24273131040E+02  0.16904157310E+02  0.39477966517E+02  0.00000000000E+00 0.  1.
         -2    1    1    2    0  502 -0.26145256079E+02  0.24273131040E+02  0.75115422099E+01  0.36457956228E+02  0.00000000000E+00 0. -1.
</event>
<event>
 4    1  0.1762646E+004  0.5051366E+02  0.7546771E-02  0.1295961E+00
         21   -1    0    0  501  502  0.00000000000E+00  0.00000000000E+00  0.45272027569E+03  0.45272027569E+03  0.00000000000E+00 0. -1.
         21   -1    0    0  502  503 -0.00000000000E+00 -0.00000000000E+00 -0.73453102664E+01  0.73453102664E+01  0.00000000000E+00 0.  1.
          2    1    1    2  501    0 -0.27929423811E+02  0.42090101663E+02  0.33364779168E+03  0.33744996409E+03  0.00000000000E+00 0. -1.
         -2    1    1    2    0  503  0.27929423811E+02 -0.42090101663E+02  0.11172717374E+03  0.12261562186E+03  0.00000000000E+00 0.  1.
</event>
<event>
 4    1  0.1762646E+004  0.2892406E+02  0.7546771E-02  0.1429182E+00
         21   -1    0    0  501  502  0.00000000000E+00  0.00000000000E+00  0.67009851411E+01  0.67009851411E+01  0.00000000000E+00 0. -1.
         21   -1    0    0  502  503 -0.00000000000E+00 -0.00000000000E+00 -0.16545455048E+03  0.16545455048E+03  0.00000000000E+00 0.  1.
          2    1    1    2  501    0  0.26547813843E+02  0.11481055388E+02 -0.36733315093E+02  0.46754010420E+02  0.00000000000E+00 0. -1.
         -2    1    1    2    0  503 -0.26547813843E+02 -0.11481055388E+02 -0.12202025025E+03  0.12540152520E+03  0.00000000000E+00 0.  1.
</event>
<event>
 4    1  0.1762646E+004  0.2951603E+02  0.7546771E-02  0.1423849E+00
         21   -1    0    0  501  502  0.00000000000E+00  0.00000000000E+00  0.87640169927E+02  0.87640169927E+02  0.00000000000E+00 0.  1.
         21   -1    0    0  502  503 -0.00000000000E+00 -0.00000000000E+00 -0.34117170397E+02  0.34117170397E+02  0.00000000000E+00 0. -1.
          2    1    1    2  501    0  0.29499998932E+02  0.97280651361E+00  0.78009386193E+02  0.83406598202E+02  0.00000000000E+00 0.  1.
         -2    1    1    2    0  503 -0.29499998932E+02 -0.97280651361E+00 -0.24486386663E+02  0.38350742122E+02  0.00000000000E+00 0. -1.
</event>
<event>
 4    1  0.1762646E+004  0.2279453E+02  0.7546771E-02  0.1495095E+00
         21   -1    0    0  503  502  0.00000000000E+00  0.00000000000E+00  0.42588470120E+02  0.42588470120E+02  0.00000000000E+00 0. -1.
         21   -1    0    0  501  503 -0.00000000000E+00 -0.00000000000E+00 -0.26797466489E+02  0.26797466489E+02  0.00000000000E+00 0.  1.
          2    1    1    2  501    0 -0.21626365616E+02  0.72035237728E+01 -0.17709773759E+02  0.28865663531E+02  0.00000000000E+00 0.  1.
         -2    1    1    2    0  502  0.21626365616E+02 -0.72035237728E+01  0.33500777390E+02  0.40520273077E+02  0.00000000000E+00 0. -1.
</event>
<event>
 4    1  0.1762646E+004  0.2326462E+02  0.7546771E-02  0.1489202E+00
         21   -1    0    0  503  502  0.00000000000E+00  0.00000000000E+00  0.83682912467E+02  0.83682912467E+02  0.00000000000E+00 0. -1.
         21   -1    0    0  501  503 -0.00000000000E+00 -0.00000000000E+00 -0.23427544491E+02  0.23427544491E+02  0.00000000000E+00 0.  1.
          2    1    1    2  501    0 -0.15587293404E+02  0.17270745838E+02 -0.15439106898E+02  0.27921468430E+02  0.00000000000E+00 0.  1.
         -2    1    1    2    0  502  0.15587293404E+02 -0.17270745838E+02  0.75694474875E+02  0.79188988528E+02  0.00000000000E+00 0. -1.
</event>
<event>
 4    1  0.1762646E+004  0.3086667E+02  0.7546771E-02  0.1412211E+00
         21   -1    0    0  501  502  0.00000000000E+00  0.00000000000E+00  0.88053491551E+02  0.88053491551E+02  0.00000000000E+00 0. -1.
         21   -1    0    0  502  503 -0.00000000000E+00 -0.00000000000E+00 -0.22607830802E+02  0.22607830802E+02  0.00000000000E+00 0.  1.
          2    1    1    2  501    0  0.15241274129E+02 -0.26841293454E+02  0.72675950779E+02  0.78959136856E+02  0.00000000000E+00 0. -1.
         -2    1    1    2    0  503 -0.15241274129E+02  0.26841293454E+02 -0.72302900307E+01  0.31702185497E+02  0.00000000000E+00 0.  1.
</event>
<event>
 4    1  0.1762646E+004  0.2973462E+02  0.7546771E-02  0.1421917E+00
         21   -1    0    0  503  502  0.00000000000E+00  0.00000000000E+00  0.10402958500E+03  0.10402958500E+03  0.00000000000E+00 0.  1.
         21   -1    0    0  501  503 -0.00000000000E+00 -0.00000000000E+00 -0.93093113611E+01  0.93093113611E+01  0.00000000000E+00 0. -1.
          2    1    1    2  501    0  0.91053275276E+01  0.28306197382E+02  0.64079327502E+02  0.70642112176E+02  0.00000000000E+00 0.  1.
         -2    1    1    2    0  502 -0.91053275276E+01 -0.28306197382E+02  0.30640946139E+02  0.42696784187E+02  0.00000000000E+00 0. -1.
</event>
<event>
 4    1  0.1762646E+004  0.2090952E+02  0.7546771E-02  0.1520561E+00
         21   -1    0    0  503  502  0.00000000000E+00  0.00000000000E+00  0.34110169706E+03  0.34110169706E+03  0.00000000000E+00 0. -1.
         21   -1    0    0  501  503 -0.00000000000E+00 -0.00000000000E+00 -0.22113104159E+01  0.22113104159E+01  0.00000000000E+00 0.  1.
          2    1    1    2  501    0  0.89200094228E+00 -0.20890482707E+02  0.58150707587E+02  0.61795733884E+02  0.00000000000E+00 0.  1.
         -2    1    1    2    0  502 -0.89200094228E+00  0.20890482707E+02  0.28073967905E+03  0.28151727359E+03  0.00000000000E+00 0. -1.
</event>
<event>
 4    1  0.1762646E+004  0.3197833E+02  0.7546771E-02  0.1403149E+00
         21   -1    0    0  501  502  0.00000000000E+00  0.00000000000E+00  0.71922135009E+01  0.71922135009E+01  0.00000000000E+00 0. -1.
         21   -1    0    0  502  503 -0.00000000000E+00 -0.00000000000E+00 -0.14315369113E+03  0.14315369113E+03  0.00000000000E+00 0.  1.
          2    1    1    2  501    0 -0.31582996353E+02 -0.50128024310E+01 -0.61792080623E+02  0.69576397396E+02  0.00000000000E+00 0.  1.
         -2    1    1    2    0  503  0.31582996353E+02  0.50128024310E+01 -0.74169397009E+02  0.80769507238E+02  0.00000000000E+00 0. -1.
</event>
<event>
 4    1  0.1762646E+004  0.4044538E+02  0.7546771E-02  0.1345895E+00
         21   -1    0    0  503  502  0.00000000000E+00  0.00000000000E+00  0.10509910796E+03  0.10509910796E+03  0.00000000000E+00 0. -1.
         21   -1    0    0  501  503 -0.00000000000E+00 -0.00000000000E+00 -0.38223134390E+02  0.38223134390E+02  0.00000000000E+00 0.  1.
          2    1    1    2  501    0 -0.34302790077E+02 -0.21427732122E+02 -0.21736211993E+02  0.45916141201E+02  0.00000000000E+00 0.  1.
         -2    1    1    2    0  502  0.34302790077E+02  0.21427732122E+02  0.88612185564E+02  0.97406101150E+02  0.00000000000E+00 0. -1.
</event>
<event>
 4    1  0.1762646E+004  0.2485706E+02  0.7546771E-02  0.1470409E+00
         21   -1    0    0  503  502  0.00000000000E+00  0.00000000000E+00  0.83519850685E+01  0.83519850685E+01  0.00000000000E+00 0.  1.
         21   -1    0    0  501  503 -0.00000000000E+00 -0.00000000000E+00 -0.82882947845E+02  0.82882947845E+02  0.00000000000E+00 0. -1.
          2    1    1    2  501    0  0.24852572258E+02  0.47220751739E+00 -0.52216973751E+02  0.57831528386E+02  0.00000000000E+00 0. -1.
         -2    1    1    2    0  502 -0.24852572258E+02 -0.47220751739E+00 -0.22313989025E+02  0.33403404527E+02  0.00000000000E+00 0.  1.
</event>
<event>
 4    1  0.1762646E+004  0.2411015E+02  0.7546771E-02  0.1479009E+00
         21   -1    0    0  503  502  0.00000000000E+00  0.00000000000E+00  0.52586808902E+03  0.52586808902E+03  0.00000000000E+00 0.  1.
         21   -1    0    0  501  503 -0.00000000000E+00 -0.00000000000E+00 -0.14353424129E+01  0.14353424129E+01  0.00000000000E+00 0. -1.
          2    1    1    2  501    0 -0.16676100036E+02  0.17412842489E+02  0.13581089521E+03  0.13793439982E+03  0.00000000000E+00 0. -1.
         -2    1    1    2    0  502  0.16676100036E+02 -0.17412842489E+02  0.38862185139E+03  0.38936903161E+03  0.00000000000E+00 0.  1.
</event>
<event>
 4    1  0.1762646E+004  0.2474790E+02  0.7546771E-02  0.1471643E+00
         21   -1    0    0  503  502  0.00000000000E+00  0.00000000000E+00  0.36649283433E+02  0.36649283433E+02  0.00000000000E+00 0. -1.
         21   -1    0    0  501  503 -0.00000000000E+00 -0.00000000000E+00 -0.18837359735E+03  0.18837359735E+03  0.00000000000E+00 0.  1.
          2    1    1    2  501    0  0.13669062133E+02 -0.20630448050E+02 -0.18326705276E+03  0.18493044983E+03  0.00000000000E+00 0.  1.
         -2    1    1    2    0  502 -0.13669062133E+02  0.20630448050E+02  0.31542738841E+02  0.40092430956E+02  0.00000000000E+00 0. -1.
</event>
<event>
 4    1  0.1762646E+004  0.2590873E+02  0.7546771E-02  0.1458889E+00
         21   -1    0    0  501  502  0.00000000000E+00  0.00000000000E+00  0.58520096112E+03  0.58520096112E+03  0.00000000000E+00 0. -1.
         21   -1    0    0  502  503 -0.00000000000E+00 -0.00000000000E+00 -0.11851377561E+01  0.11851377561E+01  0.00000000000E+00 0.  1.
          2    1    1    2  501    0 -0.25806387485E+02  0.23005322527E+01  0.34456007634E+03  0.34553278903E+03  0.00000000000E+00 0. -1.
         -2    1    1    2    0  503  0.25806387485E+02 -0.23005322527E+01  0.23945574702E+03  0.24085330985E+03  0.00000000000E+00 0.  1.
</event>
<event>
 4    1  0.1762646E+004  0.3153894E+02  0.7546771E-02  0.1406678E+00
         21   -1    0    0  501  502  0.00000000000E+00  0.00000000000E+00  0.97763909257E+01  0.97763909257E+01  0.00000000000E+00 0.  1.
         21   -1    0    0  502  503 -0.00000000000E+00 -0.00000000000E+00 -0.12939944246E+03  0.12939944246E+03  0.00000000000E+00 0. -1.
          2    1    1    2  501    0 -0.24470173901E+02  0.19897620052E+02 -0.27641943047E+02  0.41937831488E+02  0.00000000000E+00 0.  1.
         -2    1    1    2    0  503  0.24470173901E+02 -0.19897620052E+02 -0.91981108484E+02  0.97238001894E+02  0.00000000000E+00 0. -1.
</event>
<event>
 4    1  0.1762646E+004  0.2494837E+02  0.7546771E-02  0.1469382E+00
         21   -1    0    0  503  502  0.00000000000E+00  0.00000000000E+00  0.41922647556E+03  0.41922647556E+03  0.00000000000E+00 0.  1.
         21   -1    0    0  501  503 -0.00000000000E+00 -0.00000000000E+00 -0.17552771185E+01  0.17552771185E+01  0.00000000000E+00 0. -1.
          2    1    1    2  501    0  0.73337825568E+01  0.23846104492E+02  0.12609098734E+03  0.12853543540E+03  0.00000000000E+00 0.  1.
         -2    1    1    2    0  502 -0.73337825568E+01 -0.23846104492E+02  0.29138021110E+03  0.29244631728E+03  0.00000000000E+00 0. -1.
</event>
<event>
 4    1  0.1762646E+004  0.2720626E+02  0.7546771E-02  0.1445547E+00
         21   -1    0    0  501  502  0.00000000000E+00  0.00000000000E+00  0.16054111835E+02  0.16054111835E+02  0.00000000000E+00 0. -1.
         21   -1    0    0  502  503 -0.00000000000E+00 -0.00000000000E+00 -0.56952998383E+02  0.56952998383E+02  0.00000000000E+00 0.  1.
          2    1    1    2  501    0 -0.24784408116E+02  0.11221133823E+02 -0.45183965704E+01  0.27578916539E+02  0.00000000000E+00 0. -1.
         -2    1    1    2    0  503  0.24784408116E+02 -0.11221133823E+02 -0.36380489978E+02  0.45428193679E+02  0.00000000000E+00 0.  1.
</event>
<event>
 4    1  0.1762646E+004  0.2121444E+02  0.7546771E-02  0.1516225E+00
         21   -1    0    0  501  502  0.00000000000E+00  0.00000000000E+00  0.57467542401E+01  0.57467542401E+01  0.00000000000E+00 0. -1.
         21   -1    0    0  502  503 -0.00000000000E+00 -0.00000000000E+00 -0.33664209746E+03  0.33664209746E+03  0.00000000000E+00 0.  1.
          2    1    1    2  501    0 -0.15884061409E+02  0.14062332759E+02 -0.15482281824E+02  0.26263161652E+02  0.00000000000E+00 0. -1.
         -2    1    1    2    0  503  0.15884061409E+02 -0.14062332759E+02 -0.31541306140E+03  0.31612569005E+03  0.00000000000E+00 0.  1.
</event>
<event>
 4    1  0.1762646E+004  0.2676204E+02  0.7546771E-02  0.1450013E+00
         21   -1    0    0  503  502  0.00000000000E+00  0.00000000000E+00  0.47065327686E+03  0.47065327686E+03  0.00000000000E+00 0.  1.
         21   -1    0    0  501  503 -0.00000000000E+00 -0.00000000000E+00 -0.15243496133E+01  0.15243496133E+01  0.00000000000E+00 0. -1.
          2    1    1    2  501    0  0.18772670645E+02  0.19073377367E+02  0.24435279606E+03  0.24581394556E+03  0.00000000000E+00 0.  1.
         -2    1    1    2    0  502 -0.18772670645E+02 -0.19073377367E+02  0.22477613118E+03  0.22636368091E+03  0.00000000000E+00 0. -1.
</event>
<event>
 4    1  0.1762646E+004  0.2697478E+02  0.7546771E-02  0.1447862E+00
         21   -1    0    0  503  502  0.00000000000E+00  0.00000000000E+00  0.53453418152E+02  0.53453418152E+02  0.00000000000E+00 0.  1.
         21   -1    0    0  501  503 -0.00000000000E+00 -0.00000000000E+00 -0.20431321156E+02  0.20431321156E+02  0.00000000000E+00 0. -1.
          2    1    1    2  501    0  0.14973653829E+02  0.22437207444E+02 -0.48306427046E+01  0.27403899281E+02  0.00000000000E+00 0. -1.
         -2    1    1    2    0  502 -0.14973653829E+02 -0.22437207444E+02  0.37852739700E+02  0.46480840028E+02  0.00000000000E+00 0.  1.
</event>
<event>
 4    1  0.1762646E+004  0.2327403E+02  0.7546771E-02  0.1489085E+00
         21   -1    0    0  503  502  0.00000000000E+00  0.00000000000E+00  0.10304003816E+03  0.10304003816E+03  0.00000000000E+00 0.  1.
         21   -1    0    0  501  503 -0.00000000000E+00 -0.00000000000E+00 -0.70973888941E+01  0.70973888941E+01  0.00000000000E+00 0. -1.
          2    1    1    2  501    0 -0.22563169215E+02  0.57082432941E+01  0.19929169560E+02  0.30640699174E+02  0.00000000000E+00 0. -1.
         -2    1    1    2    0  502  0.22563169215E+02 -0.57082432941E+01  0.76013479702E+02  0.79496727876E+02  0.00000000000E+00 0.  1.
</event>
<event>
 4    1  0.1762646E+004  0.2250356E+02  0.7546771E-02  0.1498828E+00
         21   -1    0    0  503  502  0.00000000000E+00  0.00000000000E+00  0.11852800320E+01  0.11852800320E+01  0.00000000000E+00 0. -1.
         21   -1    0    0  501  503 -0.00000000000E+00 -0.00000000000E+00 -0.42748592939E+03  0.42748592939E+03  0.00000000000E+00 0.  1.
          2    1    1    2  501    0 -0.21763563060E+02  0.57234283940E+01 -0.21819086932E+03  0.21934827504E+03  0.00000000000E+00 0. -1.
         -2    1    1    2    0  502  0.21763563060E+02 -0.57234283940E+01 -0.20810978003E+03  0.20932293437E+03  0.00000000000E+00 0.  1.
</event>
<event>
 4    1  0.1762646E+004  0.2588793E+02  0.7546771E-02  0.1459111E+00
         21   -1    0    0  501  502  0.00000000000E+00  0.00000000000E+00  0.27617401707E+02  0.27617401707E+02  0.00000000000E+00 0.  1.
         21   -1    0    0  502  503 -0.00000000000E+00 -0.00000000000E+00 -0.49498111191E+02  0.49498111191E+02  0.00000000000E+00 0. -1.
          2    1    1    2  501    0  0.19241148462E+01 -0.25816322453E+02  0.16588474314E+02  0.30746742966E+02  0.00000000000E+00 0.  1.
         -2    1    1    2    0  503 -0.19241148462E+01  0.25816322453E+02 -0.38469183798E+02  0.46368769932E+02  0.00000000000E+00 0. -1.
</event>
<event>
 4    1  0.1762646E+004  0.2272747E+02  0.7546771E-02  0.1495949E+00
         21   -1    0    0  503  502  0.00000000000E+00  0.00000000000E+00  0.21298987082E+03  0.21298987082E+03  0.00000000000E+00 0. -1.
         21   -1    0    0  501  503 -0.00000000000E+00 -0.00000000000E+00 -0.29097887824E+01  0.29097887824E+01  0.00000000000E+00 0.  1.
          2    1    1    2  501    0 -0.12939050481E+02  0.18684727042E+02  0.60985732345E+02  0.65083005475E+02  0.00000000000E+00 0.  1.
         -2    1    1    2    0  502  0.12939050481E+02 -0.18684727042E+02  0.14909434970E+03  0.15081665413E+03  0.00000000000E+00 0. -1.
</event>
<event>
 4    1  0.1762646E+004  0.2198720E+02  0.7546771E-02  0.1505623E+00
         21   -1    0    0  501  502  0.00000000000E+00  0.00000000000E+00  0.10880395512E+03  0.10880395512E+03  0.00000000000E+00 0. -1.
         21   -1    0    0  502  503 -0.00000000000E+00 -0.00000000000E+00 -0.54858613066E+01  0.54858613066E+01  0.00000000000E+00 0.  1.
          2    1    1    2  501    0  0.64967216566E+01 -0.21005462527E+02  0.26745907944E+02  0.34623408844E+02  0.00000000000E+00 0.  1.
         -2    1    1    2    0  503 -0.64967216566E+01  0.21005462527E+02  0.76572185873E+02  0.79666407586E+02  0.00000000000E+00 0. -1.
</event>
<event>
 4    1  0.1762646E+004  0.2231277E+02  0.7546771E-02  0.1501313E+00
         21   -1    0    0  503  502  0.00000000000E+00  0.00000000000E+00  0.24835536636E+01  0.24835536636E+01  0.00000000000E+00 0. -1.
         21   -1    0    0  501  503 -0.00000000000E+00 -0.00000000000E+00 -0.20403418708E+03  0.20403418708E+03  0.00000000000E+00 0.  1.
          2    1    1    2  501    0  0.68700620615E+01  0.21228800317E+02 -0.11443700251E+03  0.11659196911E+03  0.00000000000E+00 0.  1.
         -2    1    1    2    0  502 -0.68700620615E+01 -0.21228800317E+02 -0.87113630906E+02  0.89925771641E+02  0.00000000000E+00 0. -1.
</event>
<event>
 4    1  0.1762646E+004  0.2243344E+02  0.7546771E-02  0.1499738E+00
         21   -1    0    0  501  502  0.00000000000E+00  0.00000000000E+00  0.13693906001E+02  0.13693906001E+02  0.00000000000E+00 0. -1.
         21   -1    0    0  502  503 -0.00000000000E+00 -0.00000000000E+00 -0.37081183397E+02  0.37081183397E+02  0.00000000000E+00 0.  1.
          2    1    1    2  501    0  0.15010427774E+02 -0.16671718764E+02 -0.14090759190E+02  0.26491671202E+02  0.00000000000E+00 0.  1.
         -2    1    1    2    0  503 -0.15010427774E+02  0.16671718764E+02 -0.92965182059E+01  0.24283418196E+02  0.00000000000E+00 0. -1.
</event>
<event>
 4    1  0.1762646E+004  0.2890877E+02  0.7546771E-02  0.1429322E+00
         21   -1    0    0  501  502  0.00000000000E+00  0.00000000000E+00  0.51283165674E+03  0.51283165674E+03  0.00000000000E+00 0.  1.
         21   -1    0    0  502  503 -0.00000000000E+00 -0.00000000000E+00 -0.17627571289E+01  0.17627571289E+01  0.00000000000E+00 0. -1.
          2    1    1    2  501    0  0.16282615999E+02 -0.23887098729E+02  0.32624757794E+03  0.32752587560E+03  0.00000000000E+00 0.  1.
         -2    1    1    2    0  503 -0.16282615999E+02  0.23887098729E+02  0.18482132167E+03  0.18706853827E+03  0.00000000000E+00 0. -1.
</event>
<event>
 4    1  0.1762646E+004  0.2324065E+02  0.7546771E-02  0.1489498E+00
         21   -1    0    0  503  502  0.00000000000E+00  0.00000000000E+00  0.85362748808E+02  0.85362748808E+02  0.00000000000E+00 0. -1.
         21   -1    0    0  501  503 -0.00000000000E+00 -0.00000000000E+00 -0.63800752187E+01  0.63800752187E+01  0.00000000000E+00 0.  1.
          2    1    1    2  501    0 -0.16403316779E+02 -0.16463868484E+02  0.35324919078E+02  0.42284485035E+02  0.00000000000E+00 0. -1.
         -2    1    1    2    0  502  0.16403316779E+02  0.16463868484E+02  0.43657754511E+02  0.49458338991E+02  0.00000000000E+00 0.  1.
</event>
<event>
 4    1  0.1762646E+004  0.2269188E+02  0.7546771E-02  0.1496404E+00
         21   -1    0    0  501  502  0.00000000000E+00  0.00000000000E+00  0.25233171460E+02  0.25233171460E+02  0.00000000000E+00 0. -1.
         21   -1    0    0  502  503 -0.00000000000E+00 -0.00000000000E+00 -0.51878564019E+02  0.51878564019E+02  0.00000000000E+00 0.  1.
          2    1    1    2  501    0 -0.21470735328E+02  0.73436272545E+01  0.16707553959E+02  0.28179135829E+02  0.00000000000E+00 0. -1.
         -2    1    1    2    0  503  0.21470735328E+02 -0.73436272545E+01 -0.43352946517E+02  0.48932599650E+02  0.00000000000E+00 0.  1.
</event>
<event>
 4    1  0.1762646E+004  0.2205488E+02  0.7546771E-02  0.1504720E+00
         21   -1    0    0  503  502  0.00000000000E+00  0.00000000000E+00  0.21904688624E+02  0.21904688624E+02  0.00000000000E+00 0.  1.
         21   -1    0    0  501  503 -0.00000000000E+00 -0.00000000000E+00 -0.22553167221E+02  0.22553167221E+02  0.00000000000E+00 0. -1.
          2    1    1    2  501    0 -0.15236157328E+02 -0.15946070821E+02 -0.30817850502E+01  0.22269150497E+02  0.00000000000E+00 0. -1.
         -2    1    1    2    0  502  0.15236157328E+02  0.15946070821E+02  0.24333064537E+01  0.22188705349E+02  0.00000000000E+00 0.  1.
</event>
<event>
 4    1  0.1762646E+004  0.4108473E+02  0.7546771E-02  0.1342244E+00
         21   -1    0    0  503  502  0.00000000000E+00  0.00000000000E+00  0.87935934290E+03  0.87935934290E+03  0.00000000000E+00 0.  1.
         21   -1    0    0  501  503 -0.00000000000E+00 -0.00000000000E+00 -0.69561528474E+01  0.69561528474E+01  0.00000000000E+00 0. -1.
          2    1    1    2  501    0 -0.12981978242E+02  0.38979783438E+02  0.59112849316E+02  0.71988083946E+02  0.00000000000E+00 0. -1.
         -2    1    1    2    0  502  0.12981978242E+02 -0.38979783438E+02  0.81329034074E+03  0.81432741180E+03  0.00000000000E+00 0.  1.
</event>
<event>
 4    1  0.1762646E+004  0.4800623E+02  0.7546771E-02  0.1307056E+00
         21   -1    0    0  501  502  0.00000000000E+00  0.00000000000E+00  0.15977882607E+03  0.15977882607E+03  0.00000000000E+00 0.  1.
         21   -1    0    0  502  503 -0.00000000000E+00 -0.00000000000E+00 -0.98084251698E+02  0.98084251698E+02  0.00000000000E+00 0. -1.
          2    1    1    2  501    0  0.47380045278E+02 -0.77285116505E+01  0.14992210891E+03  0.15742057465E+03  0.00000000000E+00 0.  1.
         -2    1    1    2    0  503 -0.47380045278E+02  0.77285116505E+01 -0.88227534536E+02  0.10044250312E+03  0.00000000000E+00 0. -1.
</event>
<event>
 4    1  0.1762646E+004  0.2011733E+02  0.7546771E-02  0.1532250E+00
         21   -1    0    0  501  502  0.00000000000E+00  0.00000000000E+00  0.17730499207E+02  0.17730499207E+02  0.00000000000E+00 0.  1.
         21   -1    0    0  502  503 -0.00000000000E+00 -0.00000000000E+00 -0.40583950483E+02  0.40583950483E+02  0.00000000000E+00 0. -1.
          2    1    1    2  501    0  0.19428484635E+02  0.52192923161E+01  0.78605946740E+01  0.21598517915E+02  0.00000000000E+00 0.  1.
         -2    1    1    2    0  503 -0.19428484635E+02 -0.52192923161E+01 -0.30714045950E+02  0.36715931775E+02  0.00000000000E+00 0. -1.
</event>
<event>
 4    1  0.1762646E+004  0.2052108E+02  0.7546771E-02  0.1526214E+00
         21   -1    0    0  503  502  0.00000000000E+00  0.00000000000E+00  0.15501513192E+01  0.15501513192E+01  0.00000000000E+00 0.  1.
         21   -1    0    0  501  503 -0.00000000000E+00 -0.00000000000E+00 -0.39657653383E+03  0.39657653383E+03  0.00000000000E+00 0. -1.
          2    1    1    2  501    0 -0.98454115840E+01  0.18005068363E+02 -0.30923479931E+03  0.30991494917E+03  0.00000000000E+00 0. -1.
         -2    1    1    2    0  502  0.98454115840E+01 -0.18005068363E+02 -0.85791583201E+02  0.88211735977E+02  0.00000000000E+00 0.  1.
</event>
<event>
 4    1  0.1762646E+004  0.2933484E+02  0.7546771E-02  0.1425466E+00
         21   -1    0    0  503  502  0.00000000000E+00  0.00000000000E+00  0.58504856225E+02  0.58504856225E+02  0.00000000000E+00 0.  1.
         21   -1    0    0  501  503 -0.00000000000E+00 -0.00000000000E+00 -0.18301511610E+02  0.18301511610E+02  0.00000000000E+00 0. -1.
          2    1    1    2  501    0  0.20441559987E+02  0.21039855281E+02  0.30864203269E+01  0.29496760422E+02  0.00000000000E+00 0.  1.
         -2    1    1    2    0  502 -0.20441559987E+02 -0.21039855281E+02  0.37116924288E+02  0.47309607413E+02  0.00000000000E+00 0. -1.
</event>
<event>
 4    1  0.1762646E+004  0.2623188E+02  0.7546771E-02  0.1455480E+00
         21   -1    0    0  501  502  0.00000000000E+00  0.00000000000E+00  0.61588295768E+01  0.61588295768E+01  0.00000000000E+00 0.  1.
         21   -1    0    0  502  503 -0.00000000000E+00 -0.00000000000E+00 -0.12019655819E+03  0.12019655819E+03  0.00000000000E+00 0. -1.
          2    1    1    2  501    0  0.17949307746E+01  0.26170402513E+02 -0.40248956326E+02  0.48042587665E+02  0.00000000000E+00 0.  1.
         -2    1    1    2    0  503 -0.17949307746E+01 -0.26170402513E+02 -0.73788772290E+02  0.78312800105E+02  0.00000000000E+00 0. -1.
</event>
<event>
 4    1  0.1762646E+004  0.3550644E+02  0.7546771E-02  0.1377037E+00
         21   -1    0    0  501  502  0.00000000000E+00  0.00000000000E+00  0.38731508015E+02  0.38731508015E+02  0.00000000000E+00 0.  1.
         21   -1    0    0  502  503 -0.00000000000E+00 -0.00000000000E+00 -0.37982202676E+02  0.37982202676E+02  0.00000000000E+00 0. -1.
          2    1    1    2  501    0 -0.19651971447E+02  0.29572069888E+02 -0.14131234529E+02  0.38215168304E+02  0.00000000000E+00 0. -1.
         -2    1    1    2    0  503  0.19651971447E+02 -0.29572069888E+02  0.14880539868E+02  0.38498542387E+02  0.00000000000E+00 0.  1.
</event>
<event>
 4    1  0.1762646E+004  0.2410777E+02  0.7546771E-02  0.1479037E+00
         21   -1    0    0  503  502  0.00000000000E+00  0.00000000000E+00  0.75472188271E+01  0.75472188271E+01  0.00000000000E+00 0.  1.
         21   -1    0    0  501  503 -0.00000000000E+00 -0.00000000000E+00 -0.16088936661E+03  0.16088936661E+03  0.00000000000E+00 0. -1.
          2    1    1    2  501    0 -0.19005834836E+01 -0.24032730787E+02 -0.13748171459E+03  0.13957939036E+03  0.00000000000E+00 0. -1.
         -2    1    1    2    0  502  0.19005834836E+01  0.24032730787E+02 -0.15860433192E+02  0.28857195077E+02  0.00000000000E+00 0.  1.
</event>
<event>
 4    1  0.1762646E+004  0.2287796E+02  0.7546771E-02  0.1494036E+00
         21   -1    0    0  503  502  0.00000000000E+00  0.00000000000E+00  0.93681940227E+03  0.93681940227E+03  0.00000000000E+00 0.  1.
         21   -1    0    0  501  503 -0.00000000000E+00 -0.00000000000E+00 -0.58556695830E+00  0.58556695830E+00  0.00000000000E+00 0. -1.
          2    1    1    2  501    0 -0.18158575558E+02  0.13916432502E+02  0.36772041800E+03  0.36843141393E+03  0.00000000000E+00 0. -1.
         -2    1    1    2    0  502  0.18158575558E+02 -0.13916432502E+02  0.56851341732E+03  0.56897355530E+03  0.00000000000E+00 0.  1.
</event>
<event>
 4    1  0.1762646E+004  0.2488492E+02  0.7546771E-02  0.1470095E+00
         21   -1    0    0  503  502  0.00000000000E+00  0.00000000000E+00  0.54760624710E+02  0.54760624710E+02  0.00000000000E+00 0.  1.
         21   -1    0    0  501  503 -0.00000000000E+00 -0.00000000000E+00 -0.37568681987E+02  0.37568681987E+02  0.00000000000E+00 0. -1.
          2    1    1    2  501    0  0.24233368062E+01  0.24766642590E+02 -0.30000328609E+02  0.38977927896E+02  0.00000000000E+00 0. -1.
         -2    1    1    2    0  502 -0.24233368062E+01 -0.24766642590E+02  0.47192271332E+02  0.53351378800E+02  0.00000000000E+00 0.  1.
</event>
<event>
 4    1  0.1762646E+004  0.4695049E+02  0.7546771E-02  0.1311965E+00
         21   -1    0    0  501  502  0.00000000000E+00  0.00000000000E+00  0.60566423515E+02  0.60566423515E+02  0.00000000000E+00 0. -1.
         21   -1    0    0  502  503 -0.00000000000E+00 -0.00000000000E+00 -0.47641529160E+02  0.47641529160E+02  0.00000000000E+00 0.  1.
          2    1    1    2  501    0  0.46832102122E+02  0.33320205446E+01  0.32749083801E+02  0.57243782543E+02  0.00000000000E+00 0. -1.
         -2    1    1    2    0  503 -0.46832102122E+02 -0.33320205446E+01 -0.19824189446E+02  0.50964170132E+02  0.00000000000E+00 0.  1.
</event>
<event>
 4    1  0.1762646E+004  0.2393125E+02  0.7546771E-02  0.1481124E+00
         21   -1    0    0  501  502  0.00000000000E+00  0.00000000000E+00  0.22632430303E+01  0.22632430303E+01  0.00000000000E+00 0. -1.
         21   -1    0    0  502  503 -0.00000000000E+00 -0.00000000000E+00 -0.47304292973E+03  0.47304292973E+03  0.00000000000E+00 0.  1.
          2    1    1    2  501    0  0.23415857102E+02 -0.49398626729E+01 -0.73320271068E+02  0.77126952206E+02  0.00000000000E+00 0. -1.
         -2    1    1    2    0  503 -0.23415857102E+02  0.49398626729E+01 -0.39745941563E+03  0.39817922055E+03  0.00000000000E+00 0.  1.
</event>
<event>
 4    1  0.1762646E+004  0.2123464E+02  0.7546771E-02  0.1515941E+00
         21   -1    0    0  501  502  0.00000000000E+00  0.00000000000E+00  0.10066317299E+03  0.10066317299E+03  0.00000000000E+00 0.  1.
         21   -1    0    0  502  503 -0.00000000000E+00 -0.00000000000E+00 -0.22340195705E+02  0.22340195705E+02  0.00000000000E+00 0. -1.
          2    1    1    2  501    0  0.14424583024E+02  0.15583362811E+02  0.94152793439E+02  0.96517657992E+02  0.00000000000E+00 0.  1.
         -2    1    1    2    0  503 -0.14424583024E+02 -0.15583362811E+02 -0.15829816155E+02  0.26485710702E+02  0.00000000000E+00 0. -1.
</event>
<event>
 4    1  0.1762646E+004  0.2191034E+02  0.7546771E-02  0.1506654E+00
         21   -1    0    0  503  502  0.00000000000E+00  0.00000000000E+00  0.16555947941E+02  0.16555947941E+02  0.00000000000E+00 0. -1.
         21   -1    0    0  501  503 -0.00000000000E+00 -0.00000000000E+00 -0.42624325357E+02  0.42624325357E+02  0.00000000000E+00 0.  1.
          2    1    1    2  501    0 -0.16607073925E+02 -0.14292245531E+02 -0.29765608591E+02  0.36960176426E+02  0.00000000000E+00 0.  1.
         -2    1    1    2    0  502  0.16607073925E+02  0.14292245531E+02  0.36972311752E+01  0.22220096872E+02  0.00000000000E+00 0. -1.
</event>
<event>
 4    1  0.1762646E+004  0.4558938E+02  0.7546771E-02  0.1318518E+00
         21   -1    0    0  503  502  0.00000000000E+00  0.00000000000E+00  0.77751181725E+01  0.77751181725E+01  0.00000000000E+00 0. -1.
         21   -1    0    0  501  503 -0.00000000000E+00 -0.00000000000E+00 -0.41360046104E+03  0.41360046104E+03  0.00000000000E+00 0.  1.
          2    1    1    2  501    0 -0.17035974579E+02  0.42286720869E+02 -0.32821300141E+03  0.33136409807E+03  0.00000000000E+00 0.  1.
         -2    1    1    2    0  502  0.17035974579E+02 -0.42286720869E+02 -0.77612341451E+02  0.90011481141E+02  0.00000000000E+00 0. -1.
</event>
<event>
 4    1  0.1762646E+004  0.2827305E+02  0.7546771E-02  0.1435223E+00
         21   -1    0    0  501  502  0.00000000000E+00  0.00000000000E+00  0.44209214889E+01  0.44209214889E+01  0.00000000000E+00 0. -1.
         21   -1    0    0  502  503 -0.00000000000E+00 -0.00000000000E+00 -0.93722802971E+03  0.93722802971E+03  0.00000000000E+00 0.  1.
          2    1    1    2  501    0  0.98666823905E+01  0.26495549596E+02 -0.43427174932E+02  0.51819736514E+02  0.00000000000E+00 0. -1.
         -2    1    1    2    0  503 -0.98666823905E+01 -0.26495549596E+02 -0.88937993329E+03  0.88982921469E+03  0.00000000000E+00 0.  1.
</event>
<event>
 4    1  0.1762646E+004  0.2070642E+02  0.7546771E-02  0.1523498E+00
         21   -1    0    0  503  502  0.00000000000E+00  0.00000000000E+00  0.11077610064E+02  0.11077610064E+02  0.00000000000E+00 0. -1.
         21   -1    0    0  501  503 -0.00000000000E+00 -0.00000000000E+00 -0.39808394225E+02  0.39808394225E+02  0.00000000000E+00 0.  1.
          2    1    1    2  501    0  0.17124748531E+01  0.20635483464E+02 -0.18601844427E+02  0.27834948608E+02  0.00000000000E+00 0.  1.
         -2    1    1    2    0  502 -0.17124748531E+01 -0.20635483464E+02 -0.10128939733E+02  0.23051055682E+02  0.00000000000E+00 0. -1.
</event>
<event>
 4    1  0.1762646E+004  0.2497465E+02  0.7546771E-02  0.1469087E+00
         21   -1    0    0  501  502  0.00000000000E+00  0.00000000000E+00  0.68700453755E+02  0.68700453755E+02  0.00000000000E+00 0. -1.
         21   -1    0    0  502  503 -0.00000000000E+00 -0.00000000000E+00 -0.11689836547E+02  0.11689836547E+02  0.00000000000E+00 0.  1.
          2    1    1    2  501    0  0.11919057476E+02  0.21946959019E+02  0.47501099554E+02  0.53666445757E+02  0.00000000000E+00 0. -1.
         -2    1    1    2    0  503 -0.11919057476E+02 -0.21946959019E+02  0.95095176542E+01  0.26723844546E+02  0.00000000000E+00 0.  1.
</event>
<event>
 4    1  0.1762646E+004  0.2372472E+02  0.7546771E-02  0.1483593E+00
         21   -1    0    0  501  502  0.00000000000E+00  0.00000000000E+00  0.40371699462E+02  0.40371699462E+02  0.00000000000E+00 0. -1.
         21   -1    0    0  502  503 -0.00000000000E+00 -0.00000000000E+00 -0.52133701454E+02  0.52133701454E+02  0.00000000000E+00 0.  1.
          2    1    1    2  501    0  0.56728819794E+01 -0.23036504000E+02  0.33706887201E+02  0.41219126037E+02  0.00000000000E+00 0. -1.
         -2    1    1    2    0  503 -0.56728819794E+01  0.23036504000E+02 -0.45468889193E+02  0.51286274879E+02  0.00000000000E+00 0.  1.
</event>
<event>
 4    1  0.1762646E+004  0.2009286E+02  0.7546771E-02  0.1532621E+00
         21   -1    0    0  503  502  0.00000000000E+00  0.00000000000E+00  0.50165893597E+01  0.50165893597E+01  0.00000000000E+00 0. -1.
         21   -1    0    0  501  503 -0.00000000000E+00 -0.00000000000E+00 -0.93999984710E+02  0.93999984710E+02  0.00000000000E+00 0.  1.
          2    1    1    2  501    0 -0.19903212592E+02  0.27540817927E+01 -0.25714040714E+02  0.32633337676E+02  0.00000000000E+00 0. -1.
         -2    1    1    2    0  502  0.19903212592E+02 -0.27540817927E+01 -0.63269354637E+02  0.66383236394E+02  0.00000000000E+00 0.  1.
</event>
<event>
 4    1  0.1762646E+004  0.2721559E+02  0.7546771E-02  0.1445454E+00
         21   -1    0    0  503  502  0.00000000000E+00  0.00000000000E+00  0.43333128330E+03  0.43333128330E+03  0.00000000000E+00 0.  1.
         21   -1    0    0  501  503 -0.00000000000E+00 -0.00000000000E+00 -0.28726851097E+01  0.28726851097E+01  0.00000000000E+00 0. -1.
          2    1    1    2  501    0 -0.30825130960E+01  0.27040457918E+02  0.76432493535E+02  0.81133312020E+02  0.00000000000E+00 0. -1.
         -2    1    1    2    0  502  0.30825130960E+01 -0.27040457918E+02  0.35402610465E+03  0.35507065639E+03  0.00000000000E+00 0.  1.
</event>
<event>
 4    1  0.1762646E+004  0.2093643E+02  0.7546771E-02  0.1520174E+00
         21   -1    0    0  501  502  0.00000000000E+00  0.00000000000E+00  0.18211099016E+01  0.18211099016E+01  0.00000000000E+00 0. -1.
         21   -1    0    0  502  503 -0.00000000000E+00 -0.00000000000E+00 -0.24119717017E+03  0.24119717017E+03  0.00000000000E+00 0.  1.
          2    1    1    2  501    0  0.10294086714E+02 -0.18230907170E+02 -0.12522582984E+03  0.12696394235E+03  0.00000000000E+00 0.  1.
         -2    1    1    2    0  503 -0.10294086714E+02  0.18230907170E+02 -0.11415023043E+03  0.11605433772E+03  0.00000000000E+00 0. -1.
</event>
<event>
 4    1  0.1762646E+004  0.2238187E+02  0.7546771E-02  0.1500409E+00
         21   -1    0    0  503  502  0.00000000000E+00  0.00000000000E+00  0.41731908376E+01  0.41731908376E+01  0.00000000000E+00 0. -1.
         21   -1    0    0  501  503 -0.00000000000E+00 -0.00000000000E+00 -0.15410336422E+03  0.15410336422E+03  0.00000000000E+00 0.  1.
          2    1    1    2  501    0 -0.14443677346E+02 -0.17097612259E+02 -0.11217227484E+03  0.11438342277E+03  0.00000000000E+00 0.  1.
         -2    1    1    2    0  502  0.14443677346E+02  0.17097612259E+02 -0.37757898537E+02  0.43893132289E+02  0.00000000000E+00 0. -1.
</event>
<event>
 4    1  0.1762646E+004  0.2455481E+02  0.7546771E-02  0.1473846E+00
         21   -1    0    0  501  502  0.00000000000E+00  0.00000000000E+00  0.52613208535E+01  0.52613208535E+01  0.00000000000E+00 0. -1.
         21   -1    0    0  502  503 -0.00000000000E+00 -0.00000000000E+00 -0.18270941454E+03  0.18270941454E+03  0.00000000000E+00 0.  1.
          2    1    1    2  501    0 -0.17718735006E+02  0.16999567227E+02 -0.31340351193E+02  0.39814023522E+02  0.00000000000E+00 0. -1.
         -2    1    1    2    0  503  0.17718735006E+02 -0.16999567227E+02 -0.14610774249E+03  0.14815671187E+03  0.00000000000E+00 0.  1.
</event>
<event>
 4    1  0.1762646E+004  0.2056833E+02  0.7546771E-02  0.1525518E+00
         21   -1    0    0  501  502  0.00000000000E+00  0.00000000000E+00  0.28389186191E+03  0.28389186191E+03  0.00000000000E+00 0. -1.
         21   -1    0    0  502  503 -0.00000000000E+00 -0.00000000000E+00 -0.14961606064E+01  0.14961606064E+01  0.00000000000E+00 0.  1.
          2    1    1    2  501    0 -0.20481755162E+02 -0.18852302066E+01  0.15020251536E+03  0.15160426118E+03  0.00000000000E+00 0. -1.
         -2    1    1    2    0  503  0.20481755162E+02  0.18852302066E+01  0.13219318594E+03  0.13378376133E+03  0.00000000000E+00 0.  1.
</event>
<event>
 4    1  0.1762646E+004  0.2615921E+02  0.7546771E-02  0.1456242E+00
         21   -1    0    0  503  502  0.00000000000E+00  0.00000000000E+00  0.47789913283E+02  0.47789913283E+02  0.00000000000E+00 0.  1.
         21   -1    0    0  501  503 -0.00000000000E+00 -0.00000000000E+00 -0.14424332395E+02  0.14424332395E+02  0.00000000000E+00 0. -1.
          2    1    1    2  501    0 -0.25546944562E+02 -0.56265386324E+01  0.14024701884E+02  0.29681586486E+02  0.00000000000E+00 0.  1.
         -2    1    1    2    0  502  0.25546944562E+02  0.56265386324E+01  0.19340879004E+02  0.32532659191E+02  0.00000000000E+00 0. -1.
</event>
<event>
 4    1  0.1762646E+004  0.2419764E+02  0.7546771E-02  0.1477983E+00
         21   -1    0    0  501  502  0.00000000000E+00  0.00000000000E+00  0.86920717135E+00  0.86920717135E+00  0.00000000000E+00 0.  1.
         21   -1    0    0  502  503 -0.00000000000E+00 -0.00000000000E+00 -0.68135214546E+03  0.68135214546E+03  0.00000000000E+00 0. -1.
          2    1    1    2  501    0  0.19702671174E+02  0.14047443657E+02 -0.37655070263E+03  0.37732738779E+03  0.00000000000E+00 0.  1.
         -2    1    1    2    0  503 -0.19702671174E+02 -0.14047443657E+02 -0.30393223565E+03  0.30489396483E+03  0.00000000000E+00 0. -1.
</event>
<event>
 4    1  0.1762646E+004  0.2282076E+02  0.7546771E-02  0.1494761E+00
         21   -1    0    0  503  502  0.00000000000E+00  0.00000000000E+00  0.14158514334E+03  0.14158514334E+03  0.00000000000E+00 0.  1.
         21   -1    0    0  501  503 -0.00000000000E+00 -0.00000000000E+00 -0.63501831242E+01  0.63501831242E+01  0.00000000000E+00 0. -1.
          2    1    1    2  501    0  0.21775889186E+02 -0.68262654185E+01  0.19637441556E+02  0.30106749414E+02  0.00000000000E+00 0. -1.
         -2    1    1    2    0  502 -0.21775889186E+02  0.68262654185E+01  0.11559751866E+03  0.11782857705E+03  0.00000000000E+00 0.  1.
</event>
<event>
 4    1  0.1762646E+004  0.3203183E+02  0.7546771E-02  0.1402724E+00
         21   -1    0    0  503  502  0.00000000000E+00  0.00000000000E+00  0.28519410318E+01  0.28519410318E+01  0.00000000000E+00 0.  1.
         21   -1    0    0  501  503 -0.00000000000E+00 -0.00000000000E+00 -0.42472958919E+03  0.42472958919E+03  0.00000000000E+00 0. -1.
          2    1    1    2  501    0  0.17465525310E+02 -0.26851325554E+02 -0.29454910260E+03  0.29628569338E+03  0.00000000000E+00 0. -1.
         -2    1    1    2    0  502 -0.17465525310E+02  0.26851325554E+02 -0.12732854556E+03  0.13129583684E+03  0.00000000000E+00 0.  1.
</event>
<event>
 4    1  0.1762646E+004  0.2967063E+02  0.7546771E-02  0.1422481E+00
         21   -1    0    0  501  502  0.00000000000E+00  0.00000000000E+00  0.15341916235E+03  0.15341916235E+03  0.00000000000E+00 0. -1.
         21   -1    0    0  502  503 -0.00000000000E+00 -0.00000000000E+00 -0.10127757789E+02  0.10127757789E+02  0.00000000000E+00 0.  1.
          2    1    1    2  501    0  0.24564601272E+02 -0.16641114115E+02  0.12548101530E+03  0.12894119402E+03  0.00000000000E+00 0. -1.
         -2    1    1    2    0  503 -0.24564601272E+02  0.16641114115E+02  0.17810389264E+02  0.34605726121E+02  0.00000000000E+00 0.  1.
</event>
<event>
 4    1  0.1762646E+004  0.2663493E+02  0.7546771E-02  0.1451310E+00
         21   -1    0    0  501  502  0.00000000000E+00  0.00000000000E+00  0.57749753933E+01  0.57749753933E+01  0.00000000000E+00 0.  1.
         21   -1    0    0  502  503 -0.00000000000E+00 -0.00000000000E+00 -0.37161060505E+03  0.37161060505E+03  0.00000000000E+00 0. -1.
          2    1    1    2  501    0  0.11520459633E+02 -0.24014547286E+02 -0.28531948505E+02  0.39031929968E+02  0.00000000000E+00 0.  1.
         -2    1    1    2    0  503 -0.11520459633E+02  0.24014547286E+02 -0.33730368115E+03  0.33835365047E+03  0.00000000000E+00 0. -1.
</event>
<event>
 4    1  0.1762646E+004  0.2858543E+02  0.7546771E-02  0.1432301E+00
         21   -1    0    0  501  502  0.00000000000E+00  0.00000000000E+00  0.29175846694E+01  0.29175846694E+01  0.00000000000E+00 0.  1.
         21   -1    0    0  502  503 -0.00000000000E+00 -0.00000000000E+00 -0.30678228072E+03  0.30678228072E+03  0.00000000000E+00 0. -1.
          2    1    1    2  501    0 -0.22562724594E+02 -0.17551367597E+02 -0.10623890776E+03  0.11001741938E+03  0.00000000000E+00 0. -1.
         -2    1    1    2    0  503  0.22562724594E+02  0.17551367597E+02 -0.19762578829E+03  0.19968244601E+03  0.00000000000E+00 0.  1.
</event>
<event>
 4    1  0.1762646E+004  0.3553335E+02  0.7546771E-02  0.1376852E+00
         21   -1    0    0  501  502  0.00000000000E+00  0.00000000000E+00  0.73897307629E+02  0.73897307629E+02  0.00000000000E+00 0. -1.
         21   -1    0    0  502  503 -0.00000000000E+00 -0.00000000000E+00 -0.17229084956E+02  0.17229084956E+02  0.00000000000E+00 0.  1.
          2    1    1    2  501    0 -0.30520816431E+02 -0.18196114363E+02  0.32484479435E+02  0.48144160785E+02  0.00000000000E+00 0.  1.
         -2    1    1    2    0  503  0.30520816431E+02  0.18196114363E+02  0.24183743239E+02  0.42982231801E+02  0.00000000000E+00 0. -1.
</event>
<event>
 4    1  0.1762646E+004  0.2063201E+02  0.7546771E-02  0.1524584E+00
         21   -1    0    0  501  502  0.00000000000E+00  0.00000000000E+00  0.13620053666E+03  0.13620053666E+03  0.00000000000E+00 0. -1.
         21   -1    0    0  502  503 -0.00000000000E+00 -0.00000000000E+00 -0.18323245768E+02  0.18323245768E+02  0.00000000000E+00 0.  1.
          2    1    1    2  501    0 -0.16799646221E+02 -0.11977127898E+02  0.12930341989E+03  0.13093912365E+03  0.00000000000E+00 0. -1.
         -2    1    1    2    0  503  0.16799646221E+02  0.11977127898E+02 -0.11426129000E+02  0.23584658780E+02  0.00000000000E+00 0.  1.
</event>
<event>
 4    1  0.1762646E+004  0.2026709E+02  0.7546771E-02  0.1529991E+00
         21   -1    0    0  503  502  0.00000000000E+00  0.00000000000E+00  0.10492602574E+02  0.10492602574E+02  0.00000000000E+00 0. -1.
         21   -1    0    0  501  503 -0.00000000000E+00 -0.00000000000E+00 -0.48932045534E+02  0.48932045534E+02  0.00000000000E+00 0.  1.
          2    1    1    2  501    0 -0.12716778610E+02 -0.15780948164E+02 -0.32506494697E+02  0.38307009550E+02  0.00000000000E+00 0.  1.
         -2    1    1    2    0  502  0.12716778610E+02  0.15780948164E+02 -0.59329482628E+01  0.21117638558E+02  0.00000000000E+00 0. -1.
</event>
<event>
 4    1  0.1762646E+004  0.2810751E+02  0.7546771E-02  0.1436789E+00
         21   -1    0    0  501  502  0.00000000000E+00  0.00000000000E+00  0.78450009596E+01  0.78450009596E+01  0.00000000000E+00 0. -1.
         21   -1    0    0  502  503 -0.00000000000E+00 -0.00000000000E+00 -0.25334107882E+03  0.25334107882E+03  0.00000000000E+00 0.  1.
          2    1    1    2  501    0  0.16054970824E+02  0.23070979725E+02 -0.21381276664E+02  0.35315594082E+02  0.00000000000E+00 0. -1.
         -2    1    1    2    0  503 -0.16054970824E+02 -0.23070979725E+02 -0.22411480119E+03  0.22587048569E+03  0.00000000000E+00 0.  1.
</event>
<event>
 4    1  0.1762646E+004  0.2398664E+02  0.7546771E-02  0.1480467E+00
         21   -1    0    0  503  502  0.00000000000E+00  0.00000000000E+00  0.13969628256E+01  0.13969628256E+01  0.00000000000E+00 0.  1.
         21   -1    0    0  501  503 -0.00000000000E+00 -0.00000000000E+00 -0.41301693262E+03  0.41301693262E+03  0.00000000000E+00 0. -1.
          2    1    1    2  501    0 -0.23851726439E+02 -0.25404880351E+01 -0.21675686786E+03  0.21808002820E+03  0.00000000000E+00 0.  1.
         -2    1    1    2    0  502  0.23851726439E+02  0.25404880351E+01 -0.19486310194E+03  0.19633386725E+03  0.00000000000E+00 0. -1.
</event>
<event>
 4    1  0.1762646E+004  0.2223932E+02  0.7546771E-02  0.1502278E+00
         21   -1    0    0  501  502  0.00000000000E+00  0.00000000000E+00  0.32281395300E+01  0.32281395300E+01  0.00000000000E+00 0. -1.
         21   -1    0    0  502  503 -0.00000000000E+00 -0.00000000000E+00 -0.15549520896E+03  0.15549520896E+03  0.00000000000E+00 0.  1.
          2    1    1    2  501    0  0.13912405536E+02  0.17350277545E+02 -0.85751880912E+02  0.88588781675E+02  0.00000000000E+00 0. -1.
         -2    1    1    2    0  503 -0.13912405536E+02 -0.17350277545E+02 -0.66515188513E+02  0.70134566810E+02  0.00000000000E+00 0.  1.
</event>
<event>
 4    1  0.1762646E+004  0.2053362E+02  0.7546771E-02  0.1526029E+00
         21   -1    0    0  503  502  0.00000000000E+00  0.00000000000E+00  0.62792354275E+01  0.62792354275E+01  0.00000000000E+00 0.  1.
         21   -1    0    0  501  503 -0.00000000000E+00 -0.00000000000E+00 -0.68485196394E+02  0.68485196394E+02  0.00000000000E+00 0. -1.
          2    1    1    2  501    0 -0.17616407294E+02 -0.10549480984E+02 -0.25876728558E+02  0.33033837740E+02  0.00000000000E+00 0.  1.
         -2    1    1    2    0  502  0.17616407294E+02  0.10549480984E+02 -0.36329232408E+02  0.41730594081E+02  0.00000000000E+00 0. -1.
</event>
<event>
 4    1  0.1762646E+004  0.2016016E+02  0.7546771E-02  0.1531601E+00
         21   -1    0    0  503  502  0.00000000000E+00  0.00000000000E+00  0.64404293943E+00  0.64404293943E+00  0.00000000000E+00 0.  1.
         21   -1    0    0  501  503 -0.00000000000E+00 -0.00000000000E+00 -0.10401098498E+04  0.10401098498E+04  0.00000000000E+00 0. -1.
          2    1    1    2  501    0  0.21036247324E+01 -0.20050111935E+02 -0.84606854697E+03  0.84630870160E+03  0.00000000000E+00 0. -1.
         -2    1    1    2    0  502 -0.21036247324E+01  0.20050111935E+02 -0.19339725994E+03  0.19444519119E+03  0.00000000000E+00 0.  1.
</event>
<event>
 4    1  0.1762646E+004  0.2523409E+02  0.7546771E-02  0.1466202E+00
         21   -1    0    0  501  502  0.00000000000E+00  0.00000000000E+00  0.14104088268E+02  0.14104088268E+02  0.00000000000E+00 0.  1.
         21   -1    0    0  502  503 -0.00000000000E+00 -0.00000000000E+00 -0.91032940507E+02  0.91032940507E+02  0.00000000000E+00 0. -1.
          2    1    1    2  501    0 -0.21969147778E+02  0.12414348899E+02 -0.11423765346E+01  0.25259939367E+02  0.00000000000E+00 0.  1.
         -2    1    1    2    0  503  0.21969147778E+02 -0.12414348899E+02 -0.75786475704E+02  0.79877089408E+02  0.00000000000E+00 0. -1.
</event>
<event>
 4    1  0.1762646E+004  0.2352800E+02  0.7546771E-02  0.1485972E+00
         21   -1    0    0  501  502  0.00000000000E+00  0.00000000000E+00  0.19375692010E+02  0.19375692010E+02  0.00000000000E+00 0.  1.
         21   -1    0    0  502  503 -0.00000000000E+00 -0.00000000000E+00 -0.46417209464E+02  0.46417209464E+02  0.00000000000E+00 0. -1.
          2    1    1    2  501    0  0.19617549422E+02 -0.12989175861E+02  0.68774741759E+01  0.24512580156E+02  0.00000000000E+00 0.  1.
         -2    1    1    2    0  503 -0.19617549422E+02  0.12989175861E+02 -0.33918991630E+02  0.41280321317E+02  0.00000000000E+00 0. -1.
</event>
<event>
 4    1  0.1762646E+004  0.2136109E+02  0.7546771E-02  0.1514171E+00
         21   -1    0    0  503  502  0.00000000000E+00  0.00000000000E+00  0.18870441899E+03  0.18870441899E+03  0.00000000000E+00 0.  1.
         21   -1    0    0  501  503 -0.00000000000E+00 -0.00000000000E+00 -0.24416575725E+01  0.24416575725E+01  0.00000000000E+00 0. -1.
          2    1    1    2  501    0  0.21262652449E+02  0.20483974719E+01  0.83733322610E+02  0.86415077600E+02  0.00000000000E+00 0.  1.
         -2    1    1    2    0  502 -0.21262652449E+02 -0.20483974719E+01  0.10252943880E+03  0.10473099896E+03  0.00000000000E+00 0. -1.
</event>
<event>
 4    1  0.1762646E+004  0.2446083E+02  0.7546771E-02  0.1474926E+00
         21   -1    0    0  503  502  0.00000000000E+00  0.00000000000E+00  0.36872018583E+01  0.36872018583E+01  0.00000000000E+00 0. -1.
         21   -1    0    0  501  503 -0.00000000000E+00 -0.00000000000E+00 -0.22173177270E+03  0.22173177270E+03  0.00000000000E+00 0.  1.
          2    1    1    2  501    0 -0.15288684908E+02  0.19094191979E+02 -0.16738771973E+03  0.16916554250E+03  0.00000000000E+00 0.  1.
         -2    1    1    2    0  502  0.15288684908E+02 -0.19094191979E+02 -0.50656851112E+02  0.56253432057E+02  0.00000000000E+00 0. -1.
</event>
<event>
 4    1  0.1762646E+004  0.3453771E+02  0.7546771E-02  0.1383843E+00
         21   -1    0    0  501  502  0.00000000000E+00  0.00000000000E+00  0.10010513037E+03  0.10010513037E+03  0.00000000000E+00 0.  1.
         21   -1    0    0  502  503 -0.00000000000E+00 -0.00000000000E+00 -0.12017509829E+02  0.12017509829E+02  0.00000000000E+00 0. -1.
          2    1    1    2  501    0 -0.20641655616E+02 -0.27690709571E+02  0.49196062250E+02  0.60109116481E+02  0.00000000000E+00 0.  1.
         -2    1    1    2    0  503  0.20641655616E+02  0.27690709571E+02  0.38891558287E+02  0.52013523714E+02  0.00000000000E+00 0. -1.
</event>
<event>
 4    1  0.1762646E+004  0.2371120E+02  0.7546771E-02  0.1483756E+00
         21   -1    0    0  503  502  0.00000000000E+00  0.00000000000E+00  0.16833231981E+01  0.16833231981E+01  0.00000000000E+00 0. -1.
         21   -1    0    0  501  503 -0.00000000000E+00 -0.00000000000E+00 -0.33400722216E+03  0.33400722216E+03  0.00000000000E+00 0.  1.
          2    1    1    2  501    0 -0.85182530278E+01  0.22128269613E+02 -0.16513239185E+03  0.16682604050E+03  0.00000000000E+00 0. -1.
         -2    1    1    2    0  502  0.85182530278E+01 -0.22128269613E+02 -0.16719150711E+03  0.16886450486E+03  0.00000000000E+00 0.  1.
</event>
<event>
 4    1  0.1762646E+004  0.2045850E+02  0.7546771E-02  0.1527138E+00
         21   -1    0    0  501  502  0.00000000000E+00  0.00000000000E+00  0.25501059682E+03  0.25501059682E+03  0.00000000000E+00 0. -1.
         21   -1    0    0  502  503 -0.00000000000E+00 -0.00000000000E+00 -0.36953224372E+01  0.36953224372E+01  0.00000000000E+00 0.  1.
          2    1    1    2  501    0  0.66523285214E+01 -0.19346746701E+02  0.22209654844E+03  0.22303682859E+03  0.00000000000E+00 0. -1.
         -2    1    1    2    0  503 -0.66523285214E+01  0.19346746701E+02  0.29218725945E+02  0.35669090660E+02  0.00000000000E+00 0.  1.
</event>
<event>
 4    1  0.1762646E+004  0.2021308E+02  0.7546771E-02  0.1530803E+00
         21   -1    0    0  501  502  0.00000000000E+00  0.00000000000E+00  0.30217210089E+02  0.30217210089E+02  0.00000000000E+00 0.  1.
         21   -1    0    0  502  503 -0.00000000000E+00 -0.00000000000E+00 -0.21374515668E+02  0.21374515668E+02  0.00000000000E+00 0. -1.
          2    1    1    2  501    0  0.76554123512E+01  0.18707308668E+02  0.20057585979E+02  0.28475875600E+02  0.00000000000E+00 0.  1.
         -2    1    1    2    0  503 -0.76554123512E+01 -0.18707308668E+02 -0.11214891558E+02  0.23115850158E+02  0.00000000000E+00 0. -1.
</event>
<event>
 4    1  0.1762646E+004  0.5004755E+02  0.7546771E-02  0.1297966E+00
         21   -1    0    0  501  502  0.00000000000E+00  0.00000000000E+00  0.49428928724E+02  0.49428928724E+02  0.00000000000E+00 0. -1.
         21   -1    0    0  502  503 -0.00000000000E+00 -0.00000000000E+00 -0.50674606942E+02  0.50674606942E+02  0.00000000000E+00 0.  1.
          2    1    1    2  501    0  0.38583257875E+02  0.31876159139E+02 -0.80785319941E+00  0.50054070130E+02  0.00000000000E+00 0. -1.
         -2    1    1    2    0  503 -0.38583257875E+02 -0.31876159139E+02 -0.43782501789E+00  0.50049465536E+02  0.00000000000E+00 0.  1.
</event>
<event>
 4    1  0.1762646E+004  0.2271056E+02  0.7546771E-02  0.1496165E+00
         21   -1    0    0  503  502  0.00000000000E+00  0.00000000000E+00  0.19075228909E+02  0.19075228909E+02  0.00000000000E+00 0.  1.
         21   -1    0    0  501  503 -0.00000000000E+00 -0.00000000000E+00 -0.57455593774E+03  0.57455593774E+03  0.00000000000E+00 0. -1.
          2    1    1    2  501    0 -0.69943429073E+01 -0.21606684629E+02 -0.56748767781E+03  0.56794192848E+03  0.00000000000E+00 0. -1.
         -2    1    1    2    0  502  0.69943429073E+01  0.21606684629E+02  0.12006968986E+02  0.25689238167E+02  0.00000000000E+00 0.  1.
</event>
<event>
 4    1  0.1762646E+004  0.2226257E+02  0.7546771E-02  0.1501972E+00
         21   -1    0    0  501  502  0.00000000000E+00  0.00000000000E+00  0.26334965006E+02  0.26334965006E+02  0.00000000000E+00 0.  1.
         21   -1    0    0  502  503 -0.00000000000E+00 -0.00000000000E+00 -0.19441442996E+02  0.19441442996E+02  0.00000000000E+00 0. -1.
          2    1    1    2  501    0  0.11311139824E+02 -0.19174990121E+02  0.75391176299E+01  0.23504476699E+02  0.00000000000E+00 0.  1.
         -2    1    1    2    0  503 -0.11311139824E+02  0.19174990121E+02 -0.64559561964E+00  0.22271931303E+02  0.00000000000E+00 0. -1.
</event>
<event>
 4    1  0.1762646E+004  0.2005760E+02  0.7546771E-02  0.1533157E+00
         21   -1    0    0  503  502  0.00000000000E+00  0.00000000000E+00  0.34136062651E+01  0.34136062651E+01  0.00000000000E+00 0. -1.
         21   -1    0    0  501  503 -0.00000000000E+00 -0.00000000000E+00 -0.35952203917E+03  0.35952203917E+03  0.00000000000E+00 0.  1.
          2    1    1    2  501    0 -0.31624639785E+01  0.19806715970E+02 -0.32683487354E+03  0.32744975452E+03  0.00000000000E+00 0.  1.
         -2    1    1    2    0  502  0.31624639785E+01 -0.19806715970E+02 -0.29273559372E+02  0.35485890918E+02  0.00000000000E+00 0. -1.
</event>
<event>
 4    1  0.1762646E+004  0.2046348E+02  0.7546771E-02  0.1527065E+00
         21   -1    0    0  501  502  0.00000000000E+00  0.00000000000E+00  0.39993872820E+02  0.39993872820E+02  0.00000000000E+00 0.  1.
         21   -1    0    0  502  503 -0.00000000000E+00 -0.00000000000E+00 -0.20456172903E+02  0.20456172903E+02  0.00000000000E+00 0. -1.
          2    1    1    2  501    0 -0.17445079878E+02 -0.10696881294E+02  0.30886426267E+02  0.37050309161E+02  0.00000000000E+00 0.  1.
         -2    1    1    2    0  503  0.17445079878E+02  0.10696881294E+02 -0.11348726350E+02  0.23399736562E+02  0.00000000000E+00 0. -1.
</event>
<event>
 4    1  0.1762646E+004  0.2364091E+02  0.7546771E-02  0.1484603E+00
         21   -1    0    0  501  502  0.00000000000E+00  0.00000000000E+00  0.12319071416E+02  0.12319071416E+02  0.00000000000E+00 0. -1.
         21   -1    0    0  502  503 -0.00000000000E+00 -0.00000000000E+00 -0.86170808549E+02  0.86170808549E+02  0.00000000000E+00 0.  1.
          2    1    1    2  501    0 -0.23040126525E+02  0.52957611742E+01 -0.70812326468E+02  0.74654391007E+02  0.00000000000E+00 0.  1.
         -2    1    1    2    0  503  0.23040126525E+02 -0.52957611742E+01 -0.30394106650E+01  0.23835488959E+02  0.00000000000E+00 0. -1.
</event>
<event>
 4    1  0.1762646E+004  0.2549191E+02  0.7546771E-02  0.1463375E+00
         21   -1    0    0  503  502  0.00000000000E+00  0.00000000000E+00  0.15379852239E+01  0.15379852239E+01  0.00000000000E+00 0.  1.
         21   -1    0    0  501  503 -0.00000000000E+00 -0.00000000000E+00 -0.43454415905E+03  0.43454415905E+03  0.00000000000E+00 0. -1.
          2    1    1    2  501    0  0.16985018750E+02  0.19009120440E+02 -0.18024084176E+03  0.18203460813E+03  0.00000000000E+00 0.  1.
         -2    1    1    2    0  502 -0.16985018750E+02 -0.19009120440E+02 -0.25276533207E+03  0.25404753614E+03  0.00000000000E+00 0. -1.
</event>
<event>
 4    1  0.1762646E+004  0.2303727E+02  0.7546771E-02  0.1492031E+00
         21   -1    0    0  503  502  0.00000000000E+00  0.00000000000E+00  0.11457790493E+03  0.11457790493E+03  0.00000000000E+00 0.  1.
         21   -1    0    0  501  503 -0.00000000000E+00 -0.00000000000E+00 -0.63256131362E+01  0.63256131362E+01  0.00000000000E+00 0. -1.
          2    1    1    2  501    0  0.15669704134E+02  0.16887158094E+02  0.22845555591E+02  0.32444339204E+02  0.00000000000E+00 0. -1.
         -2    1    1    2    0  502 -0.15669704134E+02 -0.16887158094E+02  0.85406736199E+02  0.88459178858E+02  0.00000000000E+00 0.  1.
</event>
<event>
 4    1  0.1762646E+004  0.2331139E+02  0.7546771E-02  0.1488625E+00
         21   -1    0    0  501  502  0.00000000000E+00  0.00000000000E+00  0.66052493967E+02  0.66052493967E+02  0.00000000000E+00 0. -1.
         21   -1    0    0  502  503 -0.00000000000E+00 -0.00000000000E+00 -0.11921467243E+02  0.11921467243E+02  0.00000000000E+00 0.  1.
          2    1    1    2  501    0 -0.12742782461E+02  0.19520310961E+02  0.48768738261E+02  0.54053777633E+02  0.00000000000E+00 0. -1.
         -2    1    1    2    0  503  0.12742782461E+02 -0.19520310961E+02  0.53622884630E+01  0.23920183578E+02  0.00000000000E+00 0.  1.
</event>
<event>
 4    1  0.1762646E+004  0.2594988E+02  0.7546771E-02  0.1458452E+00
         21   -1    0    0  503  502  0.00000000000E+00  0.00000000000E+00  0.44304103595E+01  0.44304103595E+01  0.00000000000E+00 0.  1.
         21   -1    0    0  501  503 -0.00000000000E+00 -0.00000000000E+00 -0.15318916659E+03  0.15318916659E+03  0.00000000000E+00 0. -1.
          2    1    1    2  501    0 -0.20828214388E+02 -0.15478430346E+02 -0.81340170598E+02  0.85379269577E+02  0.00000000000E+00 0. -1.
         -2    1    1    2    0  502  0.20828214388E+02  0.15478430346E+02 -0.67418585633E+02  0.72240307373E+02  0.00000000000E+00 0.  1.
</event>
<event>
 4    1  0.1762646E+004  0.2129495E+02  0.7546771E-02  0.1515095E+00
         21   -1    0    0  503  502  0.00000000000E+00  0.00000000000E+00  0.25445107320E+03  0.25445107320E+03  0.00000000000E+00 0. -1.
         21   -1    0    0  501  503 -0.00000000000E+00 -0.00000000000E+00 -0.65981701697E+01  0.65981701697E+01  0.00000000000E+00 0.  1.
          2    1    1    2  501    0 -0.20590782559E+02 -0.54309023833E+01  0.12413851642E+02  0.24649112351E+02  0.00000000000E+00 0.  1.
         -2    1    1    2    0  502  0.20590782559E+02  0.54309023833E+01  0.23543905139E+03  0.23640013102E+03  0.00000000000E+00 0. -1.
</event>
<event>
 4    1  0.1762646E+004  0.2789932E+02  0.7546771E-02  0.1438778E+00
         21   -1    0    0  503  502  0.00000000000E+00  0.00000000000E+00  0.68075174650E+02  0.68075174650E+02  0.00000000000E+00 0. -1.
         21   -1    0    0  501  503 -0.00000000000E+00 -0.00000000000E+00 -0.13087392824E+02  0.13087392824E+02  0.00000000000E+00 0.  1.
          2    1    1    2  501    0 -0.25767115014E+02 -0.10697100520E+02  0.13069880631E+02  0.30808991470E+02  0.00000000000E+00 0.  1.
         -2    1    1    2    0  502  0.25767115014E+02  0.10697100520E+02  0.41917901195E+02  0.50353576003E+02  0.00000000000E+00 0. -1.
</event>
<event>
 4    1  0.1762646E+004  0.2988720E+02  0.7546771E-02  0.1420579E+00
         21   -1    0    0  501  502  0.00000000000E+00  0.00000000000E+00  0.76576566393E+02  0.76576566393E+02  0.00000000000E+00 0. -1.
         21   -1    0    0  502  503 -0.00000000000E+00 -0.00000000000E+00 -0.38760049406E+02  0.38760049406E+02  0.00000000000E+00 0.  1.
          2    1    1    2  501    0  0.19601096130E+02 -0.22561956300E+02  0.67124371753E+02  0.73477385125E+02  0.00000000000E+00 0. -1.
         -2    1    1    2    0  503 -0.19601096130E+02  0.22561956300E+02 -0.29307854766E+02  0.41859230673E+02  0.00000000000E+00 0.  1.
</event>
<event>
 4    1  0.1762646E+004  0.2713893E+02  0.7546771E-02  0.1446218E+00
         21   -1    0    0  501  502  0.00000000000E+00  0.00000000000E+00  0.39251812455E+02  0.39251812455E+02  0.00000000000E+00 0.  1.
         21   -1    0    0  502  503 -0.00000000000E+00 -0.00000000000E+00 -0.38629429572E+02  0.38629429572E+02  0.00000000000E+00 0. -1.
          2    1    1    2  501    0 -0.23131445613E+02 -0.14193574961E+02  0.28236154809E+02  0.39163781543E+02  0.00000000000E+00 0.  1.
         -2    1    1    2    0  503  0.23131445613E+02  0.14193574961E+02 -0.27613771927E+02  0.38717460484E+02  0.00000000000E+00 0. -1.
</event>
<event>
 4    1  0.1762646E+004  0.2456932E+02  0.7546771E-02  0.1473679E+00
         21   -1    0    0  501  502  0.00000000000E+00  0.00000000000E+00  0.94967926635E+02  0.94967926635E+02  0.00000000000E+00 0. -1.
         21   -1    0    0  502  503 -0.00000000000E+00 -0.00000000000E+00 -0.91150127890E+01  0.91150127890E+01  0.00000000000E+00 0.  1.
          2    1    1    2  501    0  0.17797689839E+02 -0.16937936546E+02  0.71556269060E+02  0.75656798107E+02  0.00000000000E+00 0. -1.
         -2    1    1    2    0  503 -0.17797689839E+02  0.16937936546E+02  0.14296644786E+02  0.28426141317E+02  0.00000000000E+00 0.  1.
</event>
<event>
 4    1  0.1762646E+004  0.2396778E+02  0.7546771E-02  0.1480691E+00
         21   -1    0    0  501  502  0.00000000000E+00  0.00000000000E+00  0.10463223731E+03  0.10463223731E+03  0.00000000000E+00 0. -1.
         21   -1    0    0  502  503 -0.00000000000E+00 -0.00000000000E+00 -0.64130932113E+01  0.64130932113E+01  0.00000000000E+00 0.  1.
          2    1    1    2  501    0 -0.18841702882E+02  0.14813661655E+02  0.70171920372E+02  0.74152226857E+02  0.00000000000E+00 0.  1.
         -2    1    1    2    0  503  0.18841702882E+02 -0.14813661655E+02  0.28047223722E+02  0.36893103660E+02  0.00000000000E+00 0. -1.
</event>
<event>
 4    1  0.1762646E+004  0.2765010E+02  0.7546771E-02  0.1441185E+00
         21   -1    0    0  501  502  0.00000000000E+00  0.00000000000E+00  0.21253659716E+03  0.21253659716E+03  0.00000000000E+00 0.  1.
         21   -1    0    0  502  503 -0.00000000000E+00 -0.00000000000E+00 -0.78825919992E+01  0.78825919992E+01  0.00000000000E+00 0. -1.
          2    1    1    2  501    0  0.16549342601E+02 -0.22150562654E+02  0.18358800584E+03  0.18565851463E+03  0.00000000000E+00 0.  1.
         -2    1    1    2    0  503 -0.16549342601E+02  0.22150562654E+02  0.21065999325E+02  0.34760674533E+02  0.00000000000E+00 0. -1.
</event>
<event>
 4    1  0.1762646E+004  0.2587944E+02  0.7546771E-02  0.1459201E+00
         21   -1    0    0  501  502  0.00000000000E+00  0.00000000000E+00  0.46868994531E+02  0.46868994531E+02  0.00000000000E+00 0.  1.
         21   -1    0    0  502  503 -0.00000000000E+00 -0.00000000000E+00 -0.20848258324E+02  0.20848258324E+02  0.00000000000E+00 0. -1.
          2    1    1    2  501    0  0.10070302526E+02  0.23839761442E+02  0.32000924388E+02  0.41155854751E+02  0.00000000000E+00 0.  1.
         -2    1    1    2    0  503 -0.10070302526E+02 -0.23839761442E+02 -0.59801881819E+01  0.26561398104E+02  0.00000000000E+00 0. -1.
</event>
<event>
 4    1  0.1762646E+004  0.2511998E+02  0.7546771E-02  0.1467466E+00
         21   -1    0    0  501  502  0.00000000000E+00  0.00000000000E+00  0.37656883005E+03  0.37656883005E+03  0.00000000000E+00 0. -1.
         21   -1    0    0  502  503 -0.00000000000E+00 -0.00000000000E+00 -0.55295985183E+01  0.55295985183E+01  0.00000000000E+00 0.  1.
          2    1    1    2  501    0 -0.23705629698E+02 -0.83100179928E+01  0.34501534497E+03  0.34592860758E+03  0.00000000000E+00 0. -1.
         -2    1    1    2    0  503  0.23705629698E+02  0.83100179928E+01  0.26023886560E+02  0.36169820986E+02  0.00000000000E+00 0.  1.
</event>
<event>
 4    1  0.1762646E+004  0.2928290E+02  0.7546771E-02  0.1425932E+00
         21   -1    0    0  501  502  0.00000000000E+00  0.00000000000E+00  0.17221597862E+03  0.17221597862E+03  0.00000000000E+00 0. -1.
         21   -1    0    0  502  503 -0.00000000000E+00 -0.00000000000E+00 -0.80066057267E+01  0.80066057267E+01  0.00000000000E+00 0.  1.
          2    1    1    2  501    0 -0.26183184715E+02 -0.13112174337E+02  0.13751546807E+03  0.14059869215E+03  0.00000000000E+00 0. -1.
         -2    1    1    2    0  503  0.26183184715E+02  0.13112174337E+02  0.26693904829E+02  0.39623892195E+02  0.00000000000E+00 0.  1.
</event>
<event>
 4    1  0.1762646E+004  0.2238946E+02  0.7546771E-02  0.1500310E+00
         21   -1    0    0  503  502  0.00000000000E+00  0.00000000000E+00  0.10939984648E+04  0.10939984648E+04  0.00000000000E+00 0.  1.
         21   -1    0    0  501  503 -0.00000000000E+00 -0.00000000000E+00 -0.46194168050E+00  0.46194168050E+00  0.00000000000E+00 0. -1.
          2    1    1    2  501    0 -0.21370495457E+02 -0.66775725594E+01  0.59591053781E+03  0.59633099628E+03  0.00000000000E+00 0.  1.
         -2    1    1    2    0  502  0.21370495457E+02  0.66775725594E+01  0.49762598529E+03  0.49812941019E+03  0.00000000000E+00 0. -1.
</event>
<event>
 4    1  0.1762646E+004  0.3945454E+02  0.7546771E-02  0.1351712E+00
         21   -1    0    0  501  502  0.00000000000E+00  0.00000000000E+00  0.29454733076E+04  0.29454733076E+04  0.00000000000E+00 0. -1.
         21   -1    0    0  502  503 -0.00000000000E+00 -0.00000000000E+00 -0.58458940806E+00  0.58458940806E+00  0.00000000000E+00 0.  1.
          2    1    1    2  501    0  0.23274483799E+02 -0.31858424484E+02  0.19287490551E+04  0.19291525545E+04  0.00000000000E+00 0. -1.
         -2    1    1    2    0  503 -0.23274483799E+02  0.31858424484E+02  0.10161396631E+04  0.10169053425E+04  0.00000000000E+00 0.  1.
</event>
<event>
 4    1  0.1762646E+004  0.2432493E+02  0.7546771E-02  0.1476499E+00
         21   -1    0    0  501  502  0.00000000000E+00  0.00000000000E+00  0.15536485174E+02  0.15536485174E+02  0.00000000000E+00 0.  1.
         21   -1    0    0  502  503 -0.00000000000E+00 -0.00000000000E+00 -0.38220460986E+02  0.38220460986E+02  0.00000000000E+00 0. -1.
          2    1    1    2  501    0 -0.19443567183E+02  0.14616765622E+02 -0.12944009264E+02  0.27554482718E+02  0.00000000000E+00 0.  1.
         -2    1    1    2    0  503  0.19443567183E+02 -0.14616765622E+02 -0.97399665474E+01  0.26202463441E+02  0.00000000000E+00 0. -1.
</event>
<event>
 4    1  0.1762646E+004  0.2865642E+02  0.7546771E-02  0.1431643E+00
         21   -1    0    0  503  502  0.00000000000E+00  0.00000000000E+00  0.24676827145E+03  0.24676827145E+03  0.00000000000E+00 0. -1.
         21   -1    0    0  501  503 -0.00000000000E+00 -0.00000000000E+00 -0.37979406702E+01  0.37979406702E+01  0.00000000000E+00 0.  1.
          2    1    1    2  501    0 -0.13327104935E+02  0.25368856347E+02  0.77405181947E+02  0.82539401443E+02  0.00000000000E+00 0.  1.
         -2    1    1    2    0  502  0.13327104935E+02 -0.25368856347E+02  0.16556514883E+03  0.16802681068E+03  0.00000000000E+00 0. -1.
</event>
<event>
 4    1  0.1762646E+004  0.2070786E+02  0.7546771E-02  0.1523477E+00
         21   -1    0    0  503  502  0.00000000000E+00  0.00000000000E+00  0.57609257368E+03  0.57609257368E+03  0.00000000000E+00 0. -1.
         21   -1    0    0  501  503 -0.00000000000E+00 -0.00000000000E+00 -0.74505772220E+00  0.74505772220E+00  0.00000000000E+00 0.  1.
          2    1    1    2  501    0 -0.18403116389E+02  0.94942452498E+01  0.27879419379E+03  0.27956218964E+03  0.00000000000E+00 0. -1.
         -2    1    1    2    0  502  0.18403116389E+02 -0.94942452498E+01  0.29655332217E+03  0.29727544176E+03  0.00000000000E+00 0.  1.
</event>
<event>
 4    1  0.1762646E+004  0.2066593E+02  0.7546771E-02  0.1524088E+00
         21   -1    0    0  501  502  0.00000000000E+00  0.00000000000E+00  0.79941941702E+03  0.79941941702E+03  0.00000000000E+00 0.  1.
         21   -1    0    0  502  503 -0.00000000000E+00 -0.00000000000E+00 -0.54234976151E+00  0.54234976151E+00  0.00000000000E+00 0. -1.
          2    1    1    2  501    0  0.66269089469E+01  0.19574599524E+02  0.35052424710E+03  0.35113292166E+03  0.00000000000E+00 0. -1.
         -2    1    1    2    0  503 -0.66269089469E+01 -0.19574599524E+02  0.44835282016E+03  0.44882884512E+03  0.00000000000E+00 0.  1.
</event>
<event>
 4    1  0.1762646E+004  0.2089688E+02  0.7546771E-02  0.1520742E+00
         21   -1    0    0  503  502  0.00000000000E+00  0.00000000000E+00  0.66614655826E+01  0.66614655826E+01  0.00000000000E+00 0. -1.
         21   -1    0    0  501  503 -0.00000000000E+00 -0.00000000000E+00 -0.65782841144E+02  0.65782841144E+02  0.00000000000E+00 0.  1.
          2    1    1    2  501    0  0.20549943384E+02 -0.37919987549E+01 -0.31701500851E+02  0.37969258405E+02  0.00000000000E+00 0.  1.
         -2    1    1    2    0  502 -0.20549943384E+02  0.37919987549E+01 -0.27419874711E+02  0.34475048322E+02  0.00000000000E+00 0. -1.
</event>
<event>
 4    1  0.1762646E+004  0.2043982E+02  0.7546771E-02  0.1527415E+00
         21   -1    0    0  503  502  0.00000000000E+00  0.00000000000E+00  0.24114417800E+01  0.24114417800E+01  0.00000000000E+00 0. -1.
         21   -1    0    0  501  503 -0.00000000000E+00 -0.00000000000E+00 -0.19665246928E+03  0.19665246928E+03  0.00000000000E+00 0.  1.
          2    1    1    2  501    0 -0.18684017396E+02  0.82881573280E+01 -0.13145489077E+03  0.13303448562E+03  0.00000000000E+00 0. -1.
         -2    1    1    2    0  502  0.18684017396E+02 -0.82881573280E+01 -0.62786136737E+02  0.66029425443E+02  0.00000000000E+00 0.  1.
</event>
<event>
 4    1  0.1762646E+004  0.3068347E+02  0.7546771E-02  0.1413748E+00
         21   -1    0    0  501  502  0.00000000000E+00  0.00000000000E+00  0.74273537649E+01  0.74273537649E+01  0.00000000000E+00 0.  1.
         21   -1    0    0  502  503 -0.00000000000E+00 -0.00000000000E+00 -0.23223605988E+03  0.23223605988E+03  0.00000000000E+00 0. -1.
          2    1    1    2  501    0  0.25149044072E+02  0.17578423784E+02 -0.31645844184E+02  0.44078734720E+02  0.00000000000E+00 0.  1.
         -2    1    1    2    0  503 -0.25149044072E+02 -0.17578423784E+02 -0.19316286194E+03  0.19558467893E+03  0.00000000000E+00 0. -1.
</event>
<event>
 4    1  0.1762646E+004  0.2015887E+02  0.7546771E-02  0.1531621E+00
         21   -1    0    0  501  502  0.00000000000E+00  0.00000000000E+00  0.27455962039E+02  0.27455962039E+02  0.00000000000E+00 0. -1.
         21   -1    0    0  502  503 -0.00000000000E+00 -0.00000000000E+00 -0.32333831873E+02  0.32333831873E+02  0.00000000000E+00 0.  1.
          2    1    1    2  501    0  0.14771738984E+02 -0.13717721652E+02  0.19574737147E+02  0.28098941160E+02  0.00000000000E+00 0. -1.
         -2    1    1    2    0  503 -0.14771738984E+02  0.13717721652E+02 -0.24452606981E+02  0.31690852752E+02  0.00000000000E+00 0.  1.
</event>
<event>
 4    1  0.1762646E+004  0.2244710E+02  0.7546771E-02  0.1499560E+00
         21   -1    0    0  503  502  0.00000000000E+00  0.00000000000E+00  0.89785337903E+02  0.89785337903E+02  0.00000000000E+00 0.  1.
         21   -1    0    0  501  503 -0.00000000000E+00 -0.00000000000E+00 -0.92661483805E+01  0.92661483805E+01  0.00000000000E+00 0. -1.
          2    1    1    2  501    0 -0.22443034428E+02  0.42724856240E+00  0.91584454905E+01  0.24243544697E+02  0.00000000000E+00 0. -1.
         -2    1    1    2    0  502  0.22443034428E+02 -0.42724856240E+00  0.71360744032E+02  0.74807941587E+02  0.00000000000E+00 0.  1.
</event>
<event>
 4    1  0.1762646E+004  0.2057717E+02  0.7546771E-02  0.1525388E+00
         21   -1    0    0  501  502  0.00000000000E+00  0.00000000000E+00  0.12669928290E+03  0.12669928290E+03  0.00000000000E+00 0.  1.
         21   -1    0    0  502  503 -0.00000000000E+00 -0.00000000000E+00 -0.47552625455E+01  0.47552625455E+01  0.00000000000E+00 0. -1.
          2    1    1    2  501    0  0.20395440100E+02  0.27286972217E+01  0.25139190044E+02  0.32486899536E+02  0.00000000000E+00 0. -1.
         -2    1    1    2    0  503 -0.20395440100E+02 -0.27286972217E+01  0.96804830315E+02  0.98967645914E+02  0.00000000000E+00 0.  1.
</event>
<event>
 4    1  0.1762646E+004  0.2582348E+02  0.7546771E-02  0.1459798E+00
         21   -1    0    0  503  502  0.00000000000E+00  0.00000000000E+00  0.38583347913E+03  0.38583347913E+03  0.00000000000E+00 0.  1.
         21   -1    0    0  501  503 -0.00000000000E+00 -0.00000000000E+00 -0.17338746127E+01  0.17338746127E+01  0.00000000000E+00 0. -1.
          2    1    1    2  501    0  0.25493440106E+02 -0.41153930275E+01  0.18110268416E+03  0.18293450784E+03  0.00000000000E+00 0. -1.
         -2    1    1    2    0  502 -0.25493440106E+02  0.41153930275E+01  0.20299692036E+03  0.20463284590E+03  0.00000000000E+00 0.  1.
</event>
<event>
 4    1  0.1762646E+004  0.2117335E+02  0.7546771E-02  0.1516804E+00
         21   -1    0    0  503  502  0.00000000000E+00  0.00000000000E+00  0.38076332684E+03  0.38076332684E+03  0.00000000000E+00 0.  1.
         21   -1    0    0  501  503 -0.00000000000E+00 -0.00000000000E+00 -0.14880851350E+01  0.14880851350E+01  0.00000000000E+00 0. -1.
          2    1    1    2  501    0 -0.18802816483E+02 -0.97347212234E+01  0.10230720727E+03  0.10447523805E+03  0.00000000000E+00 0. -1.
         -2    1    1    2    0  502  0.18802816483E+02  0.97347212234E+01  0.27696803443E+03  0.27777617393E+03  0.00000000000E+00 0.  1.
</event>
<event>
 4    1  0.1762646E+004  0.3888784E+02  0.7546771E-02  0.1355129E+00
         21   -1    0    0  501  502  0.00000000000E+00  0.00000000000E+00  0.26173399157E+02  0.26173399157E+02  0.00000000000E+00 0.  1.
         21   -1    0    0  502  503 -0.00000000000E+00 -0.00000000000E+00 -0.72907058575E+02  0.72907058575E+02  0.00000000000E+00 0. -1.
          2    1    1    2  501    0  0.22221731141E+02 -0.31913301703E+02 -0.80005084516E+00  0.38896069748E+02  0.00000000000E+00 0.  1.
         -2    1    1    2    0  503 -0.22221731141E+02  0.31913301703E+02 -0.45933608573E+02  0.60184387984E+02  0.00000000000E+00 0. -1.
</event>
<event>
 4    1  0.1762646E+004  0.3464156E+02  0.7546771E-02  0.1383101E+00
         21   -1    0    0  503  502  0.00000000000E+00  0.00000000000E+00  0.25357610800E+02  0.25357610800E+02  0.00000000000E+00 0. -1.
         21   -1    0    0  501  503 -0.00000000000E+00 -0.00000000000E+00 -0.13498349251E+03  0.13498349251E+03  0.00000000000E+00 0.  1.
          2    1    1    2  501    0 -0.16837615601E+02  0.30274284165E+02 -0.11941891054E+03  0.12434192284E+03  0.00000000000E+00 0.  1.
         -2    1    1    2    0  502  0.16837615601E+02 -0.30274284165E+02  0.97930288310E+01  0.35999180470E+02  0.00000000000E+00 0. -1.
</event>
<event>
 4    1  0.1762646E+004  0.7177855E+02  0.7546771E-02  0.1224339E+00
         21   -1    0    0  503  502  0.00000000000E+00  0.00000000000E+00  0.84215191568E+03  0.84215191568E+03  0.00000000000E+00 0. -1.
         21   -1    0    0  501  503 -0.00000000000E+00 -0.00000000000E+00 -0.83186478057E+02  0.83186478057E+02  0.00000000000E+00 0.  1.
          2    1    1    2  501    0 -0.57960506698E+02 -0.42340755101E+02 -0.65848384843E+02  0.97407236207E+02  0.00000000000E+00 0.  1.
         -2    1    1    2    0  502  0.57960506698E+02  0.42340755101E+02  0.82481382247E+03  0.82793115753E+03  0.00000000000E+00 0. -1.
</event>
<event>
 4    1  0.1762646E+004  0.2178784E+02  0.7546771E-02  0.1508307E+00
         21   -1    0    0  501  502  0.00000000000E+00  0.00000000000E+00  0.11678976166E+02  0.11678976166E+02  0.00000000000E+00 0.  1.
         21   -1    0    0  502  503 -0.00000000000E+00 -0.00000000000E+00 -0.59638632337E+02  0.59638632337E+02  0.00000000000E+00 0. -1.
          2    1    1    2  501    0 -0.19340576509E+02  0.10032553604E+02 -0.44102668654E+02  0.49191009483E+02  0.00000000000E+00 0.  1.
         -2    1    1    2    0  503  0.19340576509E+02 -0.10032553604E+02 -0.38569875167E+01  0.22126599021E+02  0.00000000000E+00 0. -1.
</event>
<event>
 4    1  0.1762646E+004  0.3517535E+02  0.7546771E-02  0.1379335E+00
         21   -1    0    0  503  502  0.00000000000E+00  0.00000000000E+00  0.10588446590E+04  0.10588446590E+04  0.00000000000E+00 0.  1.
         21   -1    0    0  501  503 -0.00000000000E+00 -0.00000000000E+00 -0.44174903348E+01  0.44174903348E+01  0.00000000000E+00 0. -1.
          2    1    1    2  501    0 -0.25697543865E+02  0.24019604511E+02  0.71288053684E+02  0.79493973103E+02  0.00000000000E+00 0. -1.
         -2    1    1    2    0  502  0.25697543865E+02 -0.24019604511E+02  0.98313911495E+03  0.98376817620E+03  0.00000000000E+00 0.  1.
</event>
<event>
 4    1  0.1762646E+004  0.3378573E+02  0.7546771E-02  0.1389307E+00
         21   -1    0    0  503  502  0.00000000000E+00  0.00000000000E+00  0.16705162351E+02  0.16705162351E+02  0.00000000000E+00 0.  1.
         21   -1    0    0  501  503 -0.00000000000E+00 -0.00000000000E+00 -0.15630278909E+03  0.15630278909E+03  0.00000000000E+00 0. -1.
          2    1    1    2  501    0 -0.58594910019E+01  0.33273737722E+02 -0.13469589742E+03  0.13886849909E+03  0.00000000000E+00 0. -1.
         -2    1    1    2    0  502  0.58594910019E+01 -0.33273737722E+02 -0.49017293198E+01  0.34139452355E+02  0.00000000000E+00 0.  1.
</event>
<event>
 4    1  0.1762646E+004  0.3300043E+02  0.7546771E-02  0.1395193E+00
         21   -1    0    0  501  502  0.00000000000E+00  0.00000000000E+00  0.10027364367E+03  0.10027364367E+03  0.00000000000E+00 0.  1.
         21   -1    0    0  502  503 -0.00000000000E+00 -0.00000000000E+00 -0.11168356266E+02  0.11168356266E+02  0.00000000000E+00 0. -1.
          2    1    1    2  501    0  0.58414575938E+01 -0.32479311706E+02  0.53802887629E+02  0.63117184926E+02  0.00000000000E+00 0.  1.
         -2    1    1    2    0  503 -0.58414575938E+01  0.32479311706E+02  0.35302399772E+02  0.48324815006E+02  0.00000000000E+00 0. -1.
</event>
<event>
 4    1  0.1762646E+004  0.3663159E+02  0.7546771E-02  0.1369442E+00
         21   -1    0    0  501  502  0.00000000000E+00  0.00000000000E+00  0.36521403474E+01  0.36521403474E+01  0.00000000000E+00 0.  1.
         21   -1    0    0  502  503 -0.00000000000E+00 -0.00000000000E+00 -0.40642900546E+03  0.40642900546E+03  0.00000000000E+00 0. -1.
          2    1    1    2  501    0 -0.30194384770E+02  0.20740598712E+02 -0.26491040189E+03  0.26743110203E+03  0.00000000000E+00 0. -1.
         -2    1    1    2    0  503  0.30194384770E+02 -0.20740598712E+02 -0.13786646323E+03  0.14265004378E+03  0.00000000000E+00 0.  1.
</event>
<event>
 4    1  0.1762646E+004  0.2001754E+02  0.7546771E-02  0.1533768E+00
         21   -1    0    0  501  502  0.00000000000E+00  0.00000000000E+00  0.26800828332E+02  0.26800828332E+02  0.00000000000E+00 0.  1.
         21   -1    0    0  502  503 -0.00000000000E+00 -0.00000000000E+00 -0.14953382887E+02  0.14953382887E+02  0.00000000000E+00 0. -1.
          2    1    1    2  501    0  0.70568905393E+01 -0.18732380793E+02  0.61818249946E+01  0.20950340201E+02  0.00000000000E+00 0. -1.
         -2    1    1    2    0  503 -0.70568905393E+01  0.18732380793E+02  0.56656204498E+01  0.20803871018E+02  0.00000000000E+00 0.  1.
</event>
<event>
 4    1  0.1762646E+004  0.2295688E+02  0.7546771E-02  0.1493040E+00
         21   -1    0    0  501  502  0.00000000000E+00  0.00000000000E+00  0.11835888758E+02  0.11835888758E+02  0.00000000000E+00 0.  1.
         21   -1    0    0  502  503 -0.00000000000E+00 -0.00000000000E+00 -0.84375429275E+02  0.84375429275E+02  0.00000000000E+00 0. -1.
          2    1    1    2  501    0 -0.19420511953E+02 -0.12241815677E+02 -0.32105212209E+01  0.23180288655E+02  0.00000000000E+00 0.  1.
         -2    1    1    2    0  503  0.19420511953E+02  0.12241815677E+02 -0.69329019296E+02  0.73031029379E+02  0.00000000000E+00 0. -1.
</event>
<event>
 4    1  0.1762646E+004  0.3506954E+02  0.7546771E-02  0.1380075E+00
         21   -1    0    0  503  502  0.00000000000E+00  0.00000000000E+00  0.10704358452E+03  0.10704358452E+03  0.00000000000E+00 0.  1.
         21   -1    0    0  501  503 -0.00000000000E+00 -0.00000000000E+00 -0.21454707783E+02  0.21454707783E+02  0.00000000000E+00 0. -1.
          2    1    1    2  501    0 -0.34496886799E+02  0.63116932827E+01 -0.99306390657E+00  0.35083597974E+02  0.00000000000E+00 0. -1.
         -2    1    1    2    0  502  0.34496886799E+02 -0.63116932827E+01  0.86581940640E+02  0.93414694325E+02  0.00000000000E+00 0.  1.
</event>
<event>
 4    1  0.1762646E+004  0.2911534E+02  0.7546771E-02  0.1427443E+00
         21   -1    0    0  503  502  0.00000000000E+00  0.00000000000E+00  0.26242833533E+02  0.26242833533E+02  0.00000000000E+00 0.  1.
         21   -1    0    0  501  503 -0.00000000000E+00 -0.00000000000E+00 -0.54251542593E+02  0.54251542593E+02  0.00000000000E+00 0. -1.
          2    1    1    2  501    0  0.17930194259E+01 -0.29060078975E+02 -0.39604330520E+02  0.49154919435E+02  0.00000000000E+00 0. -1.
         -2    1    1    2    0  502 -0.17930194259E+01  0.29060078975E+02  0.11595621459E+02  0.31339456692E+02  0.00000000000E+00 0.  1.
</event>
<event>
 4    1  0.1762646E+004  0.2145229E+02  0.7546771E-02  0.1512904E+00
         21   -1    0    0  501  502  0.00000000000E+00  0.00000000000E+00  0.77678349473E+03  0.77678349473E+03  0.00000000000E+00 0. -1.
         21   -1    0    0  502  503 -0.00000000000E+00 -0.00000000000E+00 -0.92138667965E+00  0.92138667965E+00  0.00000000000E+00 0.  1.
          2    1    1    2  501    0 -0.13302926390E+02  0.16829521117E+02  0.62027109055E+03  0.62064194702E+03  0.00000000000E+00 0. -1.
         -2    1    1    2    0  503  0.13302926390E+02 -0.16829521117E+02  0.15559101750E+03  0.15706293439E+03  0.00000000000E+00 0.  1.
</event>
<event>
 4    1  0.1762646E+004  0.2192281E+02  0.7546771E-02  0.1506486E+00
         21   -1    0    0  503  502  0.00000000000E+00  0.00000000000E+00  0.11457727496E+02  0.11457727496E+02  0.00000000000E+00 0. -1.
         21   -1    0    0  501  503 -0.00000000000E+00 -0.00000000000E+00 -0.45450870451E+02  0.45450870451E+02  0.00000000000E+00 0.  1.
          2    1    1    2  501    0  0.13107261077E+02 -0.17572972189E+02 -0.24897755675E+02  0.33173903632E+02  0.00000000000E+00 0.  1.
         -2    1    1    2    0  502 -0.13107261077E+02  0.17572972189E+02 -0.90953872797E+01  0.23734694316E+02  0.00000000000E+00 0. -1.
</event>
<event>
 4    1  0.1762646E+004  0.2928874E+02  0.7546771E-02  0.1425880E+00
         21   -1    0    0  501  502  0.00000000000E+00  0.00000000000E+00  0.22645095516E+02  0.22645095516E+02  0.00000000000E+00 0. -1.
         21   -1    0    0  502  503 -0.00000000000E+00 -0.00000000000E+00 -0.80969240215E+02  0.80969240215E+02  0.00000000000E+00 0.  1.
          2    1    1    2  501    0 -0.28473634095E+02  0.68616526506E+01  0.86305209433E+01  0.30533850190E+02  0.00000000000E+00 0. -1.
         -2    1    1    2    0  503  0.28473634095E+02 -0.68616526506E+01 -0.66954665642E+02  0.73080485541E+02  0.00000000000E+00 0.  1.
</event>
<event>
 4    1  0.1762646E+004  0.2099044E+02  0.7546771E-02  0.1519401E+00
         21   -1    0    0  503  502  0.00000000000E+00  0.00000000000E+00  0.19346659515E+01  0.19346659515E+01  0.00000000000E+00 0. -1.
         21   -1    0    0  501  503 -0.00000000000E+00 -0.00000000000E+00 -0.40714387746E+03  0.40714387746E+03  0.00000000000E+00 0.  1.
          2    1    1    2  501    0 -0.11386686162E+02 -0.17633546079E+02 -0.33837968792E+03  0.33903010451E+03  0.00000000000E+00 0.  1.
         -2    1    1    2    0  502  0.11386686162E+02  0.17633546079E+02 -0.66829523587E+02  0.70048438897E+02  0.00000000000E+00 0. -1.
</event>
<event>
 4    1  0.1762646E+004  0.2280003E+02  0.7546771E-02  0.1495025E+00
         21   -1    0    0  501  502  0.00000000000E+00  0.00000000000E+00  0.34880357854E+02  0.34880357854E+02  0.00000000000E+00 0. -1.
         21   -1    0    0  502  503 -0.00000000000E+00 -0.00000000000E+00 -0.15273660061E+02  0.15273660061E+02  0.00000000000E+00 0.  1.
          2    1    1    2  501    0 -0.96606618195E+00 -0.22779554537E+02  0.13706952643E+02  0.26603043802E+02  0.00000000000E+00 0. -1.
         -2    1    1    2    0  503  0.96606618195E+00  0.22779554537E+02  0.58997451500E+01  0.23550974112E+02  0.00000000000E+00 0.  1.
</event>
<event>
 4    1  0.1762646E+004  0.2374922E+02  0.7546771E-02  0.1483298E+00
         21   -1    0    0  501  502  0.00000000000E+00  0.00000000000E+00  0.84549734862E+03  0.84549734862E+03  0.00000000000E+00 0.  1.
         21   -1    0    0  502  503 -0.00000000000E+00 -0.00000000000E+00 -0.66709401565E+00  0.66709401565E+00  0.00000000000E+00 0. -1.
          2    1    1    2  501    0 -0.78431402100E+01  0.22416750827E+02  0.42287122808E+03  0.42353760294E+03  0.00000000000E+00 0.  1.
         -2    1    1    2    0  503  0.78431402100E+01 -0.22416750827E+02  0.42195902652E+03  0.42262683969E+03  0.00000000000E+00 0. -1.
</event>
<event>
 4    1  0.1762646E+004  0.3368918E+02  0.7546771E-02  0.1390020E+00
         21   -1    0    0  503  502  0.00000000000E+00  0.00000000000E+00  0.12409993717E+03  0.12409993717E+03  0.00000000000E+00 0. -1.
         21   -1    0    0  501  503 -0.00000000000E+00 -0.00000000000E+00 -0.11052134455E+02  0.11052134455E+02  0.00000000000E+00 0.  1.
          2    1    1    2  501    0  0.33123429797E+02 -0.61481201920E+01  0.28456723033E+02  0.44099275155E+02  0.00000000000E+00 0.  1.
         -2    1    1    2    0  502 -0.33123429797E+02  0.61481201920E+01  0.84591079679E+02  0.91052796468E+02  0.00000000000E+00 0. -1.
</event>
<event>
 4    1  0.1762646E+004  0.2493995E+02  0.7546771E-02  0.1469476E+00
         21   -1    0    0  501  502  0.00000000000E+00  0.00000000000E+00  0.77357104702E+02  0.77357104702E+02  0.00000000000E+00 0. -1.
         21   -1    0    0  502  503 -0.00000000000E+00 -0.00000000000E+00 -0.22895428860E+02  0.22895428860E+02  0.00000000000E+00 0.  1.
          2    1    1    2  501    0  0.82230818181E+01 -0.23545319988E+02  0.67606913979E+02  0.72060363486E+02  0.00000000000E+00 0. -1.
         -2    1    1    2    0  503 -0.82230818181E+01  0.23545319988E+02 -0.13145238137E+02  0.28192170076E+02  0.00000000000E+00 0.  1.
</event>
<event>
 4    1  0.1762646E+004  0.2076984E+02  0.7546771E-02  0.1522577E+00
         21   -1    0    0  503  502  0.00000000000E+00  0.00000000000E+00  0.95255011840E+02  0.95255011840E+02  0.00000000000E+00 0. -1.
         21   -1    0    0  501  503 -0.00000000000E+00 -0.00000000000E+00 -0.61807688100E+01  0.61807688100E+01  0.00000000000E+00 0.  1.
          2    1    1    2  501    0 -0.15691143392E+02  0.13607869543E+02  0.18316228391E+02  0.27692423457E+02  0.00000000000E+00 0.  1.
         -2    1    1    2    0  502  0.15691143392E+02 -0.13607869543E+02  0.70758014639E+02  0.73743357193E+02  0.00000000000E+00 0. -1.
</event>
<event>
 4    1  0.1762646E+004  0.2317666E+02  0.7546771E-02  0.1490292E+00
         21   -1    0    0  503  502  0.00000000000E+00  0.00000000000E+00  0.86654911488E+01  0.86654911488E+01  0.00000000000E+00 0. -1.
         21   -1    0    0  501  503 -0.00000000000E+00 -0.00000000000E+00 -0.16624094920E+03  0.16624094920E+03  0.00000000000E+00 0.  1.
          2    1    1    2  501    0 -0.22033894584E+02  0.71878273292E+01 -0.14804266902E+03  0.14984588491E+03  0.00000000000E+00 0.  1.
         -2    1    1    2    0  502  0.22033894584E+02 -0.71878273292E+01 -0.95327890246E+01  0.25060555438E+02  0.00000000000E+00 0. -1.
</event>
<event>
 4    1  0.1762646E+004  0.2047281E+02  0.7546771E-02  0.1526927E+00
         21   -1    0    0  503  502  0.00000000000E+00  0.00000000000E+00  0.58548002213E+02  0.58548002213E+02  0.00000000000E+00 0.  1.
         21   -1    0    0  501  503 -0.00000000000E+00 -0.00000000000E+00 -0.82464445602E+01  0.82464445602E+01  0.00000000000E+00 0. -1.
          2    1    1    2  501    0  0.16679079604E+02  0.11871996956E+02  0.13022149537E+02  0.24263396026E+02  0.00000000000E+00 0. -1.
         -2    1    1    2    0  502 -0.16679079604E+02 -0.11871996956E+02  0.37279408116E+02  0.42531050747E+02  0.00000000000E+00 0.  1.
</event>
<event>
 4    1  0.1762646E+004  0.2227044E+02  0.7546771E-02  0.1501868E+00
         21   -1    0    0  503  502  0.00000000000E+00  0.00000000000E+00  0.22994196711E+01  0.22994196711E+01  0.00000000000E+00 0. -1.
         21   -1    0    0  501  503 -0.00000000000E+00 -0.00000000000E+00 -0.21603752147E+03  0.21603752147E+03  0.00000000000E+00 0.  1.
          2    1    1    2  501    0 -0.18040834861E+02  0.13057601161E+02 -0.11121772801E+03  0.11342555133E+03  0.00000000000E+00 0. -1.
         -2    1    1    2    0  502  0.18040834861E+02 -0.13057601161E+02 -0.10252037380E+03  0.10491138982E+03  0.00000000000E+00 0.  1.
</event>
<event>
 4    1  0.1762646E+004  0.2156044E+02  0.7546771E-02  0.1511412E+00
         21   -1    0    0  503  502  0.00000000000E+00  0.00000000000E+00  0.12055417854E+02  0.12055417854E+02  0.00000000000E+00 0. -1.
         21   -1    0    0  501  503 -0.00000000000E+00 -0.00000000000E+00 -0.46506260580E+02  0.46506260580E+02  0.00000000000E+00 0.  1.
          2    1    1    2  501    0  0.13018485157E+01  0.21521103977E+02 -0.29329136683E+02  0.36401249766E+02  0.00000000000E+00 0.  1.
         -2    1    1    2    0  502 -0.13018485157E+01 -0.21521103977E+02 -0.51217060433E+01  0.22160428668E+02  0.00000000000E+00 0. -1.
</event>
<event>
 4    1  0.1762646E+004  0.3265492E+02  0.7546771E-02  0.1397844E+00
         21   -1    0    0  503  502  0.00000000000E+00  0.00000000000E+00  0.60378712572E+03  0.60378712572E+03  0.00000000000E+00 0.  1.
         21   -1    0    0  501  503 -0.00000000000E+00 -0.00000000000E+00 -0.69386916666E+01  0.69386916666E+01  0.00000000000E+00 0. -1.
          2    1    1    2  501    0  0.21063337682E+02  0.24953545309E+02  0.34771699558E+02  0.47701307193E+02  0.00000000000E+00 0. -1.
         -2    1    1    2    0  502 -0.21063337682E+02 -0.24953545309E+02  0.56207673449E+03  0.56302451019E+03  0.00000000000E+00 0.  1.
</event>
<event>
 4    1  0.1762646E+004  0.2205764E+02  0.7546771E-02  0.1504683E+00
         21   -1    0    0  501  502  0.00000000000E+00  0.00000000000E+00  0.82264487030E+02  0.82264487030E+02  0.00000000000E+00 0. -1.
         21   -1    0    0  502  503 -0.00000000000E+00 -0.00000000000E+00 -0.11210160791E+02  0.11210160791E+02  0.00000000000E+00 0.  1.
          2    1    1    2  501    0 -0.69703292107E+01 -0.20927346453E+02  0.67650819632E+02  0.71155974561E+02  0.00000000000E+00 0. -1.
         -2    1    1    2    0  503  0.69703292107E+01  0.20927346453E+02  0.34035066076E+01  0.22318673260E+02  0.00000000000E+00 0.  1.
</event>
<event>
 4    1  0.1762646E+004  0.2291452E+02  0.7546771E-02  0.1493574E+00
         21   -1    0    0  501  502  0.00000000000E+00  0.00000000000E+00  0.25191821521E+00  0.25191821521E+00  0.00000000000E+00 0. -1.
         21   -1    0    0  502  503 -0.00000000000E+00 -0.00000000000E+00 -0.22872635684E+04  0.22872635684E+04  0.00000000000E+00 0.  1.
          2    1    1    2  501    0 -0.95946334317E+01  0.20809089173E+02 -0.80280256243E+03  0.80312952220E+03  0.00000000000E+00 0. -1.
         -2    1    1    2    0  503  0.95946334317E+01 -0.20809089173E+02 -0.14842090877E+04  0.14843859644E+04  0.00000000000E+00 0.  1.
</event>
<event>
 4    1  0.1762646E+004  0.8206343E+02  0.7546771E-02  0.1199137E+00
         21   -1    0    0  503  502  0.00000000000E+00  0.00000000000E+00  0.23040201865E+03  0.23040201865E+03  0.00000000000E+00 0.  1.
         21   -1    0    0  501  503 -0.00000000000E+00 -0.00000000000E+00 -0.45591676507E+02  0.45591676507E+02  0.00000000000E+00 0. -1.
          2    1    1    2  501    0  0.75885116467E+02  0.31238689660E+02  0.17507639381E+03  0.19335498521E+03  0.00000000000E+00 0. -1.
         -2    1    1    2    0  502 -0.75885116467E+02 -0.31238689660E+02  0.97339483330E+01  0.82638709955E+02  0.00000000000E+00 0.  1.
</event>
<event>
 4    1  0.1762646E+004  0.2738406E+02  0.7546771E-02  0.1443788E+00
         21   -1    0    0  501  502  0.00000000000E+00  0.00000000000E+00  0.15604790109E+02  0.15604790109E+02  0.00000000000E+00 0. -1.
         21   -1    0    0  502  503 -0.00000000000E+00 -0.00000000000E+00 -0.48631607068E+02  0.48631607068E+02  0.00000000000E+00 0.  1.
          2    1    1    2  501    0 -0.15752985199E+00 -0.27383605404E+02 -0.13015819889E+02  0.30319931200E+02  0.00000000000E+00 0.  1.
         -2    1    1    2    0  503  0.15752985199E+00  0.27383605404E+02 -0.20010997071E+02  0.33916465977E+02  0.00000000000E+00 0. -1.
</event>
<event>
 4    1  0.1762646E+004  0.3153200E+02  0.7546771E-02  0.1406735E+00
         21   -1    0    0  501  502  0.00000000000E+00  0.00000000000E+00  0.88390301108E+02  0.88390301108E+02  0.00000000000E+00 0. -1.
         21   -1    0    0  502  503 -0.00000000000E+00 -0.00000000000E+00 -0.11248609070E+02  0.11248609070E+02  0.00000000000E+00 0.  1.
          2    1    1    2  501    0 -0.93263652437E+01 -0.30121189861E+02  0.38526850082E+02  0.49785392883E+02  0.00000000000E+00 0. -1.
         -2    1    1    2    0  503  0.93263652437E+01  0.30121189861E+02  0.38614841956E+02  0.49853517294E+02  0.00000000000E+00 0.  1.
</event>
<event>
 4    1  0.1762646E+004  0.3144172E+02  0.7546771E-02  0.1407468E+00
         21   -1    0    0  503  502  0.00000000000E+00  0.00000000000E+00  0.26087525450E+02  0.26087525450E+02  0.00000000000E+00 0.  1.
         21   -1    0    0  501  503 -0.00000000000E+00 -0.00000000000E+00 -0.43598182756E+02  0.43598182756E+02  0.00000000000E+00 0. -1.
          2    1    1    2  501    0  0.31360338039E+02  0.22607599165E+01 -0.21357500055E+02  0.38009533619E+02  0.00000000000E+00 0.  1.
         -2    1    1    2    0  502 -0.31360338039E+02 -0.22607599165E+01  0.38468427488E+01  0.31676174587E+02  0.00000000000E+00 0. -1.
</event>
<event>
 4    1  0.1762646E+004  0.3174532E+02  0.7546771E-02  0.1405012E+00
         21   -1    0    0  503  502  0.00000000000E+00  0.00000000000E+00  0.11006371024E+03  0.11006371024E+03  0.00000000000E+00 0. -1.
         21   -1    0    0  501  503 -0.00000000000E+00 -0.00000000000E+00 -0.21338700653E+02  0.21338700653E+02  0.00000000000E+00 0.  1.
          2    1    1    2  501    0 -0.22914263448E+02  0.21970470226E+02 -0.52804501545E+01  0.32181488237E+02  0.00000000000E+00 0.  1.
         -2    1    1    2    0  502  0.22914263448E+02 -0.21970470226E+02  0.94005459740E+02  0.99220922654E+02  0.00000000000E+00 0. -1.
</event>
<event>
 4    1  0.1762646E+004  0.2003419E+02  0.7546771E-02  0.1533514E+00
         21   -1    0    0  501  502  0.00000000000E+00  0.00000000000E+00  0.23577738856E+01  0.23577738856E+01  0.00000000000E+00 0.  1.
         21   -1    0    0  502  503 -0.00000000000E+00 -0.00000000000E+00 -0.50674167931E+03  0.50674167931E+03  0.00000000000E+00 0. -1.
          2    1    1    2  501    0  0.31254226510E+01 -0.19788900072E+02 -0.44758866646E+02  0.49037995231E+02  0.00000000000E+00 0.  1.
         -2    1    1    2    0  503 -0.31254226510E+01  0.19788900072E+02 -0.45962503877E+03  0.46006145796E+03  0.00000000000E+00 0. -1.
</event>
<event>
 4    1  0.1762646E+004  0.2987643E+02  0.7546771E-02  0.1420674E+00
         21   -1    0    0  503  502  0.00000000000E+00  0.00000000000E+00  0.60494397270E+03  0.60494397270E+03  0.00000000000E+00 0.  1.
         21   -1    0    0  501  503 -0.00000000000E+00 -0.00000000000E+00 -0.44177538808E+01  0.44177538808E+01  0.00000000000E+00 0. -1.
          2    1    1    2  501    0  0.29538148190E+02 -0.44831435445E+01  0.51615798881E+02  0.59638841946E+02  0.00000000000E+00 0. -1.
         -2    1    1    2    0  502 -0.29538148190E+02  0.44831435445E+01  0.54891041994E+03  0.54972288464E+03  0.00000000000E+00 0.  1.
</event>
<event>
 4    1  0.1762646E+004  0.4065418E+02  0.7546771E-02  0.1344694E+00
         21   -1    0    0  503  502  0.00000000000E+00  0.00000000000E+00  0.59097876575E+01  0.59097876575E+01  0.00000000000E+00 0. -1.
         21   -1    0    0  501  503 -0.00000000000E+00 -0.00000000000E+00 -0.46861152025E+03  0.46861152025E+03  0.00000000000E+00 0.  1.
          2    1    1    2  501    0  0.27884475189E+02  0.29584089014E+02 -0.38200754785E+03  0.38416471584E+03  0.00000000000E+00 0.  1.
         -2    1    1    2    0  502 -0.27884475189E+02 -0.29584089014E+02 -0.80694184741E+02  0.90356592069E+02  0.00000000000E+00 0. -1.
</event>
<event>
 4    1  0.1762646E+004  0.4620457E+02  0.7546771E-02  0.1315524E+00
         21   -1    0    0  501  502  0.00000000000E+00  0.00000000000E+00  0.25109116284E+03  0.25109116284E+03  0.00000000000E+00 0. -1.
         21   -1    0    0  502  503 -0.00000000000E+00 -0.00000000000E+00 -0.43467286507E+02  0.43467286507E+02  0.00000000000E+00 0.  1.
          2    1    1    2  501    0  0.71086800943E+01 -0.45654454531E+02  0.23590398068E+03  0.24038625304E+03  0.00000000000E+00 0. -1.
         -2    1    1    2    0  503 -0.71086800943E+01  0.45654454531E+02 -0.28280104343E+02  0.54172196308E+02  0.00000000000E+00 0.  1.
</event>
<event>
 4    1  0.1762646E+004  0.2723804E+02  0.7546771E-02  0.1445232E+00
         21   -1    0    0  503  502  0.00000000000E+00  0.00000000000E+00  0.45705567272E+02  0.45705567272E+02  0.00000000000E+00 0. -1.
         21   -1    0    0  501  503 -0.00000000000E+00 -0.00000000000E+00 -0.16233208213E+02  0.16233208213E+02  0.00000000000E+00 0.  1.
          2    1    1    2  501    0  0.24418190057E+02  0.12069077142E+02  0.14955943672E+02  0.31073958226E+02  0.00000000000E+00 0. -1.
         -2    1    1    2    0  502 -0.24418190057E+02 -0.12069077142E+02  0.14516415387E+02  0.30864817259E+02  0.00000000000E+00 0.  1.
</event>
<event>
 4    1  0.1762646E+004  0.3153245E+02  0.7546771E-02  0.1406731E+00
         21   -1    0    0  501  502  0.00000000000E+00  0.00000000000E+00  0.11220528501E+03  0.11220528501E+03  0.00000000000E+00 0. -1.
         21   -1    0    0  502  503 -0.00000000000E+00 -0.00000000000E+00 -0.15243715072E+02  0.15243715072E+02  0.00000000000E+00 0.  1.
          2    1    1    2  501    0  0.31528149417E+02  0.52060526833E+00  0.89714299252E+02  0.95094430572E+02  0.00000000000E+00 0. -1.
         -2    1    1    2    0  503 -0.31528149417E+02 -0.52060526833E+00  0.72472706811E+01  0.32354569505E+02  0.00000000000E+00 0.  1.
</event>
<event>
 4    1  0.1762646E+004  0.2349340E+02  0.7546771E-02  0.1486394E+00
         21   -1    0    0  501  502  0.00000000000E+00  0.00000000000E+00  0.95525374336E+01  0.95525374336E+01  0.00000000000E+00 0. -1.
         21   -1    0    0  502  503 -0.00000000000E+00 -0.00000000000E+00 -0.69654927659E+02  0.69654927659E+02  0.00000000000E+00 0.  1.
          2    1    1    2  501    0  0.75714446382E+01  0.22239895050E+02 -0.13698588465E+02  0.27195422991E+02  0.00000000000E+00 0. -1.
         -2    1    1    2    0  503 -0.75714446382E+01 -0.22239895050E+02 -0.46403801760E+02  0.52012042101E+02  0.00000000000E+00 0.  1.
</event>
<event>
 4    1  0.1762646E+004  0.2721021E+02  0.7546771E-02  0.1445508E+00
         21   -1    0    0  503  502  0.00000000000E+00  0.00000000000E+00  0.28512551847E+02  0.28512551847E+02  0.00000000000E+00 0. -1.
         21   -1    0    0  501  503 -0.00000000000E+00 -0.00000000000E+00 -0.29370217262E+02  0.29370217262E+02  0.00000000000E+00 0.  1.
          2    1    1    2  501    0 -0.99033095339E+01  0.25344028044E+02 -0.10280018010E+02  0.29087352363E+02  0.00000000000E+00 0.  1.
         -2    1    1    2    0  502  0.99033095339E+01 -0.25344028044E+02  0.94223525946E+01  0.28795416747E+02  0.00000000000E+00 0. -1.
</event>
<event>
 4    1  0.1762646E+004  0.2888101E+02  0.7546771E-02  0.1429576E+00
         21   -1    0    0  501  502  0.00000000000E+00  0.00000000000E+00  0.21357792779E+03  0.21357792779E+03  0.00000000000E+00 0.  1.
         21   -1    0    0  502  503 -0.00000000000E+00 -0.00000000000E+00 -0.15815128183E+02  0.15815128183E+02  0.00000000000E+00 0. -1.
          2    1    1    2  501    0 -0.28500885553E+02 -0.46703416858E+01  0.19841377847E+03  0.20050471330E+03  0.00000000000E+00 0.  1.
         -2    1    1    2    0  503  0.28500885553E+02  0.46703416858E+01 -0.65097886594E+00  0.28888342670E+02  0.00000000000E+00 0. -1.
</event>
<event>
 4    1  0.1762646E+004  0.2047572E+02  0.7546771E-02  0.1526884E+00
         21   -1    0    0  503  502  0.00000000000E+00  0.00000000000E+00  0.46940854878E+00  0.46940854878E+00  0.00000000000E+00 0. -1.
         21   -1    0    0  501  503 -0.00000000000E+00 -0.00000000000E+00 -0.98064045798E+03  0.98064045798E+03  0.00000000000E+00 0.  1.
          2    1    1    2  501    0 -0.10678653739E+02 -0.17470585230E+02 -0.63660607989E+03  0.63693528395E+03  0.00000000000E+00 0.  1.
         -2    1    1    2    0  502  0.10678653739E+02  0.17470585230E+02 -0.34356496955E+03  0.34417458258E+03  0.00000000000E+00 0. -1.
</event>
<event>
 4    1  0.1762646E+004  0.3407657E+02  0.7546771E-02  0.1387174E+00
         21   -1    0    0  501  502  0.00000000000E+00  0.00000000000E+00  0.29849425033E+01  0.29849425033E+01  0.00000000000E+00 0. -1.
         21   -1    0    0  502  503 -0.00000000000E+00 -0.00000000000E+00 -0.62021347626E+03  0.62021347626E+03  0.00000000000E+00 0.  1.
          2    1    1    2  501    0  0.21930215072E+02 -0.26082142884E+02 -0.11837054544E+03  0.12317791417E+03  0.00000000000E+00 0. -1.
         -2    1    1    2    0  503 -0.21930215072E+02  0.26082142884E+02 -0.49885798831E+03  0.50002050459E+03  0.00000000000E+00 0.  1.
</event>
<event>
 4    1  0.1762646E+004  0.3286900E+02  0.7546771E-02  0.1396197E+00
         21   -1    0    0  503  502  0.00000000000E+00  0.00000000000E+00  0.68284754094E+01  0.68284754094E+01  0.00000000000E+00 0.  1.
         21   -1    0    0  501  503 -0.00000000000E+00 -0.00000000000E+00 -0.20543494836E+03  0.20543494836E+03  0.00000000000E+00 0. -1.
          2    1    1    2  501    0 -0.21595239612E+01  0.32797982135E+02 -0.15018569731E+03  0.15374041385E+03  0.00000000000E+00 0. -1.
         -2    1    1    2    0  502  0.21595239612E+01 -0.32797982135E+02 -0.48420775645E+02  0.58523009918E+02  0.00000000000E+00 0.  1.
</event>
<event>
 4    1  0.1762646E+004  0.3208268E+02  0.7546771E-02  0.1402321E+00
         21   -1    0    0  501  502  0.00000000000E+00  0.00000000000E+00  0.23676562012E+02  0.23676562012E+02  0.00000000000E+00 0.  1.
         21   -1    0    0  502  503 -0.00000000000E+00 -0.00000000000E+00 -0.10933932088E+03  0.10933932088E+03  0.00000000000E+00 0. -1.
          2    1    1    2  501    0  0.31750593102E+02  0.46041561369E+01  0.87883846027E+01  0.33264607618E+02  0.00000000000E+00 0.  1.
         -2    1    1    2    0  503 -0.31750593102E+02 -0.46041561369E+01 -0.94451143467E+02  0.99751275271E+02  0.00000000000E+00 0. -1.
</event>
<event>
 4    1  0.1762646E+004  0.3086491E+02  0.7546771E-02  0.1412226E+00
         21   -1    0    0  501  502  0.00000000000E+00  0.00000000000E+00  0.34025081492E+03  0.34025081492E+03  0.00000000000E+00 0.  1.
         21   -1    0    0  502  503 -0.00000000000E+00 -0.00000000000E+00 -0.28629744612E+01  0.28629744612E+01  0.00000000000E+00 0. -1.
          2    1    1    2  501    0  0.75193573966E+00  0.30855746336E+02  0.19417317821E+03  0.19661094991E+03  0.00000000000E+00 0.  1.
         -2    1    1    2    0  503 -0.75193573966E+00 -0.30855746336E+02  0.14321466225E+03  0.14650283947E+03  0.00000000000E+00 0. -1.
</event>
<event>
 4    1  0.1762646E+004  0.3011157E+02  0.7546771E-02  0.1418629E+00
         21   -1    0    0  501  502  0.00000000000E+00  0.00000000000E+00  0.16910370557E+02  0.16910370557E+02  0.00000000000E+00 0. -1.
         21   -1    0    0  502  503 -0.00000000000E+00 -0.00000000000E+00 -0.59900200787E+02  0.59900200787E+02  0.00000000000E+00 0.  1.
          2    1    1    2  501    0  0.21361212951E+02  0.21222757829E+02 -0.33932018234E+02  0.45366162831E+02  0.00000000000E+00 0. -1.
         -2    1    1    2    0  503 -0.21361212951E+02 -0.21222757829E+02 -0.90578119961E+01  0.31444408514E+02  0.00000000000E+00 0.  1.
</event>
<event>
 4    1  0.1762646E+004  0.3388852E+02  0.7546771E-02  0.1388550E+00
         21   -1    0    0  503  502  0.00000000000E+00  0.00000000000E+00  0.11091883612E+02  0.11091883612E+02  0.00000000000E+00 0.  1.
         21   -1    0    0  501  503 -0.00000000000E+00 -0.00000000000E+00 -0.12305551458E+03  0.12305551458E+03  0.00000000000E+00 0. -1.
          2    1    1    2  501    0 -0.19448075112E+02 -0.27752557364E+02 -0.82694242700E+02  0.89368729662E+02  0.00000000000E+00 0. -1.
         -2    1    1    2    0  502  0.19448075112E+02  0.27752557364E+02 -0.29269388273E+02  0.44778668533E+02  0.00000000000E+00 0.  1.
</event>
<event>
 4    1  0.1762646E+004  0.2260060E+02  0.7546771E-02  0.1497575E+00
         21   -1    0    0  503  502  0.00000000000E+00  0.00000000000E+00  0.93571690018E+01  0.93571690018E+01  0.00000000000E+00 0.  1.
         21   -1    0    0  501  503 -0.00000000000E+00 -0.00000000000E+00 -0.54634684273E+02  0.54634684273E+02  0.00000000000E+00 0. -1.
          2    1    1    2  501    0 -0.84397493830E+01  0.20965636188E+02 -0.21701467852E+02  0.31332746086E+02  0.00000000000E+00 0. -1.
         -2    1    1    2    0  502  0.84397493830E+01 -0.20965636188E+02 -0.23576047420E+02  0.32659107188E+02  0.00000000000E+00 0.  1.
</event>
<event>
 4    1  0.1762646E+004  0.3939776E+02  0.7546771E-02  0.1352052E+00
         21   -1    0    0  503  502  0.00000000000E+00  0.00000000000E+00  0.53545164095E+01  0.53545164095E+01  0.00000000000E+00 0.  1.
         21   -1    0    0  501  503 -0.00000000000E+00 -0.00000000000E+00 -0.37545383626E+03  0.37545383626E+03  0.00000000000E+00 0. -1.
          2    1    1    2  501    0  0.26817885869E+02  0.28861465488E+02 -0.27594908296E+03  0.27874734004E+03  0.00000000000E+00 0. -1.
         -2    1    1    2    0  502 -0.26817885869E+02 -0.28861465488E+02 -0.94150236897E+02  0.10206101264E+03  0.00000000000E+00 0.  1.
</event>
<event>
 4    1  0.1762646E+004  0.2546635E+02  0.7546771E-02  0.1463653E+00
         21   -1    0    0  501  502  0.00000000000E+00  0.00000000000E+00  0.80699611450E+00  0.80699611450E+00  0.00000000000E+00 0. -1.
         21   -1    0    0  502  503 -0.00000000000E+00 -0.00000000000E+00 -0.80891768745E+03  0.80891768745E+03  0.00000000000E+00 0.  1.
          2    1    1    2  501    0  0.24687697170E+02  0.62492159710E+01 -0.37135595907E+03  0.37222813358E+03  0.00000000000E+00 0. -1.
         -2    1    1    2    0  503 -0.24687697170E+02 -0.62492159710E+01 -0.43675473227E+03  0.43749654998E+03  0.00000000000E+00 0.  1.
</event>
<event>
 4    1  0.1762646E+004  0.3901141E+02  0.7546771E-02  0.1354378E+00
         21   -1    0    0  501  502  0.00000000000E+00  0.00000000000E+00  0.64353501961E+02  0.64353501961E+02  0.00000000000E+00 0.  1.
         21   -1    0    0  502  503 -0.00000000000E+00 -0.00000000000E+00 -0.51310807873E+02  0.51310807873E+02  0.00000000000E+00 0. -1.
          2    1    1    2  501    0 -0.30837547716E+02 -0.23894269032E+02  0.48983880614E+02  0.62620372098E+02  0.00000000000E+00 0.  1.
         -2    1    1    2    0  503  0.30837547716E+02  0.23894269032E+02 -0.35941186526E+02  0.53043937737E+02  0.00000000000E+00 0. -1.
</event>
<event>
 4    1  0.1762646E+004  0.2055859E+02  0.7546771E-02  0.1525661E+00
         21   -1    0    0  503  502  0.00000000000E+00  0.00000000000E+00  0.20498294918E+02  0.20498294918E+02  0.00000000000E+00 0.  1.
         21   -1    0    0  501  503 -0.00000000000E+00 -0.00000000000E+00 -0.50675340980E+02  0.50675340980E+02  0.00000000000E+00 0. -1.
          2    1    1    2  501    0 -0.20486381836E+02  0.17215093821E+01 -0.42495332860E+02  0.47207083686E+02  0.00000000000E+00 0. -1.
         -2    1    1    2    0  502  0.20486381836E+02 -0.17215093821E+01  0.12318286798E+02  0.23966552212E+02  0.00000000000E+00 0.  1.
</event>
