<event>
 4    1  0.3837333E+003  0.2509397E+02  0.7546771E-02  0.1467755E+00
          2   -1    0    0  502    0  0.00000000000E+00  0.00000000000E+00  0.11643311582E+04  0.11643311582E+04  0.00000000000E+00 0. -1.
          1   -1    0    0  501    0 -0.00000000000E+00 -0.00000000000E+00 -0.57931552027E+02  0.57931552027E+02  0.00000000000E+00 0. -1.
          2    1    1    2  501    0 -0.16457669167E+02 -0.18943397520E+02  0.11614717990E+04  0.11617428489E+04  0.00000000000E+00 0. -1.
          1    1    1    2  502    0  0.16457669167E+02  0.18943397520E+02 -0.55072192844E+02  0.60519861274E+02  0.00000000000E+00 0. -1.
</event>
<event>
 4    1  0.3837333E+003  0.2432034E+02  0.7546771E-02  0.1476552E+00
          2   -1    0    0  502    0  0.00000000000E+00  0.00000000000E+00  0.69704476897E+03  0.69704476897E+03  0.00000000000E+00 0. -1.
          1   -1    0    0  501    0 -0.00000000000E+00 -0.00000000000E+00 -0.28918290055E+01  0.28918290055E+01  0.00000000000E+00 0.  1.
          2    1    1    2  501    0 -0.27172274570E+01  0.24168068556E+02  0.64125163510E+03  0.64171266030E+03  0.00000000000E+00 0. -1.
          1    1    1    2  502    0  0.27172274570E+01 -0.24168068556E+02  0.52901304862E+02  0.58223937679E+02  0.00000000000E+00 0.  1.
</event>
<event>
 4    1  0.3837333E+003  0.2136106E+02  0.7546771E-02  0.1514172E+00
          2   -1    0    0  502    0  0.00000000000E+00  0.00000000000E+00  0.91056641843E+03  0.91056641843E+03  0.00000000000E+00 0. -1.
          1   -1    0    0  501    0 -0.00000000000E+00 -0.00000000000E+00 -0.85561630087E+00  0.85561630087E+00  0.00000000000E+00 0.  1.
          2    1    1    2  501    0 -0.94649824966E+01 -0.19149650106E+02  0.74818863683E+03  0.74849350784E+03  0.00000000000E+00 0. -1.
          1    1    1    2  502    0  0.94649824966E+01  0.19149650106E+02  0.16152216530E+03  0.16292852689E+03  0.00000000000E+00 0.  1.
</event>
<event>
 4    1  0.3837333E+003  0.2563190E+02  0.7546771E-02  0.1461857E+00
          2   -1    0    0  502    0  0.00000000000E+00  0.00000000000E+00  0.14828601706E+02  0.14828601706E+02  0.00000000000E+00 0.  1.
          1   -1    0    0  501    0 -0.00000000000E+00 -0.00000000000E+00 -0.45131375287E+03  0.45131375287E+03  0.00000000000E+00 0.  1.
          2    1    1    2  501    0 -0.16996499886E+02 -0.19186281423E+02  0.30927252982E+01  0.25817810771E+02  0.00000000000E+00 0.  1.
          1    1    1    2  502    0  0.16996499886E+02  0.19186281423E+02 -0.43957787646E+03  0.44032454381E+03  0.00000000000E+00 0.  1.
</event>
<event>
 4    1  0.3837333E+003  0.3144974E+02  0.7546771E-02  0.1407403E+00
          2   -1    0    0  502    0  0.00000000000E+00  0.00000000000E+00  0.33173652373E+04  0.33173652373E+04  0.00000000000E+00 0.  1.
          1   -1    0    0  501    0 -0.00000000000E+00 -0.00000000000E+00 -0.30002180697E+00  0.30002180697E+00  0.00000000000E+00 0.  1.
          2    1    1    2  501    0  0.29063693895E+02  0.12016146806E+02  0.17894143659E+04  0.17896907160E+04  0.00000000000E+00 0.  1.
          1    1    1    2  502    0 -0.29063693895E+02 -0.12016146806E+02  0.15276508496E+04  0.15279745431E+04  0.00000000000E+00 0.  1.
</event>
<event>
 4    1  0.3837333E+003  0.2562531E+02  0.7546771E-02  0.1461928E+00
          2   -1    0    0  502    0  0.00000000000E+00  0.00000000000E+00  0.19807422556E+02  0.19807422556E+02  0.00000000000E+00 0. -1.
          1   -1    0    0  501    0 -0.00000000000E+00 -0.00000000000E+00 -0.17940227182E+03  0.17940227182E+03  0.00000000000E+00 0. -1.
          2    1    1    2  501    0  0.25212024006E+02 -0.45837287163E+01  0.10134681960E+02  0.27556641701E+02  0.00000000000E+00 0. -1.
          1    1    1    2  502    0 -0.25212024006E+02  0.45837287163E+01 -0.16972953123E+03  0.17165305268E+03  0.00000000000E+00 0. -1.
</event>
<event>
 4    1  0.3837333E+003  0.3553764E+02  0.7546771E-02  0.1376822E+00
          2   -1    0    0  502    0  0.00000000000E+00  0.00000000000E+00  0.51271272098E+03  0.51271272098E+03  0.00000000000E+00 0. -1.
          1   -1    0    0  501    0 -0.00000000000E+00 -0.00000000000E+00 -0.25651569883E+03  0.25651569883E+03  0.00000000000E+00 0. -1.
          2    1    1    2  501    0 -0.26490896763E+01  0.35438768494E+02  0.51086161678E+03  0.51209619750E+03  0.00000000000E+00 0. -1.
          1    1    1    2  502    0  0.26490896763E+01 -0.35438768494E+02 -0.25466459463E+03  0.25713222231E+03  0.00000000000E+00 0. -1.
</event>
<event>
 4    1  0.3837333E+003  0.2760558E+02  0.7546771E-02  0.1441618E+00
          2   -1    0    0  502    0  0.00000000000E+00  0.00000000000E+00  0.33790907367E+02  0.33790907367E+02  0.00000000000E+00 0.  1.
          1   -1    0    0  501    0 -0.00000000000E+00 -0.00000000000E+00 -0.79258903144E+02  0.79258903144E+02  0.00000000000E+00 0. -1.
          2    1    1    2  501    0 -0.39208310626E+01 -0.27325718846E+02  0.25077466685E+02  0.37295404033E+02  0.00000000000E+00 0.  1.
          1    1    1    2  502    0  0.39208310626E+01  0.27325718846E+02 -0.70545462463E+02  0.75754406478E+02  0.00000000000E+00 0. -1.
</event>
<event>
 4    1  0.3837333E+003  0.2242447E+02  0.7546771E-02  0.1499854E+00
          2   -1    0    0  502    0  0.00000000000E+00  0.00000000000E+00  0.29825178597E+01  0.29825178597E+01  0.00000000000E+00 0. -1.
          1   -1    0    0  501    0 -0.00000000000E+00 -0.00000000000E+00 -0.19073052699E+03  0.19073052699E+03  0.00000000000E+00 0. -1.
          2    1    1    2  501    0  0.10686464804E+02  0.19714365735E+02 -0.60882607120E+02  0.64881034179E+02  0.00000000000E+00 0. -1.
          1    1    1    2  502    0 -0.10686464804E+02 -0.19714365735E+02 -0.12686540201E+03  0.12883201068E+03  0.00000000000E+00 0. -1.
</event>
<event>
 4    1  0.3837333E+003  0.2139509E+02  0.7546771E-02  0.1513698E+00
          2   -1    0    0  502    0  0.00000000000E+00  0.00000000000E+00  0.52598767536E+02  0.52598767536E+02  0.00000000000E+00 0. -1.
          1   -1    0    0  501    0 -0.00000000000E+00 -0.00000000000E+00 -0.56197665909E+02  0.56197665909E+02  0.00000000000E+00 0.  1.
          2    1    1    2  501    0  0.16089299921E+02 -0.14102628068E+02  0.48209698563E+02  0.52743954402E+02  0.00000000000E+00 0. -1.
          1    1    1    2  502    0 -0.16089299921E+02  0.14102628068E+02 -0.51808596937E+02  0.56052479044E+02  0.00000000000E+00 0.  1.
</event>
<event>
 4    1  0.3837333E+003  0.2289538E+02  0.7546771E-02  0.1493816E+00
          2   -1    0    0  502    0  0.00000000000E+00  0.00000000000E+00  0.65533589338E+02  0.65533589338E+02  0.00000000000E+00 0.  1.
          1   -1    0    0  501    0 -0.00000000000E+00 -0.00000000000E+00 -0.13288157165E+02  0.13288157165E+02  0.00000000000E+00 0.  1.
          2    1    1    2  501    0  0.78607141722E+01  0.21503656066E+02  0.12581932401E+01  0.22929917177E+02  0.00000000000E+00 0.  1.
          1    1    1    2  502    0 -0.78607141722E+01 -0.21503656066E+02  0.50987238933E+02  0.55891829327E+02  0.00000000000E+00 0.  1.
</event>
<event>
 4    1  0.3837333E+003  0.3080976E+02  0.7546771E-02  0.1412687E+00
          2   -1    0    0  502    0  0.00000000000E+00  0.00000000000E+00  0.24155535231E+03  0.24155535231E+03  0.00000000000E+00 0. -1.
          1   -1    0    0  501    0 -0.00000000000E+00 -0.00000000000E+00 -0.39348951489E+01  0.39348951489E+01  0.00000000000E+00 0. -1.
          2    1    1    2  501    0 -0.22082988513E+02  0.21484462226E+02  0.11435097568E+03  0.11842882308E+03  0.00000000000E+00 0. -1.
          1    1    1    2  502    0  0.22082988513E+02 -0.21484462226E+02  0.12326948149E+03  0.12706142438E+03  0.00000000000E+00 0. -1.
</event>
<event>
 4    1  0.3837333E+003  0.3611353E+02  0.7546771E-02  0.1372899E+00
          2   -1    0    0  502    0  0.00000000000E+00  0.00000000000E+00  0.12188183971E+04  0.12188183971E+04  0.00000000000E+00 0. -1.
          1   -1    0    0  501    0 -0.00000000000E+00 -0.00000000000E+00 -0.16056564123E+01  0.16056564123E+01  0.00000000000E+00 0.  1.
          2    1    1    2  501    0 -0.16419003022E+02  0.32165250469E+02  0.96104259502E+03  0.96172088282E+03  0.00000000000E+00 0. -1.
          1    1    1    2  502    0  0.16419003022E+02 -0.32165250469E+02  0.25617014568E+03  0.25870317071E+03  0.00000000000E+00 0.  1.
</event>
<event>
 4    1  0.3837333E+003  0.2822655E+02  0.7546771E-02  0.1435662E+00
          2   -1    0    0  502    0  0.00000000000E+00  0.00000000000E+00  0.19936103672E+03  0.19936103672E+03  0.00000000000E+00 0.  1.
          1   -1    0    0  501    0 -0.00000000000E+00 -0.00000000000E+00 -0.14954453921E+04  0.14954453921E+04  0.00000000000E+00 0. -1.
          2    1    1    2  501    0  0.28114707879E+02 -0.25102391744E+01  0.19822797048E+03  0.20022753652E+03  0.00000000000E+00 0.  1.
          1    1    1    2  502    0 -0.28114707879E+02  0.25102391744E+01 -0.14943123258E+04  0.14945788923E+04  0.00000000000E+00 0. -1.
</event>
<event>
 4    1  0.3837333E+003  0.6549005E+02  0.7546771E-02  0.1242240E+00
          2   -1    0    0  502    0  0.00000000000E+00  0.00000000000E+00  0.36081990329E+03  0.36081990329E+03  0.00000000000E+00 0.  1.
          1   -1    0    0  501    0 -0.00000000000E+00 -0.00000000000E+00 -0.11171764766E+03  0.11171764766E+03  0.00000000000E+00 0.  1.
          2    1    1    2  501    0 -0.27015033067E+02 -0.59658484793E+02  0.34789708883E+03  0.35400752991E+03  0.00000000000E+00 0.  1.
          1    1    1    2  502    0  0.27015033067E+02  0.59658484793E+02 -0.98794833198E+02  0.11853002103E+03  0.00000000000E+00 0.  1.
</event>
<event>
 4    1  0.3837333E+003  0.2641746E+02  0.7546771E-02  0.1453549E+00
          2   -1    0    0  502    0  0.00000000000E+00  0.00000000000E+00  0.20758517729E+02  0.20758517729E+02  0.00000000000E+00 0.  1.
          1   -1    0    0  501    0 -0.00000000000E+00 -0.00000000000E+00 -0.36426841275E+03  0.36426841275E+03  0.00000000000E+00 0. -1.
          2    1    1    2  501    0 -0.22520232566E+02  0.13810197385E+02  0.11659767353E+02  0.28876159740E+02  0.00000000000E+00 0.  1.
          1    1    1    2  502    0  0.22520232566E+02 -0.13810197385E+02 -0.35516966238E+03  0.35615077074E+03  0.00000000000E+00 0. -1.
</event>
<event>
 4    1  0.3837333E+003  0.2226329E+02  0.7546771E-02  0.1501962E+00
          2   -1    0    0  502    0  0.00000000000E+00  0.00000000000E+00  0.25103179605E+02  0.25103179605E+02  0.00000000000E+00 0.  1.
          1   -1    0    0  501    0 -0.00000000000E+00 -0.00000000000E+00 -0.43912450117E+03  0.43912450117E+03  0.00000000000E+00 0. -1.
          2    1    1    2  501    0 -0.33621520363E+01 -0.22007952340E+02  0.19824812513E+02  0.29810689755E+02  0.00000000000E+00 0.  1.
          1    1    1    2  502    0  0.33621520363E+01  0.22007952340E+02 -0.43384613407E+03  0.43441699102E+03  0.00000000000E+00 0. -1.
</event>
<event>
 4    1  0.3837333E+003  0.3335024E+02  0.7546771E-02  0.1392548E+00
          2   -1    0    0  502    0  0.00000000000E+00  0.00000000000E+00  0.26920240874E+04  0.26920240874E+04  0.00000000000E+00 0. -1.
          1   -1    0    0  501    0 -0.00000000000E+00 -0.00000000000E+00 -0.67652142838E+00  0.67652142838E+00  0.00000000000E+00 0.  1.
          2    1    1    2  501    0 -0.33064160296E+02  0.43588935642E+01  0.21856998699E+04  0.21859542904E+04  0.00000000000E+00 0. -1.
          1    1    1    2  502    0  0.33064160296E+02 -0.43588935642E+01  0.50564769612E+03  0.50674631842E+03  0.00000000000E+00 0.  1.
</event>
<event>
 4    1  0.3837333E+003  0.3586994E+02  0.7546771E-02  0.1374548E+00
          2   -1    0    0  502    0  0.00000000000E+00  0.00000000000E+00  0.13492236276E+04  0.13492236276E+04  0.00000000000E+00 0.  1.
          1   -1    0    0  501    0 -0.00000000000E+00 -0.00000000000E+00 -0.21113239890E+01  0.21113239890E+01  0.00000000000E+00 0.  1.
          2    1    1    2  501    0 -0.15713089118E+02 -0.32245171649E+02  0.11738827085E+04  0.11744306133E+04  0.00000000000E+00 0.  1.
          1    1    1    2  502    0  0.15713089118E+02  0.32245171649E+02  0.17322959508E+03  0.17690433820E+03  0.00000000000E+00 0.  1.
</event>
<event>
 4    1  0.3837333E+003  0.2307972E+02  0.7546771E-02  0.1491500E+00
          2   -1    0    0  502    0  0.00000000000E+00  0.00000000000E+00  0.11817830050E+04  0.11817830050E+04  0.00000000000E+00 0.  1.
          1   -1    0    0  501    0 -0.00000000000E+00 -0.00000000000E+00 -0.46097585430E+00  0.46097585430E+00  0.00000000000E+00 0.  1.
          2    1    1    2  501    0  0.89212029676E+01  0.21285808854E+02  0.67875783112E+03  0.67915010626E+03  0.00000000000E+00 0.  1.
          1    1    1    2  502    0 -0.89212029676E+01 -0.21285808854E+02  0.50256419798E+03  0.50309387455E+03  0.00000000000E+00 0.  1.
</event>
<event>
 4    1  0.3837333E+003  0.2806054E+02  0.7546771E-02  0.1437236E+00
          2   -1    0    0  502    0  0.00000000000E+00  0.00000000000E+00  0.44242458442E+01  0.44242458442E+01  0.00000000000E+00 0. -1.
          1   -1    0    0  501    0 -0.00000000000E+00 -0.00000000000E+00 -0.49208971689E+03  0.49208971689E+03  0.00000000000E+00 0.  1.
          2    1    1    2  501    0  0.26112068489E+02  0.10273935164E+02 -0.45485920234E+02  0.53444951156E+02  0.00000000000E+00 0. -1.
          1    1    1    2  502    0 -0.26112068489E+02 -0.10273935164E+02 -0.44217955081E+03  0.44306901158E+03  0.00000000000E+00 0.  1.
</event>
<event>
 4    1  0.3837333E+003  0.2679078E+02  0.7546771E-02  0.1449721E+00
          2   -1    0    0  502    0  0.00000000000E+00  0.00000000000E+00  0.62415915984E+03  0.62415915984E+03  0.00000000000E+00 0.  1.
          1   -1    0    0  501    0 -0.00000000000E+00 -0.00000000000E+00 -0.10130496675E+03  0.10130496675E+03  0.00000000000E+00 0. -1.
          2    1    1    2  501    0  0.26763696451E+02  0.12043612585E+01  0.62209454839E+03  0.62267115965E+03  0.00000000000E+00 0.  1.
          1    1    1    2  502    0 -0.26763696451E+02 -0.12043612585E+01 -0.99240355296E+02  0.10279296694E+03  0.00000000000E+00 0. -1.
</event>
<event>
 4    1  0.3837333E+003  0.1068731E+03  0.7546771E-02  0.1152403E+00
          2   -1    0    0  502    0  0.00000000000E+00  0.00000000000E+00  0.76968827531E+03  0.76968827531E+03  0.00000000000E+00 0.  1.
          1   -1    0    0  501    0 -0.00000000000E+00 -0.00000000000E+00 -0.68492073075E+03  0.68492073075E+03  0.00000000000E+00 0. -1.
          2    1    1    2  501    0  0.76907777964E+02 -0.74209481255E+02  0.76176619214E+03  0.76922661479E+03  0.00000000000E+00 0.  1.
          1    1    1    2  502    0 -0.76907777964E+02  0.74209481255E+02 -0.67699864759E+03  0.68538239126E+03  0.00000000000E+00 0. -1.
</event>
<event>
 4    1  0.3837333E+003  0.2152060E+02  0.7546771E-02  0.1511960E+00
          2   -1    0    0  502    0  0.00000000000E+00  0.00000000000E+00  0.10872457240E+04  0.10872457240E+04  0.00000000000E+00 0. -1.
          1   -1    0    0  501    0 -0.00000000000E+00 -0.00000000000E+00 -0.14735336488E+02  0.14735336488E+02  0.00000000000E+00 0. -1.
          2    1    1    2  501    0 -0.20361352520E+02 -0.69679079019E+01  0.10792232456E+04  0.10794377936E+04  0.00000000000E+00 0. -1.
          1    1    1    2  502    0  0.20361352520E+02  0.69679079019E+01 -0.67128581069E+01  0.22543266865E+02  0.00000000000E+00 0. -1.
</event>
<event>
 4    1  0.3837333E+003  0.2112865E+02  0.7546771E-02  0.1517436E+00
          2   -1    0    0  502    0  0.00000000000E+00  0.00000000000E+00  0.12817373577E+03  0.12817373577E+03  0.00000000000E+00 0. -1.
          1   -1    0    0  501    0 -0.00000000000E+00 -0.00000000000E+00 -0.13785273928E+02  0.13785273928E+02  0.00000000000E+00 0.  1.
          2    1    1    2  501    0 -0.20687547487E+02  0.42948034717E+01  0.11855535668E+03  0.12042338873E+03  0.00000000000E+00 0. -1.
          1    1    1    2  502    0  0.20687547487E+02 -0.42948034717E+01 -0.41668948298E+01  0.21535620966E+02  0.00000000000E+00 0.  1.
</event>
<event>
 4    1  0.3837333E+003  0.2614733E+02  0.7546771E-02  0.1456367E+00
          2   -1    0    0  502    0  0.00000000000E+00  0.00000000000E+00  0.80211670488E+03  0.80211670488E+03  0.00000000000E+00 0. -1.
          1   -1    0    0  501    0 -0.00000000000E+00 -0.00000000000E+00 -0.32572402505E+02  0.32572402505E+02  0.00000000000E+00 0. -1.
          2    1    1    2  501    0  0.67635056225E+01 -0.25257432619E+02  0.79662001099E+03  0.79704901030E+03  0.00000000000E+00 0. -1.
          1    1    1    2  502    0 -0.67635056225E+01  0.25257432619E+02 -0.27075708620E+02  0.37640097079E+02  0.00000000000E+00 0. -1.
</event>
<event>
 4    1  0.3837333E+003  0.2288387E+02  0.7546771E-02  0.1493962E+00
          2   -1    0    0  502    0  0.00000000000E+00  0.00000000000E+00  0.12222296839E+01  0.12222296839E+01  0.00000000000E+00 0. -1.
          1   -1    0    0  501    0 -0.00000000000E+00 -0.00000000000E+00 -0.58315013489E+03  0.58315013489E+03  0.00000000000E+00 0. -1.
          2    1    1    2  501    0  0.22740685831E+02 -0.25559415423E+01 -0.14047437549E+03  0.14232611074E+03  0.00000000000E+00 0. -1.
          1    1    1    2  502    0 -0.22740685831E+02  0.25559415423E+01 -0.44145352972E+03  0.44204625383E+03  0.00000000000E+00 0. -1.
</event>
<event>
 4    1  0.3837333E+003  0.2130309E+02  0.7546771E-02  0.1514981E+00
          2   -1    0    0  502    0  0.00000000000E+00  0.00000000000E+00  0.14802970410E+04  0.14802970410E+04  0.00000000000E+00 0. -1.
          1   -1    0    0  501    0 -0.00000000000E+00 -0.00000000000E+00 -0.96018872155E+01  0.96018872155E+01  0.00000000000E+00 0.  1.
          2    1    1    2  501    0 -0.15570219268E+02  0.14539254053E+02  0.14683079736E+04  0.14684625044E+04  0.00000000000E+00 0. -1.
          1    1    1    2  502    0  0.15570219268E+02 -0.14539254053E+02  0.23871802321E+01  0.21436423814E+02  0.00000000000E+00 0.  1.
</event>
<event>
 4    1  0.3837333E+003  0.2897015E+02  0.7546771E-02  0.1428762E+00
          2   -1    0    0  502    0  0.00000000000E+00  0.00000000000E+00  0.12406021923E+04  0.12406021923E+04  0.00000000000E+00 0. -1.
          1   -1    0    0  501    0 -0.00000000000E+00 -0.00000000000E+00 -0.77845353406E+00  0.77845353406E+00  0.00000000000E+00 0.  1.
          2    1    1    2  501    0 -0.28368557301E+02  0.58731924380E+01  0.84453591783E+03  0.84503265377E+03  0.00000000000E+00 0. -1.
          1    1    1    2  502    0  0.28368557301E+02 -0.58731924380E+01  0.39528782089E+03  0.39634799202E+03  0.00000000000E+00 0.  1.
</event>
<event>
 4    1  0.3837333E+003  0.2454768E+02  0.7546771E-02  0.1473928E+00
          2   -1    0    0  502    0  0.00000000000E+00  0.00000000000E+00  0.12894904028E+03  0.12894904028E+03  0.00000000000E+00 0. -1.
          1   -1    0    0  501    0 -0.00000000000E+00 -0.00000000000E+00 -0.59736363365E+02  0.59736363365E+02  0.00000000000E+00 0. -1.
          2    1    1    2  501    0 -0.36873120837E+01  0.24269163878E+02  0.12518376760E+03  0.12756788097E+03  0.00000000000E+00 0. -1.
          1    1    1    2  502    0  0.36873120837E+01 -0.24269163878E+02 -0.55971090682E+02  0.61117522674E+02  0.00000000000E+00 0. -1.
</event>
<event>
 4    1  0.3837333E+003  0.2007025E+02  0.7546771E-02  0.1532965E+00
          2   -1    0    0  502    0  0.00000000000E+00  0.00000000000E+00  0.20033579440E+03  0.20033579440E+03  0.00000000000E+00 0. -1.
          1   -1    0    0  501    0 -0.00000000000E+00 -0.00000000000E+00 -0.20522991954E+01  0.20522991954E+01  0.00000000000E+00 0. -1.
          2    1    1    2  501    0 -0.17931708751E+02  0.90148896388E+01  0.84733966611E+02  0.87078467555E+02  0.00000000000E+00 0. -1.
          1    1    1    2  502    0  0.17931708751E+02 -0.90148896388E+01  0.11354952860E+03  0.11530962604E+03  0.00000000000E+00 0. -1.
</event>
<event>
 4    1  0.3837333E+003  0.2140546E+02  0.7546771E-02  0.1513554E+00
          2   -1    0    0  502    0  0.00000000000E+00  0.00000000000E+00  0.19662019194E+01  0.19662019194E+01  0.00000000000E+00 0.  1.
          1   -1    0    0  501    0 -0.00000000000E+00 -0.00000000000E+00 -0.34408119860E+03  0.34408119860E+03  0.00000000000E+00 0.  1.
          2    1    1    2  501    0 -0.76347429971E-01 -0.21405327136E+02 -0.72763505309E+02  0.75846697776E+02  0.00000000000E+00 0.  1.
          1    1    1    2  502    0  0.76347429971E-01  0.21405327136E+02 -0.26935149138E+03  0.27020070275E+03  0.00000000000E+00 0.  1.
</event>
<event>
 4    1  0.3837333E+003  0.2347786E+02  0.7546771E-02  0.1486583E+00
          2   -1    0    0  502    0  0.00000000000E+00  0.00000000000E+00  0.88661624640E+03  0.88661624640E+03  0.00000000000E+00 0.  1.
          1   -1    0    0  501    0 -0.00000000000E+00 -0.00000000000E+00 -0.10323714936E+02  0.10323714936E+02  0.00000000000E+00 0.  1.
          2    1    1    2  501    0 -0.19342222533E+02  0.13307460284E+02  0.87290300850E+03  0.87321868528E+03  0.00000000000E+00 0.  1.
          1    1    1    2  502    0  0.19342222533E+02 -0.13307460284E+02  0.33895229610E+01  0.23721276054E+02  0.00000000000E+00 0.  1.
</event>
<event>
 4    1  0.3837333E+003  0.2378280E+02  0.7546771E-02  0.1482896E+00
          2   -1    0    0  502    0  0.00000000000E+00  0.00000000000E+00  0.65825448430E+03  0.65825448430E+03  0.00000000000E+00 0. -1.
          1   -1    0    0  501    0 -0.00000000000E+00 -0.00000000000E+00 -0.23124481631E+03  0.23124481631E+03  0.00000000000E+00 0.  1.
          2    1    1    2  501    0 -0.13703527269E+02 -0.19437975227E+02  0.65742740008E+03  0.65785743738E+03  0.00000000000E+00 0. -1.
          1    1    1    2  502    0  0.13703527269E+02  0.19437975227E+02 -0.23041773209E+03  0.23164186324E+03  0.00000000000E+00 0.  1.
</event>
<event>
 4    1  0.3837333E+003  0.2314069E+02  0.7546771E-02  0.1490739E+00
          2   -1    0    0  502    0  0.00000000000E+00  0.00000000000E+00  0.21046997284E+01  0.21046997284E+01  0.00000000000E+00 0. -1.
          1   -1    0    0  501    0 -0.00000000000E+00 -0.00000000000E+00 -0.10456726348E+04  0.10456726348E+04  0.00000000000E+00 0. -1.
          2    1    1    2  501    0 -0.88319357161E+01  0.21388977813E+02 -0.66065190175E+02  0.70000720091E+02  0.00000000000E+00 0. -1.
          1    1    1    2  502    0  0.88319357161E+01 -0.21388977813E+02 -0.97750274489E+03  0.97777661443E+03  0.00000000000E+00 0. -1.
</event>
<event>
 4    1  0.3837333E+003  0.2175078E+02  0.7546771E-02  0.1508810E+00
          2   -1    0    0  502    0  0.00000000000E+00  0.00000000000E+00  0.14312475552E+04  0.14312475552E+04  0.00000000000E+00 0. -1.
          1   -1    0    0  501    0 -0.00000000000E+00 -0.00000000000E+00 -0.33560454164E+00  0.33560454164E+00  0.00000000000E+00 0. -1.
          2    1    1    2  501    0 -0.66629293852E+00  0.21740557316E+02  0.62759285714E+03  0.62796965700E+03  0.00000000000E+00 0. -1.
          1    1    1    2  502    0  0.66629293852E+00 -0.21740557316E+02  0.80331909356E+03  0.80361350278E+03  0.00000000000E+00 0. -1.
</event>
<event>
 4    1  0.3837333E+003  0.2480392E+02  0.7546771E-02  0.1471009E+00
          2   -1    0    0  502    0  0.00000000000E+00  0.00000000000E+00  0.15972238016E+03  0.15972238016E+03  0.00000000000E+00 0. -1.
          1   -1    0    0  501    0 -0.00000000000E+00 -0.00000000000E+00 -0.18631721400E+02  0.18631721400E+02  0.00000000000E+00 0.  1.
          2    1    1    2  501    0 -0.18352728913E+02  0.16685676993E+02  0.14997106074E+03  0.15200839955E+03  0.00000000000E+00 0. -1.
          1    1    1    2  502    0  0.18352728913E+02 -0.16685676993E+02 -0.88804019744E+01  0.26345702012E+02  0.00000000000E+00 0.  1.
</event>
<event>
 4    1  0.3837333E+003  0.2884312E+02  0.7546771E-02  0.1429923E+00
          2   -1    0    0  502    0  0.00000000000E+00  0.00000000000E+00  0.12229778201E+04  0.12229778201E+04  0.00000000000E+00 0.  1.
          1   -1    0    0  501    0 -0.00000000000E+00 -0.00000000000E+00 -0.14449438340E+01  0.14449438340E+01  0.00000000000E+00 0. -1.
          2    1    1    2  501    0 -0.28019662106E+02 -0.68428237611E+01  0.10561363384E+04  0.10565301183E+04  0.00000000000E+00 0.  1.
          1    1    1    2  502    0  0.28019662106E+02  0.68428237611E+01  0.16539653786E+03  0.16789264558E+03  0.00000000000E+00 0. -1.
</event>
<event>
 4    1  0.3837333E+003  0.4201885E+02  0.7546771E-02  0.1337045E+00
          2   -1    0    0  502    0  0.00000000000E+00  0.00000000000E+00  0.25061160179E+01  0.25061160179E+01  0.00000000000E+00 0.  1.
          1   -1    0    0  501    0 -0.00000000000E+00 -0.00000000000E+00 -0.92283026604E+03  0.92283026604E+03  0.00000000000E+00 0. -1.
          2    1    1    2  501    0 -0.39576248868E+02  0.14117524179E+02 -0.23512416442E+03  0.23884923416E+03  0.00000000000E+00 0.  1.
          1    1    1    2  502    0  0.39576248868E+02 -0.14117524179E+02 -0.68519998560E+03  0.68648714790E+03  0.00000000000E+00 0. -1.
</event>
<event>
 4    1  0.3837333E+003  0.2117903E+02  0.7546771E-02  0.1516724E+00
          2   -1    0    0  502    0  0.00000000000E+00  0.00000000000E+00  0.55148676459E+01  0.55148676459E+01  0.00000000000E+00 0.  1.
          1   -1    0    0  501    0 -0.00000000000E+00 -0.00000000000E+00 -0.11146563499E+03  0.11146563499E+03  0.00000000000E+00 0. -1.
          2    1    1    2  501    0 -0.21159200926E+02 -0.91620773712E+00 -0.22565284430E+02  0.30947427710E+02  0.00000000000E+00 0.  1.
          1    1    1    2  502    0  0.21159200926E+02  0.91620773712E+00 -0.83385482918E+02  0.86033074930E+02  0.00000000000E+00 0. -1.
</event>
<event>
 4    1  0.3837333E+003  0.2070602E+02  0.7546771E-02  0.1523504E+00
          2   -1    0    0  502    0  0.00000000000E+00  0.00000000000E+00  0.78824087151E+03  0.78824087151E+03  0.00000000000E+00 0.  1.
          1   -1    0    0  501    0 -0.00000000000E+00 -0.00000000000E+00 -0.29250696662E+02  0.29250696662E+02  0.00000000000E+00 0. -1.
          2    1    1    2  501    0 -0.14893846539E+02 -0.14384459493E+02  0.78442270713E+03  0.78469594289E+03  0.00000000000E+00 0.  1.
          1    1    1    2  502    0  0.14893846539E+02  0.14384459493E+02 -0.25432532275E+02  0.32795625281E+02  0.00000000000E+00 0. -1.
</event>
<event>
 4    1  0.3837333E+003  0.5020389E+02  0.7546771E-02  0.1297291E+00
          2   -1    0    0  502    0  0.00000000000E+00  0.00000000000E+00  0.31166755510E+02  0.31166755510E+02  0.00000000000E+00 0.  1.
          1   -1    0    0  501    0 -0.00000000000E+00 -0.00000000000E+00 -0.63365882139E+03  0.63365882139E+03  0.00000000000E+00 0. -1.
          2    1    1    2  501    0 -0.48961651432E+02 -0.11098967681E+02  0.92313174691E+01  0.51045544534E+02  0.00000000000E+00 0.  1.
          1    1    1    2  502    0  0.48961651432E+02  0.11098967681E+02 -0.61172338335E+03  0.61378003237E+03  0.00000000000E+00 0. -1.
</event>
<event>
 4    1  0.3837333E+003  0.2956448E+02  0.7546771E-02  0.1423419E+00
          2   -1    0    0  502    0  0.00000000000E+00  0.00000000000E+00  0.63878661603E+03  0.63878661603E+03  0.00000000000E+00 0. -1.
          1   -1    0    0  501    0 -0.00000000000E+00 -0.00000000000E+00 -0.95760308552E+01  0.95760308552E+01  0.00000000000E+00 0. -1.
          2    1    1    2  501    0 -0.17248354564E+02 -0.24011514590E+02  0.61473327765E+03  0.61544379208E+03  0.00000000000E+00 0. -1.
          1    1    1    2  502    0  0.17248354564E+02  0.24011514590E+02  0.14477307526E+02  0.32918854799E+02  0.00000000000E+00 0. -1.
</event>
<event>
 4    1  0.3837333E+003  0.2191771E+02  0.7546771E-02  0.1506555E+00
          2   -1    0    0  502    0  0.00000000000E+00  0.00000000000E+00  0.12717901582E+04  0.12717901582E+04  0.00000000000E+00 0.  1.
          1   -1    0    0  501    0 -0.00000000000E+00 -0.00000000000E+00 -0.41355700478E+00  0.41355700478E+00  0.00000000000E+00 0.  1.
          2    1    1    2  501    0 -0.12839226918E+02  0.17763438839E+02  0.44844713241E+03  0.44898242290E+03  0.00000000000E+00 0.  1.
          1    1    1    2  502    0  0.12839226918E+02 -0.17763438839E+02  0.82292946877E+03  0.82322129229E+03  0.00000000000E+00 0.  1.
</event>
<event>
 4    1  0.3837333E+003  0.2061041E+02  0.7546771E-02  0.1524900E+00
          2   -1    0    0  502    0  0.00000000000E+00  0.00000000000E+00  0.75705119045E+03  0.75705119045E+03  0.00000000000E+00 0.  1.
          1   -1    0    0  501    0 -0.00000000000E+00 -0.00000000000E+00 -0.67364103502E+03  0.67364103502E+03  0.00000000000E+00 0.  1.
          2    1    1    2  501    0  0.18892208250E+02 -0.82385409456E+01  0.75675320418E+03  0.75703381769E+03  0.00000000000E+00 0.  1.
          1    1    1    2  502    0 -0.18892208250E+02  0.82385409456E+01 -0.67334304874E+03  0.67365840778E+03  0.00000000000E+00 0.  1.
</event>
<event>
 4    1  0.3837333E+003  0.2277473E+02  0.7546771E-02  0.1495346E+00
          2   -1    0    0  502    0  0.00000000000E+00  0.00000000000E+00  0.37670826626E+03  0.37670826626E+03  0.00000000000E+00 0. -1.
          1   -1    0    0  501    0 -0.00000000000E+00 -0.00000000000E+00 -0.71110943171E+01  0.71110943171E+01  0.00000000000E+00 0. -1.
          2    1    1    2  501    0 -0.13810300293E+02  0.18109770768E+02  0.35713022091E+03  0.35785567325E+03  0.00000000000E+00 0. -1.
          1    1    1    2  502    0  0.13810300293E+02 -0.18109770768E+02  0.12466951033E+02  0.25963687325E+02  0.00000000000E+00 0. -1.
</event>
<event>
 4    1  0.3837333E+003  0.2386586E+02  0.7546771E-02  0.1481903E+00
          2   -1    0    0  502    0  0.00000000000E+00  0.00000000000E+00  0.31393605144E+01  0.31393605144E+01  0.00000000000E+00 0. -1.
          1   -1    0    0  501    0 -0.00000000000E+00 -0.00000000000E+00 -0.37899949240E+03  0.37899949240E+03  0.00000000000E+00 0. -1.
          2    1    1    2  501    0 -0.21035947414E+02 -0.11272446952E+02 -0.49977402655E+02  0.55383390291E+02  0.00000000000E+00 0. -1.
          1    1    1    2  502    0  0.21035947414E+02  0.11272446952E+02 -0.32588272923E+03  0.32675546262E+03  0.00000000000E+00 0. -1.
</event>
<event>
 4    1  0.3837333E+003  0.7594905E+02  0.7546771E-02  0.1213578E+00
          2   -1    0    0  502    0  0.00000000000E+00  0.00000000000E+00  0.12117786962E+03  0.12117786962E+03  0.00000000000E+00 0. -1.
          1   -1    0    0  501    0 -0.00000000000E+00 -0.00000000000E+00 -0.50706254460E+03  0.50706254460E+03  0.00000000000E+00 0. -1.
          2    1    1    2  501    0 -0.67187857183E+00 -0.75946076130E+02  0.10607021478E+03  0.13045745806E+03  0.00000000000E+00 0. -1.
          1    1    1    2  502    0  0.67187857183E+00  0.75946076130E+02 -0.49195488976E+03  0.49778295617E+03  0.00000000000E+00 0. -1.
</event>
<event>
 4    1  0.3837333E+003  0.2392779E+02  0.7546771E-02  0.1481165E+00
          2   -1    0    0  502    0  0.00000000000E+00  0.00000000000E+00  0.99578221009E+01  0.99578221009E+01  0.00000000000E+00 0.  1.
          1   -1    0    0  501    0 -0.00000000000E+00 -0.00000000000E+00 -0.83914723845E+02  0.83914723845E+02  0.00000000000E+00 0.  1.
          2    1    1    2  501    0 -0.23927456464E+02 -0.12577828560E+00 -0.10642919358E+02  0.26187988190E+02  0.00000000000E+00 0.  1.
          1    1    1    2  502    0  0.23927456464E+02  0.12577828560E+00 -0.63313982386E+02  0.67684557755E+02  0.00000000000E+00 0.  1.
</event>
<event>
 4    1  0.3837333E+003  0.2468767E+02  0.7546771E-02  0.1472328E+00
          2   -1    0    0  502    0  0.00000000000E+00  0.00000000000E+00  0.13460020547E+02  0.13460020547E+02  0.00000000000E+00 0. -1.
          1   -1    0    0  501    0 -0.00000000000E+00 -0.00000000000E+00 -0.10608134534E+03  0.10608134534E+03  0.00000000000E+00 0. -1.
          2    1    1    2  501    0 -0.35017214318E+01 -0.24438066900E+02 -0.10602784363E+01  0.24710430129E+02  0.00000000000E+00 0. -1.
          1    1    1    2  502    0  0.35017214318E+01  0.24438066900E+02 -0.91561046359E+02  0.94830935761E+02  0.00000000000E+00 0. -1.
</event>
<event>
 4    1  0.3837333E+003  0.2367532E+02  0.7546771E-02  0.1484188E+00
          2   -1    0    0  502    0  0.00000000000E+00  0.00000000000E+00  0.13294097608E+03  0.13294097608E+03  0.00000000000E+00 0.  1.
          1   -1    0    0  501    0 -0.00000000000E+00 -0.00000000000E+00 -0.77548637345E+03  0.77548637345E+03  0.00000000000E+00 0.  1.
          2    1    1    2  501    0  0.21651690953E+02 -0.95773121940E+01  0.13170451544E+03  0.13381554475E+03  0.00000000000E+00 0.  1.
          1    1    1    2  502    0 -0.21651690953E+02  0.95773121940E+01 -0.77424991281E+03  0.77461180478E+03  0.00000000000E+00 0.  1.
</event>
<event>
 4    1  0.3837333E+003  0.3430389E+02  0.7546771E-02  0.1385524E+00
          2   -1    0    0  502    0  0.00000000000E+00  0.00000000000E+00  0.92468789700E+02  0.92468789700E+02  0.00000000000E+00 0. -1.
          1   -1    0    0  501    0 -0.00000000000E+00 -0.00000000000E+00 -0.29095023044E+03  0.29095023044E+03  0.00000000000E+00 0. -1.
          2    1    1    2  501    0  0.14048768763E+02  0.31295190986E+02  0.88229283079E+02  0.94663420999E+02  0.00000000000E+00 0. -1.
          1    1    1    2  502    0 -0.14048768763E+02 -0.31295190986E+02 -0.28671072382E+03  0.28875559914E+03  0.00000000000E+00 0. -1.
</event>
<event>
 4    1  0.3837333E+003  0.4337486E+02  0.7546771E-02  0.1329769E+00
          2   -1    0    0  502    0  0.00000000000E+00  0.00000000000E+00  0.19739950831E+03  0.19739950831E+03  0.00000000000E+00 0. -1.
          1   -1    0    0  501    0 -0.00000000000E+00 -0.00000000000E+00 -0.86661014259E+02  0.86661014259E+02  0.00000000000E+00 0.  1.
          2    1    1    2  501    0 -0.42806434447E+02  0.69990902145E+01  0.18936197538E+03  0.19426614685E+03  0.00000000000E+00 0. -1.
          1    1    1    2  502    0  0.42806434447E+02 -0.69990902145E+01 -0.78623481329E+02  0.89794375715E+02  0.00000000000E+00 0.  1.
</event>
<event>
 4    1  0.3837333E+003  0.6131983E+02  0.7546771E-02  0.1255413E+00
          2   -1    0    0  502    0  0.00000000000E+00  0.00000000000E+00  0.21048063469E+04  0.21048063469E+04  0.00000000000E+00 0. -1.
          1   -1    0    0  501    0 -0.00000000000E+00 -0.00000000000E+00 -0.17869310365E+01  0.17869310365E+01  0.00000000000E+00 0.  1.
          2    1    1    2  501    0  0.56475251628E+02 -0.23888572760E+02  0.10341145293E+04  0.10359309715E+04  0.00000000000E+00 0. -1.
          1    1    1    2  502    0 -0.56475251628E+02  0.23888572760E+02  0.10689048866E+04  0.10706623065E+04  0.00000000000E+00 0.  1.
</event>
<event>
 4    1  0.3837333E+003  0.2757356E+02  0.7546771E-02  0.1441930E+00
          2   -1    0    0  502    0  0.00000000000E+00  0.00000000000E+00  0.81530376201E+02  0.81530376201E+02  0.00000000000E+00 0.  1.
          1   -1    0    0  501    0 -0.00000000000E+00 -0.00000000000E+00 -0.18882036363E+02  0.18882036363E+02  0.00000000000E+00 0. -1.
          2    1    1    2  501    0 -0.18422301991E+02 -0.20516339997E+02  0.67042082175E+02  0.72490980128E+02  0.00000000000E+00 0.  1.
          1    1    1    2  502    0  0.18422301991E+02  0.20516339997E+02 -0.43937423371E+01  0.27921432436E+02  0.00000000000E+00 0. -1.
</event>
<event>
 4    1  0.3837333E+003  0.2403103E+02  0.7546771E-02  0.1479942E+00
          2   -1    0    0  502    0  0.00000000000E+00  0.00000000000E+00  0.82234977763E+01  0.82234977763E+01  0.00000000000E+00 0.  1.
          1   -1    0    0  501    0 -0.00000000000E+00 -0.00000000000E+00 -0.10735225621E+03  0.10735225621E+03  0.00000000000E+00 0.  1.
          2    1    1    2  501    0 -0.11880328653E+02  0.20888953280E+02 -0.15579884485E+02  0.28639542221E+02  0.00000000000E+00 0.  1.
          1    1    1    2  502    0  0.11880328653E+02 -0.20888953280E+02 -0.83548873953E+02  0.86936211770E+02  0.00000000000E+00 0.  1.
</event>
<event>
 4    1  0.3837333E+003  0.3753959E+02  0.7546771E-02  0.1363540E+00
          2   -1    0    0  502    0  0.00000000000E+00  0.00000000000E+00  0.19274984236E+03  0.19274984236E+03  0.00000000000E+00 0. -1.
          1   -1    0    0  501    0 -0.00000000000E+00 -0.00000000000E+00 -0.11731097517E+03  0.11731097517E+03  0.00000000000E+00 0.  1.
          2    1    1    2  501    0  0.37519465466E+02 -0.12290695770E+01  0.18784117332E+03  0.19155554623E+03  0.00000000000E+00 0. -1.
          1    1    1    2  502    0 -0.37519465466E+02  0.12290695770E+01 -0.11240230612E+03  0.11850527129E+03  0.00000000000E+00 0.  1.
</event>
<event>
 4    1  0.3837333E+003  0.2094152E+02  0.7546771E-02  0.1520101E+00
          2   -1    0    0  502    0  0.00000000000E+00  0.00000000000E+00  0.12661349640E+02  0.12661349640E+02  0.00000000000E+00 0.  1.
          1   -1    0    0  501    0 -0.00000000000E+00 -0.00000000000E+00 -0.12442221208E+03  0.12442221208E+03  0.00000000000E+00 0.  1.
          2    1    1    2  501    0 -0.93676088694E+01 -0.18729531110E+02  0.23445751878E+01  0.21072362571E+02  0.00000000000E+00 0.  1.
          1    1    1    2  502    0  0.93676088694E+01  0.18729531110E+02 -0.11410543763E+03  0.11601119915E+03  0.00000000000E+00 0.  1.
</event>
<event>
 4    1  0.3837333E+003  0.2360534E+02  0.7546771E-02  0.1485034E+00
          2   -1    0    0  502    0  0.00000000000E+00  0.00000000000E+00  0.10220767690E+04  0.10220767690E+04  0.00000000000E+00 0. -1.
          1   -1    0    0  501    0 -0.00000000000E+00 -0.00000000000E+00 -0.10451640023E+02  0.10451640023E+02  0.00000000000E+00 0. -1.
          2    1    1    2  501    0  0.21605152732E+02 -0.95094517776E+01  0.10084318094E+04  0.10087080482E+04  0.00000000000E+00 0. -1.
          1    1    1    2  502    0 -0.21605152732E+02  0.95094517776E+01  0.31933195281E+01  0.23820360772E+02  0.00000000000E+00 0. -1.
</event>
<event>
 4    1  0.3837333E+003  0.2088599E+02  0.7546771E-02  0.1520899E+00
          2   -1    0    0  502    0  0.00000000000E+00  0.00000000000E+00  0.78793989826E+03  0.78793989826E+03  0.00000000000E+00 0.  1.
          1   -1    0    0  501    0 -0.00000000000E+00 -0.00000000000E+00 -0.61651129821E+01  0.61651129821E+01  0.00000000000E+00 0. -1.
          2    1    1    2  501    0  0.73169715863E+01 -0.19562374554E+02  0.76969297770E+03  0.76997630125E+03  0.00000000000E+00 0.  1.
          1    1    1    2  502    0 -0.73169715863E+01  0.19562374554E+02  0.12081807578E+02  0.24128709989E+02  0.00000000000E+00 0. -1.
</event>
<event>
 4    1  0.3837333E+003  0.2031305E+02  0.7546771E-02  0.1529303E+00
          2   -1    0    0  502    0  0.00000000000E+00  0.00000000000E+00  0.46104142520E+00  0.46104142520E+00  0.00000000000E+00 0.  1.
          1   -1    0    0  501    0 -0.00000000000E+00 -0.00000000000E+00 -0.89499852031E+03  0.89499852031E+03  0.00000000000E+00 0.  1.
          2    1    1    2  501    0 -0.63138868173E+01  0.19306862632E+02 -0.44492760617E+03  0.44539105834E+03  0.00000000000E+00 0.  1.
          1    1    1    2  502    0  0.63138868173E+01 -0.19306862632E+02 -0.44960987272E+03  0.45006850340E+03  0.00000000000E+00 0.  1.
</event>
<event>
 4    1  0.3837333E+003  0.2277236E+02  0.7546771E-02  0.1495377E+00
          2   -1    0    0  502    0  0.00000000000E+00  0.00000000000E+00  0.35274858342E+02  0.35274858342E+02  0.00000000000E+00 0. -1.
          1   -1    0    0  501    0 -0.00000000000E+00 -0.00000000000E+00 -0.15933104132E+03  0.15933104132E+03  0.00000000000E+00 0. -1.
          2    1    1    2  501    0 -0.17194669709E+02 -0.14930624074E+02  0.30677274435E+02  0.38205698114E+02  0.00000000000E+00 0. -1.
          1    1    1    2  502    0  0.17194669709E+02  0.14930624074E+02 -0.15473345741E+03  0.15640020155E+03  0.00000000000E+00 0. -1.
</event>
<event>
 4    1  0.3837333E+003  0.2481970E+02  0.7546771E-02  0.1470831E+00
          2   -1    0    0  502    0  0.00000000000E+00  0.00000000000E+00  0.21347188923E+02  0.21347188923E+02  0.00000000000E+00 0.  1.
          1   -1    0    0  501    0 -0.00000000000E+00 -0.00000000000E+00 -0.17523551941E+03  0.17523551941E+03  0.00000000000E+00 0.  1.
          2    1    1    2  501    0 -0.22966582179E+02  0.94103045510E+01  0.12890259564E+02  0.27967418908E+02  0.00000000000E+00 0.  1.
          1    1    1    2  502    0  0.22966582179E+02 -0.94103045510E+01 -0.16677859005E+03  0.16861528943E+03  0.00000000000E+00 0.  1.
</event>
<event>
 4    1  0.3837333E+003  0.1187536E+03  0.7546771E-02  0.1134775E+00
          2   -1    0    0  502    0  0.00000000000E+00  0.00000000000E+00  0.19423944889E+03  0.19423944889E+03  0.00000000000E+00 0.  1.
          1   -1    0    0  501    0 -0.00000000000E+00 -0.00000000000E+00 -0.13557451128E+03  0.13557451128E+03  0.00000000000E+00 0. -1.
          2    1    1    2  501    0 -0.48238034065E+02  0.10851502163E+03  0.14172078510E+03  0.18489780631E+03  0.00000000000E+00 0.  1.
          1    1    1    2  502    0  0.48238034065E+02 -0.10851502163E+03 -0.83055847482E+02  0.14491615386E+03  0.00000000000E+00 0. -1.
</event>
<event>
 4    1  0.3837333E+003  0.2621738E+02  0.7546771E-02  0.1455632E+00
          2   -1    0    0  502    0  0.00000000000E+00  0.00000000000E+00  0.46960193474E+03  0.46960193474E+03  0.00000000000E+00 0.  1.
          1   -1    0    0  501    0 -0.00000000000E+00 -0.00000000000E+00 -0.83218048659E+01  0.83218048659E+01  0.00000000000E+00 0.  1.
          2    1    1    2  501    0 -0.18171843297E+02  0.18898024438E+02  0.44757138093E+03  0.44833859107E+03  0.00000000000E+00 0.  1.
          1    1    1    2  502    0  0.18171843297E+02 -0.18898024438E+02  0.13708748953E+02  0.29585148543E+02  0.00000000000E+00 0.  1.
</event>
<event>
 4    1  0.3837333E+003  0.2115847E+02  0.7546771E-02  0.1517014E+00
          2   -1    0    0  502    0  0.00000000000E+00  0.00000000000E+00  0.15686052689E+03  0.15686052689E+03  0.00000000000E+00 0. -1.
          1   -1    0    0  501    0 -0.00000000000E+00 -0.00000000000E+00 -0.22055718248E+03  0.22055718248E+03  0.00000000000E+00 0. -1.
          2    1    1    2  501    0  0.18557756446E+02 -0.10163186093E+02  0.15563560735E+03  0.15706725613E+03  0.00000000000E+00 0. -1.
          1    1    1    2  502    0 -0.18557756446E+02  0.10163186093E+02 -0.21933226294E+03  0.22035045324E+03  0.00000000000E+00 0. -1.
</event>
<event>
 4    1  0.3837333E+003  0.2705401E+02  0.7546771E-02  0.1447066E+00
          2   -1    0    0  502    0  0.00000000000E+00  0.00000000000E+00  0.11512923564E+04  0.11512923564E+04  0.00000000000E+00 0.  1.
          1   -1    0    0  501    0 -0.00000000000E+00 -0.00000000000E+00 -0.76671038565E+01  0.76671038565E+01  0.00000000000E+00 0.  1.
          2    1    1    2  501    0 -0.11310085955E+02 -0.24576439501E+02  0.11267480489E+04  0.11270727949E+04  0.00000000000E+00 0.  1.
          1    1    1    2  502    0  0.11310085955E+02  0.24576439501E+02  0.16877203693E+02  0.31886665353E+02  0.00000000000E+00 0.  1.
</event>
<event>
 4    1  0.3837333E+003  0.2510755E+02  0.7546771E-02  0.1467604E+00
          2   -1    0    0  502    0  0.00000000000E+00  0.00000000000E+00  0.49209998741E+03  0.49209998741E+03  0.00000000000E+00 0. -1.
          1   -1    0    0  501    0 -0.00000000000E+00 -0.00000000000E+00 -0.36137116184E+01  0.36137116184E+01  0.00000000000E+00 0.  1.
          2    1    1    2  501    0 -0.19796601295E+02  0.15442920818E+02  0.44338060364E+03  0.44409092415E+03  0.00000000000E+00 0. -1.
          1    1    1    2  502    0  0.19796601295E+02 -0.15442920818E+02  0.45105672158E+02  0.51622774887E+02  0.00000000000E+00 0.  1.
</event>
<event>
 4    1  0.3837333E+003  0.2072170E+02  0.7546771E-02  0.1523276E+00
          2   -1    0    0  502    0  0.00000000000E+00  0.00000000000E+00  0.36430501318E+03  0.36430501318E+03  0.00000000000E+00 0. -1.
          1   -1    0    0  501    0 -0.00000000000E+00 -0.00000000000E+00 -0.42629310465E+03  0.42629310465E+03  0.00000000000E+00 0. -1.
          2    1    1    2  501    0 -0.18455071306E+02  0.94233261075E+01  0.36375815656E+03  0.36434789034E+03  0.00000000000E+00 0. -1.
          1    1    1    2  502    0  0.18455071306E+02 -0.94233261075E+01 -0.42574624803E+03  0.42625022750E+03  0.00000000000E+00 0. -1.
</event>
<event>
 4    1  0.3837333E+003  0.2384180E+02  0.7546771E-02  0.1482190E+00
          2   -1    0    0  502    0  0.00000000000E+00  0.00000000000E+00  0.10680472436E+03  0.10680472436E+03  0.00000000000E+00 0.  1.
          1   -1    0    0  501    0 -0.00000000000E+00 -0.00000000000E+00 -0.10617584049E+04  0.10617584049E+04  0.00000000000E+00 0.  1.
          2    1    1    2  501    0 -0.20713598018E+02 -0.11805848494E+02  0.10533850420E+03  0.10800292436E+03  0.00000000000E+00 0.  1.
          1    1    1    2  502    0  0.20713598018E+02  0.11805848494E+02 -0.10602921848E+04  0.10605602049E+04  0.00000000000E+00 0.  1.
</event>
<event>
 4    1  0.3837333E+003  0.2459120E+02  0.7546771E-02  0.1473429E+00
          2   -1    0    0  502    0  0.00000000000E+00  0.00000000000E+00  0.17551970604E+04  0.17551970604E+04  0.00000000000E+00 0.  1.
          1   -1    0    0  501    0 -0.00000000000E+00 -0.00000000000E+00 -0.35706140215E+00  0.35706140215E+00  0.00000000000E+00 0.  1.
          2    1    1    2  501    0  0.17166307315E+02  0.17608093792E+02  0.10418281843E+04  0.10421183679E+04  0.00000000000E+00 0.  1.
          1    1    1    2  502    0 -0.17166307315E+02 -0.17608093792E+02  0.71301181465E+03  0.71343575387E+03  0.00000000000E+00 0.  1.
</event>
<event>
 4    1  0.3837333E+003  0.2850781E+02  0.7546771E-02  0.1433023E+00
          2   -1    0    0  502    0  0.00000000000E+00  0.00000000000E+00  0.17971544001E+04  0.17971544001E+04  0.00000000000E+00 0.  1.
          1   -1    0    0  501    0 -0.00000000000E+00 -0.00000000000E+00 -0.58170341637E+00  0.58170341637E+00  0.00000000000E+00 0.  1.
          2    1    1    2  501    0 -0.26488179268E+02  0.10539038858E+02  0.13223835880E+04  0.13226908364E+04  0.00000000000E+00 0.  1.
          1    1    1    2  502    0  0.26488179268E+02 -0.10539038858E+02  0.47418910869E+03  0.47504526709E+03  0.00000000000E+00 0.  1.
</event>
<event>
 4    1  0.3837333E+003  0.2011735E+02  0.7546771E-02  0.1532249E+00
          2   -1    0    0  502    0  0.00000000000E+00  0.00000000000E+00  0.38879538883E+03  0.38879538883E+03  0.00000000000E+00 0.  1.
          1   -1    0    0  501    0 -0.00000000000E+00 -0.00000000000E+00 -0.26543238437E+01  0.26543238437E+01  0.00000000000E+00 0.  1.
          2    1    1    2  501    0  0.13554416587E+01  0.20071637592E+02  0.34566526674E+03  0.34625017616E+03  0.00000000000E+00 0.  1.
          1    1    1    2  502    0 -0.13554416587E+01 -0.20071637592E+02  0.40475798243E+02  0.45199536514E+02  0.00000000000E+00 0.  1.
</event>
<event>
 4    1  0.3837333E+003  0.2008725E+02  0.7546771E-02  0.1532706E+00
          2   -1    0    0  502    0  0.00000000000E+00  0.00000000000E+00  0.10962590001E+03  0.10962590001E+03  0.00000000000E+00 0.  1.
          1   -1    0    0  501    0 -0.00000000000E+00 -0.00000000000E+00 -0.23679260420E+03  0.23679260420E+03  0.00000000000E+00 0. -1.
          2    1    1    2  501    0  0.31974555738E+01 -0.19831132174E+02  0.10827445543E+03  0.11012200155E+03  0.00000000000E+00 0.  1.
          1    1    1    2  502    0 -0.31974555738E+01  0.19831132174E+02 -0.23544115962E+03  0.23629650266E+03  0.00000000000E+00 0. -1.
</event>
<event>
 4    1  0.3837333E+003  0.2366678E+02  0.7546771E-02  0.1484291E+00
          2   -1    0    0  502    0  0.00000000000E+00  0.00000000000E+00  0.64954059320E+01  0.64954059320E+01  0.00000000000E+00 0. -1.
          1   -1    0    0  501    0 -0.00000000000E+00 -0.00000000000E+00 -0.14628515235E+03  0.14628515235E+03  0.00000000000E+00 0.  1.
          2    1    1    2  501    0  0.18868894762E+02 -0.14285705270E+02 -0.20950446054E+02  0.31607558502E+02  0.00000000000E+00 0. -1.
          1    1    1    2  502    0 -0.18868894762E+02  0.14285705270E+02 -0.11883930036E+03  0.12117299978E+03  0.00000000000E+00 0.  1.
</event>
<event>
 4    1  0.3837333E+003  0.3166255E+02  0.7546771E-02  0.1405679E+00
          2   -1    0    0  502    0  0.00000000000E+00  0.00000000000E+00  0.20338255921E+02  0.20338255921E+02  0.00000000000E+00 0. -1.
          1   -1    0    0  501    0 -0.00000000000E+00 -0.00000000000E+00 -0.55676140712E+03  0.55676140712E+03  0.00000000000E+00 0.  1.
          2    1    1    2  501    0  0.13238285209E+02 -0.28762210167E+02  0.72690876898E+01  0.32486251935E+02  0.00000000000E+00 0. -1.
          1    1    1    2  502    0 -0.13238285209E+02  0.28762210167E+02 -0.54369223889E+03  0.54461341111E+03  0.00000000000E+00 0.  1.
</event>
<event>
 4    1  0.3837333E+003  0.2704447E+02  0.7546771E-02  0.1447162E+00
          2   -1    0    0  502    0  0.00000000000E+00  0.00000000000E+00  0.11052187362E+03  0.11052187362E+03  0.00000000000E+00 0.  1.
          1   -1    0    0  501    0 -0.00000000000E+00 -0.00000000000E+00 -0.80193826017E+03  0.80193826017E+03  0.00000000000E+00 0. -1.
          2    1    1    2  501    0 -0.15670884639E+02 -0.22041483263E+02  0.10863553095E+03  0.11195124919E+03  0.00000000000E+00 0.  1.
          1    1    1    2  502    0  0.15670884639E+02  0.22041483263E+02 -0.80005191751E+03  0.80050888460E+03  0.00000000000E+00 0. -1.
</event>
<event>
 4    1  0.3837333E+003  0.9554378E+02  0.7546771E-02  0.1171762E+00
          2   -1    0    0  502    0  0.00000000000E+00  0.00000000000E+00  0.63860774158E+03  0.63860774158E+03  0.00000000000E+00 0.  1.
          1   -1    0    0  501    0 -0.00000000000E+00 -0.00000000000E+00 -0.34856235134E+02  0.34856235134E+02  0.00000000000E+00 0. -1.
          2    1    1    2  501    0  0.58538950598E+02  0.75510302668E+02  0.56050248893E+03  0.56858742041E+03  0.00000000000E+00 0.  1.
          1    1    1    2  502    0 -0.58538950598E+02 -0.75510302668E+02  0.43249017510E+02  0.10487655630E+03  0.00000000000E+00 0. -1.
</event>
<event>
 4    1  0.3837333E+003  0.1103496E+03  0.7546771E-02  0.1146989E+00
          2   -1    0    0  502    0  0.00000000000E+00  0.00000000000E+00  0.40693777950E+04  0.40693777950E+04  0.00000000000E+00 0. -1.
          1   -1    0    0  501    0 -0.00000000000E+00 -0.00000000000E+00 -0.95232419817E+03  0.95232419817E+03  0.00000000000E+00 0.  1.
          2    1    1    2  501    0 -0.93505744267E+02 -0.58597823826E+02  0.40654299416E+04  0.40669272970E+04  0.00000000000E+00 0. -1.
          1    1    1    2  502    0  0.93505744267E+02  0.58597823826E+02 -0.94837634475E+03  0.95477469617E+03  0.00000000000E+00 0.  1.
</event>
<event>
 4    1  0.3837333E+003  0.2204090E+02  0.7546771E-02  0.1504906E+00
          2   -1    0    0  502    0  0.00000000000E+00  0.00000000000E+00  0.89304916015E+02  0.89304916015E+02  0.00000000000E+00 0.  1.
          1   -1    0    0  501    0 -0.00000000000E+00 -0.00000000000E+00 -0.69028136936E+01  0.69028136936E+01  0.00000000000E+00 0. -1.
          2    1    1    2  501    0 -0.22930285573E+01  0.21921302037E+02  0.63346787496E+02  0.67071729879E+02  0.00000000000E+00 0.  1.
          1    1    1    2  502    0  0.22930285573E+01 -0.21921302037E+02  0.19055314826E+02  0.29135999829E+02  0.00000000000E+00 0. -1.
</event>
<event>
 4    1  0.3837333E+003  0.4247362E+02  0.7546771E-02  0.1334570E+00
          2   -1    0    0  502    0  0.00000000000E+00  0.00000000000E+00  0.14722976742E+02  0.14722976742E+02  0.00000000000E+00 0.  1.
          1   -1    0    0  501    0 -0.00000000000E+00 -0.00000000000E+00 -0.14674526074E+03  0.14674526074E+03  0.00000000000E+00 0.  1.
          2    1    1    2  501    0 -0.41182558479E+02  0.10392552624E+02 -0.33215324226E+02  0.53919069320E+02  0.00000000000E+00 0.  1.
          1    1    1    2  502    0  0.41182558479E+02 -0.10392552624E+02 -0.98806959773E+02  0.10754916816E+03  0.00000000000E+00 0.  1.
</event>
<event>
 4    1  0.3837333E+003  0.5229979E+02  0.7546771E-02  0.1288498E+00
          2   -1    0    0  502    0  0.00000000000E+00  0.00000000000E+00  0.16509224858E+02  0.16509224858E+02  0.00000000000E+00 0. -1.
          1   -1    0    0  501    0 -0.00000000000E+00 -0.00000000000E+00 -0.44784641658E+03  0.44784641658E+03  0.00000000000E+00 0. -1.
          2    1    1    2  501    0  0.26189142012E+02 -0.45270269232E+02 -0.31375992533E+02  0.60989518305E+02  0.00000000000E+00 0. -1.
          1    1    1    2  502    0 -0.26189142012E+02  0.45270269232E+02 -0.39996119919E+03  0.40336612313E+03  0.00000000000E+00 0. -1.
</event>
<event>
 4    1  0.3837333E+003  0.2469507E+02  0.7546771E-02  0.1472244E+00
          2   -1    0    0  502    0  0.00000000000E+00  0.00000000000E+00  0.87033837496E+03  0.87033837496E+03  0.00000000000E+00 0. -1.
          1   -1    0    0  501    0 -0.00000000000E+00 -0.00000000000E+00 -0.14776724696E+01  0.14776724696E+01  0.00000000000E+00 0. -1.
          2    1    1    2  501    0 -0.18910661554E+02 -0.15881856837E+02  0.75051867963E+03  0.75092485308E+03  0.00000000000E+00 0. -1.
          1    1    1    2  502    0  0.18910661554E+02  0.15881856837E+02  0.11834202285E+03  0.12089119434E+03  0.00000000000E+00 0. -1.
</event>
<event>
 4    1  0.3837333E+003  0.2902366E+02  0.7546771E-02  0.1428275E+00
          2   -1    0    0  502    0  0.00000000000E+00  0.00000000000E+00  0.17372049970E+04  0.17372049970E+04  0.00000000000E+00 0. -1.
          1   -1    0    0  501    0 -0.00000000000E+00 -0.00000000000E+00 -0.13284897085E+01  0.13284897085E+01  0.00000000000E+00 0. -1.
          2    1    1    2  501    0 -0.12651442164E+01 -0.28996077318E+02  0.15606287835E+04  0.15608986428E+04  0.00000000000E+00 0. -1.
          1    1    1    2  502    0  0.12651442164E+01  0.28996077318E+02  0.17524772382E+03  0.17763484397E+03  0.00000000000E+00 0. -1.
</event>
<event>
 4    1  0.3837333E+003  0.2864501E+02  0.7546771E-02  0.1431748E+00
          2   -1    0    0  502    0  0.00000000000E+00  0.00000000000E+00  0.83212822626E+01  0.83212822626E+01  0.00000000000E+00 0. -1.
          1   -1    0    0  501    0 -0.00000000000E+00 -0.00000000000E+00 -0.10359781396E+03  0.10359781396E+03  0.00000000000E+00 0. -1.
          2    1    1    2  501    0  0.18549013053E+01  0.28584892221E+02 -0.35355833693E+02  0.45503535009E+02  0.00000000000E+00 0. -1.
          1    1    1    2  502    0 -0.18549013053E+01 -0.28584892221E+02 -0.59920698005E+02  0.66415561215E+02  0.00000000000E+00 0. -1.
</event>
<event>
 4    1  0.3837333E+003  0.2146638E+02  0.7546771E-02  0.1512709E+00
          2   -1    0    0  502    0  0.00000000000E+00  0.00000000000E+00  0.77316741019E+01  0.77316741019E+01  0.00000000000E+00 0.  1.
          1   -1    0    0  501    0 -0.00000000000E+00 -0.00000000000E+00 -0.82958737906E+02  0.82958737906E+02  0.00000000000E+00 0.  1.
          2    1    1    2  501    0 -0.33014958438E+01 -0.21210978802E+02 -0.13551752590E+02  0.25386128000E+02  0.00000000000E+00 0.  1.
          1    1    1    2  502    0  0.33014958438E+01  0.21210978802E+02 -0.61675311214E+02  0.65304284008E+02  0.00000000000E+00 0.  1.
</event>
<event>
 4    1  0.3837333E+003  0.2101235E+02  0.7546771E-02  0.1519089E+00
          2   -1    0    0  502    0  0.00000000000E+00  0.00000000000E+00  0.70331251716E+03  0.70331251716E+03  0.00000000000E+00 0.  1.
          1   -1    0    0  501    0 -0.00000000000E+00 -0.00000000000E+00 -0.53456175383E+01  0.53456175383E+01  0.00000000000E+00 0.  1.
          2    1    1    2  501    0  0.20713443090E+02 -0.35315719123E+01  0.68185737396E+03  0.68218105892E+03  0.00000000000E+00 0.  1.
          1    1    1    2  502    0 -0.20713443090E+02  0.35315719123E+01  0.16109525664E+02  0.26477075781E+02  0.00000000000E+00 0.  1.
</event>
<event>
 4    1  0.3837333E+003  0.2217495E+02  0.7546771E-02  0.1503127E+00
          2   -1    0    0  502    0  0.00000000000E+00  0.00000000000E+00  0.84361398060E+03  0.84361398060E+03  0.00000000000E+00 0.  1.
          1   -1    0    0  501    0 -0.00000000000E+00 -0.00000000000E+00 -0.64290889365E+00  0.64290889365E+00  0.00000000000E+00 0. -1.
          2    1    1    2  501    0 -0.22053259974E+02  0.23199501457E+01  0.55047028886E+03  0.55091675176E+03  0.00000000000E+00 0.  1.
          1    1    1    2  502    0  0.22053259974E+02 -0.23199501457E+01  0.29250078285E+03  0.29334013774E+03  0.00000000000E+00 0. -1.
</event>
<event>
 4    1  0.3837333E+003  0.2317280E+02  0.7546771E-02  0.1490340E+00
          2   -1    0    0  502    0  0.00000000000E+00  0.00000000000E+00  0.17703022900E+03  0.17703022900E+03  0.00000000000E+00 0.  1.
          1   -1    0    0  501    0 -0.00000000000E+00 -0.00000000000E+00 -0.20975901323E+02  0.20975901323E+02  0.00000000000E+00 0. -1.
          2    1    1    2  501    0 -0.22751355935E+02  0.43993596586E+01  0.16959259044E+03  0.17116841208E+03  0.00000000000E+00 0.  1.
          1    1    1    2  502    0  0.22751355935E+02 -0.43993596586E+01 -0.13538262756E+02  0.26837718248E+02  0.00000000000E+00 0. -1.
</event>
<event>
 4    1  0.3837333E+003  0.2358819E+02  0.7546771E-02  0.1485241E+00
          2   -1    0    0  502    0  0.00000000000E+00  0.00000000000E+00  0.78762495296E+03  0.78762495296E+03  0.00000000000E+00 0.  1.
          1   -1    0    0  501    0 -0.00000000000E+00 -0.00000000000E+00 -0.88101749744E+02  0.88101749744E+02  0.00000000000E+00 0. -1.
          2    1    1    2  501    0 -0.17361188570E+02 -0.15968466035E+02  0.78586594785E+03  0.78621987432E+03  0.00000000000E+00 0.  1.
          1    1    1    2  502    0  0.17361188570E+02  0.15968466035E+02 -0.86342744638E+02  0.89506828386E+02  0.00000000000E+00 0. -1.
</event>
<event>
 4    1  0.3837333E+003  0.2029912E+02  0.7546771E-02  0.1529511E+00
          2   -1    0    0  502    0  0.00000000000E+00  0.00000000000E+00  0.48754338958E+02  0.48754338958E+02  0.00000000000E+00 0.  1.
          1   -1    0    0  501    0 -0.00000000000E+00 -0.00000000000E+00 -0.29365962193E+02  0.29365962193E+02  0.00000000000E+00 0. -1.
          2    1    1    2  501    0 -0.19924355261E+02  0.38825510079E+01  0.42657716593E+02  0.47241241726E+02  0.00000000000E+00 0.  1.
          1    1    1    2  502    0  0.19924355261E+02 -0.38825510079E+01 -0.23269339828E+02  0.30879059424E+02  0.00000000000E+00 0. -1.
</event>
<event>
 4    1  0.3837333E+003  0.2886664E+02  0.7546771E-02  0.1429708E+00
          2   -1    0    0  502    0  0.00000000000E+00  0.00000000000E+00  0.70634695075E+02  0.70634695075E+02  0.00000000000E+00 0. -1.
          1   -1    0    0  501    0 -0.00000000000E+00 -0.00000000000E+00 -0.58129122116E+03  0.58129122116E+03  0.00000000000E+00 0. -1.
          2    1    1    2  501    0 -0.91383845620E+01  0.27381983420E+02  0.67310095047E+02  0.73238869350E+02  0.00000000000E+00 0. -1.
          1    1    1    2  502    0  0.91383845620E+01 -0.27381983420E+02 -0.57796662114E+03  0.57868704689E+03  0.00000000000E+00 0. -1.
</event>
<event>
 4    1  0.3837333E+003  0.2763220E+02  0.7546771E-02  0.1441359E+00
          2   -1    0    0  502    0  0.00000000000E+00  0.00000000000E+00  0.17541326908E+03  0.17541326908E+03  0.00000000000E+00 0.  1.
          1   -1    0    0  501    0 -0.00000000000E+00 -0.00000000000E+00 -0.60484735034E+01  0.60484735034E+01  0.00000000000E+00 0.  1.
          2    1    1    2  501    0 -0.59320856821E+01 -0.26987922289E+02  0.36642259685E+02  0.45893276031E+02  0.00000000000E+00 0.  1.
          1    1    1    2  502    0  0.59320856821E+01  0.26987922289E+02  0.13272253590E+03  0.13556846656E+03  0.00000000000E+00 0.  1.
</event>
<event>
 4    1  0.3837333E+003  0.2566647E+02  0.7546771E-02  0.1461484E+00
          2   -1    0    0  502    0  0.00000000000E+00  0.00000000000E+00  0.21680605060E+04  0.21680605060E+04  0.00000000000E+00 0. -1.
          1   -1    0    0  501    0 -0.00000000000E+00 -0.00000000000E+00 -0.40362026204E+00  0.40362026204E+00  0.00000000000E+00 0. -1.
          2    1    1    2  501    0 -0.53970403065E+01  0.25092617986E+02  0.16228845577E+04  0.16230875069E+04  0.00000000000E+00 0. -1.
          1    1    1    2  502    0  0.53970403065E+01 -0.25092617986E+02  0.54477232808E+03  0.54537661937E+03  0.00000000000E+00 0. -1.
</event>
<event>
 4    1  0.3837333E+003  0.4297848E+02  0.7546771E-02  0.1331864E+00
          2   -1    0    0  502    0  0.00000000000E+00  0.00000000000E+00  0.33584307607E+01  0.33584307607E+01  0.00000000000E+00 0.  1.
          1   -1    0    0  501    0 -0.00000000000E+00 -0.00000000000E+00 -0.17857658179E+04  0.17857658179E+04  0.00000000000E+00 0. -1.
          2    1    1    2  501    0 -0.11297176657E+02 -0.41467135897E+02 -0.14704479212E+03  0.15319699882E+03  0.00000000000E+00 0.  1.
          1    1    1    2  502    0  0.11297176657E+02  0.41467135897E+02 -0.16353625951E+04  0.16359272499E+04  0.00000000000E+00 0. -1.
</event>
<event>
 4    1  0.3837333E+003  0.2699204E+02  0.7546771E-02  0.1447688E+00
          2   -1    0    0  502    0  0.00000000000E+00  0.00000000000E+00  0.86557763688E+03  0.86557763688E+03  0.00000000000E+00 0.  1.
          1   -1    0    0  501    0 -0.00000000000E+00 -0.00000000000E+00 -0.75656584062E+01  0.75656584062E+01  0.00000000000E+00 0. -1.
          2    1    1    2  501    0 -0.14099869717E+02  0.23016594644E+02  0.84057643189E+03  0.84100969543E+03  0.00000000000E+00 0.  1.
          1    1    1    2  502    0  0.14099869717E+02 -0.23016594644E+02  0.17435546580E+02  0.32133599854E+02  0.00000000000E+00 0. -1.
</event>
<event>
 4    1  0.3837333E+003  0.2417814E+02  0.7546771E-02  0.1478211E+00
          2   -1    0    0  502    0  0.00000000000E+00  0.00000000000E+00  0.12500583414E+01  0.12500583414E+01  0.00000000000E+00 0. -1.
          1   -1    0    0  501    0 -0.00000000000E+00 -0.00000000000E+00 -0.61488435523E+03  0.61488435523E+03  0.00000000000E+00 0.  1.
          2    1    1    2  501    0 -0.17910947022E+02 -0.16241325625E+02 -0.15606562569E+03  0.15792739536E+03  0.00000000000E+00 0. -1.
          1    1    1    2  502    0  0.17910947022E+02  0.16241325625E+02 -0.45756867119E+03  0.45820701821E+03  0.00000000000E+00 0.  1.
</event>
<event>
 4    1  0.3837333E+003  0.2044337E+02  0.7546771E-02  0.1527362E+00
          2   -1    0    0  502    0  0.00000000000E+00  0.00000000000E+00  0.37511925430E+00  0.37511925430E+00  0.00000000000E+00 0. -1.
          1   -1    0    0  501    0 -0.00000000000E+00 -0.00000000000E+00 -0.14688838393E+04  0.14688838393E+04  0.00000000000E+00 0.  1.
          2    1    1    2  501    0  0.19437720738E+02  0.63329681768E+01 -0.37322841936E+03  0.37378788703E+03  0.00000000000E+00 0. -1.
          1    1    1    2  502    0 -0.19437720738E+02 -0.63329681768E+01 -0.10952803007E+04  0.10954710715E+04  0.00000000000E+00 0.  1.
</event>
<event>
 4    1  0.3837333E+003  0.2192057E+02  0.7546771E-02  0.1506516E+00
          2   -1    0    0  502    0  0.00000000000E+00  0.00000000000E+00  0.83397436288E+03  0.83397436288E+03  0.00000000000E+00 0. -1.
          1   -1    0    0  501    0 -0.00000000000E+00 -0.00000000000E+00 -0.27726701567E+01  0.27726701567E+01  0.00000000000E+00 0.  1.
          2    1    1    2  501    0  0.20239154758E+02 -0.84194972471E+01  0.78797597301E+03  0.78828081631E+03  0.00000000000E+00 0. -1.
          1    1    1    2  502    0 -0.20239154758E+02  0.84194972471E+01  0.43225719713E+02  0.48466216728E+02  0.00000000000E+00 0.  1.
</event>
<event>
 4    1  0.3837333E+003  0.2455637E+02  0.7546771E-02  0.1473828E+00
          2   -1    0    0  502    0  0.00000000000E+00  0.00000000000E+00  0.30218983154E+03  0.30218983154E+03  0.00000000000E+00 0. -1.
          1   -1    0    0  501    0 -0.00000000000E+00 -0.00000000000E+00 -0.37907608820E+01  0.37907608820E+01  0.00000000000E+00 0. -1.
          2    1    1    2  501    0  0.14069441475E+01  0.24516032556E+02  0.25448447711E+03  0.25566651019E+03  0.00000000000E+00 0. -1.
          1    1    1    2  502    0 -0.14069441475E+01 -0.24516032556E+02  0.43914593550E+02  0.50314082232E+02  0.00000000000E+00 0. -1.
</event>
<event>
 4    1  0.3837333E+003  0.2450882E+02  0.7546771E-02  0.1474374E+00
          2   -1    0    0  502    0  0.00000000000E+00  0.00000000000E+00  0.38886063536E+02  0.38886063536E+02  0.00000000000E+00 0.  1.
          1   -1    0    0  501    0 -0.00000000000E+00 -0.00000000000E+00 -0.32852625078E+02  0.32852625078E+02  0.00000000000E+00 0.  1.
          2    1    1    2  501    0  0.23899933861E+02  0.54291328937E+01  0.29125117433E+02  0.38065138750E+02  0.00000000000E+00 0.  1.
          1    1    1    2  502    0 -0.23899933861E+02 -0.54291328937E+01 -0.23091678975E+02  0.33673549864E+02  0.00000000000E+00 0.  1.
</event>
<event>
 4    1  0.3837333E+003  0.2569800E+02  0.7546771E-02  0.1461144E+00
          2   -1    0    0  502    0  0.00000000000E+00  0.00000000000E+00  0.32430853105E+03  0.32430853105E+03  0.00000000000E+00 0. -1.
          1   -1    0    0  501    0 -0.00000000000E+00 -0.00000000000E+00 -0.91131703518E+01  0.91131703518E+01  0.00000000000E+00 0.  1.
          2    1    1    2  501    0 -0.19032568601E+02 -0.17266974722E+02  0.30450720992E+03  0.30558963984E+03  0.00000000000E+00 0. -1.
          1    1    1    2  502    0  0.19032568601E+02  0.17266974722E+02  0.10688150773E+02  0.27832061557E+02  0.00000000000E+00 0.  1.
</event>
<event>
 4    1  0.3837333E+003  0.7543811E+02  0.7546771E-02  0.1214853E+00
          2   -1    0    0  502    0  0.00000000000E+00  0.00000000000E+00  0.56988742102E+03  0.56988742102E+03  0.00000000000E+00 0.  1.
          1   -1    0    0  501    0 -0.00000000000E+00 -0.00000000000E+00 -0.36283361867E+02  0.36283361867E+02  0.00000000000E+00 0. -1.
          2    1    1    2  501    0 -0.57494690021E+02 -0.48839211208E+02  0.52483022157E+03  0.53022416902E+03  0.00000000000E+00 0.  1.
          1    1    1    2  502    0  0.57494690021E+02  0.48839211208E+02  0.87738375768E+01  0.75946613867E+02  0.00000000000E+00 0. -1.
</event>
<event>
 4    1  0.3837333E+003  0.2610733E+02  0.7546771E-02  0.1456787E+00
          2   -1    0    0  502    0  0.00000000000E+00  0.00000000000E+00  0.17875782949E+03  0.17875782949E+03  0.00000000000E+00 0. -1.
          1   -1    0    0  501    0 -0.00000000000E+00 -0.00000000000E+00 -0.58912090412E+01  0.58912090412E+01  0.00000000000E+00 0. -1.
          2    1    1    2  501    0  0.17102008443E+02 -0.19725965910E+02  0.14126933805E+03  0.14366147116E+03  0.00000000000E+00 0. -1.
          1    1    1    2  502    0 -0.17102008443E+02  0.19725965910E+02  0.31597282406E+02  0.40987567374E+02  0.00000000000E+00 0. -1.
</event>
<event>
 4    1  0.3837333E+003  0.2662590E+02  0.7546771E-02  0.1451403E+00
          2   -1    0    0  502    0  0.00000000000E+00  0.00000000000E+00  0.15522461046E+02  0.15522461046E+02  0.00000000000E+00 0.  1.
          1   -1    0    0  501    0 -0.00000000000E+00 -0.00000000000E+00 -0.45721032389E+02  0.45721032389E+02  0.00000000000E+00 0.  1.
          2    1    1    2  501    0 -0.99579493725E+01 -0.24693679570E+02 -0.14094332807E+02  0.30126214227E+02  0.00000000000E+00 0.  1.
          1    1    1    2  502    0  0.99579493725E+01  0.24693679570E+02 -0.16104238537E+02  0.31117279207E+02  0.00000000000E+00 0.  1.
</event>
<event>
 4    1  0.3837333E+003  0.2821774E+02  0.7546771E-02  0.1435745E+00
          2   -1    0    0  502    0  0.00000000000E+00  0.00000000000E+00  0.55145447888E+00  0.55145447888E+00  0.00000000000E+00 0. -1.
          1   -1    0    0  501    0 -0.00000000000E+00 -0.00000000000E+00 -0.14524915237E+04  0.14524915237E+04  0.00000000000E+00 0. -1.
          2    1    1    2  501    0 -0.28938322576E+01  0.28068945566E+02 -0.78187659155E+03  0.78238561106E+03  0.00000000000E+00 0. -1.
          1    1    1    2  502    0  0.28938322576E+01 -0.28068945566E+02 -0.67006347766E+03  0.67065736711E+03  0.00000000000E+00 0. -1.
</event>
<event>
 4    1  0.3837333E+003  0.1536865E+03  0.7546771E-02  0.1093898E+00
          2   -1    0    0  502    0  0.00000000000E+00  0.00000000000E+00  0.11828650689E+04  0.11828650689E+04  0.00000000000E+00 0. -1.
          1   -1    0    0  501    0 -0.00000000000E+00 -0.00000000000E+00 -0.34961731011E+02  0.34961731011E+02  0.00000000000E+00 0. -1.
          2    1    1    2  501    0  0.78077397584E+02 -0.13237615444E+03  0.97271295486E+03  0.98477917262E+03  0.00000000000E+00 0. -1.
          1    1    1    2  502    0 -0.78077397584E+02  0.13237615444E+03  0.17519038302E+03  0.23304762728E+03  0.00000000000E+00 0. -1.
</event>
<event>
 4    1  0.3837333E+003  0.2731839E+02  0.7546771E-02  0.1444436E+00
          2   -1    0    0  502    0  0.00000000000E+00  0.00000000000E+00  0.51381454504E+03  0.51381454504E+03  0.00000000000E+00 0.  1.
          1   -1    0    0  501    0 -0.00000000000E+00 -0.00000000000E+00 -0.18441692446E+02  0.18441692446E+02  0.00000000000E+00 0. -1.
          2    1    1    2  501    0  0.73998526032E+01 -0.26297081500E+02  0.50311958538E+03  0.50386070645E+03  0.00000000000E+00 0.  1.
          1    1    1    2  502    0 -0.73998526032E+01  0.26297081500E+02 -0.77467327834E+01  0.28395531036E+02  0.00000000000E+00 0. -1.
</event>
<event>
 4    1  0.3837333E+003  0.2340776E+02  0.7546771E-02  0.1487440E+00
          2   -1    0    0  502    0  0.00000000000E+00  0.00000000000E+00  0.27981911884E+01  0.27981911884E+01  0.00000000000E+00 0.  1.
          1   -1    0    0  501    0 -0.00000000000E+00 -0.00000000000E+00 -0.49163916402E+03  0.49163916402E+03  0.00000000000E+00 0. -1.
          2    1    1    2  501    0  0.23256405913E+02 -0.26576043493E+01 -0.52652523586E+02  0.57621276598E+02  0.00000000000E+00 0.  1.
          1    1    1    2  502    0 -0.23256405913E+02  0.26576043493E+01 -0.43618844925E+03  0.43681607861E+03  0.00000000000E+00 0. -1.
</event>
<event>
 4    1  0.3837333E+003  0.2115963E+02  0.7546771E-02  0.1516998E+00
          2   -1    0    0  502    0  0.00000000000E+00  0.00000000000E+00  0.39813182851E+02  0.39813182851E+02  0.00000000000E+00 0. -1.
          1   -1    0    0  501    0 -0.00000000000E+00 -0.00000000000E+00 -0.24977866123E+03  0.24977866123E+03  0.00000000000E+00 0. -1.
          2    1    1    2  501    0  0.26875634375E+01 -0.20988258766E+02  0.36516074147E+02  0.42203716357E+02  0.00000000000E+00 0. -1.
          1    1    1    2  502    0 -0.26875634375E+01  0.20988258766E+02 -0.24648155252E+03  0.24738812772E+03  0.00000000000E+00 0. -1.
</event>
<event>
 4    1  0.3837333E+003  0.2775635E+02  0.7546771E-02  0.1440155E+00
          2   -1    0    0  502    0  0.00000000000E+00  0.00000000000E+00  0.10832139510E+04  0.10832139510E+04  0.00000000000E+00 0. -1.
          1   -1    0    0  501    0 -0.00000000000E+00 -0.00000000000E+00 -0.29694430440E+03  0.29694430440E+03  0.00000000000E+00 0.  1.
          2    1    1    2  501    0  0.16254702149E+02 -0.22498883409E+02  0.10823870286E+04  0.10827428572E+04  0.00000000000E+00 0. -1.
          1    1    1    2  502    0 -0.16254702149E+02  0.22498883409E+02 -0.29611738206E+03  0.29741539815E+03  0.00000000000E+00 0.  1.
</event>
<event>
 4    1  0.3837333E+003  0.3546769E+02  0.7546771E-02  0.1377305E+00
          2   -1    0    0  502    0  0.00000000000E+00  0.00000000000E+00  0.18876460236E+04  0.18876460236E+04  0.00000000000E+00 0. -1.
          1   -1    0    0  501    0 -0.00000000000E+00 -0.00000000000E+00 -0.87885259967E+02  0.87885259967E+02  0.00000000000E+00 0. -1.
          2    1    1    2  501    0  0.29837775494E+01 -0.35341962309E+02  0.18838938853E+04  0.18842277273E+04  0.00000000000E+00 0. -1.
          1    1    1    2  502    0 -0.29837775494E+01  0.35341962309E+02 -0.84133121663E+02  0.91303556279E+02  0.00000000000E+00 0. -1.
</event>
<event>
 4    1  0.3837333E+003  0.2054033E+02  0.7546771E-02  0.1525930E+00
          2   -1    0    0  502    0  0.00000000000E+00  0.00000000000E+00  0.73763809961E+02  0.73763809961E+02  0.00000000000E+00 0. -1.
          1   -1    0    0  501    0 -0.00000000000E+00 -0.00000000000E+00 -0.58148059299E+01  0.58148059299E+01  0.00000000000E+00 0. -1.
          2    1    1    2  501    0 -0.97717097942E+01 -0.18067056007E+02  0.28885112759E+02  0.35443681583E+02  0.00000000000E+00 0. -1.
          1    1    1    2  502    0  0.97717097942E+01  0.18067056007E+02  0.39063891272E+02  0.44134934308E+02  0.00000000000E+00 0. -1.
</event>
<event>
 4    1  0.3837333E+003  0.2100857E+02  0.7546771E-02  0.1519142E+00
          2   -1    0    0  502    0  0.00000000000E+00  0.00000000000E+00  0.45571733840E+01  0.45571733840E+01  0.00000000000E+00 0. -1.
          1   -1    0    0  501    0 -0.00000000000E+00 -0.00000000000E+00 -0.23363620688E+03  0.23363620688E+03  0.00000000000E+00 0. -1.
          2    1    1    2  501    0  0.12640267319E+02 -0.16780459011E+02 -0.23411588612E+02  0.31455725136E+02  0.00000000000E+00 0. -1.
          1    1    1    2  502    0 -0.12640267319E+02  0.16780459011E+02 -0.20566744489E+03  0.20673765513E+03  0.00000000000E+00 0. -1.
</event>
<event>
 4    1  0.3837333E+003  0.3647066E+02  0.7546771E-02  0.1370509E+00
          2   -1    0    0  502    0  0.00000000000E+00  0.00000000000E+00  0.21602803073E+02  0.21602803073E+02  0.00000000000E+00 0.  1.
          1   -1    0    0  501    0 -0.00000000000E+00 -0.00000000000E+00 -0.13811937969E+04  0.13811937969E+04  0.00000000000E+00 0.  1.
          2    1    1    2  501    0  0.25564113097E+02 -0.26011256846E+02  0.57910388758E+01  0.36927570897E+02  0.00000000000E+00 0.  1.
          1    1    1    2  502    0 -0.25564113097E+02  0.26011256846E+02 -0.13653820327E+04  0.13658690291E+04  0.00000000000E+00 0.  1.
</event>
<event>
 4    1  0.3837333E+003  0.2067446E+02  0.7546771E-02  0.1523964E+00
          2   -1    0    0  502    0  0.00000000000E+00  0.00000000000E+00  0.60940332169E+03  0.60940332169E+03  0.00000000000E+00 0. -1.
          1   -1    0    0  501    0 -0.00000000000E+00 -0.00000000000E+00 -0.16457209153E+03  0.16457209153E+03  0.00000000000E+00 0. -1.
          2    1    1    2  501    0 -0.43517042022E+01 -0.20211283555E+02  0.60857778190E+03  0.60892885458E+03  0.00000000000E+00 0. -1.
          1    1    1    2  502    0  0.43517042022E+01  0.20211283555E+02 -0.16374655174E+03  0.16504655864E+03  0.00000000000E+00 0. -1.
</event>
<event>
 4    1  0.3837333E+003  0.2166470E+02  0.7546771E-02  0.1509983E+00
          2   -1    0    0  502    0  0.00000000000E+00  0.00000000000E+00  0.18625481465E+03  0.18625481465E+03  0.00000000000E+00 0. -1.
          1   -1    0    0  501    0 -0.00000000000E+00 -0.00000000000E+00 -0.38804940714E+01  0.38804940714E+01  0.00000000000E+00 0. -1.
          2    1    1    2  501    0  0.15023746518E+02  0.15609175144E+02  0.14747829638E+03  0.14906108550E+03  0.00000000000E+00 0. -1.
          1    1    1    2  502    0 -0.15023746518E+02 -0.15609175144E+02  0.34896024195E+02  0.41074223215E+02  0.00000000000E+00 0. -1.
</event>
<event>
 4    1  0.3837333E+003  0.2798809E+02  0.7546771E-02  0.1437927E+00
          2   -1    0    0  502    0  0.00000000000E+00  0.00000000000E+00  0.14635674075E+04  0.14635674075E+04  0.00000000000E+00 0.  1.
          1   -1    0    0  501    0 -0.00000000000E+00 -0.00000000000E+00 -0.40826075264E+01  0.40826075264E+01  0.00000000000E+00 0. -1.
          2    1    1    2  501    0  0.17133823286E+02  0.22130637909E+02  0.14137767404E+04  0.14140537488E+04  0.00000000000E+00 0.  1.
          1    1    1    2  502    0 -0.17133823286E+02 -0.22130637909E+02  0.45708059583E+02  0.53596266153E+02  0.00000000000E+00 0. -1.
</event>
<event>
 4    1  0.3837333E+003  0.2008423E+02  0.7546771E-02  0.1532752E+00
          2   -1    0    0  502    0  0.00000000000E+00  0.00000000000E+00  0.97395953880E+02  0.97395953880E+02  0.00000000000E+00 0.  1.
          1   -1    0    0  501    0 -0.00000000000E+00 -0.00000000000E+00 -0.39619248621E+03  0.39619248621E+03  0.00000000000E+00 0.  1.
          2    1    1    2  501    0  0.52997188304E+01 -0.19372388042E+02  0.96102628444E+02  0.98178875691E+02  0.00000000000E+00 0.  1.
          1    1    1    2  502    0 -0.52997188304E+01  0.19372388042E+02 -0.39489916077E+03  0.39540956439E+03  0.00000000000E+00 0.  1.
</event>
<event>
 4    1  0.3837333E+003  0.2104007E+02  0.7546771E-02  0.1518693E+00
          2   -1    0    0  502    0  0.00000000000E+00  0.00000000000E+00  0.85486133960E+00  0.85486133960E+00  0.00000000000E+00 0.  1.
          1   -1    0    0  501    0 -0.00000000000E+00 -0.00000000000E+00 -0.90480746799E+03  0.90480746799E+03  0.00000000000E+00 0.  1.
          2    1    1    2  501    0 -0.18260170352E+02  0.10452309726E+02 -0.15583884490E+03  0.15725275890E+03  0.00000000000E+00 0.  1.
          1    1    1    2  502    0  0.18260170352E+02 -0.10452309726E+02 -0.74811376174E+03  0.74840957043E+03  0.00000000000E+00 0.  1.
</event>
<event>
 4    1  0.3837333E+003  0.2428852E+02  0.7546771E-02  0.1476922E+00
          2   -1    0    0  502    0  0.00000000000E+00  0.00000000000E+00  0.12664460286E+04  0.12664460286E+04  0.00000000000E+00 0.  1.
          1   -1    0    0  501    0 -0.00000000000E+00 -0.00000000000E+00 -0.16746758013E+01  0.16746758013E+01  0.00000000000E+00 0.  1.
          2    1    1    2  501    0 -0.23255414104E+02  0.70084170165E+01  0.11710931476E+04  0.11713449929E+04  0.00000000000E+00 0.  1.
          1    1    1    2  502    0  0.23255414104E+02 -0.70084170165E+01  0.93678205189E+02  0.96775711424E+02  0.00000000000E+00 0.  1.
</event>
<event>
 4    1  0.3837333E+003  0.2645984E+02  0.7546771E-02  0.1453111E+00
          2   -1    0    0  502    0  0.00000000000E+00  0.00000000000E+00  0.51318146608E+02  0.51318146608E+02  0.00000000000E+00 0. -1.
          1   -1    0    0  501    0 -0.00000000000E+00 -0.00000000000E+00 -0.25716124806E+02  0.25716124806E+02  0.00000000000E+00 0.  1.
          2    1    1    2  501    0  0.15916996333E+02  0.21136985139E+02  0.39192553023E+02  0.47288255683E+02  0.00000000000E+00 0. -1.
          1    1    1    2  502    0 -0.15916996333E+02 -0.21136985139E+02 -0.13590531221E+02  0.29746015732E+02  0.00000000000E+00 0.  1.
</event>
<event>
 4    1  0.3837333E+003  0.2851126E+02  0.7546771E-02  0.1432991E+00
          2   -1    0    0  502    0  0.00000000000E+00  0.00000000000E+00  0.10980507822E+02  0.10980507822E+02  0.00000000000E+00 0. -1.
          1   -1    0    0  501    0 -0.00000000000E+00 -0.00000000000E+00 -0.95003372724E+02  0.95003372724E+02  0.00000000000E+00 0. -1.
          2    1    1    2  501    0  0.27444267120E+02 -0.77268596066E+01 -0.17113139143E+02  0.33252844817E+02  0.00000000000E+00 0. -1.
          1    1    1    2  502    0 -0.27444267120E+02  0.77268596066E+01 -0.66909725759E+02  0.72731035729E+02  0.00000000000E+00 0. -1.
</event>
<event>
 4    1  0.3837333E+003  0.2841543E+02  0.7546771E-02  0.1433885E+00
          2   -1    0    0  502    0  0.00000000000E+00  0.00000000000E+00  0.70914272391E+03  0.70914272391E+03  0.00000000000E+00 0.  1.
          1   -1    0    0  501    0 -0.00000000000E+00 -0.00000000000E+00 -0.42168425285E+03  0.42168425285E+03  0.00000000000E+00 0. -1.
          2    1    1    2  501    0 -0.61545178202E+00  0.28408767978E+02  0.70837885791E+03  0.70894854765E+03  0.00000000000E+00 0.  1.
          1    1    1    2  502    0  0.61545178202E+00 -0.28408767978E+02 -0.42092038686E+03  0.42187842911E+03  0.00000000000E+00 0. -1.
</event>
<event>
 4    1  0.3837333E+003  0.2483983E+02  0.7546771E-02  0.1470603E+00
          2   -1    0    0  502    0  0.00000000000E+00  0.00000000000E+00  0.25754620034E+03  0.25754620034E+03  0.00000000000E+00 0.  1.
          1   -1    0    0  501    0 -0.00000000000E+00 -0.00000000000E+00 -0.23469604251E+02  0.23469604251E+02  0.00000000000E+00 0. -1.
          2    1    1    2  501    0  0.42874068592E+01  0.24467027102E+02  0.25018175054E+03  0.25141186443E+03  0.00000000000E+00 0.  1.
          1    1    1    2  502    0 -0.42874068592E+01 -0.24467027102E+02 -0.16105154455E+02  0.29603940157E+02  0.00000000000E+00 0. -1.
</event>
<event>
 4    1  0.3837333E+003  0.3225592E+02  0.7546771E-02  0.1400954E+00
          2   -1    0    0  502    0  0.00000000000E+00  0.00000000000E+00  0.24643622362E+03  0.24643622362E+03  0.00000000000E+00 0.  1.
          1   -1    0    0  501    0 -0.00000000000E+00 -0.00000000000E+00 -0.18423530607E+02  0.18423530607E+02  0.00000000000E+00 0.  1.
          2    1    1    2  501    0  0.73779477986E+01  0.31400805417E+02  0.23027634960E+03  0.23252449737E+03  0.00000000000E+00 0.  1.
          1    1    1    2  502    0 -0.73779477986E+01 -0.31400805417E+02 -0.22636565872E+01  0.32335256852E+02  0.00000000000E+00 0.  1.
</event>
<event>
 4    1  0.3837333E+003  0.2753288E+02  0.7546771E-02  0.1442327E+00
          2   -1    0    0  502    0  0.00000000000E+00  0.00000000000E+00  0.14409557776E+02  0.14409557776E+02  0.00000000000E+00 0.  1.
          1   -1    0    0  501    0 -0.00000000000E+00 -0.00000000000E+00 -0.70138638002E+02  0.70138638002E+02  0.00000000000E+00 0.  1.
          2    1    1    2  501    0 -0.25810567869E+02 -0.95850821719E+01 -0.67299652875E+01  0.28343458623E+02  0.00000000000E+00 0.  1.
          1    1    1    2  502    0  0.25810567869E+02  0.95850821719E+01 -0.48999114938E+02  0.56204737155E+02  0.00000000000E+00 0.  1.
</event>
<event>
 4    1  0.3837333E+003  0.2046832E+02  0.7546771E-02  0.1526993E+00
          2   -1    0    0  502    0  0.00000000000E+00  0.00000000000E+00  0.10777911312E+04  0.10777911312E+04  0.00000000000E+00 0.  1.
          1   -1    0    0  501    0 -0.00000000000E+00 -0.00000000000E+00 -0.79811875711E+00  0.79811875711E+00  0.00000000000E+00 0. -1.
          2    1    1    2  501    0  0.19997226710E+02  0.43661243837E+01  0.92474692569E+03  0.92497342053E+03  0.00000000000E+00 0.  1.
          1    1    1    2  502    0 -0.19997226710E+02 -0.43661243837E+01  0.15224608673E+03  0.15361582940E+03  0.00000000000E+00 0. -1.
</event>
<event>
 4    1  0.3837333E+003  0.2335786E+02  0.7546771E-02  0.1488053E+00
          2   -1    0    0  502    0  0.00000000000E+00  0.00000000000E+00  0.66466084830E+03  0.66466084830E+03  0.00000000000E+00 0.  1.
          1   -1    0    0  501    0 -0.00000000000E+00 -0.00000000000E+00 -0.14250127546E+01  0.14250127546E+01  0.00000000000E+00 0.  1.
          2    1    1    2  501    0 -0.23355197690E+02 -0.35248240081E+00  0.54847139336E+03  0.54896854085E+03  0.00000000000E+00 0.  1.
          1    1    1    2  502    0  0.23355197690E+02  0.35248240081E+00  0.11476444218E+03  0.11711732020E+03  0.00000000000E+00 0.  1.
</event>
<event>
 4    1  0.3837333E+003  0.2842196E+02  0.7546771E-02  0.1433824E+00
          2   -1    0    0  502    0  0.00000000000E+00  0.00000000000E+00  0.46276264983E+02  0.46276264983E+02  0.00000000000E+00 0. -1.
          1   -1    0    0  501    0 -0.00000000000E+00 -0.00000000000E+00 -0.39603122447E+03  0.39603122447E+03  0.00000000000E+00 0. -1.
          2    1    1    2  501    0  0.19331827660E+02 -0.20834785434E+02  0.41347348833E+02  0.50173808908E+02  0.00000000000E+00 0. -1.
          1    1    1    2  502    0 -0.19331827660E+02  0.20834785434E+02 -0.39110230832E+03  0.39213368054E+03  0.00000000000E+00 0. -1.
</event>
<event>
 4    1  0.3837333E+003  0.2186386E+02  0.7546771E-02  0.1507280E+00
          2   -1    0    0  502    0  0.00000000000E+00  0.00000000000E+00  0.83077757176E+00  0.83077757176E+00  0.00000000000E+00 0. -1.
          1   -1    0    0  501    0 -0.00000000000E+00 -0.00000000000E+00 -0.65986326054E+03  0.65986326054E+03  0.00000000000E+00 0. -1.
          2    1    1    2  501    0  0.18310837254E+02  0.11947443925E+02 -0.21132612282E+03  0.21245413237E+03  0.00000000000E+00 0. -1.
          1    1    1    2  502    0 -0.18310837254E+02 -0.11947443925E+02 -0.44770636016E+03  0.44823990574E+03  0.00000000000E+00 0. -1.
</event>
<event>
 4    1  0.3837333E+003  0.4888977E+02  0.7546771E-02  0.1303059E+00
          2   -1    0    0  502    0  0.00000000000E+00  0.00000000000E+00  0.11180905969E+04  0.11180905969E+04  0.00000000000E+00 0.  1.
          1   -1    0    0  501    0 -0.00000000000E+00 -0.00000000000E+00 -0.23232991529E+01  0.23232991529E+01  0.00000000000E+00 0.  1.
          2    1    1    2  501    0 -0.26591607615E+02 -0.41025526238E+02  0.39957094886E+03  0.40255080496E+03  0.00000000000E+00 0.  1.
          1    1    1    2  502    0  0.26591607615E+02  0.41025526238E+02  0.71619634889E+03  0.71786309110E+03  0.00000000000E+00 0.  1.
</event>
<event>
 4    1  0.3837333E+003  0.2019639E+02  0.7546771E-02  0.1531054E+00
          2   -1    0    0  502    0  0.00000000000E+00  0.00000000000E+00  0.54765718703E+03  0.54765718703E+03  0.00000000000E+00 0. -1.
          1   -1    0    0  501    0 -0.00000000000E+00 -0.00000000000E+00 -0.48476729033E+02  0.48476729033E+02  0.00000000000E+00 0. -1.
          2    1    1    2  501    0  0.96663645558E+01 -0.17732899124E+02  0.54535856685E+03  0.54573240764E+03  0.00000000000E+00 0. -1.
          1    1    1    2  502    0 -0.96663645558E+01  0.17732899124E+02 -0.46178108846E+02  0.50401508427E+02  0.00000000000E+00 0. -1.
</event>
<event>
 4    1  0.3837333E+003  0.2161349E+02  0.7546771E-02  0.1510683E+00
          2   -1    0    0  502    0  0.00000000000E+00  0.00000000000E+00  0.29552675970E+03  0.29552675970E+03  0.00000000000E+00 0.  1.
          1   -1    0    0  501    0 -0.00000000000E+00 -0.00000000000E+00 -0.50518370315E+01  0.50518370315E+01  0.00000000000E+00 0.  1.
          2    1    1    2  501    0  0.11679291739E+02  0.18186180175E+02  0.26981462939E+03  0.27067891909E+03  0.00000000000E+00 0.  1.
          1    1    1    2  502    0 -0.11679291739E+02 -0.18186180175E+02  0.20660293275E+02  0.29899677642E+02  0.00000000000E+00 0.  1.
</event>
<event>
 4    1  0.3837333E+003  0.2813019E+02  0.7546771E-02  0.1436574E+00
          2   -1    0    0  502    0  0.00000000000E+00  0.00000000000E+00  0.20133996309E+03  0.20133996309E+03  0.00000000000E+00 0. -1.
          1   -1    0    0  501    0 -0.00000000000E+00 -0.00000000000E+00 -0.25493730059E+03  0.25493730059E+03  0.00000000000E+00 0.  1.
          2    1    1    2  501    0  0.27489951410E+02 -0.59674105700E+01  0.19957459905E+03  0.20154733440E+03  0.00000000000E+00 0. -1.
          1    1    1    2  502    0 -0.27489951410E+02  0.59674105700E+01 -0.25317193654E+03  0.25472992928E+03  0.00000000000E+00 0.  1.
</event>
<event>
 4    1  0.3837333E+003  0.2524627E+02  0.7546771E-02  0.1466067E+00
          2   -1    0    0  502    0  0.00000000000E+00  0.00000000000E+00  0.16446384523E+04  0.16446384523E+04  0.00000000000E+00 0. -1.
          1   -1    0    0  501    0 -0.00000000000E+00 -0.00000000000E+00 -0.17641599839E+02  0.17641599839E+02  0.00000000000E+00 0. -1.
          2    1    1    2  501    0 -0.25139545465E+02 -0.23189118203E+01  0.16354586101E+04  0.16356534595E+04  0.00000000000E+00 0. -1.
          1    1    1    2  502    0  0.25139545465E+02  0.23189118203E+01 -0.84617575966E+01  0.26626592719E+02  0.00000000000E+00 0. -1.
</event>
<event>
 4    1  0.3837333E+003  0.6118449E+02  0.7546771E-02  0.1255860E+00
          2   -1    0    0  502    0  0.00000000000E+00  0.00000000000E+00  0.45020351135E+03  0.45020351135E+03  0.00000000000E+00 0.  1.
          1   -1    0    0  501    0 -0.00000000000E+00 -0.00000000000E+00 -0.86646370921E+02  0.86646370921E+02  0.00000000000E+00 0.  1.
          2    1    1    2  501    0  0.11876912291E+02  0.60020665653E+02  0.43699870339E+03  0.44126115636E+03  0.00000000000E+00 0.  1.
          1    1    1    2  502    0 -0.11876912291E+02 -0.60020665653E+02 -0.73441562959E+02  0.95588725909E+02  0.00000000000E+00 0.  1.
</event>
<event>
 4    1  0.3837333E+003  0.2024477E+02  0.7546771E-02  0.1530326E+00
          2   -1    0    0  502    0  0.00000000000E+00  0.00000000000E+00  0.96489100207E+01  0.96489100207E+01  0.00000000000E+00 0.  1.
          1   -1    0    0  501    0 -0.00000000000E+00 -0.00000000000E+00 -0.53023436806E+02  0.53023436806E+02  0.00000000000E+00 0.  1.
          2    1    1    2  501    0  0.18064160034E+02 -0.91398560221E+01 -0.77114368205E+01  0.21663727834E+02  0.00000000000E+00 0.  1.
          1    1    1    2  502    0 -0.18064160034E+02  0.91398560221E+01 -0.35663089965E+02  0.41008618993E+02  0.00000000000E+00 0.  1.
</event>
<event>
 4    1  0.6464575E+003  0.2167224E+02  0.7546771E-02  0.1509880E+00
          2   -1    0    0  502    0  0.00000000000E+00  0.00000000000E+00  0.11099042779E+04  0.11099042779E+04  0.00000000000E+00 0. -1.
          1   -1    0    0  501    0 -0.00000000000E+00 -0.00000000000E+00 -0.12843545881E+04  0.12843545881E+04  0.00000000000E+00 0. -1.
          2    1    1    2  501    0  0.39344425715E+01  0.21312107657E+02  0.11097070430E+04  0.11099186488E+04  0.00000000000E+00 0. -1.
          1    1    1    2  502    0 -0.39344425715E+01 -0.21312107657E+02 -0.12841573531E+04  0.12843402171E+04  0.00000000000E+00 0. -1.
</event>
<event>
 4    1  0.3837333E+003  0.2995195E+02  0.7546771E-02  0.1420015E+00
          2   -1    0    0  502    0  0.00000000000E+00  0.00000000000E+00  0.60789628102E+02  0.60789628102E+02  0.00000000000E+00 0.  1.
          1   -1    0    0  501    0 -0.00000000000E+00 -0.00000000000E+00 -0.18938006539E+02  0.18938006539E+02  0.00000000000E+00 0.  1.
          2    1    1    2  501    0  0.17818178578E+02 -0.24075545061E+02  0.39654706636E+02  0.49695222267E+02  0.00000000000E+00 0.  1.
          1    1    1    2  502    0 -0.17818178578E+02  0.24075545061E+02  0.21969149273E+01  0.30032412374E+02  0.00000000000E+00 0.  1.
</event>
<event>
 4    1  0.3837333E+003  0.3888251E+02  0.7546771E-02  0.1355162E+00
          2   -1    0    0  502    0  0.00000000000E+00  0.00000000000E+00  0.31409029279E+02  0.31409029279E+02  0.00000000000E+00 0. -1.
          1   -1    0    0  501    0 -0.00000000000E+00 -0.00000000000E+00 -0.37835365545E+03  0.37835365545E+03  0.00000000000E+00 0. -1.
          2    1    1    2  501    0  0.31715883104E+02 -0.22493377279E+02  0.17933338190E+02  0.42818849600E+02  0.00000000000E+00 0. -1.
          1    1    1    2  502    0 -0.31715883104E+02  0.22493377279E+02 -0.36487796436E+03  0.36694383512E+03  0.00000000000E+00 0. -1.
</event>
<event>
 4    1  0.3837333E+003  0.2322846E+02  0.7546771E-02  0.1489649E+00
          2   -1    0    0  502    0  0.00000000000E+00  0.00000000000E+00  0.27896500858E+03  0.27896500858E+03  0.00000000000E+00 0.  1.
          1   -1    0    0  501    0 -0.00000000000E+00 -0.00000000000E+00 -0.29198067539E+03  0.29198067539E+03  0.00000000000E+00 0. -1.
          2    1    1    2  501    0  0.79821577114E+01 -0.21813911044E+02  0.27801791482E+03  0.27898659918E+03  0.00000000000E+00 0.  1.
          1    1    1    2  502    0 -0.79821577114E+01  0.21813911044E+02 -0.29103358163E+03  0.29195908479E+03  0.00000000000E+00 0. -1.
</event>
<event>
 4    1  0.3837333E+003  0.2330612E+02  0.7546771E-02  0.1488690E+00
          2   -1    0    0  502    0  0.00000000000E+00  0.00000000000E+00  0.37787386565E+01  0.37787386565E+01  0.00000000000E+00 0. -1.
          1   -1    0    0  501    0 -0.00000000000E+00 -0.00000000000E+00 -0.63975413632E+03  0.63975413632E+03  0.00000000000E+00 0.  1.
          2    1    1    2  501    0 -0.12696010931E+02  0.19544472151E+02 -0.34666549736E+02  0.41772535904E+02  0.00000000000E+00 0. -1.
          1    1    1    2  502    0  0.12696010931E+02 -0.19544472151E+02 -0.60130884793E+03  0.60176033908E+03  0.00000000000E+00 0.  1.
</event>
<event>
 4    1  0.3837333E+003  0.2500378E+02  0.7546771E-02  0.1468761E+00
          2   -1    0    0  502    0  0.00000000000E+00  0.00000000000E+00  0.54127182040E+02  0.54127182040E+02  0.00000000000E+00 0. -1.
          1   -1    0    0  501    0 -0.00000000000E+00 -0.00000000000E+00 -0.24903568052E+02  0.24903568052E+02  0.00000000000E+00 0. -1.
          2    1    1    2  501    0  0.13112091279E+02 -0.21289946663E+02  0.43547109692E+02  0.50214933328E+02  0.00000000000E+00 0. -1.
          1    1    1    2  502    0 -0.13112091279E+02  0.21289946663E+02 -0.14323495703E+02  0.28815816764E+02  0.00000000000E+00 0. -1.
</event>
<event>
 4    1  0.3837333E+003  0.4878686E+02  0.7546771E-02  0.1303520E+00
          2   -1    0    0  502    0  0.00000000000E+00  0.00000000000E+00  0.13205396268E+03  0.13205396268E+03  0.00000000000E+00 0.  1.
          1   -1    0    0  501    0 -0.00000000000E+00 -0.00000000000E+00 -0.32581704126E+02  0.32581704126E+02  0.00000000000E+00 0. -1.
          2    1    1    2  501    0  0.43990987930E+02  0.21093856225E+02  0.10476005076E+03  0.11556308245E+03  0.00000000000E+00 0.  1.
          1    1    1    2  502    0 -0.43990987930E+02 -0.21093856225E+02 -0.52877922025E+01  0.49072584362E+02  0.00000000000E+00 0. -1.
</event>
<event>
 4    1  0.3837333E+003  0.2681267E+02  0.7546771E-02  0.1449499E+00
          2   -1    0    0  502    0  0.00000000000E+00  0.00000000000E+00  0.92890230467E+03  0.92890230467E+03  0.00000000000E+00 0.  1.
          1   -1    0    0  501    0 -0.00000000000E+00 -0.00000000000E+00 -0.95487996335E+00  0.95487996335E+00  0.00000000000E+00 0.  1.
          2    1    1    2  501    0  0.12890139420E+01  0.26781663002E+02  0.66635644461E+03  0.66689566673E+03  0.00000000000E+00 0.  1.
          1    1    1    2  502    0 -0.12890139420E+01 -0.26781663002E+02  0.26159098010E+03  0.26296151791E+03  0.00000000000E+00 0.  1.
</event>
<event>
 4    1  0.3837333E+003  0.2983636E+02  0.7546771E-02  0.1421024E+00
          2   -1    0    0  502    0  0.00000000000E+00  0.00000000000E+00  0.24902943587E+03  0.24902943587E+03  0.00000000000E+00 0. -1.
          1   -1    0    0  501    0 -0.00000000000E+00 -0.00000000000E+00 -0.18400517715E+02  0.18400517715E+02  0.00000000000E+00 0. -1.
          2    1    1    2  501    0  0.74226883467E+01 -0.28898306339E+02  0.23534014328E+03  0.23722392681E+03  0.00000000000E+00 0. -1.
          1    1    1    2  502    0 -0.74226883467E+01  0.28898306339E+02 -0.47112251223E+01  0.30206026778E+02  0.00000000000E+00 0. -1.
</event>
<event>
 4    1  0.3837333E+003  0.2036983E+02  0.7546771E-02  0.1528455E+00
          2   -1    0    0  502    0  0.00000000000E+00  0.00000000000E+00  0.33604934287E+02  0.33604934287E+02  0.00000000000E+00 0. -1.
          1   -1    0    0  501    0 -0.00000000000E+00 -0.00000000000E+00 -0.25677763295E+02  0.25677763295E+02  0.00000000000E+00 0. -1.
          2    1    1    2  501    0 -0.29654424504E+01 -0.20152819869E+02  0.25320676023E+02  0.32497178829E+02  0.00000000000E+00 0. -1.
          1    1    1    2  502    0  0.29654424504E+01  0.20152819869E+02 -0.17393505031E+02  0.26785518753E+02  0.00000000000E+00 0. -1.
</event>
<event>
 4    1  0.3837333E+003  0.2199992E+02  0.7546771E-02  0.1505453E+00
          2   -1    0    0  502    0  0.00000000000E+00  0.00000000000E+00  0.17335840230E+03  0.17335840230E+03  0.00000000000E+00 0.  1.
          1   -1    0    0  501    0 -0.00000000000E+00 -0.00000000000E+00 -0.28027199956E+01  0.28027199956E+01  0.00000000000E+00 0. -1.
          2    1    1    2  501    0  0.18393743998E+02  0.12069251164E+02  0.90754478207E+02  0.93382931827E+02  0.00000000000E+00 0.  1.
          1    1    1    2  502    0 -0.18393743998E+02 -0.12069251164E+02  0.79801204097E+02  0.82778190469E+02  0.00000000000E+00 0. -1.
</event>
<event>
 4    1  0.3837333E+003  0.2094441E+02  0.7546771E-02  0.1520060E+00
          2   -1    0    0  502    0  0.00000000000E+00  0.00000000000E+00  0.58760911386E+01  0.58760911386E+01  0.00000000000E+00 0. -1.
          1   -1    0    0  501    0 -0.00000000000E+00 -0.00000000000E+00 -0.10928143393E+03  0.10928143393E+03  0.00000000000E+00 0.  1.
          2    1    1    2  501    0 -0.10897791154E+02  0.17885928632E+02 -0.19290728464E+02  0.28474558815E+02  0.00000000000E+00 0. -1.
          1    1    1    2  502    0  0.10897791154E+02 -0.17885928632E+02 -0.84114614332E+02  0.86682966258E+02  0.00000000000E+00 0.  1.
</event>
<event>
 4    1  0.3837333E+003  0.3164665E+02  0.7546771E-02  0.1405807E+00
          2   -1    0    0  502    0  0.00000000000E+00  0.00000000000E+00  0.30966640094E+02  0.30966640094E+02  0.00000000000E+00 0.  1.
          1   -1    0    0  501    0 -0.00000000000E+00 -0.00000000000E+00 -0.66747813871E+02  0.66747813871E+02  0.00000000000E+00 0. -1.
          2    1    1    2  501    0  0.25884013182E+02  0.18207918915E+02  0.17186925079E+02  0.36012509539E+02  0.00000000000E+00 0.  1.
          1    1    1    2  502    0 -0.25884013182E+02 -0.18207918915E+02 -0.52968098856E+02  0.61701944426E+02  0.00000000000E+00 0. -1.
</event>
<event>
 4    1  0.3837333E+003  0.2107339E+02  0.7546771E-02  0.1518219E+00
          2   -1    0    0  502    0  0.00000000000E+00  0.00000000000E+00  0.83884810959E+01  0.83884810959E+01  0.00000000000E+00 0.  1.
          1   -1    0    0  501    0 -0.00000000000E+00 -0.00000000000E+00 -0.23428060872E+03  0.23428060872E+03  0.00000000000E+00 0. -1.
          2    1    1    2  501    0 -0.18019182822E+02 -0.10926889100E+02 -0.61971190778E+01  0.21965703718E+02  0.00000000000E+00 0.  1.
          1    1    1    2  502    0  0.18019182822E+02  0.10926889100E+02 -0.21969500854E+03  0.22070338609E+03  0.00000000000E+00 0. -1.
</event>
<event>
 4    1  0.3837333E+003  0.4021711E+02  0.7546771E-02  0.1347218E+00
          2   -1    0    0  502    0  0.00000000000E+00  0.00000000000E+00  0.26779125033E+04  0.26779125033E+04  0.00000000000E+00 0.  1.
          1   -1    0    0  501    0 -0.00000000000E+00 -0.00000000000E+00 -0.19613084497E+02  0.19613084497E+02  0.00000000000E+00 0. -1.
          2    1    1    2  501    0  0.38963734203E+02  0.99620975900E+01  0.26569825707E+04  0.26572869241E+04  0.00000000000E+00 0.  1.
          1    1    1    2  502    0 -0.38963734203E+02 -0.99620975900E+01  0.13168481532E+01  0.40238663751E+02  0.00000000000E+00 0. -1.
</event>
<event>
 4    1  0.3837333E+003  0.3647437E+02  0.7546771E-02  0.1370484E+00
          2   -1    0    0  502    0  0.00000000000E+00  0.00000000000E+00  0.23710973850E+03  0.23710973850E+03  0.00000000000E+00 0.  1.
          1   -1    0    0  501    0 -0.00000000000E+00 -0.00000000000E+00 -0.11509150981E+03  0.11509150981E+03  0.00000000000E+00 0.  1.
          2    1    1    2  501    0  0.36394189127E+02  0.24170852469E+01  0.23276357322E+03  0.23560403291E+03  0.00000000000E+00 0.  1.
          1    1    1    2  502    0 -0.36394189127E+02 -0.24170852469E+01 -0.11074534453E+03  0.11659721540E+03  0.00000000000E+00 0.  1.
</event>
<event>
 4    1  0.4614374E+003  0.2024869E+02  0.7546771E-02  0.1530267E+00
          2   -1    0    0  502    0  0.00000000000E+00  0.00000000000E+00  0.37894300305E+03  0.37894300305E+03  0.00000000000E+00 0.  1.
          1   -1    0    0  501    0 -0.00000000000E+00 -0.00000000000E+00 -0.73829601915E+03  0.73829601915E+03  0.00000000000E+00 0. -1.
          2    1    1    2  501    0 -0.18254051855E+02 -0.87634969096E+01  0.37853352127E+03  0.37907471033E+03  0.00000000000E+00 0.  1.
          1    1    1    2  502    0  0.18254051855E+02  0.87634969096E+01 -0.73788653737E+03  0.73816431187E+03  0.00000000000E+00 0. -1.
</event>
<event>
 4    1  0.3837333E+003  0.2182562E+02  0.7546771E-02  0.1507796E+00
          2   -1    0    0  502    0  0.00000000000E+00  0.00000000000E+00  0.56364390755E+02  0.56364390755E+02  0.00000000000E+00 0.  1.
          1   -1    0    0  501    0 -0.00000000000E+00 -0.00000000000E+00 -0.43931458317E+02  0.43931458317E+02  0.00000000000E+00 0.  1.
          2    1    1    2  501    0  0.80980820795E+01 -0.20267682601E+02  0.51283329255E+02  0.55734529251E+02  0.00000000000E+00 0.  1.
          1    1    1    2  502    0 -0.80980820795E+01  0.20267682601E+02 -0.38850396817E+02  0.44561319821E+02  0.00000000000E+00 0.  1.
</event>
<event>
 4    1  0.3837333E+003  0.2376515E+02  0.7546771E-02  0.1483107E+00
          2   -1    0    0  502    0  0.00000000000E+00  0.00000000000E+00  0.19669372221E+03  0.19669372221E+03  0.00000000000E+00 0. -1.
          1   -1    0    0  501    0 -0.00000000000E+00 -0.00000000000E+00 -0.92191896634E+01  0.92191896634E+01  0.00000000000E+00 0. -1.
          2    1    1    2  501    0 -0.23089619972E+02  0.56259757832E+01  0.17916899686E+03  0.18073824053E+03  0.00000000000E+00 0. -1.
          1    1    1    2  502    0  0.23089619972E+02 -0.56259757832E+01  0.83055356788E+01  0.25174671336E+02  0.00000000000E+00 0. -1.
</event>
<event>
 4    1  0.3837333E+003  0.3022999E+02  0.7546771E-02  0.1417608E+00
          2   -1    0    0  502    0  0.00000000000E+00  0.00000000000E+00  0.79251453715E+03  0.79251453715E+03  0.00000000000E+00 0.  1.
          1   -1    0    0  501    0 -0.00000000000E+00 -0.00000000000E+00 -0.73718437362E+01  0.73718437362E+01  0.00000000000E+00 0. -1.
          2    1    1    2  501    0  0.24623015807E+02  0.17537363656E+02  0.75990559512E+03  0.76050665054E+03  0.00000000000E+00 0.  1.
          1    1    1    2  502    0 -0.24623015807E+02 -0.17537363656E+02  0.25237098299E+02  0.39379730345E+02  0.00000000000E+00 0. -1.
</event>
<event>
 4    1  0.3837333E+003  0.2440361E+02  0.7546771E-02  0.1475587E+00
          2   -1    0    0  502    0  0.00000000000E+00  0.00000000000E+00  0.64149098924E+03  0.64149098924E+03  0.00000000000E+00 0. -1.
          1   -1    0    0  501    0 -0.00000000000E+00 -0.00000000000E+00 -0.41859387480E+01  0.41859387480E+01  0.00000000000E+00 0. -1.
          2    1    1    2  501    0 -0.11859353740E+02 -0.21328193310E+02  0.60345000430E+03  0.60394324550E+03  0.00000000000E+00 0. -1.
          1    1    1    2  502    0  0.11859353740E+02  0.21328193310E+02  0.33855046196E+02  0.41733682487E+02  0.00000000000E+00 0. -1.
</event>
<event>
 4    1  0.3837333E+003  0.2013926E+02  0.7546771E-02  0.1531917E+00
          2   -1    0    0  502    0  0.00000000000E+00  0.00000000000E+00  0.78174833924E+01  0.78174833924E+01  0.00000000000E+00 0. -1.
          1   -1    0    0  501    0 -0.00000000000E+00 -0.00000000000E+00 -0.81663943907E+02  0.81663943907E+02  0.00000000000E+00 0.  1.
          2    1    1    2  501    0 -0.17738411752E+02  0.95361661043E+01 -0.99047189938E+01  0.22443109718E+02  0.00000000000E+00 0. -1.
          1    1    1    2  502    0  0.17738411752E+02 -0.95361661043E+01 -0.63941741520E+02  0.67038317581E+02  0.00000000000E+00 0.  1.
</event>
<event>
 4    1  0.3837333E+003  0.2033027E+02  0.7546771E-02  0.1529045E+00
          2   -1    0    0  502    0  0.00000000000E+00  0.00000000000E+00  0.45986225452E+01  0.45986225452E+01  0.00000000000E+00 0.  1.
          1   -1    0    0  501    0 -0.00000000000E+00 -0.00000000000E+00 -0.27035686799E+03  0.27035686799E+03  0.00000000000E+00 0. -1.
          2    1    1    2  501    0  0.24575290291E+01 -0.20181190036E+02 -0.20554336936E+02  0.28910217002E+02  0.00000000000E+00 0.  1.
          1    1    1    2  502    0 -0.24575290291E+01  0.20181190036E+02 -0.24520390851E+03  0.24604527354E+03  0.00000000000E+00 0. -1.
</event>
<event>
 4    1  0.3837333E+003  0.2579850E+02  0.7546771E-02  0.1460066E+00
          2   -1    0    0  502    0  0.00000000000E+00  0.00000000000E+00  0.71637411483E+03  0.71637411483E+03  0.00000000000E+00 0.  1.
          1   -1    0    0  501    0 -0.00000000000E+00 -0.00000000000E+00 -0.50302961736E+01  0.50302961736E+01  0.00000000000E+00 0.  1.
          2    1    1    2  501    0 -0.25724600525E+02  0.19512774471E+01  0.68136520331E+03  0.68185343208E+03  0.00000000000E+00 0.  1.
          1    1    1    2  502    0  0.25724600525E+02 -0.19512774471E+01  0.29978615348E+02  0.39550978927E+02  0.00000000000E+00 0.  1.
</event>
<event>
 4    1  0.3837333E+003  0.2003563E+02  0.7546771E-02  0.1533492E+00
          2   -1    0    0  502    0  0.00000000000E+00  0.00000000000E+00  0.84304997673E+03  0.84304997673E+03  0.00000000000E+00 0. -1.
          1   -1    0    0  501    0 -0.00000000000E+00 -0.00000000000E+00 -0.13837866687E+01  0.13837866687E+01  0.00000000000E+00 0.  1.
          2    1    1    2  501    0  0.97721603745E+01 -0.17490893813E+02  0.76277686962E+03  0.76303995919E+03  0.00000000000E+00 0. -1.
          1    1    1    2  502    0 -0.97721603745E+01  0.17490893813E+02  0.78889320441E+02  0.81393804214E+02  0.00000000000E+00 0.  1.
</event>
<event>
 4    1  0.3837333E+003  0.4341012E+02  0.7546771E-02  0.1329583E+00
          2   -1    0    0  502    0  0.00000000000E+00  0.00000000000E+00  0.10235415476E+03  0.10235415476E+03  0.00000000000E+00 0.  1.
          1   -1    0    0  501    0 -0.00000000000E+00 -0.00000000000E+00 -0.18811560526E+02  0.18811560526E+02  0.00000000000E+00 0.  1.
          2    1    1    2  501    0 -0.13717982361E+02  0.41185622754E+02  0.50612094656E+02  0.66678502436E+02  0.00000000000E+00 0.  1.
          1    1    1    2  502    0  0.13717982361E+02 -0.41185622754E+02  0.32930499578E+02  0.54487212850E+02  0.00000000000E+00 0.  1.
</event>
<event>
 4    1  0.3837333E+003  0.2015474E+02  0.7546771E-02  0.1531683E+00
          2   -1    0    0  502    0  0.00000000000E+00  0.00000000000E+00  0.87070684737E+02  0.87070684737E+02  0.00000000000E+00 0. -1.
          1   -1    0    0  501    0 -0.00000000000E+00 -0.00000000000E+00 -0.11288491376E+02  0.11288491376E+02  0.00000000000E+00 0.  1.
          2    1    1    2  501    0 -0.17808404090E+02  0.94379177969E+01  0.75561439769E+02  0.78203227098E+02  0.00000000000E+00 0. -1.
          1    1    1    2  502    0  0.17808404090E+02 -0.94379177969E+01  0.22075359160E+00  0.20155949015E+02  0.00000000000E+00 0.  1.
</event>
<event>
 4    1  0.3837333E+003  0.2047930E+02  0.7546771E-02  0.1526831E+00
          2   -1    0    0  502    0  0.00000000000E+00  0.00000000000E+00  0.11397804204E+04  0.11397804204E+04  0.00000000000E+00 0.  1.
          1   -1    0    0  501    0 -0.00000000000E+00 -0.00000000000E+00 -0.67350788219E+00  0.67350788219E+00  0.00000000000E+00 0.  1.
          2    1    1    2  501    0 -0.19071889274E+02  0.74608787061E+01  0.95362401457E+03  0.95384388808E+03  0.00000000000E+00 0.  1.
          1    1    1    2  502    0  0.19071889274E+02 -0.74608787061E+01  0.18548289798E+03  0.18661004023E+03  0.00000000000E+00 0.  1.
</event>
<event>
 4    1  0.3837333E+003  0.3124590E+02  0.7546771E-02  0.1409070E+00
          2   -1    0    0  502    0  0.00000000000E+00  0.00000000000E+00  0.18633050441E+04  0.18633050441E+04  0.00000000000E+00 0. -1.
          1   -1    0    0  501    0 -0.00000000000E+00 -0.00000000000E+00 -0.11657164127E+03  0.11657164127E+03  0.00000000000E+00 0. -1.
          2    1    1    2  501    0 -0.29372384559E+02 -0.10656897935E+02  0.18610777566E+04  0.18613400341E+04  0.00000000000E+00 0. -1.
          1    1    1    2  502    0  0.29372384559E+02  0.10656897935E+02 -0.11434435378E+03  0.11853665125E+03  0.00000000000E+00 0. -1.
</event>
<event>
 4    1  0.3837333E+003  0.2309718E+02  0.7546771E-02  0.1491281E+00
          2   -1    0    0  502    0  0.00000000000E+00  0.00000000000E+00  0.13319378750E+04  0.13319378750E+04  0.00000000000E+00 0.  1.
          1   -1    0    0  501    0 -0.00000000000E+00 -0.00000000000E+00 -0.29154330478E+02  0.29154330478E+02  0.00000000000E+00 0. -1.
          2    1    1    2  501    0 -0.22858760488E+02  0.33100943815E+01  0.13272469582E+04  0.13274479153E+04  0.00000000000E+00 0.  1.
          1    1    1    2  502    0  0.22858760488E+02 -0.33100943815E+01 -0.24463413680E+02  0.33644290225E+02  0.00000000000E+00 0. -1.
</event>
<event>
 4    1  0.3837333E+003  0.2269011E+02  0.7546771E-02  0.1496427E+00
          2   -1    0    0  502    0  0.00000000000E+00  0.00000000000E+00  0.94533346450E+03  0.94533346450E+03  0.00000000000E+00 0. -1.
          1   -1    0    0  501    0 -0.00000000000E+00 -0.00000000000E+00 -0.33844535879E+01  0.33844535879E+01  0.00000000000E+00 0.  1.
          2    1    1    2  501    0 -0.10646933868E+02 -0.20037062135E+02  0.90549452812E+03  0.90577877073E+03  0.00000000000E+00 0. -1.
          1    1    1    2  502    0  0.10646933868E+02  0.20037062135E+02  0.36454482797E+02  0.42939147357E+02  0.00000000000E+00 0.  1.
</event>
<event>
 4    1  0.3837333E+003  0.2735952E+02  0.7546771E-02  0.1444030E+00
          2   -1    0    0  502    0  0.00000000000E+00  0.00000000000E+00  0.33884924855E+02  0.33884924855E+02  0.00000000000E+00 0.  1.
          1   -1    0    0  501    0 -0.00000000000E+00 -0.00000000000E+00 -0.78677538402E+02  0.78677538402E+02  0.00000000000E+00 0. -1.
          2    1    1    2  501    0  0.27329628926E+02 -0.12784859684E+01  0.25334169007E+02  0.37287575181E+02  0.00000000000E+00 0.  1.
          1    1    1    2  502    0 -0.27329628926E+02  0.12784859684E+01 -0.70126782553E+02  0.75274888076E+02  0.00000000000E+00 0. -1.
</event>
<event>
 4    1  0.3837333E+003  0.2010317E+02  0.7546771E-02  0.1532464E+00
          2   -1    0    0  502    0  0.00000000000E+00  0.00000000000E+00  0.60878837933E+03  0.60878837933E+03  0.00000000000E+00 0. -1.
          1   -1    0    0  501    0 -0.00000000000E+00 -0.00000000000E+00 -0.59807919808E+02  0.59807919808E+02  0.00000000000E+00 0.  1.
          2    1    1    2  501    0 -0.20080622066E+02  0.95193293673E+00  0.60692792805E+03  0.60726077381E+03  0.00000000000E+00 0. -1.
          1    1    1    2  502    0  0.20080622066E+02 -0.95193293673E+00 -0.57947468528E+02  0.61335525331E+02  0.00000000000E+00 0.  1.
</event>
<event>
 4    1  0.3837333E+003  0.2172712E+02  0.7546771E-02  0.1509132E+00
          2   -1    0    0  502    0  0.00000000000E+00  0.00000000000E+00  0.32186735246E+02  0.32186735246E+02  0.00000000000E+00 0.  1.
          1   -1    0    0  501    0 -0.00000000000E+00 -0.00000000000E+00 -0.34856098419E+02  0.34856098419E+02  0.00000000000E+00 0.  1.
          2    1    1    2  501    0 -0.38891466950E+01 -0.21376211035E+02  0.24177432599E+02  0.32505631932E+02  0.00000000000E+00 0.  1.
          1    1    1    2  502    0  0.38891466950E+01  0.21376211035E+02 -0.26846795772E+02  0.34537201732E+02  0.00000000000E+00 0.  1.
</event>
<event>
 4    1  0.3837333E+003  0.2126376E+02  0.7546771E-02  0.1515532E+00
          2   -1    0    0  502    0  0.00000000000E+00  0.00000000000E+00  0.11479445582E+02  0.11479445582E+02  0.00000000000E+00 0.  1.
          1   -1    0    0  501    0 -0.00000000000E+00 -0.00000000000E+00 -0.48511912459E+02  0.48511912459E+02  0.00000000000E+00 0.  1.
          2    1    1    2  501    0  0.12260715624E+02 -0.17373035824E+02 -0.55074952159E+01  0.21965427947E+02  0.00000000000E+00 0.  1.
          1    1    1    2  502    0 -0.12260715624E+02  0.17373035824E+02 -0.31524971660E+02  0.38025930094E+02  0.00000000000E+00 0.  1.
</event>
<event>
 4    1  0.3837333E+003  0.2557376E+02  0.7546771E-02  0.1462486E+00
          2   -1    0    0  502    0  0.00000000000E+00  0.00000000000E+00  0.18480260891E+03  0.18480260891E+03  0.00000000000E+00 0. -1.
          1   -1    0    0  501    0 -0.00000000000E+00 -0.00000000000E+00 -0.65667222354E+03  0.65667222354E+03  0.00000000000E+00 0.  1.
          2    1    1    2  501    0  0.23663434086E+02 -0.96984096173E+01  0.18366733691E+03  0.18543922969E+03  0.00000000000E+00 0. -1.
          1    1    1    2  502    0 -0.23663434086E+02  0.96984096173E+01 -0.65553695154E+03  0.65603560276E+03  0.00000000000E+00 0.  1.
</event>
<event>
 4    1  0.3837333E+003  0.2000608E+02  0.7546771E-02  0.1533943E+00
          2   -1    0    0  502    0  0.00000000000E+00  0.00000000000E+00  0.67223828002E+02  0.67223828002E+02  0.00000000000E+00 0. -1.
          1   -1    0    0  501    0 -0.00000000000E+00 -0.00000000000E+00 -0.10909309087E+03  0.10909309087E+03  0.00000000000E+00 0. -1.
          2    1    1    2  501    0 -0.79194810497E+01  0.18371850544E+02  0.64784400266E+02  0.67803109002E+02  0.00000000000E+00 0. -1.
          1    1    1    2  502    0  0.79194810497E+01 -0.18371850544E+02 -0.10665366314E+03  0.10851380987E+03  0.00000000000E+00 0. -1.
</event>
<event>
 4    1  0.3837333E+003  0.5373675E+02  0.7546771E-02  0.1282736E+00
          2   -1    0    0  502    0  0.00000000000E+00  0.00000000000E+00  0.68558906600E+02  0.68558906600E+02  0.00000000000E+00 0.  1.
          1   -1    0    0  501    0 -0.00000000000E+00 -0.00000000000E+00 -0.74735391171E+02  0.74735391171E+02  0.00000000000E+00 0.  1.
          2    1    1    2  501    0 -0.16659875735E+02  0.51089008661E+02  0.44243572775E+02  0.69606982389E+02  0.00000000000E+00 0.  1.
          1    1    1    2  502    0  0.16659875735E+02 -0.51089008661E+02 -0.50420057346E+02  0.73687315382E+02  0.00000000000E+00 0.  1.
</event>
<event>
 4    1  0.3837333E+003  0.2112020E+02  0.7546771E-02  0.1517556E+00
          2   -1    0    0  502    0  0.00000000000E+00  0.00000000000E+00  0.17598194010E+03  0.17598194010E+03  0.00000000000E+00 0.  1.
          1   -1    0    0  501    0 -0.00000000000E+00 -0.00000000000E+00 -0.13735974403E+02  0.13735974403E+02  0.00000000000E+00 0. -1.
          2    1    1    2  501    0  0.94233459048E+01 -0.18901411024E+02  0.16678379309E+03  0.16811572331E+03  0.00000000000E+00 0.  1.
          1    1    1    2  502    0 -0.94233459048E+01  0.18901411024E+02 -0.45378273962E+01  0.21602191190E+02  0.00000000000E+00 0. -1.
</event>
<event>
 4    1  0.3837333E+003  0.4125309E+02  0.7546771E-02  0.1341295E+00
          2   -1    0    0  502    0  0.00000000000E+00  0.00000000000E+00  0.40870060534E+04  0.40870060534E+04  0.00000000000E+00 0.  1.
          1   -1    0    0  501    0 -0.00000000000E+00 -0.00000000000E+00 -0.55031492131E+00  0.55031492131E+00  0.00000000000E+00 0.  1.
          2    1    1    2  501    0  0.41223169708E+02 -0.15708710038E+01  0.30514293868E+04  0.30517082298E+04  0.00000000000E+00 0.  1.
          1    1    1    2  502    0 -0.41223169708E+02  0.15708710038E+01  0.10350263517E+04  0.10358481385E+04  0.00000000000E+00 0.  1.
</event>
<event>
 4    1  0.3837333E+003  0.2010124E+02  0.7546771E-02  0.1532494E+00
          2   -1    0    0  502    0  0.00000000000E+00  0.00000000000E+00  0.16652051520E+03  0.16652051520E+03  0.00000000000E+00 0. -1.
          1   -1    0    0  501    0 -0.00000000000E+00 -0.00000000000E+00 -0.64114891174E+01  0.64114891174E+01  0.00000000000E+00 0.  1.
          2    1    1    2  501    0 -0.18764064028E+02 -0.72090173654E+01  0.14822244974E+03  0.14957925871E+03  0.00000000000E+00 0. -1.
          1    1    1    2  502    0  0.18764064028E+02  0.72090173654E+01  0.11886576346E+02  0.23352745608E+02  0.00000000000E+00 0.  1.
</event>
<event>
 4    1  0.3837333E+003  0.4989363E+02  0.7546771E-02  0.1298634E+00
          2   -1    0    0  502    0  0.00000000000E+00  0.00000000000E+00  0.21100518588E+04  0.21100518588E+04  0.00000000000E+00 0.  1.
          1   -1    0    0  501    0 -0.00000000000E+00 -0.00000000000E+00 -0.11159976425E+02  0.11159976425E+02  0.00000000000E+00 0. -1.
          2    1    1    2  501    0  0.40826355933E+02  0.28680706169E+02  0.20524257408E+04  0.20530320981E+04  0.00000000000E+00 0.  1.
          1    1    1    2  502    0 -0.40826355933E+02 -0.28680706169E+02  0.46466141588E+02  0.68179737160E+02  0.00000000000E+00 0. -1.
</event>
<event>
 4    1  0.3837333E+003  0.2115093E+02  0.7546771E-02  0.1517121E+00
          2   -1    0    0  502    0  0.00000000000E+00  0.00000000000E+00  0.11794215955E+04  0.11794215955E+04  0.00000000000E+00 0.  1.
          1   -1    0    0  501    0 -0.00000000000E+00 -0.00000000000E+00 -0.24887012857E+01  0.24887012857E+01  0.00000000000E+00 0. -1.
          2    1    1    2  501    0  0.39926600071E+01  0.20770660985E+02  0.11325268511E+04  0.11327243399E+04  0.00000000000E+00 0.  1.
          1    1    1    2  502    0 -0.39926600071E+01 -0.20770660985E+02  0.44406043104E+02  0.49185956897E+02  0.00000000000E+00 0. -1.
</event>
<event>
 4    1  0.3837333E+003  0.2155114E+02  0.7546771E-02  0.1511539E+00
          2   -1    0    0  502    0  0.00000000000E+00  0.00000000000E+00  0.10680987452E+04  0.10680987452E+04  0.00000000000E+00 0. -1.
          1   -1    0    0  501    0 -0.00000000000E+00 -0.00000000000E+00 -0.52916956551E+01  0.52916956551E+01  0.00000000000E+00 0.  1.
          2    1    1    2  501    0  0.16990607925E+02  0.13257863109E+02  0.10455749201E+04  0.10457970000E+04  0.00000000000E+00 0. -1.
          1    1    1    2  502    0 -0.16990607925E+02 -0.13257863109E+02  0.17232129421E+02  0.27593440820E+02  0.00000000000E+00 0.  1.
</event>
<event>
 4    1  0.3837333E+003  0.3394240E+02  0.7546771E-02  0.1388155E+00
          2   -1    0    0  502    0  0.00000000000E+00  0.00000000000E+00  0.22207275710E+03  0.22207275710E+03  0.00000000000E+00 0.  1.
          1   -1    0    0  501    0 -0.00000000000E+00 -0.00000000000E+00 -0.17104249843E+03  0.17104249843E+03  0.00000000000E+00 0. -1.
          2    1    1    2  501    0 -0.10503230276E+02 -0.32276444778E+02  0.21906891565E+03  0.22168282869E+03  0.00000000000E+00 0.  1.
          1    1    1    2  502    0  0.10503230276E+02  0.32276444778E+02 -0.16803865697E+03  0.17143242684E+03  0.00000000000E+00 0. -1.
</event>
<event>
 4    1  0.3837333E+003  0.2123976E+02  0.7546771E-02  0.1515869E+00
          2   -1    0    0  502    0  0.00000000000E+00  0.00000000000E+00  0.23033030832E+03  0.23033030832E+03  0.00000000000E+00 0. -1.
          1   -1    0    0  501    0 -0.00000000000E+00 -0.00000000000E+00 -0.57992798567E+01  0.57992798567E+01  0.00000000000E+00 0. -1.
          2    1    1    2  501    0 -0.89662288240E+01 -0.19254457387E+02  0.20834636362E+03  0.20942620329E+03  0.00000000000E+00 0. -1.
          1    1    1    2  502    0  0.89662288240E+01  0.19254457387E+02  0.16184664843E+02  0.26703384892E+02  0.00000000000E+00 0. -1.
</event>
<event>
 4    1  0.3837333E+003  0.2277806E+02  0.7546771E-02  0.1495304E+00
          2   -1    0    0  502    0  0.00000000000E+00  0.00000000000E+00  0.15586996003E+02  0.15586996003E+02  0.00000000000E+00 0. -1.
          1   -1    0    0  501    0 -0.00000000000E+00 -0.00000000000E+00 -0.26711413585E+03  0.26711413585E+03  0.00000000000E+00 0. -1.
          2    1    1    2  501    0 -0.10522030425E+02  0.20202149972E+02  0.64867799967E+01  0.23683713866E+02  0.00000000000E+00 0. -1.
          1    1    1    2  502    0  0.10522030425E+02 -0.20202149972E+02 -0.25801391984E+03  0.25901741799E+03  0.00000000000E+00 0. -1.
</event>
<event>
 4    1  0.3837333E+003  0.2427055E+02  0.7546771E-02  0.1477132E+00
          2   -1    0    0  502    0  0.00000000000E+00  0.00000000000E+00  0.64212213645E+03  0.64212213645E+03  0.00000000000E+00 0. -1.
          1   -1    0    0  501    0 -0.00000000000E+00 -0.00000000000E+00 -0.53254249346E+01  0.53254249346E+01  0.00000000000E+00 0. -1.
          2    1    1    2  501    0 -0.18471953372E+02  0.15743138065E+02  0.61292275972E+03  0.61340310468E+03  0.00000000000E+00 0. -1.
          1    1    1    2  502    0  0.18471953372E+02 -0.15743138065E+02  0.23873951798E+02  0.34044456699E+02  0.00000000000E+00 0. -1.
</event>
<event>
 4    1  0.3837333E+003  0.2430789E+02  0.7546771E-02  0.1476697E+00
          2   -1    0    0  502    0  0.00000000000E+00  0.00000000000E+00  0.12788333913E+04  0.12788333913E+04  0.00000000000E+00 0.  1.
          1   -1    0    0  501    0 -0.00000000000E+00 -0.00000000000E+00 -0.35329449602E+01  0.35329449602E+01  0.00000000000E+00 0.  1.
          2    1    1    2  501    0  0.87013975075E+01 -0.22697117659E+02  0.12354376743E+04  0.12356767864E+04  0.00000000000E+00 0.  1.
          1    1    1    2  502    0 -0.87013975075E+01  0.22697117659E+02  0.39862772111E+02  0.46689549891E+02  0.00000000000E+00 0.  1.
</event>
<event>
 4    1  0.3837333E+003  0.2467894E+02  0.7546771E-02  0.1472427E+00
          2   -1    0    0  502    0  0.00000000000E+00  0.00000000000E+00  0.16560415988E+04  0.16560415988E+04  0.00000000000E+00 0. -1.
          1   -1    0    0  501    0 -0.00000000000E+00 -0.00000000000E+00 -0.36945822110E+00  0.36945822110E+00  0.00000000000E+00 0. -1.
          2    1    1    2  501    0  0.13496020108E+02 -0.20661738219E+02  0.88374506153E+03  0.88408957904E+03  0.00000000000E+00 0. -1.
          1    1    1    2  502    0 -0.13496020108E+02  0.20661738219E+02  0.77192707906E+03  0.77232147799E+03  0.00000000000E+00 0. -1.
</event>
<event>
 4    1  0.3837333E+003  0.2065673E+02  0.7546771E-02  0.1524223E+00
          2   -1    0    0  502    0  0.00000000000E+00  0.00000000000E+00  0.12780310538E+02  0.12780310538E+02  0.00000000000E+00 0.  1.
          1   -1    0    0  501    0 -0.00000000000E+00 -0.00000000000E+00 -0.18731994486E+03  0.18731994486E+03  0.00000000000E+00 0.  1.
          2    1    1    2  501    0  0.90110439948E+01 -0.18587671743E+02  0.34267728860E+01  0.20939035964E+02  0.00000000000E+00 0.  1.
          1    1    1    2  502    0 -0.90110439948E+01  0.18587671743E+02 -0.17796640721E+03  0.17916121944E+03  0.00000000000E+00 0.  1.
</event>
<event>
 4    1  0.3837333E+003  0.2078783E+02  0.7546771E-02  0.1522316E+00
          2   -1    0    0  502    0  0.00000000000E+00  0.00000000000E+00  0.71949494610E+03  0.71949494610E+03  0.00000000000E+00 0.  1.
          1   -1    0    0  501    0 -0.00000000000E+00 -0.00000000000E+00 -0.35330114004E+02  0.35330114004E+02  0.00000000000E+00 0.  1.
          2    1    1    2  501    0  0.48242498062E+01  0.20220299662E+02  0.71627321351E+03  0.71657480440E+03  0.00000000000E+00 0.  1.
          1    1    1    2  502    0 -0.48242498062E+01 -0.20220299662E+02 -0.32108381414E+02  0.38250255707E+02  0.00000000000E+00 0.  1.
</event>
<event>
 4    1  0.3837333E+003  0.5296827E+02  0.7546771E-02  0.1285792E+00
          2   -1    0    0  502    0  0.00000000000E+00  0.00000000000E+00  0.83235657002E+02  0.83235657002E+02  0.00000000000E+00 0.  1.
          1   -1    0    0  501    0 -0.00000000000E+00 -0.00000000000E+00 -0.42931989207E+03  0.42931989207E+03  0.00000000000E+00 0. -1.
          2    1    1    2  501    0  0.41739330992E+02 -0.32610825070E+02  0.72969472500E+02  0.90167519542E+02  0.00000000000E+00 0.  1.
          1    1    1    2  502    0 -0.41739330992E+02  0.32610825070E+02 -0.41905370757E+03  0.42238802953E+03  0.00000000000E+00 0. -1.
</event>
<event>
 4    1  0.3837333E+003  0.2351688E+02  0.7546771E-02  0.1486108E+00
          2   -1    0    0  502    0  0.00000000000E+00  0.00000000000E+00  0.21697747674E+03  0.21697747674E+03  0.00000000000E+00 0.  1.
          1   -1    0    0  501    0 -0.00000000000E+00 -0.00000000000E+00 -0.97077992429E+01  0.97077992429E+01  0.00000000000E+00 0. -1.
          2    1    1    2  501    0 -0.69395484632E+01  0.22469670339E+02  0.20096725665E+03  0.20233853233E+03  0.00000000000E+00 0.  1.
          1    1    1    2  502    0  0.69395484632E+01 -0.22469670339E+02  0.63024208416E+01  0.24346743652E+02  0.00000000000E+00 0. -1.
</event>
<event>
 4    1  0.3837333E+003  0.4248060E+02  0.7546771E-02  0.1334532E+00
          2   -1    0    0  502    0  0.00000000000E+00  0.00000000000E+00  0.99360272646E+03  0.99360272646E+03  0.00000000000E+00 0.  1.
          1   -1    0    0  501    0 -0.00000000000E+00 -0.00000000000E+00 -0.16627699313E+03  0.16627699313E+03  0.00000000000E+00 0. -1.
          2    1    1    2  501    0 -0.59210099486E+01  0.42065933345E+02  0.99042672958E+03  0.99133733298E+03  0.00000000000E+00 0.  1.
          1    1    1    2  502    0  0.59210099486E+01 -0.42065933345E+02 -0.16310099625E+03  0.16854238661E+03  0.00000000000E+00 0. -1.
</event>
<event>
 4    1  0.3837333E+003  0.2411777E+02  0.7546771E-02  0.1478920E+00
          2   -1    0    0  502    0  0.00000000000E+00  0.00000000000E+00  0.83607452430E+00  0.83607452430E+00  0.00000000000E+00 0. -1.
          1   -1    0    0  501    0 -0.00000000000E+00 -0.00000000000E+00 -0.13932524556E+04  0.13932524556E+04  0.00000000000E+00 0.  1.
          2    1    1    2  501    0 -0.20423603597E+02 -0.12827434434E+02 -0.20299996948E+03  0.20442762599E+03  0.00000000000E+00 0. -1.
          1    1    1    2  502    0  0.20423603597E+02  0.12827434434E+02 -0.11894164116E+04  0.11896609042E+04  0.00000000000E+00 0.  1.
</event>
<event>
 4    1  0.3837333E+003  0.3294351E+02  0.7546771E-02  0.1395627E+00
          2   -1    0    0  502    0  0.00000000000E+00  0.00000000000E+00  0.86984940760E+02  0.86984940760E+02  0.00000000000E+00 0.  1.
          1   -1    0    0  501    0 -0.00000000000E+00 -0.00000000000E+00 -0.16095820822E+04  0.16095820822E+04  0.00000000000E+00 0. -1.
          2    1    1    2  501    0  0.89453555708E+01  0.31705767007E+02  0.83690833728E+02  0.89941262487E+02  0.00000000000E+00 0.  1.
          1    1    1    2  502    0 -0.89453555708E+01 -0.31705767007E+02 -0.16062879752E+04  0.16066257605E+04  0.00000000000E+00 0. -1.
</event>
<event>
 4    1  0.3837333E+003  0.2280972E+02  0.7546771E-02  0.1494901E+00
          2   -1    0    0  502    0  0.00000000000E+00  0.00000000000E+00  0.14688601041E+03  0.14688601041E+03  0.00000000000E+00 0. -1.
          1   -1    0    0  501    0 -0.00000000000E+00 -0.00000000000E+00 -0.61138034188E+01  0.61138034188E+01  0.00000000000E+00 0. -1.
          2    1    1    2  501    0 -0.51594026803E+01  0.22218548232E+02  0.12000150858E+03  0.12215009366E+03  0.00000000000E+00 0. -1.
          1    1    1    2  502    0  0.51594026803E+01 -0.22218548232E+02  0.20770698413E+02  0.30849720163E+02  0.00000000000E+00 0. -1.
</event>
<event>
 4    1  0.3837333E+003  0.3241490E+02  0.7546771E-02  0.1399709E+00
          2   -1    0    0  502    0  0.00000000000E+00  0.00000000000E+00  0.28690588178E+02  0.28690588178E+02  0.00000000000E+00 0. -1.
          1   -1    0    0  501    0 -0.00000000000E+00 -0.00000000000E+00 -0.17595459297E+03  0.17595459297E+03  0.00000000000E+00 0. -1.
          2    1    1    2  501    0  0.30252472421E+01  0.32273416933E+02  0.17421479788E+02  0.36799911949E+02  0.00000000000E+00 0. -1.
          1    1    1    2  502    0 -0.30252472421E+01 -0.32273416933E+02 -0.16468548458E+03  0.16784526920E+03  0.00000000000E+00 0. -1.
</event>
<event>
 4    1  0.3837333E+003  0.2400798E+02  0.7546771E-02  0.1480214E+00
          2   -1    0    0  502    0  0.00000000000E+00  0.00000000000E+00  0.11768764178E+01  0.11768764178E+01  0.00000000000E+00 0.  1.
          1   -1    0    0  501    0 -0.00000000000E+00 -0.00000000000E+00 -0.10535575952E+04  0.10535575952E+04  0.00000000000E+00 0. -1.
          2    1    1    2  501    0 -0.20267762343E+02  0.12868606359E+02 -0.14040401750E+03  0.14244181742E+03  0.00000000000E+00 0.  1.
          1    1    1    2  502    0  0.20267762343E+02 -0.12868606359E+02 -0.91197670125E+03  0.91229265417E+03  0.00000000000E+00 0. -1.
</event>
<event>
 4    1  0.3837333E+003  0.2098409E+02  0.7546771E-02  0.1519492E+00
          2   -1    0    0  502    0  0.00000000000E+00  0.00000000000E+00  0.83559751205E+02  0.83559751205E+02  0.00000000000E+00 0.  1.
          1   -1    0    0  501    0 -0.00000000000E+00 -0.00000000000E+00 -0.53479647659E+02  0.53479647659E+02  0.00000000000E+00 0.  1.
          2    1    1    2  501    0 -0.30640000220E+01 -0.20759191050E+02  0.80096396271E+02  0.82799545921E+02  0.00000000000E+00 0.  1.
          1    1    1    2  502    0  0.30640000220E+01  0.20759191050E+02 -0.50016292726E+02  0.54239852942E+02  0.00000000000E+00 0.  1.
</event>
<event>
 4    1  0.3837333E+003  0.2028836E+02  0.7546771E-02  0.1529672E+00
          2   -1    0    0  502    0  0.00000000000E+00  0.00000000000E+00  0.38389915292E+01  0.38389915292E+01  0.00000000000E+00 0.  1.
          1   -1    0    0  501    0 -0.00000000000E+00 -0.00000000000E+00 -0.10741559844E+03  0.10741559844E+03  0.00000000000E+00 0. -1.
          2    1    1    2  501    0 -0.19445970932E+02  0.57854800727E+01 -0.49415955205E+02  0.53418668965E+02  0.00000000000E+00 0.  1.
          1    1    1    2  502    0  0.19445970932E+02 -0.57854800727E+01 -0.54160651702E+02  0.57835921001E+02  0.00000000000E+00 0. -1.
</event>
<event>
 4    1  0.3837333E+003  0.2791994E+02  0.7546771E-02  0.1438580E+00
          2   -1    0    0  502    0  0.00000000000E+00  0.00000000000E+00  0.33302949728E+02  0.33302949728E+02  0.00000000000E+00 0.  1.
          1   -1    0    0  501    0 -0.00000000000E+00 -0.00000000000E+00 -0.26556349448E+03  0.26556349448E+03  0.00000000000E+00 0.  1.
          2    1    1    2  501    0 -0.97346695643E+01 -0.26167909417E+02  0.26565466169E+02  0.38538905895E+02  0.00000000000E+00 0.  1.
          1    1    1    2  502    0  0.97346695643E+01  0.26167909417E+02 -0.25882601092E+03  0.26032753831E+03  0.00000000000E+00 0.  1.
</event>
<event>
 4    1  0.3837333E+003  0.2451622E+02  0.7546771E-02  0.1474289E+00
          2   -1    0    0  502    0  0.00000000000E+00  0.00000000000E+00  0.31875337948E+03  0.31875337948E+03  0.00000000000E+00 0. -1.
          1   -1    0    0  501    0 -0.00000000000E+00 -0.00000000000E+00 -0.20144876890E+02  0.20144876890E+02  0.00000000000E+00 0. -1.
          2    1    1    2  501    0  0.24079950122E+02 -0.46044434729E+01  0.31062814130E+03  0.31159410627E+03  0.00000000000E+00 0. -1.
          1    1    1    2  502    0 -0.24079950122E+02  0.46044434729E+01 -0.12019638712E+02  0.27304150094E+02  0.00000000000E+00 0. -1.
</event>
<event>
 4    1  0.3837333E+003  0.2715115E+02  0.7546771E-02  0.1446096E+00
          2   -1    0    0  502    0  0.00000000000E+00  0.00000000000E+00  0.55315202320E+01  0.55315202320E+01  0.00000000000E+00 0. -1.
          1   -1    0    0  501    0 -0.00000000000E+00 -0.00000000000E+00 -0.34957659451E+03  0.34957659451E+03  0.00000000000E+00 0. -1.
          2    1    1    2  501    0 -0.23751526022E+02  0.13154853118E+02 -0.32355343267E+02  0.42238056145E+02  0.00000000000E+00 0. -1.
          1    1    1    2  502    0  0.23751526022E+02 -0.13154853118E+02 -0.31168973101E+03  0.31287005860E+03  0.00000000000E+00 0. -1.
</event>
<event>
 4    1  0.3837333E+003  0.2223615E+02  0.7546771E-02  0.1502319E+00
          2   -1    0    0  502    0  0.00000000000E+00  0.00000000000E+00  0.20122498148E+01  0.20122498148E+01  0.00000000000E+00 0. -1.
          1   -1    0    0  501    0 -0.00000000000E+00 -0.00000000000E+00 -0.42143293074E+03  0.42143293074E+03  0.00000000000E+00 0.  1.
          2    1    1    2  501    0 -0.14807546232E+02 -0.16588643447E+02 -0.72998232453E+02  0.76309818884E+02  0.00000000000E+00 0. -1.
          1    1    1    2  502    0  0.14807546232E+02  0.16588643447E+02 -0.34642244848E+03  0.34713536167E+03  0.00000000000E+00 0.  1.
</event>
<event>
 4    1  0.3837333E+003  0.3846255E+02  0.7546771E-02  0.1357739E+00
          2   -1    0    0  502    0  0.00000000000E+00  0.00000000000E+00  0.35747900897E+03  0.35747900897E+03  0.00000000000E+00 0.  1.
          1   -1    0    0  501    0 -0.00000000000E+00 -0.00000000000E+00 -0.25915294172E+02  0.25915294172E+02  0.00000000000E+00 0. -1.
          2    1    1    2  501    0  0.18542331830E+02  0.33697921544E+02  0.34150793052E+03  0.34366704031E+03  0.00000000000E+00 0.  1.
          1    1    1    2  502    0 -0.18542331830E+02 -0.33697921544E+02 -0.99442157214E+01  0.39727262835E+02  0.00000000000E+00 0. -1.
</event>
<event>
 4    1  0.3837333E+003  0.3469622E+02  0.7546771E-02  0.1382712E+00
          2   -1    0    0  502    0  0.00000000000E+00  0.00000000000E+00  0.14719406423E+02  0.14719406423E+02  0.00000000000E+00 0. -1.
          1   -1    0    0  501    0 -0.00000000000E+00 -0.00000000000E+00 -0.24322209310E+03  0.24322209310E+03  0.00000000000E+00 0. -1.
          2    1    1    2  501    0  0.19138952929E+02  0.28940076670E+02 -0.91783037747E+01  0.35889675634E+02  0.00000000000E+00 0. -1.
          1    1    1    2  502    0 -0.19138952929E+02 -0.28940076670E+02 -0.21932438290E+03  0.22205182389E+03  0.00000000000E+00 0. -1.
</event>
<event>
 4    1  0.3837333E+003  0.5273795E+02  0.7546771E-02  0.1286719E+00
          2   -1    0    0  502    0  0.00000000000E+00  0.00000000000E+00  0.27724943891E+02  0.27724943891E+02  0.00000000000E+00 0. -1.
          1   -1    0    0  501    0 -0.00000000000E+00 -0.00000000000E+00 -0.28737101250E+03  0.28737101250E+03  0.00000000000E+00 0. -1.
          2    1    1    2  501    0 -0.35250518463E+02 -0.39226172384E+02 -0.27145571813E+01  0.52807769054E+02  0.00000000000E+00 0. -1.
          1    1    1    2  502    0  0.35250518463E+02  0.39226172384E+02 -0.25693151143E+03  0.26228818734E+03  0.00000000000E+00 0. -1.
</event>
<event>
 4    1  0.3837333E+003  0.2404371E+02  0.7546771E-02  0.1479792E+00
          2   -1    0    0  502    0  0.00000000000E+00  0.00000000000E+00  0.99542891676E+03  0.99542891676E+03  0.00000000000E+00 0. -1.
          1   -1    0    0  501    0 -0.00000000000E+00 -0.00000000000E+00 -0.58422996899E+00  0.58422996899E+00  0.00000000000E+00 0. -1.
          2    1    1    2  501    0 -0.13075900760E+02  0.20177222130E+02  0.45900991276E+03  0.45963920578E+03  0.00000000000E+00 0. -1.
          1    1    1    2  502    0  0.13075900760E+02 -0.20177222130E+02  0.53583477403E+03  0.53637394095E+03  0.00000000000E+00 0. -1.
</event>
<event>
 4    1  0.3837333E+003  0.2135734E+02  0.7546771E-02  0.1514224E+00
          2   -1    0    0  502    0  0.00000000000E+00  0.00000000000E+00  0.21620673956E+01  0.21620673956E+01  0.00000000000E+00 0.  1.
          1   -1    0    0  501    0 -0.00000000000E+00 -0.00000000000E+00 -0.49635641696E+03  0.49635641696E+03  0.00000000000E+00 0.  1.
          2    1    1    2  501    0 -0.12017379868E+02 -0.17655558397E+02 -0.58093865173E+02  0.61895341762E+02  0.00000000000E+00 0.  1.
          1    1    1    2  502    0  0.12017379868E+02  0.17655558397E+02 -0.43610048439E+03  0.43662314259E+03  0.00000000000E+00 0.  1.
</event>
<event>
 4    1  0.3837333E+003  0.2553676E+02  0.7546771E-02  0.1462887E+00
          2   -1    0    0  502    0  0.00000000000E+00  0.00000000000E+00  0.52899917592E+03  0.52899917592E+03  0.00000000000E+00 0. -1.
          1   -1    0    0  501    0 -0.00000000000E+00 -0.00000000000E+00 -0.23004004415E+01  0.23004004415E+01  0.00000000000E+00 0. -1.
          2    1    1    2  501    0 -0.72813601261E+00  0.25526372332E+02  0.44432559189E+03  0.44505882474E+03  0.00000000000E+00 0. -1.
          1    1    1    2  502    0  0.72813601261E+00 -0.25526372332E+02  0.82373183583E+02  0.86240751620E+02  0.00000000000E+00 0. -1.
</event>
<event>
 4    1  0.3837333E+003  0.3274348E+02  0.7546771E-02  0.1397161E+00
          2   -1    0    0  502    0  0.00000000000E+00  0.00000000000E+00  0.95621795404E+03  0.95621795404E+03  0.00000000000E+00 0. -1.
          1   -1    0    0  501    0 -0.00000000000E+00 -0.00000000000E+00 -0.16801121704E+01  0.16801121704E+01  0.00000000000E+00 0. -1.
          2    1    1    2  501    0 -0.39898417889E+01 -0.32499488570E+02  0.75350613388E+03  0.75421722958E+03  0.00000000000E+00 0. -1.
          1    1    1    2  502    0  0.39898417889E+01  0.32499488570E+02  0.20103170799E+03  0.20368083664E+03  0.00000000000E+00 0. -1.
</event>
<event>
 4    1  0.3837333E+003  0.3060035E+02  0.7546771E-02  0.1414450E+00
          2   -1    0    0  502    0  0.00000000000E+00  0.00000000000E+00  0.96108614077E+03  0.96108614077E+03  0.00000000000E+00 0. -1.
          1   -1    0    0  501    0 -0.00000000000E+00 -0.00000000000E+00 -0.15655555710E+01  0.15655555710E+01  0.00000000000E+00 0. -1.
          2    1    1    2  501    0  0.30323814103E+02 -0.41045639709E+01  0.77555779651E+03  0.77616124413E+03  0.00000000000E+00 0. -1.
          1    1    1    2  502    0 -0.30323814103E+02  0.41045639709E+01  0.18396278868E+03  0.18649045221E+03  0.00000000000E+00 0. -1.
</event>
<event>
 4    1  0.3837333E+003  0.2521150E+02  0.7546771E-02  0.1466451E+00
          2   -1    0    0  502    0  0.00000000000E+00  0.00000000000E+00  0.16433229163E+04  0.16433229163E+04  0.00000000000E+00 0.  1.
          1   -1    0    0  501    0 -0.00000000000E+00 -0.00000000000E+00 -0.17986049206E+03  0.17986049206E+03  0.00000000000E+00 0.  1.
          2    1    1    2  501    0  0.25107792413E+02 -0.22843772702E+01  0.16423422016E+04  0.16425357003E+04  0.00000000000E+00 0.  1.
          1    1    1    2  502    0 -0.25107792413E+02  0.22843772702E+01 -0.17887977744E+03  0.18064770797E+03  0.00000000000E+00 0.  1.
</event>
<event>
 4    1  0.3837333E+003  0.4591558E+02  0.7546771E-02  0.1316924E+00
          2   -1    0    0  502    0  0.00000000000E+00  0.00000000000E+00  0.52592577165E+02  0.52592577165E+02  0.00000000000E+00 0. -1.
          1   -1    0    0  501    0 -0.00000000000E+00 -0.00000000000E+00 -0.48292300063E+02  0.48292300063E+02  0.00000000000E+00 0.  1.
          2    1    1    2  501    0 -0.63546617771E+00 -0.45911180505E+02  0.22943449511E+02  0.51328765698E+02  0.00000000000E+00 0. -1.
          1    1    1    2  502    0  0.63546617771E+00  0.45911180505E+02 -0.18643172409E+02  0.49556111531E+02  0.00000000000E+00 0.  1.
</event>
<event>
 4    1  0.3837333E+003  0.2428482E+02  0.7546771E-02  0.1476965E+00
          2   -1    0    0  502    0  0.00000000000E+00  0.00000000000E+00  0.17504663219E+03  0.17504663219E+03  0.00000000000E+00 0.  1.
          1   -1    0    0  501    0 -0.00000000000E+00 -0.00000000000E+00 -0.22034809671E+02  0.22034809671E+02  0.00000000000E+00 0.  1.
          2    1    1    2  501    0 -0.23433640843E+02 -0.63731534650E+01  0.16720086787E+03  0.16895526871E+03  0.00000000000E+00 0.  1.
          1    1    1    2  502    0  0.23433640843E+02  0.63731534650E+01 -0.14189045350E+02  0.28126173152E+02  0.00000000000E+00 0.  1.
</event>
<event>
 4    1  0.3837333E+003  0.2432575E+02  0.7546771E-02  0.1476489E+00
          2   -1    0    0  502    0  0.00000000000E+00  0.00000000000E+00  0.82243030805E+02  0.82243030805E+02  0.00000000000E+00 0. -1.
          1   -1    0    0  501    0 -0.00000000000E+00 -0.00000000000E+00 -0.89253529047E+01  0.89253529047E+01  0.00000000000E+00 0. -1.
          2    1    1    2  501    0  0.20704193243E+02 -0.12770222699E+02  0.56729580231E+02  0.61725096021E+02  0.00000000000E+00 0. -1.
          1    1    1    2  502    0 -0.20704193243E+02  0.12770222699E+02  0.16588097669E+02  0.29443287689E+02  0.00000000000E+00 0. -1.
</event>
<event>
 4    1  0.3837333E+003  0.3504084E+02  0.7546771E-02  0.1380276E+00
          2   -1    0    0  502    0  0.00000000000E+00  0.00000000000E+00  0.12463471009E+04  0.12463471009E+04  0.00000000000E+00 0. -1.
          1   -1    0    0  501    0 -0.00000000000E+00 -0.00000000000E+00 -0.99801481742E+01  0.99801481742E+01  0.00000000000E+00 0.  1.
          2    1    1    2  501    0  0.25341095532E+01  0.34949084111E+02  0.12145378594E+04  0.12150432387E+04  0.00000000000E+00 0. -1.
          1    1    1    2  502    0 -0.25341095532E+01 -0.34949084111E+02  0.21829093351E+02  0.41284010318E+02  0.00000000000E+00 0.  1.
</event>
<event>
 4    1  0.3837333E+003  0.2230954E+02  0.7546771E-02  0.1501355E+00
          2   -1    0    0  502    0  0.00000000000E+00  0.00000000000E+00  0.11010623985E+01  0.11010623985E+01  0.00000000000E+00 0. -1.
          1   -1    0    0  501    0 -0.00000000000E+00 -0.00000000000E+00 -0.12368177483E+04  0.12368177483E+04  0.00000000000E+00 0. -1.
          2    1    1    2  501    0  0.95143437321E+01  0.20179017728E+02 -0.12481528052E+03  0.12679341365E+03  0.00000000000E+00 0. -1.
          1    1    1    2  502    0 -0.95143437321E+01 -0.20179017728E+02 -0.11109014054E+04  0.11111253970E+04  0.00000000000E+00 0. -1.
</event>
<event>
 4    1  0.3837333E+003  0.2062860E+02  0.7546771E-02  0.1524634E+00
          2   -1    0    0  502    0  0.00000000000E+00  0.00000000000E+00  0.11409396318E+02  0.11409396318E+02  0.00000000000E+00 0.  1.
          1   -1    0    0  501    0 -0.00000000000E+00 -0.00000000000E+00 -0.53322901420E+02  0.53322901420E+02  0.00000000000E+00 0.  1.
          2    1    1    2  501    0  0.18445231394E+02 -0.92364907194E+01 -0.32131528313E+01  0.20877348326E+02  0.00000000000E+00 0.  1.
          1    1    1    2  502    0 -0.18445231394E+02  0.92364907194E+01 -0.38700352271E+02  0.43854949412E+02  0.00000000000E+00 0.  1.
</event>
<event>
 4    1  0.3837333E+003  0.2846840E+02  0.7546771E-02  0.1433390E+00
          2   -1    0    0  502    0  0.00000000000E+00  0.00000000000E+00  0.16873900078E+03  0.16873900078E+03  0.00000000000E+00 0.  1.
          1   -1    0    0  501    0 -0.00000000000E+00 -0.00000000000E+00 -0.77197424874E+03  0.77197424874E+03  0.00000000000E+00 0. -1.
          2    1    1    2  501    0 -0.28451324845E+02  0.98582746901E+00  0.16727351312E+03  0.16967874921E+03  0.00000000000E+00 0.  1.
          1    1    1    2  502    0  0.28451324845E+02 -0.98582746901E+00 -0.77050876108E+03  0.77103450030E+03  0.00000000000E+00 0. -1.
</event>
<event>
 4    1  0.3837333E+003  0.2080276E+02  0.7546771E-02  0.1522100E+00
          2   -1    0    0  502    0  0.00000000000E+00  0.00000000000E+00  0.10738669376E+04  0.10738669376E+04  0.00000000000E+00 0.  1.
          1   -1    0    0  501    0 -0.00000000000E+00 -0.00000000000E+00 -0.68781811766E+02  0.68781811766E+02  0.00000000000E+00 0.  1.
          2    1    1    2  501    0 -0.19417786807E+02 -0.74635472611E+01  0.10721908054E+04  0.10723925951E+04  0.00000000000E+00 0.  1.
          1    1    1    2  502    0  0.19417786807E+02  0.74635472611E+01 -0.67105679532E+02  0.70256154233E+02  0.00000000000E+00 0.  1.
</event>
<event>
 4    1  0.3837333E+003  0.2302079E+02  0.7546771E-02  0.1492237E+00
          2   -1    0    0  502    0  0.00000000000E+00  0.00000000000E+00  0.23737379755E+02  0.23737379755E+02  0.00000000000E+00 0.  1.
          1   -1    0    0  501    0 -0.00000000000E+00 -0.00000000000E+00 -0.22606040900E+02  0.22606040900E+02  0.00000000000E+00 0.  1.
          2    1    1    2  501    0  0.13302758487E+02  0.18788105914E+02 -0.20142214490E+01  0.23108729849E+02  0.00000000000E+00 0.  1.
          1    1    1    2  502    0 -0.13302758487E+02 -0.18788105914E+02  0.31455603040E+01  0.23234690806E+02  0.00000000000E+00 0.  1.
</event>
<event>
 4    1  0.3837333E+003  0.2354690E+02  0.7546771E-02  0.1485743E+00
          2   -1    0    0  502    0  0.00000000000E+00  0.00000000000E+00  0.14161039732E+01  0.14161039732E+01  0.00000000000E+00 0.  1.
          1   -1    0    0  501    0 -0.00000000000E+00 -0.00000000000E+00 -0.10750951954E+04  0.10750951954E+04  0.00000000000E+00 0. -1.
          2    1    1    2  501    0 -0.27688721170E+01 -0.23383537374E+02 -0.10764615574E+03  0.11019143033E+03  0.00000000000E+00 0.  1.
          1    1    1    2  502    0  0.27688721170E+01  0.23383537374E+02 -0.96603293564E+03  0.96631986900E+03  0.00000000000E+00 0. -1.
</event>
<event>
 4    1  0.3837333E+003  0.2827488E+02  0.7546771E-02  0.1435206E+00
          2   -1    0    0  502    0  0.00000000000E+00  0.00000000000E+00  0.32330011770E+03  0.32330011770E+03  0.00000000000E+00 0.  1.
          1   -1    0    0  501    0 -0.00000000000E+00 -0.00000000000E+00 -0.93605152668E+01  0.93605152668E+01  0.00000000000E+00 0. -1.
          2    1    1    2  501    0 -0.22821024343E+02  0.16693399839E+02  0.29964810480E+03  0.30097916118E+03  0.00000000000E+00 0.  1.
          1    1    1    2  502    0  0.22821024343E+02 -0.16693399839E+02  0.14291497629E+02  0.31681471789E+02  0.00000000000E+00 0. -1.
</event>
<event>
 4    1  0.3837333E+003  0.2738941E+02  0.7546771E-02  0.1443735E+00
          2   -1    0    0  502    0  0.00000000000E+00  0.00000000000E+00  0.14032867807E+03  0.14032867807E+03  0.00000000000E+00 0.  1.
          1   -1    0    0  501    0 -0.00000000000E+00 -0.00000000000E+00 -0.15106690158E+02  0.15106690158E+02  0.00000000000E+00 0.  1.
          2    1    1    2  501    0 -0.23502950169E+01 -0.27288383477E+02  0.12508195748E+03  0.12804560065E+03  0.00000000000E+00 0.  1.
          1    1    1    2  502    0  0.23502950169E+01  0.27288383477E+02  0.14003043379E+00  0.27389767578E+02  0.00000000000E+00 0.  1.
</event>
<event>
 4    1  0.3837333E+003  0.2579475E+02  0.7546771E-02  0.1460106E+00
          2   -1    0    0  502    0  0.00000000000E+00  0.00000000000E+00  0.14686609588E+04  0.14686609588E+04  0.00000000000E+00 0.  1.
          1   -1    0    0  501    0 -0.00000000000E+00 -0.00000000000E+00 -0.81851896667E+01  0.81851896667E+01  0.00000000000E+00 0. -1.
          2    1    1    2  501    0 -0.10943440236E+02  0.23358297996E+02  0.14479344719E+04  0.14481642185E+04  0.00000000000E+00 0.  1.
          1    1    1    2  502    0  0.10943440236E+02 -0.23358297996E+02  0.12541297293E+02  0.28681929978E+02  0.00000000000E+00 0. -1.
</event>
<event>
 4    1  0.3837333E+003  0.2534609E+02  0.7546771E-02  0.1464969E+00
          2   -1    0    0  502    0  0.00000000000E+00  0.00000000000E+00  0.69865846916E+01  0.69865846916E+01  0.00000000000E+00 0.  1.
          1   -1    0    0  501    0 -0.00000000000E+00 -0.00000000000E+00 -0.92821366329E+02  0.92821366329E+02  0.00000000000E+00 0. -1.
          2    1    1    2  501    0  0.25311811149E+02  0.13174420768E+01 -0.47749788036E+02  0.54059834394E+02  0.00000000000E+00 0.  1.
          1    1    1    2  502    0 -0.25311811149E+02 -0.13174420768E+01 -0.38084993601E+02  0.45748116626E+02  0.00000000000E+00 0. -1.
</event>
<event>
 4    1  0.3837333E+003  0.2774739E+02  0.7546771E-02  0.1440242E+00
          2   -1    0    0  502    0  0.00000000000E+00  0.00000000000E+00  0.78932634400E+03  0.78932634400E+03  0.00000000000E+00 0.  1.
          1   -1    0    0  501    0 -0.00000000000E+00 -0.00000000000E+00 -0.11496282326E+01  0.11496282326E+01  0.00000000000E+00 0.  1.
          2    1    1    2  501    0  0.18309319718E+02 -0.20849132196E+02  0.54794833924E+03  0.54865043514E+03  0.00000000000E+00 0.  1.
          1    1    1    2  502    0 -0.18309319718E+02  0.20849132196E+02  0.24022837653E+03  0.24182553709E+03  0.00000000000E+00 0.  1.
</event>
<event>
 4    1  0.3837333E+003  0.2754092E+02  0.7546771E-02  0.1442249E+00
          2   -1    0    0  502    0  0.00000000000E+00  0.00000000000E+00  0.82911011625E+03  0.82911011625E+03  0.00000000000E+00 0.  1.
          1   -1    0    0  501    0 -0.00000000000E+00 -0.00000000000E+00 -0.11179680687E+01  0.11179680687E+01  0.00000000000E+00 0.  1.
          2    1    1    2  501    0  0.14930617271E+02  0.23142574181E+02  0.59094136887E+03  0.59158279514E+03  0.00000000000E+00 0.  1.
          1    1    1    2  502    0 -0.14930617271E+02 -0.23142574181E+02  0.23705077932E+03  0.23864528918E+03  0.00000000000E+00 0.  1.
</event>
<event>
 4    1  0.3837333E+003  0.2409103E+02  0.7546771E-02  0.1479234E+00
          2   -1    0    0  502    0  0.00000000000E+00  0.00000000000E+00  0.97792835704E+02  0.97792835704E+02  0.00000000000E+00 0. -1.
          1   -1    0    0  501    0 -0.00000000000E+00 -0.00000000000E+00 -0.26132860508E+02  0.26132860508E+02  0.00000000000E+00 0.  1.
          2    1    1    2  501    0  0.23062178313E+02  0.69651804118E+01  0.90304465117E+02  0.93462688955E+02  0.00000000000E+00 0. -1.
          1    1    1    2  502    0 -0.23062178313E+02 -0.69651804118E+01 -0.18644489921E+02  0.30463007257E+02  0.00000000000E+00 0.  1.
</event>
<event>
 4    1  0.3837333E+003  0.2701825E+02  0.7546771E-02  0.1447425E+00
          2   -1    0    0  502    0  0.00000000000E+00  0.00000000000E+00  0.62990549272E+03  0.62990549272E+03  0.00000000000E+00 0. -1.
          1   -1    0    0  501    0 -0.00000000000E+00 -0.00000000000E+00 -0.36425837885E+01  0.36425837885E+01  0.00000000000E+00 0. -1.
          2    1    1    2  501    0  0.16251803668E+02  0.21583899459E+02  0.57470545366E+03  0.57534019876E+03  0.00000000000E+00 0. -1.
          1    1    1    2  502    0 -0.16251803668E+02 -0.21583899459E+02  0.51557455268E+02  0.58207877748E+02  0.00000000000E+00 0. -1.
</event>
<event>
 4    1  0.3837333E+003  0.2137019E+02  0.7546771E-02  0.1514045E+00
          2   -1    0    0  502    0  0.00000000000E+00  0.00000000000E+00  0.71348803675E+02  0.71348803675E+02  0.00000000000E+00 0. -1.
          1   -1    0    0  501    0 -0.00000000000E+00 -0.00000000000E+00 -0.23771449912E+03  0.23771449912E+03  0.00000000000E+00 0. -1.
          2    1    1    2  501    0  0.13565019430E+02  0.16512875748E+02  0.69254136176E+02  0.72476342313E+02  0.00000000000E+00 0. -1.
          1    1    1    2  502    0 -0.13565019430E+02 -0.16512875748E+02 -0.23561983162E+03  0.23658696048E+03  0.00000000000E+00 0. -1.
</event>
<event>
 4    1  0.3837333E+003  0.2438493E+02  0.7546771E-02  0.1475803E+00
          2   -1    0    0  502    0  0.00000000000E+00  0.00000000000E+00  0.34435053967E+03  0.34435053967E+03  0.00000000000E+00 0.  1.
          1   -1    0    0  501    0 -0.00000000000E+00 -0.00000000000E+00 -0.11679706385E+04  0.11679706385E+04  0.00000000000E+00 0.  1.
          2    1    1    2  501    0 -0.17982127806E+02  0.16470207572E+02  0.34379135549E+03  0.34465507507E+03  0.00000000000E+00 0.  1.
          1    1    1    2  502    0  0.17982127806E+02 -0.16470207572E+02 -0.11674114544E+04  0.11676661031E+04  0.00000000000E+00 0.  1.
</event>
<event>
 4    1  0.3837333E+003  0.2586113E+02  0.7546771E-02  0.1459396E+00
          2   -1    0    0  502    0  0.00000000000E+00  0.00000000000E+00  0.80491777288E+03  0.80491777288E+03  0.00000000000E+00 0. -1.
          1   -1    0    0  501    0 -0.00000000000E+00 -0.00000000000E+00 -0.10621907206E+01  0.10621907206E+01  0.00000000000E+00 0. -1.
          2    1    1    2  501    0  0.24283845666E+02 -0.88934282553E+01  0.58998127202E+03  0.59054779617E+03  0.00000000000E+00 0. -1.
          1    1    1    2  502    0 -0.24283845666E+02  0.88934282553E+01  0.21387431014E+03  0.21543216743E+03  0.00000000000E+00 0. -1.
</event>
<event>
 4    1  0.3837333E+003  0.3008116E+02  0.7546771E-02  0.1418892E+00
          2   -1    0    0  502    0  0.00000000000E+00  0.00000000000E+00  0.43013974715E+02  0.43013974715E+02  0.00000000000E+00 0. -1.
          1   -1    0    0  501    0 -0.00000000000E+00 -0.00000000000E+00 -0.66582827231E+02  0.66582827231E+02  0.00000000000E+00 0. -1.
          2    1    1    2  501    0 -0.68798860956E+01 -0.29283844949E+02  0.33537881741E+02  0.45051813719E+02  0.00000000000E+00 0. -1.
          1    1    1    2  502    0  0.68798860956E+01  0.29283844949E+02 -0.57106734257E+02  0.64544988227E+02  0.00000000000E+00 0. -1.
</event>
<event>
 4    1  0.3837333E+003  0.2841198E+02  0.7546771E-02  0.1433918E+00
          2   -1    0    0  502    0  0.00000000000E+00  0.00000000000E+00  0.77547135065E+03  0.77547135065E+03  0.00000000000E+00 0.  1.
          1   -1    0    0  501    0 -0.00000000000E+00 -0.00000000000E+00 -0.17225308606E+01  0.17225308606E+01  0.00000000000E+00 0. -1.
          2    1    1    2  501    0 -0.11846795382E+02  0.25824288661E+02  0.63131256695E+03  0.63195157856E+03  0.00000000000E+00 0.  1.
          1    1    1    2  502    0  0.11846795382E+02 -0.25824288661E+02  0.14243625283E+03  0.14524230295E+03  0.00000000000E+00 0. -1.
</event>
<event>
 4    1  0.3837333E+003  0.2945829E+02  0.7546771E-02  0.1424363E+00
          2   -1    0    0  502    0  0.00000000000E+00  0.00000000000E+00  0.73202130479E+01  0.73202130479E+01  0.00000000000E+00 0. -1.
          1   -1    0    0  501    0 -0.00000000000E+00 -0.00000000000E+00 -0.15441140263E+03  0.15441140263E+03  0.00000000000E+00 0.  1.
          2    1    1    2  501    0 -0.27425846123E+02  0.10752396568E+02 -0.34573335703E+02  0.45421433368E+02  0.00000000000E+00 0. -1.
          1    1    1    2  502    0  0.27425846123E+02 -0.10752396568E+02 -0.11251785388E+03  0.11631018231E+03  0.00000000000E+00 0.  1.
</event>
<event>
 4    1  0.3837333E+003  0.3033228E+02  0.7546771E-02  0.1416730E+00
          2   -1    0    0  502    0  0.00000000000E+00  0.00000000000E+00  0.78253179580E+03  0.78253179580E+03  0.00000000000E+00 0. -1.
          1   -1    0    0  501    0 -0.00000000000E+00 -0.00000000000E+00 -0.12600632671E+01  0.12600632671E+01  0.00000000000E+00 0. -1.
          2    1    1    2  501    0 -0.84977989115E+01  0.29117596699E+02  0.49202024096E+03  0.49295432297E+03  0.00000000000E+00 0. -1.
          1    1    1    2  502    0  0.84977989115E+01 -0.29117596699E+02  0.28925149158E+03  0.29083753610E+03  0.00000000000E+00 0. -1.
</event>
<event>
 4    1  0.3837333E+003  0.2411148E+02  0.7546771E-02  0.1478994E+00
          2   -1    0    0  502    0  0.00000000000E+00  0.00000000000E+00  0.87530964518E+02  0.87530964518E+02  0.00000000000E+00 0. -1.
          1   -1    0    0  501    0 -0.00000000000E+00 -0.00000000000E+00 -0.22354415922E+02  0.22354415922E+02  0.00000000000E+00 0. -1.
          2    1    1    2  501    0  0.63983690371E+01  0.23247023962E+02  0.78651303024E+02  0.82264152076E+02  0.00000000000E+00 0. -1.
          1    1    1    2  502    0 -0.63983690371E+01 -0.23247023962E+02 -0.13474754428E+02  0.27621228363E+02  0.00000000000E+00 0. -1.
</event>
<event>
 4    1  0.3837333E+003  0.2426553E+02  0.7546771E-02  0.1477190E+00
          2   -1    0    0  502    0  0.00000000000E+00  0.00000000000E+00  0.53326692846E+03  0.53326692846E+03  0.00000000000E+00 0. -1.
          1   -1    0    0  501    0 -0.00000000000E+00 -0.00000000000E+00 -0.12779919622E+02  0.12779919622E+02  0.00000000000E+00 0. -1.
          2    1    1    2  501    0 -0.14792522213E+01  0.24220396545E+02  0.52120611508E+03  0.52177066820E+03  0.00000000000E+00 0. -1.
          1    1    1    2  502    0  0.14792522213E+01 -0.24220396545E+02 -0.71910624123E+00  0.24276179883E+02  0.00000000000E+00 0. -1.
</event>
<event>
 4    1  0.3837333E+003  0.3132307E+02  0.7546771E-02  0.1408437E+00
          2   -1    0    0  502    0  0.00000000000E+00  0.00000000000E+00  0.11850549296E+03  0.11850549296E+03  0.00000000000E+00 0.  1.
          1   -1    0    0  501    0 -0.00000000000E+00 -0.00000000000E+00 -0.45500487560E+02  0.45500487560E+02  0.00000000000E+00 0. -1.
          2    1    1    2  501    0 -0.30110875378E+02  0.86295994650E+01  0.11067060330E+03  0.11501789964E+03  0.00000000000E+00 0.  1.
          1    1    1    2  502    0  0.30110875378E+02 -0.86295994650E+01 -0.37665597901E+02  0.48988080879E+02  0.00000000000E+00 0. -1.
</event>
<event>
 4    1  0.3837333E+003  0.3133895E+02  0.7546771E-02  0.1408307E+00
          2   -1    0    0  502    0  0.00000000000E+00  0.00000000000E+00  0.12950820266E+04  0.12950820266E+04  0.00000000000E+00 0.  1.
          1   -1    0    0  501    0 -0.00000000000E+00 -0.00000000000E+00 -0.21953040648E+02  0.21953040648E+02  0.00000000000E+00 0.  1.
          2    1    1    2  501    0  0.35251578697E+01  0.31140053162E+02  0.12836080396E+04  0.12839905486E+04  0.00000000000E+00 0.  1.
          1    1    1    2  502    0 -0.35251578697E+01 -0.31140053162E+02 -0.10479053605E+02  0.33044518659E+02  0.00000000000E+00 0.  1.
</event>
<event>
 4    1  0.3837333E+003  0.2054723E+02  0.7546771E-02  0.1525828E+00
          2   -1    0    0  502    0  0.00000000000E+00  0.00000000000E+00  0.48275576663E+02  0.48275576663E+02  0.00000000000E+00 0. -1.
          1   -1    0    0  501    0 -0.00000000000E+00 -0.00000000000E+00 -0.10268802605E+02  0.10268802605E+02  0.00000000000E+00 0. -1.
          2    1    1    2  501    0  0.13753872134E+02 -0.15264980005E+02  0.30278073397E+02  0.36591670389E+02  0.00000000000E+00 0. -1.
          1    1    1    2  502    0 -0.13753872134E+02  0.15264980005E+02  0.77287006605E+01  0.21952708879E+02  0.00000000000E+00 0. -1.
</event>
<event>
 4    1  0.3837333E+003  0.2265798E+02  0.7546771E-02  0.1496838E+00
          2   -1    0    0  502    0  0.00000000000E+00  0.00000000000E+00  0.20416537729E+01  0.20416537729E+01  0.00000000000E+00 0.  1.
          1   -1    0    0  501    0 -0.00000000000E+00 -0.00000000000E+00 -0.62436911104E+03  0.62436911104E+03  0.00000000000E+00 0.  1.
          2    1    1    2  501    0 -0.12039407890E+02  0.19194705757E+02 -0.69109366012E+02  0.72728870073E+02  0.00000000000E+00 0.  1.
          1    1    1    2  502    0  0.12039407890E+02 -0.19194705757E+02 -0.55321809126E+03  0.55368189474E+03  0.00000000000E+00 0.  1.
</event>
<event>
 4    1  0.3837333E+003  0.2278331E+02  0.7546771E-02  0.1495237E+00
          2   -1    0    0  502    0  0.00000000000E+00  0.00000000000E+00  0.89222462520E+00  0.89222462520E+00  0.00000000000E+00 0.  1.
          1   -1    0    0  501    0 -0.00000000000E+00 -0.00000000000E+00 -0.11314295986E+04  0.11314295986E+04  0.00000000000E+00 0.  1.
          2    1    1    2  501    0 -0.22742391646E+02  0.13648511530E+01 -0.17065809551E+03  0.17217219508E+03  0.00000000000E+00 0.  1.
          1    1    1    2  502    0  0.22742391646E+02 -0.13648511530E+01 -0.95987927851E+03  0.96014962819E+03  0.00000000000E+00 0.  1.
</event>
<event>
 4    1  0.3837333E+003  0.2677090E+02  0.7546771E-02  0.1449923E+00
          2   -1    0    0  502    0  0.00000000000E+00  0.00000000000E+00  0.21741200705E+03  0.21741200705E+03  0.00000000000E+00 0.  1.
          1   -1    0    0  501    0 -0.00000000000E+00 -0.00000000000E+00 -0.17314854090E+04  0.17314854090E+04  0.00000000000E+00 0.  1.
          2    1    1    2  501    0  0.24623195620E+02  0.10506146175E+02  0.21648398287E+03  0.21813297712E+03  0.00000000000E+00 0.  1.
          1    1    1    2  502    0 -0.24623195620E+02 -0.10506146175E+02 -0.17305573849E+04  0.17307644390E+04  0.00000000000E+00 0.  1.
</event>
<event>
 4    1  0.3837333E+003  0.5043916E+02  0.7546771E-02  0.1296280E+00
          2   -1    0    0  502    0  0.00000000000E+00  0.00000000000E+00  0.37700517558E+03  0.37700517558E+03  0.00000000000E+00 0.  1.
          1   -1    0    0  501    0 -0.00000000000E+00 -0.00000000000E+00 -0.20772767953E+03  0.20772767953E+03  0.00000000000E+00 0.  1.
          2    1    1    2  501    0  0.48583244471E+02  0.13556455942E+02  0.37221708424E+03  0.37561904496E+03  0.00000000000E+00 0.  1.
          1    1    1    2  502    0 -0.48583244471E+02 -0.13556455942E+02 -0.20293958818E+03  0.20911381014E+03  0.00000000000E+00 0.  1.
</event>
<event>
 4    1  0.3837333E+003  0.2011997E+02  0.7546771E-02  0.1532210E+00
          2   -1    0    0  502    0  0.00000000000E+00  0.00000000000E+00  0.91193218653E+02  0.91193218653E+02  0.00000000000E+00 0. -1.
          1   -1    0    0  501    0 -0.00000000000E+00 -0.00000000000E+00 -0.90997732937E+02  0.90997732937E+02  0.00000000000E+00 0.  1.
          2    1    1    2  501    0  0.19468679451E+02  0.50777701498E+01  0.88943519432E+02  0.91190804789E+02  0.00000000000E+00 0. -1.
          1    1    1    2  502    0 -0.19468679451E+02 -0.50777701498E+01 -0.88748033716E+02  0.91000146800E+02  0.00000000000E+00 0.  1.
</event>
<event>
 4    1  0.3837333E+003  0.2094832E+02  0.7546771E-02  0.1520004E+00
          2   -1    0    0  502    0  0.00000000000E+00  0.00000000000E+00  0.21090430134E+03  0.21090430134E+03  0.00000000000E+00 0.  1.
          1   -1    0    0  501    0 -0.00000000000E+00 -0.00000000000E+00 -0.12616607464E+02  0.12616607464E+02  0.00000000000E+00 0.  1.
          2    1    1    2  501    0 -0.20730843522E+02 -0.30106766157E+01  0.20127365089E+03  0.20236085242E+03  0.00000000000E+00 0.  1.
          1    1    1    2  502    0  0.20730843522E+02  0.30106766157E+01 -0.29859570210E+01  0.21160056384E+02  0.00000000000E+00 0.  1.
</event>
<event>
 4    1  0.3837333E+003  0.3314112E+02  0.7546771E-02  0.1394125E+00
          2   -1    0    0  502    0  0.00000000000E+00  0.00000000000E+00  0.50276293164E+02  0.50276293164E+02  0.00000000000E+00 0.  1.
          1   -1    0    0  501    0 -0.00000000000E+00 -0.00000000000E+00 -0.80028591552E+02  0.80028591552E+02  0.00000000000E+00 0. -1.
          2    1    1    2  501    0  0.50111391840E+01  0.32760073684E+02  0.40676501979E+02  0.52468197577E+02  0.00000000000E+00 0.  1.
          1    1    1    2  502    0 -0.50111391840E+01 -0.32760073684E+02 -0.70428800368E+02  0.77836687140E+02  0.00000000000E+00 0. -1.
</event>
<event>
 4    1  0.3837333E+003  0.3103669E+02  0.7546771E-02  0.1410796E+00
          2   -1    0    0  502    0  0.00000000000E+00  0.00000000000E+00  0.24430332889E+03  0.24430332889E+03  0.00000000000E+00 0.  1.
          1   -1    0    0  501    0 -0.00000000000E+00 -0.00000000000E+00 -0.26189339337E+03  0.26189339337E+03  0.00000000000E+00 0. -1.
          2    1    1    2  501    0  0.20753709268E+02  0.23077255357E+02  0.24239083451E+03  0.24436978704E+03  0.00000000000E+00 0.  1.
          1    1    1    2  502    0 -0.20753709268E+02 -0.23077255357E+02 -0.25998089899E+03  0.26182693522E+03  0.00000000000E+00 0. -1.
</event>
<event>
 4    1  0.3837333E+003  0.2191626E+02  0.7546771E-02  0.1506574E+00
          2   -1    0    0  502    0  0.00000000000E+00  0.00000000000E+00  0.10385007992E+04  0.10385007992E+04  0.00000000000E+00 0.  1.
          1   -1    0    0  501    0 -0.00000000000E+00 -0.00000000000E+00 -0.30455246208E+02  0.30455246208E+02  0.00000000000E+00 0.  1.
          2    1    1    2  501    0 -0.70109970313E+01 -0.20764591897E+02  0.10344267895E+04  0.10346589318E+04  0.00000000000E+00 0.  1.
          1    1    1    2  502    0  0.70109970313E+01  0.20764591897E+02 -0.26381236548E+02  0.34297113549E+02  0.00000000000E+00 0.  1.
</event>
<event>
 4    1  0.3837333E+003  0.4309506E+02  0.7546771E-02  0.1331245E+00
          2   -1    0    0  502    0  0.00000000000E+00  0.00000000000E+00  0.18802248671E+03  0.18802248671E+03  0.00000000000E+00 0.  1.
          1   -1    0    0  501    0 -0.00000000000E+00 -0.00000000000E+00 -0.29531190848E+02  0.29531190848E+02  0.00000000000E+00 0. -1.
          2    1    1    2  501    0 -0.33506150031E+02  0.27102064458E+02  0.16798545718E+03  0.17342519371E+03  0.00000000000E+00 0.  1.
          1    1    1    2  502    0  0.33506150031E+02 -0.27102064458E+02 -0.94941613204E+01  0.44128483851E+02  0.00000000000E+00 0. -1.
</event>
<event>
 4    1  0.3837333E+003  0.2422088E+02  0.7546771E-02  0.1477711E+00
          2   -1    0    0  502    0  0.00000000000E+00  0.00000000000E+00  0.73817973197E+01  0.73817973197E+01  0.00000000000E+00 0.  1.
          1   -1    0    0  501    0 -0.00000000000E+00 -0.00000000000E+00 -0.69125098595E+03  0.69125098595E+03  0.00000000000E+00 0.  1.
          2    1    1    2  501    0 -0.21500906226E+02  0.11151764539E+02 -0.13311456036E+02  0.27637758279E+02  0.00000000000E+00 0.  1.
          1    1    1    2  502    0  0.21500906226E+02 -0.11151764539E+02 -0.67055773259E+03  0.67099502499E+03  0.00000000000E+00 0.  1.
</event>
<event>
 4    1  0.3837333E+003  0.2211694E+02  0.7546771E-02  0.1503895E+00
          2   -1    0    0  502    0  0.00000000000E+00  0.00000000000E+00  0.67636278747E+01  0.67636278747E+01  0.00000000000E+00 0.  1.
          1   -1    0    0  501    0 -0.00000000000E+00 -0.00000000000E+00 -0.41898320848E+03  0.41898320848E+03  0.00000000000E+00 0.  1.
          2    1    1    2  501    0  0.20741166481E+02 -0.76787468982E+01 -0.12478408891E+02  0.25394287337E+02  0.00000000000E+00 0.  1.
          1    1    1    2  502    0 -0.20741166481E+02  0.76787468982E+01 -0.39974117171E+03  0.40035254901E+03  0.00000000000E+00 0.  1.
</event>
<event>
 4    1  0.3837333E+003  0.3939125E+02  0.7546771E-02  0.1352090E+00
          2   -1    0    0  502    0  0.00000000000E+00  0.00000000000E+00  0.15684596274E+03  0.15684596274E+03  0.00000000000E+00 0. -1.
          1   -1    0    0  501    0 -0.00000000000E+00 -0.00000000000E+00 -0.54444323148E+02  0.54444323148E+02  0.00000000000E+00 0.  1.
          2    1    1    2  501    0 -0.25315965960E+02 -0.30179006431E+02  0.14676689282E+03  0.15196115092E+03  0.00000000000E+00 0. -1.
          1    1    1    2  502    0  0.25315965960E+02  0.30179006431E+02 -0.44365253229E+02  0.59329134965E+02  0.00000000000E+00 0.  1.
</event>
<event>
 4    1  0.3837333E+003  0.5465712E+02  0.7546771E-02  0.1279152E+00
          2   -1    0    0  502    0  0.00000000000E+00  0.00000000000E+00  0.17320604450E+02  0.17320604450E+02  0.00000000000E+00 0.  1.
          1   -1    0    0  501    0 -0.00000000000E+00 -0.00000000000E+00 -0.28953888369E+03  0.28953888369E+03  0.00000000000E+00 0.  1.
          2    1    1    2  501    0 -0.36075534028E+01 -0.54537930473E+02 -0.38550785289E+02  0.66884701900E+02  0.00000000000E+00 0.  1.
          1    1    1    2  502    0  0.36075534028E+01  0.54537930473E+02 -0.23366749395E+03  0.23997478624E+03  0.00000000000E+00 0.  1.
</event>
<event>
 4    1  0.3837333E+003  0.2261594E+02  0.7546771E-02  0.1497378E+00
          2   -1    0    0  502    0  0.00000000000E+00  0.00000000000E+00  0.19725611934E+02  0.19725611934E+02  0.00000000000E+00 0.  1.
          1   -1    0    0  501    0 -0.00000000000E+00 -0.00000000000E+00 -0.96680931510E+02  0.96680931510E+02  0.00000000000E+00 0. -1.
          2    1    1    2  501    0  0.76643239002E+01 -0.21277656552E+02  0.11312529784E+02  0.25287424924E+02  0.00000000000E+00 0.  1.
          1    1    1    2  502    0 -0.76643239002E+01  0.21277656552E+02 -0.88267849360E+02  0.91119118520E+02  0.00000000000E+00 0. -1.
</event>
<event>
 4    1  0.3837333E+003  0.2313604E+02  0.7546771E-02  0.1490797E+00
          2   -1    0    0  502    0  0.00000000000E+00  0.00000000000E+00  0.96609304391E+03  0.96609304391E+03  0.00000000000E+00 0.  1.
          1   -1    0    0  501    0 -0.00000000000E+00 -0.00000000000E+00 -0.31097740959E+01  0.31097740959E+01  0.00000000000E+00 0. -1.
          2    1    1    2  501    0 -0.13279630002E+01 -0.23097902104E+02  0.92080672096E+03  0.92109733141E+03  0.00000000000E+00 0.  1.
          1    1    1    2  502    0  0.13279630002E+01  0.23097902104E+02  0.42176548858E+02  0.48105486599E+02  0.00000000000E+00 0. -1.
</event>
<event>
 4    1  0.3837333E+003  0.5060838E+02  0.7546771E-02  0.1295556E+00
          2   -1    0    0  502    0  0.00000000000E+00  0.00000000000E+00  0.71332412909E+03  0.71332412909E+03  0.00000000000E+00 0.  1.
          1   -1    0    0  501    0 -0.00000000000E+00 -0.00000000000E+00 -0.17114971644E+02  0.17114971644E+02  0.00000000000E+00 0.  1.
          2    1    1    2  501    0  0.20344983784E+01  0.50567468924E+02  0.67276225690E+03  0.67466307325E+03  0.00000000000E+00 0.  1.
          1    1    1    2  502    0 -0.20344983784E+01 -0.50567468924E+02  0.23446900550E+02  0.55776027489E+02  0.00000000000E+00 0.  1.
</event>
<event>
 4    1  0.3837333E+003  0.2893611E+02  0.7546771E-02  0.1429072E+00
          2   -1    0    0  502    0  0.00000000000E+00  0.00000000000E+00  0.12355720004E+03  0.12355720004E+03  0.00000000000E+00 0.  1.
          1   -1    0    0  501    0 -0.00000000000E+00 -0.00000000000E+00 -0.16246745602E+02  0.16246745602E+02  0.00000000000E+00 0.  1.
          2    1    1    2  501    0 -0.28640230675E+02 -0.41273980366E+01  0.10702366338E+03  0.11086641850E+03  0.00000000000E+00 0.  1.
          1    1    1    2  502    0  0.28640230675E+02  0.41273980366E+01  0.28679105194E+00  0.28937527137E+02  0.00000000000E+00 0.  1.
</event>
<event>
 4    1  0.3837333E+003  0.2969003E+02  0.7546771E-02  0.1422310E+00
          2   -1    0    0  502    0  0.00000000000E+00  0.00000000000E+00  0.26921458041E+01  0.26921458041E+01  0.00000000000E+00 0.  1.
          1   -1    0    0  501    0 -0.00000000000E+00 -0.00000000000E+00 -0.46340525927E+03  0.46340525927E+03  0.00000000000E+00 0.  1.
          2    1    1    2  501    0 -0.21646764474E+02 -0.20320296812E+02 -0.35659501011E+03  0.35782886707E+03  0.00000000000E+00 0.  1.
          1    1    1    2  502    0  0.21646764474E+02  0.20320296812E+02 -0.10411810336E+03  0.10826853800E+03  0.00000000000E+00 0.  1.
</event>
<event>
 4    1  0.3837333E+003  0.2023417E+02  0.7546771E-02  0.1530486E+00
          2   -1    0    0  502    0  0.00000000000E+00  0.00000000000E+00  0.79874240600E+03  0.79874240600E+03  0.00000000000E+00 0.  1.
          1   -1    0    0  501    0 -0.00000000000E+00 -0.00000000000E+00 -0.41704803395E+01  0.41704803395E+01  0.00000000000E+00 0.  1.
          2    1    1    2  501    0 -0.97741966484E+01 -0.17716851703E+02  0.77326285316E+03  0.77352754433E+03  0.00000000000E+00 0.  1.
          1    1    1    2  502    0  0.97741966484E+01  0.17716851703E+02  0.21309072500E+02  0.29385342013E+02  0.00000000000E+00 0.  1.
</event>
<event>
 4    1  0.3837333E+003  0.3174023E+02  0.7546771E-02  0.1405053E+00
          2   -1    0    0  502    0  0.00000000000E+00  0.00000000000E+00  0.94174590215E+02  0.94174590215E+02  0.00000000000E+00 0. -1.
          1   -1    0    0  501    0 -0.00000000000E+00 -0.00000000000E+00 -0.33804165365E+02  0.33804165365E+02  0.00000000000E+00 0. -1.
          2    1    1    2  501    0  0.19542302636E+02  0.25010808267E+02  0.83089451654E+02  0.88945483858E+02  0.00000000000E+00 0. -1.
          1    1    1    2  502    0 -0.19542302636E+02 -0.25010808267E+02 -0.22719026804E+02  0.39033271723E+02  0.00000000000E+00 0. -1.
</event>
<event>
 4    1  0.3837333E+003  0.3474145E+02  0.7546771E-02  0.1382390E+00
          2   -1    0    0  502    0  0.00000000000E+00  0.00000000000E+00  0.66406999754E+03  0.66406999754E+03  0.00000000000E+00 0. -1.
          1   -1    0    0  501    0 -0.00000000000E+00 -0.00000000000E+00 -0.60149485560E+02  0.60149485560E+02  0.00000000000E+00 0.  1.
          2    1    1    2  501    0  0.27167627346E+02 -0.21653828320E+02  0.65855711352E+03  0.65947285010E+03  0.00000000000E+00 0. -1.
          1    1    1    2  502    0 -0.27167627346E+02  0.21653828320E+02 -0.54636601540E+02  0.64746632996E+02  0.00000000000E+00 0.  1.
</event>
<event>
 4    1  0.3837333E+003  0.2565069E+02  0.7546771E-02  0.1461654E+00
          2   -1    0    0  502    0  0.00000000000E+00  0.00000000000E+00  0.92410756173E+03  0.92410756173E+03  0.00000000000E+00 0.  1.
          1   -1    0    0  501    0 -0.00000000000E+00 -0.00000000000E+00 -0.72310891326E+00  0.72310891326E+00  0.00000000000E+00 0.  1.
          2    1    1    2  501    0 -0.22404625781E+02  0.12489617660E+02  0.51902586289E+03  0.51965931547E+03  0.00000000000E+00 0.  1.
          1    1    1    2  502    0  0.22404625781E+02 -0.12489617660E+02  0.40435858992E+03  0.40517135517E+03  0.00000000000E+00 0.  1.
</event>
<event>
 4    1  0.3837333E+003  0.2513191E+02  0.7546771E-02  0.1467333E+00
          2   -1    0    0  502    0  0.00000000000E+00  0.00000000000E+00  0.30116345653E+01  0.30116345653E+01  0.00000000000E+00 0.  1.
          1   -1    0    0  501    0 -0.00000000000E+00 -0.00000000000E+00 -0.25341796778E+03  0.25341796778E+03  0.00000000000E+00 0. -1.
          2    1    1    2  501    0 -0.19840038953E+02  0.15426788851E+02 -0.71964312686E+02  0.76226473487E+02  0.00000000000E+00 0.  1.
          1    1    1    2  502    0  0.19840038953E+02 -0.15426788851E+02 -0.17844202053E+03  0.18020312886E+03  0.00000000000E+00 0. -1.
</event>
<event>
 4    1  0.3837333E+003  0.2826007E+02  0.7546771E-02  0.1435345E+00
          2   -1    0    0  502    0  0.00000000000E+00  0.00000000000E+00  0.36673960342E+02  0.36673960342E+02  0.00000000000E+00 0. -1.
          1   -1    0    0  501    0 -0.00000000000E+00 -0.00000000000E+00 -0.42487648157E+02  0.42487648157E+02  0.00000000000E+00 0.  1.
          2    1    1    2  501    0 -0.19725044744E+02 -0.20237450607E+02  0.24727870745E+02  0.37551290109E+02  0.00000000000E+00 0. -1.
          1    1    1    2  502    0  0.19725044744E+02  0.20237450607E+02 -0.30541558560E+02  0.41610318390E+02  0.00000000000E+00 0.  1.
</event>
<event>
 4    1  0.3837333E+003  0.2717459E+02  0.7546771E-02  0.1445862E+00
          2   -1    0    0  502    0  0.00000000000E+00  0.00000000000E+00  0.29404130172E+03  0.29404130172E+03  0.00000000000E+00 0.  1.
          1   -1    0    0  501    0 -0.00000000000E+00 -0.00000000000E+00 -0.66163874361E+01  0.66163874361E+01  0.00000000000E+00 0. -1.
          2    1    1    2  501    0 -0.26711290464E+02 -0.49965269331E+01  0.26212214405E+03  0.26352699429E+03  0.00000000000E+00 0.  1.
          1    1    1    2  502    0  0.26711290464E+02  0.49965269331E+01  0.25302770240E+02  0.37130694869E+02  0.00000000000E+00 0. -1.
</event>
<event>
 4    1  0.3837333E+003  0.2000461E+02  0.7546771E-02  0.1533965E+00
          2   -1    0    0  502    0  0.00000000000E+00  0.00000000000E+00  0.19047029231E+01  0.19047029231E+01  0.00000000000E+00 0.  1.
          1   -1    0    0  501    0 -0.00000000000E+00 -0.00000000000E+00 -0.72883812287E+03  0.72883812287E+03  0.00000000000E+00 0. -1.
          2    1    1    2  501    0  0.11120214062E+02  0.16629054076E+02 -0.55224808452E+02  0.58736394755E+02  0.00000000000E+00 0.  1.
          1    1    1    2  502    0 -0.11120214062E+02 -0.16629054076E+02 -0.67170861150E+03  0.67200643104E+03  0.00000000000E+00 0. -1.
</event>
<event>
 4    1  0.3837333E+003  0.2502917E+02  0.7546771E-02  0.1468477E+00
          2   -1    0    0  502    0  0.00000000000E+00  0.00000000000E+00  0.12492907467E+04  0.12492907467E+04  0.00000000000E+00 0. -1.
          1   -1    0    0  501    0 -0.00000000000E+00 -0.00000000000E+00 -0.78417840681E+00  0.78417840681E+00  0.00000000000E+00 0. -1.
          2    1    1    2  501    0  0.12933068769E+02 -0.21428835265E+02  0.99955612669E+03  0.99986944631E+03  0.00000000000E+00 0. -1.
          1    1    1    2  502    0 -0.12933068769E+02  0.21428835265E+02  0.24895044163E+03  0.25020547883E+03  0.00000000000E+00 0. -1.
</event>
<event>
 4    1  0.3837333E+003  0.2333320E+02  0.7546771E-02  0.1488356E+00
          2   -1    0    0  502    0  0.00000000000E+00  0.00000000000E+00  0.29031267259E+01  0.29031267259E+01  0.00000000000E+00 0. -1.
          1   -1    0    0  501    0 -0.00000000000E+00 -0.00000000000E+00 -0.17365759971E+04  0.17365759971E+04  0.00000000000E+00 0. -1.
          2    1    1    2  501    0 -0.19505167834E+02  0.12805731947E+02 -0.45400379674E+02  0.51045399572E+02  0.00000000000E+00 0. -1.
          1    1    1    2  502    0  0.19505167834E+02 -0.12805731947E+02 -0.16882724907E+04  0.16884337243E+04  0.00000000000E+00 0. -1.
</event>
<event>
 4    1  0.3837333E+003  0.2978763E+02  0.7546771E-02  0.1421451E+00
          2   -1    0    0  502    0  0.00000000000E+00  0.00000000000E+00  0.58838639557E+02  0.58838639557E+02  0.00000000000E+00 0. -1.
          1   -1    0    0  501    0 -0.00000000000E+00 -0.00000000000E+00 -0.14326086750E+03  0.14326086750E+03  0.00000000000E+00 0. -1.
          2    1    1    2  501    0 -0.15508409546E+02  0.25432111261E+02  0.53372314094E+02  0.61122066078E+02  0.00000000000E+00 0. -1.
          1    1    1    2  502    0  0.15508409546E+02 -0.25432111261E+02 -0.13779454203E+03  0.14097744098E+03  0.00000000000E+00 0. -1.
</event>
<event>
 4    1  0.3837333E+003  0.2753812E+02  0.7546771E-02  0.1442276E+00
          2   -1    0    0  502    0  0.00000000000E+00  0.00000000000E+00  0.27547698581E+02  0.27547698581E+02  0.00000000000E+00 0.  1.
          1   -1    0    0  501    0 -0.00000000000E+00 -0.00000000000E+00 -0.17002281051E+03  0.17002281051E+03  0.00000000000E+00 0.  1.
          2    1    1    2  501    0 -0.21824304090E+02 -0.16794282723E+02  0.19197583916E+02  0.33569262866E+02  0.00000000000E+00 0.  1.
          1    1    1    2  502    0  0.21824304090E+02  0.16794282723E+02 -0.16167269585E+03  0.16400124623E+03  0.00000000000E+00 0.  1.
</event>
<event>
 4    1  0.3837333E+003  0.2007038E+02  0.7546771E-02  0.1532963E+00
          2   -1    0    0  502    0  0.00000000000E+00  0.00000000000E+00  0.16065820373E+03  0.16065820373E+03  0.00000000000E+00 0.  1.
          1   -1    0    0  501    0 -0.00000000000E+00 -0.00000000000E+00 -0.14125834817E+03  0.14125834817E+03  0.00000000000E+00 0.  1.
          2    1    1    2  501    0 -0.30080728822E+01  0.19843677706E+02  0.15931246394E+03  0.16057173230E+03  0.00000000000E+00 0.  1.
          1    1    1    2  502    0  0.30080728822E+01 -0.19843677706E+02 -0.13991260837E+03  0.14134481960E+03  0.00000000000E+00 0.  1.
</event>
<event>
 4    1  0.3837333E+003  0.3626974E+02  0.7546771E-02  0.1371850E+00
          2   -1    0    0  502    0  0.00000000000E+00  0.00000000000E+00  0.84283359941E+03  0.84283359941E+03  0.00000000000E+00 0. -1.
          1   -1    0    0  501    0 -0.00000000000E+00 -0.00000000000E+00 -0.17504676801E+01  0.17504676801E+01  0.00000000000E+00 0. -1.
          2    1    1    2  501    0 -0.36249064584E+02  0.12240330492E+01  0.28153514141E+03  0.28386181284E+03  0.00000000000E+00 0. -1.
          1    1    1    2  502    0  0.36249064584E+02 -0.12240330492E+01  0.55954799032E+03  0.56072225425E+03  0.00000000000E+00 0. -1.
</event>
<event>
 4    1  0.3837333E+003  0.2323602E+02  0.7546771E-02  0.1489556E+00
          2   -1    0    0  502    0  0.00000000000E+00  0.00000000000E+00  0.48270047680E+03  0.48270047680E+03  0.00000000000E+00 0. -1.
          1   -1    0    0  501    0 -0.00000000000E+00 -0.00000000000E+00 -0.38435115945E+02  0.38435115945E+02  0.00000000000E+00 0.  1.
          2    1    1    2  501    0 -0.23034685684E+02 -0.30521934274E+01  0.47888100746E+03  0.47944439921E+03  0.00000000000E+00 0. -1.
          1    1    1    2  502    0  0.23034685684E+02  0.30521934274E+01 -0.34615646599E+02  0.41691193540E+02  0.00000000000E+00 0.  1.
</event>
<event>
 4    1  0.3837333E+003  0.2190264E+02  0.7546771E-02  0.1506757E+00
          2   -1    0    0  502    0  0.00000000000E+00  0.00000000000E+00  0.73606672987E+02  0.73606672987E+02  0.00000000000E+00 0.  1.
          1   -1    0    0  501    0 -0.00000000000E+00 -0.00000000000E+00 -0.65376739452E+01  0.65376739452E+01  0.00000000000E+00 0.  1.
          2    1    1    2  501    0  0.81767917350E+01 -0.20319097592E+02  0.35764881165E+02  0.41938673975E+02  0.00000000000E+00 0.  1.
          1    1    1    2  502    0 -0.81767917350E+01  0.20319097592E+02  0.31304117876E+02  0.38205672957E+02  0.00000000000E+00 0.  1.
</event>
<event>
 4    1  0.3837333E+003  0.2747847E+02  0.7546771E-02  0.1442860E+00
          2   -1    0    0  502    0  0.00000000000E+00  0.00000000000E+00  0.24780008015E+02  0.24780008015E+02  0.00000000000E+00 0.  1.
          1   -1    0    0  501    0 -0.00000000000E+00 -0.00000000000E+00 -0.39539115361E+02  0.39539115361E+02  0.00000000000E+00 0.  1.
          2    1    1    2  501    0 -0.19913842001E+02 -0.18934237987E+02  0.80218443438E+01  0.28625451229E+02  0.00000000000E+00 0.  1.
          1    1    1    2  502    0  0.19913842001E+02  0.18934237987E+02 -0.22780951690E+02  0.35693672147E+02  0.00000000000E+00 0.  1.
</event>
<event>
 4    1  0.3837333E+003  0.2573690E+02  0.7546771E-02  0.1460726E+00
          2   -1    0    0  502    0  0.00000000000E+00  0.00000000000E+00  0.26408869509E+03  0.26408869509E+03  0.00000000000E+00 0. -1.
          1   -1    0    0  501    0 -0.00000000000E+00 -0.00000000000E+00 -0.10304617880E+03  0.10304617880E+03  0.00000000000E+00 0. -1.
          2    1    1    2  501    0 -0.25531790411E+02  0.32428132855E+01  0.26184086384E+03  0.26310269124E+03  0.00000000000E+00 0. -1.
          1    1    1    2  502    0  0.25531790411E+02 -0.32428132855E+01 -0.10079834755E+03  0.10403218266E+03  0.00000000000E+00 0. -1.
</event>
<event>
 4    1  0.3837333E+003  0.2293953E+02  0.7546771E-02  0.1493259E+00
          2   -1    0    0  502    0  0.00000000000E+00  0.00000000000E+00  0.64683948828E+03  0.64683948828E+03  0.00000000000E+00 0.  1.
          1   -1    0    0  501    0 -0.00000000000E+00 -0.00000000000E+00 -0.56192192298E+01  0.56192192298E+01  0.00000000000E+00 0. -1.
          2    1    1    2  501    0 -0.13292187674E+02  0.18695988638E+02  0.62230155851E+03  0.62272421823E+03  0.00000000000E+00 0.  1.
          1    1    1    2  502    0  0.13292187674E+02 -0.18695988638E+02  0.18918710540E+02  0.29734489281E+02  0.00000000000E+00 0. -1.
</event>
<event>
 4    1  0.3837333E+003  0.2325688E+02  0.7546771E-02  0.1489297E+00
          2   -1    0    0  502    0  0.00000000000E+00  0.00000000000E+00  0.15547424248E+03  0.15547424248E+03  0.00000000000E+00 0. -1.
          1   -1    0    0  501    0 -0.00000000000E+00 -0.00000000000E+00 -0.39772806303E+02  0.39772806303E+02  0.00000000000E+00 0.  1.
          2    1    1    2  501    0 -0.23042721726E+02  0.31488721769E+01  0.15110700148E+03  0.15288625942E+03  0.00000000000E+00 0. -1.
          1    1    1    2  502    0  0.23042721726E+02 -0.31488721769E+01 -0.35405565311E+02  0.42360789364E+02  0.00000000000E+00 0.  1.
</event>
<event>
 4    1  0.3837333E+003  0.2484628E+02  0.7546771E-02  0.1470530E+00
          2   -1    0    0  502    0  0.00000000000E+00  0.00000000000E+00  0.29233515609E+02  0.29233515609E+02  0.00000000000E+00 0.  1.
          1   -1    0    0  501    0 -0.00000000000E+00 -0.00000000000E+00 -0.67426275807E+02  0.67426275807E+02  0.00000000000E+00 0.  1.
          2    1    1    2  501    0 -0.22048833936E+02 -0.11453671819E+02  0.20956439692E+02  0.32504000379E+02  0.00000000000E+00 0.  1.
          1    1    1    2  502    0  0.22048833936E+02  0.11453671819E+02 -0.59149199890E+02  0.64155791038E+02  0.00000000000E+00 0.  1.
</event>
<event>
 4    1  0.3837333E+003  0.2306867E+02  0.7546771E-02  0.1491638E+00
          2   -1    0    0  502    0  0.00000000000E+00  0.00000000000E+00  0.74602952092E+03  0.74602952092E+03  0.00000000000E+00 0.  1.
          1   -1    0    0  501    0 -0.00000000000E+00 -0.00000000000E+00 -0.82457685813E+02  0.82457685813E+02  0.00000000000E+00 0.  1.
          2    1    1    2  501    0 -0.66718782849E+01  0.22082793142E+02  0.74423385214E+03  0.74459129083E+03  0.00000000000E+00 0.  1.
          1    1    1    2  502    0  0.66718782849E+01 -0.22082793142E+02 -0.80662017033E+02  0.83895915900E+02  0.00000000000E+00 0.  1.
</event>
<event>
 4    1  0.3837333E+003  0.2320319E+02  0.7546771E-02  0.1489962E+00
          2   -1    0    0  502    0  0.00000000000E+00  0.00000000000E+00  0.32160170154E+03  0.32160170154E+03  0.00000000000E+00 0. -1.
          1   -1    0    0  501    0 -0.00000000000E+00 -0.00000000000E+00 -0.13205463243E+02  0.13205463243E+02  0.00000000000E+00 0.  1.
          2    1    1    2  501    0  0.20952717483E+02  0.99685232299E+01  0.31063119350E+03  0.31149659100E+03  0.00000000000E+00 0. -1.
          1    1    1    2  502    0 -0.20952717483E+02 -0.99685232299E+01 -0.22349552099E+01  0.23310573783E+02  0.00000000000E+00 0.  1.
</event>
<event>
 4    1  0.3837333E+003  0.2554840E+02  0.7546771E-02  0.1462761E+00
          2   -1    0    0  502    0  0.00000000000E+00  0.00000000000E+00  0.15898389162E+01  0.15898389162E+01  0.00000000000E+00 0.  1.
          1   -1    0    0  501    0 -0.00000000000E+00 -0.00000000000E+00 -0.63974894678E+03  0.63974894678E+03  0.00000000000E+00 0. -1.
          2    1    1    2  501    0 -0.21906553247E+02 -0.13146238783E+02 -0.12714564987E+03  0.12968707318E+03  0.00000000000E+00 0.  1.
          1    1    1    2  502    0  0.21906553247E+02  0.13146238783E+02 -0.51101345799E+03  0.51165171251E+03  0.00000000000E+00 0. -1.
</event>
<event>
 4    1  0.3837333E+003  0.2140612E+02  0.7546771E-02  0.1513545E+00
          2   -1    0    0  502    0  0.00000000000E+00  0.00000000000E+00  0.54211760995E+02  0.54211760995E+02  0.00000000000E+00 0.  1.
          1   -1    0    0  501    0 -0.00000000000E+00 -0.00000000000E+00 -0.12252842285E+02  0.12252842285E+02  0.00000000000E+00 0.  1.
          2    1    1    2  501    0 -0.47555555253E+01  0.20871188375E+02  0.39487337049E+02  0.44916273218E+02  0.00000000000E+00 0.  1.
          1    1    1    2  502    0  0.47555555253E+01 -0.20871188375E+02  0.24715816613E+01  0.21548330062E+02  0.00000000000E+00 0.  1.
</event>
<event>
 4    1  0.3837333E+003  0.3403672E+02  0.7546771E-02  0.1387465E+00
          2   -1    0    0  502    0  0.00000000000E+00  0.00000000000E+00  0.17353562266E+04  0.17353562266E+04  0.00000000000E+00 0.  1.
          1   -1    0    0  501    0 -0.00000000000E+00 -0.00000000000E+00 -0.67665895679E+02  0.67665895679E+02  0.00000000000E+00 0. -1.
          2    1    1    2  501    0  0.13871588277E+02 -0.31081786710E+02  0.17308980918E+04  0.17312327119E+04  0.00000000000E+00 0.  1.
          1    1    1    2  502    0 -0.13871588277E+02  0.31081786710E+02 -0.63207760827E+02  0.71789410467E+02  0.00000000000E+00 0. -1.
</event>
<event>
 4    1  0.3837333E+003  0.2175090E+02  0.7546771E-02  0.1508808E+00
          2   -1    0    0  502    0  0.00000000000E+00  0.00000000000E+00  0.44436957393E+03  0.44436957393E+03  0.00000000000E+00 0. -1.
          1   -1    0    0  501    0 -0.00000000000E+00 -0.00000000000E+00 -0.16973630086E+01  0.16973630086E+01  0.00000000000E+00 0. -1.
          2    1    1    2  501    0  0.16982398348E+01  0.21684499760E+02  0.35750670972E+03  0.35816776661E+03  0.00000000000E+00 0. -1.
          1    1    1    2  502    0 -0.16982398348E+01 -0.21684499760E+02  0.85165501203E+02  0.87899170323E+02  0.00000000000E+00 0. -1.
</event>
<event>
 4    1  0.3837333E+003  0.2344535E+02  0.7546771E-02  0.1486980E+00
          2   -1    0    0  502    0  0.00000000000E+00  0.00000000000E+00  0.12424076614E+04  0.12424076614E+04  0.00000000000E+00 0.  1.
          1   -1    0    0  501    0 -0.00000000000E+00 -0.00000000000E+00 -0.17179271956E+01  0.17179271956E+01  0.00000000000E+00 0.  1.
          2    1    1    2  501    0  0.10435289142E+02 -0.20994980771E+02  0.11563522526E+04  0.11565899085E+04  0.00000000000E+00 0.  1.
          1    1    1    2  502    0 -0.10435289142E+02  0.20994980771E+02  0.84337481631E+02  0.87535680068E+02  0.00000000000E+00 0.  1.
</event>
<event>
 4    1  0.3837333E+003  0.2583910E+02  0.7546771E-02  0.1459631E+00
          2   -1    0    0  502    0  0.00000000000E+00  0.00000000000E+00  0.61496861362E+02  0.61496861362E+02  0.00000000000E+00 0.  1.
          1   -1    0    0  501    0 -0.00000000000E+00 -0.00000000000E+00 -0.38960696579E+02  0.38960696579E+02  0.00000000000E+00 0. -1.
          2    1    1    2  501    0  0.15982171318E+02 -0.20303430293E+02  0.53928248192E+02  0.59798955131E+02  0.00000000000E+00 0.  1.
          1    1    1    2  502    0 -0.15982171318E+02  0.20303430293E+02 -0.31392083409E+02  0.40658602810E+02  0.00000000000E+00 0. -1.
</event>
<event>
 4    1  0.3837333E+003  0.2113999E+02  0.7546771E-02  0.1517275E+00
          2   -1    0    0  502    0  0.00000000000E+00  0.00000000000E+00  0.96244436686E+01  0.96244436686E+01  0.00000000000E+00 0. -1.
          1   -1    0    0  501    0 -0.00000000000E+00 -0.00000000000E+00 -0.13314704704E+04  0.13314704704E+04  0.00000000000E+00 0. -1.
          2    1    1    2  501    0  0.18684525255E+01  0.21057256159E+02 -0.21716654633E+01  0.21251241909E+02  0.00000000000E+00 0. -1.
          1    1    1    2  502    0 -0.18684525255E+01 -0.21057256159E+02 -0.13196743613E+04  0.13198436722E+04  0.00000000000E+00 0. -1.
</event>
<event>
 4    1  0.3837333E+003  0.2995659E+02  0.7546771E-02  0.1419974E+00
          2   -1    0    0  502    0  0.00000000000E+00  0.00000000000E+00  0.85154591913E+00  0.85154591913E+00  0.00000000000E+00 0.  1.
          1   -1    0    0  501    0 -0.00000000000E+00 -0.00000000000E+00 -0.11058640445E+04  0.11058640445E+04  0.00000000000E+00 0.  1.
          2    1    1    2  501    0  0.16385406692E+02 -0.25078195736E+02 -0.43249108347E+03  0.43352731717E+03  0.00000000000E+00 0.  1.
          1    1    1    2  502    0 -0.16385406692E+02  0.25078195736E+02 -0.67252141508E+03  0.67318827321E+03  0.00000000000E+00 0.  1.
</event>
<event>
 4    1  0.3837333E+003  0.2381810E+02  0.7546771E-02  0.1482473E+00
          2   -1    0    0  502    0  0.00000000000E+00  0.00000000000E+00  0.75391086679E+02  0.75391086679E+02  0.00000000000E+00 0. -1.
          1   -1    0    0  501    0 -0.00000000000E+00 -0.00000000000E+00 -0.80635679617E+01  0.80635679617E+01  0.00000000000E+00 0. -1.
          2    1    1    2  501    0  0.22764721268E+02  0.70049565985E+01  0.44449814179E+02  0.50429038578E+02  0.00000000000E+00 0. -1.
          1    1    1    2  502    0 -0.22764721268E+02 -0.70049565985E+01  0.22877704538E+02  0.33025616062E+02  0.00000000000E+00 0. -1.
</event>
<event>
 4    1  0.3837333E+003  0.2057442E+02  0.7546771E-02  0.1525429E+00
          2   -1    0    0  502    0  0.00000000000E+00  0.00000000000E+00  0.30829210232E+02  0.30829210232E+02  0.00000000000E+00 0.  1.
          1   -1    0    0  501    0 -0.00000000000E+00 -0.00000000000E+00 -0.15217588012E+03  0.15217588012E+03  0.00000000000E+00 0. -1.
          2    1    1    2  501    0 -0.14805308458E+02  0.14286689751E+02  0.26603538955E+02  0.33631160366E+02  0.00000000000E+00 0.  1.
          1    1    1    2  502    0  0.14805308458E+02 -0.14286689751E+02 -0.14795020885E+03  0.14937392999E+03  0.00000000000E+00 0. -1.
</event>
<event>
 4    1  0.3837333E+003  0.2878059E+02  0.7546771E-02  0.1430497E+00
          2   -1    0    0  502    0  0.00000000000E+00  0.00000000000E+00  0.12113181866E+02  0.12113181866E+02  0.00000000000E+00 0.  1.
          1   -1    0    0  501    0 -0.00000000000E+00 -0.00000000000E+00 -0.94938543463E+02  0.94938543463E+02  0.00000000000E+00 0.  1.
          2    1    1    2  501    0 -0.70228444378E+01 -0.27910612694E+02 -0.13103401495E+02  0.31623120904E+02  0.00000000000E+00 0.  1.
          1    1    1    2  502    0  0.70228444378E+01  0.27910612694E+02 -0.69721960102E+02  0.75428604425E+02  0.00000000000E+00 0.  1.
</event>
<event>
 4    1  0.3837333E+003  0.2062183E+02  0.7546771E-02  0.1524733E+00
          2   -1    0    0  502    0  0.00000000000E+00  0.00000000000E+00  0.13041192560E+03  0.13041192560E+03  0.00000000000E+00 0.  1.
          1   -1    0    0  501    0 -0.00000000000E+00 -0.00000000000E+00 -0.32610034082E+01  0.32610034082E+01  0.00000000000E+00 0.  1.
          2    1    1    2  501    0 -0.23823305199E+01 -0.20483757994E+02  0.63957481495E+02  0.67199845829E+02  0.00000000000E+00 0.  1.
          1    1    1    2  502    0  0.23823305199E+01  0.20483757994E+02  0.63193440697E+02  0.66473083180E+02  0.00000000000E+00 0.  1.
</event>
<event>
 4    1  0.3837333E+003  0.2536750E+02  0.7546771E-02  0.1464734E+00
          2   -1    0    0  502    0  0.00000000000E+00  0.00000000000E+00  0.22108538148E+02  0.22108538148E+02  0.00000000000E+00 0. -1.
          1   -1    0    0  501    0 -0.00000000000E+00 -0.00000000000E+00 -0.29163569283E+02  0.29163569283E+02  0.00000000000E+00 0. -1.
          2    1    1    2  501    0 -0.19124532419E+02 -0.16666182968E+02 -0.46583115621E+01  0.25791651005E+02  0.00000000000E+00 0. -1.
          1    1    1    2  502    0  0.19124532419E+02  0.16666182968E+02 -0.23967195730E+01  0.25480456426E+02  0.00000000000E+00 0. -1.
</event>
<event>
 4    1  0.3837333E+003  0.2260361E+02  0.7546771E-02  0.1497536E+00
          2   -1    0    0  502    0  0.00000000000E+00  0.00000000000E+00  0.43774303956E+03  0.43774303956E+03  0.00000000000E+00 0. -1.
          1   -1    0    0  501    0 -0.00000000000E+00 -0.00000000000E+00 -0.14032390569E+02  0.14032390569E+02  0.00000000000E+00 0.  1.
          2    1    1    2  501    0 -0.18159674245E+01  0.22530549120E+02  0.42814475102E+03  0.42874100715E+03  0.00000000000E+00 0. -1.
          1    1    1    2  502    0  0.18159674245E+01 -0.22530549120E+02 -0.44341020307E+01  0.23034422983E+02  0.00000000000E+00 0.  1.
</event>
<event>
 4    1  0.3837333E+003  0.2712076E+02  0.7546771E-02  0.1446399E+00
          2   -1    0    0  502    0  0.00000000000E+00  0.00000000000E+00  0.25926004958E+03  0.25926004958E+03  0.00000000000E+00 0. -1.
          1   -1    0    0  501    0 -0.00000000000E+00 -0.00000000000E+00 -0.10823259530E+03  0.10823259530E+03  0.00000000000E+00 0. -1.
          2    1    1    2  501    0 -0.75312783548E+00  0.27110297697E+02  0.25683582429E+03  0.25826377230E+03  0.00000000000E+00 0. -1.
          1    1    1    2  502    0  0.75312783548E+00 -0.27110297697E+02 -0.10580837001E+03  0.10922887258E+03  0.00000000000E+00 0. -1.
</event>
<event>
 4    1  0.3837333E+003  0.4941744E+02  0.7546771E-02  0.1300718E+00
          2   -1    0    0  502    0  0.00000000000E+00  0.00000000000E+00  0.47163191856E+03  0.47163191856E+03  0.00000000000E+00 0.  1.
          1   -1    0    0  501    0 -0.00000000000E+00 -0.00000000000E+00 -0.27932084195E+02  0.27932084195E+02  0.00000000000E+00 0. -1.
          2    1    1    2  501    0 -0.31342602223E+01  0.49317948674E+02  0.44729443810E+03  0.45001599750E+03  0.00000000000E+00 0.  1.
          1    1    1    2  502    0  0.31342602223E+01 -0.49317948674E+02 -0.35946037389E+01  0.49548005253E+02  0.00000000000E+00 0. -1.
</event>
<event>
 4    1  0.3837333E+003  0.3811658E+02  0.7546771E-02  0.1359891E+00
          2   -1    0    0  502    0  0.00000000000E+00  0.00000000000E+00  0.16278992886E+04  0.16278992886E+04  0.00000000000E+00 0. -1.
          1   -1    0    0  501    0 -0.00000000000E+00 -0.00000000000E+00 -0.94894701741E+01  0.94894701741E+01  0.00000000000E+00 0.  1.
          2    1    1    2  501    0 -0.37956200829E+02 -0.34929504902E+01  0.15884497638E+04  0.15889070224E+04  0.00000000000E+00 0. -1.
          1    1    1    2  502    0  0.37956200829E+02  0.34929504902E+01  0.29960054653E+02  0.48481736348E+02  0.00000000000E+00 0.  1.
</event>
<event>
 4    1  0.3837333E+003  0.3946701E+02  0.7546771E-02  0.1351638E+00
          2   -1    0    0  502    0  0.00000000000E+00  0.00000000000E+00  0.21040435978E+02  0.21040435978E+02  0.00000000000E+00 0. -1.
          1   -1    0    0  501    0 -0.00000000000E+00 -0.00000000000E+00 -0.35058142099E+03  0.35058142099E+03  0.00000000000E+00 0.  1.
          2    1    1    2  501    0  0.39454021827E+02 -0.10125584243E+01  0.25990458534E+00  0.39467868745E+02  0.00000000000E+00 0. -1.
          1    1    1    2  502    0 -0.39454021827E+02  0.10125584243E+01 -0.32980088960E+03  0.33215398823E+03  0.00000000000E+00 0.  1.
</event>
<event>
 4    1  0.3837333E+003  0.3809835E+02  0.7546771E-02  0.1360005E+00
          2   -1    0    0  502    0  0.00000000000E+00  0.00000000000E+00  0.98115898350E+02  0.98115898350E+02  0.00000000000E+00 0.  1.
          1   -1    0    0  501    0 -0.00000000000E+00 -0.00000000000E+00 -0.16113784495E+04  0.16113784495E+04  0.00000000000E+00 0. -1.
          2    1    1    2  501    0  0.37032430915E+02  0.89489176661E+01  0.94183266927E+02  0.10159710545E+03  0.00000000000E+00 0.  1.
          1    1    1    2  502    0 -0.37032430915E+02 -0.89489176661E+01 -0.16074458181E+04  0.16078972424E+04  0.00000000000E+00 0. -1.
</event>
<event>
 4    1  0.3837333E+003  0.2136938E+02  0.7546771E-02  0.1514056E+00
          2   -1    0    0  502    0  0.00000000000E+00  0.00000000000E+00  0.23491228538E+03  0.23491228538E+03  0.00000000000E+00 0.  1.
          1   -1    0    0  501    0 -0.00000000000E+00 -0.00000000000E+00 -0.40961512127E+02  0.40961512127E+02  0.00000000000E+00 0. -1.
          2    1    1    2  501    0 -0.65938320479E+01 -0.20326627768E+02  0.23159945344E+03  0.23258322651E+03  0.00000000000E+00 0.  1.
          1    1    1    2  502    0  0.65938320479E+01  0.20326627768E+02 -0.37648680190E+02  0.43290571000E+02  0.00000000000E+00 0. -1.
</event>
<event>
 4    1  0.3837333E+003  0.3973954E+02  0.7546771E-02  0.1350019E+00
          2   -1    0    0  502    0  0.00000000000E+00  0.00000000000E+00  0.13461563530E+03  0.13461563530E+03  0.00000000000E+00 0. -1.
          1   -1    0    0  501    0 -0.00000000000E+00 -0.00000000000E+00 -0.13471433889E+02  0.13471433889E+02  0.00000000000E+00 0.  1.
          2    1    1    2  501    0  0.39712052204E+02  0.14779024471E+01  0.87182890566E+02  0.95812774166E+02  0.00000000000E+00 0. -1.
          1    1    1    2  502    0 -0.39712052204E+02 -0.14779024471E+01  0.33961310845E+02  0.52274295024E+02  0.00000000000E+00 0.  1.
</event>
<event>
 4    1  0.3837333E+003  0.2047382E+02  0.7546771E-02  0.1526912E+00
          2   -1    0    0  502    0  0.00000000000E+00  0.00000000000E+00  0.70870735461E+02  0.70870735461E+02  0.00000000000E+00 0.  1.
          1   -1    0    0  501    0 -0.00000000000E+00 -0.00000000000E+00 -0.17808823406E+02  0.17808823406E+02  0.00000000000E+00 0.  1.
          2    1    1    2  501    0  0.62212201833E+01  0.19505731309E+02  0.62767156290E+02  0.66021913356E+02  0.00000000000E+00 0.  1.
          1    1    1    2  502    0 -0.62212201833E+01 -0.19505731309E+02 -0.97052442355E+01  0.22657645511E+02  0.00000000000E+00 0.  1.
</event>
<event>
 4    1  0.3837333E+003  0.2823037E+02  0.7546771E-02  0.1435625E+00
          2   -1    0    0  502    0  0.00000000000E+00  0.00000000000E+00  0.32094652735E+03  0.32094652735E+03  0.00000000000E+00 0. -1.
          1   -1    0    0  501    0 -0.00000000000E+00 -0.00000000000E+00 -0.14341115586E+02  0.14341115586E+02  0.00000000000E+00 0.  1.
          2    1    1    2  501    0  0.19305182432E+02 -0.20597665589E+02  0.30574358057E+03  0.30704411891E+03  0.00000000000E+00 0. -1.
          1    1    1    2  502    0 -0.19305182432E+02  0.20597665589E+02  0.86183119387E+00  0.28243524027E+02  0.00000000000E+00 0.  1.
</event>
<event>
 4    1  0.3837333E+003  0.2259248E+02  0.7546771E-02  0.1497680E+00
          2   -1    0    0  502    0  0.00000000000E+00  0.00000000000E+00  0.44459166289E+03  0.44459166289E+03  0.00000000000E+00 0. -1.
          1   -1    0    0  501    0 -0.00000000000E+00 -0.00000000000E+00 -0.49970920893E+02  0.49970920893E+02  0.00000000000E+00 0. -1.
          2    1    1    2  501    0 -0.18989673580E+02  0.12239788889E+02  0.44173455522E+03  0.44231192321E+03  0.00000000000E+00 0. -1.
          1    1    1    2  502    0  0.18989673580E+02 -0.12239788889E+02 -0.47113813221E+02  0.52250660579E+02  0.00000000000E+00 0. -1.
</event>
<event>
 4    1  0.3837333E+003  0.2143189E+02  0.7546771E-02  0.1513187E+00
          2   -1    0    0  502    0  0.00000000000E+00  0.00000000000E+00  0.20786337040E+01  0.20786337040E+01  0.00000000000E+00 0.  1.
          1   -1    0    0  501    0 -0.00000000000E+00 -0.00000000000E+00 -0.58457919239E+03  0.58457919239E+03  0.00000000000E+00 0.  1.
          2    1    1    2  501    0 -0.14210984679E+02  0.16042868954E+02 -0.59911873317E+02  0.63629853796E+02  0.00000000000E+00 0.  1.
          1    1    1    2  502    0  0.14210984679E+02 -0.16042868954E+02 -0.52258868537E+03  0.52302797230E+03  0.00000000000E+00 0.  1.
</event>
<event>
 4    1  0.3837333E+003  0.2191570E+02  0.7546771E-02  0.1506582E+00
          2   -1    0    0  502    0  0.00000000000E+00  0.00000000000E+00  0.25855049887E+03  0.25855049887E+03  0.00000000000E+00 0. -1.
          1   -1    0    0  501    0 -0.00000000000E+00 -0.00000000000E+00 -0.38125678636E+03  0.38125678636E+03  0.00000000000E+00 0. -1.
          2    1    1    2  501    0  0.69420479728E+01 -0.20787161466E+02  0.25777018901E+03  0.25870015163E+03  0.00000000000E+00 0. -1.
          1    1    1    2  502    0 -0.69420479728E+01  0.20787161466E+02 -0.38047647650E+03  0.38110713360E+03  0.00000000000E+00 0. -1.
</event>
<event>
 4    1  0.3837333E+003  0.2573236E+02  0.7546771E-02  0.1460775E+00
          2   -1    0    0  502    0  0.00000000000E+00  0.00000000000E+00  0.12604509645E+03  0.12604509645E+03  0.00000000000E+00 0.  1.
          1   -1    0    0  501    0 -0.00000000000E+00 -0.00000000000E+00 -0.40256945288E+02  0.40256945288E+02  0.00000000000E+00 0. -1.
          2    1    1    2  501    0 -0.23864299705E+02  0.96254571003E+01  0.12043013748E+03  0.12314857790E+03  0.00000000000E+00 0.  1.
          1    1    1    2  502    0  0.23864299705E+02 -0.96254571003E+01 -0.34641986321E+02  0.43153463836E+02  0.00000000000E+00 0. -1.
</event>
<event>
 4    1  0.3837333E+003  0.2026652E+02  0.7546771E-02  0.1530000E+00
          2   -1    0    0  502    0  0.00000000000E+00  0.00000000000E+00  0.10927335779E+03  0.10927335779E+03  0.00000000000E+00 0.  1.
          1   -1    0    0  501    0 -0.00000000000E+00 -0.00000000000E+00 -0.89600188380E+03  0.89600188380E+03  0.00000000000E+00 0.  1.
          2    1    1    2  501    0  0.53577348826E+01  0.19545501875E+02  0.10821795928E+03  0.11009931279E+03  0.00000000000E+00 0.  1.
          1    1    1    2  502    0 -0.53577348826E+01 -0.19545501875E+02 -0.89494648529E+03  0.89517592880E+03  0.00000000000E+00 0.  1.
</event>
<event>
 4    1  0.3837333E+003  0.2452017E+02  0.7546771E-02  0.1474243E+00
          2   -1    0    0  502    0  0.00000000000E+00  0.00000000000E+00  0.27786964361E+03  0.27786964361E+03  0.00000000000E+00 0.  1.
          1   -1    0    0  501    0 -0.00000000000E+00 -0.00000000000E+00 -0.55848292803E+02  0.55848292803E+02  0.00000000000E+00 0. -1.
          2    1    1    2  501    0 -0.15529041881E+01  0.24470944304E+02  0.27460538631E+03  0.27569794489E+03  0.00000000000E+00 0.  1.
          1    1    1    2  502    0  0.15529041881E+01 -0.24470944304E+02 -0.52584035502E+02  0.58019991522E+02  0.00000000000E+00 0. -1.
</event>
<event>
 4    1  0.3837333E+003  0.2021222E+02  0.7546771E-02  0.1530816E+00
          2   -1    0    0  502    0  0.00000000000E+00  0.00000000000E+00  0.42587720978E+01  0.42587720978E+01  0.00000000000E+00 0. -1.
          1   -1    0    0  501    0 -0.00000000000E+00 -0.00000000000E+00 -0.21612548177E+03  0.21612548177E+03  0.00000000000E+00 0. -1.
          2    1    1    2  501    0  0.17523574211E+02 -0.10072642777E+02 -0.23757167813E+02  0.31191934985E+02  0.00000000000E+00 0. -1.
          1    1    1    2  502    0 -0.17523574211E+02  0.10072642777E+02 -0.18810954186E+03  0.18919231888E+03  0.00000000000E+00 0. -1.
</event>
<event>
 4    1  0.3837333E+003  0.2193611E+02  0.7546771E-02  0.1506308E+00
          2   -1    0    0  502    0  0.00000000000E+00  0.00000000000E+00  0.57265293735E+03  0.57265293735E+03  0.00000000000E+00 0. -1.
          1   -1    0    0  501    0 -0.00000000000E+00 -0.00000000000E+00 -0.87218511802E+00  0.87218511802E+00  0.00000000000E+00 0. -1.
          2    1    1    2  501    0 -0.17618447720E+02 -0.13068381657E+02  0.23104919225E+03  0.23208817621E+03  0.00000000000E+00 0. -1.
          1    1    1    2  502    0  0.17618447720E+02  0.13068381657E+02  0.34073155999E+03  0.34143694626E+03  0.00000000000E+00 0. -1.
</event>
<event>
 4    1  0.3837333E+003  0.3848714E+02  0.7546771E-02  0.1357587E+00
          2   -1    0    0  502    0  0.00000000000E+00  0.00000000000E+00  0.53249480910E+02  0.53249480910E+02  0.00000000000E+00 0. -1.
          1   -1    0    0  501    0 -0.00000000000E+00 -0.00000000000E+00 -0.33176768449E+02  0.33176768449E+02  0.00000000000E+00 0. -1.
          2    1    1    2  501    0  0.14235717909E+02  0.35757577885E+02  0.27404644242E+02  0.47246952987E+02  0.00000000000E+00 0. -1.
          1    1    1    2  502    0 -0.14235717909E+02 -0.35757577885E+02 -0.73319317807E+01  0.39179296372E+02  0.00000000000E+00 0. -1.
</event>
<event>
 4    1  0.3837333E+003  0.2108627E+02  0.7546771E-02  0.1518037E+00
          2   -1    0    0  502    0  0.00000000000E+00  0.00000000000E+00  0.29085459100E+02  0.29085459100E+02  0.00000000000E+00 0.  1.
          1   -1    0    0  501    0 -0.00000000000E+00 -0.00000000000E+00 -0.21323130507E+03  0.21323130507E+03  0.00000000000E+00 0. -1.
          2    1    1    2  501    0 -0.20111483405E+01 -0.20990143109E+02  0.24661632858E+02  0.32447295120E+02  0.00000000000E+00 0.  1.
          1    1    1    2  502    0  0.20111483405E+01  0.20990143109E+02 -0.20880747883E+03  0.20986946906E+03  0.00000000000E+00 0. -1.
</event>
<event>
 4    1  0.3837333E+003  0.4804816E+02  0.7546771E-02  0.1306864E+00
          2   -1    0    0  502    0  0.00000000000E+00  0.00000000000E+00  0.11035326005E+02  0.11035326005E+02  0.00000000000E+00 0. -1.
          1   -1    0    0  501    0 -0.00000000000E+00 -0.00000000000E+00 -0.14286570332E+04  0.14286570332E+04  0.00000000000E+00 0.  1.
          2    1    1    2  501    0 -0.40539322403E+02  0.25791252162E+02 -0.43754576987E+02  0.64985293384E+02  0.00000000000E+00 0. -1.
          1    1    1    2  502    0  0.40539322403E+02 -0.25791252162E+02 -0.13738671302E+04  0.13747070659E+04  0.00000000000E+00 0.  1.
</event>
<event>
 4    1  0.3837333E+003  0.4017451E+02  0.7546771E-02  0.1347466E+00
          2   -1    0    0  502    0  0.00000000000E+00  0.00000000000E+00  0.79410442996E+00  0.79410442996E+00  0.00000000000E+00 0.  1.
          1   -1    0    0  501    0 -0.00000000000E+00 -0.00000000000E+00 -0.31082852937E+04  0.31082852937E+04  0.00000000000E+00 0.  1.
          2    1    1    2  501    0 -0.37422852939E+02 -0.14612366866E+02 -0.63918853262E+03  0.64044981960E+03  0.00000000000E+00 0.  1.
          1    1    1    2  502    0  0.37422852939E+02  0.14612366866E+02 -0.24683026567E+04  0.24686295786E+04  0.00000000000E+00 0.  1.
</event>
<event>
 4    1  0.3837333E+003  0.3448789E+02  0.7546771E-02  0.1384200E+00
          2   -1    0    0  502    0  0.00000000000E+00  0.00000000000E+00  0.37044290624E+02  0.37044290624E+02  0.00000000000E+00 0.  1.
          1   -1    0    0  501    0 -0.00000000000E+00 -0.00000000000E+00 -0.40434791723E+03  0.40434791723E+03  0.00000000000E+00 0.  1.
          2    1    1    2  501    0 -0.30329009952E+02 -0.16418451187E+02  0.28100708388E+02  0.44486674364E+02  0.00000000000E+00 0.  1.
          1    1    1    2  502    0  0.30329009952E+02  0.16418451187E+02 -0.39540433500E+03  0.39690553350E+03  0.00000000000E+00 0.  1.
</event>
<event>
 4    1  0.3837333E+003  0.2824035E+02  0.7546771E-02  0.1435531E+00
          2   -1    0    0  502    0  0.00000000000E+00  0.00000000000E+00  0.27912496461E+01  0.27912496461E+01  0.00000000000E+00 0. -1.
          1   -1    0    0  501    0 -0.00000000000E+00 -0.00000000000E+00 -0.38503227794E+03  0.38503227794E+03  0.00000000000E+00 0. -1.
          2    1    1    2  501    0  0.23971999068E+01  0.28138421662E+02 -0.92638734017E+02  0.96847572924E+02  0.00000000000E+00 0. -1.
          1    1    1    2  502    0 -0.23971999068E+01 -0.28138421662E+02 -0.28960229428E+03  0.29097595466E+03  0.00000000000E+00 0. -1.
</event>
<event>
 4    1  0.3837333E+003  0.2164200E+02  0.7546771E-02  0.1510293E+00
          2   -1    0    0  502    0  0.00000000000E+00  0.00000000000E+00  0.42127286755E+03  0.42127286755E+03  0.00000000000E+00 0.  1.
          1   -1    0    0  501    0 -0.00000000000E+00 -0.00000000000E+00 -0.36178648821E+01  0.36178648821E+01  0.00000000000E+00 0. -1.
          2    1    1    2  501    0  0.99022949298E+01  0.19243724294E+02  0.38564130954E+03  0.38624810160E+03  0.00000000000E+00 0.  1.
          1    1    1    2  502    0 -0.99022949298E+01 -0.19243724294E+02  0.32013693127E+02  0.38642630827E+02  0.00000000000E+00 0. -1.
</event>
<event>
 4    1  0.3837333E+003  0.2373362E+02  0.7546771E-02  0.1483486E+00
          2   -1    0    0  502    0  0.00000000000E+00  0.00000000000E+00  0.82808175016E+00  0.82808175016E+00  0.00000000000E+00 0.  1.
          1   -1    0    0  501    0 -0.00000000000E+00 -0.00000000000E+00 -0.10954903391E+04  0.10954903391E+04  0.00000000000E+00 0. -1.
          2    1    1    2  501    0  0.21325147572E+02  0.10417436254E+02 -0.20983919738E+03  0.21117711442E+03  0.00000000000E+00 0.  1.
          1    1    1    2  502    0 -0.21325147572E+02 -0.10417436254E+02 -0.88482305994E+03  0.88514130640E+03  0.00000000000E+00 0. -1.
</event>
<event>
 4    1  0.3837333E+003  0.2153057E+02  0.7546771E-02  0.1511823E+00
          2   -1    0    0  502    0  0.00000000000E+00  0.00000000000E+00  0.13372015948E+03  0.13372015948E+03  0.00000000000E+00 0.  1.
          1   -1    0    0  501    0 -0.00000000000E+00 -0.00000000000E+00 -0.55654897626E+01  0.55654897626E+01  0.00000000000E+00 0.  1.
          2    1    1    2  501    0 -0.15923239873E+02  0.14491922594E+02  0.10684454516E+03  0.10899230349E+03  0.00000000000E+00 0.  1.
          1    1    1    2  502    0  0.15923239873E+02 -0.14491922594E+02  0.21310124557E+02  0.30293345757E+02  0.00000000000E+00 0.  1.
</event>
<event>
 4    1  0.3837333E+003  0.3006490E+02  0.7546771E-02  0.1419033E+00
          2   -1    0    0  502    0  0.00000000000E+00  0.00000000000E+00  0.36940504187E+02  0.36940504187E+02  0.00000000000E+00 0. -1.
          1   -1    0    0  501    0 -0.00000000000E+00 -0.00000000000E+00 -0.43410837224E+02  0.43410837224E+02  0.00000000000E+00 0. -1.
          2    1    1    2  501    0  0.18319556609E+02  0.23838872373E+02  0.23303241000E+02  0.38038651809E+02  0.00000000000E+00 0. -1.
          1    1    1    2  502    0 -0.18319556609E+02 -0.23838872373E+02 -0.29773574037E+02  0.42312689602E+02  0.00000000000E+00 0. -1.
</event>
<event>
 4    1  0.3837333E+003  0.3583651E+02  0.7546771E-02  0.1374776E+00
          2   -1    0    0  502    0  0.00000000000E+00  0.00000000000E+00  0.16273674155E+04  0.16273674155E+04  0.00000000000E+00 0. -1.
          1   -1    0    0  501    0 -0.00000000000E+00 -0.00000000000E+00 -0.10191814249E+03  0.10191814249E+03  0.00000000000E+00 0. -1.
          2    1    1    2  501    0 -0.12641831685E+02  0.33532659422E+02  0.16240134077E+04  0.16244087551E+04  0.00000000000E+00 0. -1.
          1    1    1    2  502    0  0.12641831685E+02 -0.33532659422E+02 -0.98564134657E+02  0.10487680295E+03  0.00000000000E+00 0. -1.
</event>
<event>
 4    1  0.3837333E+003  0.2371748E+02  0.7546771E-02  0.1483680E+00
          2   -1    0    0  502    0  0.00000000000E+00  0.00000000000E+00  0.73914222783E+02  0.73914222783E+02  0.00000000000E+00 0.  1.
          1   -1    0    0  501    0 -0.00000000000E+00 -0.00000000000E+00 -0.41028788154E+02  0.41028788154E+02  0.00000000000E+00 0.  1.
          2    1    1    2  501    0  0.22619959449E+02  0.71313754595E+01  0.68310869673E+02  0.72311091798E+02  0.00000000000E+00 0.  1.
          1    1    1    2  502    0 -0.22619959449E+02 -0.71313754595E+01 -0.35425435044E+02  0.42631919139E+02  0.00000000000E+00 0.  1.
</event>
<event>
 4    1  0.3837333E+003  0.2216279E+02  0.7546771E-02  0.1503287E+00
          2   -1    0    0  502    0  0.00000000000E+00  0.00000000000E+00  0.33179539082E+03  0.33179539082E+03  0.00000000000E+00 0. -1.
          1   -1    0    0  501    0 -0.00000000000E+00 -0.00000000000E+00 -0.52394301810E+01  0.52394301810E+01  0.00000000000E+00 0.  1.
          2    1    1    2  501    0  0.11490397280E+02  0.18951516516E+02  0.30601636394E+03  0.30681786813E+03  0.00000000000E+00 0. -1.
          1    1    1    2  502    0 -0.11490397280E+02 -0.18951516516E+02  0.20539596698E+02  0.30216952865E+02  0.00000000000E+00 0.  1.
</event>
<event>
 4    1  0.3837333E+003  0.2354048E+02  0.7546771E-02  0.1485821E+00
          2   -1    0    0  502    0  0.00000000000E+00  0.00000000000E+00  0.47958912788E+01  0.47958912788E+01  0.00000000000E+00 0.  1.
          1   -1    0    0  501    0 -0.00000000000E+00 -0.00000000000E+00 -0.12402633915E+04  0.12402633915E+04  0.00000000000E+00 0. -1.
          2    1    1    2  501    0 -0.18657597072E+02 -0.14354381397E+02 -0.24911561869E+02  0.34274481886E+02  0.00000000000E+00 0.  1.
          1    1    1    2  502    0  0.18657597072E+02  0.14354381397E+02 -0.12105559384E+04  0.12107848009E+04  0.00000000000E+00 0. -1.
</event>
<event>
 4    1  0.3837333E+003  0.2176309E+02  0.7546771E-02  0.1508643E+00
          2   -1    0    0  502    0  0.00000000000E+00  0.00000000000E+00  0.52668435656E+03  0.52668435656E+03  0.00000000000E+00 0. -1.
          1   -1    0    0  501    0 -0.00000000000E+00 -0.00000000000E+00 -0.78651301068E+01  0.78651301068E+01  0.00000000000E+00 0. -1.
          2    1    1    2  501    0  0.21613156280E+02  0.25501796018E+01  0.51094107239E+03  0.51140435215E+03  0.00000000000E+00 0. -1.
          1    1    1    2  502    0 -0.21613156280E+02 -0.25501796018E+01  0.78781540607E+01  0.23145134517E+02  0.00000000000E+00 0. -1.
</event>
<event>
 4    1  0.3837333E+003  0.2111513E+02  0.7546771E-02  0.1517627E+00
          2   -1    0    0  502    0  0.00000000000E+00  0.00000000000E+00  0.60971397483E+03  0.60971397483E+03  0.00000000000E+00 0.  1.
          1   -1    0    0  501    0 -0.00000000000E+00 -0.00000000000E+00 -0.83168458981E+02  0.83168458981E+02  0.00000000000E+00 0.  1.
          2    1    1    2  501    0 -0.13408543228E+02 -0.16311338377E+02  0.60818760377E+03  0.60855403225E+03  0.00000000000E+00 0.  1.
          1    1    1    2  502    0  0.13408543228E+02  0.16311338377E+02 -0.81642087915E+02  0.84328401564E+02  0.00000000000E+00 0.  1.
</event>
<event>
 4    1  0.3837333E+003  0.3659504E+02  0.7546771E-02  0.1369683E+00
          2   -1    0    0  502    0  0.00000000000E+00  0.00000000000E+00  0.28355052581E+04  0.28355052581E+04  0.00000000000E+00 0. -1.
          1   -1    0    0  501    0 -0.00000000000E+00 -0.00000000000E+00 -0.65093618944E+00  0.65093618944E+00  0.00000000000E+00 0.  1.
          2    1    1    2  501    0  0.35871388238E+02  0.72415844801E+01  0.21603108929E+04  0.21606208254E+04  0.00000000000E+00 0. -1.
          1    1    1    2  502    0 -0.35871388238E+02 -0.72415844801E+01  0.67454342901E+03  0.67553536892E+03  0.00000000000E+00 0.  1.
</event>
<event>
 4    1  0.3837333E+003  0.3255127E+02  0.7546771E-02  0.1398647E+00
          2   -1    0    0  502    0  0.00000000000E+00  0.00000000000E+00  0.16442615653E+03  0.16442615653E+03  0.00000000000E+00 0. -1.
          1   -1    0    0  501    0 -0.00000000000E+00 -0.00000000000E+00 -0.17451975749E+02  0.17451975749E+02  0.00000000000E+00 0. -1.
          2    1    1    2  501    0 -0.32500133578E+02  0.18239140725E+01  0.14571069158E+03  0.14930234756E+03  0.00000000000E+00 0. -1.
          1    1    1    2  502    0  0.32500133578E+02 -0.18239140725E+01  0.12634891967E+01  0.32575784719E+02  0.00000000000E+00 0. -1.
</event>
<event>
 4    1  0.3837333E+003  0.1632596E+03  0.7546771E-02  0.1084753E+00
          2   -1    0    0  502    0  0.00000000000E+00  0.00000000000E+00  0.91456522531E+02  0.91456522531E+02  0.00000000000E+00 0. -1.
          1   -1    0    0  501    0 -0.00000000000E+00 -0.00000000000E+00 -0.79418837313E+03  0.79418837313E+03  0.00000000000E+00 0. -1.
          2    1    1    2  501    0 -0.12813616489E+03  0.10116730984E+03  0.96035061249E+00  0.16326243783E+03  0.00000000000E+00 0. -1.
          1    1    1    2  502    0  0.12813616489E+03 -0.10116730984E+03 -0.70369220121E+03  0.72238245783E+03  0.00000000000E+00 0. -1.
</event>
<event>
 4    1  0.3837333E+003  0.2197167E+02  0.7546771E-02  0.1505831E+00
          2   -1    0    0  502    0  0.00000000000E+00  0.00000000000E+00  0.16332529573E+02  0.16332529573E+02  0.00000000000E+00 0.  1.
          1   -1    0    0  501    0 -0.00000000000E+00 -0.00000000000E+00 -0.11116656644E+03  0.11116656644E+03  0.00000000000E+00 0.  1.
          2    1    1    2  501    0 -0.19905264991E+02 -0.93024104345E+01  0.72038115187E+01  0.23122485045E+02  0.00000000000E+00 0.  1.
          1    1    1    2  502    0  0.19905264991E+02  0.93024104345E+01 -0.10203784838E+03  0.10437661097E+03  0.00000000000E+00 0.  1.
</event>
<event>
 4    1  0.3837333E+003  0.2750068E+02  0.7546771E-02  0.1442643E+00
          2   -1    0    0  502    0  0.00000000000E+00  0.00000000000E+00  0.39457753782E+03  0.39457753782E+03  0.00000000000E+00 0. -1.
          1   -1    0    0  501    0 -0.00000000000E+00 -0.00000000000E+00 -0.19177868977E+01  0.19177868977E+01  0.00000000000E+00 0. -1.
          2    1    1    2  501    0  0.10090414723E+02  0.25582613584E+02  0.19160931901E+03  0.19357277111E+03  0.00000000000E+00 0. -1.
          1    1    1    2  502    0 -0.10090414723E+02 -0.25582613584E+02  0.20105043192E+03  0.20292255361E+03  0.00000000000E+00 0. -1.
</event>
<event>
 4    1  0.3837333E+003  0.2042204E+02  0.7546771E-02  0.1527679E+00
          2   -1    0    0  502    0  0.00000000000E+00  0.00000000000E+00  0.11723152575E+03  0.11723152575E+03  0.00000000000E+00 0.  1.
          1   -1    0    0  501    0 -0.00000000000E+00 -0.00000000000E+00 -0.57446677325E+02  0.57446677325E+02  0.00000000000E+00 0.  1.
          2    1    1    2  501    0 -0.20349862825E+02  0.17154106714E+01  0.11448392906E+03  0.11629114138E+03  0.00000000000E+00 0.  1.
          1    1    1    2  502    0  0.20349862825E+02 -0.17154106714E+01 -0.54699080636E+02  0.58387061693E+02  0.00000000000E+00 0.  1.
</event>
<event>
 4    1  0.3837333E+003  0.2764092E+02  0.7546771E-02  0.1441274E+00
          2   -1    0    0  502    0  0.00000000000E+00  0.00000000000E+00  0.32458106009E+03  0.32458106009E+03  0.00000000000E+00 0.  1.
          1   -1    0    0  501    0 -0.00000000000E+00 -0.00000000000E+00 -0.12875471017E+02  0.12875471017E+02  0.00000000000E+00 0.  1.
          2    1    1    2  501    0 -0.27595702365E+02 -0.15803539104E+01  0.30837998737E+03  0.30961627367E+03  0.00000000000E+00 0.  1.
          1    1    1    2  502    0  0.27595702365E+02  0.15803539104E+01  0.33256016972E+01  0.27840257437E+02  0.00000000000E+00 0.  1.
</event>
<event>
 4    1  0.3837333E+003  0.2089473E+02  0.7546771E-02  0.1520773E+00
          2   -1    0    0  502    0  0.00000000000E+00  0.00000000000E+00  0.27856512914E+02  0.27856512914E+02  0.00000000000E+00 0. -1.
          1   -1    0    0  501    0 -0.00000000000E+00 -0.00000000000E+00 -0.44021101179E+03  0.44021101179E+03  0.00000000000E+00 0.  1.
          2    1    1    2  501    0 -0.18653764015E+02  0.94141862001E+01  0.23652610168E+02  0.31560034561E+02  0.00000000000E+00 0. -1.
          1    1    1    2  502    0  0.18653764015E+02 -0.94141862001E+01 -0.43600710904E+03  0.43650749014E+03  0.00000000000E+00 0.  1.
</event>
<event>
 4    1  0.3837333E+003  0.2967881E+02  0.7546771E-02  0.1422408E+00
          2   -1    0    0  502    0  0.00000000000E+00  0.00000000000E+00  0.39645412682E+02  0.39645412682E+02  0.00000000000E+00 0. -1.
          1   -1    0    0  501    0 -0.00000000000E+00 -0.00000000000E+00 -0.21855145847E+03  0.21855145847E+03  0.00000000000E+00 0. -1.
          2    1    1    2  501    0 -0.89217910639E+01  0.28306063158E+02  0.32907568763E+02  0.44314102148E+02  0.00000000000E+00 0. -1.
          1    1    1    2  502    0  0.89217910639E+01 -0.28306063158E+02 -0.21181361456E+03  0.21388276901E+03  0.00000000000E+00 0. -1.
</event>
<event>
 4    1  0.3837333E+003  0.2196408E+02  0.7546771E-02  0.1505933E+00
          2   -1    0    0  502    0  0.00000000000E+00  0.00000000000E+00  0.51126092910E+00  0.51126092910E+00  0.00000000000E+00 0. -1.
          1   -1    0    0  501    0 -0.00000000000E+00 -0.00000000000E+00 -0.11656681576E+04  0.11656681576E+04  0.00000000000E+00 0. -1.
          2    1    1    2  501    0  0.35583223013E+01  0.21673923851E+02 -0.32807072734E+03  0.32880514408E+03  0.00000000000E+00 0. -1.
          1    1    1    2  502    0 -0.35583223013E+01 -0.21673923851E+02 -0.83708616936E+03  0.83737427448E+03  0.00000000000E+00 0. -1.
</event>
<event>
 4    1  0.3837333E+003  0.3893071E+02  0.7546771E-02  0.1354868E+00
          2   -1    0    0  502    0  0.00000000000E+00  0.00000000000E+00  0.28257722207E+01  0.28257722207E+01  0.00000000000E+00 0. -1.
          1   -1    0    0  501    0 -0.00000000000E+00 -0.00000000000E+00 -0.60586671710E+03  0.60586671710E+03  0.00000000000E+00 0. -1.
          2    1    1    2  501    0 -0.38841964106E+02 -0.26272408478E+01 -0.19842807576E+03  0.20221103288E+03  0.00000000000E+00 0. -1.
          1    1    1    2  502    0  0.38841964106E+02  0.26272408478E+01 -0.40461286913E+03  0.40648145644E+03  0.00000000000E+00 0. -1.
</event>
<event>
 4    1  0.3837333E+003  0.6638399E+02  0.7546771E-02  0.1239560E+00
          2   -1    0    0  502    0  0.00000000000E+00  0.00000000000E+00  0.89113733318E+03  0.89113733318E+03  0.00000000000E+00 0.  1.
          1   -1    0    0  501    0 -0.00000000000E+00 -0.00000000000E+00 -0.12786584754E+02  0.12786584754E+02  0.00000000000E+00 0.  1.
          2    1    1    2  501    0 -0.14782628178E+02 -0.64717137348E+02  0.79310877953E+03  0.79588213331E+03  0.00000000000E+00 0.  1.
          1    1    1    2  502    0  0.14782628178E+02  0.64717137348E+02  0.85241968897E+02  0.10804178462E+03  0.00000000000E+00 0.  1.
</event>
<event>
 4    1  0.3837333E+003  0.3250159E+02  0.7546771E-02  0.1399033E+00
          2   -1    0    0  502    0  0.00000000000E+00  0.00000000000E+00  0.37238902948E+03  0.37238902948E+03  0.00000000000E+00 0. -1.
          1   -1    0    0  501    0 -0.00000000000E+00 -0.00000000000E+00 -0.34748993343E+01  0.34748993343E+01  0.00000000000E+00 0. -1.
          2    1    1    2  501    0  0.19246122583E+02  0.26190454440E+02  0.26499681762E+03  0.26698252094E+03  0.00000000000E+00 0. -1.
          1    1    1    2  502    0 -0.19246122583E+02 -0.26190454440E+02  0.10391731252E+03  0.10888140787E+03  0.00000000000E+00 0. -1.
</event>
<event>
 4    1  0.3837333E+003  0.3570438E+02  0.7546771E-02  0.1375678E+00
          2   -1    0    0  502    0  0.00000000000E+00  0.00000000000E+00  0.15008369655E+04  0.15008369655E+04  0.00000000000E+00 0. -1.
          1   -1    0    0  501    0 -0.00000000000E+00 -0.00000000000E+00 -0.24488937656E+01  0.24488937656E+01  0.00000000000E+00 0. -1.
          2    1    1    2  501    0  0.33882638722E+02  0.11259205931E+02  0.13566553184E+04  0.13571250701E+04  0.00000000000E+00 0. -1.
          1    1    1    2  502    0 -0.33882638722E+02 -0.11259205931E+02  0.14173275338E+03  0.14616078922E+03  0.00000000000E+00 0. -1.
</event>
<event>
 4    1  0.3837333E+003  0.3465134E+02  0.7546771E-02  0.1383031E+00
          2   -1    0    0  502    0  0.00000000000E+00  0.00000000000E+00  0.91113748475E+02  0.91113748475E+02  0.00000000000E+00 0. -1.
          1   -1    0    0  501    0 -0.00000000000E+00 -0.00000000000E+00 -0.43560429200E+02  0.43560429200E+02  0.00000000000E+00 0.  1.
          2    1    1    2  501    0 -0.16922515949E+02 -0.30238122885E+02  0.80013128925E+02  0.87194130663E+02  0.00000000000E+00 0. -1.
          1    1    1    2  502    0  0.16922515949E+02  0.30238122885E+02 -0.32459809651E+02  0.47480047012E+02  0.00000000000E+00 0.  1.
</event>
<event>
 4    1  0.3837333E+003  0.3345736E+02  0.7546771E-02  0.1391745E+00
          2   -1    0    0  502    0  0.00000000000E+00  0.00000000000E+00  0.16457112018E+03  0.16457112018E+03  0.00000000000E+00 0. -1.
          1   -1    0    0  501    0 -0.00000000000E+00 -0.00000000000E+00 -0.35341917563E+02  0.35341917563E+02  0.00000000000E+00 0.  1.
          2    1    1    2  501    0 -0.19849957395E+02  0.26932769355E+02  0.15443877942E+03  0.15802130066E+03  0.00000000000E+00 0. -1.
          1    1    1    2  502    0  0.19849957395E+02 -0.26932769355E+02 -0.25209576799E+02  0.41891737086E+02  0.00000000000E+00 0.  1.
</event>
<event>
 4    1  0.3837333E+003  0.2448937E+02  0.7546771E-02  0.1474598E+00
          2   -1    0    0  502    0  0.00000000000E+00  0.00000000000E+00  0.17801050020E+01  0.17801050020E+01  0.00000000000E+00 0.  1.
          1   -1    0    0  501    0 -0.00000000000E+00 -0.00000000000E+00 -0.10328745843E+04  0.10328745843E+04  0.00000000000E+00 0.  1.
          2    1    1    2  501    0  0.95442099236E+01 -0.22552985030E+02 -0.90892203999E+02  0.94133531882E+02  0.00000000000E+00 0.  1.
          1    1    1    2  502    0 -0.95442099236E+01  0.22552985030E+02 -0.94020227525E+03  0.94052115738E+03  0.00000000000E+00 0.  1.
</event>
<event>
 4    1  0.3837333E+003  0.3895199E+02  0.7546771E-02  0.1354739E+00
          2   -1    0    0  502    0  0.00000000000E+00  0.00000000000E+00  0.55197929138E+03  0.55197929138E+03  0.00000000000E+00 0. -1.
          1   -1    0    0  501    0 -0.00000000000E+00 -0.00000000000E+00 -0.26628436963E+03  0.26628436963E+03  0.00000000000E+00 0. -1.
          2    1    1    2  501    0 -0.35024863434E+02  0.17044536434E+02  0.54986215335E+03  0.55124009739E+03  0.00000000000E+00 0. -1.
          1    1    1    2  502    0  0.35024863434E+02 -0.17044536434E+02 -0.26416723160E+03  0.26702356363E+03  0.00000000000E+00 0. -1.
</event>
<event>
 4    1  0.3837333E+003  0.2606474E+02  0.7546771E-02  0.1457236E+00
          2   -1    0    0  502    0  0.00000000000E+00  0.00000000000E+00  0.56562916558E+03  0.56562916558E+03  0.00000000000E+00 0.  1.
          1   -1    0    0  501    0 -0.00000000000E+00 -0.00000000000E+00 -0.22533485912E+02  0.22533485912E+02  0.00000000000E+00 0.  1.
          2    1    1    2  501    0 -0.98564128895E+01  0.24129269899E+02  0.55768422881E+03  0.55829299620E+03  0.00000000000E+00 0.  1.
          1    1    1    2  502    0  0.98564128895E+01 -0.24129269899E+02 -0.14588549146E+02  0.29869655289E+02  0.00000000000E+00 0.  1.
</event>
<event>
 4    1  0.3837333E+003  0.3318629E+02  0.7546771E-02  0.1393783E+00
          2   -1    0    0  502    0  0.00000000000E+00  0.00000000000E+00  0.86556506109E+02  0.86556506109E+02  0.00000000000E+00 0. -1.
          1   -1    0    0  501    0 -0.00000000000E+00 -0.00000000000E+00 -0.13483239773E+02  0.13483239773E+02  0.00000000000E+00 0.  1.
          2    1    1    2  501    0  0.31351000471E+02  0.10883227455E+02  0.48407566435E+02  0.58690905246E+02  0.00000000000E+00 0. -1.
          1    1    1    2  502    0 -0.31351000471E+02 -0.10883227455E+02  0.24665699901E+02  0.41348840637E+02  0.00000000000E+00 0.  1.
</event>
<event>
 4    1  0.3837333E+003  0.2115542E+02  0.7546771E-02  0.1517057E+00
          2   -1    0    0  502    0  0.00000000000E+00  0.00000000000E+00  0.57349558542E+03  0.57349558542E+03  0.00000000000E+00 0.  1.
          1   -1    0    0  501    0 -0.00000000000E+00 -0.00000000000E+00 -0.65530398969E+01  0.65530398969E+01  0.00000000000E+00 0.  1.
          2    1    1    2  501    0 -0.19118386754E+02  0.90575428586E+01  0.55567903564E+03  0.55608159694E+03  0.00000000000E+00 0.  1.
          1    1    1    2  502    0  0.19118386754E+02 -0.90575428586E+01  0.11263509880E+02  0.23967028384E+02  0.00000000000E+00 0.  1.
</event>
<event>
 4    1  0.4492938E+003  0.2012128E+02  0.7546771E-02  0.1532190E+00
          2   -1    0    0  502    0  0.00000000000E+00  0.00000000000E+00  0.52261650858E+03  0.52261650858E+03  0.00000000000E+00 0. -1.
          1   -1    0    0  501    0 -0.00000000000E+00 -0.00000000000E+00 -0.38752704151E+03  0.38752704151E+03  0.00000000000E+00 0.  1.
          2    1    1    2  501    0 -0.93369068636E+01  0.17823806953E+02  0.52216142287E+03  0.52254896178E+03  0.00000000000E+00 0. -1.
          1    1    1    2  502    0  0.93369068636E+01 -0.17823806953E+02 -0.38707195580E+03  0.38759458831E+03  0.00000000000E+00 0.  1.
</event>
<event>
 4    1  0.3837333E+003  0.2180091E+02  0.7546771E-02  0.1508130E+00
          2   -1    0    0  502    0  0.00000000000E+00  0.00000000000E+00  0.23311815605E+03  0.23311815605E+03  0.00000000000E+00 0. -1.
          1   -1    0    0  501    0 -0.00000000000E+00 -0.00000000000E+00 -0.76255622654E+01  0.76255622654E+01  0.00000000000E+00 0. -1.
          2    1    1    2  501    0  0.12796046662E+02 -0.17650524860E+02  0.21577764236E+03  0.21687616462E+03  0.00000000000E+00 0. -1.
          1    1    1    2  502    0 -0.12796046662E+02  0.17650524860E+02  0.97149514184E+01  0.23867553689E+02  0.00000000000E+00 0. -1.
</event>
<event>
 4    1  0.3837333E+003  0.2215892E+02  0.7546771E-02  0.1503339E+00
          2   -1    0    0  502    0  0.00000000000E+00  0.00000000000E+00  0.92337341909E+02  0.92337341909E+02  0.00000000000E+00 0.  1.
          1   -1    0    0  501    0 -0.00000000000E+00 -0.00000000000E+00 -0.51701373039E+02  0.51701373039E+02  0.00000000000E+00 0.  1.
          2    1    1    2  501    0 -0.21740785806E+02  0.42843850800E+01  0.88533160370E+02  0.91264112378E+02  0.00000000000E+00 0.  1.
          1    1    1    2  502    0  0.21740785806E+02 -0.42843850800E+01 -0.47897191499E+02  0.52774602570E+02  0.00000000000E+00 0.  1.
</event>
<event>
 4    1  0.3837333E+003  0.3200208E+02  0.7546771E-02  0.1402961E+00
          2   -1    0    0  502    0  0.00000000000E+00  0.00000000000E+00  0.15407483393E+04  0.15407483393E+04  0.00000000000E+00 0.  1.
          1   -1    0    0  501    0 -0.00000000000E+00 -0.00000000000E+00 -0.84020170836E+01  0.84020170836E+01  0.00000000000E+00 0.  1.
          2    1    1    2  501    0  0.26035161662E+02  0.18609222627E+02  0.15094781378E+04  0.15098173338E+04  0.00000000000E+00 0.  1.
          1    1    1    2  502    0 -0.26035161662E+02 -0.18609222627E+02  0.22868184383E+02  0.39333022595E+02  0.00000000000E+00 0.  1.
</event>
<event>
 4    1  0.3837333E+003  0.2058016E+02  0.7546771E-02  0.1525344E+00
          2   -1    0    0  502    0  0.00000000000E+00  0.00000000000E+00  0.12632349453E+04  0.12632349453E+04  0.00000000000E+00 0.  1.
          1   -1    0    0  501    0 -0.00000000000E+00 -0.00000000000E+00 -0.64041017322E+01  0.64041017322E+01  0.00000000000E+00 0. -1.
          2    1    1    2  501    0 -0.55567465256E+01  0.19815794700E+02  0.12463936735E+04  0.12465635693E+04  0.00000000000E+00 0.  1.
          1    1    1    2  502    0  0.55567465256E+01 -0.19815794700E+02  0.10437170125E+02  0.23075477714E+02  0.00000000000E+00 0. -1.
</event>
<event>
 4    1  0.3837333E+003  0.2248926E+02  0.7546771E-02  0.1499013E+00
          2   -1    0    0  502    0  0.00000000000E+00  0.00000000000E+00  0.34552211159E+03  0.34552211159E+03  0.00000000000E+00 0. -1.
          1   -1    0    0  501    0 -0.00000000000E+00 -0.00000000000E+00 -0.83003700840E+02  0.83003700840E+02  0.00000000000E+00 0.  1.
          2    1    1    2  501    0  0.21508424197E+02 -0.65692183212E+01  0.34362443752E+03  0.34435958097E+03  0.00000000000E+00 0. -1.
          1    1    1    2  502    0 -0.21508424197E+02  0.65692183212E+01 -0.81106026770E+02  0.84166231466E+02  0.00000000000E+00 0.  1.
</event>
<event>
 4    1  0.3837333E+003  0.2200842E+02  0.7546771E-02  0.1505339E+00
          2   -1    0    0  502    0  0.00000000000E+00  0.00000000000E+00  0.60283676593E+03  0.60283676593E+03  0.00000000000E+00 0. -1.
          1   -1    0    0  501    0 -0.00000000000E+00 -0.00000000000E+00 -0.24987199844E+02  0.24987199844E+02  0.00000000000E+00 0. -1.
          2    1    1    2  501    0  0.21496973630E+02  0.47170630747E+01  0.59774846880E+03  0.59815349411E+03  0.00000000000E+00 0. -1.
          1    1    1    2  502    0 -0.21496973630E+02 -0.47170630747E+01 -0.19898902718E+02  0.29670471662E+02  0.00000000000E+00 0. -1.
</event>
<event>
 4    1  0.3837333E+003  0.4793488E+02  0.7546771E-02  0.1307383E+00
          2   -1    0    0  502    0  0.00000000000E+00  0.00000000000E+00  0.27426735556E+04  0.27426735556E+04  0.00000000000E+00 0.  1.
          1   -1    0    0  501    0 -0.00000000000E+00 -0.00000000000E+00 -0.10995558721E+01  0.10995558721E+01  0.00000000000E+00 0.  1.
          2    1    1    2  501    0  0.22522803250E+02 -0.42314021983E+02  0.20401713350E+04  0.20407343848E+04  0.00000000000E+00 0.  1.
          1    1    1    2  502    0 -0.22522803250E+02  0.42314021983E+02  0.70140266478E+03  0.70303872673E+03  0.00000000000E+00 0.  1.
</event>
<event>
 4    1  0.3837333E+003  0.8623359E+02  0.7546771E-02  0.1190071E+00
          2   -1    0    0  502    0  0.00000000000E+00  0.00000000000E+00  0.57404461598E+03  0.57404461598E+03  0.00000000000E+00 0. -1.
          1   -1    0    0  501    0 -0.00000000000E+00 -0.00000000000E+00 -0.50655087021E+02  0.50655087021E+02  0.00000000000E+00 0.  1.
          2    1    1    2  501    0 -0.65768879847E+02  0.55773534124E+02  0.53116209372E+03  0.53811653242E+03  0.00000000000E+00 0. -1.
          1    1    1    2  502    0  0.65768879847E+02 -0.55773534124E+02 -0.77725647553E+01  0.86583170581E+02  0.00000000000E+00 0.  1.
</event>
<event>
 4    1  0.3837333E+003  0.2244713E+02  0.7546771E-02  0.1499560E+00
          2   -1    0    0  502    0  0.00000000000E+00  0.00000000000E+00  0.26827452068E+02  0.26827452068E+02  0.00000000000E+00 0. -1.
          1   -1    0    0  501    0 -0.00000000000E+00 -0.00000000000E+00 -0.21477070553E+02  0.21477070553E+02  0.00000000000E+00 0. -1.
          2    1    1    2  501    0 -0.12019109919E+02  0.18958216756E+02 -0.58805182239E+01  0.23204600415E+02  0.00000000000E+00 0. -1.
          1    1    1    2  502    0  0.12019109919E+02 -0.18958216756E+02  0.11230899738E+02  0.25099922206E+02  0.00000000000E+00 0. -1.
</event>
<event>
 4    1  0.3837333E+003  0.2631422E+02  0.7546771E-02  0.1454621E+00
          2   -1    0    0  502    0  0.00000000000E+00  0.00000000000E+00  0.25298566630E+03  0.25298566630E+03  0.00000000000E+00 0.  1.
          1   -1    0    0  501    0 -0.00000000000E+00 -0.00000000000E+00 -0.10195937171E+03  0.10195937171E+03  0.00000000000E+00 0.  1.
          2    1    1    2  501    0  0.26313642013E+02 -0.17455984348E+00  0.25058736636E+03  0.25196520872E+03  0.00000000000E+00 0.  1.
          1    1    1    2  502    0 -0.26313642013E+02  0.17455984348E+00 -0.99561071776E+02  0.10297982929E+03  0.00000000000E+00 0.  1.
</event>
<event>
 4    1  0.3837333E+003  0.2652096E+02  0.7546771E-02  0.1452480E+00
          2   -1    0    0  502    0  0.00000000000E+00  0.00000000000E+00  0.56795223169E+03  0.56795223169E+03  0.00000000000E+00 0. -1.
          1   -1    0    0  501    0 -0.00000000000E+00 -0.00000000000E+00 -0.16379929941E+01  0.16379929941E+01  0.00000000000E+00 0. -1.
          2    1    1    2  501    0  0.75310855880E+01  0.25429201497E+02  0.42381898039E+03  0.42464795970E+03  0.00000000000E+00 0. -1.
          1    1    1    2  502    0 -0.75310855880E+01 -0.25429201497E+02  0.14249525830E+03  0.14494226498E+03  0.00000000000E+00 0. -1.
</event>
<event>
 4    1  0.3837333E+003  0.2601870E+02  0.7546771E-02  0.1457722E+00
          2   -1    0    0  502    0  0.00000000000E+00  0.00000000000E+00  0.17233187118E+03  0.17233187118E+03  0.00000000000E+00 0.  1.
          1   -1    0    0  501    0 -0.00000000000E+00 -0.00000000000E+00 -0.11317055957E+02  0.11317055957E+02  0.00000000000E+00 0.  1.
          2    1    1    2  501    0 -0.25389131627E+02  0.56889876148E+01  0.15470282950E+03  0.15687554953E+03  0.00000000000E+00 0.  1.
          1    1    1    2  502    0  0.25389131627E+02 -0.56889876148E+01  0.63119857260E+01  0.26773377610E+02  0.00000000000E+00 0.  1.
</event>
<event>
 4    1  0.3837333E+003  0.2809165E+02  0.7546771E-02  0.1436940E+00
          2   -1    0    0  502    0  0.00000000000E+00  0.00000000000E+00  0.11118825534E+04  0.11118825534E+04  0.00000000000E+00 0. -1.
          1   -1    0    0  501    0 -0.00000000000E+00 -0.00000000000E+00 -0.24575734111E+01  0.24575734111E+01  0.00000000000E+00 0.  1.
          2    1    1    2  501    0 -0.26082929529E+02  0.10431760081E+02  0.10245906834E+04  0.10249757116E+04  0.00000000000E+00 0. -1.
          1    1    1    2  502    0  0.26082929529E+02 -0.10431760081E+02  0.84834296634E+02  0.89364415270E+02  0.00000000000E+00 0.  1.
</event>
<event>
 4    1  0.3837333E+003  0.4472206E+02  0.7546771E-02  0.1322835E+00
          2   -1    0    0  502    0  0.00000000000E+00  0.00000000000E+00  0.71117465420E+03  0.71117465420E+03  0.00000000000E+00 0. -1.
          1   -1    0    0  501    0 -0.00000000000E+00 -0.00000000000E+00 -0.47286815501E+02  0.47286815501E+02  0.00000000000E+00 0.  1.
          2    1    1    2  501    0  0.35233547095E+02  0.27543777150E+02  0.69972461329E+03  0.70115233505E+03  0.00000000000E+00 0. -1.
          1    1    1    2  502    0 -0.35233547095E+02 -0.27543777150E+02 -0.35836774596E+02  0.57309134648E+02  0.00000000000E+00 0.  1.
</event>
<event>
 4    1  0.3837333E+003  0.2199929E+02  0.7546771E-02  0.1505461E+00
          2   -1    0    0  502    0  0.00000000000E+00  0.00000000000E+00  0.44231395065E+03  0.44231395065E+03  0.00000000000E+00 0.  1.
          1   -1    0    0  501    0 -0.00000000000E+00 -0.00000000000E+00 -0.15138816636E+01  0.15138816636E+01  0.00000000000E+00 0. -1.
          2    1    1    2  501    0  0.18158047393E+02 -0.12419904018E+02  0.33724545600E+03  0.33796222614E+03  0.00000000000E+00 0.  1.
          1    1    1    2  502    0 -0.18158047393E+02  0.12419904018E+02  0.10355461298E+03  0.10586560618E+03  0.00000000000E+00 0. -1.
</event>
<event>
 4    1  0.3837333E+003  0.3273141E+02  0.7546771E-02  0.1397254E+00
          2   -1    0    0  502    0  0.00000000000E+00  0.00000000000E+00  0.39882460371E+03  0.39882460371E+03  0.00000000000E+00 0. -1.
          1   -1    0    0  501    0 -0.00000000000E+00 -0.00000000000E+00 -0.39498983545E+01  0.39498983545E+01  0.00000000000E+00 0. -1.
          2    1    1    2  501    0  0.33711431262E+01  0.32557344432E+02  0.31134449922E+03  0.31306028569E+03  0.00000000000E+00 0. -1.
          1    1    1    2  502    0 -0.33711431262E+01 -0.32557344432E+02  0.83530206137E+02  0.89714216375E+02  0.00000000000E+00 0. -1.
</event>
<event>
 4    1  0.3837333E+003  0.2339718E+02  0.7546771E-02  0.1487570E+00
          2   -1    0    0  502    0  0.00000000000E+00  0.00000000000E+00  0.59550460195E+03  0.59550460195E+03  0.00000000000E+00 0.  1.
          1   -1    0    0  501    0 -0.00000000000E+00 -0.00000000000E+00 -0.10456242906E+03  0.10456242906E+03  0.00000000000E+00 0. -1.
          2    1    1    2  501    0 -0.20317567257E+02  0.11602782815E+02  0.59396253355E+03  0.59442318206E+03  0.00000000000E+00 0.  1.
          1    1    1    2  502    0  0.20317567257E+02 -0.11602782815E+02 -0.10302036067E+03  0.10564384895E+03  0.00000000000E+00 0. -1.
</event>
<event>
 4    1  0.3837333E+003  0.2365887E+02  0.7546771E-02  0.1484386E+00
          2   -1    0    0  502    0  0.00000000000E+00  0.00000000000E+00  0.86385497778E+01  0.86385497778E+01  0.00000000000E+00 0.  1.
          1   -1    0    0  501    0 -0.00000000000E+00 -0.00000000000E+00 -0.13430200953E+03  0.13430200953E+03  0.00000000000E+00 0.  1.
          2    1    1    2  501    0  0.78558065992E+01  0.22316548677E+02 -0.11416010018E+02  0.26269132588E+02  0.00000000000E+00 0.  1.
          1    1    1    2  502    0 -0.78558065992E+01 -0.22316548677E+02 -0.11424744974E+03  0.11667142672E+03  0.00000000000E+00 0.  1.
</event>
<event>
 4    1  0.3837333E+003  0.4448241E+02  0.7546771E-02  0.1324048E+00
          2   -1    0    0  502    0  0.00000000000E+00  0.00000000000E+00  0.69091521806E+03  0.69091521806E+03  0.00000000000E+00 0. -1.
          1   -1    0    0  501    0 -0.00000000000E+00 -0.00000000000E+00 -0.15265142486E+03  0.15265142486E+03  0.00000000000E+00 0. -1.
          2    1    1    2  501    0 -0.42127398184E+02 -0.14281714748E+02  0.68693999167E+03  0.68837870188E+03  0.00000000000E+00 0. -1.
          1    1    1    2  502    0  0.42127398184E+02  0.14281714748E+02 -0.14867619846E+03  0.15518794103E+03  0.00000000000E+00 0. -1.
</event>
<event>
 4    1  0.3837333E+003  0.2002988E+02  0.7546771E-02  0.1533579E+00
          2   -1    0    0  502    0  0.00000000000E+00  0.00000000000E+00  0.31238259500E+03  0.31238259500E+03  0.00000000000E+00 0. -1.
          1   -1    0    0  501    0 -0.00000000000E+00 -0.00000000000E+00 -0.38458604012E+01  0.38458604012E+01  0.00000000000E+00 0. -1.
          2    1    1    2  501    0 -0.89013777483E+00  0.20010088477E+02  0.28330875946E+03  0.28401593120E+03  0.00000000000E+00 0. -1.
          1    1    1    2  502    0  0.89013777483E+00 -0.20010088477E+02  0.25227975139E+02  0.32212524206E+02  0.00000000000E+00 0. -1.
</event>
<event>
 4    1  0.3837333E+003  0.2055408E+02  0.7546771E-02  0.1525728E+00
          2   -1    0    0  502    0  0.00000000000E+00  0.00000000000E+00  0.56345542694E+02  0.56345542694E+02  0.00000000000E+00 0. -1.
          1   -1    0    0  501    0 -0.00000000000E+00 -0.00000000000E+00 -0.40407391500E+03  0.40407391500E+03  0.00000000000E+00 0.  1.
          2    1    1    2  501    0 -0.19365126920E+02  0.68892848422E+01  0.54199697511E+02  0.57966176315E+02  0.00000000000E+00 0. -1.
          1    1    1    2  502    0  0.19365126920E+02 -0.68892848422E+01 -0.40192806982E+03  0.40245328138E+03  0.00000000000E+00 0.  1.
</event>
<event>
 4    1  0.3837333E+003  0.2778696E+02  0.7546771E-02  0.1439859E+00
          2   -1    0    0  502    0  0.00000000000E+00  0.00000000000E+00  0.47394854549E+01  0.47394854549E+01  0.00000000000E+00 0.  1.
          1   -1    0    0  501    0 -0.00000000000E+00 -0.00000000000E+00 -0.16395162813E+03  0.16395162813E+03  0.00000000000E+00 0.  1.
          2    1    1    2  501    0  0.47982879584E+01 -0.27369528042E+02 -0.86325589584E+02  0.90687496655E+02  0.00000000000E+00 0.  1.
          1    1    1    2  502    0 -0.47982879584E+01  0.27369528042E+02 -0.72886553088E+02  0.78003616927E+02  0.00000000000E+00 0.  1.
</event>
<event>
 4    1  0.3837333E+003  0.4739127E+02  0.7546771E-02  0.1309897E+00
          2   -1    0    0  502    0  0.00000000000E+00  0.00000000000E+00  0.22827579887E+03  0.22827579887E+03  0.00000000000E+00 0. -1.
          1   -1    0    0  501    0 -0.00000000000E+00 -0.00000000000E+00 -0.34399287585E+02  0.34399287585E+02  0.00000000000E+00 0. -1.
          2    1    1    2  501    0 -0.36670701873E+02  0.30019860454E+02  0.20791544526E+03  0.21324812959E+03  0.00000000000E+00 0. -1.
          1    1    1    2  502    0  0.36670701873E+02 -0.30019860454E+02 -0.14038933975E+02  0.49426956862E+02  0.00000000000E+00 0. -1.
</event>
<event>
 4    1  0.3837333E+003  0.8927583E+02  0.7546771E-02  0.1183812E+00
          2   -1    0    0  502    0  0.00000000000E+00  0.00000000000E+00  0.70743877716E+01  0.70743877716E+01  0.00000000000E+00 0.  1.
          1   -1    0    0  501    0 -0.00000000000E+00 -0.00000000000E+00 -0.19057601285E+04  0.19057601285E+04  0.00000000000E+00 0.  1.
          2    1    1    2  501    0  0.89058003439E+02  0.62319566649E+01 -0.15608764974E+04  0.15634275184E+04  0.00000000000E+00 0.  1.
          1    1    1    2  502    0 -0.89058003439E+02 -0.62319566649E+01 -0.33780924335E+03  0.34940699786E+03  0.00000000000E+00 0.  1.
</event>
<event>
 4    1  0.3837333E+003  0.5810761E+02  0.7546771E-02  0.1266401E+00
          2   -1    0    0  502    0  0.00000000000E+00  0.00000000000E+00  0.17069465624E+04  0.17069465624E+04  0.00000000000E+00 0.  1.
          1   -1    0    0  501    0 -0.00000000000E+00 -0.00000000000E+00 -0.75633471286E+02  0.75633471286E+02  0.00000000000E+00 0.  1.
          2    1    1    2  501    0 -0.52638318618E+02  0.24611007396E+02  0.16952141057E+04  0.16962097036E+04  0.00000000000E+00 0.  1.
          1    1    1    2  502    0  0.52638318618E+02 -0.24611007396E+02 -0.63901014552E+02  0.86370330165E+02  0.00000000000E+00 0.  1.
</event>
<event>
 4    1  0.3837333E+003  0.4000051E+02  0.7546771E-02  0.1348483E+00
          2   -1    0    0  502    0  0.00000000000E+00  0.00000000000E+00  0.68996177849E+02  0.68996177849E+02  0.00000000000E+00 0.  1.
          1   -1    0    0  501    0 -0.00000000000E+00 -0.00000000000E+00 -0.41448995546E+02  0.41448995546E+02  0.00000000000E+00 0. -1.
          2    1    1    2  501    0 -0.77882255377E+00  0.39992923909E+02  0.50425354914E+02  0.64364252078E+02  0.00000000000E+00 0.  1.
          1    1    1    2  502    0  0.77882255377E+00 -0.39992923909E+02 -0.22878172611E+02  0.46080921317E+02  0.00000000000E+00 0. -1.
</event>
<event>
 4    1  0.3837333E+003  0.2047226E+02  0.7546771E-02  0.1526935E+00
          2   -1    0    0  502    0  0.00000000000E+00  0.00000000000E+00  0.10635951173E+04  0.10635951173E+04  0.00000000000E+00 0.  1.
          1   -1    0    0  501    0 -0.00000000000E+00 -0.00000000000E+00 -0.49046878201E+02  0.49046878201E+02  0.00000000000E+00 0. -1.
          2    1    1    2  501    0  0.19285765828E+02  0.68682394896E+01  0.10613558067E+04  0.10615532309E+04  0.00000000000E+00 0.  1.
          1    1    1    2  502    0 -0.19285765828E+02 -0.68682394896E+01 -0.46807567669E+02  0.51088764600E+02  0.00000000000E+00 0. -1.
</event>
<event>
 4    1  0.3837333E+003  0.2482476E+02  0.7546771E-02  0.1470773E+00
          2   -1    0    0  502    0  0.00000000000E+00  0.00000000000E+00  0.13015274105E+03  0.13015274105E+03  0.00000000000E+00 0.  1.
          1   -1    0    0  501    0 -0.00000000000E+00 -0.00000000000E+00 -0.86175044505E+01  0.86175044505E+01  0.00000000000E+00 0. -1.
          2    1    1    2  501    0 -0.24786772504E+02  0.13727348692E+01  0.10734055454E+03  0.11017378609E+03  0.00000000000E+00 0.  1.
          1    1    1    2  502    0  0.24786772504E+02 -0.13727348692E+01  0.14194682061E+02  0.28596459413E+02  0.00000000000E+00 0. -1.
</event>
<event>
 4    1  0.3837333E+003  0.2421823E+02  0.7546771E-02  0.1477742E+00
          2   -1    0    0  502    0  0.00000000000E+00  0.00000000000E+00  0.34124078896E+02  0.34124078896E+02  0.00000000000E+00 0.  1.
          1   -1    0    0  501    0 -0.00000000000E+00 -0.00000000000E+00 -0.23257847567E+03  0.23257847567E+03  0.00000000000E+00 0.  1.
          2    1    1    2  501    0  0.21756208304E+01  0.24120314098E+02  0.29102070646E+02  0.37860974553E+02  0.00000000000E+00 0.  1.
          1    1    1    2  502    0 -0.21756208304E+01 -0.24120314098E+02 -0.22755646742E+03  0.22884158001E+03  0.00000000000E+00 0.  1.
</event>
<event>
 4    1  0.3837333E+003  0.2068327E+02  0.7546771E-02  0.1523835E+00
          2   -1    0    0  502    0  0.00000000000E+00  0.00000000000E+00  0.90101856242E+03  0.90101856242E+03  0.00000000000E+00 0. -1.
          1   -1    0    0  501    0 -0.00000000000E+00 -0.00000000000E+00 -0.76089552464E+01  0.76089552464E+01  0.00000000000E+00 0.  1.
          2    1    1    2  501    0  0.16913490334E+02 -0.11905108910E+02  0.88661583216E+03  0.88685705253E+03  0.00000000000E+00 0. -1.
          1    1    1    2  502    0 -0.16913490334E+02  0.11905108910E+02  0.67937750087E+01  0.21770465138E+02  0.00000000000E+00 0.  1.
</event>
<event>
 4    1  0.3837333E+003  0.2082011E+02  0.7546771E-02  0.1521849E+00
          2   -1    0    0  502    0  0.00000000000E+00  0.00000000000E+00  0.53512375318E+00  0.53512375318E+00  0.00000000000E+00 0.  1.
          1   -1    0    0  501    0 -0.00000000000E+00 -0.00000000000E+00 -0.84323808659E+03  0.84323808659E+03  0.00000000000E+00 0.  1.
          2    1    1    2  501    0  0.18196622034E+02 -0.10117302609E+02 -0.33765381773E+03  0.33829510416E+03  0.00000000000E+00 0.  1.
          1    1    1    2  502    0 -0.18196622034E+02  0.10117302609E+02 -0.50504914511E+03  0.50547810619E+03  0.00000000000E+00 0.  1.
</event>
<event>
 4    1  0.3837333E+003  0.2112038E+02  0.7546771E-02  0.1517553E+00
          2   -1    0    0  502    0  0.00000000000E+00  0.00000000000E+00  0.24257134626E+02  0.24257134626E+02  0.00000000000E+00 0.  1.
          1   -1    0    0  501    0 -0.00000000000E+00 -0.00000000000E+00 -0.66688356790E+03  0.66688356790E+03  0.00000000000E+00 0.  1.
          2    1    1    2  501    0  0.20046738401E+02 -0.66482280346E+01  0.19459292327E+02  0.28718194832E+02  0.00000000000E+00 0.  1.
          1    1    1    2  502    0 -0.20046738401E+02  0.66482280346E+01 -0.66208572560E+03  0.66242250770E+03  0.00000000000E+00 0.  1.
</event>
<event>
 4    1  0.3837333E+003  0.2021247E+02  0.7546771E-02  0.1530812E+00
          2   -1    0    0  502    0  0.00000000000E+00  0.00000000000E+00  0.51496820312E+03  0.51496820312E+03  0.00000000000E+00 0. -1.
          1   -1    0    0  501    0 -0.00000000000E+00 -0.00000000000E+00 -0.16211425290E+01  0.16211425290E+01  0.00000000000E+00 0. -1.
          2    1    1    2  501    0 -0.20199971796E+02 -0.71081633103E+00  0.44124671595E+03  0.44170941631E+03  0.00000000000E+00 0. -1.
          1    1    1    2  502    0  0.20199971796E+02  0.71081633103E+00  0.72100344636E+02  0.74879929334E+02  0.00000000000E+00 0. -1.
</event>
<event>
 4    1  0.3837333E+003  0.3526810E+02  0.7546771E-02  0.1378688E+00
          2   -1    0    0  502    0  0.00000000000E+00  0.00000000000E+00  0.23319835205E+04  0.23319835205E+04  0.00000000000E+00 0.  1.
          1   -1    0    0  501    0 -0.00000000000E+00 -0.00000000000E+00 -0.13210102540E+03  0.13210102540E+03  0.00000000000E+00 0. -1.
          2    1    1    2  501    0  0.17108380876E+01  0.35226581803E+02  0.23294937050E+04  0.23297606659E+04  0.00000000000E+00 0.  1.
          1    1    1    2  502    0 -0.17108380876E+01 -0.35226581803E+02 -0.12961120982E+03  0.13432388002E+03  0.00000000000E+00 0. -1.
</event>
<event>
 4    1  0.3837333E+003  0.3958673E+02  0.7546771E-02  0.1350925E+00
          2   -1    0    0  502    0  0.00000000000E+00  0.00000000000E+00  0.18406123772E+02  0.18406123772E+02  0.00000000000E+00 0.  1.
          1   -1    0    0  501    0 -0.00000000000E+00 -0.00000000000E+00 -0.11229645563E+03  0.11229645563E+03  0.00000000000E+00 0. -1.
          2    1    1    2  501    0 -0.32323118245E+02  0.22854441916E+02 -0.14808381439E+02  0.42265797629E+02  0.00000000000E+00 0.  1.
          1    1    1    2  502    0  0.32323118245E+02 -0.22854441916E+02 -0.79081950424E+02  0.88436781778E+02  0.00000000000E+00 0. -1.
</event>
<event>
 4    1  0.3837333E+003  0.2767672E+02  0.7546771E-02  0.1440926E+00
          2   -1    0    0  502    0  0.00000000000E+00  0.00000000000E+00  0.26429174239E+02  0.26429174239E+02  0.00000000000E+00 0. -1.
          1   -1    0    0  501    0 -0.00000000000E+00 -0.00000000000E+00 -0.73972675403E+03  0.73972675403E+03  0.00000000000E+00 0.  1.
          2    1    1    2  501    0  0.45499164210E+01 -0.27300165306E+02  0.18849520452E+02  0.33485895336E+02  0.00000000000E+00 0. -1.
          1    1    1    2  502    0 -0.45499164210E+01  0.27300165306E+02 -0.73214710025E+03  0.73267003294E+03  0.00000000000E+00 0.  1.
</event>
<event>
 4    1  0.3837333E+003  0.2842839E+02  0.7546771E-02  0.1433764E+00
          2   -1    0    0  502    0  0.00000000000E+00  0.00000000000E+00  0.28905680710E+03  0.28905680710E+03  0.00000000000E+00 0.  1.
          1   -1    0    0  501    0 -0.00000000000E+00 -0.00000000000E+00 -0.51902157687E+01  0.51902157687E+01  0.00000000000E+00 0.  1.
          2    1    1    2  501    0 -0.59010766567E+01  0.27809167740E+02  0.42006829094E+02  0.50722245678E+02  0.00000000000E+00 0.  1.
          1    1    1    2  502    0  0.59010766567E+01 -0.27809167740E+02  0.24185976224E+03  0.24352477719E+03  0.00000000000E+00 0.  1.
</event>
<event>
 4    1  0.5523657E+003  0.3372231E+02  0.7546771E-02  0.1389775E+00
          2   -1    0    0  502    0  0.00000000000E+00  0.00000000000E+00  0.13092762246E+04  0.13092762246E+04  0.00000000000E+00 0. -1.
          1   -1    0    0  501    0 -0.00000000000E+00 -0.00000000000E+00 -0.57839639196E+03  0.57839639196E+03  0.00000000000E+00 0.  1.
          2    1    1    2  501    0  0.18993938260E+02  0.27864389883E+02  0.13085672878E+04  0.13090017344E+04  0.00000000000E+00 0. -1.
          1    1    1    2  502    0 -0.18993938260E+02 -0.27864389883E+02 -0.57768745521E+03  0.57867088213E+03  0.00000000000E+00 0.  1.
</event>
<event>
 4    1  0.3837333E+003  0.2172895E+02  0.7546771E-02  0.1509107E+00
          2   -1    0    0  502    0  0.00000000000E+00  0.00000000000E+00  0.41182921792E+03  0.41182921792E+03  0.00000000000E+00 0. -1.
          1   -1    0    0  501    0 -0.00000000000E+00 -0.00000000000E+00 -0.14420007720E+01  0.14420007720E+01  0.00000000000E+00 0. -1.
          2    1    1    2  501    0 -0.17012740711E+02 -0.13517175264E+02  0.29874024563E+03  0.29952943383E+03  0.00000000000E+00 0. -1.
          1    1    1    2  502    0  0.17012740711E+02  0.13517175264E+02  0.11164697152E+03  0.11374178486E+03  0.00000000000E+00 0. -1.
</event>
<event>
 4    1  0.3837333E+003  0.5447880E+02  0.7546771E-02  0.1279840E+00
          2   -1    0    0  502    0  0.00000000000E+00  0.00000000000E+00  0.22283002349E+02  0.22283002349E+02  0.00000000000E+00 0.  1.
          1   -1    0    0  501    0 -0.00000000000E+00 -0.00000000000E+00 -0.14096521250E+03  0.14096521250E+03  0.00000000000E+00 0.  1.
          2    1    1    2  501    0 -0.30482301477E+02 -0.45152731250E+02 -0.40174953651E+02  0.67690226352E+02  0.00000000000E+00 0.  1.
          1    1    1    2  502    0  0.30482301477E+02  0.45152731250E+02 -0.78507256497E+02  0.95557988496E+02  0.00000000000E+00 0.  1.
</event>
<event>
 4    1  0.3837333E+003  0.5679740E+02  0.7546771E-02  0.1271120E+00
          2   -1    0    0  502    0  0.00000000000E+00  0.00000000000E+00  0.73559777600E+02  0.73559777600E+02  0.00000000000E+00 0.  1.
          1   -1    0    0  501    0 -0.00000000000E+00 -0.00000000000E+00 -0.23229938541E+03  0.23229938541E+03  0.00000000000E+00 0. -1.
          2    1    1    2  501    0  0.27231944289E+02  0.49843414909E+02  0.58369972100E+02  0.81443222202E+02  0.00000000000E+00 0.  1.
          1    1    1    2  502    0 -0.27231944289E+02 -0.49843414909E+02 -0.21710957991E+03  0.22441594081E+03  0.00000000000E+00 0. -1.
</event>
<event>
 4    1  0.3837333E+003  0.2021395E+02  0.7546771E-02  0.1530790E+00
          2   -1    0    0  502    0  0.00000000000E+00  0.00000000000E+00  0.17339057549E+01  0.17339057549E+01  0.00000000000E+00 0.  1.
          1   -1    0    0  501    0 -0.00000000000E+00 -0.00000000000E+00 -0.27793312772E+03  0.27793312772E+03  0.00000000000E+00 0. -1.
          2    1    1    2  501    0  0.10554062375E+02  0.17239938726E+02 -0.83561696800E+02  0.85971861048E+02  0.00000000000E+00 0.  1.
          1    1    1    2  502    0 -0.10554062375E+02 -0.17239938726E+02 -0.19263752517E+03  0.19369517243E+03  0.00000000000E+00 0. -1.
</event>
<event>
 4    1  0.3837333E+003  0.2708217E+02  0.7546771E-02  0.1446784E+00
          2   -1    0    0  502    0  0.00000000000E+00  0.00000000000E+00  0.19392474478E+01  0.19392474478E+01  0.00000000000E+00 0.  1.
          1   -1    0    0  501    0 -0.00000000000E+00 -0.00000000000E+00 -0.42912570300E+03  0.42912570300E+03  0.00000000000E+00 0.  1.
          2    1    1    2  501    0 -0.14135604086E+01 -0.27045253934E+02 -0.13935222554E+03  0.14195945434E+03  0.00000000000E+00 0.  1.
          1    1    1    2  502    0  0.14135604086E+01  0.27045253934E+02 -0.28783423002E+03  0.28910549611E+03  0.00000000000E+00 0.  1.
</event>
<event>
 4    1  0.3837333E+003  0.3493996E+02  0.7546771E-02  0.1380986E+00
          2   -1    0    0  502    0  0.00000000000E+00  0.00000000000E+00  0.21303880123E+04  0.21303880123E+04  0.00000000000E+00 0.  1.
          1   -1    0    0  501    0 -0.00000000000E+00 -0.00000000000E+00 -0.48841367306E+01  0.48841367306E+01  0.00000000000E+00 0.  1.
          2    1    1    2  501    0  0.89802811032E+01  0.33766188411E+02  0.20658032187E+04  0.20660986761E+04  0.00000000000E+00 0.  1.
          1    1    1    2  502    0 -0.89802811032E+01 -0.33766188411E+02  0.59700656858E+02  0.69173472934E+02  0.00000000000E+00 0.  1.
</event>
<event>
 4    1  0.3837333E+003  0.2313955E+02  0.7546771E-02  0.1490753E+00
          2   -1    0    0  502    0  0.00000000000E+00  0.00000000000E+00  0.20348494904E+04  0.20348494904E+04  0.00000000000E+00 0. -1.
          1   -1    0    0  501    0 -0.00000000000E+00 -0.00000000000E+00 -0.38744386268E+00  0.38744386268E+00  0.00000000000E+00 0. -1.
          2    1    1    2  501    0 -0.22933881357E+02 -0.30782593847E+01  0.15936429296E+04  0.15938109128E+04  0.00000000000E+00 0. -1.
          1    1    1    2  502    0  0.22933881357E+02  0.30782593847E+01  0.44081911685E+03  0.44142602141E+03  0.00000000000E+00 0. -1.
</event>
<event>
 4    1  0.3837333E+003  0.2250810E+02  0.7546771E-02  0.1498769E+00
          2   -1    0    0  502    0  0.00000000000E+00  0.00000000000E+00  0.51296373682E+03  0.51296373682E+03  0.00000000000E+00 0. -1.
          1   -1    0    0  501    0 -0.00000000000E+00 -0.00000000000E+00 -0.28825270763E+01  0.28825270763E+01  0.00000000000E+00 0.  1.
          2    1    1    2  501    0  0.16816712384E+02 -0.14960367397E+02  0.46416143547E+03  0.46470684586E+03  0.00000000000E+00 0. -1.
          1    1    1    2  502    0 -0.16816712384E+02  0.14960367397E+02  0.45919774268E+02  0.51139418034E+02  0.00000000000E+00 0.  1.
</event>
<event>
 4    1  0.3837333E+003  0.2689209E+02  0.7546771E-02  0.1448695E+00
          2   -1    0    0  502    0  0.00000000000E+00  0.00000000000E+00  0.50023713629E+03  0.50023713629E+03  0.00000000000E+00 0. -1.
          1   -1    0    0  501    0 -0.00000000000E+00 -0.00000000000E+00 -0.52625951864E+01  0.52625951864E+01  0.00000000000E+00 0. -1.
          2    1    1    2  501    0  0.11090513982E+02  0.24498672494E+02  0.46273918408E+03  0.46351994233E+03  0.00000000000E+00 0. -1.
          1    1    1    2  502    0 -0.11090513982E+02 -0.24498672494E+02  0.32235357023E+02  0.41979789146E+02  0.00000000000E+00 0. -1.
</event>
<event>
 4    1  0.3837333E+003  0.5487658E+02  0.7546771E-02  0.1278309E+00
          2   -1    0    0  502    0  0.00000000000E+00  0.00000000000E+00  0.53574371850E+02  0.53574371850E+02  0.00000000000E+00 0.  1.
          1   -1    0    0  501    0 -0.00000000000E+00 -0.00000000000E+00 -0.56329291545E+02  0.56329291545E+02  0.00000000000E+00 0.  1.
          2    1    1    2  501    0 -0.49739346936E+02  0.23182607846E+02 -0.39022324024E+01  0.55015119357E+02  0.00000000000E+00 0.  1.
          1    1    1    2  502    0  0.49739346936E+02 -0.23182607846E+02  0.11473127068E+01  0.54888544038E+02  0.00000000000E+00 0.  1.
</event>
<event>
 4    1  0.3837333E+003  0.2502018E+02  0.7546771E-02  0.1468578E+00
          2   -1    0    0  502    0  0.00000000000E+00  0.00000000000E+00  0.12150102209E+02  0.12150102209E+02  0.00000000000E+00 0. -1.
          1   -1    0    0  501    0 -0.00000000000E+00 -0.00000000000E+00 -0.39342244484E+03  0.39342244484E+03  0.00000000000E+00 0.  1.
          2    1    1    2  501    0  0.22964411142E+02 -0.99320185535E+01 -0.15942100473E+01  0.25070912973E+02  0.00000000000E+00 0. -1.
          1    1    1    2  502    0 -0.22964411142E+02  0.99320185535E+01 -0.37967813259E+03  0.38050163408E+03  0.00000000000E+00 0.  1.
</event>
<event>
 4    1  0.3837333E+003  0.2132395E+02  0.7546771E-02  0.1514690E+00
          2   -1    0    0  502    0  0.00000000000E+00  0.00000000000E+00  0.94475946499E+02  0.94475946499E+02  0.00000000000E+00 0.  1.
          1   -1    0    0  501    0 -0.00000000000E+00 -0.00000000000E+00 -0.21055831801E+02  0.21055831801E+02  0.00000000000E+00 0.  1.
          2    1    1    2  501    0 -0.15704684519E+01  0.21266036959E+02  0.87446080421E+02  0.90008486711E+02  0.00000000000E+00 0.  1.
          1    1    1    2  502    0  0.15704684519E+01 -0.21266036959E+02 -0.14025965722E+02  0.25523291589E+02  0.00000000000E+00 0.  1.
</event>
<event>
 4    1  0.3837333E+003  0.2179187E+02  0.7546771E-02  0.1508253E+00
          2   -1    0    0  502    0  0.00000000000E+00  0.00000000000E+00  0.36041767699E+02  0.36041767699E+02  0.00000000000E+00 0.  1.
          1   -1    0    0  501    0 -0.00000000000E+00 -0.00000000000E+00 -0.46302485292E+02  0.46302485292E+02  0.00000000000E+00 0.  1.
          2    1    1    2  501    0 -0.20962332663E+02  0.59553421318E+01  0.29694469193E+02  0.36832689167E+02  0.00000000000E+00 0.  1.
          1    1    1    2  502    0  0.20962332663E+02 -0.59553421318E+01 -0.39955186786E+02  0.45511563824E+02  0.00000000000E+00 0.  1.
</event>
<event>
 4    1  0.3837333E+003  0.2017581E+02  0.7546771E-02  0.1531365E+00
          2   -1    0    0  502    0  0.00000000000E+00  0.00000000000E+00  0.14044681953E+03  0.14044681953E+03  0.00000000000E+00 0. -1.
          1   -1    0    0  501    0 -0.00000000000E+00 -0.00000000000E+00 -0.52612834626E+03  0.52612834626E+03  0.00000000000E+00 0. -1.
          2    1    1    2  501    0 -0.51513741378E+01 -0.19507090369E+02  0.13952754176E+03  0.14097871521E+03  0.00000000000E+00 0. -1.
          1    1    1    2  502    0  0.51513741378E+01  0.19507090369E+02 -0.52520906850E+03  0.52559645058E+03  0.00000000000E+00 0. -1.
</event>
<event>
 4    1  0.3837333E+003  0.2025169E+02  0.7546771E-02  0.1530222E+00
          2   -1    0    0  502    0  0.00000000000E+00  0.00000000000E+00  0.66410485678E+03  0.66410485678E+03  0.00000000000E+00 0. -1.
          1   -1    0    0  501    0 -0.00000000000E+00 -0.00000000000E+00 -0.47504933075E+01  0.47504933075E+01  0.00000000000E+00 0. -1.
          2    1    1    2  501    0 -0.13186492014E+02 -0.15370335525E+02  0.64161035492E+03  0.64192988583E+03  0.00000000000E+00 0. -1.
          1    1    1    2  502    0  0.13186492014E+02  0.15370335525E+02  0.17744008553E+02  0.26925464254E+02  0.00000000000E+00 0. -1.
</event>
<event>
 4    1  0.3837333E+003  0.3442726E+02  0.7546771E-02  0.1384635E+00
          2   -1    0    0  502    0  0.00000000000E+00  0.00000000000E+00  0.62272225902E+01  0.62272225902E+01  0.00000000000E+00 0.  1.
          1   -1    0    0  501    0 -0.00000000000E+00 -0.00000000000E+00 -0.50303872733E+03  0.50303872733E+03  0.00000000000E+00 0.  1.
          2    1    1    2  501    0 -0.27262715115E+02  0.21023327722E+02 -0.47643080063E+02  0.58780090352E+02  0.00000000000E+00 0.  1.
          1    1    1    2  502    0  0.27262715115E+02 -0.21023327722E+02 -0.44916842468E+03  0.45048585957E+03  0.00000000000E+00 0.  1.
</event>
<event>
 4    1  0.3837333E+003  0.2371039E+02  0.7546771E-02  0.1483765E+00
          2   -1    0    0  502    0  0.00000000000E+00  0.00000000000E+00  0.10098582633E+03  0.10098582633E+03  0.00000000000E+00 0. -1.
          1   -1    0    0  501    0 -0.00000000000E+00 -0.00000000000E+00 -0.48615019668E+03  0.48615019668E+03  0.00000000000E+00 0.  1.
          2    1    1    2  501    0 -0.15158034474E+02  0.18232300018E+02  0.99300150582E+02  0.10209163863E+03  0.00000000000E+00 0. -1.
          1    1    1    2  502    0  0.15158034474E+02 -0.18232300018E+02 -0.48446452094E+03  0.48504438438E+03  0.00000000000E+00 0.  1.
</event>
<event>
 4    1  0.3837333E+003  0.2861012E+02  0.7546771E-02  0.1432072E+00
          2   -1    0    0  502    0  0.00000000000E+00  0.00000000000E+00  0.27275101458E+03  0.27275101458E+03  0.00000000000E+00 0. -1.
          1   -1    0    0  501    0 -0.00000000000E+00 -0.00000000000E+00 -0.34647436236E+01  0.34647436236E+01  0.00000000000E+00 0.  1.
          2    1    1    2  501    0 -0.77324887438E+01 -0.27545376655E+02  0.18516727642E+03  0.18736450949E+03  0.00000000000E+00 0. -1.
          1    1    1    2  502    0  0.77324887438E+01  0.27545376655E+02  0.84118994534E+02  0.88851248717E+02  0.00000000000E+00 0.  1.
</event>
<event>
 4    1  0.3837333E+003  0.3769482E+02  0.7546771E-02  0.1362551E+00
          2   -1    0    0  502    0  0.00000000000E+00  0.00000000000E+00  0.69462638764E+02  0.69462638764E+02  0.00000000000E+00 0. -1.
          1   -1    0    0  501    0 -0.00000000000E+00 -0.00000000000E+00 -0.25718136842E+02  0.25718136842E+02  0.00000000000E+00 0. -1.
          2    1    1    2  501    0  0.29087851364E+02  0.23974908061E+02  0.43399941767E+02  0.57484382739E+02  0.00000000000E+00 0. -1.
          1    1    1    2  502    0 -0.29087851364E+02 -0.23974908061E+02  0.34456015533E+00  0.37696392867E+02  0.00000000000E+00 0. -1.
</event>
<event>
 4    1  0.3837333E+003  0.2082497E+02  0.7546771E-02  0.1521779E+00
          2   -1    0    0  502    0  0.00000000000E+00  0.00000000000E+00  0.28357675506E+02  0.28357675506E+02  0.00000000000E+00 0.  1.
          1   -1    0    0  501    0 -0.00000000000E+00 -0.00000000000E+00 -0.13261341675E+03  0.13261341675E+03  0.00000000000E+00 0. -1.
          2    1    1    2  501    0  0.17236638437E+02 -0.11686648810E+02  0.23574695335E+02  0.31455456207E+02  0.00000000000E+00 0.  1.
          1    1    1    2  502    0 -0.17236638437E+02  0.11686648810E+02 -0.12783043658E+03  0.12951563605E+03  0.00000000000E+00 0. -1.
</event>
<event>
 4    1  0.3837333E+003  0.2026117E+02  0.7546771E-02  0.1530080E+00
          2   -1    0    0  502    0  0.00000000000E+00  0.00000000000E+00  0.13143285849E+02  0.13143285849E+02  0.00000000000E+00 0. -1.
          1   -1    0    0  501    0 -0.00000000000E+00 -0.00000000000E+00 -0.14759073946E+04  0.14759073946E+04  0.00000000000E+00 0.  1.
          2    1    1    2  501    0  0.59881100297E+01 -0.19356077478E+02  0.52231651170E+01  0.20923590774E+02  0.00000000000E+00 0. -1.
          1    1    1    2  502    0 -0.59881100297E+01  0.19356077478E+02 -0.14679872739E+04  0.14681270897E+04  0.00000000000E+00 0.  1.
</event>
<event>
 4    1  0.3837333E+003  0.4030560E+02  0.7546771E-02  0.1346704E+00
          2   -1    0    0  502    0  0.00000000000E+00  0.00000000000E+00  0.10768437040E+03  0.10768437040E+03  0.00000000000E+00 0.  1.
          1   -1    0    0  501    0 -0.00000000000E+00 -0.00000000000E+00 -0.34121138237E+02  0.34121138237E+02  0.00000000000E+00 0. -1.
          2    1    1    2  501    0 -0.97986918339E+01  0.39096376873E+02  0.89739157970E+02  0.98375085868E+02  0.00000000000E+00 0.  1.
          1    1    1    2  502    0  0.97986918339E+01 -0.39096376873E+02 -0.16175925807E+02  0.43430422770E+02  0.00000000000E+00 0. -1.
</event>
<event>
 4    1  0.3837333E+003  0.2186152E+02  0.7546771E-02  0.1507311E+00
          2   -1    0    0  502    0  0.00000000000E+00  0.00000000000E+00  0.11738841780E+04  0.11738841780E+04  0.00000000000E+00 0.  1.
          1   -1    0    0  501    0 -0.00000000000E+00 -0.00000000000E+00 -0.12993387501E+01  0.12993387501E+01  0.00000000000E+00 0.  1.
          2    1    1    2  501    0  0.21855866980E+02  0.49725593950E+00  0.10732007173E+04  0.10734233581E+04  0.00000000000E+00 0.  1.
          1    1    1    2  502    0 -0.21855866980E+02 -0.49725593950E+00  0.99384121965E+02  0.10176015863E+03  0.00000000000E+00 0.  1.
</event>
<event>
 4    1  0.3837333E+003  0.2351070E+02  0.7546771E-02  0.1486183E+00
          2   -1    0    0  502    0  0.00000000000E+00  0.00000000000E+00  0.15805261653E+02  0.15805261653E+02  0.00000000000E+00 0. -1.
          1   -1    0    0  501    0 -0.00000000000E+00 -0.00000000000E+00 -0.16417484094E+03  0.16417484094E+03  0.00000000000E+00 0. -1.
          2    1    1    2  501    0 -0.31460380019E+01  0.23299254334E+02  0.56470317864E+01  0.24179366734E+02  0.00000000000E+00 0. -1.
          1    1    1    2  502    0  0.31460380019E+01 -0.23299254334E+02 -0.15401661108E+03  0.15580073586E+03  0.00000000000E+00 0. -1.
</event>
<event>
 4    1  0.3837333E+003  0.2066310E+02  0.7546771E-02  0.1524130E+00
          2   -1    0    0  502    0  0.00000000000E+00  0.00000000000E+00  0.95199225024E+03  0.95199225024E+03  0.00000000000E+00 0. -1.
          1   -1    0    0  501    0 -0.00000000000E+00 -0.00000000000E+00 -0.35875498851E+01  0.35875498851E+01  0.00000000000E+00 0.  1.
          2    1    1    2  501    0  0.12702458687E+02  0.16297578751E+02  0.92113024552E+03  0.92136197705E+03  0.00000000000E+00 0. -1.
          1    1    1    2  502    0 -0.12702458687E+02 -0.16297578751E+02  0.27274454829E+02  0.34217823076E+02  0.00000000000E+00 0.  1.
</event>
<event>
 4    1  0.3837333E+003  0.3026410E+02  0.7546771E-02  0.1417315E+00
          2   -1    0    0  502    0  0.00000000000E+00  0.00000000000E+00  0.92866723025E+03  0.92866723025E+03  0.00000000000E+00 0. -1.
          1   -1    0    0  501    0 -0.00000000000E+00 -0.00000000000E+00 -0.14956824494E+02  0.14956824494E+02  0.00000000000E+00 0.  1.
          2    1    1    2  501    0  0.25394574357E+02 -0.16463033704E+02  0.91284606867E+03  0.91334761235E+03  0.00000000000E+00 0. -1.
          1    1    1    2  502    0 -0.25394574357E+02  0.16463033704E+02  0.86433707958E+00  0.30276442395E+02  0.00000000000E+00 0.  1.
</event>
<event>
 4    1  0.3837333E+003  0.5312127E+02  0.7546771E-02  0.1285179E+00
          2   -1    0    0  502    0  0.00000000000E+00  0.00000000000E+00  0.48631928733E+03  0.48631928733E+03  0.00000000000E+00 0. -1.
          1   -1    0    0  501    0 -0.00000000000E+00 -0.00000000000E+00 -0.75139691097E+02  0.75139691097E+02  0.00000000000E+00 0.  1.
          2    1    1    2  501    0 -0.52605341259E+02  0.73856368721E+01  0.47526216234E+03  0.47822169808E+03  0.00000000000E+00 0. -1.
          1    1    1    2  502    0  0.52605341259E+02 -0.73856368721E+01 -0.64082566107E+02  0.83237280349E+02  0.00000000000E+00 0.  1.
</event>
<event>
 4    1  0.3837333E+003  0.3614290E+02  0.7546771E-02  0.1372701E+00
          2   -1    0    0  502    0  0.00000000000E+00  0.00000000000E+00  0.80025998970E+00  0.80025998970E+00  0.00000000000E+00 0.  1.
          1   -1    0    0  501    0 -0.00000000000E+00 -0.00000000000E+00 -0.20674177625E+04  0.20674177625E+04  0.00000000000E+00 0.  1.
          2    1    1    2  501    0  0.85972091378E+01 -0.35105501623E+02 -0.15076908027E+04  0.15081239554E+04  0.00000000000E+00 0.  1.
          1    1    1    2  502    0 -0.85972091378E+01  0.35105501623E+02 -0.55892669985E+03  0.56009406714E+03  0.00000000000E+00 0.  1.
</event>
<event>
 4    1  0.3837333E+003  0.2577266E+02  0.7546771E-02  0.1460342E+00
          2   -1    0    0  502    0  0.00000000000E+00  0.00000000000E+00  0.24477878393E+04  0.24477878393E+04  0.00000000000E+00 0. -1.
          1   -1    0    0  501    0 -0.00000000000E+00 -0.00000000000E+00 -0.27154880568E+00  0.27154880568E+00  0.00000000000E+00 0. -1.
          2    1    1    2  501    0  0.23555096763E+02 -0.10458837894E+02  0.12560978287E+04  0.12563622030E+04  0.00000000000E+00 0. -1.
          1    1    1    2  502    0 -0.23555096763E+02  0.10458837894E+02  0.11914184618E+04  0.11916971851E+04  0.00000000000E+00 0. -1.
</event>
<event>
 4    1  0.3837333E+003  0.2575614E+02  0.7546771E-02  0.1460519E+00
          2   -1    0    0  502    0  0.00000000000E+00  0.00000000000E+00  0.79726529162E+00  0.79726529162E+00  0.00000000000E+00 0.  1.
          1   -1    0    0  501    0 -0.00000000000E+00 -0.00000000000E+00 -0.96264660392E+03  0.96264660392E+03  0.00000000000E+00 0.  1.
          2    1    1    2  501    0 -0.12830619537E+02  0.22332801984E+02 -0.30350605296E+03  0.30459695176E+03  0.00000000000E+00 0.  1.
          1    1    1    2  502    0  0.12830619537E+02 -0.22332801984E+02 -0.65834328567E+03  0.65884691745E+03  0.00000000000E+00 0.  1.
</event>
<event>
 4    1  0.3837333E+003  0.2577462E+02  0.7546771E-02  0.1460321E+00
          2   -1    0    0  502    0  0.00000000000E+00  0.00000000000E+00  0.15672373237E+04  0.15672373237E+04  0.00000000000E+00 0.  1.
          1   -1    0    0  501    0 -0.00000000000E+00 -0.00000000000E+00 -0.28698177291E+01  0.28698177291E+01  0.00000000000E+00 0.  1.
          2    1    1    2  501    0 -0.11003732678E+02  0.23307702561E+02  0.15069437845E+04  0.15071641918E+04  0.00000000000E+00 0.  1.
          1    1    1    2  502    0  0.11003732678E+02 -0.23307702561E+02  0.57423721456E+02  0.62942949703E+02  0.00000000000E+00 0.  1.
</event>
<event>
 4    1  0.3837333E+003  0.2302794E+02  0.7546771E-02  0.1492148E+00
          2   -1    0    0  502    0  0.00000000000E+00  0.00000000000E+00  0.98525925829E+01  0.98525925829E+01  0.00000000000E+00 0. -1.
          1   -1    0    0  501    0 -0.00000000000E+00 -0.00000000000E+00 -0.75090019004E+03  0.75090019004E+03  0.00000000000E+00 0.  1.
          2    1    1    2  501    0  0.22807280475E+02  0.31802282610E+01 -0.40328906797E+01  0.23378411017E+02  0.00000000000E+00 0. -1.
          1    1    1    2  502    0 -0.22807280475E+02 -0.31802282610E+01 -0.73701470678E+03  0.73737437161E+03  0.00000000000E+00 0.  1.
</event>
<event>
 4    1  0.3837333E+003  0.5764723E+02  0.7546771E-02  0.1268043E+00
          2   -1    0    0  502    0  0.00000000000E+00  0.00000000000E+00  0.68283951592E+03  0.68283951592E+03  0.00000000000E+00 0. -1.
          1   -1    0    0  501    0 -0.00000000000E+00 -0.00000000000E+00 -0.25981284614E+02  0.25981284614E+02  0.00000000000E+00 0.  1.
          2    1    1    2  501    0 -0.25654457630E+02  0.51624136548E+02  0.64792627633E+03  0.65048571255E+03  0.00000000000E+00 0. -1.
          1    1    1    2  502    0  0.25654457630E+02 -0.51624136548E+02  0.89319549763E+01  0.58335087985E+02  0.00000000000E+00 0.  1.
</event>
<event>
 4    1  0.3837333E+003  0.2019197E+02  0.7546771E-02  0.1531121E+00
          2   -1    0    0  502    0  0.00000000000E+00  0.00000000000E+00  0.87937623281E+01  0.87937623281E+01  0.00000000000E+00 0. -1.
          1   -1    0    0  501    0 -0.00000000000E+00 -0.00000000000E+00 -0.73276216677E+03  0.73276216677E+03  0.00000000000E+00 0. -1.
          2    1    1    2  501    0 -0.80856235214E+01 -0.18502389321E+02 -0.31280531010E+01  0.20432827374E+02  0.00000000000E+00 0. -1.
          1    1    1    2  502    0  0.80856235214E+01  0.18502389321E+02 -0.72084035134E+03  0.72112310172E+03  0.00000000000E+00 0. -1.
</event>
<event>
 4    1  0.3837333E+003  0.2088785E+02  0.7546771E-02  0.1520872E+00
          2   -1    0    0  502    0  0.00000000000E+00  0.00000000000E+00  0.13731328704E+03  0.13731328704E+03  0.00000000000E+00 0.  1.
          1   -1    0    0  501    0 -0.00000000000E+00 -0.00000000000E+00 -0.32503353948E+01  0.32503353948E+01  0.00000000000E+00 0.  1.
          2    1    1    2  501    0 -0.20115102329E+02 -0.56289040295E+01  0.56504824061E+02  0.60241987388E+02  0.00000000000E+00 0.  1.
          1    1    1    2  502    0  0.20115102329E+02  0.56289040295E+01  0.77558127587E+02  0.80321635050E+02  0.00000000000E+00 0.  1.
</event>
<event>
 4    1  0.3837333E+003  0.4989374E+02  0.7546771E-02  0.1298634E+00
          2   -1    0    0  502    0  0.00000000000E+00  0.00000000000E+00  0.38736794853E+02  0.38736794853E+02  0.00000000000E+00 0. -1.
          1   -1    0    0  501    0 -0.00000000000E+00 -0.00000000000E+00 -0.60452263419E+03  0.60452263419E+03  0.00000000000E+00 0. -1.
          2    1    1    2  501    0 -0.49142578605E+02 -0.86250778053E+01  0.21161067509E+02  0.54195717332E+02  0.00000000000E+00 0. -1.
          1    1    1    2  502    0  0.49142578605E+02  0.86250778053E+01 -0.58694690685E+03  0.58906371171E+03  0.00000000000E+00 0. -1.
</event>
<event>
 4    1  0.3837333E+003  0.2034062E+02  0.7546771E-02  0.1528891E+00
          2   -1    0    0  502    0  0.00000000000E+00  0.00000000000E+00  0.32425570285E+03  0.32425570285E+03  0.00000000000E+00 0. -1.
          1   -1    0    0  501    0 -0.00000000000E+00 -0.00000000000E+00 -0.62093532683E+01  0.62093532683E+01  0.00000000000E+00 0.  1.
          2    1    1    2  501    0  0.40557898997E+01  0.19932168352E+02  0.30630350931E+03  0.30697814349E+03  0.00000000000E+00 0. -1.
          1    1    1    2  502    0 -0.40557898997E+01 -0.19932168352E+02  0.11742840268E+02  0.23486912622E+02  0.00000000000E+00 0.  1.
</event>
<event>
 4    1  0.3837333E+003  0.2422397E+02  0.7546771E-02  0.1477675E+00
          2   -1    0    0  502    0  0.00000000000E+00  0.00000000000E+00  0.50278026023E+01  0.50278026023E+01  0.00000000000E+00 0.  1.
          1   -1    0    0  501    0 -0.00000000000E+00 -0.00000000000E+00 -0.49017141574E+03  0.49017141574E+03  0.00000000000E+00 0. -1.
          2    1    1    2  501    0  0.23133437054E+02 -0.71864273143E+01 -0.26450212523E+02  0.35866619439E+02  0.00000000000E+00 0.  1.
          1    1    1    2  502    0 -0.23133437054E+02  0.71864273143E+01 -0.45869340061E+03  0.45933259890E+03  0.00000000000E+00 0. -1.
</event>
<event>
 4    1  0.3837333E+003  0.2403917E+02  0.7546771E-02  0.1479846E+00
          2   -1    0    0  502    0  0.00000000000E+00  0.00000000000E+00  0.72609527736E+03  0.72609527736E+03  0.00000000000E+00 0.  1.
          1   -1    0    0  501    0 -0.00000000000E+00 -0.00000000000E+00 -0.83869500033E+00  0.83869500033E+00  0.00000000000E+00 0.  1.
          2    1    1    2  501    0 -0.84875500723E+01 -0.22490953776E+02  0.44475478437E+03  0.44540397363E+03  0.00000000000E+00 0.  1.
          1    1    1    2  502    0  0.84875500723E+01  0.22490953776E+02  0.28050179799E+03  0.28152999873E+03  0.00000000000E+00 0.  1.
</event>
<event>
 4    1  0.3837333E+003  0.3793406E+02  0.7546771E-02  0.1361037E+00
          2   -1    0    0  502    0  0.00000000000E+00  0.00000000000E+00  0.52525998951E+01  0.52525998951E+01  0.00000000000E+00 0. -1.
          1   -1    0    0  501    0 -0.00000000000E+00 -0.00000000000E+00 -0.97900852122E+03  0.97900852122E+03  0.00000000000E+00 0.  1.
          2    1    1    2  501    0  0.36908953875E+02  0.87591299845E+01 -0.69242726066E+02  0.78952823555E+02  0.00000000000E+00 0. -1.
          1    1    1    2  502    0 -0.36908953875E+02 -0.87591299845E+01 -0.90451319526E+03  0.90530829756E+03  0.00000000000E+00 0.  1.
</event>
<event>
 4    1  0.3837333E+003  0.2049082E+02  0.7546771E-02  0.1526660E+00
          2   -1    0    0  502    0  0.00000000000E+00  0.00000000000E+00  0.19291880806E+03  0.19291880806E+03  0.00000000000E+00 0. -1.
          1   -1    0    0  501    0 -0.00000000000E+00 -0.00000000000E+00 -0.29744484024E+03  0.29744484024E+03  0.00000000000E+00 0. -1.
          2    1    1    2  501    0  0.83893962304E+01  0.18694697876E+02  0.19202015394E+03  0.19311036538E+03  0.00000000000E+00 0. -1.
          1    1    1    2  502    0 -0.83893962304E+01 -0.18694697876E+02 -0.29654618612E+03  0.29725328291E+03  0.00000000000E+00 0. -1.
</event>
<event>
 4    1  0.3837333E+003  0.2195862E+02  0.7546771E-02  0.1506006E+00
          2   -1    0    0  502    0  0.00000000000E+00  0.00000000000E+00  0.11159491670E+04  0.11159491670E+04  0.00000000000E+00 0. -1.
          1   -1    0    0  501    0 -0.00000000000E+00 -0.00000000000E+00 -0.10245490786E+01  0.10245490786E+01  0.00000000000E+00 0.  1.
          2    1    1    2  501    0 -0.19017584812E+02  0.10977811357E+02  0.98215902931E+03  0.98240446850E+03  0.00000000000E+00 0. -1.
          1    1    1    2  502    0  0.19017584812E+02 -0.10977811357E+02  0.13276558857E+03  0.13456924754E+03  0.00000000000E+00 0.  1.
</event>
<event>
 4    1  0.3837333E+003  0.4141679E+02  0.7546771E-02  0.1340378E+00
          2   -1    0    0  502    0  0.00000000000E+00  0.00000000000E+00  0.65788105361E+03  0.65788105361E+03  0.00000000000E+00 0.  1.
          1   -1    0    0  501    0 -0.00000000000E+00 -0.00000000000E+00 -0.44131979972E+01  0.44131979972E+01  0.00000000000E+00 0.  1.
          2    1    1    2  501    0  0.24259694850E+02 -0.33568100146E+02  0.53856052866E+03  0.54015071338E+03  0.00000000000E+00 0.  1.
          1    1    1    2  502    0 -0.24259694850E+02  0.33568100146E+02  0.11490732695E+03  0.12214353822E+03  0.00000000000E+00 0.  1.
</event>
<event>
 4    1  0.3837333E+003  0.4960638E+02  0.7546771E-02  0.1299888E+00
          2   -1    0    0  502    0  0.00000000000E+00  0.00000000000E+00  0.32656110946E+04  0.32656110946E+04  0.00000000000E+00 0. -1.
          1   -1    0    0  501    0 -0.00000000000E+00 -0.00000000000E+00 -0.22647172292E+01  0.22647172292E+01  0.00000000000E+00 0. -1.
          2    1    1    2  501    0  0.49275142177E+02  0.57230642387E+01  0.29663778518E+04  0.29667926036E+04  0.00000000000E+00 0. -1.
          1    1    1    2  502    0 -0.49275142177E+02 -0.57230642387E+01  0.29696852562E+03  0.30108320828E+03  0.00000000000E+00 0. -1.
</event>
<event>
 4    1  0.3837333E+003  0.2152047E+02  0.7546771E-02  0.1511962E+00
          2   -1    0    0  502    0  0.00000000000E+00  0.00000000000E+00  0.84348166060E+02  0.84348166060E+02  0.00000000000E+00 0.  1.
          1   -1    0    0  501    0 -0.00000000000E+00 -0.00000000000E+00 -0.92939407034E+01  0.92939407034E+01  0.00000000000E+00 0.  1.
          2    1    1    2  501    0  0.15589475287E+02 -0.14835734124E+02  0.67478569708E+02  0.70827170751E+02  0.00000000000E+00 0.  1.
          1    1    1    2  502    0 -0.15589475287E+02  0.14835734124E+02  0.75756556485E+01  0.22814936012E+02  0.00000000000E+00 0.  1.
</event>
<event>
 4    1  0.3837333E+003  0.2853333E+02  0.7546771E-02  0.1432785E+00
          2   -1    0    0  502    0  0.00000000000E+00  0.00000000000E+00  0.88421285661E+03  0.88421285661E+03  0.00000000000E+00 0.  1.
          1   -1    0    0  501    0 -0.00000000000E+00 -0.00000000000E+00 -0.39645294644E+01  0.39645294644E+01  0.00000000000E+00 0.  1.
          2    1    1    2  501    0  0.28242584446E+02 -0.40629022747E+01  0.82924056151E+03  0.82973131772E+03  0.00000000000E+00 0.  1.
          1    1    1    2  502    0 -0.28242584446E+02  0.40629022747E+01  0.51007765639E+02  0.58446068359E+02  0.00000000000E+00 0.  1.
</event>
<event>
 4    1  0.3837333E+003  0.2008461E+02  0.7546771E-02  0.1532746E+00
          2   -1    0    0  502    0  0.00000000000E+00  0.00000000000E+00  0.13710713227E+03  0.13710713227E+03  0.00000000000E+00 0. -1.
          1   -1    0    0  501    0 -0.00000000000E+00 -0.00000000000E+00 -0.49126881186E+01  0.49126881186E+01  0.00000000000E+00 0. -1.
          2    1    1    2  501    0  0.15579608927E+02 -0.12675455438E+02  0.11107007846E+03  0.11287140344E+03  0.00000000000E+00 0. -1.
          1    1    1    2  502    0 -0.15579608927E+02  0.12675455438E+02  0.21124365690E+02  0.29148416950E+02  0.00000000000E+00 0. -1.
</event>
<event>
 4    1  0.3837333E+003  0.2942154E+02  0.7546771E-02  0.1424691E+00
          2   -1    0    0  502    0  0.00000000000E+00  0.00000000000E+00  0.17849241695E+02  0.17849241695E+02  0.00000000000E+00 0.  1.
          1   -1    0    0  501    0 -0.00000000000E+00 -0.00000000000E+00 -0.18667131726E+03  0.18667131726E+03  0.00000000000E+00 0.  1.
          2    1    1    2  501    0  0.28740817640E+02 -0.62922559884E+01  0.35686692024E+01  0.29637180769E+02  0.00000000000E+00 0.  1.
          1    1    1    2  502    0 -0.28740817640E+02  0.62922559884E+01 -0.17239074477E+03  0.17488337818E+03  0.00000000000E+00 0.  1.
</event>
<event>
 4    1  0.3837333E+003  0.2182457E+02  0.7546771E-02  0.1507810E+00
          2   -1    0    0  502    0  0.00000000000E+00  0.00000000000E+00  0.16049955861E+03  0.16049955861E+03  0.00000000000E+00 0. -1.
          1   -1    0    0  501    0 -0.00000000000E+00 -0.00000000000E+00 -0.61834453579E+01  0.61834453579E+01  0.00000000000E+00 0. -1.
          2    1    1    2  501    0 -0.21823743617E+02  0.18955597833E+00  0.13725993881E+03  0.13898418082E+03  0.00000000000E+00 0. -1.
          1    1    1    2  502    0  0.21823743617E+02 -0.18955597833E+00  0.17056174439E+02  0.27698823142E+02  0.00000000000E+00 0. -1.
</event>
<event>
 4    1  0.3837333E+003  0.2878867E+02  0.7546771E-02  0.1430423E+00
          2   -1    0    0  502    0  0.00000000000E+00  0.00000000000E+00  0.13833680180E+04  0.13833680180E+04  0.00000000000E+00 0.  1.
          1   -1    0    0  501    0 -0.00000000000E+00 -0.00000000000E+00 -0.86886506175E+02  0.86886506175E+02  0.00000000000E+00 0.  1.
          2    1    1    2  501    0  0.18898651464E+02  0.21717008118E+02  0.13808291727E+04  0.13811292451E+04  0.00000000000E+00 0.  1.
          1    1    1    2  502    0 -0.18898651464E+02 -0.21717008118E+02 -0.84347660897E+02  0.89125279060E+02  0.00000000000E+00 0.  1.
</event>
<event>
 4    1  0.3837333E+003  0.2083269E+02  0.7546771E-02  0.1521667E+00
          2   -1    0    0  502    0  0.00000000000E+00  0.00000000000E+00  0.42722057951E+00  0.42722057951E+00  0.00000000000E+00 0.  1.
          1   -1    0    0  501    0 -0.00000000000E+00 -0.00000000000E+00 -0.10332409393E+04  0.10332409393E+04  0.00000000000E+00 0. -1.
          2    1    1    2  501    0  0.15784764698E+02  0.13595667327E+02 -0.44939519729E+03  0.44987781042E+03  0.00000000000E+00 0.  1.
          1    1    1    2  502    0 -0.15784764698E+02 -0.13595667327E+02 -0.58341852147E+03  0.58379034949E+03  0.00000000000E+00 0. -1.
</event>
<event>
 4    1  0.3837333E+003  0.2066289E+02  0.7546771E-02  0.1524133E+00
          2   -1    0    0  502    0  0.00000000000E+00  0.00000000000E+00  0.29174754721E+02  0.29174754721E+02  0.00000000000E+00 0. -1.
          1   -1    0    0  501    0 -0.00000000000E+00 -0.00000000000E+00 -0.18368054394E+03  0.18368054394E+03  0.00000000000E+00 0. -1.
          2    1    1    2  501    0 -0.15870523743E+02 -0.13231832244E+02  0.24847055832E+02  0.32316111956E+02  0.00000000000E+00 0. -1.
          1    1    1    2  502    0  0.15870523743E+02  0.13231832244E+02 -0.17935284505E+03  0.18053918670E+03  0.00000000000E+00 0. -1.
</event>
<event>
 4    1  0.3837333E+003  0.2262065E+02  0.7546771E-02  0.1497317E+00
          2   -1    0    0  502    0  0.00000000000E+00  0.00000000000E+00  0.11483219453E+02  0.11483219453E+02  0.00000000000E+00 0. -1.
          1   -1    0    0  501    0 -0.00000000000E+00 -0.00000000000E+00 -0.43843749520E+03  0.43843749520E+03  0.00000000000E+00 0. -1.
          2    1    1    2  501    0  0.10431109142E+02 -0.20072010837E+02 -0.25481721821E+00  0.22622081884E+02  0.00000000000E+00 0. -1.
          1    1    1    2  502    0 -0.10431109142E+02  0.20072010837E+02 -0.42669945853E+03  0.42729863277E+03  0.00000000000E+00 0. -1.
</event>
<event>
 4    1  0.3837333E+003  0.2244511E+02  0.7546771E-02  0.1499586E+00
          2   -1    0    0  502    0  0.00000000000E+00  0.00000000000E+00  0.72262526567E+01  0.72262526567E+01  0.00000000000E+00 0.  1.
          1   -1    0    0  501    0 -0.00000000000E+00 -0.00000000000E+00 -0.93965463661E+02  0.93965463661E+02  0.00000000000E+00 0. -1.
          2    1    1    2  501    0 -0.21905453880E+02  0.48922296385E+01 -0.17666527245E+02  0.28563770854E+02  0.00000000000E+00 0.  1.
          1    1    1    2  502    0  0.21905453880E+02 -0.48922296385E+01 -0.69072683760E+02  0.72627945464E+02  0.00000000000E+00 0. -1.
</event>
<event>
 4    1  0.3837333E+003  0.4886641E+02  0.7546771E-02  0.1303164E+00
          2   -1    0    0  502    0  0.00000000000E+00  0.00000000000E+00  0.21890502429E+04  0.21890502429E+04  0.00000000000E+00 0.  1.
          1   -1    0    0  501    0 -0.00000000000E+00 -0.00000000000E+00 -0.13754882765E+01  0.13754882765E+01  0.00000000000E+00 0. -1.
          2    1    1    2  501    0  0.27819750251E+02  0.40174467725E+02  0.15920519494E+04  0.15928017252E+04  0.00000000000E+00 0.  1.
          1    1    1    2  502    0 -0.27819750251E+02 -0.40174467725E+02  0.59562280521E+03  0.59762400592E+03  0.00000000000E+00 0. -1.
</event>
<event>
 4    1  0.3837333E+003  0.2158091E+02  0.7546771E-02  0.1511130E+00
          2   -1    0    0  502    0  0.00000000000E+00  0.00000000000E+00  0.81179307157E+02  0.81179307157E+02  0.00000000000E+00 0. -1.
          1   -1    0    0  501    0 -0.00000000000E+00 -0.00000000000E+00 -0.82858341274E+03  0.82858341274E+03  0.00000000000E+00 0.  1.
          2    1    1    2  501    0  0.60068540206E+01 -0.20728081604E+02  0.79601769306E+02  0.82475313511E+02  0.00000000000E+00 0. -1.
          1    1    1    2  502    0 -0.60068540206E+01  0.20728081604E+02 -0.82700587489E+03  0.82728740638E+03  0.00000000000E+00 0.  1.
</event>
<event>
 4    1  0.3837333E+003  0.3933619E+02  0.7546771E-02  0.1352420E+00
          2   -1    0    0  502    0  0.00000000000E+00  0.00000000000E+00  0.18426751784E+03  0.18426751784E+03  0.00000000000E+00 0.  1.
          1   -1    0    0  501    0 -0.00000000000E+00 -0.00000000000E+00 -0.83977544666E+01  0.83977544666E+01  0.00000000000E+00 0.  1.
          2    1    1    2  501    0  0.32439745960E+02 -0.22248574093E+02  0.88698382059E+02  0.97029578723E+02  0.00000000000E+00 0.  1.
          1    1    1    2  502    0 -0.32439745960E+02  0.22248574093E+02  0.87171381314E+02  0.95635693584E+02  0.00000000000E+00 0.  1.
</event>
<event>
 4    1  0.3837333E+003  0.2201908E+02  0.7546771E-02  0.1505197E+00
          2   -1    0    0  502    0  0.00000000000E+00  0.00000000000E+00  0.12110647438E+01  0.12110647438E+01  0.00000000000E+00 0.  1.
          1   -1    0    0  501    0 -0.00000000000E+00 -0.00000000000E+00 -0.62473408477E+03  0.62473408477E+03  0.00000000000E+00 0.  1.
          2    1    1    2  501    0  0.58308820344E+01  0.21233010141E+02 -0.12419185048E+03  0.12612872643E+03  0.00000000000E+00 0.  1.
          1    1    1    2  502    0 -0.58308820344E+01 -0.21233010141E+02 -0.49933116955E+03  0.49981642309E+03  0.00000000000E+00 0.  1.
</event>
<event>
 4    1  0.3837333E+003  0.2081040E+02  0.7546771E-02  0.1521989E+00
          2   -1    0    0  502    0  0.00000000000E+00  0.00000000000E+00  0.29519498890E+03  0.29519498890E+03  0.00000000000E+00 0. -1.
          1   -1    0    0  501    0 -0.00000000000E+00 -0.00000000000E+00 -0.21797584985E+02  0.21797584985E+02  0.00000000000E+00 0.  1.
          2    1    1    2  501    0 -0.20541829331E+02 -0.33325420967E+01  0.28976834199E+03  0.29051465472E+03  0.00000000000E+00 0. -1.
          1    1    1    2  502    0  0.20541829331E+02  0.33325420967E+01 -0.16370938082E+02  0.26477919155E+02  0.00000000000E+00 0.  1.
</event>
<event>
 4    1  0.3837333E+003  0.2649496E+02  0.7546771E-02  0.1452748E+00
          2   -1    0    0  502    0  0.00000000000E+00  0.00000000000E+00  0.17754098102E+04  0.17754098102E+04  0.00000000000E+00 0.  1.
          1   -1    0    0  501    0 -0.00000000000E+00 -0.00000000000E+00 -0.10681823801E+01  0.10681823801E+01  0.00000000000E+00 0.  1.
          2    1    1    2  501    0  0.22785368938E+02 -0.13520727273E+02  0.15921023973E+04  0.15923228400E+04  0.00000000000E+00 0.  1.
          1    1    1    2  502    0 -0.22785368938E+02  0.13520727273E+02  0.18223923050E+03  0.18415515262E+03  0.00000000000E+00 0.  1.
</event>
<event>
 4    1  0.3837333E+003  0.2409696E+02  0.7546771E-02  0.1479165E+00
          2   -1    0    0  502    0  0.00000000000E+00  0.00000000000E+00  0.11876376483E+03  0.11876376483E+03  0.00000000000E+00 0.  1.
          1   -1    0    0  501    0 -0.00000000000E+00 -0.00000000000E+00 -0.61848185270E+02  0.61848185270E+02  0.00000000000E+00 0. -1.
          2    1    1    2  501    0 -0.16112057992E+02  0.17918285821E+02  0.11512084836E+03  0.11761578596E+03  0.00000000000E+00 0.  1.
          1    1    1    2  502    0  0.16112057992E+02 -0.17918285821E+02 -0.58205268804E+02  0.62996164137E+02  0.00000000000E+00 0. -1.
</event>
<event>
 4    1  0.3837333E+003  0.2791071E+02  0.7546771E-02  0.1438668E+00
          2   -1    0    0  502    0  0.00000000000E+00  0.00000000000E+00  0.17497301868E+03  0.17497301868E+03  0.00000000000E+00 0. -1.
          1   -1    0    0  501    0 -0.00000000000E+00 -0.00000000000E+00 -0.10165849608E+02  0.10165849608E+02  0.00000000000E+00 0. -1.
          2    1    1    2  501    0  0.27050889270E+02 -0.68743671997E+01  0.15180273666E+03  0.15434726558E+03  0.00000000000E+00 0. -1.
          1    1    1    2  502    0 -0.27050889270E+02  0.68743671997E+01  0.13004432406E+02  0.30791602701E+02  0.00000000000E+00 0. -1.
</event>
<event>
 4    1  0.3837333E+003  0.2612546E+02  0.7546771E-02  0.1456596E+00
          2   -1    0    0  502    0  0.00000000000E+00  0.00000000000E+00  0.19522979740E+04  0.19522979740E+04  0.00000000000E+00 0.  1.
          1   -1    0    0  501    0 -0.00000000000E+00 -0.00000000000E+00 -0.13982878712E+01  0.13982878712E+01  0.00000000000E+00 0. -1.
          2    1    1    2  501    0 -0.23724302425E+02  0.10940624389E+02  0.18214104421E+04  0.18215977982E+04  0.00000000000E+00 0.  1.
          1    1    1    2  502    0  0.23724302425E+02 -0.10940624389E+02  0.12948924410E+03  0.13209846375E+03  0.00000000000E+00 0. -1.
</event>
<event>
 4    1  0.3837333E+003  0.2033877E+02  0.7546771E-02  0.1528918E+00
          2   -1    0    0  502    0  0.00000000000E+00  0.00000000000E+00  0.99961398457E+03  0.99961398457E+03  0.00000000000E+00 0.  1.
          1   -1    0    0  501    0 -0.00000000000E+00 -0.00000000000E+00 -0.72854159477E+00  0.72854159477E+00  0.00000000000E+00 0.  1.
          2    1    1    2  501    0 -0.19192862491E+02  0.67305052063E+01  0.82818162043E+03  0.82843132611E+03  0.00000000000E+00 0.  1.
          1    1    1    2  502    0  0.19192862491E+02 -0.67305052063E+01  0.17070382254E+03  0.17191120005E+03  0.00000000000E+00 0.  1.
</event>
<event>
 4    1  0.3837333E+003  0.2795582E+02  0.7546771E-02  0.1438236E+00
          2   -1    0    0  502    0  0.00000000000E+00  0.00000000000E+00  0.15877671201E+04  0.15877671201E+04  0.00000000000E+00 0.  1.
          1   -1    0    0  501    0 -0.00000000000E+00 -0.00000000000E+00 -0.55907938689E+02  0.55907938689E+02  0.00000000000E+00 0.  1.
          2    1    1    2  501    0 -0.24162650610E+02 -0.14060376608E+02  0.15841413586E+04  0.15843880118E+04  0.00000000000E+00 0.  1.
          1    1    1    2  502    0  0.24162650610E+02  0.14060376608E+02 -0.52282177258E+02  0.59287046931E+02  0.00000000000E+00 0.  1.
</event>
<event>
 4    1  0.3837333E+003  0.2168573E+02  0.7546771E-02  0.1509695E+00
          2   -1    0    0  502    0  0.00000000000E+00  0.00000000000E+00  0.21732090650E+03  0.21732090650E+03  0.00000000000E+00 0.  1.
          1   -1    0    0  501    0 -0.00000000000E+00 -0.00000000000E+00 -0.48500541668E+02  0.48500541668E+02  0.00000000000E+00 0.  1.
          2    1    1    2  501    0  0.21401440917E+02 -0.34998850871E+01  0.21432203847E+03  0.21541635742E+03  0.00000000000E+00 0.  1.
          1    1    1    2  502    0 -0.21401440917E+02  0.34998850871E+01 -0.45501673643E+02  0.50405090747E+02  0.00000000000E+00 0.  1.
</event>
<event>
 4    1  0.3837333E+003  0.3554389E+02  0.7546771E-02  0.1376779E+00
          2   -1    0    0  502    0  0.00000000000E+00  0.00000000000E+00  0.85551360515E+03  0.85551360515E+03  0.00000000000E+00 0.  1.
          1   -1    0    0  501    0 -0.00000000000E+00 -0.00000000000E+00 -0.12547143218E+02  0.12547143218E+02  0.00000000000E+00 0.  1.
          2    1    1    2  501    0  0.33600420495E+02 -0.11592219551E+02  0.82917269885E+03  0.82993417349E+03  0.00000000000E+00 0.  1.
          1    1    1    2  502    0 -0.33600420495E+02  0.11592219551E+02  0.13793763078E+02  0.38126574871E+02  0.00000000000E+00 0.  1.
</event>
<event>
 4    1  0.3837333E+003  0.2618029E+02  0.7546771E-02  0.1456021E+00
          2   -1    0    0  502    0  0.00000000000E+00  0.00000000000E+00  0.10433207248E+04  0.10433207248E+04  0.00000000000E+00 0.  1.
          1   -1    0    0  501    0 -0.00000000000E+00 -0.00000000000E+00 -0.71907307930E+00  0.71907307930E+00  0.00000000000E+00 0.  1.
          2    1    1    2  501    0 -0.17011682112E+02  0.19900007270E+02  0.67473902938E+03  0.67524674408E+03  0.00000000000E+00 0.  1.
          1    1    1    2  502    0  0.17011682112E+02 -0.19900007270E+02  0.36786262235E+03  0.36879305381E+03  0.00000000000E+00 0.  1.
</event>
<event>
 4    1  0.3837333E+003  0.2068801E+02  0.7546771E-02  0.1523766E+00
          2   -1    0    0  502    0  0.00000000000E+00  0.00000000000E+00  0.22878174743E+02  0.22878174743E+02  0.00000000000E+00 0. -1.
          1   -1    0    0  501    0 -0.00000000000E+00 -0.00000000000E+00 -0.35615847931E+03  0.35615847931E+03  0.00000000000E+00 0. -1.
          2    1    1    2  501    0 -0.33096927643E+01  0.20421553681E+02  0.17833736561E+02  0.27313661062E+02  0.00000000000E+00 0. -1.
          1    1    1    2  502    0  0.33096927643E+01 -0.20421553681E+02 -0.35111404113E+03  0.35172299299E+03  0.00000000000E+00 0. -1.
</event>
<event>
 4    1  0.3837333E+003  0.2361566E+02  0.7546771E-02  0.1484909E+00
          2   -1    0    0  502    0  0.00000000000E+00  0.00000000000E+00  0.29578442243E+02  0.29578442243E+02  0.00000000000E+00 0.  1.
          1   -1    0    0  501    0 -0.00000000000E+00 -0.00000000000E+00 -0.68381067424E+03  0.68381067424E+03  0.00000000000E+00 0. -1.
          2    1    1    2  501    0 -0.16210543522E+01  0.23559957183E+02  0.24626441922E+02  0.34119804240E+02  0.00000000000E+00 0.  1.
          1    1    1    2  502    0  0.16210543522E+01 -0.23559957183E+02 -0.67885867392E+03  0.67926931224E+03  0.00000000000E+00 0. -1.
</event>
<event>
 4    1  0.3837333E+003  0.2535267E+02  0.7546771E-02  0.1464897E+00
          2   -1    0    0  502    0  0.00000000000E+00  0.00000000000E+00  0.13168405306E+02  0.13168405306E+02  0.00000000000E+00 0. -1.
          1   -1    0    0  501    0 -0.00000000000E+00 -0.00000000000E+00 -0.15221322485E+03  0.15221322485E+03  0.00000000000E+00 0.  1.
          2    1    1    2  501    0 -0.24842045998E+02  0.50626454624E+01 -0.13675415438E+01  0.25389521428E+02  0.00000000000E+00 0. -1.
          1    1    1    2  502    0  0.24842045998E+02 -0.50626454624E+01 -0.13767727800E+03  0.13999210873E+03  0.00000000000E+00 0.  1.
</event>
<event>
 4    1  0.3837333E+003  0.2026244E+02  0.7546771E-02  0.1530061E+00
          2   -1    0    0  502    0  0.00000000000E+00  0.00000000000E+00  0.12816029114E+04  0.12816029114E+04  0.00000000000E+00 0.  1.
          1   -1    0    0  501    0 -0.00000000000E+00 -0.00000000000E+00 -0.11105492528E+01  0.11105492528E+01  0.00000000000E+00 0.  1.
          2    1    1    2  501    0 -0.19139759751E+02  0.66510086595E+01  0.11812471174E+04  0.11814208898E+04  0.00000000000E+00 0.  1.
          1    1    1    2  502    0  0.19139759751E+02 -0.66510086595E+01  0.99245244719E+02  0.10129257090E+03  0.00000000000E+00 0.  1.
</event>
<event>
 4    1  0.3837333E+003  0.2148689E+02  0.7546771E-02  0.1512426E+00
          2   -1    0    0  502    0  0.00000000000E+00  0.00000000000E+00  0.62651103592E+03  0.62651103592E+03  0.00000000000E+00 0.  1.
          1   -1    0    0  501    0 -0.00000000000E+00 -0.00000000000E+00 -0.38835453987E+02  0.38835453987E+02  0.00000000000E+00 0.  1.
          2    1    1    2  501    0 -0.12999459473E+02 -0.17108486033E+02  0.62333962338E+03  0.62370984626E+03  0.00000000000E+00 0.  1.
          1    1    1    2  502    0  0.12999459473E+02  0.17108486033E+02 -0.35664041455E+02  0.41636643643E+02  0.00000000000E+00 0.  1.
</event>
<event>
 4    1  0.3837333E+003  0.2471875E+02  0.7546771E-02  0.1471974E+00
          2   -1    0    0  502    0  0.00000000000E+00  0.00000000000E+00  0.26656473031E+03  0.26656473031E+03  0.00000000000E+00 0.  1.
          1   -1    0    0  501    0 -0.00000000000E+00 -0.00000000000E+00 -0.10473104580E+02  0.10473104580E+02  0.00000000000E+00 0.  1.
          2    1    1    2  501    0  0.22236418931E+02  0.10796218334E+02  0.25047143868E+03  0.25168821636E+03  0.00000000000E+00 0.  1.
          1    1    1    2  502    0 -0.22236418931E+02 -0.10796218334E+02  0.56201870444E+01  0.25349618530E+02  0.00000000000E+00 0.  1.
</event>
<event>
 4    1  0.3837333E+003  0.2414601E+02  0.7546771E-02  0.1478588E+00
          2   -1    0    0  502    0  0.00000000000E+00  0.00000000000E+00  0.15832622930E+03  0.15832622930E+03  0.00000000000E+00 0. -1.
          1   -1    0    0  501    0 -0.00000000000E+00 -0.00000000000E+00 -0.38335815571E+01  0.38335815571E+01  0.00000000000E+00 0. -1.
          2    1    1    2  501    0 -0.10964107277E+01 -0.24121097272E+02  0.61148056439E+02  0.65742788627E+02  0.00000000000E+00 0. -1.
          1    1    1    2  502    0  0.10964107277E+01  0.24121097272E+02  0.93344591300E+02  0.96417022227E+02  0.00000000000E+00 0. -1.
</event>
<event>
 4    1  0.3837333E+003  0.4420533E+02  0.7546771E-02  0.1325461E+00
          2   -1    0    0  502    0  0.00000000000E+00  0.00000000000E+00  0.71178553305E+01  0.71178553305E+01  0.00000000000E+00 0.  1.
          1   -1    0    0  501    0 -0.00000000000E+00 -0.00000000000E+00 -0.79580405623E+03  0.79580405623E+03  0.00000000000E+00 0. -1.
          2    1    1    2  501    0  0.31920115922E+02  0.30581321623E+02 -0.69427479826E+02  0.82306050736E+02  0.00000000000E+00 0.  1.
          1    1    1    2  502    0 -0.31920115922E+02 -0.30581321623E+02 -0.71925872107E+03  0.72061586082E+03  0.00000000000E+00 0. -1.
</event>
<event>
 4    1  0.3837333E+003  0.3337909E+02  0.7546771E-02  0.1392331E+00
          2   -1    0    0  502    0  0.00000000000E+00  0.00000000000E+00  0.48460180373E+03  0.48460180373E+03  0.00000000000E+00 0. -1.
          1   -1    0    0  501    0 -0.00000000000E+00 -0.00000000000E+00 -0.38992350989E+01  0.38992350989E+01  0.00000000000E+00 0.  1.
          2    1    1    2  501    0 -0.14549207516E+02  0.30041371294E+02  0.39681721673E+03  0.39821861699E+03  0.00000000000E+00 0. -1.
          1    1    1    2  502    0  0.14549207516E+02 -0.30041371294E+02  0.83885351908E+02  0.90282421840E+02  0.00000000000E+00 0.  1.
</event>
<event>
 4    1  0.3837333E+003  0.2246543E+02  0.7546771E-02  0.1499322E+00
          2   -1    0    0  502    0  0.00000000000E+00  0.00000000000E+00  0.12202124123E+04  0.12202124123E+04  0.00000000000E+00 0.  1.
          1   -1    0    0  501    0 -0.00000000000E+00 -0.00000000000E+00 -0.14049405466E+01  0.14049405466E+01  0.00000000000E+00 0.  1.
          2    1    1    2  501    0  0.19259200613E+01 -0.22382726588E+02  0.11224834325E+04  0.11227082220E+04  0.00000000000E+00 0.  1.
          1    1    1    2  502    0 -0.19259200613E+01  0.22382726588E+02  0.96324039322E+02  0.98909130868E+02  0.00000000000E+00 0.  1.
</event>
<event>
 4    1  0.3837333E+003  0.2280486E+02  0.7546771E-02  0.1494963E+00
          2   -1    0    0  502    0  0.00000000000E+00  0.00000000000E+00  0.44576334869E+03  0.44576334869E+03  0.00000000000E+00 0. -1.
          1   -1    0    0  501    0 -0.00000000000E+00 -0.00000000000E+00 -0.68232268613E+01  0.68232268613E+01  0.00000000000E+00 0. -1.
          2    1    1    2  501    0  0.13768926260E+02 -0.18179065462E+02  0.42551055599E+03  0.42612122103E+03  0.00000000000E+00 0. -1.
          1    1    1    2  502    0 -0.13768926260E+02  0.18179065462E+02  0.13429565839E+02  0.26465354524E+02  0.00000000000E+00 0. -1.
</event>
<event>
 4    1  0.3837333E+003  0.2639430E+02  0.7546771E-02  0.1453789E+00
          2   -1    0    0  502    0  0.00000000000E+00  0.00000000000E+00  0.11788376770E+02  0.11788376770E+02  0.00000000000E+00 0.  1.
          1   -1    0    0  501    0 -0.00000000000E+00 -0.00000000000E+00 -0.33300837748E+03  0.33300837748E+03  0.00000000000E+00 0.  1.
          2    1    1    2  501    0 -0.26289964053E+02  0.23445508559E+01 -0.42554468436E+01  0.26735144594E+02  0.00000000000E+00 0.  1.
          1    1    1    2  502    0  0.26289964053E+02 -0.23445508559E+01 -0.31696455387E+03  0.31806160966E+03  0.00000000000E+00 0.  1.
</event>
<event>
 4    1  0.3837333E+003  0.2788319E+02  0.7546771E-02  0.1438932E+00
          2   -1    0    0  502    0  0.00000000000E+00  0.00000000000E+00  0.20636961213E+04  0.20636961213E+04  0.00000000000E+00 0.  1.
          1   -1    0    0  501    0 -0.00000000000E+00 -0.00000000000E+00 -0.26258950528E+01  0.26258950528E+01  0.00000000000E+00 0.  1.
          2    1    1    2  501    0 -0.19564003887E+02 -0.19867616581E+02  0.19867141777E+04  0.19869098360E+04  0.00000000000E+00 0.  1.
          1    1    1    2  502    0  0.19564003887E+02  0.19867616581E+02  0.74356048600E+02  0.79412180426E+02  0.00000000000E+00 0.  1.
</event>
<event>
 4    1  0.3837333E+003  0.3480630E+02  0.7546771E-02  0.1381930E+00
          2   -1    0    0  502    0  0.00000000000E+00  0.00000000000E+00  0.33646819905E+03  0.33646819905E+03  0.00000000000E+00 0. -1.
          1   -1    0    0  501    0 -0.00000000000E+00 -0.00000000000E+00 -0.62554601077E+02  0.62554601077E+02  0.00000000000E+00 0. -1.
          2    1    1    2  501    0 -0.34781529742E+02  0.13129697998E+01  0.33064128015E+03  0.33246824636E+03  0.00000000000E+00 0. -1.
          1    1    1    2  502    0  0.34781529742E+02 -0.13129697998E+01 -0.56727682179E+02  0.66554553761E+02  0.00000000000E+00 0. -1.
</event>
<event>
 4    1  0.3837333E+003  0.2266111E+02  0.7546771E-02  0.1496798E+00
          2   -1    0    0  502    0  0.00000000000E+00  0.00000000000E+00  0.46712781380E+02  0.46712781380E+02  0.00000000000E+00 0.  1.
          1   -1    0    0  501    0 -0.00000000000E+00 -0.00000000000E+00 -0.16302658721E+02  0.16302658721E+02  0.00000000000E+00 0. -1.
          2    1    1    2  501    0  0.11493563654E+02 -0.19530074197E+02  0.33185918194E+02  0.40184959500E+02  0.00000000000E+00 0.  1.
          1    1    1    2  502    0 -0.11493563654E+02  0.19530074197E+02 -0.27757955344E+01  0.22830480601E+02  0.00000000000E+00 0. -1.
</event>
<event>
 4    1  0.3837333E+003  0.3731139E+02  0.7546771E-02  0.1365004E+00
          2   -1    0    0  502    0  0.00000000000E+00  0.00000000000E+00  0.21808773585E+03  0.21808773585E+03  0.00000000000E+00 0. -1.
          1   -1    0    0  501    0 -0.00000000000E+00 -0.00000000000E+00 -0.95437560362E+01  0.95437560362E+01  0.00000000000E+00 0. -1.
          2    1    1    2  501    0 -0.12003265980E+02  0.35327914148E+02  0.16976743725E+03  0.17381922409E+03  0.00000000000E+00 0. -1.
          1    1    1    2  502    0  0.12003265980E+02 -0.35327914148E+02  0.38776542560E+02  0.53812267795E+02  0.00000000000E+00 0. -1.
</event>
<event>
 4    1  0.3837333E+003  0.6647644E+02  0.7546771E-02  0.1239285E+00
          2   -1    0    0  502    0  0.00000000000E+00  0.00000000000E+00  0.80954423781E+03  0.80954423781E+03  0.00000000000E+00 0. -1.
          1   -1    0    0  501    0 -0.00000000000E+00 -0.00000000000E+00 -0.10770366164E+04  0.10770366164E+04  0.00000000000E+00 0. -1.
          2    1    1    2  501    0 -0.10698288479E+02  0.65609932962E+02  0.80715075021E+03  0.80988360290E+03  0.00000000000E+00 0. -1.
          1    1    1    2  502    0  0.10698288479E+02 -0.65609932962E+02 -0.10746431288E+04  0.10766972513E+04  0.00000000000E+00 0. -1.
</event>
<event>
 4    1  0.5408713E+003  0.2268671E+02  0.7546771E-02  0.1496470E+00
          2   -1    0    0  502    0  0.00000000000E+00  0.00000000000E+00  0.14921890485E+04  0.14921890485E+04  0.00000000000E+00 0. -1.
          1   -1    0    0  501    0 -0.00000000000E+00 -0.00000000000E+00 -0.56870691005E+03  0.56870691005E+03  0.00000000000E+00 0.  1.
          2    1    1    2  501    0  0.19062141761E+02 -0.12301275357E+02  0.14918765180E+04  0.14920490044E+04  0.00000000000E+00 0. -1.
          1    1    1    2  502    0 -0.19062141761E+02  0.12301275357E+02 -0.56839437951E+03  0.56884695418E+03  0.00000000000E+00 0.  1.
</event>
<event>
 4    1  0.3837333E+003  0.3559039E+02  0.7546771E-02  0.1376459E+00
          2   -1    0    0  502    0  0.00000000000E+00  0.00000000000E+00  0.10379629948E+04  0.10379629948E+04  0.00000000000E+00 0. -1.
          1   -1    0    0  501    0 -0.00000000000E+00 -0.00000000000E+00 -0.15693823132E+01  0.15693823132E+01  0.00000000000E+00 0.  1.
          2    1    1    2  501    0  0.32065129869E+02  0.15443554660E+02  0.76331626457E+03  0.76414553306E+03  0.00000000000E+00 0. -1.
          1    1    1    2  502    0 -0.32065129869E+02 -0.15443554660E+02  0.27307734795E+03  0.27538684409E+03  0.00000000000E+00 0.  1.
</event>
<event>
 4    1  0.3837333E+003  0.2144023E+02  0.7546771E-02  0.1513071E+00
          2   -1    0    0  502    0  0.00000000000E+00  0.00000000000E+00  0.59330152497E+03  0.59330152497E+03  0.00000000000E+00 0.  1.
          1   -1    0    0  501    0 -0.00000000000E+00 -0.00000000000E+00 -0.25197066637E+02  0.25197066637E+02  0.00000000000E+00 0. -1.
          2    1    1    2  501    0 -0.97982122519E+01  0.19070352349E+02  0.58850982388E+03  0.58890024292E+03  0.00000000000E+00 0.  1.
          1    1    1    2  502    0  0.97982122519E+01 -0.19070352349E+02 -0.20405365548E+02  0.29598348690E+02  0.00000000000E+00 0. -1.
</event>
<event>
 4    1  0.3837333E+003  0.2441726E+02  0.7546771E-02  0.1475429E+00
          2   -1    0    0  502    0  0.00000000000E+00  0.00000000000E+00  0.57907951889E+02  0.57907951889E+02  0.00000000000E+00 0.  1.
          1   -1    0    0  501    0 -0.00000000000E+00 -0.00000000000E+00 -0.11546687845E+02  0.11546687845E+02  0.00000000000E+00 0.  1.
          2    1    1    2  501    0 -0.22496614680E+02 -0.94923527514E+01  0.34611270803E+02  0.42357319313E+02  0.00000000000E+00 0.  1.
          1    1    1    2  502    0  0.22496614680E+02  0.94923527514E+01  0.11749993242E+02  0.27097320421E+02  0.00000000000E+00 0.  1.
</event>
<event>
 4    1  0.3837333E+003  0.3861336E+02  0.7546771E-02  0.1356809E+00
          2   -1    0    0  502    0  0.00000000000E+00  0.00000000000E+00  0.19823214225E+03  0.19823214225E+03  0.00000000000E+00 0.  1.
          1   -1    0    0  501    0 -0.00000000000E+00 -0.00000000000E+00 -0.77987850528E+02  0.77987850528E+02  0.00000000000E+00 0.  1.
          2    1    1    2  501    0  0.21147668786E+02 -0.32307389808E+02  0.19140339815E+03  0.19525944832E+03  0.00000000000E+00 0.  1.
          1    1    1    2  502    0 -0.21147668786E+02  0.32307389808E+02 -0.71159106433E+02  0.80960544462E+02  0.00000000000E+00 0.  1.
</event>
<event>
 4    1  0.3837333E+003  0.2223995E+02  0.7546771E-02  0.1502269E+00
          2   -1    0    0  502    0  0.00000000000E+00  0.00000000000E+00  0.14000759494E+04  0.14000759494E+04  0.00000000000E+00 0.  1.
          1   -1    0    0  501    0 -0.00000000000E+00 -0.00000000000E+00 -0.39661870668E+00  0.39661870668E+00  0.00000000000E+00 0.  1.
          2    1    1    2  501    0  0.22188167426E+02  0.15167851272E+01  0.93131686935E+03  0.93158237776E+03  0.00000000000E+00 0.  1.
          1    1    1    2  502    0 -0.22188167426E+02 -0.15167851272E+01  0.46836246129E+03  0.46889019030E+03  0.00000000000E+00 0.  1.
</event>
<event>
 4    1  0.3837333E+003  0.2827800E+02  0.7546771E-02  0.1435176E+00
          2   -1    0    0  502    0  0.00000000000E+00  0.00000000000E+00  0.54263257075E+01  0.54263257075E+01  0.00000000000E+00 0.  1.
          1   -1    0    0  501    0 -0.00000000000E+00 -0.00000000000E+00 -0.12364104188E+04  0.12364104188E+04  0.00000000000E+00 0.  1.
          2    1    1    2  501    0 -0.47159421223E+01 -0.27881988999E+02 -0.32749986771E+02  0.43269008010E+02  0.00000000000E+00 0.  1.
          1    1    1    2  502    0  0.47159421223E+01  0.27881988999E+02 -0.11982341063E+04  0.11985677365E+04  0.00000000000E+00 0.  1.
</event>
<event>
 4    1  0.3837333E+003  0.3340699E+02  0.7546771E-02  0.1392122E+00
          2   -1    0    0  502    0  0.00000000000E+00  0.00000000000E+00  0.17378543461E+04  0.17378543461E+04  0.00000000000E+00 0.  1.
          1   -1    0    0  501    0 -0.00000000000E+00 -0.00000000000E+00 -0.15570582472E+02  0.15570582472E+02  0.00000000000E+00 0. -1.
          2    1    1    2  501    0 -0.30335165865E+02  0.13993029533E+02  0.17195845975E+04  0.17199090717E+04  0.00000000000E+00 0.  1.
          1    1    1    2  502    0  0.30335165865E+02 -0.13993029533E+02  0.26991661847E+01  0.33515856869E+02  0.00000000000E+00 0. -1.
</event>
<event>
 4    1  0.3837333E+003  0.3483848E+02  0.7546771E-02  0.1381702E+00
          2   -1    0    0  502    0  0.00000000000E+00  0.00000000000E+00  0.51454564364E+02  0.51454564364E+02  0.00000000000E+00 0. -1.
          1   -1    0    0  501    0 -0.00000000000E+00 -0.00000000000E+00 -0.80870910794E+02  0.80870910794E+02  0.00000000000E+00 0. -1.
          2    1    1    2  501    0  0.47051100084E+01 -0.34519296988E+02  0.40975660351E+02  0.53784055871E+02  0.00000000000E+00 0. -1.
          1    1    1    2  502    0 -0.47051100084E+01  0.34519296988E+02 -0.70392006781E+02  0.78541419286E+02  0.00000000000E+00 0. -1.
</event>
<event>
 4    1  0.3837333E+003  0.3284556E+02  0.7546771E-02  0.1396377E+00
          2   -1    0    0  502    0  0.00000000000E+00  0.00000000000E+00  0.18193065251E+04  0.18193065251E+04  0.00000000000E+00 0.  1.
          1   -1    0    0  501    0 -0.00000000000E+00 -0.00000000000E+00 -0.10937735919E+02  0.10937735919E+02  0.00000000000E+00 0. -1.
          2    1    1    2  501    0  0.45776151764E+01  0.32525014229E+02  0.17941541528E+04  0.17944547793E+04  0.00000000000E+00 0.  1.
          1    1    1    2  502    0 -0.45776151764E+01 -0.32525014229E+02  0.14214636391E+02  0.35789481682E+02  0.00000000000E+00 0. -1.
</event>
<event>
 4    1  0.3837333E+003  0.3460303E+02  0.7546771E-02  0.1383376E+00
          2   -1    0    0  502    0  0.00000000000E+00  0.00000000000E+00  0.12040569558E+03  0.12040569558E+03  0.00000000000E+00 0. -1.
          1   -1    0    0  501    0 -0.00000000000E+00 -0.00000000000E+00 -0.32823475043E+02  0.32823475043E+02  0.00000000000E+00 0. -1.
          2    1    1    2  501    0  0.34591080565E+02  0.90948532243E+00  0.10775543316E+03  0.11317510059E+03  0.00000000000E+00 0. -1.
          1    1    1    2  502    0 -0.34591080565E+02 -0.90948532243E+00 -0.20173212627E+02  0.40054070029E+02  0.00000000000E+00 0. -1.
</event>
<event>
 4    1  0.3837333E+003  0.2905048E+02  0.7546771E-02  0.1428031E+00
          2   -1    0    0  502    0  0.00000000000E+00  0.00000000000E+00  0.75134509046E+03  0.75134509046E+03  0.00000000000E+00 0.  1.
          1   -1    0    0  501    0 -0.00000000000E+00 -0.00000000000E+00 -0.44672647352E+01  0.44672647352E+01  0.00000000000E+00 0. -1.
          2    1    1    2  501    0 -0.17130200584E+02 -0.23462448992E+02  0.70040205690E+03  0.70100425933E+03  0.00000000000E+00 0.  1.
          1    1    1    2  502    0  0.17130200584E+02  0.23462448992E+02  0.46475768818E+02  0.54808095862E+02  0.00000000000E+00 0. -1.
</event>
<event>
 4    1  0.3837333E+003  0.2204491E+02  0.7546771E-02  0.1504853E+00
          2   -1    0    0  502    0  0.00000000000E+00  0.00000000000E+00  0.57608622922E+02  0.57608622922E+02  0.00000000000E+00 0.  1.
          1   -1    0    0  501    0 -0.00000000000E+00 -0.00000000000E+00 -0.14589831789E+02  0.14589831789E+02  0.00000000000E+00 0.  1.
          2    1    1    2  501    0  0.43805230530E+01 -0.21605304886E+02  0.44954413744E+02  0.50068727729E+02  0.00000000000E+00 0.  1.
          1    1    1    2  502    0 -0.43805230530E+01  0.21605304886E+02 -0.19356226106E+01  0.22129726982E+02  0.00000000000E+00 0.  1.
</event>
<event>
 4    1  0.3837333E+003  0.2304548E+02  0.7546771E-02  0.1491928E+00
          2   -1    0    0  502    0  0.00000000000E+00  0.00000000000E+00  0.10966447540E+04  0.10966447540E+04  0.00000000000E+00 0. -1.
          1   -1    0    0  501    0 -0.00000000000E+00 -0.00000000000E+00 -0.48309081225E+01  0.48309081225E+01  0.00000000000E+00 0.  1.
          2    1    1    2  501    0 -0.91871696021E+01 -0.21135040061E+02  0.10683106515E+04  0.10685591898E+04  0.00000000000E+00 0. -1.
          1    1    1    2  502    0  0.91871696021E+01  0.21135040061E+02  0.23503194359E+02  0.32916472301E+02  0.00000000000E+00 0.  1.
</event>
<event>
 4    1  0.3837333E+003  0.3151309E+02  0.7546771E-02  0.1406888E+00
          2   -1    0    0  502    0  0.00000000000E+00  0.00000000000E+00  0.16607238563E+04  0.16607238563E+04  0.00000000000E+00 0. -1.
          1   -1    0    0  501    0 -0.00000000000E+00 -0.00000000000E+00 -0.14098468819E+01  0.14098468819E+01  0.00000000000E+00 0.  1.
          2    1    1    2  501    0  0.11878523054E+02 -0.29188621899E+02  0.14603139092E+04  0.14606538907E+04  0.00000000000E+00 0. -1.
          1    1    1    2  502    0 -0.11878523054E+02  0.29188621899E+02  0.19900010016E+03  0.20147981244E+03  0.00000000000E+00 0.  1.
</event>
<event>
 4    1  0.3837333E+003  0.4237318E+02  0.7546771E-02  0.1335113E+00
          2   -1    0    0  502    0  0.00000000000E+00  0.00000000000E+00  0.11191172858E+04  0.11191172858E+04  0.00000000000E+00 0.  1.
          1   -1    0    0  501    0 -0.00000000000E+00 -0.00000000000E+00 -0.48375538716E+02  0.48375538716E+02  0.00000000000E+00 0.  1.
          2    1    1    2  501    0 -0.21202021047E+02 -0.36687337288E+02  0.11093556767E+04  0.11101646292E+04  0.00000000000E+00 0.  1.
          1    1    1    2  502    0  0.21202021047E+02  0.36687337288E+02 -0.38613929660E+02  0.57328195311E+02  0.00000000000E+00 0.  1.
</event>
<event>
 4    1  0.3837333E+003  0.2172980E+02  0.7546771E-02  0.1509095E+00
          2   -1    0    0  502    0  0.00000000000E+00  0.00000000000E+00  0.55019487087E+03  0.55019487087E+03  0.00000000000E+00 0.  1.
          1   -1    0    0  501    0 -0.00000000000E+00 -0.00000000000E+00 -0.94318851200E+00  0.94318851200E+00  0.00000000000E+00 0.  1.
          2    1    1    2  501    0  0.13897745612E+02  0.16704396453E+02  0.35733982993E+03  0.35799991376E+03  0.00000000000E+00 0.  1.
          1    1    1    2  502    0 -0.13897745612E+02 -0.16704396453E+02  0.19191185242E+03  0.19313814562E+03  0.00000000000E+00 0.  1.
</event>
<event>
 4    1  0.3837333E+003  0.3035810E+02  0.7546771E-02  0.1416510E+00
          2   -1    0    0  502    0  0.00000000000E+00  0.00000000000E+00  0.15658474786E+03  0.15658474786E+03  0.00000000000E+00 0.  1.
          1   -1    0    0  501    0 -0.00000000000E+00 -0.00000000000E+00 -0.14734087845E+02  0.14734087845E+02  0.00000000000E+00 0. -1.
          2    1    1    2  501    0  0.29947382952E+02 -0.49767825390E+01  0.13730652336E+03  0.14062252831E+03  0.00000000000E+00 0.  1.
          1    1    1    2  502    0 -0.29947382952E+02  0.49767825390E+01  0.45441366569E+01  0.30696307401E+02  0.00000000000E+00 0. -1.
</event>
<event>
 4    1  0.3837333E+003  0.2082176E+02  0.7546771E-02  0.1521825E+00
          2   -1    0    0  502    0  0.00000000000E+00  0.00000000000E+00  0.10716119709E+04  0.10716119709E+04  0.00000000000E+00 0. -1.
          1   -1    0    0  501    0 -0.00000000000E+00 -0.00000000000E+00 -0.24323174455E+01  0.24323174455E+01  0.00000000000E+00 0.  1.
          2    1    1    2  501    0  0.11455060324E+01 -0.20790231018E+02  0.10249199955E+04  0.10251314760E+04  0.00000000000E+00 0. -1.
          1    1    1    2  502    0 -0.11455060324E+01  0.20790231018E+02  0.44259657907E+02  0.48912812308E+02  0.00000000000E+00 0.  1.
</event>
<event>
 4    1  0.3837333E+003  0.4427051E+02  0.7546771E-02  0.1325128E+00
          2   -1    0    0  502    0  0.00000000000E+00  0.00000000000E+00  0.67629896051E+03  0.67629896051E+03  0.00000000000E+00 0. -1.
          1   -1    0    0  501    0 -0.00000000000E+00 -0.00000000000E+00 -0.55031708732E+03  0.55031708732E+03  0.00000000000E+00 0.  1.
          2    1    1    2  501    0 -0.37408004938E+02 -0.23675286964E+02  0.67468200206E+03  0.67613288779E+03  0.00000000000E+00 0. -1.
          1    1    1    2  502    0  0.37408004938E+02  0.23675286964E+02 -0.54870012888E+03  0.55048316003E+03  0.00000000000E+00 0.  1.
</event>
<event>
 4    1  0.3837333E+003  0.2738498E+02  0.7546771E-02  0.1443779E+00
          2   -1    0    0  502    0  0.00000000000E+00  0.00000000000E+00  0.68458905510E+02  0.68458905510E+02  0.00000000000E+00 0. -1.
          1   -1    0    0  501    0 -0.00000000000E+00 -0.00000000000E+00 -0.43885085851E+03  0.43885085851E+03  0.00000000000E+00 0.  1.
          2    1    1    2  501    0  0.26081377650E+02  0.83485717367E+01  0.65273043309E+02  0.70784935495E+02  0.00000000000E+00 0. -1.
          1    1    1    2  502    0 -0.26081377650E+02 -0.83485717367E+01 -0.43566499631E+03  0.43652482853E+03  0.00000000000E+00 0.  1.
</event>
<event>
 4    1  0.3837333E+003  0.7415624E+02  0.7546771E-02  0.1218105E+00
          2   -1    0    0  502    0  0.00000000000E+00  0.00000000000E+00  0.91506893490E+03  0.91506893490E+03  0.00000000000E+00 0. -1.
          1   -1    0    0  501    0 -0.00000000000E+00 -0.00000000000E+00 -0.71942568803E+01  0.71942568803E+01  0.00000000000E+00 0. -1.
          2    1    1    2  501    0  0.61409987788E+02 -0.41568752445E+02  0.64106514006E+03  0.64533995815E+03  0.00000000000E+00 0. -1.
          1    1    1    2  502    0 -0.61409987788E+02  0.41568752445E+02  0.26680953796E+03  0.27692323363E+03  0.00000000000E+00 0. -1.
</event>
<event>
 4    1  0.3837333E+003  0.2837718E+02  0.7546771E-02  0.1434244E+00
          2   -1    0    0  502    0  0.00000000000E+00  0.00000000000E+00  0.41142856318E+02  0.41142856318E+02  0.00000000000E+00 0. -1.
          1   -1    0    0  501    0 -0.00000000000E+00 -0.00000000000E+00 -0.38619870599E+02  0.38619870599E+02  0.00000000000E+00 0. -1.
          2    1    1    2  501    0 -0.83433589754E+01  0.27122923581E+02  0.29269563685E+02  0.40767290576E+02  0.00000000000E+00 0. -1.
          1    1    1    2  502    0  0.83433589754E+01 -0.27122923581E+02 -0.26746577967E+02  0.38995436342E+02  0.00000000000E+00 0. -1.
</event>
<event>
 4    1  0.3837333E+003  0.2327924E+02  0.7546771E-02  0.1489021E+00
          2   -1    0    0  502    0  0.00000000000E+00  0.00000000000E+00  0.34346904189E+03  0.34346904189E+03  0.00000000000E+00 0.  1.
          1   -1    0    0  501    0 -0.00000000000E+00 -0.00000000000E+00 -0.33097840056E+02  0.33097840056E+02  0.00000000000E+00 0.  1.
          2    1    1    2  501    0 -0.23271568020E+02  0.59743742740E+00  0.33892645619E+03  0.33972498512E+03  0.00000000000E+00 0.  1.
          1    1    1    2  502    0  0.23271568020E+02 -0.59743742740E+00 -0.28555254362E+02  0.36841896820E+02  0.00000000000E+00 0.  1.
</event>
<event>
 4    1  0.3837333E+003  0.2011374E+02  0.7546771E-02  0.1532304E+00
          2   -1    0    0  502    0  0.00000000000E+00  0.00000000000E+00  0.11294227190E+04  0.11294227190E+04  0.00000000000E+00 0. -1.
          1   -1    0    0  501    0 -0.00000000000E+00 -0.00000000000E+00 -0.27674471434E+01  0.27674471434E+01  0.00000000000E+00 0. -1.
          2    1    1    2  501    0  0.15841096650E+02 -0.12394443865E+02  0.10915175734E+04  0.10917028788E+04  0.00000000000E+00 0. -1.
          1    1    1    2  502    0 -0.15841096650E+02  0.12394443865E+02  0.35137698437E+02  0.40487287304E+02  0.00000000000E+00 0. -1.
</event>
<event>
 4    1  0.3837333E+003  0.2442775E+02  0.7546771E-02  0.1475308E+00
          2   -1    0    0  502    0  0.00000000000E+00  0.00000000000E+00  0.24598982436E+00  0.24598982436E+00  0.00000000000E+00 0.  1.
          1   -1    0    0  501    0 -0.00000000000E+00 -0.00000000000E+00 -0.24749289507E+04  0.24749289507E+04  0.00000000000E+00 0.  1.
          2    1    1    2  501    0  0.19347792713E+02  0.14912342161E+02 -0.10629237890E+04  0.10632044470E+04  0.00000000000E+00 0.  1.
          1    1    1    2  502    0 -0.19347792713E+02 -0.14912342161E+02 -0.14117591719E+04  0.14119704934E+04  0.00000000000E+00 0.  1.
</event>
<event>
 4    1  0.3837333E+003  0.2075674E+02  0.7546771E-02  0.1522766E+00
          2   -1    0    0  502    0  0.00000000000E+00  0.00000000000E+00  0.23569212741E+00  0.23569212741E+00  0.00000000000E+00 0. -1.
          1   -1    0    0  501    0 -0.00000000000E+00 -0.00000000000E+00 -0.19608942585E+04  0.19608942585E+04  0.00000000000E+00 0. -1.
          2    1    1    2  501    0 -0.20734471310E+02  0.96126213105E+00 -0.72504599333E+03  0.72534304626E+03  0.00000000000E+00 0. -1.
          1    1    1    2  502    0  0.20734471310E+02 -0.96126213105E+00 -0.12356125731E+04  0.12357869044E+04  0.00000000000E+00 0. -1.
</event>
<event>
 4    1  0.3837333E+003  0.2118896E+02  0.7546771E-02  0.1516584E+00
          2   -1    0    0  502    0  0.00000000000E+00  0.00000000000E+00  0.10773558886E+04  0.10773558886E+04  0.00000000000E+00 0. -1.
          1   -1    0    0  501    0 -0.00000000000E+00 -0.00000000000E+00 -0.41723994962E+00  0.41723994962E+00  0.00000000000E+00 0.  1.
          2    1    1    2  501    0 -0.11425252705E+02 -0.17844769272E+02  0.55721129392E+03  0.55761402266E+03  0.00000000000E+00 0. -1.
          1    1    1    2  502    0  0.11425252705E+02  0.17844769272E+02  0.51972735468E+03  0.52015910585E+03  0.00000000000E+00 0.  1.
</event>
<event>
 4    1  0.3837333E+003  0.2713675E+02  0.7546771E-02  0.1446239E+00
          2   -1    0    0  502    0  0.00000000000E+00  0.00000000000E+00  0.16201367680E+04  0.16201367680E+04  0.00000000000E+00 0. -1.
          1   -1    0    0  501    0 -0.00000000000E+00 -0.00000000000E+00 -0.22356071760E+01  0.22356071760E+01  0.00000000000E+00 0.  1.
          2    1    1    2  501    0 -0.23947414820E+02 -0.12764186492E+02  0.15329929660E+04  0.15332331319E+04  0.00000000000E+00 0. -1.
          1    1    1    2  502    0  0.23947414820E+02  0.12764186492E+02  0.84908194878E+02  0.89139243270E+02  0.00000000000E+00 0.  1.
</event>
<event>
 4    1  0.3837333E+003  0.2100844E+02  0.7546771E-02  0.1519144E+00
          2   -1    0    0  502    0  0.00000000000E+00  0.00000000000E+00  0.12628718063E+01  0.12628718063E+01  0.00000000000E+00 0.  1.
          1   -1    0    0  501    0 -0.00000000000E+00 -0.00000000000E+00 -0.41368829042E+03  0.41368829042E+03  0.00000000000E+00 0.  1.
          2    1    1    2  501    0 -0.20499144592E+02 -0.45978031298E+01 -0.12447751475E+03  0.12623789606E+03  0.00000000000E+00 0.  1.
          1    1    1    2  502    0  0.20499144592E+02  0.45978031298E+01 -0.28794790385E+03  0.28871326616E+03  0.00000000000E+00 0.  1.
</event>
<event>
 4    1  0.3837333E+003  0.2066501E+02  0.7546771E-02  0.1524102E+00
          2   -1    0    0  502    0  0.00000000000E+00  0.00000000000E+00  0.14112470185E+03  0.14112470185E+03  0.00000000000E+00 0. -1.
          1   -1    0    0  501    0 -0.00000000000E+00 -0.00000000000E+00 -0.51782331818E+01  0.51782331818E+01  0.00000000000E+00 0. -1.
          2    1    1    2  501    0  0.20588688460E+02 -0.17744639541E+01  0.11513361304E+03  0.11697346565E+03  0.00000000000E+00 0. -1.
          1    1    1    2  502    0 -0.20588688460E+02  0.17744639541E+01  0.20812855632E+02  0.29329469385E+02  0.00000000000E+00 0. -1.
</event>
<event>
 4    1  0.3837333E+003  0.2894558E+02  0.7546771E-02  0.1428986E+00
          2   -1    0    0  502    0  0.00000000000E+00  0.00000000000E+00  0.46034020418E+03  0.46034020418E+03  0.00000000000E+00 0. -1.
          1   -1    0    0  501    0 -0.00000000000E+00 -0.00000000000E+00 -0.32446677733E+01  0.32446677733E+01  0.00000000000E+00 0.  1.
          2    1    1    2  501    0  0.25771055038E+02 -0.13179508409E+02  0.38213737226E+03  0.38323206807E+03  0.00000000000E+00 0. -1.
          1    1    1    2  502    0 -0.25771055038E+02  0.13179508409E+02  0.74958164149E+02  0.80352803885E+02  0.00000000000E+00 0.  1.
</event>
<event>
 4    1  0.3837333E+003  0.2891645E+02  0.7546771E-02  0.1429252E+00
          2   -1    0    0  502    0  0.00000000000E+00  0.00000000000E+00  0.14008177291E+04  0.14008177291E+04  0.00000000000E+00 0. -1.
          1   -1    0    0  501    0 -0.00000000000E+00 -0.00000000000E+00 -0.11060889670E+01  0.11060889670E+01  0.00000000000E+00 0. -1.
          2    1    1    2  501    0 -0.91728551940E+01  0.27422981534E+02  0.11754482102E+04  0.11758038340E+04  0.00000000000E+00 0. -1.
          1    1    1    2  502    0  0.91728551940E+01 -0.27422981534E+02  0.22426342988E+03  0.22611998401E+03  0.00000000000E+00 0. -1.
</event>
<event>
 4    1  0.3837333E+003  0.2943773E+02  0.7546771E-02  0.1424546E+00
          2   -1    0    0  502    0  0.00000000000E+00  0.00000000000E+00  0.85063118982E+03  0.85063118982E+03  0.00000000000E+00 0.  1.
          1   -1    0    0  501    0 -0.00000000000E+00 -0.00000000000E+00 -0.49441395409E+02  0.49441395409E+02  0.00000000000E+00 0.  1.
          2    1    1    2  501    0 -0.10098689016E+01  0.29420405827E+02  0.84597051388E+03  0.84648253997E+03  0.00000000000E+00 0.  1.
          1    1    1    2  502    0  0.10098689016E+01 -0.29420405827E+02 -0.44780719473E+02  0.53590045258E+02  0.00000000000E+00 0.  1.
</event>
<event>
 4    1  0.3837333E+003  0.2240400E+02  0.7546771E-02  0.1500121E+00
          2   -1    0    0  502    0  0.00000000000E+00  0.00000000000E+00  0.45330192867E+02  0.45330192867E+02  0.00000000000E+00 0.  1.
          1   -1    0    0  501    0 -0.00000000000E+00 -0.00000000000E+00 -0.16453399404E+02  0.16453399404E+02  0.00000000000E+00 0.  1.
          2    1    1    2  501    0 -0.22249598419E+02 -0.26257330626E+01  0.32103837866E+02  0.39148378123E+02  0.00000000000E+00 0.  1.
          1    1    1    2  502    0  0.22249598419E+02  0.26257330626E+01 -0.32270444040E+01  0.22635214148E+02  0.00000000000E+00 0.  1.
</event>
<event>
 4    1  0.3837333E+003  0.2098610E+02  0.7546771E-02  0.1519463E+00
          2   -1    0    0  502    0  0.00000000000E+00  0.00000000000E+00  0.84658664037E+02  0.84658664037E+02  0.00000000000E+00 0. -1.
          1   -1    0    0  501    0 -0.00000000000E+00 -0.00000000000E+00 -0.20436325111E+02  0.20436325111E+02  0.00000000000E+00 0. -1.
          2    1    1    2  501    0 -0.20885526490E+02 -0.20521394502E+01  0.77480095352E+02  0.80271923291E+02  0.00000000000E+00 0. -1.
          1    1    1    2  502    0  0.20885526490E+02  0.20521394502E+01 -0.13257756426E+02  0.24823065857E+02  0.00000000000E+00 0. -1.
</event>
<event>
 4    1  0.3837333E+003  0.2167157E+02  0.7546771E-02  0.1509889E+00
          2   -1    0    0  502    0  0.00000000000E+00  0.00000000000E+00  0.92598700325E+02  0.92598700325E+02  0.00000000000E+00 0.  1.
          1   -1    0    0  501    0 -0.00000000000E+00 -0.00000000000E+00 -0.27935195222E+02  0.27935195222E+02  0.00000000000E+00 0.  1.
          2    1    1    2  501    0 -0.15408426163E+00  0.21671021037E+02  0.86853803589E+02  0.89516702869E+02  0.00000000000E+00 0.  1.
          1    1    1    2  502    0  0.15408426163E+00 -0.21671021037E+02 -0.22190298486E+02  0.31017192678E+02  0.00000000000E+00 0.  1.
</event>
<event>
 4    1  0.3837333E+003  0.5345492E+02  0.7546771E-02  0.1283850E+00
          2   -1    0    0  502    0  0.00000000000E+00  0.00000000000E+00  0.53369969319E+03  0.53369969319E+03  0.00000000000E+00 0.  1.
          1   -1    0    0  501    0 -0.00000000000E+00 -0.00000000000E+00 -0.61653920663E+03  0.61653920663E+03  0.00000000000E+00 0. -1.
          2    1    1    2  501    0  0.41295647152E+02 -0.33942576512E+02  0.53119709120E+03  0.53387992908E+03  0.00000000000E+00 0.  1.
          1    1    1    2  502    0 -0.41295647152E+02  0.33942576512E+02 -0.61403660464E+03  0.61635897074E+03  0.00000000000E+00 0. -1.
</event>
<event>
 4    1  0.3837333E+003  0.2423350E+02  0.7546771E-02  0.1477564E+00
          2   -1    0    0  502    0  0.00000000000E+00  0.00000000000E+00  0.42770886497E+02  0.42770886497E+02  0.00000000000E+00 0.  1.
          1   -1    0    0  501    0 -0.00000000000E+00 -0.00000000000E+00 -0.43466576246E+02  0.43466576246E+02  0.00000000000E+00 0. -1.
          2    1    1    2  501    0 -0.59990860165E+01 -0.23479218826E+02  0.35316198987E+02  0.42831024510E+02  0.00000000000E+00 0.  1.
          1    1    1    2  502    0  0.59990860165E+01  0.23479218826E+02 -0.36011888736E+02  0.43406438232E+02  0.00000000000E+00 0. -1.
</event>
<event>
 4    1  0.3837333E+003  0.4502193E+02  0.7546771E-02  0.1321330E+00
          2   -1    0    0  502    0  0.00000000000E+00  0.00000000000E+00  0.14575422431E+03  0.14575422431E+03  0.00000000000E+00 0. -1.
          1   -1    0    0  501    0 -0.00000000000E+00 -0.00000000000E+00 -0.19122834921E+02  0.19122834921E+02  0.00000000000E+00 0.  1.
          2    1    1    2  501    0  0.42815650072E+02 -0.13921001909E+02  0.10637078783E+03  0.11550635779E+03  0.00000000000E+00 0. -1.
          1    1    1    2  502    0 -0.42815650072E+02  0.13921001909E+02  0.20260601551E+02  0.49370701438E+02  0.00000000000E+00 0.  1.
</event>
<event>
 4    1  0.3837333E+003  0.2412785E+02  0.7546771E-02  0.1478801E+00
          2   -1    0    0  502    0  0.00000000000E+00  0.00000000000E+00  0.26474499989E+03  0.26474499989E+03  0.00000000000E+00 0.  1.
          1   -1    0    0  501    0 -0.00000000000E+00 -0.00000000000E+00 -0.76898543797E+01  0.76898543797E+01  0.00000000000E+00 0.  1.
          2    1    1    2  501    0  0.16557323154E+02  0.17550158803E+02  0.24363325139E+03  0.24482506858E+03  0.00000000000E+00 0.  1.
          1    1    1    2  502    0 -0.16557323154E+02 -0.17550158803E+02  0.13421894126E+02  0.27609785692E+02  0.00000000000E+00 0.  1.
</event>
<event>
 4    1  0.3837333E+003  0.7450664E+02  0.7546771E-02  0.1217209E+00
          2   -1    0    0  502    0  0.00000000000E+00  0.00000000000E+00  0.72339243290E+02  0.72339243290E+02  0.00000000000E+00 0. -1.
          1   -1    0    0  501    0 -0.00000000000E+00 -0.00000000000E+00 -0.10659816036E+03  0.10659816036E+03  0.00000000000E+00 0.  1.
          2    1    1    2  501    0 -0.12074445432E+02 -0.73521745906E+02  0.30222207203E+02  0.80402867870E+02  0.00000000000E+00 0. -1.
          1    1    1    2  502    0  0.12074445432E+02  0.73521745906E+02 -0.64481124269E+02  0.98534535776E+02  0.00000000000E+00 0.  1.
</event>
<event>
 4    1  0.3837333E+003  0.2714945E+02  0.7546771E-02  0.1446113E+00
          2   -1    0    0  502    0  0.00000000000E+00  0.00000000000E+00  0.12881519921E+03  0.12881519921E+03  0.00000000000E+00 0. -1.
          1   -1    0    0  501    0 -0.00000000000E+00 -0.00000000000E+00 -0.28047329613E+02  0.28047329613E+02  0.00000000000E+00 0. -1.
          2    1    1    2  501    0 -0.26794414465E+02 -0.43762994992E+01  0.12035870572E+03  0.12338278116E+03  0.00000000000E+00 0. -1.
          1    1    1    2  502    0  0.26794414465E+02  0.43762994992E+01 -0.19590836121E+02  0.33479747666E+02  0.00000000000E+00 0. -1.
</event>
<event>
 4    1  0.3837333E+003  0.2833565E+02  0.7546771E-02  0.1434634E+00
          2   -1    0    0  502    0  0.00000000000E+00  0.00000000000E+00  0.91856211318E+03  0.91856211318E+03  0.00000000000E+00 0.  1.
          1   -1    0    0  501    0 -0.00000000000E+00 -0.00000000000E+00 -0.90042265474E+00  0.90042265474E+00  0.00000000000E+00 0.  1.
          2    1    1    2  501    0 -0.28284607287E+02  0.17000172755E+01  0.53744490628E+03  0.53819135664E+03  0.00000000000E+00 0.  1.
          1    1    1    2  502    0  0.28284607287E+02 -0.17000172755E+01  0.38021678424E+03  0.38127117919E+03  0.00000000000E+00 0.  1.
</event>
<event>
 4    1  0.3837333E+003  0.2736502E+02  0.7546771E-02  0.1443976E+00
          2   -1    0    0  502    0  0.00000000000E+00  0.00000000000E+00  0.36310555973E+03  0.36310555973E+03  0.00000000000E+00 0.  1.
          1   -1    0    0  501    0 -0.00000000000E+00 -0.00000000000E+00 -0.79098940950E+02  0.79098940950E+02  0.00000000000E+00 0. -1.
          2    1    1    2  501    0 -0.22583910284E+02 -0.15453516438E+02  0.36020414401E+03  0.36124212038E+03  0.00000000000E+00 0.  1.
          1    1    1    2  502    0  0.22583910284E+02  0.15453516438E+02 -0.76197525226E+02  0.80962380304E+02  0.00000000000E+00 0. -1.
</event>
<event>
 4    1  0.3837333E+003  0.5150955E+02  0.7546771E-02  0.1291757E+00
          2   -1    0    0  502    0  0.00000000000E+00  0.00000000000E+00  0.30712388095E+03  0.30712388095E+03  0.00000000000E+00 0. -1.
          1   -1    0    0  501    0 -0.00000000000E+00 -0.00000000000E+00 -0.10840133736E+03  0.10840133736E+03  0.00000000000E+00 0.  1.
          2    1    1    2  501    0 -0.90294076036E+01 -0.50711965315E+02  0.29867327146E+03  0.30308242561E+03  0.00000000000E+00 0. -1.
          1    1    1    2  502    0  0.90294076036E+01  0.50711965315E+02 -0.99950727871E+02  0.11244279270E+03  0.00000000000E+00 0.  1.
</event>
<event>
 4    1  0.3837333E+003  0.3930404E+02  0.7546771E-02  0.1352613E+00
          2   -1    0    0  502    0  0.00000000000E+00  0.00000000000E+00  0.90435383845E+03  0.90435383845E+03  0.00000000000E+00 0. -1.
          1   -1    0    0  501    0 -0.00000000000E+00 -0.00000000000E+00 -0.38474715769E+01  0.38474715769E+01  0.00000000000E+00 0. -1.
          2    1    1    2  501    0  0.31167932247E+02 -0.23945096412E+02  0.78886215015E+03  0.78984067987E+03  0.00000000000E+00 0. -1.
          1    1    1    2  502    0 -0.31167932247E+02  0.23945096412E+02  0.11164421672E+03  0.11836063015E+03  0.00000000000E+00 0. -1.
</event>
<event>
 4    1  0.3837333E+003  0.3790043E+02  0.7546771E-02  0.1361249E+00
          2   -1    0    0  502    0  0.00000000000E+00  0.00000000000E+00  0.46888086403E+01  0.46888086403E+01  0.00000000000E+00 0.  1.
          1   -1    0    0  501    0 -0.00000000000E+00 -0.00000000000E+00 -0.11470721808E+04  0.11470721808E+04  0.00000000000E+00 0.  1.
          2    1    1    2  501    0  0.36445872255E+02  0.10399096334E+02 -0.78174793038E+02  0.86877736363E+02  0.00000000000E+00 0.  1.
          1    1    1    2  502    0 -0.36445872255E+02 -0.10399096334E+02 -0.10642085791E+04  0.10648832530E+04  0.00000000000E+00 0.  1.
</event>
<event>
 4    1  0.3837333E+003  0.2271388E+02  0.7546771E-02  0.1496123E+00
          2   -1    0    0  502    0  0.00000000000E+00  0.00000000000E+00  0.88065248929E+03  0.88065248929E+03  0.00000000000E+00 0. -1.
          1   -1    0    0  501    0 -0.00000000000E+00 -0.00000000000E+00 -0.50963641504E+02  0.50963641504E+02  0.00000000000E+00 0.  1.
          2    1    1    2  501    0  0.15258707254E+02 -0.16825348421E+02  0.87796746471E+03  0.87826123084E+03  0.00000000000E+00 0. -1.
          1    1    1    2  502    0 -0.15258707254E+02  0.16825348421E+02 -0.48278616930E+02  0.53354899955E+02  0.00000000000E+00 0.  1.
</event>
<event>
 4    1  0.3837333E+003  0.2295142E+02  0.7546771E-02  0.1493109E+00
          2   -1    0    0  502    0  0.00000000000E+00  0.00000000000E+00  0.10900054479E+03  0.10900054479E+03  0.00000000000E+00 0.  1.
          1   -1    0    0  501    0 -0.00000000000E+00 -0.00000000000E+00 -0.84611969260E+01  0.84611969260E+01  0.00000000000E+00 0. -1.
          2    1    1    2  501    0  0.21194021885E+02  0.88080164149E+01  0.88730046623E+02  0.91650362195E+02  0.00000000000E+00 0.  1.
          1    1    1    2  502    0 -0.21194021885E+02 -0.88080164149E+01  0.11809301237E+02  0.25811379517E+02  0.00000000000E+00 0. -1.
</event>
<event>
 4    1  0.3837333E+003  0.2463469E+02  0.7546771E-02  0.1472932E+00
          2   -1    0    0  502    0  0.00000000000E+00  0.00000000000E+00  0.74956750733E+01  0.74956750733E+01  0.00000000000E+00 0. -1.
          1   -1    0    0  501    0 -0.00000000000E+00 -0.00000000000E+00 -0.58459172566E+03  0.58459172566E+03  0.00000000000E+00 0.  1.
          2    1    1    2  501    0  0.13108441340E+02 -0.20857530115E+02 -0.13768100752E+02  0.28221062970E+02  0.00000000000E+00 0. -1.
          1    1    1    2  502    0 -0.13108441340E+02  0.20857530115E+02 -0.56332794983E+03  0.56386633776E+03  0.00000000000E+00 0.  1.
</event>
<event>
 4    1  0.3837333E+003  0.2362299E+02  0.7546771E-02  0.1484820E+00
          2   -1    0    0  502    0  0.00000000000E+00  0.00000000000E+00  0.79911155766E+02  0.79911155766E+02  0.00000000000E+00 0. -1.
          1   -1    0    0  501    0 -0.00000000000E+00 -0.00000000000E+00 -0.15148700773E+04  0.15148700773E+04  0.00000000000E+00 0.  1.
          2    1    1    2  501    0 -0.52042477985E+01 -0.23042603739E+02  0.78071106159E+02  0.81566803291E+02  0.00000000000E+00 0. -1.
          1    1    1    2  502    0  0.52042477985E+01  0.23042603739E+02 -0.15130300277E+04  0.15132144298E+04  0.00000000000E+00 0.  1.
</event>
<event>
 4    1  0.3837333E+003  0.2169201E+02  0.7546771E-02  0.1509610E+00
          2   -1    0    0  502    0  0.00000000000E+00  0.00000000000E+00  0.50251479028E+03  0.50251479028E+03  0.00000000000E+00 0.  1.
          1   -1    0    0  501    0 -0.00000000000E+00 -0.00000000000E+00 -0.13536737333E+04  0.13536737333E+04  0.00000000000E+00 0. -1.
          2    1    1    2  501    0 -0.11070238869E+01  0.21663744048E+02  0.50219373933E+03  0.50266200883E+03  0.00000000000E+00 0.  1.
          1    1    1    2  502    0  0.11070238869E+01 -0.21663744048E+02 -0.13533526824E+04  0.13535265148E+04  0.00000000000E+00 0. -1.
</event>
<event>
 4    1  0.3837333E+003  0.2046788E+02  0.7546771E-02  0.1526999E+00
          2   -1    0    0  502    0  0.00000000000E+00  0.00000000000E+00  0.28554581910E+01  0.28554581910E+01  0.00000000000E+00 0.  1.
          1   -1    0    0  501    0 -0.00000000000E+00 -0.00000000000E+00 -0.40318420623E+03  0.40318420623E+03  0.00000000000E+00 0.  1.
          2    1    1    2  501    0  0.91527882656E+01 -0.18307393448E+02 -0.38242464915E+02  0.43375342197E+02  0.00000000000E+00 0.  1.
          1    1    1    2  502    0 -0.91527882656E+01  0.18307393448E+02 -0.36208628313E+03  0.36266432223E+03  0.00000000000E+00 0.  1.
</event>
<event>
 4    1  0.3837333E+003  0.2345492E+02  0.7546771E-02  0.1486863E+00
          2   -1    0    0  502    0  0.00000000000E+00  0.00000000000E+00  0.13797401579E+04  0.13797401579E+04  0.00000000000E+00 0. -1.
          1   -1    0    0  501    0 -0.00000000000E+00 -0.00000000000E+00 -0.53983243019E+01  0.53983243019E+01  0.00000000000E+00 0. -1.
          2    1    1    2  501    0 -0.22682721239E+02 -0.59688801055E+01  0.13536728665E+04  0.13538760515E+04  0.00000000000E+00 0. -1.
          1    1    1    2  502    0  0.22682721239E+02  0.59688801055E+01  0.20668967150E+02  0.31262430737E+02  0.00000000000E+00 0. -1.
</event>
<event>
 4    1  0.3837333E+003  0.2993251E+02  0.7546771E-02  0.1420184E+00
          2   -1    0    0  502    0  0.00000000000E+00  0.00000000000E+00  0.71729772797E+01  0.71729772797E+01  0.00000000000E+00 0. -1.
          1   -1    0    0  501    0 -0.00000000000E+00 -0.00000000000E+00 -0.26248371049E+03  0.26248371049E+03  0.00000000000E+00 0. -1.
          2    1    1    2  501    0 -0.73208969777E+01 -0.29023433701E+02 -0.30043538524E+02  0.42409544249E+02  0.00000000000E+00 0. -1.
          1    1    1    2  502    0  0.73208969777E+01  0.29023433701E+02 -0.22526719468E+03  0.22724714352E+03  0.00000000000E+00 0. -1.
</event>
<event>
 4    1  0.3837333E+003  0.2735283E+02  0.7546771E-02  0.1444096E+00
          2   -1    0    0  502    0  0.00000000000E+00  0.00000000000E+00  0.59859456991E+02  0.59859456991E+02  0.00000000000E+00 0. -1.
          1   -1    0    0  501    0 -0.00000000000E+00 -0.00000000000E+00 -0.29029582888E+02  0.29029582888E+02  0.00000000000E+00 0.  1.
          2    1    1    2  501    0  0.26885525336E+02  0.50344522341E+01  0.48953408073E+02  0.56076852121E+02  0.00000000000E+00 0. -1.
          1    1    1    2  502    0 -0.26885525336E+02 -0.50344522341E+01 -0.18123533970E+02  0.32812187758E+02  0.00000000000E+00 0.  1.
</event>
<event>
 4    1  0.3837333E+003  0.5208584E+02  0.7546771E-02  0.1289374E+00
          2   -1    0    0  502    0  0.00000000000E+00  0.00000000000E+00  0.37401899755E+01  0.37401899755E+01  0.00000000000E+00 0. -1.
          1   -1    0    0  501    0 -0.00000000000E+00 -0.00000000000E+00 -0.14135325869E+04  0.14135325869E+04  0.00000000000E+00 0.  1.
          2    1    1    2  501    0 -0.19876245432E+02  0.48144256120E+02 -0.21044502506E+03  0.21679493329E+03  0.00000000000E+00 0. -1.
          1    1    1    2  502    0  0.19876245432E+02 -0.48144256120E+02 -0.11993473719E+04  0.12004778436E+04  0.00000000000E+00 0.  1.
</event>
<event>
 4    1  0.3837333E+003  0.2352536E+02  0.7546771E-02  0.1486005E+00
          2   -1    0    0  502    0  0.00000000000E+00  0.00000000000E+00  0.47031915652E+03  0.47031915652E+03  0.00000000000E+00 0.  1.
          1   -1    0    0  501    0 -0.00000000000E+00 -0.00000000000E+00 -0.25253280772E+01  0.25253280772E+01  0.00000000000E+00 0. -1.
          2    1    1    2  501    0 -0.69201882978E+00  0.23515175643E+02  0.40666734841E+03  0.40734724086E+03  0.00000000000E+00 0.  1.
          1    1    1    2  502    0  0.69201882978E+00 -0.23515175643E+02  0.61126480027E+02  0.65497243729E+02  0.00000000000E+00 0. -1.
</event>
<event>
 4    1  0.3837333E+003  0.2264903E+02  0.7546771E-02  0.1496953E+00
          2   -1    0    0  502    0  0.00000000000E+00  0.00000000000E+00  0.47844704866E+01  0.47844704866E+01  0.00000000000E+00 0. -1.
          1   -1    0    0  501    0 -0.00000000000E+00 -0.00000000000E+00 -0.47930330380E+03  0.47930330380E+03  0.00000000000E+00 0. -1.
          2    1    1    2  501    0 -0.10774558425E+02  0.19922035466E+02 -0.23998878072E+02  0.32998859906E+02  0.00000000000E+00 0. -1.
          1    1    1    2  502    0  0.10774558425E+02 -0.19922035466E+02 -0.45051995524E+03  0.45108891438E+03  0.00000000000E+00 0. -1.
</event>
<event>
 4    1  0.3837333E+003  0.2743409E+02  0.7546771E-02  0.1443296E+00
          2   -1    0    0  502    0  0.00000000000E+00  0.00000000000E+00  0.15124250936E+02  0.15124250936E+02  0.00000000000E+00 0. -1.
          1   -1    0    0  501    0 -0.00000000000E+00 -0.00000000000E+00 -0.12946260632E+04  0.12946260632E+04  0.00000000000E+00 0.  1.
          2    1    1    2  501    0  0.23833526112E+02 -0.13586469379E+02  0.24148183457E+01  0.27540160943E+02  0.00000000000E+00 0. -1.
          1    1    1    2  502    0 -0.23833526112E+02  0.13586469379E+02 -0.12819166306E+04  0.12822101532E+04  0.00000000000E+00 0.  1.
</event>
<event>
 4    1  0.3837333E+003  0.5876989E+02  0.7546771E-02  0.1264070E+00
          2   -1    0    0  502    0  0.00000000000E+00  0.00000000000E+00  0.51674887814E+03  0.51674887814E+03  0.00000000000E+00 0.  1.
          1   -1    0    0  501    0 -0.00000000000E+00 -0.00000000000E+00 -0.17691861023E+02  0.17691861023E+02  0.00000000000E+00 0.  1.
          2    1    1    2  501    0  0.36412197139E+02  0.46130806636E+02  0.46031179979E+03  0.46404832986E+03  0.00000000000E+00 0.  1.
          1    1    1    2  502    0 -0.36412197139E+02 -0.46130806636E+02  0.38745217323E+02  0.70392409298E+02  0.00000000000E+00 0.  1.
</event>
<event>
 4    1  0.3837333E+003  0.2983039E+02  0.7546771E-02  0.1421076E+00
          2   -1    0    0  502    0  0.00000000000E+00  0.00000000000E+00  0.26025442458E+02  0.26025442458E+02  0.00000000000E+00 0. -1.
          1   -1    0    0  501    0 -0.00000000000E+00 -0.00000000000E+00 -0.68309033048E+02  0.68309033048E+02  0.00000000000E+00 0. -1.
          2    1    1    2  501    0 -0.61075496695E+01 -0.29198459033E+02  0.12192354948E+02  0.32225854404E+02  0.00000000000E+00 0. -1.
          1    1    1    2  502    0  0.61075496695E+01  0.29198459033E+02 -0.54475945538E+02  0.62108621102E+02  0.00000000000E+00 0. -1.
</event>
<event>
 4    1  0.3837333E+003  0.4413798E+02  0.7546771E-02  0.1325806E+00
          2   -1    0    0  502    0  0.00000000000E+00  0.00000000000E+00  0.91953417475E+03  0.91953417475E+03  0.00000000000E+00 0.  1.
          1   -1    0    0  501    0 -0.00000000000E+00 -0.00000000000E+00 -0.22442720183E+02  0.22442720183E+02  0.00000000000E+00 0.  1.
          2    1    1    2  501    0  0.28410286514E+02 -0.33778938152E+02  0.89675203793E+03  0.89783761258E+03  0.00000000000E+00 0.  1.
          1    1    1    2  502    0 -0.28410286514E+02  0.33778938152E+02  0.33941663663E+00  0.44139282347E+02  0.00000000000E+00 0.  1.
</event>
<event>
 4    1  0.3837333E+003  0.3103540E+02  0.7546771E-02  0.1410807E+00
          2   -1    0    0  502    0  0.00000000000E+00  0.00000000000E+00  0.11699635534E+04  0.11699635534E+04  0.00000000000E+00 0.  1.
          1   -1    0    0  501    0 -0.00000000000E+00 -0.00000000000E+00 -0.54123295165E+01  0.54123295165E+01  0.00000000000E+00 0. -1.
          2    1    1    2  501    0  0.86020377452E+01  0.29819475771E+02  0.11234241606E+04  0.11238527666E+04  0.00000000000E+00 0.  1.
          1    1    1    2  502    0 -0.86020377452E+01 -0.29819475771E+02  0.41127063257E+02  0.51523116373E+02  0.00000000000E+00 0. -1.
</event>
<event>
 4    1  0.3837333E+003  0.2674851E+02  0.7546771E-02  0.1450151E+00
          2   -1    0    0  502    0  0.00000000000E+00  0.00000000000E+00  0.28878007645E+03  0.28878007645E+03  0.00000000000E+00 0. -1.
          1   -1    0    0  501    0 -0.00000000000E+00 -0.00000000000E+00 -0.12063861869E+03  0.12063861869E+03  0.00000000000E+00 0.  1.
          2    1    1    2  501    0  0.22709392135E+02  0.14133867321E+02  0.28666707195E+03  0.28791230060E+03  0.00000000000E+00 0. -1.
          1    1    1    2  502    0 -0.22709392135E+02 -0.14133867321E+02 -0.11852561419E+03  0.12150639455E+03  0.00000000000E+00 0.  1.
</event>
<event>
 4    1  0.3837333E+003  0.2260136E+02  0.7546771E-02  0.1497565E+00
          2   -1    0    0  502    0  0.00000000000E+00  0.00000000000E+00  0.52491122010E+00  0.52491122010E+00  0.00000000000E+00 0.  1.
          1   -1    0    0  501    0 -0.00000000000E+00 -0.00000000000E+00 -0.13676685560E+04  0.13676685560E+04  0.00000000000E+00 0.  1.
          2    1    1    2  501    0  0.88422020369E+01  0.20799928563E+02 -0.31615724159E+03  0.31696407206E+03  0.00000000000E+00 0.  1.
          1    1    1    2  502    0 -0.88422020369E+01 -0.20799928563E+02 -0.10509864032E+04  0.10512293952E+04  0.00000000000E+00 0.  1.
</event>
<event>
 4    1  0.3837333E+003  0.2062138E+02  0.7546771E-02  0.1524740E+00
          2   -1    0    0  502    0  0.00000000000E+00  0.00000000000E+00  0.20450193924E+02  0.20450193924E+02  0.00000000000E+00 0. -1.
          1   -1    0    0  501    0 -0.00000000000E+00 -0.00000000000E+00 -0.13863592230E+03  0.13863592230E+03  0.00000000000E+00 0. -1.
          2    1    1    2  501    0 -0.16550010957E+02 -0.12301969601E+02  0.14242644073E+02  0.25061808174E+02  0.00000000000E+00 0. -1.
          1    1    1    2  502    0  0.16550010957E+02  0.12301969601E+02 -0.13242837245E+03  0.13402430805E+03  0.00000000000E+00 0. -1.
</event>
<event>
 4    1  0.3837333E+003  0.2111797E+02  0.7546771E-02  0.1517587E+00
          2   -1    0    0  502    0  0.00000000000E+00  0.00000000000E+00  0.87384457374E+03  0.87384457374E+03  0.00000000000E+00 0.  1.
          1   -1    0    0  501    0 -0.00000000000E+00 -0.00000000000E+00 -0.30501922634E+01  0.30501922634E+01  0.00000000000E+00 0. -1.
          2    1    1    2  501    0 -0.13135930535E+02 -0.16535294233E+02  0.83548659235E+03  0.83575344129E+03  0.00000000000E+00 0.  1.
          1    1    1    2  502    0  0.13135930535E+02  0.16535294233E+02  0.35307789124E+02  0.41141324713E+02  0.00000000000E+00 0. -1.
</event>
<event>
 4    1  0.3837333E+003  0.2389480E+02  0.7546771E-02  0.1481558E+00
          2   -1    0    0  502    0  0.00000000000E+00  0.00000000000E+00  0.40283884326E+02  0.40283884326E+02  0.00000000000E+00 0.  1.
          1   -1    0    0  501    0 -0.00000000000E+00 -0.00000000000E+00 -0.73174374502E+03  0.73174374502E+03  0.00000000000E+00 0. -1.
          2    1    1    2  501    0 -0.19227376612E+02  0.14186940450E+02  0.36527174882E+02  0.43648548608E+02  0.00000000000E+00 0.  1.
          1    1    1    2  502    0  0.19227376612E+02 -0.14186940450E+02 -0.72798703557E+03  0.72837908074E+03  0.00000000000E+00 0. -1.
</event>
<event>
 4    1  0.3837333E+003  0.2822243E+02  0.7546771E-02  0.1435700E+00
          2   -1    0    0  502    0  0.00000000000E+00  0.00000000000E+00  0.74437019789E+03  0.74437019789E+03  0.00000000000E+00 0. -1.
          1   -1    0    0  501    0 -0.00000000000E+00 -0.00000000000E+00 -0.10731378657E+01  0.10731378657E+01  0.00000000000E+00 0. -1.
          2    1    1    2  501    0  0.23448180964E+02 -0.15706312573E+02  0.39167616816E+03  0.39269164258E+03  0.00000000000E+00 0. -1.
          1    1    1    2  502    0 -0.23448180964E+02  0.15706312573E+02  0.35162089186E+03  0.35275169318E+03  0.00000000000E+00 0. -1.
</event>
<event>
 4    1  0.3837333E+003  0.2011919E+02  0.7546771E-02  0.1532221E+00
          2   -1    0    0  502    0  0.00000000000E+00  0.00000000000E+00  0.61614333081E+03  0.61614333081E+03  0.00000000000E+00 0.  1.
          1   -1    0    0  501    0 -0.00000000000E+00 -0.00000000000E+00 -0.72834501577E+00  0.72834501577E+00  0.00000000000E+00 0. -1.
          2    1    1    2  501    0 -0.45974312434E+01  0.19586871841E+02  0.40426761652E+03  0.40476794301E+03  0.00000000000E+00 0.  1.
          1    1    1    2  502    0  0.45974312434E+01 -0.19586871841E+02  0.21114736928E+03  0.21210373282E+03  0.00000000000E+00 0. -1.
</event>
<event>
 4    1  0.3837333E+003  0.2161059E+02  0.7546771E-02  0.1510723E+00
          2   -1    0    0  502    0  0.00000000000E+00  0.00000000000E+00  0.92994035101E+02  0.92994035101E+02  0.00000000000E+00 0.  1.
          1   -1    0    0  501    0 -0.00000000000E+00 -0.00000000000E+00 -0.61616990851E+01  0.61616990851E+01  0.00000000000E+00 0.  1.
          2    1    1    2  501    0 -0.13575447864E+02  0.16814417440E+02  0.64738263325E+02  0.68249982834E+02  0.00000000000E+00 0.  1.
          1    1    1    2  502    0  0.13575447864E+02 -0.16814417440E+02  0.22094072691E+02  0.30905751352E+02  0.00000000000E+00 0.  1.
</event>
<event>
 4    1  0.3837333E+003  0.2093222E+02  0.7546771E-02  0.1520235E+00
          2   -1    0    0  502    0  0.00000000000E+00  0.00000000000E+00  0.27479764322E+01  0.27479764322E+01  0.00000000000E+00 0.  1.
          1   -1    0    0  501    0 -0.00000000000E+00 -0.00000000000E+00 -0.16607179418E+03  0.16607179418E+03  0.00000000000E+00 0.  1.
          2    1    1    2  501    0 -0.27262735890E+01 -0.20753907410E+02 -0.98520601985E+02  0.10071974114E+03  0.00000000000E+00 0.  1.
          1    1    1    2  502    0  0.27262735890E+01  0.20753907410E+02 -0.64803215765E+02  0.68100029471E+02  0.00000000000E+00 0.  1.
</event>
<event>
 4    1  0.3837333E+003  0.3422361E+02  0.7546771E-02  0.1386105E+00
          2   -1    0    0  502    0  0.00000000000E+00  0.00000000000E+00  0.23965235701E+02  0.23965235701E+02  0.00000000000E+00 0. -1.
          1   -1    0    0  501    0 -0.00000000000E+00 -0.00000000000E+00 -0.16915329382E+03  0.16915329382E+03  0.00000000000E+00 0. -1.
          2    1    1    2  501    0 -0.32414946828E+02  0.10978458262E+02  0.88296615214E+01  0.35344281663E+02  0.00000000000E+00 0. -1.
          1    1    1    2  502    0  0.32414946828E+02 -0.10978458262E+02 -0.15401771964E+03  0.15777424786E+03  0.00000000000E+00 0. -1.
</event>
<event>
 4    1  0.3837333E+003  0.4384981E+02  0.7546771E-02  0.1327292E+00
          2   -1    0    0  502    0  0.00000000000E+00  0.00000000000E+00  0.12788425732E+04  0.12788425732E+04  0.00000000000E+00 0.  1.
          1   -1    0    0  501    0 -0.00000000000E+00 -0.00000000000E+00 -0.23044353443E+01  0.23044353443E+01  0.00000000000E+00 0. -1.
          2    1    1    2  501    0 -0.27881733214E+02 -0.33843971476E+02  0.10159034438E+04  0.10168493559E+04  0.00000000000E+00 0.  1.
          1    1    1    2  502    0  0.27881733214E+02  0.33843971476E+02  0.26063469405E+03  0.26429765265E+03  0.00000000000E+00 0. -1.
</event>
<event>
 4    1  0.3837333E+003  0.2266368E+02  0.7546771E-02  0.1496765E+00
          2   -1    0    0  502    0  0.00000000000E+00  0.00000000000E+00  0.13825775719E+02  0.13825775719E+02  0.00000000000E+00 0.  1.
          1   -1    0    0  501    0 -0.00000000000E+00 -0.00000000000E+00 -0.30045749496E+03  0.30045749496E+03  0.00000000000E+00 0. -1.
          2    1    1    2  501    0 -0.22273664112E+02  0.41864350054E+01  0.37901707555E+01  0.22978419122E+02  0.00000000000E+00 0.  1.
          1    1    1    2  502    0  0.22273664112E+02 -0.41864350054E+01 -0.29042188999E+03  0.29130485155E+03  0.00000000000E+00 0. -1.
</event>
<event>
 4    1  0.3837333E+003  0.2297193E+02  0.7546771E-02  0.1492851E+00
          2   -1    0    0  502    0  0.00000000000E+00  0.00000000000E+00  0.47931768642E+03  0.47931768642E+03  0.00000000000E+00 0. -1.
          1   -1    0    0  501    0 -0.00000000000E+00 -0.00000000000E+00 -0.18039909611E+01  0.18039909611E+01  0.00000000000E+00 0. -1.
          2    1    1    2  501    0  0.22811639246E+02  0.27090080783E+01  0.38893092428E+03  0.38960874409E+03  0.00000000000E+00 0. -1.
          1    1    1    2  502    0 -0.22811639246E+02 -0.27090080783E+01  0.88582771177E+02  0.91512933289E+02  0.00000000000E+00 0. -1.
</event>
<event>
 4    1  0.3837333E+003  0.4349570E+02  0.7546771E-02  0.1329135E+00
          2   -1    0    0  502    0  0.00000000000E+00  0.00000000000E+00  0.25866581440E+03  0.25866581440E+03  0.00000000000E+00 0.  1.
          1   -1    0    0  501    0 -0.00000000000E+00 -0.00000000000E+00 -0.33736265342E+02  0.33736265342E+02  0.00000000000E+00 0.  1.
          2    1    1    2  501    0 -0.29058441661E+02  0.32364833887E+02  0.24185074375E+03  0.24573086448E+03  0.00000000000E+00 0.  1.
          1    1    1    2  502    0  0.29058441661E+02 -0.32364833887E+02 -0.16921194693E+02  0.46671215263E+02  0.00000000000E+00 0.  1.
</event>
<event>
 4    1  0.3837333E+003  0.3135459E+02  0.7546771E-02  0.1408179E+00
          2   -1    0    0  502    0  0.00000000000E+00  0.00000000000E+00  0.69297971072E+03  0.69297971072E+03  0.00000000000E+00 0. -1.
          1   -1    0    0  501    0 -0.00000000000E+00 -0.00000000000E+00 -0.10926254760E+03  0.10926254760E+03  0.00000000000E+00 0. -1.
          2    1    1    2  501    0  0.24051895903E+02 -0.20115088192E+02  0.69036711228E+03  0.69107876554E+03  0.00000000000E+00 0. -1.
          1    1    1    2  502    0 -0.24051895903E+02  0.20115088192E+02 -0.10664994916E+03  0.11116349277E+03  0.00000000000E+00 0. -1.
</event>
<event>
 4    1  0.3837333E+003  0.2840534E+02  0.7546771E-02  0.1433980E+00
          2   -1    0    0  502    0  0.00000000000E+00  0.00000000000E+00  0.16887627263E+04  0.16887627263E+04  0.00000000000E+00 0. -1.
          1   -1    0    0  501    0 -0.00000000000E+00 -0.00000000000E+00 -0.98985219348E+00  0.98985219348E+00  0.00000000000E+00 0. -1.
          2    1    1    2  501    0 -0.26028116079E+02  0.11375427967E+02  0.14515623247E+04  0.14518402273E+04  0.00000000000E+00 0. -1.
          1    1    1    2  502    0  0.26028116079E+02 -0.11375427967E+02  0.23621054942E+03  0.23791235118E+03  0.00000000000E+00 0. -1.
</event>
<event>
 4    1  0.3837333E+003  0.3191214E+02  0.7546771E-02  0.1403677E+00
          2   -1    0    0  502    0  0.00000000000E+00  0.00000000000E+00  0.38690062302E+00  0.38690062302E+00  0.00000000000E+00 0.  1.
          1   -1    0    0  501    0 -0.00000000000E+00 -0.00000000000E+00 -0.26992300441E+04  0.26992300441E+04  0.00000000000E+00 0.  1.
          2    1    1    2  501    0  0.19816241886E+02 -0.25014023079E+02 -0.11366504235E+04  0.11370983115E+04  0.00000000000E+00 0.  1.
          1    1    1    2  502    0 -0.19816241886E+02  0.25014023079E+02 -0.15621927199E+04  0.15625186331E+04  0.00000000000E+00 0.  1.
</event>
<event>
 4    1  0.3837333E+003  0.2831804E+02  0.7546771E-02  0.1434799E+00
          2   -1    0    0  502    0  0.00000000000E+00  0.00000000000E+00  0.18180744072E+04  0.18180744072E+04  0.00000000000E+00 0.  1.
          1   -1    0    0  501    0 -0.00000000000E+00 -0.00000000000E+00 -0.63261865411E+00  0.63261865411E+00  0.00000000000E+00 0. -1.
          2    1    1    2  501    0 -0.27777671771E+02  0.55056569347E+01  0.14090929592E+04  0.14093774792E+04  0.00000000000E+00 0.  1.
          1    1    1    2  502    0  0.27777671771E+02 -0.55056569347E+01  0.40834882931E+03  0.40932954659E+03  0.00000000000E+00 0. -1.
</event>
<event>
 4    1  0.3837333E+003  0.2330185E+02  0.7546771E-02  0.1488742E+00
          2   -1    0    0  502    0  0.00000000000E+00  0.00000000000E+00  0.59332826940E+03  0.59332826940E+03  0.00000000000E+00 0.  1.
          1   -1    0    0  501    0 -0.00000000000E+00 -0.00000000000E+00 -0.30049510972E+01  0.30049510972E+01  0.00000000000E+00 0. -1.
          2    1    1    2  501    0  0.53866742941E+01  0.22670682569E+02  0.54381495852E+03  0.54431395832E+03  0.00000000000E+00 0.  1.
          1    1    1    2  502    0 -0.53866742941E+01 -0.22670682569E+02  0.46508359780E+02  0.52019262178E+02  0.00000000000E+00 0. -1.
</event>
<event>
 4    1  0.3837333E+003  0.2062309E+02  0.7546771E-02  0.1524715E+00
          2   -1    0    0  502    0  0.00000000000E+00  0.00000000000E+00  0.30334913958E+03  0.30334913958E+03  0.00000000000E+00 0. -1.
          1   -1    0    0  501    0 -0.00000000000E+00 -0.00000000000E+00 -0.23318405671E+01  0.23318405671E+01  0.00000000000E+00 0. -1.
          2    1    1    2  501    0 -0.20223502539E+02  0.40400352839E+01  0.24702048565E+03  0.24787987468E+03  0.00000000000E+00 0. -1.
          1    1    1    2  502    0  0.20223502539E+02 -0.40400352839E+01  0.53996813366E+02  0.57801105471E+02  0.00000000000E+00 0. -1.
</event>
<event>
 4    1  0.3837333E+003  0.2586565E+02  0.7546771E-02  0.1459348E+00
          2   -1    0    0  502    0  0.00000000000E+00  0.00000000000E+00  0.36902628414E+03  0.36902628414E+03  0.00000000000E+00 0. -1.
          1   -1    0    0  501    0 -0.00000000000E+00 -0.00000000000E+00 -0.97898960566E+01  0.97898960566E+01  0.00000000000E+00 0. -1.
          2    1    1    2  501    0 -0.24002888147E+02 -0.96381094523E+01  0.35059114187E+03  0.35154399519E+03  0.00000000000E+00 0. -1.
          1    1    1    2  502    0  0.24002888147E+02  0.96381094523E+01  0.86452462145E+01  0.27272185012E+02  0.00000000000E+00 0. -1.
</event>
<event>
 4    1  0.3837333E+003  0.2489498E+02  0.7546771E-02  0.1469982E+00
          2   -1    0    0  502    0  0.00000000000E+00  0.00000000000E+00  0.38673164913E+02  0.38673164913E+02  0.00000000000E+00 0. -1.
          1   -1    0    0  501    0 -0.00000000000E+00 -0.00000000000E+00 -0.71241134477E+02  0.71241134477E+02  0.00000000000E+00 0. -1.
          2    1    1    2  501    0  0.61227848733E+01  0.24130301127E+02  0.32098648635E+02  0.40621215778E+02  0.00000000000E+00 0. -1.
          1    1    1    2  502    0 -0.61227848733E+01 -0.24130301127E+02 -0.64666618199E+02  0.69293083612E+02  0.00000000000E+00 0. -1.
</event>
<event>
 4    1  0.3837333E+003  0.3789067E+02  0.7546771E-02  0.1361310E+00
          2   -1    0    0  502    0  0.00000000000E+00  0.00000000000E+00  0.19205864207E+02  0.19205864207E+02  0.00000000000E+00 0.  1.
          1   -1    0    0  501    0 -0.00000000000E+00 -0.00000000000E+00 -0.40565477851E+03  0.40565477851E+03  0.00000000000E+00 0. -1.
          2    1    1    2  501    0  0.35342063521E+01 -0.37725482424E+02 -0.13630918064E+01  0.37915177145E+02  0.00000000000E+00 0.  1.
          1    1    1    2  502    0 -0.35342063521E+01  0.37725482424E+02 -0.38508582250E+03  0.38694546557E+03  0.00000000000E+00 0. -1.
</event>
<event>
 4    1  0.3837333E+003  0.2106966E+02  0.7546771E-02  0.1518273E+00
          2   -1    0    0  502    0  0.00000000000E+00  0.00000000000E+00  0.90015866834E+03  0.90015866834E+03  0.00000000000E+00 0. -1.
          1   -1    0    0  501    0 -0.00000000000E+00 -0.00000000000E+00 -0.26429009999E+01  0.26429009999E+01  0.00000000000E+00 0.  1.
          2    1    1    2  501    0  0.18683257459E+02  0.97399410267E+01  0.85586997298E+03  0.85612927832E+03  0.00000000000E+00 0. -1.
          1    1    1    2  502    0 -0.18683257459E+02 -0.97399410267E+01  0.41645794359E+02  0.46672291012E+02  0.00000000000E+00 0.  1.
</event>
<event>
 4    1  0.3837333E+003  0.2390861E+02  0.7546771E-02  0.1481393E+00
          2   -1    0    0  502    0  0.00000000000E+00  0.00000000000E+00  0.68302737873E+02  0.68302737873E+02  0.00000000000E+00 0.  1.
          1   -1    0    0  501    0 -0.00000000000E+00 -0.00000000000E+00 -0.18862390187E+03  0.18862390187E+03  0.00000000000E+00 0. -1.
          2    1    1    2  501    0 -0.76357548994E+01 -0.22656494741E+02  0.65420549967E+02  0.69652493601E+02  0.00000000000E+00 0.  1.
          1    1    1    2  502    0  0.76357548994E+01  0.22656494741E+02 -0.18574171396E+03  0.18727414614E+03  0.00000000000E+00 0. -1.
</event>
<event>
 4    1  0.3837333E+003  0.7250014E+02  0.7546771E-02  0.1222418E+00
          2   -1    0    0  502    0  0.00000000000E+00  0.00000000000E+00  0.11912134327E+04  0.11912134327E+04  0.00000000000E+00 0.  1.
          1   -1    0    0  501    0 -0.00000000000E+00 -0.00000000000E+00 -0.55509030839E+01  0.55509030839E+01  0.00000000000E+00 0.  1.
          2    1    1    2  501    0 -0.44366673061E+02 -0.57339944443E+02  0.86381185545E+03  0.86684900214E+03  0.00000000000E+00 0.  1.
          1    1    1    2  502    0  0.44366673061E+02  0.57339944443E+02  0.32185067414E+03  0.32991533361E+03  0.00000000000E+00 0.  1.
</event>
<event>
 4    1  0.3837333E+003  0.3314600E+02  0.7546771E-02  0.1394088E+00
          2   -1    0    0  502    0  0.00000000000E+00  0.00000000000E+00  0.14547945207E+03  0.14547945207E+03  0.00000000000E+00 0. -1.
          1   -1    0    0  501    0 -0.00000000000E+00 -0.00000000000E+00 -0.96812291662E+01  0.96812291662E+01  0.00000000000E+00 0. -1.
          2    1    1    2  501    0  0.25865383529E+02  0.20727733790E+02  0.10428226214E+03  0.10942324803E+03  0.00000000000E+00 0. -1.
          1    1    1    2  502    0 -0.25865383529E+02 -0.20727733790E+02  0.31515960765E+02  0.45737433204E+02  0.00000000000E+00 0. -1.
</event>
<event>
 4    1  0.3837333E+003  0.3571849E+02  0.7546771E-02  0.1375581E+00
          2   -1    0    0  502    0  0.00000000000E+00  0.00000000000E+00  0.50053429905E+03  0.50053429905E+03  0.00000000000E+00 0. -1.
          1   -1    0    0  501    0 -0.00000000000E+00 -0.00000000000E+00 -0.26672148179E+03  0.26672148179E+03  0.00000000000E+00 0. -1.
          2    1    1    2  501    0  0.35496394375E+02  0.39769840641E+01  0.49869684793E+03  0.49997435590E+03  0.00000000000E+00 0. -1.
          1    1    1    2  502    0 -0.35496394375E+02 -0.39769840641E+01 -0.26488403068E+03  0.26728142495E+03  0.00000000000E+00 0. -1.
</event>
<event>
 4    1  0.3837333E+003  0.2613061E+02  0.7546771E-02  0.1456542E+00
          2   -1    0    0  502    0  0.00000000000E+00  0.00000000000E+00  0.31681570671E+03  0.31681570671E+03  0.00000000000E+00 0. -1.
          1   -1    0    0  501    0 -0.00000000000E+00 -0.00000000000E+00 -0.15799948764E+02  0.15799948764E+02  0.00000000000E+00 0.  1.
          2    1    1    2  501    0 -0.20704330893E+02  0.15941760293E+02  0.30505724583E+03  0.30617434947E+03  0.00000000000E+00 0. -1.
          1    1    1    2  502    0  0.20704330893E+02 -0.15941760293E+02 -0.40414878841E+01  0.26441306006E+02  0.00000000000E+00 0.  1.
</event>
<event>
 4    1  0.3837333E+003  0.3048437E+02  0.7546771E-02  0.1415433E+00
          2   -1    0    0  502    0  0.00000000000E+00  0.00000000000E+00  0.10320279652E+04  0.10320279652E+04  0.00000000000E+00 0. -1.
          1   -1    0    0  501    0 -0.00000000000E+00 -0.00000000000E+00 -0.11744097502E+01  0.11744097502E+01  0.00000000000E+00 0.  1.
          2    1    1    2  501    0  0.14884998838E+01  0.30448011390E+02  0.76493406607E+03  0.76554126111E+03  0.00000000000E+00 0. -1.
          1    1    1    2  502    0 -0.14884998838E+01 -0.30448011390E+02  0.26591948938E+03  0.26766111384E+03  0.00000000000E+00 0.  1.
</event>
<event>
 4    1  0.3837333E+003  0.2131636E+02  0.7546771E-02  0.1514796E+00
          2   -1    0    0  502    0  0.00000000000E+00  0.00000000000E+00  0.57151186423E+02  0.57151186423E+02  0.00000000000E+00 0.  1.
          1   -1    0    0  501    0 -0.00000000000E+00 -0.00000000000E+00 -0.14883644468E+03  0.14883644468E+03  0.00000000000E+00 0.  1.
          2    1    1    2  501    0 -0.13952005364E+02 -0.16116099393E+02  0.54362547963E+02  0.58392411616E+02  0.00000000000E+00 0.  1.
          1    1    1    2  502    0  0.13952005364E+02  0.16116099393E+02 -0.14604780622E+03  0.14759521949E+03  0.00000000000E+00 0.  1.
</event>
<event>
 4    1  0.3837333E+003  0.2182144E+02  0.7546771E-02  0.1507852E+00
          2   -1    0    0  502    0  0.00000000000E+00  0.00000000000E+00  0.31632595335E+01  0.31632595335E+01  0.00000000000E+00 0. -1.
          1   -1    0    0  501    0 -0.00000000000E+00 -0.00000000000E+00 -0.16985891451E+03  0.16985891451E+03  0.00000000000E+00 0. -1.
          2    1    1    2  501    0 -0.19241142020E+02  0.10293376348E+02 -0.54167045271E+02  0.58397293912E+02  0.00000000000E+00 0. -1.
          1    1    1    2  502    0  0.19241142020E+02 -0.10293376348E+02 -0.11252860971E+03  0.11462488013E+03  0.00000000000E+00 0. -1.
</event>
<event>
 4    1  0.3837333E+003  0.3182009E+02  0.7546771E-02  0.1404413E+00
          2   -1    0    0  502    0  0.00000000000E+00  0.00000000000E+00  0.50310854652E+03  0.50310854652E+03  0.00000000000E+00 0. -1.
          1   -1    0    0  501    0 -0.00000000000E+00 -0.00000000000E+00 -0.20467146806E+02  0.20467146806E+02  0.00000000000E+00 0. -1.
          2    1    1    2  501    0  0.19067687291E+02 -0.25474330381E+02  0.48990483651E+03  0.49093713146E+03  0.00000000000E+00 0. -1.
          1    1    1    2  502    0 -0.19067687291E+02  0.25474330381E+02 -0.72634367934E+01  0.32638561872E+02  0.00000000000E+00 0. -1.
</event>
<event>
 4    1  0.3837333E+003  0.2515517E+02  0.7546771E-02  0.1467075E+00
          2   -1    0    0  502    0  0.00000000000E+00  0.00000000000E+00  0.11954379512E+04  0.11954379512E+04  0.00000000000E+00 0. -1.
          1   -1    0    0  501    0 -0.00000000000E+00 -0.00000000000E+00 -0.11032380206E+02  0.11032380206E+02  0.00000000000E+00 0. -1.
          2    1    1    2  501    0  0.14991490749E+02  0.20199945364E+02  0.11807885267E+04  0.11810564455E+04  0.00000000000E+00 0. -1.
          1    1    1    2  502    0 -0.14991490749E+02 -0.20199945364E+02  0.36170442555E+01  0.25413885903E+02  0.00000000000E+00 0. -1.
</event>
<event>
 4    1  0.3837333E+003  0.3286844E+02  0.7546771E-02  0.1396202E+00
          2   -1    0    0  502    0  0.00000000000E+00  0.00000000000E+00  0.10976587601E+02  0.10976587601E+02  0.00000000000E+00 0. -1.
          1   -1    0    0  501    0 -0.00000000000E+00 -0.00000000000E+00 -0.10890906450E+03  0.10890906450E+03  0.00000000000E+00 0. -1.
          2    1    1    2  501    0  0.34749518357E+01  0.32684230496E+02 -0.30365132935E+02  0.44747910695E+02  0.00000000000E+00 0. -1.
          1    1    1    2  502    0 -0.34749518357E+01 -0.32684230496E+02 -0.67567343961E+02  0.75137741404E+02  0.00000000000E+00 0. -1.
</event>
<event>
 4    1  0.3837333E+003  0.2035798E+02  0.7546771E-02  0.1528632E+00
          2   -1    0    0  502    0  0.00000000000E+00  0.00000000000E+00  0.23400125938E+03  0.23400125938E+03  0.00000000000E+00 0. -1.
          1   -1    0    0  501    0 -0.00000000000E+00 -0.00000000000E+00 -0.26114894564E+01  0.26114894564E+01  0.00000000000E+00 0. -1.
          2    1    1    2  501    0  0.52198412401E+01  0.19677417325E+02  0.18280618009E+03  0.18393625791E+03  0.00000000000E+00 0. -1.
          1    1    1    2  502    0 -0.52198412401E+01 -0.19677417325E+02  0.48583589839E+02  0.52676490931E+02  0.00000000000E+00 0. -1.
</event>
<event>
 4    1  0.3837333E+003  0.2443216E+02  0.7546771E-02  0.1475257E+00
          2   -1    0    0  502    0  0.00000000000E+00  0.00000000000E+00  0.41727749160E+03  0.41727749160E+03  0.00000000000E+00 0. -1.
          1   -1    0    0  501    0 -0.00000000000E+00 -0.00000000000E+00 -0.43601350169E+01  0.43601350169E+01  0.00000000000E+00 0.  1.
          2    1    1    2  501    0 -0.23327030027E+02  0.72650045355E+01  0.37926652549E+03  0.38005266475E+03  0.00000000000E+00 0. -1.
          1    1    1    2  502    0  0.23327030027E+02 -0.72650045355E+01  0.33650831093E+02  0.41584961873E+02  0.00000000000E+00 0.  1.
</event>
<event>
 4    1  0.3837333E+003  0.2607352E+02  0.7546771E-02  0.1457143E+00
          2   -1    0    0  502    0  0.00000000000E+00  0.00000000000E+00  0.21815744328E+03  0.21815744328E+03  0.00000000000E+00 0.  1.
          1   -1    0    0  501    0 -0.00000000000E+00 -0.00000000000E+00 -0.17774205263E+03  0.17774205263E+03  0.00000000000E+00 0.  1.
          2    1    1    2  501    0 -0.15621537275E+02  0.20875730904E+02  0.21641451175E+03  0.21797951616E+03  0.00000000000E+00 0.  1.
          1    1    1    2  502    0  0.15621537275E+02 -0.20875730904E+02 -0.17599912110E+03  0.17791997976E+03  0.00000000000E+00 0.  1.
</event>
<event>
 4    1  0.3837333E+003  0.2404572E+02  0.7546771E-02  0.1479768E+00
          2   -1    0    0  502    0  0.00000000000E+00  0.00000000000E+00  0.14472106007E+02  0.14472106007E+02  0.00000000000E+00 0. -1.
          1   -1    0    0  501    0 -0.00000000000E+00 -0.00000000000E+00 -0.11514353517E+03  0.11514353517E+03  0.00000000000E+00 0. -1.
          2    1    1    2  501    0 -0.21109442016E+01 -0.23952884203E+02  0.20352632570E+01  0.24131702045E+02  0.00000000000E+00 0. -1.
          1    1    1    2  502    0  0.21109442016E+01  0.23952884203E+02 -0.10270669242E+03  0.10548393913E+03  0.00000000000E+00 0. -1.
</event>
<event>
 4    1  0.3837333E+003  0.3023244E+02  0.7546771E-02  0.1417587E+00
          2   -1    0    0  502    0  0.00000000000E+00  0.00000000000E+00  0.40754836816E+02  0.40754836816E+02  0.00000000000E+00 0. -1.
          1   -1    0    0  501    0 -0.00000000000E+00 -0.00000000000E+00 -0.37380958001E+03  0.37380958001E+03  0.00000000000E+00 0.  1.
          2    1    1    2  501    0 -0.30150625291E+02 -0.22227054910E+01  0.34440692888E+02  0.45827523953E+02  0.00000000000E+00 0. -1.
          1    1    1    2  502    0  0.30150625291E+02  0.22227054910E+01 -0.36749543608E+03  0.36873689287E+03  0.00000000000E+00 0.  1.
</event>
<event>
 4    1  0.3837333E+003  0.2693070E+02  0.7546771E-02  0.1448306E+00
          2   -1    0    0  502    0  0.00000000000E+00  0.00000000000E+00  0.64589865439E+03  0.64589865439E+03  0.00000000000E+00 0. -1.
          1   -1    0    0  501    0 -0.00000000000E+00 -0.00000000000E+00 -0.12012301388E+02  0.12012301388E+02  0.00000000000E+00 0.  1.
          2    1    1    2  501    0 -0.14675983370E+02 -0.22580477195E+02  0.63014663265E+03  0.63072184129E+03  0.00000000000E+00 0. -1.
          1    1    1    2  502    0  0.14675983370E+02  0.22580477195E+02  0.37397203479E+01  0.27189114486E+02  0.00000000000E+00 0.  1.
</event>
<event>
 4    1  0.3837333E+003  0.2620350E+02  0.7546771E-02  0.1455777E+00
          2   -1    0    0  502    0  0.00000000000E+00  0.00000000000E+00  0.71645788343E+01  0.71645788343E+01  0.00000000000E+00 0. -1.
          1   -1    0    0  501    0 -0.00000000000E+00 -0.00000000000E+00 -0.21767927209E+03  0.21767927209E+03  0.00000000000E+00 0. -1.
          2    1    1    2  501    0  0.24809378730E+02 -0.84331684157E+01 -0.21148147035E+02  0.33672952433E+02  0.00000000000E+00 0. -1.
          1    1    1    2  502    0 -0.24809378730E+02  0.84331684157E+01 -0.18936654622E+03  0.19117089849E+03  0.00000000000E+00 0. -1.
</event>
<event>
 4    1  0.3837333E+003  0.3635950E+02  0.7546771E-02  0.1371249E+00
          2   -1    0    0  502    0  0.00000000000E+00  0.00000000000E+00  0.11910287531E+03  0.11910287531E+03  0.00000000000E+00 0.  1.
          1   -1    0    0  501    0 -0.00000000000E+00 -0.00000000000E+00 -0.30037705626E+03  0.30037705626E+03  0.00000000000E+00 0.  1.
          2    1    1    2  501    0  0.24422037947E+02  0.26936539931E+02  0.11519116378E+03  0.12079328348E+03  0.00000000000E+00 0.  1.
          1    1    1    2  502    0 -0.24422037947E+02 -0.26936539931E+02 -0.29646534473E+03  0.29868664809E+03  0.00000000000E+00 0.  1.
</event>
<event>
 4    1  0.3837333E+003  0.2236153E+02  0.7546771E-02  0.1500675E+00
          2   -1    0    0  502    0  0.00000000000E+00  0.00000000000E+00  0.88718978829E+03  0.88718978829E+03  0.00000000000E+00 0.  1.
          1   -1    0    0  501    0 -0.00000000000E+00 -0.00000000000E+00 -0.13849890728E+01  0.13849890728E+01  0.00000000000E+00 0.  1.
          2    1    1    2  501    0 -0.37214250340E+01  0.22049692658E+02  0.78504722244E+03  0.78536563421E+03  0.00000000000E+00 0.  1.
          1    1    1    2  502    0  0.37214250340E+01 -0.22049692658E+02  0.10075757678E+03  0.10320914314E+03  0.00000000000E+00 0.  1.
</event>
<event>
 4    1  0.3837333E+003  0.4217137E+02  0.7546771E-02  0.1336211E+00
          2   -1    0    0  502    0  0.00000000000E+00  0.00000000000E+00  0.17373384071E+02  0.17373384071E+02  0.00000000000E+00 0. -1.
          1   -1    0    0  501    0 -0.00000000000E+00 -0.00000000000E+00 -0.22591227728E+03  0.22591227728E+03  0.00000000000E+00 0. -1.
          2    1    1    2  501    0 -0.12474108977E+00 -0.42171184146E+02 -0.14312769279E+02  0.44534028529E+02  0.00000000000E+00 0. -1.
          1    1    1    2  502    0  0.12474108977E+00  0.42171184146E+02 -0.19422612393E+03  0.19875163282E+03  0.00000000000E+00 0. -1.
</event>
<event>
 4    1  0.3837333E+003  0.3060814E+02  0.7546771E-02  0.1414384E+00
          2   -1    0    0  502    0  0.00000000000E+00  0.00000000000E+00  0.46576062973E+03  0.46576062973E+03  0.00000000000E+00 0.  1.
          1   -1    0    0  501    0 -0.00000000000E+00 -0.00000000000E+00 -0.14078592268E+02  0.14078592268E+02  0.00000000000E+00 0.  1.
          2    1    1    2  501    0 -0.13184439188E+02  0.27622970479E+02  0.44796129541E+03  0.44900576847E+03  0.00000000000E+00 0.  1.
          1    1    1    2  502    0  0.13184439188E+02 -0.27622970479E+02  0.37207420491E+01  0.30833453524E+02  0.00000000000E+00 0.  1.
</event>
<event>
 4    1  0.3837333E+003  0.3645045E+02  0.7546771E-02  0.1370643E+00
          2   -1    0    0  502    0  0.00000000000E+00  0.00000000000E+00  0.10957452776E+02  0.10957452776E+02  0.00000000000E+00 0. -1.
          1   -1    0    0  501    0 -0.00000000000E+00 -0.00000000000E+00 -0.59082390495E+03  0.59082390495E+03  0.00000000000E+00 0.  1.
          2    1    1    2  501    0 -0.33998626420E+02  0.13142627370E+02 -0.21689347065E+02  0.42415363122E+02  0.00000000000E+00 0. -1.
          1    1    1    2  502    0  0.33998626420E+02 -0.13142627370E+02 -0.55817710510E+03  0.55936599460E+03  0.00000000000E+00 0.  1.
</event>
<event>
 4    1  0.3837333E+003  0.2439732E+02  0.7546771E-02  0.1475660E+00
          2   -1    0    0  502    0  0.00000000000E+00  0.00000000000E+00  0.83625304832E+02  0.83625304832E+02  0.00000000000E+00 0. -1.
          1   -1    0    0  501    0 -0.00000000000E+00 -0.00000000000E+00 -0.12488209601E+02  0.12488209601E+02  0.00000000000E+00 0. -1.
          2    1    1    2  501    0  0.23763115460E+02 -0.55266047727E+01  0.67082848728E+02  0.71381633563E+02  0.00000000000E+00 0. -1.
          1    1    1    2  502    0 -0.23763115460E+02  0.55266047727E+01  0.40542465032E+01  0.24731880870E+02  0.00000000000E+00 0. -1.
</event>
<event>
 4    1  0.3837333E+003  0.2189927E+02  0.7546771E-02  0.1506803E+00
          2   -1    0    0  502    0  0.00000000000E+00  0.00000000000E+00  0.90432808410E+03  0.90432808410E+03  0.00000000000E+00 0.  1.
          1   -1    0    0  501    0 -0.00000000000E+00 -0.00000000000E+00 -0.77002062569E+00  0.77002062569E+00  0.00000000000E+00 0.  1.
          2    1    1    2  501    0  0.21139810725E+02 -0.57171927335E+01  0.70427500305E+03  0.70461539709E+03  0.00000000000E+00 0.  1.
          1    1    1    2  502    0 -0.21139810725E+02  0.57171927335E+01  0.19928306042E+03  0.20048270763E+03  0.00000000000E+00 0.  1.
</event>
<event>
 4    1  0.3837333E+003  0.2074862E+02  0.7546771E-02  0.1522884E+00
          2   -1    0    0  502    0  0.00000000000E+00  0.00000000000E+00  0.13520630281E+04  0.13520630281E+04  0.00000000000E+00 0.  1.
          1   -1    0    0  501    0 -0.00000000000E+00 -0.00000000000E+00 -0.34284343202E+00  0.34284343202E+00  0.00000000000E+00 0.  1.
          2    1    1    2  501    0  0.19616832813E+02  0.67590875827E+01  0.85639209392E+03  0.85664340535E+03  0.00000000000E+00 0.  1.
          1    1    1    2  502    0 -0.19616832813E+02 -0.67590875827E+01  0.49532809076E+03  0.49576246620E+03  0.00000000000E+00 0.  1.
</event>
<event>
 4    1  0.3837333E+003  0.2045916E+02  0.7546771E-02  0.1527128E+00
          2   -1    0    0  502    0  0.00000000000E+00  0.00000000000E+00  0.45413712328E+03  0.45413712328E+03  0.00000000000E+00 0.  1.
          1   -1    0    0  501    0 -0.00000000000E+00 -0.00000000000E+00 -0.97566674973E+03  0.97566674973E+03  0.00000000000E+00 0.  1.
          2    1    1    2  501    0 -0.20385268462E+02 -0.17373131372E+01  0.45379936471E+03  0.45426032277E+03  0.00000000000E+00 0.  1.
          1    1    1    2  502    0  0.20385268462E+02  0.17373131372E+01 -0.97532899116E+03  0.97554355025E+03  0.00000000000E+00 0.  1.
</event>
<event>
 4    1  0.3837333E+003  0.2029503E+02  0.7546771E-02  0.1529572E+00
          2   -1    0    0  502    0  0.00000000000E+00  0.00000000000E+00  0.50786110867E+02  0.50786110867E+02  0.00000000000E+00 0.  1.
          1   -1    0    0  501    0 -0.00000000000E+00 -0.00000000000E+00 -0.95470422925E+01  0.95470422925E+01  0.00000000000E+00 0.  1.
          2    1    1    2  501    0 -0.97282483786E+01  0.17811484396E+02  0.89167451197E+01  0.22167456698E+02  0.00000000000E+00 0.  1.
          1    1    1    2  502    0  0.97282483786E+01 -0.17811484396E+02  0.32322323454E+02  0.38165696462E+02  0.00000000000E+00 0.  1.
</event>
<event>
 4    1  0.3837333E+003  0.2233450E+02  0.7546771E-02  0.1501028E+00
          2   -1    0    0  502    0  0.00000000000E+00  0.00000000000E+00  0.12058577987E+03  0.12058577987E+03  0.00000000000E+00 0.  1.
          1   -1    0    0  501    0 -0.00000000000E+00 -0.00000000000E+00 -0.83669982782E+01  0.83669982782E+01  0.00000000000E+00 0.  1.
          2    1    1    2  501    0  0.22270310329E+02 -0.16920360210E+01  0.10195526868E+03  0.10437292043E+03  0.00000000000E+00 0.  1.
          1    1    1    2  502    0 -0.22270310329E+02  0.16920360210E+01  0.10263512913E+02  0.24579857716E+02  0.00000000000E+00 0.  1.
</event>
<event>
 4    1  0.3837333E+003  0.3222396E+02  0.7546771E-02  0.1401206E+00
          2   -1    0    0  502    0  0.00000000000E+00  0.00000000000E+00  0.48666715305E+01  0.48666715305E+01  0.00000000000E+00 0. -1.
          1   -1    0    0  501    0 -0.00000000000E+00 -0.00000000000E+00 -0.14965635076E+04  0.14965635076E+04  0.00000000000E+00 0. -1.
          2    1    1    2  501    0 -0.15875651509E+02  0.28041880782E+02 -0.50705210477E+02  0.60078296898E+02  0.00000000000E+00 0. -1.
          1    1    1    2  502    0  0.15875651509E+02 -0.28041880782E+02 -0.14409916256E+04  0.14413518822E+04  0.00000000000E+00 0. -1.
</event>
<event>
 4    1  0.3837333E+003  0.4984072E+02  0.7546771E-02  0.1298865E+00
          2   -1    0    0  502    0  0.00000000000E+00  0.00000000000E+00  0.86810281027E+03  0.86810281027E+03  0.00000000000E+00 0.  1.
          1   -1    0    0  501    0 -0.00000000000E+00 -0.00000000000E+00 -0.32753556902E+02  0.32753556902E+02  0.00000000000E+00 0. -1.
          2    1    1    2  501    0  0.49103073175E+02 -0.85431559820E+01  0.84797730126E+03  0.84944075765E+03  0.00000000000E+00 0.  1.
          1    1    1    2  502    0 -0.49103073175E+02  0.85431559820E+01 -0.12628047886E+02  0.51415609524E+02  0.00000000000E+00 0. -1.
</event>
<event>
 4    1  0.3837333E+003  0.3031243E+02  0.7546771E-02  0.1416900E+00
          2   -1    0    0  502    0  0.00000000000E+00  0.00000000000E+00  0.28125340999E+03  0.28125340999E+03  0.00000000000E+00 0.  1.
          1   -1    0    0  501    0 -0.00000000000E+00 -0.00000000000E+00 -0.14329129429E+02  0.14329129429E+02  0.00000000000E+00 0.  1.
          2    1    1    2  501    0  0.10547252695E+02  0.28418289381E+02  0.26331724462E+03  0.26505624880E+03  0.00000000000E+00 0.  1.
          1    1    1    2  502    0 -0.10547252695E+02 -0.28418289381E+02  0.36070359370E+01  0.30526290620E+02  0.00000000000E+00 0.  1.
</event>
<event>
 4    1  0.3837333E+003  0.3581923E+02  0.7546771E-02  0.1374894E+00
          2   -1    0    0  502    0  0.00000000000E+00  0.00000000000E+00  0.14652558182E+03  0.14652558182E+03  0.00000000000E+00 0. -1.
          1   -1    0    0  501    0 -0.00000000000E+00 -0.00000000000E+00 -0.11162483858E+02  0.11162483858E+02  0.00000000000E+00 0. -1.
          2    1    1    2  501    0 -0.13804361889E+02 -0.33052331699E+02  0.10428784939E+03  0.11026773131E+03  0.00000000000E+00 0. -1.
          1    1    1    2  502    0  0.13804361889E+02  0.33052331699E+02  0.31075248577E+02  0.47420334372E+02  0.00000000000E+00 0. -1.
</event>
<event>
 4    1  0.3837333E+003  0.5731433E+02  0.7546771E-02  0.1269241E+00
          2   -1    0    0  502    0  0.00000000000E+00  0.00000000000E+00  0.82512127413E+02  0.82512127413E+02  0.00000000000E+00 0.  1.
          1   -1    0    0  501    0 -0.00000000000E+00 -0.00000000000E+00 -0.20030948752E+03  0.20030948752E+03  0.00000000000E+00 0. -1.
          2    1    1    2  501    0 -0.45797907727E+02  0.34459886872E+02  0.67681767838E+02  0.88689085309E+02  0.00000000000E+00 0.  1.
          1    1    1    2  502    0  0.45797907727E+02 -0.34459886872E+02 -0.18547912795E+03  0.19413252963E+03  0.00000000000E+00 0. -1.
</event>
<event>
 4    1  0.3837333E+003  0.6720129E+02  0.7546771E-02  0.1237150E+00
          2   -1    0    0  502    0  0.00000000000E+00  0.00000000000E+00  0.39358386350E+03  0.39358386350E+03  0.00000000000E+00 0.  1.
          1   -1    0    0  501    0 -0.00000000000E+00 -0.00000000000E+00 -0.14147592721E+02  0.14147592721E+02  0.00000000000E+00 0. -1.
          2    1    1    2  501    0  0.64972401120E+02 -0.17163939914E+02  0.27834060912E+03  0.28633810160E+03  0.00000000000E+00 0.  1.
          1    1    1    2  502    0 -0.64972401120E+02  0.17163939914E+02  0.10109566165E+03  0.12139335462E+03  0.00000000000E+00 0. -1.
</event>
<event>
 4    1  0.3837333E+003  0.2305286E+02  0.7546771E-02  0.1491835E+00
          2   -1    0    0  502    0  0.00000000000E+00  0.00000000000E+00  0.10449518752E+02  0.10449518752E+02  0.00000000000E+00 0.  1.
          1   -1    0    0  501    0 -0.00000000000E+00 -0.00000000000E+00 -0.51503909177E+02  0.51503909177E+02  0.00000000000E+00 0.  1.
          2    1    1    2  501    0 -0.18295914395E+01 -0.22980134391E+02 -0.23998132282E+02  0.33276783717E+02  0.00000000000E+00 0.  1.
          1    1    1    2  502    0  0.18295914395E+01  0.22980134391E+02 -0.17056258142E+02  0.28676644212E+02  0.00000000000E+00 0.  1.
</event>
<event>
 4    1  0.3837333E+003  0.4413378E+02  0.7546771E-02  0.1325828E+00
          2   -1    0    0  502    0  0.00000000000E+00  0.00000000000E+00  0.94771384780E+03  0.94771384780E+03  0.00000000000E+00 0.  1.
          1   -1    0    0  501    0 -0.00000000000E+00 -0.00000000000E+00 -0.24229249589E+01  0.24229249589E+01  0.00000000000E+00 0. -1.
          2    1    1    2  501    0 -0.41583957586E+02  0.14783948821E+02  0.65770738106E+03  0.65918646055E+03  0.00000000000E+00 0.  1.
          1    1    1    2  502    0  0.41583957586E+02 -0.14783948821E+02  0.28758354178E+03  0.29095031221E+03  0.00000000000E+00 0. -1.
</event>
<event>
 4    1  0.3837333E+003  0.3141003E+02  0.7546771E-02  0.1407727E+00
          2   -1    0    0  502    0  0.00000000000E+00  0.00000000000E+00  0.15383253781E+02  0.15383253781E+02  0.00000000000E+00 0. -1.
          1   -1    0    0  501    0 -0.00000000000E+00 -0.00000000000E+00 -0.20360958759E+04  0.20360958759E+04  0.00000000000E+00 0.  1.
          2    1    1    2  501    0  0.40714257195E+01  0.31145042767E+02 -0.90064919677E+00  0.31422943295E+02  0.00000000000E+00 0. -1.
          1    1    1    2  502    0 -0.40714257195E+01 -0.31145042767E+02 -0.20198119730E+04  0.20200561864E+04  0.00000000000E+00 0.  1.
</event>
<event>
 4    1  0.3837333E+003  0.2016968E+02  0.7546771E-02  0.1531458E+00
          2   -1    0    0  502    0  0.00000000000E+00  0.00000000000E+00  0.10186885341E+03  0.10186885341E+03  0.00000000000E+00 0.  1.
          1   -1    0    0  501    0 -0.00000000000E+00 -0.00000000000E+00 -0.45882971679E+01  0.45882971679E+01  0.00000000000E+00 0.  1.
          2    1    1    2  501    0  0.20150158099E+02  0.88717432682E+00  0.67804619629E+02  0.70740952727E+02  0.00000000000E+00 0.  1.
          1    1    1    2  502    0 -0.20150158099E+02 -0.88717432682E+00  0.29475936613E+02  0.35716197850E+02  0.00000000000E+00 0.  1.
</event>
<event>
 4    1  0.3837333E+003  0.3699335E+02  0.7546771E-02  0.1367066E+00
          2   -1    0    0  502    0  0.00000000000E+00  0.00000000000E+00  0.72999712359E+03  0.72999712359E+03  0.00000000000E+00 0.  1.
          1   -1    0    0  501    0 -0.00000000000E+00 -0.00000000000E+00 -0.42411989305E+03  0.42411989305E+03  0.00000000000E+00 0.  1.
          2    1    1    2  501    0 -0.36823079937E+01  0.36809628793E+02  0.72872036684E+03  0.72965874298E+03  0.00000000000E+00 0.  1.
          1    1    1    2  502    0  0.36823079937E+01 -0.36809628793E+02 -0.42284313630E+03  0.42445827366E+03  0.00000000000E+00 0.  1.
</event>
<event>
 4    1  0.3837333E+003  0.3288792E+02  0.7546771E-02  0.1396052E+00
          2   -1    0    0  502    0  0.00000000000E+00  0.00000000000E+00  0.12046305071E+04  0.12046305071E+04  0.00000000000E+00 0.  1.
          1   -1    0    0  501    0 -0.00000000000E+00 -0.00000000000E+00 -0.19396302490E+01  0.19396302490E+01  0.00000000000E+00 0. -1.
          2    1    1    2  501    0  0.29044864252E+02  0.15427616794E+02  0.10434699439E+04  0.10439880935E+04  0.00000000000E+00 0.  1.
          1    1    1    2  502    0 -0.29044864252E+02 -0.15427616794E+02  0.15922093288E+03  0.16258204381E+03  0.00000000000E+00 0. -1.
</event>
<event>
 4    1  0.3837333E+003  0.3010344E+02  0.7546771E-02  0.1418700E+00
          2   -1    0    0  502    0  0.00000000000E+00  0.00000000000E+00  0.20549172199E+04  0.20549172199E+04  0.00000000000E+00 0.  1.
          1   -1    0    0  501    0 -0.00000000000E+00 -0.00000000000E+00 -0.79790638706E+02  0.79790638706E+02  0.00000000000E+00 0. -1.
          2    1    1    2  501    0 -0.24722500572E+02  0.17176008950E+02  0.20519635234E+04  0.20521843286E+04  0.00000000000E+00 0.  1.
          1    1    1    2  502    0  0.24722500572E+02 -0.17176008950E+02 -0.76836942187E+02  0.82523529993E+02  0.00000000000E+00 0. -1.
</event>
<event>
 4    1  0.3837333E+003  0.3733131E+02  0.7546771E-02  0.1364876E+00
          2   -1    0    0  502    0  0.00000000000E+00  0.00000000000E+00  0.11595522756E+04  0.11595522756E+04  0.00000000000E+00 0.  1.
          1   -1    0    0  501    0 -0.00000000000E+00 -0.00000000000E+00 -0.15701045094E+02  0.15701045094E+02  0.00000000000E+00 0. -1.
          2    1    1    2  501    0 -0.30159256509E+02  0.22001039143E+02  0.11366140819E+04  0.11372269772E+04  0.00000000000E+00 0.  1.
          1    1    1    2  502    0  0.30159256509E+02 -0.22001039143E+02  0.72371485452E+01  0.38026343442E+02  0.00000000000E+00 0. -1.
</event>
<event>
 4    1  0.3837333E+003  0.3881058E+02  0.7546771E-02  0.1355600E+00
          2   -1    0    0  502    0  0.00000000000E+00  0.00000000000E+00  0.19855989873E+02  0.19855989873E+02  0.00000000000E+00 0. -1.
          1   -1    0    0  501    0 -0.00000000000E+00 -0.00000000000E+00 -0.46864247618E+03  0.46864247618E+03  0.00000000000E+00 0.  1.
          2    1    1    2  501    0  0.33100387473E+02  0.20263888392E+02 -0.78446857527E+00  0.38818503507E+02  0.00000000000E+00 0. -1.
          1    1    1    2  502    0 -0.33100387473E+02 -0.20263888392E+02 -0.44800201773E+03  0.44967996254E+03  0.00000000000E+00 0.  1.
</event>
<event>
 4    1  0.3837333E+003  0.2040930E+02  0.7546771E-02  0.1527868E+00
          2   -1    0    0  502    0  0.00000000000E+00  0.00000000000E+00  0.51930036067E+03  0.51930036067E+03  0.00000000000E+00 0.  1.
          1   -1    0    0  501    0 -0.00000000000E+00 -0.00000000000E+00 -0.24842023296E+01  0.24842023296E+01  0.00000000000E+00 0. -1.
          2    1    1    2  501    0 -0.41552992085E+01 -0.19981819918E+02  0.47308816588E+03  0.47352819592E+03  0.00000000000E+00 0.  1.
          1    1    1    2  502    0  0.41552992085E+01  0.19981819918E+02  0.43727992457E+02  0.48256367073E+02  0.00000000000E+00 0. -1.
</event>
<event>
 4    1  0.3837333E+003  0.2307684E+02  0.7546771E-02  0.1491536E+00
          2   -1    0    0  502    0  0.00000000000E+00  0.00000000000E+00  0.14519035063E+03  0.14519035063E+03  0.00000000000E+00 0. -1.
          1   -1    0    0  501    0 -0.00000000000E+00 -0.00000000000E+00 -0.11517229665E+03  0.11517229665E+03  0.00000000000E+00 0.  1.
          2    1    1    2  501    0  0.11282123753E+02 -0.20130927111E+02  0.14310064384E+03  0.14494942156E+03  0.00000000000E+00 0. -1.
          1    1    1    2  502    0 -0.11282123753E+02  0.20130927111E+02 -0.11308258986E+03  0.11541322572E+03  0.00000000000E+00 0.  1.
</event>
<event>
 4    1  0.3837333E+003  0.2804575E+02  0.7546771E-02  0.1437377E+00
          2   -1    0    0  502    0  0.00000000000E+00  0.00000000000E+00  0.13654938417E+04  0.13654938417E+04  0.00000000000E+00 0.  1.
          1   -1    0    0  501    0 -0.00000000000E+00 -0.00000000000E+00 -0.16479657496E+02  0.16479657496E+02  0.00000000000E+00 0. -1.
          2    1    1    2  501    0 -0.12449708428E+01 -0.28018100725E+02  0.13533100735E+04  0.13536006498E+04  0.00000000000E+00 0.  1.
          1    1    1    2  502    0  0.12449708428E+01  0.28018100725E+02 -0.42958893135E+01  0.28372849445E+02  0.00000000000E+00 0. -1.
</event>
<event>
 4    1  0.3837333E+003  0.2878211E+02  0.7546771E-02  0.1430483E+00
          2   -1    0    0  502    0  0.00000000000E+00  0.00000000000E+00  0.80255194888E+01  0.80255194888E+01  0.00000000000E+00 0. -1.
          1   -1    0    0  501    0 -0.00000000000E+00 -0.00000000000E+00 -0.12358906758E+03  0.12358906758E+03  0.00000000000E+00 0.  1.
          2    1    1    2  501    0  0.10003862919E+02  0.26987637555E+02 -0.31067173948E+02  0.42350668840E+02  0.00000000000E+00 0. -1.
          1    1    1    2  502    0 -0.10003862919E+02 -0.26987637555E+02 -0.84496374148E+02  0.89263918232E+02  0.00000000000E+00 0.  1.
</event>
<event>
 4    1  0.3837333E+003  0.2104346E+02  0.7546771E-02  0.1518645E+00
          2   -1    0    0  502    0  0.00000000000E+00  0.00000000000E+00  0.21892671936E+03  0.21892671936E+03  0.00000000000E+00 0.  1.
          1   -1    0    0  501    0 -0.00000000000E+00 -0.00000000000E+00 -0.17562879356E+03  0.17562879356E+03  0.00000000000E+00 0. -1.
          2    1    1    2  501    0  0.12502880096E+02 -0.16926469774E+02  0.21778740389E+03  0.21880169260E+03  0.00000000000E+00 0.  1.
          1    1    1    2  502    0 -0.12502880096E+02  0.16926469774E+02 -0.17448947810E+03  0.17575382032E+03  0.00000000000E+00 0. -1.
</event>
<event>
 4    1  0.3837333E+003  0.2470690E+02  0.7546771E-02  0.1472109E+00
          2   -1    0    0  502    0  0.00000000000E+00  0.00000000000E+00  0.13100607778E+01  0.13100607778E+01  0.00000000000E+00 0.  1.
          1   -1    0    0  501    0 -0.00000000000E+00 -0.00000000000E+00 -0.79876282586E+03  0.79876282586E+03  0.00000000000E+00 0. -1.
          2    1    1    2  501    0 -0.23983312446E+02  0.59356297158E+01 -0.14050833083E+03  0.14266401792E+03  0.00000000000E+00 0.  1.
          1    1    1    2  502    0  0.23983312446E+02 -0.59356297158E+01 -0.65694443426E+03  0.65740886872E+03  0.00000000000E+00 0. -1.
</event>
<event>
 4    1  0.3837333E+003  0.2004123E+02  0.7546771E-02  0.1533406E+00
          2   -1    0    0  502    0  0.00000000000E+00  0.00000000000E+00  0.15111079080E+04  0.15111079080E+04  0.00000000000E+00 0. -1.
          1   -1    0    0  501    0 -0.00000000000E+00 -0.00000000000E+00 -0.10084522416E+01  0.10084522416E+01  0.00000000000E+00 0.  1.
          2    1    1    2  501    0 -0.10670632791E+02  0.16964334686E+02  0.14038642664E+04  0.14040073111E+04  0.00000000000E+00 0. -1.
          1    1    1    2  502    0  0.10670632791E+02 -0.16964334686E+02  0.10623518939E+03  0.10810904920E+03  0.00000000000E+00 0.  1.
</event>
<event>
 4    1  0.3837333E+003  0.2574915E+02  0.7546771E-02  0.1460595E+00
          2   -1    0    0  502    0  0.00000000000E+00  0.00000000000E+00  0.13934697706E+02  0.13934697706E+02  0.00000000000E+00 0.  1.
          1   -1    0    0  501    0 -0.00000000000E+00 -0.00000000000E+00 -0.53636260027E+03  0.53636260027E+03  0.00000000000E+00 0.  1.
          2    1    1    2  501    0 -0.22674727270E+02  0.12201446447E+02  0.14471918315E+01  0.25789783178E+02  0.00000000000E+00 0.  1.
          1    1    1    2  502    0  0.22674727270E+02 -0.12201446447E+02 -0.52387509439E+03  0.52450751480E+03  0.00000000000E+00 0.  1.
</event>
<event>
 4    1  0.3837333E+003  0.2809233E+02  0.7546771E-02  0.1436934E+00
          2   -1    0    0  502    0  0.00000000000E+00  0.00000000000E+00  0.26767348260E+03  0.26767348260E+03  0.00000000000E+00 0.  1.
          1   -1    0    0  501    0 -0.00000000000E+00 -0.00000000000E+00 -0.34900144259E+03  0.34900144259E+03  0.00000000000E+00 0.  1.
          2    1    1    2  501    0  0.26323248673E+02  0.98115032813E+01  0.26636833574E+03  0.26784560721E+03  0.00000000000E+00 0.  1.
          1    1    1    2  502    0 -0.26323248673E+02 -0.98115032813E+01 -0.34769629573E+03  0.34882931798E+03  0.00000000000E+00 0.  1.
</event>
<event>
 4    1  0.3837333E+003  0.2135620E+02  0.7546771E-02  0.1514240E+00
          2   -1    0    0  502    0  0.00000000000E+00  0.00000000000E+00  0.28552101197E+03  0.28552101197E+03  0.00000000000E+00 0. -1.
          1   -1    0    0  501    0 -0.00000000000E+00 -0.00000000000E+00 -0.15513408515E+02  0.15513408515E+02  0.00000000000E+00 0. -1.
          2    1    1    2  501    0  0.14372107086E+02 -0.15796509341E+02  0.27756131549E+03  0.27838170023E+03  0.00000000000E+00 0. -1.
          1    1    1    2  502    0 -0.14372107086E+02  0.15796509341E+02 -0.75537120314E+01  0.22652720254E+02  0.00000000000E+00 0. -1.
</event>
<event>
 4    1  0.3837333E+003  0.2512416E+02  0.7546771E-02  0.1467419E+00
          2   -1    0    0  502    0  0.00000000000E+00  0.00000000000E+00  0.88098767342E+01  0.88098767342E+01  0.00000000000E+00 0. -1.
          1   -1    0    0  501    0 -0.00000000000E+00 -0.00000000000E+00 -0.14560068428E+04  0.14560068428E+04  0.00000000000E+00 0. -1.
          2    1    1    2  501    0 -0.23941359156E+02  0.76180629293E+01 -0.94382167359E+01  0.26838470451E+02  0.00000000000E+00 0. -1.
          1    1    1    2  502    0  0.23941359156E+02 -0.76180629293E+01 -0.14377587493E+04  0.14379782490E+04  0.00000000000E+00 0. -1.
</event>
<event>
 4    1  0.3837333E+003  0.6459943E+02  0.7546771E-02  0.1244958E+00
          2   -1    0    0  502    0  0.00000000000E+00  0.00000000000E+00  0.45560339536E+03  0.45560339536E+03  0.00000000000E+00 0. -1.
          1   -1    0    0  501    0 -0.00000000000E+00 -0.00000000000E+00 -0.18113380346E+02  0.18113380346E+02  0.00000000000E+00 0. -1.
          2    1    1    2  501    0 -0.50549516760E+01 -0.64401350989E+02  0.38527610256E+03  0.39065427394E+03  0.00000000000E+00 0. -1.
          1    1    1    2  502    0  0.50549516760E+01  0.64401350989E+02  0.52213912457E+02  0.83062501767E+02  0.00000000000E+00 0. -1.
</event>
<event>
 4    1  0.3837333E+003  0.3546460E+02  0.7546771E-02  0.1377326E+00
          2   -1    0    0  502    0  0.00000000000E+00  0.00000000000E+00  0.89877126648E+02  0.89877126648E+02  0.00000000000E+00 0. -1.
          1   -1    0    0  501    0 -0.00000000000E+00 -0.00000000000E+00 -0.17588361487E+02  0.17588361487E+02  0.00000000000E+00 0. -1.
          2    1    1    2  501    0  0.15329497163E+02  0.31980374311E+02  0.60435025520E+02  0.70072320740E+02  0.00000000000E+00 0. -1.
          1    1    1    2  502    0 -0.15329497163E+02 -0.31980374311E+02  0.11853739641E+02  0.37393167395E+02  0.00000000000E+00 0. -1.
</event>
<event>
 4    1  0.3837333E+003  0.2008752E+02  0.7546771E-02  0.1532702E+00
          2   -1    0    0  502    0  0.00000000000E+00  0.00000000000E+00  0.77921277090E+03  0.77921277090E+03  0.00000000000E+00 0. -1.
          1   -1    0    0  501    0 -0.00000000000E+00 -0.00000000000E+00 -0.18712502412E+01  0.18712502412E+01  0.00000000000E+00 0. -1.
          2    1    1    2  501    0 -0.19094976044E+02 -0.62362081625E+01  0.72080708456E+03  0.72108693065E+03  0.00000000000E+00 0. -1.
          1    1    1    2  502    0  0.19094976044E+02  0.62362081625E+01  0.56534436097E+02  0.59997090490E+02  0.00000000000E+00 0. -1.
</event>
<event>
 4    1  0.3837333E+003  0.3870853E+02  0.7546771E-02  0.1356225E+00
          2   -1    0    0  502    0  0.00000000000E+00  0.00000000000E+00  0.21793396970E+01  0.21793396970E+01  0.00000000000E+00 0.  1.
          1   -1    0    0  501    0 -0.00000000000E+00 -0.00000000000E+00 -0.18069524382E+04  0.18069524382E+04  0.00000000000E+00 0. -1.
          2    1    1    2  501    0  0.30558834684E+02 -0.23759375177E+02 -0.19041139076E+03  0.19430606788E+03  0.00000000000E+00 0.  1.
          1    1    1    2  502    0 -0.30558834684E+02  0.23759375177E+02 -0.16143617077E+04  0.16148257100E+04  0.00000000000E+00 0. -1.
</event>
<event>
 4    1  0.3837333E+003  0.4990437E+02  0.7546771E-02  0.1298588E+00
          2   -1    0    0  502    0  0.00000000000E+00  0.00000000000E+00  0.10885855184E+04  0.10885855184E+04  0.00000000000E+00 0. -1.
          1   -1    0    0  501    0 -0.00000000000E+00 -0.00000000000E+00 -0.96731135380E+01  0.96731135380E+01  0.00000000000E+00 0. -1.
          2    1    1    2  501    0 -0.15078140455E+02 -0.47572008786E+02  0.10192741465E+04  0.10204950917E+04  0.00000000000E+00 0. -1.
          1    1    1    2  502    0  0.15078140455E+02  0.47572008786E+02  0.59638258373E+02  0.77763540308E+02  0.00000000000E+00 0. -1.
</event>
<event>
 4    1  0.3837333E+003  0.2295152E+02  0.7546771E-02  0.1493108E+00
          2   -1    0    0  502    0  0.00000000000E+00  0.00000000000E+00  0.35881859613E+03  0.35881859613E+03  0.00000000000E+00 0. -1.
          1   -1    0    0  501    0 -0.00000000000E+00 -0.00000000000E+00 -0.15435919738E+01  0.15435919738E+01  0.00000000000E+00 0. -1.
          2    1    1    2  501    0 -0.18041556230E+02  0.14187101176E+02  0.13878336383E+03  0.14066838190E+03  0.00000000000E+00 0. -1.
          1    1    1    2  502    0  0.18041556230E+02 -0.14187101176E+02  0.21849164033E+03  0.21969380621E+03  0.00000000000E+00 0. -1.
</event>
<event>
 4    1  0.3837333E+003  0.2029330E+02  0.7546771E-02  0.1529598E+00
          2   -1    0    0  502    0  0.00000000000E+00  0.00000000000E+00  0.66698133420E+03  0.66698133420E+03  0.00000000000E+00 0.  1.
          1   -1    0    0  501    0 -0.00000000000E+00 -0.00000000000E+00 -0.51859338549E+02  0.51859338549E+02  0.00000000000E+00 0.  1.
          2    1    1    2  501    0  0.17547708326E+02  0.10192926995E+02  0.66483530501E+03  0.66514494707E+03  0.00000000000E+00 0.  1.
          1    1    1    2  502    0 -0.17547708326E+02 -0.10192926995E+02 -0.49713309360E+02  0.53695725675E+02  0.00000000000E+00 0.  1.
</event>
<event>
 4    1  0.3837333E+003  0.3285704E+02  0.7546771E-02  0.1396289E+00
          2   -1    0    0  502    0  0.00000000000E+00  0.00000000000E+00  0.54804133615E+02  0.54804133615E+02  0.00000000000E+00 0.  1.
          1   -1    0    0  501    0 -0.00000000000E+00 -0.00000000000E+00 -0.32906891587E+02  0.32906891587E+02  0.00000000000E+00 0.  1.
          2    1    1    2  501    0  0.30517540616E+02  0.12176407369E+02  0.38732823990E+02  0.50791897345E+02  0.00000000000E+00 0.  1.
          1    1    1    2  502    0 -0.30517540616E+02 -0.12176407369E+02 -0.16835581962E+02  0.36919127856E+02  0.00000000000E+00 0.  1.
</event>
<event>
 4    1  0.3837333E+003  0.2024457E+02  0.7546771E-02  0.1530329E+00
          2   -1    0    0  502    0  0.00000000000E+00  0.00000000000E+00  0.12496767106E+03  0.12496767106E+03  0.00000000000E+00 0.  1.
          1   -1    0    0  501    0 -0.00000000000E+00 -0.00000000000E+00 -0.38578344119E+01  0.38578344119E+01  0.00000000000E+00 0.  1.
          2    1    1    2  501    0  0.14782489872E+02 -0.13831863789E+02  0.85492628693E+02  0.87856883757E+02  0.00000000000E+00 0.  1.
          1    1    1    2  502    0 -0.14782489872E+02  0.13831863789E+02  0.35617207957E+02  0.40968621717E+02  0.00000000000E+00 0.  1.
</event>
<event>
 4    1  0.3837333E+003  0.3125203E+02  0.7546771E-02  0.1409020E+00
          2   -1    0    0  502    0  0.00000000000E+00  0.00000000000E+00  0.35223900204E+02  0.35223900204E+02  0.00000000000E+00 0. -1.
          1   -1    0    0  501    0 -0.00000000000E+00 -0.00000000000E+00 -0.50576837750E+02  0.50576837750E+02  0.00000000000E+00 0. -1.
          2    1    1    2  501    0 -0.26475878381E+02  0.16604738544E+02  0.21158330446E+02  0.37740752846E+02  0.00000000000E+00 0. -1.
          1    1    1    2  502    0  0.26475878381E+02 -0.16604738544E+02 -0.36511267992E+02  0.48059985108E+02  0.00000000000E+00 0. -1.
</event>
<event>
 4    1  0.3837333E+003  0.3261864E+02  0.7546771E-02  0.1398125E+00
          2   -1    0    0  502    0  0.00000000000E+00  0.00000000000E+00  0.14063972135E+03  0.14063972135E+03  0.00000000000E+00 0.  1.
          1   -1    0    0  501    0 -0.00000000000E+00 -0.00000000000E+00 -0.12046138126E+02  0.12046138126E+02  0.00000000000E+00 0. -1.
          2    1    1    2  501    0 -0.69181785933E+01  0.31876552426E+02  0.11085824860E+03  0.11555746221E+03  0.00000000000E+00 0.  1.
          1    1    1    2  502    0  0.69181785933E+01 -0.31876552426E+02  0.17735334628E+02  0.37128397272E+02  0.00000000000E+00 0. -1.
</event>
<event>
 4    1  0.3837333E+003  0.5185709E+02  0.7546771E-02  0.1290315E+00
          2   -1    0    0  502    0  0.00000000000E+00  0.00000000000E+00  0.20314924840E+02  0.20314924840E+02  0.00000000000E+00 0.  1.
          1   -1    0    0  501    0 -0.00000000000E+00 -0.00000000000E+00 -0.11795993923E+04  0.11795993923E+04  0.00000000000E+00 0.  1.
          2    1    1    2  501    0  0.51402587733E+02 -0.68506746189E+01 -0.14349823414E+02  0.53805903026E+02  0.00000000000E+00 0.  1.
          1    1    1    2  502    0 -0.51402587733E+02  0.68506746189E+01 -0.11449346440E+04  0.11461084141E+04  0.00000000000E+00 0.  1.
</event>
<event>
 4    1  0.3837333E+003  0.2409432E+02  0.7546771E-02  0.1479196E+00
          2   -1    0    0  502    0  0.00000000000E+00  0.00000000000E+00  0.18933996687E+03  0.18933996687E+03  0.00000000000E+00 0. -1.
          1   -1    0    0  501    0 -0.00000000000E+00 -0.00000000000E+00 -0.18888174148E+03  0.18888174148E+03  0.00000000000E+00 0.  1.
          2    1    1    2  501    0  0.23417828818E+02  0.56693395032E+01  0.18779877495E+03  0.18933809968E+03  0.00000000000E+00 0. -1.
          1    1    1    2  502    0 -0.23417828818E+02 -0.56693395032E+01 -0.18734054956E+03  0.18888360868E+03  0.00000000000E+00 0.  1.
</event>
<event>
 4    1  0.3837333E+003  0.2337406E+02  0.7546771E-02  0.1487854E+00
          2   -1    0    0  502    0  0.00000000000E+00  0.00000000000E+00  0.13959094248E+04  0.13959094248E+04  0.00000000000E+00 0.  1.
          1   -1    0    0  501    0 -0.00000000000E+00 -0.00000000000E+00 -0.40078488663E+00  0.40078488663E+00  0.00000000000E+00 0.  1.
          2    1    1    2  501    0  0.10680861424E+01  0.23349647425E+02  0.80463798447E+03  0.80497741142E+03  0.00000000000E+00 0.  1.
          1    1    1    2  502    0 -0.10680861424E+01 -0.23349647425E+02  0.59087065541E+03  0.59133279824E+03  0.00000000000E+00 0.  1.
</event>
<event>
 4    1  0.3837333E+003  0.3517976E+02  0.7546771E-02  0.1379304E+00
          2   -1    0    0  502    0  0.00000000000E+00  0.00000000000E+00  0.31035117130E+02  0.31035117130E+02  0.00000000000E+00 0. -1.
          1   -1    0    0  501    0 -0.00000000000E+00 -0.00000000000E+00 -0.58245119948E+03  0.58245119948E+03  0.00000000000E+00 0.  1.
          2    1    1    2  501    0 -0.31657170449E+02 -0.15344016595E+02  0.20348268916E+02  0.40640710303E+02  0.00000000000E+00 0. -1.
          1    1    1    2  502    0  0.31657170449E+02  0.15344016595E+02 -0.57176435127E+03  0.57284560631E+03  0.00000000000E+00 0.  1.
</event>
<event>
 4    1  0.3837333E+003  0.2371979E+02  0.7546771E-02  0.1483652E+00
          2   -1    0    0  502    0  0.00000000000E+00  0.00000000000E+00  0.74640399132E+03  0.74640399132E+03  0.00000000000E+00 0.  1.
          1   -1    0    0  501    0 -0.00000000000E+00 -0.00000000000E+00 -0.20728700774E+01  0.20728700774E+01  0.00000000000E+00 0. -1.
          2    1    1    2  501    0 -0.21814483749E+02 -0.93143357031E+01  0.67070289693E+03  0.67112219789E+03  0.00000000000E+00 0.  1.
          1    1    1    2  502    0  0.21814483749E+02  0.93143357031E+01  0.73628224306E+02  0.77354663500E+02  0.00000000000E+00 0. -1.
</event>
<event>
 4    1  0.3837333E+003  0.2357768E+02  0.7546771E-02  0.1485369E+00
          2   -1    0    0  502    0  0.00000000000E+00  0.00000000000E+00  0.97690479871E+02  0.97690479871E+02  0.00000000000E+00 0. -1.
          1   -1    0    0  501    0 -0.00000000000E+00 -0.00000000000E+00 -0.28118796743E+02  0.28118796743E+02  0.00000000000E+00 0. -1.
          2    1    1    2  501    0 -0.23563142888E+02  0.82778800266E+00  0.90965943571E+02  0.93971856561E+02  0.00000000000E+00 0. -1.
          1    1    1    2  502    0  0.23563142888E+02 -0.82778800266E+00 -0.21394260442E+02  0.31837420053E+02  0.00000000000E+00 0. -1.
</event>
<event>
 4    1  0.3837333E+003  0.3060780E+02  0.7546771E-02  0.1414387E+00
          2   -1    0    0  502    0  0.00000000000E+00  0.00000000000E+00  0.18719640643E+02  0.18719640643E+02  0.00000000000E+00 0.  1.
          1   -1    0    0  501    0 -0.00000000000E+00 -0.00000000000E+00 -0.40858407953E+03  0.40858407953E+03  0.00000000000E+00 0. -1.
          2    1    1    2  501    0 -0.28866251017E+02 -0.10177272135E+02  0.52077320847E+01  0.31047669629E+02  0.00000000000E+00 0.  1.
          1    1    1    2  502    0  0.28866251017E+02  0.10177272135E+02 -0.39507217097E+03  0.39625605055E+03  0.00000000000E+00 0. -1.
</event>
<event>
 4    1  0.3837333E+003  0.2533743E+02  0.7546771E-02  0.1465064E+00
          2   -1    0    0  502    0  0.00000000000E+00  0.00000000000E+00  0.15363236762E+02  0.15363236762E+02  0.00000000000E+00 0.  1.
          1   -1    0    0  501    0 -0.00000000000E+00 -0.00000000000E+00 -0.87303414552E+02  0.87303414552E+02  0.00000000000E+00 0. -1.
          2    1    1    2  501    0 -0.72490127172E+01  0.24278329788E+02  0.10951851809E+01  0.25361090537E+02  0.00000000000E+00 0.  1.
          1    1    1    2  502    0  0.72490127172E+01 -0.24278329788E+02 -0.73035362972E+02  0.77305560777E+02  0.00000000000E+00 0. -1.
</event>
<event>
 4    1  0.3837333E+003  0.2074821E+02  0.7546771E-02  0.1522890E+00
          2   -1    0    0  502    0  0.00000000000E+00  0.00000000000E+00  0.10954668011E+04  0.10954668011E+04  0.00000000000E+00 0. -1.
          1   -1    0    0  501    0 -0.00000000000E+00 -0.00000000000E+00 -0.41539809925E+00  0.41539809925E+00  0.00000000000E+00 0. -1.
          2    1    1    2  501    0 -0.14100546930E-01  0.20748206281E+02  0.67483913345E+03  0.67515801432E+03  0.00000000000E+00 0. -1.
          1    1    1    2  502    0  0.14100546930E-01 -0.20748206281E+02  0.42021226952E+03  0.42072418485E+03  0.00000000000E+00 0. -1.
</event>
<event>
 4    1  0.3837333E+003  0.2309388E+02  0.7546771E-02  0.1491323E+00
          2   -1    0    0  502    0  0.00000000000E+00  0.00000000000E+00  0.84401835920E+03  0.84401835920E+03  0.00000000000E+00 0. -1.
          1   -1    0    0  501    0 -0.00000000000E+00 -0.00000000000E+00 -0.91486389239E+01  0.91486389239E+01  0.00000000000E+00 0.  1.
          2    1    1    2  501    0  0.22556497992E+02 -0.49529611657E+01  0.82902286619E+03  0.82934446408E+03  0.00000000000E+00 0. -1.
          1    1    1    2  502    0 -0.22556497992E+02  0.49529611657E+01  0.58468540908E+01  0.23822534054E+02  0.00000000000E+00 0.  1.
</event>
<event>
 4    1  0.3837333E+003  0.2241781E+02  0.7546771E-02  0.1499941E+00
          2   -1    0    0  502    0  0.00000000000E+00  0.00000000000E+00  0.10653255174E+04  0.10653255174E+04  0.00000000000E+00 0.  1.
          1   -1    0    0  501    0 -0.00000000000E+00 -0.00000000000E+00 -0.39669209826E+01  0.39669209826E+01  0.00000000000E+00 0.  1.
          2    1    1    2  501    0 -0.67163159712E+01  0.21388063545E+02  0.10325299260E+04  0.10327732599E+04  0.00000000000E+00 0.  1.
          1    1    1    2  502    0  0.67163159712E+01 -0.21388063545E+02  0.28828670373E+02  0.36519178494E+02  0.00000000000E+00 0.  1.
</event>
<event>
 4    1  0.3837333E+003  0.2086159E+02  0.7546771E-02  0.1521250E+00
          2   -1    0    0  502    0  0.00000000000E+00  0.00000000000E+00  0.19021315447E+02  0.19021315447E+02  0.00000000000E+00 0. -1.
          1   -1    0    0  501    0 -0.00000000000E+00 -0.00000000000E+00 -0.12116625145E+03  0.12116625145E+03  0.00000000000E+00 0. -1.
          2    1    1    2  501    0 -0.77287901784E+01  0.19377090631E+02  0.12057456239E+02  0.24095395616E+02  0.00000000000E+00 0. -1.
          1    1    1    2  502    0  0.77287901784E+01 -0.19377090631E+02 -0.11420239224E+03  0.11609217128E+03  0.00000000000E+00 0. -1.
</event>
<event>
 4    1  0.3837333E+003  0.2776105E+02  0.7546771E-02  0.1440109E+00
          2   -1    0    0  502    0  0.00000000000E+00  0.00000000000E+00  0.14385469338E+04  0.14385469338E+04  0.00000000000E+00 0. -1.
          1   -1    0    0  501    0 -0.00000000000E+00 -0.00000000000E+00 -0.32405352541E+02  0.32405352541E+02  0.00000000000E+00 0. -1.
          2    1    1    2  501    0 -0.27759226300E+02 -0.31796086948E+00  0.14324420741E+04  0.14327110565E+04  0.00000000000E+00 0. -1.
          1    1    1    2  502    0  0.27759226300E+02  0.31796086948E+00 -0.26300492785E+02  0.38241229905E+02  0.00000000000E+00 0. -1.
</event>
<event>
 4    1  0.3837333E+003  0.5161102E+02  0.7546771E-02  0.1291335E+00
          2   -1    0    0  502    0  0.00000000000E+00  0.00000000000E+00  0.35200234485E+01  0.35200234485E+01  0.00000000000E+00 0.  1.
          1   -1    0    0  501    0 -0.00000000000E+00 -0.00000000000E+00 -0.19222604789E+04  0.19222604789E+04  0.00000000000E+00 0.  1.
          2    1    1    2  501    0  0.50160691940E+02  0.12149181818E+02 -0.20959169371E+03  0.21585267130E+03  0.00000000000E+00 0.  1.
          1    1    1    2  502    0 -0.50160691940E+02 -0.12149181818E+02 -0.17091487617E+04  0.17099278310E+04  0.00000000000E+00 0.  1.
</event>
<event>
 4    1  0.3837333E+003  0.3580038E+02  0.7546771E-02  0.1375022E+00
          2   -1    0    0  502    0  0.00000000000E+00  0.00000000000E+00  0.55663065154E+03  0.55663065154E+03  0.00000000000E+00 0. -1.
          1   -1    0    0  501    0 -0.00000000000E+00 -0.00000000000E+00 -0.68462113393E+02  0.68462113393E+02  0.00000000000E+00 0.  1.
          2    1    1    2  501    0  0.10060519915E+02  0.34357726640E+02  0.55132985739E+03  0.55249097647E+03  0.00000000000E+00 0. -1.
          1    1    1    2  502    0 -0.10060519915E+02 -0.34357726640E+02 -0.63161319233E+02  0.72601788463E+02  0.00000000000E+00 0.  1.
</event>
<event>
 4    1  0.3837333E+003  0.2991190E+02  0.7546771E-02  0.1420364E+00
          2   -1    0    0  502    0  0.00000000000E+00  0.00000000000E+00  0.42812635499E+02  0.42812635499E+02  0.00000000000E+00 0. -1.
          1   -1    0    0  501    0 -0.00000000000E+00 -0.00000000000E+00 -0.38343702202E+03  0.38343702202E+03  0.00000000000E+00 0. -1.
          2    1    1    2  501    0  0.26514523696E+02 -0.13845644864E+02  0.36923270851E+02  0.47518941264E+02  0.00000000000E+00 0. -1.
          1    1    1    2  502    0 -0.26514523696E+02  0.13845644864E+02 -0.37754765737E+03  0.37873071625E+03  0.00000000000E+00 0. -1.
</event>
<event>
 4    1  0.3837333E+003  0.2628686E+02  0.7546771E-02  0.1454906E+00
          2   -1    0    0  502    0  0.00000000000E+00  0.00000000000E+00  0.47345810199E+03  0.47345810199E+03  0.00000000000E+00 0.  1.
          1   -1    0    0  501    0 -0.00000000000E+00 -0.00000000000E+00 -0.18797490023E+01  0.18797490023E+01  0.00000000000E+00 0.  1.
          2    1    1    2  501    0  0.16970713316E+00 -0.26286315704E+02  0.34816940256E+03  0.34916032431E+03  0.00000000000E+00 0.  1.
          1    1    1    2  502    0 -0.16970713316E+00  0.26286315704E+02  0.12340895043E+03  0.12617752668E+03  0.00000000000E+00 0.  1.
</event>
<event>
 4    1  0.3837333E+003  0.2326316E+02  0.7546771E-02  0.1489220E+00
          2   -1    0    0  502    0  0.00000000000E+00  0.00000000000E+00  0.21264563186E+03  0.21264563186E+03  0.00000000000E+00 0. -1.
          1   -1    0    0  501    0 -0.00000000000E+00 -0.00000000000E+00 -0.18366342339E+03  0.18366342339E+03  0.00000000000E+00 0. -1.
          2    1    1    2  501    0  0.13242379839E+02 -0.19126260266E+02  0.21126796409E+03  0.21254488257E+03  0.00000000000E+00 0. -1.
          1    1    1    2  502    0 -0.13242379839E+02  0.19126260266E+02 -0.18228575563E+03  0.18376417268E+03  0.00000000000E+00 0. -1.
</event>
<event>
 4    1  0.3837333E+003  0.2862331E+02  0.7546771E-02  0.1431949E+00
          2   -1    0    0  502    0  0.00000000000E+00  0.00000000000E+00  0.17245372155E+03  0.17245372155E+03  0.00000000000E+00 0.  1.
          1   -1    0    0  501    0 -0.00000000000E+00 -0.00000000000E+00 -0.18852450076E+02  0.18852450076E+02  0.00000000000E+00 0.  1.
          2    1    1    2  501    0  0.18427530982E+02 -0.21902515551E+02  0.15952814861E+03  0.16207567456E+03  0.00000000000E+00 0.  1.
          1    1    1    2  502    0 -0.18427530982E+02  0.21902515551E+02 -0.59268771431E+01  0.29230497057E+02  0.00000000000E+00 0.  1.
</event>
<event>
 4    1  0.3837333E+003  0.4830802E+02  0.7546771E-02  0.1305680E+00
          2   -1    0    0  502    0  0.00000000000E+00  0.00000000000E+00  0.26978430512E+01  0.26978430512E+01  0.00000000000E+00 0. -1.
          1   -1    0    0  501    0 -0.00000000000E+00 -0.00000000000E+00 -0.89555402763E+03  0.89555402763E+03  0.00000000000E+00 0.  1.
          2    1    1    2  501    0  0.18892233409E+02 -0.44460640489E+02 -0.36348593461E+03  0.36668200078E+03  0.00000000000E+00 0. -1.
          1    1    1    2  502    0 -0.18892233409E+02  0.44460640489E+02 -0.52937024997E+03  0.53156986990E+03  0.00000000000E+00 0.  1.
</event>
<event>
 4    1  0.3837333E+003  0.2058192E+02  0.7546771E-02  0.1525318E+00
          2   -1    0    0  502    0  0.00000000000E+00  0.00000000000E+00  0.48438727341E+00  0.48438727341E+00  0.00000000000E+00 0. -1.
          1   -1    0    0  501    0 -0.00000000000E+00 -0.00000000000E+00 -0.13746013702E+04  0.13746013702E+04  0.00000000000E+00 0. -1.
          2    1    1    2  501    0  0.15281986609E+02  0.13786821313E+02 -0.27236855709E+03  0.27314510145E+03  0.00000000000E+00 0. -1.
          1    1    1    2  502    0 -0.15281986609E+02 -0.13786821313E+02 -0.11017484259E+04  0.11019406561E+04  0.00000000000E+00 0. -1.
</event>
<event>
 4    1  0.3837333E+003  0.3082417E+02  0.7546771E-02  0.1412567E+00
          2   -1    0    0  502    0  0.00000000000E+00  0.00000000000E+00  0.58406290830E+03  0.58406290830E+03  0.00000000000E+00 0.  1.
          1   -1    0    0  501    0 -0.00000000000E+00 -0.00000000000E+00 -0.16300731713E+01  0.16300731713E+01  0.00000000000E+00 0.  1.
          2    1    1    2  501    0  0.26012484076E+02  0.16537243250E+02  0.30442046804E+03  0.30597704343E+03  0.00000000000E+00 0.  1.
          1    1    1    2  502    0 -0.26012484076E+02 -0.16537243250E+02  0.27801236708E+03  0.27971593804E+03  0.00000000000E+00 0.  1.
</event>
<event>
 4    1  0.3837333E+003  0.2044759E+02  0.7546771E-02  0.1527300E+00
          2   -1    0    0  502    0  0.00000000000E+00  0.00000000000E+00  0.12317046710E+04  0.12317046710E+04  0.00000000000E+00 0.  1.
          1   -1    0    0  501    0 -0.00000000000E+00 -0.00000000000E+00 -0.62519446355E+01  0.62519446355E+01  0.00000000000E+00 0.  1.
          2    1    1    2  501    0  0.20272014323E+02  0.26738362200E+01  0.12146663485E+04  0.12148384429E+04  0.00000000000E+00 0.  1.
          1    1    1    2  502    0 -0.20272014323E+02 -0.26738362200E+01  0.10786377773E+02  0.23118172729E+02  0.00000000000E+00 0.  1.
</event>
<event>
 4    1  0.3837333E+003  0.2122141E+02  0.7546771E-02  0.1516127E+00
          2   -1    0    0  502    0  0.00000000000E+00  0.00000000000E+00  0.58042674322E+01  0.58042674322E+01  0.00000000000E+00 0.  1.
          1   -1    0    0  501    0 -0.00000000000E+00 -0.00000000000E+00 -0.70772399833E+03  0.70772399833E+03  0.00000000000E+00 0.  1.
          2    1    1    2  501    0 -0.17467337581E+02  0.12051555717E+02 -0.68760007764E+03  0.68792747775E+03  0.00000000000E+00 0.  1.
          1    1    1    2  502    0  0.17467337581E+02 -0.12051555717E+02 -0.14319653264E+02  0.25600788015E+02  0.00000000000E+00 0.  1.
</event>
<event>
 4    1  0.3837333E+003  0.7793941E+02  0.7546771E-02  0.1208714E+00
          2   -1    0    0  502    0  0.00000000000E+00  0.00000000000E+00  0.23104092016E+03  0.23104092016E+03  0.00000000000E+00 0.  1.
          1   -1    0    0  501    0 -0.00000000000E+00 -0.00000000000E+00 -0.26928624685E+02  0.26928624685E+02  0.00000000000E+00 0. -1.
          2    1    1    2  501    0  0.65320818147E+02  0.42517555975E+02  0.12188683165E+03  0.14467533162E+03  0.00000000000E+00 0.  1.
          1    1    1    2  502    0 -0.65320818147E+02 -0.42517555975E+02  0.82225463825E+02  0.11329421323E+03  0.00000000000E+00 0. -1.
</event>
<event>
 4    1  0.3837333E+003  0.2365419E+02  0.7546771E-02  0.1484443E+00
          2   -1    0    0  502    0  0.00000000000E+00  0.00000000000E+00  0.13645025969E+04  0.13645025969E+04  0.00000000000E+00 0. -1.
          1   -1    0    0  501    0 -0.00000000000E+00 -0.00000000000E+00 -0.90461580238E+02  0.90461580238E+02  0.00000000000E+00 0.  1.
          2    1    1    2  501    0  0.71679544910E+00 -0.23643322968E+02  0.13628519173E+04  0.13630571775E+04  0.00000000000E+00 0. -1.
          1    1    1    2  502    0 -0.71679544910E+00  0.23643322968E+02 -0.88810900644E+02  0.91906999679E+02  0.00000000000E+00 0.  1.
</event>
<event>
 4    1  0.3837333E+003  0.2191430E+02  0.7546771E-02  0.1506601E+00
          2   -1    0    0  502    0  0.00000000000E+00  0.00000000000E+00  0.59469605389E+03  0.59469605389E+03  0.00000000000E+00 0. -1.
          1   -1    0    0  501    0 -0.00000000000E+00 -0.00000000000E+00 -0.73475028529E+01  0.73475028529E+01  0.00000000000E+00 0. -1.
          2    1    1    2  501    0 -0.97442832863E+00  0.21892627901E+02  0.57767268633E+03  0.57808820192E+03  0.00000000000E+00 0. -1.
          1    1    1    2  502    0  0.97442832863E+00 -0.21892627901E+02  0.96758647108E+01  0.23955354827E+02  0.00000000000E+00 0. -1.
</event>
<event>
 4    1  0.3837333E+003  0.2484775E+02  0.7546771E-02  0.1470514E+00
          2   -1    0    0  502    0  0.00000000000E+00  0.00000000000E+00  0.20713574657E+03  0.20713574657E+03  0.00000000000E+00 0. -1.
          1   -1    0    0  501    0 -0.00000000000E+00 -0.00000000000E+00 -0.13862847754E+03  0.13862847754E+03  0.00000000000E+00 0. -1.
          2    1    1    2  501    0  0.87952648183E+01  0.23239066799E+02  0.20526704310E+03  0.20676549493E+03  0.00000000000E+00 0. -1.
          1    1    1    2  502    0 -0.87952648183E+01 -0.23239066799E+02 -0.13675977407E+03  0.13899872918E+03  0.00000000000E+00 0. -1.
</event>
<event>
 4    1  0.3837333E+003  0.2893878E+02  0.7546771E-02  0.1429048E+00
          2   -1    0    0  502    0  0.00000000000E+00  0.00000000000E+00  0.66169335874E+02  0.66169335874E+02  0.00000000000E+00 0.  1.
          1   -1    0    0  501    0 -0.00000000000E+00 -0.00000000000E+00 -0.93154559449E+03  0.93154559449E+03  0.00000000000E+00 0.  1.
          2    1    1    2  501    0  0.17466104882E+02  0.23073538121E+02  0.62768946099E+02  0.69118691940E+02  0.00000000000E+00 0.  1.
          1    1    1    2  502    0 -0.17466104882E+02 -0.23073538121E+02 -0.92814520471E+03  0.92859623842E+03  0.00000000000E+00 0.  1.
</event>
<event>
 4    1  0.3837333E+003  0.3966354E+02  0.7546771E-02  0.1350469E+00
          2   -1    0    0  502    0  0.00000000000E+00  0.00000000000E+00  0.14867748458E+01  0.14867748458E+01  0.00000000000E+00 0.  1.
          1   -1    0    0  501    0 -0.00000000000E+00 -0.00000000000E+00 -0.19437159477E+04  0.19437159477E+04  0.00000000000E+00 0. -1.
          2    1    1    2  501    0 -0.36046589939E+02 -0.16548114337E+02 -0.31461486361E+03  0.31710520201E+03  0.00000000000E+00 0.  1.
          1    1    1    2  502    0  0.36046589939E+02  0.16548114337E+02 -0.16276143093E+04  0.16280975206E+04  0.00000000000E+00 0. -1.
</event>
<event>
 4    1  0.3837333E+003  0.2712540E+02  0.7546771E-02  0.1446352E+00
          2   -1    0    0  502    0  0.00000000000E+00  0.00000000000E+00  0.28338650131E+00  0.28338650131E+00  0.00000000000E+00 0. -1.
          1   -1    0    0  501    0 -0.00000000000E+00 -0.00000000000E+00 -0.26453919486E+04  0.26453919486E+04  0.00000000000E+00 0. -1.
          2    1    1    2  501    0  0.23198124725E+02 -0.14058253220E+02 -0.11425508898E+04  0.11428728378E+04  0.00000000000E+00 0. -1.
          1    1    1    2  502    0 -0.23198124725E+02  0.14058253220E+02 -0.15025576723E+04  0.15028024974E+04  0.00000000000E+00 0. -1.
</event>
<event>
 4    1  0.3837333E+003  0.2610629E+02  0.7546771E-02  0.1456798E+00
          2   -1    0    0  502    0  0.00000000000E+00  0.00000000000E+00  0.87489077940E+02  0.87489077940E+02  0.00000000000E+00 0.  1.
          1   -1    0    0  501    0 -0.00000000000E+00 -0.00000000000E+00 -0.79026803151E+02  0.79026803151E+02  0.00000000000E+00 0.  1.
          2    1    1    2  501    0  0.18986079883E+02  0.17918341946E+02  0.83279108494E+02  0.87275128868E+02  0.00000000000E+00 0.  1.
          1    1    1    2  502    0 -0.18986079883E+02 -0.17918341946E+02 -0.74816833704E+02  0.79240752223E+02  0.00000000000E+00 0.  1.
</event>
<event>
 4    1  0.3837333E+003  0.2289879E+02  0.7546771E-02  0.1493773E+00
          2   -1    0    0  502    0  0.00000000000E+00  0.00000000000E+00  0.78385251785E+03  0.78385251785E+03  0.00000000000E+00 0.  1.
          1   -1    0    0  501    0 -0.00000000000E+00 -0.00000000000E+00 -0.22088554414E+02  0.22088554414E+02  0.00000000000E+00 0.  1.
          2    1    1    2  501    0 -0.11455683386E+01  0.22870118313E+02  0.77770368250E+03  0.77804072671E+03  0.00000000000E+00 0.  1.
          1    1    1    2  502    0  0.11455683386E+01 -0.22870118313E+02 -0.15939719064E+02  0.27900345559E+02  0.00000000000E+00 0.  1.
</event>
<event>
 4    1  0.3837333E+003  0.2528830E+02  0.7546771E-02  0.1465604E+00
          2   -1    0    0  502    0  0.00000000000E+00  0.00000000000E+00  0.14355670659E+04  0.14355670659E+04  0.00000000000E+00 0.  1.
          1   -1    0    0  501    0 -0.00000000000E+00 -0.00000000000E+00 -0.49094906814E+00  0.49094906814E+00  0.00000000000E+00 0.  1.
          2    1    1    2  501    0  0.18445793796E+02 -0.17298843242E+02  0.49899076726E+03  0.49963114705E+03  0.00000000000E+00 0.  1.
          1    1    1    2  502    0 -0.18445793796E+02  0.17298843242E+02  0.93608534954E+03  0.93642686789E+03  0.00000000000E+00 0.  1.
</event>
<event>
 4    1  0.3837333E+003  0.3004195E+02  0.7546771E-02  0.1419232E+00
          2   -1    0    0  502    0  0.00000000000E+00  0.00000000000E+00  0.35668895588E+03  0.35668895588E+03  0.00000000000E+00 0.  1.
          1   -1    0    0  501    0 -0.00000000000E+00 -0.00000000000E+00 -0.41350627234E+01  0.41350627234E+01  0.00000000000E+00 0.  1.
          2    1    1    2  501    0  0.21909151663E+02 -0.20555001787E+02  0.28866858300E+03  0.29022761729E+03  0.00000000000E+00 0.  1.
          1    1    1    2  502    0 -0.21909151663E+02  0.20555001787E+02  0.63885310161E+02  0.70596401320E+02  0.00000000000E+00 0.  1.
</event>
<event>
 4    1  0.3837333E+003  0.2944898E+02  0.7546771E-02  0.1424446E+00
          2   -1    0    0  502    0  0.00000000000E+00  0.00000000000E+00  0.51599133458E+02  0.51599133458E+02  0.00000000000E+00 0.  1.
          1   -1    0    0  501    0 -0.00000000000E+00 -0.00000000000E+00 -0.56243634351E+03  0.56243634351E+03  0.00000000000E+00 0. -1.
          2    1    1    2  501    0  0.27226858778E+02 -0.11222321685E+02  0.46977030177E+02  0.55444419982E+02  0.00000000000E+00 0.  1.
          1    1    1    2  502    0 -0.27226858778E+02  0.11222321685E+02 -0.55781424023E+03  0.55859105699E+03  0.00000000000E+00 0. -1.
</event>
<event>
 4    1  0.3837333E+003  0.2196239E+02  0.7546771E-02  0.1505955E+00
          2   -1    0    0  502    0  0.00000000000E+00  0.00000000000E+00  0.16288637985E+02  0.16288637985E+02  0.00000000000E+00 0.  1.
          1   -1    0    0  501    0 -0.00000000000E+00 -0.00000000000E+00 -0.29664148456E+03  0.29664148456E+03  0.00000000000E+00 0. -1.
          2    1    1    2  501    0  0.20786706233E+02 -0.70893953491E+01  0.82737347051E+01  0.23469157812E+02  0.00000000000E+00 0.  1.
          1    1    1    2  502    0 -0.20786706233E+02  0.70893953491E+01 -0.28862658128E+03  0.28946096473E+03  0.00000000000E+00 0. -1.
</event>
<event>
 4    1  0.3837333E+003  0.3184018E+02  0.7546771E-02  0.1404252E+00
          2   -1    0    0  502    0  0.00000000000E+00  0.00000000000E+00  0.73850448781E+03  0.73850448781E+03  0.00000000000E+00 0. -1.
          1   -1    0    0  501    0 -0.00000000000E+00 -0.00000000000E+00 -0.28340263339E+01  0.28340263339E+01  0.00000000000E+00 0. -1.
          2    1    1    2  501    0  0.22057809354E+01  0.31763685635E+02  0.63399827302E+03  0.63479729630E+03  0.00000000000E+00 0. -1.
          1    1    1    2  502    0 -0.22057809354E+01 -0.31763685635E+02  0.10167218845E+03  0.10654121784E+03  0.00000000000E+00 0. -1.
</event>
<event>
 4    1  0.3837333E+003  0.8234469E+02  0.7546771E-02  0.1198506E+00
          2   -1    0    0  502    0  0.00000000000E+00  0.00000000000E+00  0.11847049402E+03  0.11847049402E+03  0.00000000000E+00 0.  1.
          1   -1    0    0  501    0 -0.00000000000E+00 -0.00000000000E+00 -0.57405928445E+02  0.57405928445E+02  0.00000000000E+00 0.  1.
          2    1    1    2  501    0  0.35956770258E+02  0.74079403502E+02  0.35332140485E+02  0.89604729238E+02  0.00000000000E+00 0.  1.
          1    1    1    2  502    0 -0.35956770258E+02 -0.74079403502E+02  0.25732425086E+02  0.86271693222E+02  0.00000000000E+00 0.  1.
</event>
<event>
 4    1  0.3837333E+003  0.2017174E+02  0.7546771E-02  0.1531426E+00
          2   -1    0    0  502    0  0.00000000000E+00  0.00000000000E+00  0.29434576867E+02  0.29434576867E+02  0.00000000000E+00 0. -1.
          1   -1    0    0  501    0 -0.00000000000E+00 -0.00000000000E+00 -0.42292823127E+02  0.42292823127E+02  0.00000000000E+00 0. -1.
          2    1    1    2  501    0 -0.94656691839E+01 -0.17812927325E+02  0.22995277890E+02  0.30588920841E+02  0.00000000000E+00 0. -1.
          1    1    1    2  502    0  0.94656691839E+01  0.17812927325E+02 -0.35853524150E+02  0.41138479152E+02  0.00000000000E+00 0. -1.
</event>
<event>
 4    1  0.3837333E+003  0.2703555E+02  0.7546771E-02  0.1447251E+00
          2   -1    0    0  502    0  0.00000000000E+00  0.00000000000E+00  0.37782510574E+01  0.37782510574E+01  0.00000000000E+00 0. -1.
          1   -1    0    0  501    0 -0.00000000000E+00 -0.00000000000E+00 -0.59115066184E+03  0.59115066184E+03  0.00000000000E+00 0. -1.
          2    1    1    2  501    0  0.39146581145E+01  0.26750632459E+02 -0.49702111596E+02  0.56579331758E+02  0.00000000000E+00 0. -1.
          1    1    1    2  502    0 -0.39146581145E+01 -0.26750632459E+02 -0.53767029919E+03  0.53834958114E+03  0.00000000000E+00 0. -1.
</event>
<event>
 4    1  0.3837333E+003  0.2675443E+02  0.7546771E-02  0.1450091E+00
          2   -1    0    0  502    0  0.00000000000E+00  0.00000000000E+00  0.60086672601E+03  0.60086672601E+03  0.00000000000E+00 0. -1.
          1   -1    0    0  501    0 -0.00000000000E+00 -0.00000000000E+00 -0.46712129556E+01  0.46712129556E+01  0.00000000000E+00 0.  1.
          2    1    1    2  501    0  0.24088725962E+02 -0.11641862627E+02  0.55942341530E+03  0.56006281547E+03  0.00000000000E+00 0. -1.
          1    1    1    2  502    0 -0.24088725962E+02  0.11641862627E+02  0.36772097757E+02  0.45475123500E+02  0.00000000000E+00 0.  1.
</event>
<event>
 4    1  0.3837333E+003  0.2034044E+02  0.7546771E-02  0.1528894E+00
          2   -1    0    0  502    0  0.00000000000E+00  0.00000000000E+00  0.26787787648E+02  0.26787787648E+02  0.00000000000E+00 0. -1.
          1   -1    0    0  501    0 -0.00000000000E+00 -0.00000000000E+00 -0.16267624866E+02  0.16267624866E+02  0.00000000000E+00 0. -1.
          2    1    1    2  501    0 -0.15980968750E+02 -0.12583407930E+02  0.10101522603E+02  0.22710664372E+02  0.00000000000E+00 0. -1.
          1    1    1    2  502    0  0.15980968750E+02  0.12583407930E+02  0.41864017889E+00  0.20344748141E+02  0.00000000000E+00 0. -1.
</event>
<event>
 4    1  0.3837333E+003  0.2255268E+02  0.7546771E-02  0.1498193E+00
          2   -1    0    0  502    0  0.00000000000E+00  0.00000000000E+00  0.11006116616E+02  0.11006116616E+02  0.00000000000E+00 0.  1.
          1   -1    0    0  501    0 -0.00000000000E+00 -0.00000000000E+00 -0.84466937979E+02  0.84466937979E+02  0.00000000000E+00 0.  1.
          2    1    1    2  501    0  0.11684289382E+02  0.19289913468E+02 -0.46051469986E+01  0.23018052890E+02  0.00000000000E+00 0.  1.
          1    1    1    2  502    0 -0.11684289382E+02 -0.19289913468E+02 -0.68855674364E+02  0.72455001706E+02  0.00000000000E+00 0.  1.
</event>
<event>
 4    1  0.3837333E+003  0.2463608E+02  0.7546771E-02  0.1472916E+00
          2   -1    0    0  502    0  0.00000000000E+00  0.00000000000E+00  0.89930947617E+01  0.89930947617E+01  0.00000000000E+00 0. -1.
          1   -1    0    0  501    0 -0.00000000000E+00 -0.00000000000E+00 -0.68203526416E+02  0.68203526416E+02  0.00000000000E+00 0. -1.
          2    1    1    2  501    0  0.17016515571E+02 -0.17814998784E+02 -0.33555604640E+02  0.41628290700E+02  0.00000000000E+00 0. -1.
          1    1    1    2  502    0 -0.17016515571E+02  0.17814998784E+02 -0.25654827015E+02  0.35568330478E+02  0.00000000000E+00 0. -1.
</event>
<event>
 4    1  0.3837333E+003  0.3316487E+02  0.7546771E-02  0.1393945E+00
          2   -1    0    0  502    0  0.00000000000E+00  0.00000000000E+00  0.29643752172E+02  0.29643752172E+02  0.00000000000E+00 0.  1.
          1   -1    0    0  501    0 -0.00000000000E+00 -0.00000000000E+00 -0.11257705456E+03  0.11257705456E+03  0.00000000000E+00 0. -1.
          2    1    1    2  501    0  0.25634817864E+02  0.21041977070E+02  0.16757544064E+02  0.37158094259E+02  0.00000000000E+00 0.  1.
          1    1    1    2  502    0 -0.25634817864E+02 -0.21041977070E+02 -0.99690846453E+02  0.10506271247E+03  0.00000000000E+00 0. -1.
</event>
<event>
 4    1  0.3837333E+003  0.2077766E+02  0.7546771E-02  0.1522463E+00
          2   -1    0    0  502    0  0.00000000000E+00  0.00000000000E+00  0.27078829652E+01  0.27078829652E+01  0.00000000000E+00 0. -1.
          1   -1    0    0  501    0 -0.00000000000E+00 -0.00000000000E+00 -0.50924624026E+03  0.50924624026E+03  0.00000000000E+00 0.  1.
          2    1    1    2  501    0 -0.16455176537E+02 -0.12686151321E+02 -0.41111570654E+02  0.46063787424E+02  0.00000000000E+00 0. -1.
          1    1    1    2  502    0  0.16455176537E+02  0.12686151321E+02 -0.46542678664E+03  0.46589033580E+03  0.00000000000E+00 0.  1.
</event>
<event>
 4    1  0.3837333E+003  0.2249144E+02  0.7546771E-02  0.1498985E+00
          2   -1    0    0  502    0  0.00000000000E+00  0.00000000000E+00  0.28821979719E+02  0.28821979719E+02  0.00000000000E+00 0. -1.
          1   -1    0    0  501    0 -0.00000000000E+00 -0.00000000000E+00 -0.18343310626E+03  0.18343310626E+03  0.00000000000E+00 0. -1.
          2    1    1    2  501    0  0.16912004251E+02 -0.14827306851E+02  0.23617064520E+02  0.32613350836E+02  0.00000000000E+00 0. -1.
          1    1    1    2  502    0 -0.16912004251E+02  0.14827306851E+02 -0.17822819106E+03  0.17964173514E+03  0.00000000000E+00 0. -1.
</event>
<event>
 4    1  0.3837333E+003  0.2198523E+02  0.7546771E-02  0.1505650E+00
          2   -1    0    0  502    0  0.00000000000E+00  0.00000000000E+00  0.10632382224E+03  0.10632382224E+03  0.00000000000E+00 0. -1.
          1   -1    0    0  501    0 -0.00000000000E+00 -0.00000000000E+00 -0.16009629614E+03  0.16009629614E+03  0.00000000000E+00 0. -1.
          2    1    1    2  501    0  0.18509245751E+02 -0.11864151799E+02  0.10441891648E+03  0.10670829581E+03  0.00000000000E+00 0. -1.
          1    1    1    2  502    0 -0.18509245751E+02  0.11864151799E+02 -0.15819139039E+03  0.15971182257E+03  0.00000000000E+00 0. -1.
</event>
<event>
 4    1  0.3837333E+003  0.3100685E+02  0.7546771E-02  0.1411044E+00
          2   -1    0    0  502    0  0.00000000000E+00  0.00000000000E+00  0.11116479501E+02  0.11116479501E+02  0.00000000000E+00 0. -1.
          1   -1    0    0  501    0 -0.00000000000E+00 -0.00000000000E+00 -0.34266213894E+03  0.34266213894E+03  0.00000000000E+00 0.  1.
          2    1    1    2  501    0  0.22819550102E+02 -0.20992680284E+02 -0.12827046150E+02  0.33555291763E+02  0.00000000000E+00 0. -1.
          1    1    1    2  502    0 -0.22819550102E+02  0.20992680284E+02 -0.31871861328E+03  0.32022332667E+03  0.00000000000E+00 0.  1.
</event>
<event>
 4    1  0.3837333E+003  0.2487408E+02  0.7546771E-02  0.1470217E+00
          2   -1    0    0  502    0  0.00000000000E+00  0.00000000000E+00  0.16387675852E+01  0.16387675852E+01  0.00000000000E+00 0. -1.
          1   -1    0    0  501    0 -0.00000000000E+00 -0.00000000000E+00 -0.15923880512E+04  0.15923880512E+04  0.00000000000E+00 0. -1.
          2    1    1    2  501    0  0.24836216309E+02  0.13718490080E+01 -0.99229095216E+02  0.10229923239E+03  0.00000000000E+00 0. -1.
          1    1    1    2  502    0 -0.24836216309E+02 -0.13718490080E+01 -0.14915201884E+04  0.14917275864E+04  0.00000000000E+00 0. -1.
</event>
<event>
 4    1  0.3837333E+003  0.2021937E+02  0.7546771E-02  0.1530708E+00
          2   -1    0    0  502    0  0.00000000000E+00  0.00000000000E+00  0.28235151568E+03  0.28235151568E+03  0.00000000000E+00 0. -1.
          1   -1    0    0  501    0 -0.00000000000E+00 -0.00000000000E+00 -0.58885697352E+03  0.58885697352E+03  0.00000000000E+00 0. -1.
          2    1    1    2  501    0  0.22834152205E+01  0.20090018387E+02  0.28181563943E+03  0.28254004575E+03  0.00000000000E+00 0. -1.
          1    1    1    2  502    0 -0.22834152205E+01 -0.20090018387E+02 -0.58832109727E+03  0.58866844345E+03  0.00000000000E+00 0. -1.
</event>
<event>
 4    1  0.3837333E+003  0.5178618E+02  0.7546771E-02  0.1290609E+00
          2   -1    0    0  502    0  0.00000000000E+00  0.00000000000E+00  0.22720271762E+01  0.22720271762E+01  0.00000000000E+00 0. -1.
          1   -1    0    0  501    0 -0.00000000000E+00 -0.00000000000E+00 -0.12245072035E+04  0.12245072035E+04  0.00000000000E+00 0. -1.
          2    1    1    2  501    0  0.21804418911E+02  0.46972072081E+02 -0.49464837210E+03  0.49735180734E+03  0.00000000000E+00 0. -1.
          1    1    1    2  502    0 -0.21804418911E+02 -0.46972072081E+02 -0.72758680427E+03  0.72942742338E+03  0.00000000000E+00 0. -1.
</event>
<event>
 4    1  0.3837333E+003  0.2221414E+02  0.7546771E-02  0.1502609E+00
          2   -1    0    0  502    0  0.00000000000E+00  0.00000000000E+00  0.14581801479E+03  0.14581801479E+03  0.00000000000E+00 0. -1.
          1   -1    0    0  501    0 -0.00000000000E+00 -0.00000000000E+00 -0.34791381728E+03  0.34791381728E+03  0.00000000000E+00 0.  1.
          2    1    1    2  501    0 -0.17717013748E+02  0.13400568837E+02  0.14461445664E+03  0.14631065884E+03  0.00000000000E+00 0. -1.
          1    1    1    2  502    0  0.17717013748E+02 -0.13400568837E+02 -0.34671025913E+03  0.34742117323E+03  0.00000000000E+00 0.  1.
</event>
<event>
 4    1  0.3837333E+003  0.3501850E+02  0.7546771E-02  0.1380433E+00
          2   -1    0    0  502    0  0.00000000000E+00  0.00000000000E+00  0.30508198844E+01  0.30508198844E+01  0.00000000000E+00 0.  1.
          1   -1    0    0  501    0 -0.00000000000E+00 -0.00000000000E+00 -0.46750879285E+03  0.46750879285E+03  0.00000000000E+00 0.  1.
          2    1    1    2  501    0  0.29942659623E+02 -0.18158543654E+02 -0.14412711618E+03  0.14832033304E+03  0.00000000000E+00 0.  1.
          1    1    1    2  502    0 -0.29942659623E+02  0.18158543654E+02 -0.32033085679E+03  0.32223927970E+03  0.00000000000E+00 0.  1.
</event>
<event>
 4    1  0.3837333E+003  0.3596281E+02  0.7546771E-02  0.1373918E+00
          2   -1    0    0  502    0  0.00000000000E+00  0.00000000000E+00  0.15717827555E+03  0.15717827555E+03  0.00000000000E+00 0. -1.
          1   -1    0    0  501    0 -0.00000000000E+00 -0.00000000000E+00 -0.63415755591E+03  0.63415755591E+03  0.00000000000E+00 0.  1.
          2    1    1    2  501    0 -0.35413787500E+02 -0.62599712834E+01  0.15460293879E+03  0.15873056501E+03  0.00000000000E+00 0. -1.
          1    1    1    2  502    0  0.35413787500E+02  0.62599712834E+01 -0.63158221915E+03  0.63260526644E+03  0.00000000000E+00 0.  1.
</event>
<event>
 4    1  0.3837333E+003  0.5787728E+02  0.7546771E-02  0.1267221E+00
          2   -1    0    0  502    0  0.00000000000E+00  0.00000000000E+00  0.39410831226E+03  0.39410831226E+03  0.00000000000E+00 0.  1.
          1   -1    0    0  501    0 -0.00000000000E+00 -0.00000000000E+00 -0.44665759843E+02  0.44665759843E+02  0.00000000000E+00 0. -1.
          2    1    1    2  501    0  0.41222858887E+02  0.40625795539E+02  0.37213373022E+03  0.37660761082E+03  0.00000000000E+00 0.  1.
          1    1    1    2  502    0 -0.41222858887E+02 -0.40625795539E+02 -0.22691177807E+02  0.62166461281E+02  0.00000000000E+00 0. -1.
</event>
<event>
 4    1  0.3837333E+003  0.3680132E+02  0.7546771E-02  0.1368323E+00
          2   -1    0    0  502    0  0.00000000000E+00  0.00000000000E+00  0.18447663190E+02  0.18447663190E+02  0.00000000000E+00 0.  1.
          1   -1    0    0  501    0 -0.00000000000E+00 -0.00000000000E+00 -0.11701445592E+04  0.11701445592E+04  0.00000000000E+00 0. -1.
          2    1    1    2  501    0 -0.25945816682E+01 -0.36709743361E+02 -0.49743321442E+00  0.36804681108E+02  0.00000000000E+00 0.  1.
          1    1    1    2  502    0  0.25945816682E+01  0.36709743361E+02 -0.11511994628E+04  0.11517875413E+04  0.00000000000E+00 0. -1.
</event>
<event>
 4    1  0.3837333E+003  0.3139885E+02  0.7546771E-02  0.1407818E+00
          2   -1    0    0  502    0  0.00000000000E+00  0.00000000000E+00  0.32694847300E+03  0.32694847300E+03  0.00000000000E+00 0. -1.
          1   -1    0    0  501    0 -0.00000000000E+00 -0.00000000000E+00 -0.12573475806E+03  0.12573475806E+03  0.00000000000E+00 0. -1.
          2    1    1    2  501    0  0.11688688683E+01 -0.31377088888E+02  0.32421789298E+03  0.32573475420E+03  0.00000000000E+00 0. -1.
          1    1    1    2  502    0 -0.11688688683E+01  0.31377088888E+02 -0.12300417804E+03  0.12694847686E+03  0.00000000000E+00 0. -1.
</event>
<event>
 4    1  0.3837333E+003  0.2111442E+02  0.7546771E-02  0.1517637E+00
          2   -1    0    0  502    0  0.00000000000E+00  0.00000000000E+00  0.62158985953E+03  0.62158985953E+03  0.00000000000E+00 0.  1.
          1   -1    0    0  501    0 -0.00000000000E+00 -0.00000000000E+00 -0.78377881120E+02  0.78377881120E+02  0.00000000000E+00 0. -1.
          2    1    1    2  501    0 -0.18604337162E+02  0.99848637370E+01  0.61998485596E+03  0.62034429189E+03  0.00000000000E+00 0.  1.
          1    1    1    2  502    0  0.18604337162E+02 -0.99848637370E+01 -0.76772877549E+02  0.79623448758E+02  0.00000000000E+00 0. -1.
</event>
<event>
 4    1  0.3837333E+003  0.6228216E+02  0.7546771E-02  0.1252270E+00
          2   -1    0    0  502    0  0.00000000000E+00  0.00000000000E+00  0.32243999075E+02  0.32243999075E+02  0.00000000000E+00 0.  1.
          1   -1    0    0  501    0 -0.00000000000E+00 -0.00000000000E+00 -0.33474218584E+03  0.33474218584E+03  0.00000000000E+00 0.  1.
          2    1    1    2  501    0  0.44427852179E+02 -0.43648982589E+02 -0.43848715371E+01  0.62436326194E+02  0.00000000000E+00 0.  1.
          1    1    1    2  502    0 -0.44427852179E+02  0.43648982589E+02 -0.29811331522E+03  0.30454985872E+03  0.00000000000E+00 0.  1.
</event>
<event>
 4    1  0.3837333E+003  0.2255019E+02  0.7546771E-02  0.1498225E+00
          2   -1    0    0  502    0  0.00000000000E+00  0.00000000000E+00  0.92832883111E+01  0.92832883111E+01  0.00000000000E+00 0.  1.
          1   -1    0    0  501    0 -0.00000000000E+00 -0.00000000000E+00 -0.67032412199E+02  0.67032412199E+02  0.00000000000E+00 0. -1.
          2    1    1    2  501    0  0.16379942539E+02 -0.15498656939E+02 -0.12558886643E+02  0.25811557841E+02  0.00000000000E+00 0.  1.
          1    1    1    2  502    0 -0.16379942539E+02  0.15498656939E+02 -0.45190237244E+02  0.50504142669E+02  0.00000000000E+00 0. -1.
</event>
<event>
 4    1  0.3837333E+003  0.2310437E+02  0.7546771E-02  0.1491192E+00
          2   -1    0    0  502    0  0.00000000000E+00  0.00000000000E+00  0.11677383833E+02  0.11677383833E+02  0.00000000000E+00 0. -1.
          1   -1    0    0  501    0 -0.00000000000E+00 -0.00000000000E+00 -0.45734026286E+02  0.45734026286E+02  0.00000000000E+00 0. -1.
          2    1    1    2  501    0 -0.18061644784E+02  0.14407949098E+02 -0.16417552740E+02  0.28343395130E+02  0.00000000000E+00 0. -1.
          1    1    1    2  502    0  0.18061644784E+02 -0.14407949098E+02 -0.17639089713E+02  0.29068014989E+02  0.00000000000E+00 0. -1.
</event>
<event>
 4    1  0.3837333E+003  0.2532573E+02  0.7546771E-02  0.1465192E+00
          2   -1    0    0  502    0  0.00000000000E+00  0.00000000000E+00  0.73915119161E+03  0.73915119161E+03  0.00000000000E+00 0. -1.
          1   -1    0    0  501    0 -0.00000000000E+00 -0.00000000000E+00 -0.88112398187E+00  0.88112398187E+00  0.00000000000E+00 0. -1.
          2    1    1    2  501    0  0.81317732485E+01  0.23984705997E+02  0.32353373389E+03  0.32452344880E+03  0.00000000000E+00 0. -1.
          1    1    1    2  502    0 -0.81317732485E+01 -0.23984705997E+02  0.41473633374E+03  0.41550886679E+03  0.00000000000E+00 0. -1.
</event>
<event>
 4    1  0.3837333E+003  0.2314845E+02  0.7546771E-02  0.1490642E+00
          2   -1    0    0  502    0  0.00000000000E+00  0.00000000000E+00  0.21172794311E+03  0.21172794311E+03  0.00000000000E+00 0.  1.
          1   -1    0    0  501    0 -0.00000000000E+00 -0.00000000000E+00 -0.12732692097E+04  0.12732692097E+04  0.00000000000E+00 0.  1.
          2    1    1    2  501    0  0.19585616174E+02 -0.12339142760E+02  0.21098965296E+03  0.21225570537E+03  0.00000000000E+00 0.  1.
          1    1    1    2  502    0 -0.19585616174E+02  0.12339142760E+02 -0.12725309195E+04  0.12727414474E+04  0.00000000000E+00 0.  1.
</event>
<event>
 4    1  0.3837333E+003  0.2081223E+02  0.7546771E-02  0.1521963E+00
          2   -1    0    0  502    0  0.00000000000E+00  0.00000000000E+00  0.32285369344E+02  0.32285369344E+02  0.00000000000E+00 0.  1.
          1   -1    0    0  501    0 -0.00000000000E+00 -0.00000000000E+00 -0.56010833769E+02  0.56010833769E+02  0.00000000000E+00 0.  1.
          2    1    1    2  501    0 -0.20777855735E+02  0.11956239399E+01  0.26636597548E+02  0.33803211896E+02  0.00000000000E+00 0.  1.
          1    1    1    2  502    0  0.20777855735E+02 -0.11956239399E+01 -0.50362061973E+02  0.54492991217E+02  0.00000000000E+00 0.  1.
</event>
<event>
 4    1  0.3837333E+003  0.4257860E+02  0.7546771E-02  0.1334004E+00
          2   -1    0    0  502    0  0.00000000000E+00  0.00000000000E+00  0.59574701639E+02  0.59574701639E+02  0.00000000000E+00 0. -1.
          1   -1    0    0  501    0 -0.00000000000E+00 -0.00000000000E+00 -0.46764804561E+02  0.46764804561E+02  0.00000000000E+00 0.  1.
          2    1    1    2  501    0  0.28749595014E+02  0.31406976156E+02  0.37827712349E+02  0.56955010195E+02  0.00000000000E+00 0. -1.
          1    1    1    2  502    0 -0.28749595014E+02 -0.31406976156E+02 -0.25017815271E+02  0.49384496005E+02  0.00000000000E+00 0.  1.
</event>
<event>
 4    1  0.3837333E+003  0.2159240E+02  0.7546771E-02  0.1510973E+00
          2   -1    0    0  502    0  0.00000000000E+00  0.00000000000E+00  0.39278846857E+03  0.39278846857E+03  0.00000000000E+00 0.  1.
          1   -1    0    0  501    0 -0.00000000000E+00 -0.00000000000E+00 -0.20002190700E+02  0.20002190700E+02  0.00000000000E+00 0.  1.
          2    1    1    2  501    0 -0.99430612064E+01 -0.19166821835E+02  0.38657081480E+03  0.38717338026E+03  0.00000000000E+00 0.  1.
          1    1    1    2  502    0  0.99430612064E+01  0.19166821835E+02 -0.13784536932E+02  0.25617279009E+02  0.00000000000E+00 0.  1.
</event>
<event>
 4    1  0.3837333E+003  0.2682238E+02  0.7546771E-02  0.1449401E+00
          2   -1    0    0  502    0  0.00000000000E+00  0.00000000000E+00  0.40651158520E+00  0.40651158520E+00  0.00000000000E+00 0. -1.
          1   -1    0    0  501    0 -0.00000000000E+00 -0.00000000000E+00 -0.18288645608E+04  0.18288645608E+04  0.00000000000E+00 0. -1.
          2    1    1    2  501    0 -0.21759486840E+02 -0.15683264176E+02 -0.74984545214E+03  0.75032502433E+03  0.00000000000E+00 0. -1.
          1    1    1    2  502    0  0.21759486840E+02  0.15683264176E+02 -0.10786125971E+04  0.10789460481E+04  0.00000000000E+00 0. -1.
</event>
<event>
 4    1  0.3837333E+003  0.3529633E+02  0.7546771E-02  0.1378492E+00
          2   -1    0    0  502    0  0.00000000000E+00  0.00000000000E+00  0.28184795604E+02  0.28184795604E+02  0.00000000000E+00 0.  1.
          1   -1    0    0  501    0 -0.00000000000E+00 -0.00000000000E+00 -0.23251452745E+03  0.23251452745E+03  0.00000000000E+00 0.  1.
          2    1    1    2  501    0 -0.33248517164E+02  0.11847666565E+02  0.15142205025E+02  0.38407258034E+02  0.00000000000E+00 0.  1.
          1    1    1    2  502    0  0.33248517164E+02 -0.11847666565E+02 -0.21947193687E+03  0.22229206502E+03  0.00000000000E+00 0.  1.
</event>
<event>
 4    1  0.3837333E+003  0.5307520E+02  0.7546771E-02  0.1285363E+00
          2   -1    0    0  502    0  0.00000000000E+00  0.00000000000E+00  0.32725460938E+04  0.32725460938E+04  0.00000000000E+00 0.  1.
          1   -1    0    0  501    0 -0.00000000000E+00 -0.00000000000E+00 -0.10542913749E+01  0.10542913749E+01  0.00000000000E+00 0. -1.
          2    1    1    2  501    0  0.51368267918E+02 -0.13352061372E+02  0.23369700118E+04  0.23375726326E+04  0.00000000000E+00 0.  1.
          1    1    1    2  502    0 -0.51368267918E+02  0.13352061372E+02  0.93452179063E+03  0.93602775261E+03  0.00000000000E+00 0. -1.
</event>
<event>
 4    1  0.3837333E+003  0.2196727E+02  0.7546771E-02  0.1505890E+00
          2   -1    0    0  502    0  0.00000000000E+00  0.00000000000E+00  0.43204676137E+01  0.43204676137E+01  0.00000000000E+00 0.  1.
          1   -1    0    0  501    0 -0.00000000000E+00 -0.00000000000E+00 -0.10005575605E+04  0.10005575605E+04  0.00000000000E+00 0. -1.
          2    1    1    2  501    0 -0.97776180130E+01 -0.19671282230E+02 -0.24552688184E+02  0.32945343459E+02  0.00000000000E+00 0.  1.
          1    1    1    2  502    0  0.97776180130E+01  0.19671282230E+02 -0.97168440475E+03  0.97193268470E+03  0.00000000000E+00 0. -1.
</event>
<event>
 4    1  0.3837333E+003  0.3752584E+02  0.7546771E-02  0.1363628E+00
          2   -1    0    0  502    0  0.00000000000E+00  0.00000000000E+00  0.21978858491E+03  0.21978858491E+03  0.00000000000E+00 0.  1.
          1   -1    0    0  501    0 -0.00000000000E+00 -0.00000000000E+00 -0.20913976069E+02  0.20913976069E+02  0.00000000000E+00 0. -1.
          2    1    1    2  501    0 -0.29990875136E+02 -0.22555183090E+02  0.19967258881E+03  0.20316823472E+03  0.00000000000E+00 0.  1.
          1    1    1    2  502    0  0.29990875136E+02  0.22555183090E+02 -0.79797997403E+00  0.37534326258E+02  0.00000000000E+00 0. -1.
</event>
<event>
 4    1  0.3837333E+003  0.3854483E+02  0.7546771E-02  0.1357231E+00
          2   -1    0    0  502    0  0.00000000000E+00  0.00000000000E+00  0.13052741485E+02  0.13052741485E+02  0.00000000000E+00 0. -1.
          1   -1    0    0  501    0 -0.00000000000E+00 -0.00000000000E+00 -0.25263260442E+03  0.25263260442E+03  0.00000000000E+00 0. -1.
          2    1    1    2  501    0 -0.35349922632E+02 -0.15365111305E+02 -0.21320260528E+02  0.44048350531E+02  0.00000000000E+00 0. -1.
          1    1    1    2  502    0  0.35349922632E+02  0.15365111305E+02 -0.21825960241E+03  0.22163699538E+03  0.00000000000E+00 0. -1.
</event>
<event>
 4    1  0.3837333E+003  0.2811916E+02  0.7546771E-02  0.1436679E+00
          2   -1    0    0  502    0  0.00000000000E+00  0.00000000000E+00  0.65045520199E+03  0.65045520199E+03  0.00000000000E+00 0. -1.
          1   -1    0    0  501    0 -0.00000000000E+00 -0.00000000000E+00 -0.76826824232E+02  0.76826824232E+02  0.00000000000E+00 0.  1.
          2    1    1    2  501    0 -0.56827747361E+01  0.27538943595E+02  0.64756688028E+03  0.64817709908E+03  0.00000000000E+00 0. -1.
          1    1    1    2  502    0  0.56827747361E+01 -0.27538943595E+02 -0.73938502520E+02  0.79104927140E+02  0.00000000000E+00 0.  1.
</event>
<event>
 4    1  0.3837333E+003  0.2165163E+02  0.7546771E-02  0.1510161E+00
          2   -1    0    0  502    0  0.00000000000E+00  0.00000000000E+00  0.28702114052E+02  0.28702114052E+02  0.00000000000E+00 0.  1.
          1   -1    0    0  501    0 -0.00000000000E+00 -0.00000000000E+00 -0.68265990433E+02  0.68265990433E+02  0.00000000000E+00 0.  1.
          2    1    1    2  501    0  0.45748605043E+01  0.21162787491E+02  0.22506163462E+02  0.31230118745E+02  0.00000000000E+00 0.  1.
          1    1    1    2  502    0 -0.45748605043E+01 -0.21162787491E+02 -0.62070039843E+02  0.65737985740E+02  0.00000000000E+00 0.  1.
</event>
<event>
 4    1  0.3837333E+003  0.2056660E+02  0.7546771E-02  0.1525543E+00
          2   -1    0    0  502    0  0.00000000000E+00  0.00000000000E+00  0.36861192984E+03  0.36861192984E+03  0.00000000000E+00 0. -1.
          1   -1    0    0  501    0 -0.00000000000E+00 -0.00000000000E+00 -0.17628521426E+01  0.17628521426E+01  0.00000000000E+00 0. -1.
          2    1    1    2  501    0 -0.18396469653E+02 -0.91953862631E+01  0.29283590040E+03  0.29355723426E+03  0.00000000000E+00 0. -1.
          1    1    1    2  502    0  0.18396469653E+02  0.91953862631E+01  0.74013177300E+02  0.76817547724E+02  0.00000000000E+00 0. -1.
</event>
<event>
 4    1  0.3837333E+003  0.3094572E+02  0.7546771E-02  0.1411552E+00
          2   -1    0    0  502    0  0.00000000000E+00  0.00000000000E+00  0.11630222240E+04  0.11630222240E+04  0.00000000000E+00 0.  1.
          1   -1    0    0  501    0 -0.00000000000E+00 -0.00000000000E+00 -0.57033987314E+01  0.57033987314E+01  0.00000000000E+00 0. -1.
          2    1    1    2  501    0 -0.20472881362E+02  0.23205578218E+02  0.11191963254E+04  0.11196240675E+04  0.00000000000E+00 0.  1.
          1    1    1    2  502    0  0.20472881362E+02 -0.23205578218E+02  0.38122499941E+02  0.49101555306E+02  0.00000000000E+00 0. -1.
</event>
<event>
 4    1  0.3837333E+003  0.2704358E+02  0.7546771E-02  0.1447171E+00
          2   -1    0    0  502    0  0.00000000000E+00  0.00000000000E+00  0.70848008009E+03  0.70848008009E+03  0.00000000000E+00 0. -1.
          1   -1    0    0  501    0 -0.00000000000E+00 -0.00000000000E+00 -0.75862886819E+01  0.75862886819E+01  0.00000000000E+00 0. -1.
          2    1    1    2  501    0  0.16884900094E+02  0.21124760357E+02  0.68323044246E+03  0.68376545164E+03  0.00000000000E+00 0. -1.
          1    1    1    2  502    0 -0.16884900094E+02 -0.21124760357E+02  0.17663348940E+02  0.32300917125E+02  0.00000000000E+00 0. -1.
</event>
<event>
 4    1  0.3837333E+003  0.2126028E+02  0.7546771E-02  0.1515581E+00
          2   -1    0    0  502    0  0.00000000000E+00  0.00000000000E+00  0.14641320473E+04  0.14641320473E+04  0.00000000000E+00 0.  1.
          1   -1    0    0  501    0 -0.00000000000E+00 -0.00000000000E+00 -0.16747672736E+02  0.16747672736E+02  0.00000000000E+00 0. -1.
          2    1    1    2  501    0 -0.11647341294E+02  0.17785925451E+02  0.14572759246E+04  0.14574310001E+04  0.00000000000E+00 0.  1.
          1    1    1    2  502    0  0.11647341294E+02 -0.17785925451E+02 -0.98915500363E+01  0.23448719911E+02  0.00000000000E+00 0. -1.
</event>
<event>
 4    1  0.3837333E+003  0.1718123E+03  0.7546771E-02  0.1077145E+00
          2   -1    0    0  502    0  0.00000000000E+00  0.00000000000E+00  0.18551139666E+04  0.18551139666E+04  0.00000000000E+00 0. -1.
          1   -1    0    0  501    0 -0.00000000000E+00 -0.00000000000E+00 -0.59281518599E+02  0.59281518599E+02  0.00000000000E+00 0. -1.
          2    1    1    2  501    0  0.10820419946E+03  0.13345900173E+03  0.17166296830E+04  0.17252063420E+04  0.00000000000E+00 0. -1.
          1    1    1    2  502    0 -0.10820419946E+03 -0.13345900173E+03  0.79202765016E+02  0.18918914321E+03  0.00000000000E+00 0. -1.
</event>
<event>
 4    1  0.3837333E+003  0.2887487E+02  0.7546771E-02  0.1429632E+00
          2   -1    0    0  502    0  0.00000000000E+00  0.00000000000E+00  0.15818567392E+04  0.15818567392E+04  0.00000000000E+00 0.  1.
          1   -1    0    0  501    0 -0.00000000000E+00 -0.00000000000E+00 -0.18102956319E+01  0.18102956319E+01  0.00000000000E+00 0.  1.
          2    1    1    2  501    0 -0.18746835136E+02  0.21961654834E+02  0.14566913489E+04  0.14569775030E+04  0.00000000000E+00 0.  1.
          1    1    1    2  502    0  0.18746835136E+02 -0.21961654834E+02  0.12335509467E+03  0.12668953189E+03  0.00000000000E+00 0.  1.
</event>
<event>
 4    1  0.3837333E+003  0.8999404E+02  0.7546771E-02  0.1182376E+00
          2   -1    0    0  502    0  0.00000000000E+00  0.00000000000E+00  0.12292635948E+04  0.12292635948E+04  0.00000000000E+00 0.  1.
          1   -1    0    0  501    0 -0.00000000000E+00 -0.00000000000E+00 -0.11270786085E+03  0.11270786085E+03  0.00000000000E+00 0.  1.
          2    1    1    2  501    0  0.88142445802E+02 -0.18161395954E+02  0.12093567633E+04  0.12127005846E+04  0.00000000000E+00 0.  1.
          1    1    1    2  502    0 -0.88142445802E+02  0.18161395954E+02 -0.92801029327E+02  0.12927087104E+03  0.00000000000E+00 0.  1.
</event>
<event>
 4    1  0.3837333E+003  0.2251164E+02  0.7546771E-02  0.1498723E+00
          2   -1    0    0  502    0  0.00000000000E+00  0.00000000000E+00  0.57079849368E+02  0.57079849368E+02  0.00000000000E+00 0. -1.
          1   -1    0    0  501    0 -0.00000000000E+00 -0.00000000000E+00 -0.37588386105E+03  0.37588386105E+03  0.00000000000E+00 0. -1.
          2    1    1    2  501    0  0.33556252755E+01 -0.22260135184E+02  0.54507933789E+02  0.58973627032E+02  0.00000000000E+00 0. -1.
          1    1    1    2  502    0 -0.33556252755E+01  0.22260135184E+02 -0.37331194547E+03  0.37399008339E+03  0.00000000000E+00 0. -1.
</event>
<event>
 4    1  0.3837333E+003  0.3045233E+02  0.7546771E-02  0.1415706E+00
          2   -1    0    0  502    0  0.00000000000E+00  0.00000000000E+00  0.16265449253E+03  0.16265449253E+03  0.00000000000E+00 0. -1.
          1   -1    0    0  501    0 -0.00000000000E+00 -0.00000000000E+00 -0.44424093663E+02  0.44424093663E+02  0.00000000000E+00 0.  1.
          2    1    1    2  501    0 -0.22948658113E+02 -0.20017585417E+02  0.15578240397E+03  0.15873091074E+03  0.00000000000E+00 0. -1.
          1    1    1    2  502    0  0.22948658113E+02  0.20017585417E+02 -0.37552005104E+02  0.48347675461E+02  0.00000000000E+00 0.  1.
</event>
<event>
 4    1  0.3837333E+003  0.3136175E+02  0.7546771E-02  0.1408121E+00
          2   -1    0    0  502    0  0.00000000000E+00  0.00000000000E+00  0.22474108599E+04  0.22474108599E+04  0.00000000000E+00 0.  1.
          1   -1    0    0  501    0 -0.00000000000E+00 -0.00000000000E+00 -0.31006238187E+01  0.31006238187E+01  0.00000000000E+00 0. -1.
          2    1    1    2  501    0 -0.25949137591E+02  0.17612538696E+02  0.21649787777E+04  0.21652059180E+04  0.00000000000E+00 0.  1.
          1    1    1    2  502    0  0.25949137591E+02 -0.17612538696E+02  0.79331458373E+02  0.85305565754E+02  0.00000000000E+00 0. -1.
</event>
<event>
 4    1  0.3837333E+003  0.2124894E+02  0.7546771E-02  0.1515740E+00
          2   -1    0    0  502    0  0.00000000000E+00  0.00000000000E+00  0.20621290030E+03  0.20621290030E+03  0.00000000000E+00 0. -1.
          1   -1    0    0  501    0 -0.00000000000E+00 -0.00000000000E+00 -0.28470475182E+01  0.28470475182E+01  0.00000000000E+00 0. -1.
          2    1    1    2  501    0  0.21206899170E+02  0.13359988515E+01  0.15191534873E+03  0.15339423277E+03  0.00000000000E+00 0. -1.
          1    1    1    2  502    0 -0.21206899170E+02 -0.13359988515E+01  0.51450504046E+02  0.55665715049E+02  0.00000000000E+00 0. -1.
</event>
<event>
 4    1  0.3837333E+003  0.2486424E+02  0.7546771E-02  0.1470328E+00
          2   -1    0    0  502    0  0.00000000000E+00  0.00000000000E+00  0.12817337557E+04  0.12817337557E+04  0.00000000000E+00 0. -1.
          1   -1    0    0  501    0 -0.00000000000E+00 -0.00000000000E+00 -0.66487356433E+00  0.66487356433E+00  0.00000000000E+00 0.  1.
          2    1    1    2  501    0 -0.12783179328E+02 -0.21326521572E+02  0.97650100423E+03  0.97681750673E+03  0.00000000000E+00 0. -1.
          1    1    1    2  502    0  0.12783179328E+02  0.21326521572E+02  0.30456787789E+03  0.30558112252E+03  0.00000000000E+00 0.  1.
</event>
<event>
 4    1  0.3837333E+003  0.2310772E+02  0.7546771E-02  0.1491150E+00
          2   -1    0    0  502    0  0.00000000000E+00  0.00000000000E+00  0.37296707955E+02  0.37296707955E+02  0.00000000000E+00 0. -1.
          1   -1    0    0  501    0 -0.00000000000E+00 -0.00000000000E+00 -0.14331305452E+02  0.14331305452E+02  0.00000000000E+00 0. -1.
          2    1    1    2  501    0  0.19760972263E+02 -0.11977918347E+02  0.12306196894E+02  0.26180317697E+02  0.00000000000E+00 0. -1.
          1    1    1    2  502    0 -0.19760972263E+02  0.11977918347E+02  0.10659205609E+02  0.25447695710E+02  0.00000000000E+00 0. -1.
</event>
<event>
 4    1  0.3837333E+003  0.2906295E+02  0.7546771E-02  0.1427918E+00
          2   -1    0    0  502    0  0.00000000000E+00  0.00000000000E+00  0.21408944548E+04  0.21408944548E+04  0.00000000000E+00 0.  1.
          1   -1    0    0  501    0 -0.00000000000E+00 -0.00000000000E+00 -0.25356066871E+02  0.25356066871E+02  0.00000000000E+00 0. -1.
          2    1    1    2  501    0 -0.10844883223E+02  0.26963749547E+02  0.21324348443E+04  0.21326328846E+04  0.00000000000E+00 0.  1.
          1    1    1    2  502    0  0.10844883223E+02 -0.26963749547E+02 -0.16896456398E+02  0.33617637046E+02  0.00000000000E+00 0. -1.
</event>
<event>
 4    1  0.6845035E+003  0.2781652E+02  0.7546771E-02  0.1439574E+00
          2   -1    0    0  502    0  0.00000000000E+00  0.00000000000E+00  0.99934545312E+03  0.99934545312E+03  0.00000000000E+00 0.  1.
          1   -1    0    0  501    0 -0.00000000000E+00 -0.00000000000E+00 -0.14011568298E+04  0.14011568298E+04  0.00000000000E+00 0.  1.
          2    1    1    2  501    0  0.32682531006E+01 -0.27623849443E+02  0.99901378387E+03  0.99940097003E+03  0.00000000000E+00 0.  1.
          1    1    1    2  502    0 -0.32682531006E+01  0.27623849443E+02 -0.14008251606E+04  0.14011013129E+04  0.00000000000E+00 0.  1.
</event>
<event>
 4    1  0.3837333E+003  0.2111592E+02  0.7546771E-02  0.1517616E+00
          2   -1    0    0  502    0  0.00000000000E+00  0.00000000000E+00  0.62603350281E+01  0.62603350281E+01  0.00000000000E+00 0. -1.
          1   -1    0    0  501    0 -0.00000000000E+00 -0.00000000000E+00 -0.60066866441E+03  0.60066866441E+03  0.00000000000E+00 0. -1.
          2    1    1    2  501    0  0.69306605719E+01 -0.19946127921E+02 -0.12298583604E+02  0.24436391584E+02  0.00000000000E+00 0. -1.
          1    1    1    2  502    0 -0.69306605719E+01  0.19946127921E+02 -0.58210974578E+03  0.58249260785E+03  0.00000000000E+00 0. -1.
</event>
<event>
 4    1  0.3837333E+003  0.4907206E+02  0.7546771E-02  0.1302247E+00
          2   -1    0    0  502    0  0.00000000000E+00  0.00000000000E+00  0.32050243436E+02  0.32050243436E+02  0.00000000000E+00 0. -1.
          1   -1    0    0  501    0 -0.00000000000E+00 -0.00000000000E+00 -0.10402655587E+04  0.10402655587E+04  0.00000000000E+00 0.  1.
          2    1    1    2  501    0 -0.46704747079E+02  0.15057668986E+02  0.12325159438E+02  0.50596208852E+02  0.00000000000E+00 0. -1.
          1    1    1    2  502    0  0.46704747079E+02 -0.15057668986E+02 -0.10205404747E+04  0.10217195933E+04  0.00000000000E+00 0.  1.
</event>
<event>
 4    1  0.3837333E+003  0.2281492E+02  0.7546771E-02  0.1494835E+00
          2   -1    0    0  502    0  0.00000000000E+00  0.00000000000E+00  0.29862637775E+02  0.29862637775E+02  0.00000000000E+00 0.  1.
          1   -1    0    0  501    0 -0.00000000000E+00 -0.00000000000E+00 -0.21529397126E+03  0.21529397126E+03  0.00000000000E+00 0. -1.
          2    1    1    2  501    0  0.20996514372E+02 -0.89256413315E+01  0.24795865274E+02  0.33695038561E+02  0.00000000000E+00 0.  1.
          1    1    1    2  502    0 -0.20996514372E+02  0.89256413315E+01 -0.21022719876E+03  0.21146157048E+03  0.00000000000E+00 0. -1.
</event>
<event>
 4    1  0.3837333E+003  0.2009760E+02  0.7546771E-02  0.1532549E+00
          2   -1    0    0  502    0  0.00000000000E+00  0.00000000000E+00  0.11061686554E+04  0.11061686554E+04  0.00000000000E+00 0. -1.
          1   -1    0    0  501    0 -0.00000000000E+00 -0.00000000000E+00 -0.87132640201E+01  0.87132640201E+01  0.00000000000E+00 0.  1.
          2    1    1    2  501    0  0.58848633220E+01  0.19216711960E+02  0.10943633186E+04  0.10945478458E+04  0.00000000000E+00 0. -1.
          1    1    1    2  502    0 -0.58848633220E+01 -0.19216711960E+02  0.30920727427E+01  0.20334073589E+02  0.00000000000E+00 0.  1.
</event>
<event>
 4    1  0.3837333E+003  0.2536877E+02  0.7546771E-02  0.1464720E+00
          2   -1    0    0  502    0  0.00000000000E+00  0.00000000000E+00  0.15960994699E+02  0.15960994699E+02  0.00000000000E+00 0. -1.
          1   -1    0    0  501    0 -0.00000000000E+00 -0.00000000000E+00 -0.22559057603E+03  0.22559057603E+03  0.00000000000E+00 0. -1.
          2    1    1    2  501    0 -0.12757869184E+02  0.21927407068E+02  0.46364350478E+01  0.25788969285E+02  0.00000000000E+00 0. -1.
          1    1    1    2  502    0  0.12757869184E+02 -0.21927407068E+02 -0.21426601638E+03  0.21576260144E+03  0.00000000000E+00 0. -1.
</event>
<event>
 4    1  0.3837333E+003  0.3024597E+02  0.7546771E-02  0.1417471E+00
          2   -1    0    0  502    0  0.00000000000E+00  0.00000000000E+00  0.94602222076E+03  0.94602222076E+03  0.00000000000E+00 0. -1.
          1   -1    0    0  501    0 -0.00000000000E+00 -0.00000000000E+00 -0.45583005252E+01  0.45583005252E+01  0.00000000000E+00 0. -1.
          2    1    1    2  501    0  0.84683569795E+01 -0.29036284924E+02  0.89260553830E+03  0.89311783428E+03  0.00000000000E+00 0. -1.
          1    1    1    2  502    0 -0.84683569795E+01  0.29036284924E+02  0.48858381933E+02  0.57462687000E+02  0.00000000000E+00 0. -1.
</event>
<event>
 4    1  0.3837333E+003  0.2256919E+02  0.7546771E-02  0.1497980E+00
          2   -1    0    0  502    0  0.00000000000E+00  0.00000000000E+00  0.21434386958E+02  0.21434386958E+02  0.00000000000E+00 0.  1.
          1   -1    0    0  501    0 -0.00000000000E+00 -0.00000000000E+00 -0.34746016388E+02  0.34746016388E+02  0.00000000000E+00 0. -1.
          2    1    1    2  501    0  0.56833482910E+01 -0.21841881924E+02  0.91363630373E+01  0.24348334303E+02  0.00000000000E+00 0.  1.
          1    1    1    2  502    0 -0.56833482910E+01  0.21841881924E+02 -0.22447992467E+02  0.31832069044E+02  0.00000000000E+00 0. -1.
</event>
<event>
 4    1  0.3837333E+003  0.2143628E+02  0.7546771E-02  0.1513126E+00
          2   -1    0    0  502    0  0.00000000000E+00  0.00000000000E+00  0.64456642800E+01  0.64456642800E+01  0.00000000000E+00 0. -1.
          1   -1    0    0  501    0 -0.00000000000E+00 -0.00000000000E+00 -0.80188596818E+03  0.80188596818E+03  0.00000000000E+00 0. -1.
          2    1    1    2  501    0 -0.19824615669E+02 -0.81546746572E+01 -0.11938309523E+02  0.24536449203E+02  0.00000000000E+00 0. -1.
          1    1    1    2  502    0  0.19824615669E+02  0.81546746572E+01 -0.78350199438E+03  0.78379518326E+03  0.00000000000E+00 0. -1.
</event>
<event>
 4    1  0.3837333E+003  0.2408378E+02  0.7546771E-02  0.1479320E+00
          2   -1    0    0  502    0  0.00000000000E+00  0.00000000000E+00  0.54197315624E+03  0.54197315624E+03  0.00000000000E+00 0. -1.
          1   -1    0    0  501    0 -0.00000000000E+00 -0.00000000000E+00 -0.23923326339E+03  0.23923326339E+03  0.00000000000E+00 0. -1.
          2    1    1    2  501    0  0.42496574195E+01 -0.23705886433E+02  0.54109848986E+03  0.54163419793E+03  0.00000000000E+00 0. -1.
          1    1    1    2  502    0 -0.42496574195E+01  0.23705886433E+02 -0.23835859702E+03  0.23957222170E+03  0.00000000000E+00 0. -1.
</event>
<event>
 4    1  0.3837333E+003  0.2169247E+02  0.7546771E-02  0.1509604E+00
          2   -1    0    0  502    0  0.00000000000E+00  0.00000000000E+00  0.74720896826E+03  0.74720896826E+03  0.00000000000E+00 0. -1.
          1   -1    0    0  501    0 -0.00000000000E+00 -0.00000000000E+00 -0.49856409918E+01  0.49856409918E+01  0.00000000000E+00 0. -1.
          2    1    1    2  501    0 -0.12389083197E+02 -0.17806563337E+02  0.72265403009E+03  0.72297953656E+03  0.00000000000E+00 0. -1.
          1    1    1    2  502    0  0.12389083197E+02  0.17806563337E+02  0.19569297182E+02  0.29215072694E+02  0.00000000000E+00 0. -1.
</event>
<event>
 4    1  0.3837333E+003  0.2133005E+02  0.7546771E-02  0.1514604E+00
          2   -1    0    0  502    0  0.00000000000E+00  0.00000000000E+00  0.71322348151E+00  0.71322348151E+00  0.00000000000E+00 0.  1.
          1   -1    0    0  501    0 -0.00000000000E+00 -0.00000000000E+00 -0.64405588078E+03  0.64405588078E+03  0.00000000000E+00 0.  1.
          2    1    1    2  501    0 -0.21317407011E+02 -0.73399744508E+00 -0.35317009357E+03  0.35381363115E+03  0.00000000000E+00 0.  1.
          1    1    1    2  502    0  0.21317407011E+02  0.73399744508E+00 -0.29017256373E+03  0.29095547311E+03  0.00000000000E+00 0.  1.
</event>
<event>
 4    1  0.3837333E+003  0.3509287E+02  0.7546771E-02  0.1379911E+00
          2   -1    0    0  502    0  0.00000000000E+00  0.00000000000E+00  0.26064544483E+02  0.26064544483E+02  0.00000000000E+00 0.  1.
          1   -1    0    0  501    0 -0.00000000000E+00 -0.00000000000E+00 -0.78410753460E+02  0.78410753460E+02  0.00000000000E+00 0.  1.
          2    1    1    2  501    0 -0.32263845365E+02 -0.13804120303E+02  0.67583225781E+01  0.35737716480E+02  0.00000000000E+00 0.  1.
          1    1    1    2  502    0  0.32263845365E+02  0.13804120303E+02 -0.59104531555E+02  0.68737581463E+02  0.00000000000E+00 0.  1.
</event>
<event>
 4    1  0.3837333E+003  0.2106727E+02  0.7546771E-02  0.1518306E+00
          2   -1    0    0  502    0  0.00000000000E+00  0.00000000000E+00  0.16365685417E+02  0.16365685417E+02  0.00000000000E+00 0. -1.
          1   -1    0    0  501    0 -0.00000000000E+00 -0.00000000000E+00 -0.75164906347E+02  0.75164906347E+02  0.00000000000E+00 0. -1.
          2    1    1    2  501    0 -0.19261955851E+02 -0.85326980771E+01  0.71897200736E+01  0.22260322424E+02  0.00000000000E+00 0. -1.
          1    1    1    2  502    0  0.19261955851E+02  0.85326980771E+01 -0.65988941003E+02  0.69270269340E+02  0.00000000000E+00 0. -1.
</event>
<event>
 4    1  0.3837333E+003  0.2465077E+02  0.7546771E-02  0.1472748E+00
          2   -1    0    0  502    0  0.00000000000E+00  0.00000000000E+00  0.36977105338E+03  0.36977105338E+03  0.00000000000E+00 0. -1.
          1   -1    0    0  501    0 -0.00000000000E+00 -0.00000000000E+00 -0.14462215356E+02  0.14462215356E+02  0.00000000000E+00 0.  1.
          2    1    1    2  501    0 -0.22453931554E+02  0.10172583534E+02  0.35852689224E+03  0.35937333368E+03  0.00000000000E+00 0. -1.
          1    1    1    2  502    0  0.22453931554E+02 -0.10172583534E+02 -0.32180542213E+01  0.24859935055E+02  0.00000000000E+00 0.  1.
</event>
<event>
 4    1  0.3837333E+003  0.2143013E+02  0.7546771E-02  0.1513211E+00
          2   -1    0    0  502    0  0.00000000000E+00  0.00000000000E+00  0.92137127878E+03  0.92137127878E+03  0.00000000000E+00 0. -1.
          1   -1    0    0  501    0 -0.00000000000E+00 -0.00000000000E+00 -0.24436307324E+01  0.24436307324E+01  0.00000000000E+00 0. -1.
          2    1    1    2  501    0 -0.20233055102E+02  0.70621621648E+01  0.87157841684E+03  0.87184183620E+03  0.00000000000E+00 0. -1.
          1    1    1    2  502    0  0.20233055102E+02 -0.70621621648E+01  0.47349231203E+02  0.51973073304E+02  0.00000000000E+00 0. -1.
</event>
<event>
 4    1  0.3837333E+003  0.2251894E+02  0.7546771E-02  0.1498629E+00
          2   -1    0    0  502    0  0.00000000000E+00  0.00000000000E+00  0.23413261372E+02  0.23413261372E+02  0.00000000000E+00 0.  1.
          1   -1    0    0  501    0 -0.00000000000E+00 -0.00000000000E+00 -0.64884061806E+02  0.64884061806E+02  0.00000000000E+00 0. -1.
          2    1    1    2  501    0 -0.20105143724E+02  0.10143262478E+02  0.15299013906E+02  0.27224298051E+02  0.00000000000E+00 0.  1.
          1    1    1    2  502    0  0.20105143724E+02 -0.10143262478E+02 -0.56769814341E+02  0.61073025127E+02  0.00000000000E+00 0. -1.
</event>
<event>
 4    1  0.3837333E+003  0.2120099E+02  0.7546771E-02  0.1516414E+00
          2   -1    0    0  502    0  0.00000000000E+00  0.00000000000E+00  0.91972446462E+01  0.91972446462E+01  0.00000000000E+00 0.  1.
          1   -1    0    0  501    0 -0.00000000000E+00 -0.00000000000E+00 -0.80875779713E+02  0.80875779713E+02  0.00000000000E+00 0.  1.
          2    1    1    2  501    0 -0.16047491877E+02 -0.13854968073E+02 -0.75083734829E+01  0.22491282938E+02  0.00000000000E+00 0.  1.
          1    1    1    2  502    0  0.16047491877E+02  0.13854968073E+02 -0.64170161583E+02  0.67581741421E+02  0.00000000000E+00 0.  1.
</event>
<event>
 4    1  0.3837333E+003  0.3181541E+02  0.7546771E-02  0.1404450E+00
          2   -1    0    0  502    0  0.00000000000E+00  0.00000000000E+00  0.28374430134E+03  0.28374430134E+03  0.00000000000E+00 0.  1.
          1   -1    0    0  501    0 -0.00000000000E+00 -0.00000000000E+00 -0.10304874027E+03  0.10304874027E+03  0.00000000000E+00 0. -1.
          2    1    1    2  501    0  0.53131417123E+01  0.31368625461E+02  0.28036729261E+03  0.28216668638E+03  0.00000000000E+00 0.  1.
          1    1    1    2  502    0 -0.53131417123E+01 -0.31368625461E+02 -0.99671731546E+02  0.10462635522E+03  0.00000000000E+00 0. -1.
</event>
<event>
 4    1  0.3837333E+003  0.3397260E+02  0.7546771E-02  0.1387934E+00
          2   -1    0    0  502    0  0.00000000000E+00  0.00000000000E+00  0.20326764461E+04  0.20326764461E+04  0.00000000000E+00 0.  1.
          1   -1    0    0  501    0 -0.00000000000E+00 -0.00000000000E+00 -0.99688612931E+00  0.99688612931E+00  0.00000000000E+00 0.  1.
          2    1    1    2  501    0 -0.10528147205E+02  0.32300089594E+02  0.16829608331E+04  0.16833036872E+04  0.00000000000E+00 0.  1.
          1    1    1    2  502    0  0.10528147205E+02 -0.32300089594E+02  0.34871872690E+03  0.35036964504E+03  0.00000000000E+00 0.  1.
</event>
<event>
 4    1  0.3837333E+003  0.2826784E+02  0.7546771E-02  0.1435272E+00
          2   -1    0    0  502    0  0.00000000000E+00  0.00000000000E+00  0.41979115179E+03  0.41979115179E+03  0.00000000000E+00 0.  1.
          1   -1    0    0  501    0 -0.00000000000E+00 -0.00000000000E+00 -0.67381727167E+02  0.67381727167E+02  0.00000000000E+00 0.  1.
          2    1    1    2  501    0 -0.21310119484E+02 -0.18572821931E+02  0.41632591301E+03  0.41728447940E+03  0.00000000000E+00 0.  1.
          1    1    1    2  502    0  0.21310119484E+02  0.18572821931E+02 -0.63916488378E+02  0.69888399563E+02  0.00000000000E+00 0.  1.
</event>
<event>
 4    1  0.3837333E+003  0.6911195E+02  0.7546771E-02  0.1231665E+00
          2   -1    0    0  502    0  0.00000000000E+00  0.00000000000E+00  0.13148371112E+02  0.13148371112E+02  0.00000000000E+00 0. -1.
          1   -1    0    0  501    0 -0.00000000000E+00 -0.00000000000E+00 -0.50733649081E+03  0.50733649081E+03  0.00000000000E+00 0. -1.
          2    1    1    2  501    0 -0.14141139751E+02  0.67649755618E+02 -0.10841671186E+03  0.12857155471E+03  0.00000000000E+00 0. -1.
          1    1    1    2  502    0  0.14141139751E+02 -0.67649755618E+02 -0.38577140783E+03  0.39191330721E+03  0.00000000000E+00 0. -1.
</event>
<event>
 4    1  0.3837333E+003  0.2049465E+02  0.7546771E-02  0.1526604E+00
          2   -1    0    0  502    0  0.00000000000E+00  0.00000000000E+00  0.36266152903E+02  0.36266152903E+02  0.00000000000E+00 0.  1.
          1   -1    0    0  501    0 -0.00000000000E+00 -0.00000000000E+00 -0.21253969127E+02  0.21253969127E+02  0.00000000000E+00 0.  1.
          2    1    1    2  501    0 -0.91401041573E+01  0.18343637465E+02  0.26907342889E+02  0.33823595918E+02  0.00000000000E+00 0.  1.
          1    1    1    2  502    0  0.91401041573E+01 -0.18343637465E+02 -0.11895159113E+02  0.23696526112E+02  0.00000000000E+00 0.  1.
</event>
<event>
 4    1  0.3837333E+003  0.2592205E+02  0.7546771E-02  0.1458747E+00
          2   -1    0    0  502    0  0.00000000000E+00  0.00000000000E+00  0.80680575897E+02  0.80680575897E+02  0.00000000000E+00 0.  1.
          1   -1    0    0  501    0 -0.00000000000E+00 -0.00000000000E+00 -0.96783397753E+02  0.96783397753E+02  0.00000000000E+00 0. -1.
          2    1    1    2  501    0  0.25893056287E+02  0.12256317728E+01  0.76776853874E+02  0.81034793934E+02  0.00000000000E+00 0.  1.
          1    1    1    2  502    0 -0.25893056287E+02 -0.12256317728E+01 -0.92879675730E+02  0.96429179716E+02  0.00000000000E+00 0. -1.
</event>
<event>
 4    1  0.3837333E+003  0.3139224E+02  0.7546771E-02  0.1407872E+00
          2   -1    0    0  502    0  0.00000000000E+00  0.00000000000E+00  0.20341241279E+04  0.20341241279E+04  0.00000000000E+00 0.  1.
          1   -1    0    0  501    0 -0.00000000000E+00 -0.00000000000E+00 -0.13841025199E+02  0.13841025199E+02  0.00000000000E+00 0.  1.
          2    1    1    2  501    0 -0.73882620372E+01  0.30510428746E+02  0.20160435349E+04  0.20162879276E+04  0.00000000000E+00 0.  1.
          1    1    1    2  502    0  0.73882620372E+01 -0.30510428746E+02  0.42395678531E+01  0.31677225475E+02  0.00000000000E+00 0.  1.
</event>
<event>
 4    1  0.3837333E+003  0.2628730E+02  0.7546771E-02  0.1454902E+00
          2   -1    0    0  502    0  0.00000000000E+00  0.00000000000E+00  0.50798544738E+01  0.50798544738E+01  0.00000000000E+00 0.  1.
          1   -1    0    0  501    0 -0.00000000000E+00 -0.00000000000E+00 -0.26348700931E+03  0.26348700931E+03  0.00000000000E+00 0.  1.
          2    1    1    2  501    0 -0.18567912611E+02 -0.18607915130E+02 -0.35809018045E+02  0.44421927666E+02  0.00000000000E+00 0.  1.
          1    1    1    2  502    0  0.18567912611E+02  0.18607915130E+02 -0.22259813679E+03  0.22414493611E+03  0.00000000000E+00 0.  1.
</event>
<event>
 4    1  0.3837333E+003  0.9970443E+02  0.7546771E-02  0.1164321E+00
          2   -1    0    0  502    0  0.00000000000E+00  0.00000000000E+00  0.16929122222E+03  0.16929122222E+03  0.00000000000E+00 0.  1.
          1   -1    0    0  501    0 -0.00000000000E+00 -0.00000000000E+00 -0.12708748248E+03  0.12708748248E+03  0.00000000000E+00 0.  1.
          2    1    1    2  501    0  0.16139714858E+02 -0.98389449508E+02  0.12979116527E+03  0.16366649245E+03  0.00000000000E+00 0.  1.
          1    1    1    2  502    0 -0.16139714858E+02  0.98389449508E+02 -0.87587425521E+02  0.13271221225E+03  0.00000000000E+00 0.  1.
</event>
<event>
 4    1  0.3837333E+003  0.8289552E+02  0.7546771E-02  0.1197280E+00
          2   -1    0    0  502    0  0.00000000000E+00  0.00000000000E+00  0.25963311089E+04  0.25963311089E+04  0.00000000000E+00 0. -1.
          1   -1    0    0  501    0 -0.00000000000E+00 -0.00000000000E+00 -0.69913177625E+01  0.69913177625E+01  0.00000000000E+00 0. -1.
          2    1    1    2  501    0 -0.25568860675E+01  0.82856076047E+02  0.23207825625E+04  0.23222625539E+04  0.00000000000E+00 0. -1.
          1    1    1    2  502    0  0.25568860675E+01 -0.82856076047E+02  0.26855722864E+03  0.28105987273E+03  0.00000000000E+00 0. -1.
</event>
<event>
 4    1  0.3837333E+003  0.2038913E+02  0.7546771E-02  0.1528168E+00
          2   -1    0    0  502    0  0.00000000000E+00  0.00000000000E+00  0.63532060255E+03  0.63532060255E+03  0.00000000000E+00 0.  1.
          1   -1    0    0  501    0 -0.00000000000E+00 -0.00000000000E+00 -0.18368892127E+02  0.18368892127E+02  0.00000000000E+00 0.  1.
          2    1    1    2  501    0  0.15173056744E+02  0.13619656046E+02  0.62944633918E+03  0.62977647669E+03  0.00000000000E+00 0.  1.
          1    1    1    2  502    0 -0.15173056744E+02 -0.13619656046E+02 -0.12494628755E+02  0.23913017992E+02  0.00000000000E+00 0.  1.
</event>
<event>
 4    1  0.3837333E+003  0.2285669E+02  0.7546771E-02  0.1494306E+00
          2   -1    0    0  502    0  0.00000000000E+00  0.00000000000E+00  0.16880371367E+04  0.16880371367E+04  0.00000000000E+00 0.  1.
          1   -1    0    0  501    0 -0.00000000000E+00 -0.00000000000E+00 -0.44629590219E+00  0.44629590219E+00  0.00000000000E+00 0.  1.
          2    1    1    2  501    0  0.22616173179E+02  0.33071220844E+01  0.13112182369E+04  0.13114174366E+04  0.00000000000E+00 0.  1.
          1    1    1    2  502    0 -0.22616173179E+02 -0.33071220844E+01  0.37637260391E+03  0.37706599597E+03  0.00000000000E+00 0.  1.
</event>
<event>
 4    1  0.3837333E+003  0.4402873E+02  0.7546771E-02  0.1326368E+00
          2   -1    0    0  502    0  0.00000000000E+00  0.00000000000E+00  0.18155206293E+04  0.18155206293E+04  0.00000000000E+00 0. -1.
          1   -1    0    0  501    0 -0.00000000000E+00 -0.00000000000E+00 -0.11291107819E+02  0.11291107819E+02  0.00000000000E+00 0.  1.
          2    1    1    2  501    0  0.15755065971E+02 -0.41113346262E+02  0.17712597223E+04  0.17718068555E+04  0.00000000000E+00 0. -1.
          1    1    1    2  502    0 -0.15755065971E+02  0.41113346262E+02  0.32969799192E+02  0.55004881632E+02  0.00000000000E+00 0.  1.
</event>
<event>
 4    1  0.3837333E+003  0.2144075E+02  0.7546771E-02  0.1513064E+00
          2   -1    0    0  502    0  0.00000000000E+00  0.00000000000E+00  0.14344319977E+01  0.14344319977E+01  0.00000000000E+00 0.  1.
          1   -1    0    0  501    0 -0.00000000000E+00 -0.00000000000E+00 -0.89854935211E+03  0.89854935211E+03  0.00000000000E+00 0. -1.
          2    1    1    2  501    0  0.21407527017E+02  0.11930396469E+01 -0.87626605080E+02  0.90211570624E+02  0.00000000000E+00 0.  1.
          1    1    1    2  502    0 -0.21407527017E+02 -0.11930396469E+01 -0.80948831503E+03  0.80977221348E+03  0.00000000000E+00 0. -1.
</event>
<event>
 4    1  0.3837333E+003  0.2600702E+02  0.7546771E-02  0.1457846E+00
          2   -1    0    0  502    0  0.00000000000E+00  0.00000000000E+00  0.17692571205E+02  0.17692571205E+02  0.00000000000E+00 0.  1.
          1   -1    0    0  501    0 -0.00000000000E+00 -0.00000000000E+00 -0.31365472128E+03  0.31365472128E+03  0.00000000000E+00 0.  1.
          2    1    1    2  501    0  0.21183315481E+02 -0.15087477443E+02  0.72683366416E+01  0.27003583983E+02  0.00000000000E+00 0.  1.
          1    1    1    2  502    0 -0.21183315481E+02  0.15087477443E+02 -0.30323048671E+03  0.30434370850E+03  0.00000000000E+00 0.  1.
</event>
<event>
 4    1  0.3837333E+003  0.2091917E+02  0.7546771E-02  0.1520422E+00
          2   -1    0    0  502    0  0.00000000000E+00  0.00000000000E+00  0.13349478117E+04  0.13349478117E+04  0.00000000000E+00 0.  1.
          1   -1    0    0  501    0 -0.00000000000E+00 -0.00000000000E+00 -0.41985842937E+00  0.41985842937E+00  0.00000000000E+00 0.  1.
          2    1    1    2  501    0 -0.98598721263E+01  0.18449781226E+02  0.97988891193E+03  0.98011218298E+03  0.00000000000E+00 0.  1.
          1    1    1    2  502    0  0.98598721263E+01 -0.18449781226E+02  0.35463904138E+03  0.35525548719E+03  0.00000000000E+00 0.  1.
</event>
<event>
 4    1  0.3837333E+003  0.2825655E+02  0.7546771E-02  0.1435378E+00
          2   -1    0    0  502    0  0.00000000000E+00  0.00000000000E+00  0.54897164277E+01  0.54897164277E+01  0.00000000000E+00 0. -1.
          1   -1    0    0  501    0 -0.00000000000E+00 -0.00000000000E+00 -0.11005579126E+04  0.11005579126E+04  0.00000000000E+00 0. -1.
          2    1    1    2  501    0  0.22067497447E+02 -0.17648179542E+02 -0.32346341690E+02  0.42950186326E+02  0.00000000000E+00 0. -1.
          1    1    1    2  502    0 -0.22067497447E+02  0.17648179542E+02 -0.10627218545E+04  0.10630974427E+04  0.00000000000E+00 0. -1.
</event>
<event>
 4    1  0.3837333E+003  0.4963759E+02  0.7546771E-02  0.1299751E+00
          2   -1    0    0  502    0  0.00000000000E+00  0.00000000000E+00  0.63737068019E+03  0.63737068019E+03  0.00000000000E+00 0.  1.
          1   -1    0    0  501    0 -0.00000000000E+00 -0.00000000000E+00 -0.32133536217E+02  0.32133536217E+02  0.00000000000E+00 0. -1.
          2    1    1    2  501    0  0.20607113454E+02  0.45157917159E+02  0.61659009653E+03  0.61858486705E+03  0.00000000000E+00 0.  1.
          1    1    1    2  502    0 -0.20607113454E+02 -0.45157917159E+02 -0.11352952556E+02  0.50919349355E+02  0.00000000000E+00 0. -1.
</event>
<event>
 4    1  0.3837333E+003  0.2159450E+02  0.7546771E-02  0.1510944E+00
          2   -1    0    0  502    0  0.00000000000E+00  0.00000000000E+00  0.71068203852E+03  0.71068203852E+03  0.00000000000E+00 0. -1.
          1   -1    0    0  501    0 -0.00000000000E+00 -0.00000000000E+00 -0.49387213703E+01  0.49387213703E+01  0.00000000000E+00 0.  1.
          2    1    1    2  501    0 -0.98966130995E+01  0.19193211008E+02  0.68606582296E+03  0.68640559128E+03  0.00000000000E+00 0. -1.
          1    1    1    2  502    0  0.98966130995E+01 -0.19193211008E+02  0.19677494189E+02  0.29215168615E+02  0.00000000000E+00 0.  1.
</event>
<event>
 4    1  0.3837333E+003  0.2566320E+02  0.7546771E-02  0.1461519E+00
          2   -1    0    0  502    0  0.00000000000E+00  0.00000000000E+00  0.30263653329E+01  0.30263653329E+01  0.00000000000E+00 0.  1.
          1   -1    0    0  501    0 -0.00000000000E+00 -0.00000000000E+00 -0.39580424843E+03  0.39580424843E+03  0.00000000000E+00 0.  1.
          2    1    1    2  501    0 -0.19936955466E+02  0.16159135122E+02 -0.62590200417E+02  0.67647121368E+02  0.00000000000E+00 0.  1.
          1    1    1    2  502    0  0.19936955466E+02 -0.16159135122E+02 -0.33018768268E+03  0.33118349240E+03  0.00000000000E+00 0.  1.
</event>
<event>
 4    1  0.3837333E+003  0.3117721E+02  0.7546771E-02  0.1409635E+00
          2   -1    0    0  502    0  0.00000000000E+00  0.00000000000E+00  0.21818589010E+02  0.21818589010E+02  0.00000000000E+00 0.  1.
          1   -1    0    0  501    0 -0.00000000000E+00 -0.00000000000E+00 -0.43501756128E+03  0.43501756128E+03  0.00000000000E+00 0. -1.
          2    1    1    2  501    0 -0.24366463855E+02  0.19449780898E+02  0.98066359107E+01  0.32683155381E+02  0.00000000000E+00 0.  1.
          1    1    1    2  502    0  0.24366463855E+02 -0.19449780898E+02 -0.42300560818E+03  0.42415299491E+03  0.00000000000E+00 0. -1.
</event>
<event>
 4    1  0.3837333E+003  0.2357721E+02  0.7546771E-02  0.1485375E+00
          2   -1    0    0  502    0  0.00000000000E+00  0.00000000000E+00  0.40498866710E+03  0.40498866710E+03  0.00000000000E+00 0.  1.
          1   -1    0    0  501    0 -0.00000000000E+00 -0.00000000000E+00 -0.21570074052E+01  0.21570074052E+01  0.00000000000E+00 0.  1.
          2    1    1    2  501    0 -0.14038257445E+02 -0.18942334190E+02  0.32417861484E+03  0.32503485816E+03  0.00000000000E+00 0.  1.
          1    1    1    2  502    0  0.14038257445E+02  0.18942334190E+02  0.78653044854E+02  0.82110816349E+02  0.00000000000E+00 0.  1.
</event>
<event>
 4    1  0.3837333E+003  0.2449690E+02  0.7546771E-02  0.1474511E+00
          2   -1    0    0  502    0  0.00000000000E+00  0.00000000000E+00  0.40071443242E+02  0.40071443242E+02  0.00000000000E+00 0.  1.
          1   -1    0    0  501    0 -0.00000000000E+00 -0.00000000000E+00 -0.45348979402E+02  0.45348979402E+02  0.00000000000E+00 0.  1.
          2    1    1    2  501    0 -0.17971888076E+02  0.16646599625E+02  0.32314982372E+02  0.40550661226E+02  0.00000000000E+00 0.  1.
          1    1    1    2  502    0  0.17971888076E+02 -0.16646599625E+02 -0.37592518533E+02  0.44869761418E+02  0.00000000000E+00 0.  1.
</event>
<event>
 4    1  0.3837333E+003  0.2834539E+02  0.7546771E-02  0.1434542E+00
          2   -1    0    0  502    0  0.00000000000E+00  0.00000000000E+00  0.21091165773E+02  0.21091165773E+02  0.00000000000E+00 0.  1.
          1   -1    0    0  501    0 -0.00000000000E+00 -0.00000000000E+00 -0.65032882822E+02  0.65032882822E+02  0.00000000000E+00 0.  1.
          2    1    1    2  501    0  0.23043644600E+02 -0.16506107893E+02  0.57439746971E+01  0.28921521391E+02  0.00000000000E+00 0.  1.
          1    1    1    2  502    0 -0.23043644600E+02  0.16506107893E+02 -0.49685691746E+02  0.57202527204E+02  0.00000000000E+00 0.  1.
</event>
<event>
 4    1  0.3837333E+003  0.2028239E+02  0.7546771E-02  0.1529762E+00
          2   -1    0    0  502    0  0.00000000000E+00  0.00000000000E+00  0.10711396417E+03  0.10711396417E+03  0.00000000000E+00 0. -1.
          1   -1    0    0  501    0 -0.00000000000E+00 -0.00000000000E+00 -0.86722596171E+01  0.86722596171E+01  0.00000000000E+00 0. -1.
          2    1    1    2  501    0  0.19667206280E+01 -0.20186812322E+02  0.92433577486E+02  0.94632666816E+02  0.00000000000E+00 0. -1.
          1    1    1    2  502    0 -0.19667206280E+01  0.20186812322E+02  0.60081270681E+01  0.21153556973E+02  0.00000000000E+00 0. -1.
</event>
<event>
 4    1  0.3837333E+003  0.2167769E+02  0.7546771E-02  0.1509805E+00
          2   -1    0    0  502    0  0.00000000000E+00  0.00000000000E+00  0.15215834998E+04  0.15215834998E+04  0.00000000000E+00 0.  1.
          1   -1    0    0  501    0 -0.00000000000E+00 -0.00000000000E+00 -0.64170413304E+00  0.64170413304E+00  0.00000000000E+00 0.  1.
          2    1    1    2  501    0  0.20251554289E+02 -0.77328507326E+01  0.13086424074E+04  0.13088219409E+04  0.00000000000E+00 0.  1.
          1    1    1    2  502    0 -0.20251554289E+02  0.77328507326E+01  0.21229938827E+03  0.21340326308E+03  0.00000000000E+00 0.  1.
</event>
<event>
 4    1  0.3837333E+003  0.2111898E+02  0.7546771E-02  0.1517573E+00
          2   -1    0    0  502    0  0.00000000000E+00  0.00000000000E+00  0.10472561249E+03  0.10472561249E+03  0.00000000000E+00 0.  1.
          1   -1    0    0  501    0 -0.00000000000E+00 -0.00000000000E+00 -0.70782124699E+02  0.70782124699E+02  0.00000000000E+00 0.  1.
          2    1    1    2  501    0 -0.19687843876E+02  0.76419962802E+01  0.10204464912E+03  0.10420710972E+03  0.00000000000E+00 0.  1.
          1    1    1    2  502    0  0.19687843876E+02 -0.76419962802E+01 -0.68101161324E+02  0.71300627468E+02  0.00000000000E+00 0.  1.
</event>
<event>
 4    1  0.3837333E+003  0.2393309E+02  0.7546771E-02  0.1481102E+00
          2   -1    0    0  502    0  0.00000000000E+00  0.00000000000E+00  0.50711948999E+00  0.50711948999E+00  0.00000000000E+00 0.  1.
          1   -1    0    0  501    0 -0.00000000000E+00 -0.00000000000E+00 -0.11344252202E+04  0.11344252202E+04  0.00000000000E+00 0.  1.
          2    1    1    2  501    0 -0.12021427759E+02 -0.20694875222E+02 -0.52957663924E+03  0.53011716575E+03  0.00000000000E+00 0.  1.
          1    1    1    2  502    0  0.12021427759E+02  0.20694875222E+02 -0.60434146148E+03  0.60481517395E+03  0.00000000000E+00 0.  1.
</event>
<event>
 4    1  0.3837333E+003  0.2149280E+02  0.7546771E-02  0.1512344E+00
          2   -1    0    0  502    0  0.00000000000E+00  0.00000000000E+00  0.83536107174E+01  0.83536107174E+01  0.00000000000E+00 0. -1.
          1   -1    0    0  501    0 -0.00000000000E+00 -0.00000000000E+00 -0.43328931167E+03  0.43328931167E+03  0.00000000000E+00 0.  1.
          2    1    1    2  501    0  0.63796097044E+01 -0.20524156553E+02 -0.62182903096E+01  0.22374261028E+02  0.00000000000E+00 0. -1.
          1    1    1    2  502    0 -0.63796097044E+01  0.20524156553E+02 -0.41871741064E+03  0.41926866136E+03  0.00000000000E+00 0.  1.
</event>
<event>
 4    1  0.3837333E+003  0.2710640E+02  0.7546771E-02  0.1446542E+00
          2   -1    0    0  502    0  0.00000000000E+00  0.00000000000E+00  0.65736667354E+03  0.65736667354E+03  0.00000000000E+00 0.  1.
          1   -1    0    0  501    0 -0.00000000000E+00 -0.00000000000E+00 -0.12065852342E+03  0.12065852342E+03  0.00000000000E+00 0. -1.
          2    1    1    2  501    0 -0.26843636331E+02 -0.37651047706E+01  0.65556066042E+03  0.65612082448E+03  0.00000000000E+00 0.  1.
          1    1    1    2  502    0  0.26843636331E+02  0.37651047706E+01 -0.11885251029E+03  0.12190437248E+03  0.00000000000E+00 0. -1.
</event>
<event>
 4    1  0.3837333E+003  0.3221313E+02  0.7546771E-02  0.1401291E+00
          2   -1    0    0  502    0  0.00000000000E+00  0.00000000000E+00  0.17555150410E+02  0.17555150410E+02  0.00000000000E+00 0. -1.
          1   -1    0    0  501    0 -0.00000000000E+00 -0.00000000000E+00 -0.74121571875E+03  0.74121571875E+03  0.00000000000E+00 0. -1.
          2    1    1    2  501    0  0.58772724720E+01 -0.31672438143E+02  0.21133899790E+01  0.32282380440E+02  0.00000000000E+00 0. -1.
          1    1    1    2  502    0 -0.58772724720E+01  0.31672438143E+02 -0.72577395832E+03  0.72648848872E+03  0.00000000000E+00 0. -1.
</event>
<event>
 4    1  0.3837333E+003  0.2700737E+02  0.7546771E-02  0.1447534E+00
          2   -1    0    0  502    0  0.00000000000E+00  0.00000000000E+00  0.20234600356E+03  0.20234600356E+03  0.00000000000E+00 0. -1.
          1   -1    0    0  501    0 -0.00000000000E+00 -0.00000000000E+00 -0.80076127669E+01  0.80076127669E+01  0.00000000000E+00 0. -1.
          2    1    1    2  501    0  0.23286669369E+02  0.13679505181E+02  0.17515906694E+03  0.17722893828E+03  0.00000000000E+00 0. -1.
          1    1    1    2  502    0 -0.23286669369E+02 -0.13679505181E+02  0.19179323854E+02  0.33124678048E+02  0.00000000000E+00 0. -1.
</event>
<event>
 4    1  0.3837333E+003  0.3621839E+02  0.7546771E-02  0.1372194E+00
          2   -1    0    0  502    0  0.00000000000E+00  0.00000000000E+00  0.85144739933E+03  0.85144739933E+03  0.00000000000E+00 0.  1.
          1   -1    0    0  501    0 -0.00000000000E+00 -0.00000000000E+00 -0.43450664393E+01  0.43450664393E+01  0.00000000000E+00 0.  1.
          2    1    1    2  501    0  0.34132483649E+02 -0.12113862912E+02  0.76731678825E+03  0.76817109139E+03  0.00000000000E+00 0.  1.
          1    1    1    2  502    0 -0.34132483649E+02  0.12113862912E+02  0.79785544635E+02  0.87621374376E+02  0.00000000000E+00 0.  1.
</event>
<event>
 4    1  0.3837333E+003  0.3508124E+02  0.7546771E-02  0.1379993E+00
          2   -1    0    0  502    0  0.00000000000E+00  0.00000000000E+00  0.13884888975E+01  0.13884888975E+01  0.00000000000E+00 0. -1.
          1   -1    0    0  501    0 -0.00000000000E+00 -0.00000000000E+00 -0.17511996032E+04  0.17511996032E+04  0.00000000000E+00 0. -1.
          2    1    1    2  501    0  0.18687366366E+02  0.29689661973E+02 -0.25908930590E+03  0.26145355634E+03  0.00000000000E+00 0. -1.
          1    1    1    2  502    0 -0.18687366366E+02 -0.29689661973E+02 -0.14907218084E+04  0.14911345358E+04  0.00000000000E+00 0. -1.
</event>
<event>
 4    1  0.3837333E+003  0.3656072E+02  0.7546771E-02  0.1369911E+00
          2   -1    0    0  502    0  0.00000000000E+00  0.00000000000E+00  0.55590902687E+03  0.55590902687E+03  0.00000000000E+00 0.  1.
          1   -1    0    0  501    0 -0.00000000000E+00 -0.00000000000E+00 -0.97361810278E+02  0.97361810278E+02  0.00000000000E+00 0. -1.
          2    1    1    2  501    0 -0.25137052710E+02  0.26548348568E+02  0.55185042019E+03  0.55306018885E+03  0.00000000000E+00 0.  1.
          1    1    1    2  502    0  0.25137052710E+02 -0.26548348568E+02 -0.93303203597E+02  0.10021064830E+03  0.00000000000E+00 0. -1.
</event>
<event>
 4    1  0.3837333E+003  0.3587384E+02  0.7546771E-02  0.1374522E+00
          2   -1    0    0  502    0  0.00000000000E+00  0.00000000000E+00  0.54492649898E+01  0.54492649898E+01  0.00000000000E+00 0.  1.
          1   -1    0    0  501    0 -0.00000000000E+00 -0.00000000000E+00 -0.25562225316E+03  0.25562225316E+03  0.00000000000E+00 0. -1.
          2    1    1    2  501    0  0.15517578995E+02  0.32344040696E+02 -0.89073643523E+02  0.96026278679E+02  0.00000000000E+00 0.  1.
          1    1    1    2  502    0 -0.15517578995E+02 -0.32344040696E+02 -0.16109934464E+03  0.16504523947E+03  0.00000000000E+00 0. -1.
</event>
<event>
 4    1  0.3837333E+003  0.5372789E+02  0.7546771E-02  0.1282771E+00
          2   -1    0    0  502    0  0.00000000000E+00  0.00000000000E+00  0.17702535449E+02  0.17702535449E+02  0.00000000000E+00 0. -1.
          1   -1    0    0  501    0 -0.00000000000E+00 -0.00000000000E+00 -0.67420142083E+03  0.67420142083E+03  0.00000000000E+00 0.  1.
          2    1    1    2  501    0 -0.16480476029E+02  0.51137854582E+02 -0.27025932792E+02  0.60142225638E+02  0.00000000000E+00 0. -1.
          1    1    1    2  502    0  0.16480476029E+02 -0.51137854582E+02 -0.62947295258E+03  0.63176173064E+03  0.00000000000E+00 0.  1.
</event>
<event>
 4    1  0.3837333E+003  0.3810121E+02  0.7546771E-02  0.1359987E+00
          2   -1    0    0  502    0  0.00000000000E+00  0.00000000000E+00  0.71891387789E+02  0.71891387789E+02  0.00000000000E+00 0. -1.
          1   -1    0    0  501    0 -0.00000000000E+00 -0.00000000000E+00 -0.66215947114E+02  0.66215947114E+02  0.00000000000E+00 0.  1.
          2    1    1    2  501    0  0.33263497834E+02 -0.18580677797E+02  0.60407255705E+02  0.71419454054E+02  0.00000000000E+00 0. -1.
          1    1    1    2  502    0 -0.33263497834E+02  0.18580677797E+02 -0.54731815031E+02  0.66687880849E+02  0.00000000000E+00 0.  1.
</event>
<event>
 4    1  0.3837333E+003  0.3789446E+02  0.7546771E-02  0.1361286E+00
          2   -1    0    0  502    0  0.00000000000E+00  0.00000000000E+00  0.61372955518E+02  0.61372955518E+02  0.00000000000E+00 0.  1.
          1   -1    0    0  501    0 -0.00000000000E+00 -0.00000000000E+00 -0.49336336400E+02  0.49336336400E+02  0.00000000000E+00 0.  1.
          2    1    1    2  501    0 -0.13441991724E+01 -0.37870609434E+02  0.46155194533E+02  0.59718438633E+02  0.00000000000E+00 0.  1.
          1    1    1    2  502    0  0.13441991724E+01  0.37870609434E+02 -0.34118575416E+02  0.50990853285E+02  0.00000000000E+00 0.  1.
</event>
<event>
 4    1  0.3837333E+003  0.2418321E+02  0.7546771E-02  0.1478152E+00
          2   -1    0    0  502    0  0.00000000000E+00  0.00000000000E+00  0.16176540534E+04  0.16176540534E+04  0.00000000000E+00 0.  1.
          1   -1    0    0  501    0 -0.00000000000E+00 -0.00000000000E+00 -0.10042138278E+01  0.10042138278E+01  0.00000000000E+00 0. -1.
          2    1    1    2  501    0  0.23389169464E+02 -0.61461019831E+01  0.14557824932E+04  0.14559833431E+04  0.00000000000E+00 0.  1.
          1    1    1    2  502    0 -0.23389169464E+02  0.61461019831E+01  0.16086734637E+03  0.16267492415E+03  0.00000000000E+00 0. -1.
</event>
<event>
 4    1  0.3837333E+003  0.2386341E+02  0.7546771E-02  0.1481932E+00
          2   -1    0    0  502    0  0.00000000000E+00  0.00000000000E+00  0.12239180369E+03  0.12239180369E+03  0.00000000000E+00 0. -1.
          1   -1    0    0  501    0 -0.00000000000E+00 -0.00000000000E+00 -0.92104634513E+02  0.92104634513E+02  0.00000000000E+00 0. -1.
          2    1    1    2  501    0 -0.18258737662E+02  0.15364928179E+02  0.11964781023E+03  0.12200434833E+03  0.00000000000E+00 0. -1.
          1    1    1    2  502    0  0.18258737662E+02 -0.15364928179E+02 -0.89360641055E+02  0.92492089871E+02  0.00000000000E+00 0. -1.
</event>
<event>
 4    1  0.3837333E+003  0.2992713E+02  0.7546771E-02  0.1420231E+00
          2   -1    0    0  502    0  0.00000000000E+00  0.00000000000E+00  0.90076576157E+03  0.90076576157E+03  0.00000000000E+00 0.  1.
          1   -1    0    0  501    0 -0.00000000000E+00 -0.00000000000E+00 -0.16071486647E+01  0.16071486647E+01  0.00000000000E+00 0.  1.
          2    1    1    2  501    0 -0.29923438981E+02 -0.46973226702E+00  0.72819403972E+03  0.72880874880E+03  0.00000000000E+00 0.  1.
          1    1    1    2  502    0  0.29923438981E+02  0.46973226702E+00  0.17096457319E+03  0.17356416143E+03  0.00000000000E+00 0.  1.
</event>
<event>
 4    1  0.3837333E+003  0.4148811E+02  0.7546771E-02  0.1339979E+00
          2   -1    0    0  502    0  0.00000000000E+00  0.00000000000E+00  0.29755627032E+03  0.29755627032E+03  0.00000000000E+00 0.  1.
          1   -1    0    0  501    0 -0.00000000000E+00 -0.00000000000E+00 -0.87681630545E+02  0.87681630545E+02  0.00000000000E+00 0.  1.
          2    1    1    2  501    0  0.43849537566E+01  0.41255732008E+02  0.29109399328E+03  0.29403567158E+03  0.00000000000E+00 0.  1.
          1    1    1    2  502    0 -0.43849537566E+01 -0.41255732008E+02 -0.81219353500E+02  0.91202229282E+02  0.00000000000E+00 0.  1.
</event>
<event>
 4    1  0.3837333E+003  0.2621357E+02  0.7546771E-02  0.1455672E+00
          2   -1    0    0  502    0  0.00000000000E+00  0.00000000000E+00  0.18475974496E+03  0.18475974496E+03  0.00000000000E+00 0. -1.
          1   -1    0    0  501    0 -0.00000000000E+00 -0.00000000000E+00 -0.53486056127E+01  0.53486056127E+01  0.00000000000E+00 0. -1.
          2    1    1    2  501    0  0.13270310978E+02  0.22606415670E+02  0.14217069942E+03  0.14456714342E+03  0.00000000000E+00 0. -1.
          1    1    1    2  502    0 -0.13270310978E+02 -0.22606415670E+02  0.37240439923E+02  0.45541207149E+02  0.00000000000E+00 0. -1.
</event>
<event>
 4    1  0.3837333E+003  0.5026551E+02  0.7546771E-02  0.1297025E+00
          2   -1    0    0  502    0  0.00000000000E+00  0.00000000000E+00  0.18315056184E+03  0.18315056184E+03  0.00000000000E+00 0. -1.
          1   -1    0    0  501    0 -0.00000000000E+00 -0.00000000000E+00 -0.30761228037E+02  0.30761228037E+02  0.00000000000E+00 0. -1.
          2    1    1    2  501    0 -0.44659881562E+02  0.23067641696E+02  0.15562591933E+03  0.16354218992E+03  0.00000000000E+00 0. -1.
          1    1    1    2  502    0  0.44659881562E+02 -0.23067641696E+02 -0.32365855268E+01  0.50369599963E+02  0.00000000000E+00 0. -1.
</event>
<event>
 4    1  0.3837333E+003  0.4125776E+02  0.7546771E-02  0.1341269E+00
          2   -1    0    0  502    0  0.00000000000E+00  0.00000000000E+00  0.37487375209E+03  0.37487375209E+03  0.00000000000E+00 0. -1.
          1   -1    0    0  501    0 -0.00000000000E+00 -0.00000000000E+00 -0.79508085735E+02  0.79508085735E+02  0.00000000000E+00 0.  1.
          2    1    1    2  501    0  0.39670511915E+02  0.11333725192E+02  0.36829090439E+03  0.37059464796E+03  0.00000000000E+00 0. -1.
          1    1    1    2  502    0 -0.39670511915E+02 -0.11333725192E+02 -0.72925238036E+02  0.83787189862E+02  0.00000000000E+00 0.  1.
</event>
<event>
 4    1  0.3837333E+003  0.2282404E+02  0.7546771E-02  0.1494720E+00
          2   -1    0    0  502    0  0.00000000000E+00  0.00000000000E+00  0.78838956372E+02  0.78838956372E+02  0.00000000000E+00 0. -1.
          1   -1    0    0  501    0 -0.00000000000E+00 -0.00000000000E+00 -0.65678174844E+03  0.65678174844E+03  0.00000000000E+00 0. -1.
          2    1    1    2  501    0 -0.16581334278E+02 -0.15684261301E+02  0.76984086606E+02  0.80296240818E+02  0.00000000000E+00 0. -1.
          1    1    1    2  502    0  0.16581334278E+02  0.15684261301E+02 -0.65492687867E+03  0.65532446399E+03  0.00000000000E+00 0. -1.
</event>
<event>
 4    1  0.3837333E+003  0.2378796E+02  0.7546771E-02  0.1482834E+00
          2   -1    0    0  502    0  0.00000000000E+00  0.00000000000E+00  0.44229628016E+03  0.44229628016E+03  0.00000000000E+00 0. -1.
          1   -1    0    0  501    0 -0.00000000000E+00 -0.00000000000E+00 -0.12118278031E+02  0.12118278031E+02  0.00000000000E+00 0. -1.
          2    1    1    2  501    0 -0.21665615279E+02  0.98218277040E+01  0.42996813836E+03  0.43062566945E+03  0.00000000000E+00 0. -1.
          1    1    1    2  502    0  0.21665615279E+02 -0.98218277040E+01  0.20986377175E+00  0.23788888744E+02  0.00000000000E+00 0. -1.
</event>
<event>
 4    1  0.3837333E+003  0.3364025E+02  0.7546771E-02  0.1390383E+00
          2   -1    0    0  502    0  0.00000000000E+00  0.00000000000E+00  0.90027681284E+02  0.90027681284E+02  0.00000000000E+00 0.  1.
          1   -1    0    0  501    0 -0.00000000000E+00 -0.00000000000E+00 -0.80534375694E+03  0.80534375694E+03  0.00000000000E+00 0. -1.
          2    1    1    2  501    0  0.15371369985E+02 -0.29923024774E+02  0.86520089912E+02  0.92829911048E+02  0.00000000000E+00 0.  1.
          1    1    1    2  502    0 -0.15371369985E+02  0.29923024774E+02 -0.80183616557E+03  0.80254152717E+03  0.00000000000E+00 0. -1.
</event>
<event>
 4    1  0.3837333E+003  0.2392609E+02  0.7546771E-02  0.1481185E+00
          2   -1    0    0  502    0  0.00000000000E+00  0.00000000000E+00  0.15670417067E+04  0.15670417067E+04  0.00000000000E+00 0. -1.
          1   -1    0    0  501    0 -0.00000000000E+00 -0.00000000000E+00 -0.14288874509E+01  0.14288874509E+01  0.00000000000E+00 0.  1.
          2    1    1    2  501    0  0.73491917802E+01 -0.22769434604E+02  0.14594059598E+04  0.14596020736E+04  0.00000000000E+00 0. -1.
          1    1    1    2  502    0 -0.73491917802E+01  0.22769434604E+02  0.10620685948E+03  0.10886852058E+03  0.00000000000E+00 0.  1.
</event>
<event>
 4    1  0.3837333E+003  0.2717330E+02  0.7546771E-02  0.1445875E+00
          2   -1    0    0  502    0  0.00000000000E+00  0.00000000000E+00  0.46616311978E+03  0.46616311978E+03  0.00000000000E+00 0.  1.
          1   -1    0    0  501    0 -0.00000000000E+00 -0.00000000000E+00 -0.20132674945E+03  0.20132674945E+03  0.00000000000E+00 0.  1.
          2    1    1    2  501    0  0.21670680962E+02 -0.16394201873E+02  0.46484763195E+03  0.46564118074E+03  0.00000000000E+00 0.  1.
          1    1    1    2  502    0 -0.21670680962E+02  0.16394201873E+02 -0.20001126162E+03  0.20184868849E+03  0.00000000000E+00 0.  1.
</event>
<event>
 4    1  0.3837333E+003  0.2441994E+02  0.7546771E-02  0.1475398E+00
          2   -1    0    0  502    0  0.00000000000E+00  0.00000000000E+00  0.10461236548E+04  0.10461236548E+04  0.00000000000E+00 0.  1.
          1   -1    0    0  501    0 -0.00000000000E+00 -0.00000000000E+00 -0.61154433590E+01  0.61154433590E+01  0.00000000000E+00 0.  1.
          2    1    1    2  501    0 -0.22951799382E+02 -0.83395758061E+01  0.10210032539E+04  0.10212952453E+04  0.00000000000E+00 0.  1.
          1    1    1    2  502    0  0.22951799382E+02  0.83395758061E+01  0.19004957604E+02  0.30943852912E+02  0.00000000000E+00 0.  1.
</event>
<event>
 4    1  0.3837333E+003  0.2115149E+02  0.7546771E-02  0.1517113E+00
          2   -1    0    0  502    0  0.00000000000E+00  0.00000000000E+00  0.50862859569E+03  0.50862859569E+03  0.00000000000E+00 0. -1.
          1   -1    0    0  501    0 -0.00000000000E+00 -0.00000000000E+00 -0.22338356279E+02  0.22338356279E+02  0.00000000000E+00 0. -1.
          2    1    1    2  501    0 -0.48657754597E+01 -0.20584211778E+02  0.50334928544E+03  0.50379349807E+03  0.00000000000E+00 0. -1.
          1    1    1    2  502    0  0.48657754597E+01  0.20584211778E+02 -0.17059046029E+02  0.27173453898E+02  0.00000000000E+00 0. -1.
</event>
<event>
 4    1  0.3837333E+003  0.3284938E+02  0.7546771E-02  0.1396348E+00
          2   -1    0    0  502    0  0.00000000000E+00  0.00000000000E+00  0.87057687211E+03  0.87057687211E+03  0.00000000000E+00 0.  1.
          1   -1    0    0  501    0 -0.00000000000E+00 -0.00000000000E+00 -0.30241708382E+01  0.30241708382E+01  0.00000000000E+00 0.  1.
          2    1    1    2  501    0  0.30041568027E+02  0.13288569039E+02  0.76932754851E+03  0.77002854413E+03  0.00000000000E+00 0.  1.
          1    1    1    2  502    0 -0.30041568027E+02 -0.13288569039E+02  0.98225152761E+02  0.10357249882E+03  0.00000000000E+00 0.  1.
</event>
<event>
 4    1  0.3837333E+003  0.3299355E+02  0.7546771E-02  0.1395246E+00
          2   -1    0    0  502    0  0.00000000000E+00  0.00000000000E+00  0.11908706615E+04  0.11908706615E+04  0.00000000000E+00 0. -1.
          1   -1    0    0  501    0 -0.00000000000E+00 -0.00000000000E+00 -0.38711980399E+03  0.38711980399E+03  0.00000000000E+00 0.  1.
          2    1    1    2  501    0  0.20695888775E+02  0.25695413030E+02  0.11899385905E+04  0.11903959103E+04  0.00000000000E+00 0. -1.
          1    1    1    2  502    0 -0.20695888775E+02 -0.25695413030E+02 -0.38618773303E+03  0.38759455518E+03  0.00000000000E+00 0.  1.
</event>
<event>
 4    1  0.3837333E+003  0.4617433E+02  0.7546771E-02  0.1315670E+00
          2   -1    0    0  502    0  0.00000000000E+00  0.00000000000E+00  0.15367632613E+02  0.15367632613E+02  0.00000000000E+00 0. -1.
          1   -1    0    0  501    0 -0.00000000000E+00 -0.00000000000E+00 -0.42666133283E+03  0.42666133283E+03  0.00000000000E+00 0.  1.
          2    1    1    2  501    0  0.45952435111E+02  0.45213752536E+01 -0.24087846762E+02  0.52079684028E+02  0.00000000000E+00 0. -1.
          1    1    1    2  502    0 -0.45952435111E+02 -0.45213752536E+01 -0.38720585345E+03  0.38994928141E+03  0.00000000000E+00 0.  1.
</event>
<event>
 4    1  0.3837333E+003  0.2179859E+02  0.7546771E-02  0.1508162E+00
          2   -1    0    0  502    0  0.00000000000E+00  0.00000000000E+00  0.30543372806E+03  0.30543372806E+03  0.00000000000E+00 0.  1.
          1   -1    0    0  501    0 -0.00000000000E+00 -0.00000000000E+00 -0.39591992866E+03  0.39591992866E+03  0.00000000000E+00 0. -1.
          2    1    1    2  501    0 -0.59518904385E+00 -0.21790467866E+02  0.30474406496E+03  0.30552270598E+03  0.00000000000E+00 0.  1.
          1    1    1    2  502    0  0.59518904385E+00  0.21790467866E+02 -0.39523026556E+03  0.39583095073E+03  0.00000000000E+00 0. -1.
</event>
<event>
 4    1  0.3837333E+003  0.7989493E+02  0.7546771E-02  0.1204092E+00
          2   -1    0    0  502    0  0.00000000000E+00  0.00000000000E+00  0.55642591502E+03  0.55642591502E+03  0.00000000000E+00 0.  1.
          1   -1    0    0  501    0 -0.00000000000E+00 -0.00000000000E+00 -0.43019591707E+02  0.43019591707E+02  0.00000000000E+00 0.  1.
          2    1    1    2  501    0  0.24246626517E+02  0.76126876390E+02  0.51337081236E+03  0.51955056654E+03  0.00000000000E+00 0.  1.
          1    1    1    2  502    0 -0.24246626517E+02 -0.76126876390E+02  0.35510949370E-01  0.79894940186E+02  0.00000000000E+00 0.  1.
</event>
<event>
 4    1  0.3837333E+003  0.2193276E+02  0.7546771E-02  0.1506353E+00
          2   -1    0    0  502    0  0.00000000000E+00  0.00000000000E+00  0.52098515594E+01  0.52098515594E+01  0.00000000000E+00 0. -1.
          1   -1    0    0  501    0 -0.00000000000E+00 -0.00000000000E+00 -0.83080531397E+03  0.83080531397E+03  0.00000000000E+00 0.  1.
          2    1    1    2  501    0  0.21848393061E+02 -0.19218675335E+01 -0.18702322925E+02  0.28823995853E+02  0.00000000000E+00 0. -1.
          1    1    1    2  502    0 -0.21848393061E+02  0.19218675335E+01 -0.80689313949E+03  0.80719116968E+03  0.00000000000E+00 0.  1.
</event>
<event>
 4    1  0.3837333E+003  0.2762840E+02  0.7546771E-02  0.1441396E+00
          2   -1    0    0  502    0  0.00000000000E+00  0.00000000000E+00  0.14128527215E+03  0.14128527215E+03  0.00000000000E+00 0.  1.
          1   -1    0    0  501    0 -0.00000000000E+00 -0.00000000000E+00 -0.21455903224E+02  0.21455903224E+02  0.00000000000E+00 0. -1.
          2    1    1    2  501    0 -0.27414317368E+02  0.34327115025E+01  0.13029874112E+03  0.13319568402E+03  0.00000000000E+00 0.  1.
          1    1    1    2  502    0  0.27414317368E+02 -0.34327115025E+01 -0.10469372194E+02  0.29545491351E+02  0.00000000000E+00 0. -1.
</event>
<event>
 4    1  0.3837333E+003  0.2480500E+02  0.7546771E-02  0.1470997E+00
          2   -1    0    0  502    0  0.00000000000E+00  0.00000000000E+00  0.11748678185E+04  0.11748678185E+04  0.00000000000E+00 0. -1.
          1   -1    0    0  501    0 -0.00000000000E+00 -0.00000000000E+00 -0.52011466959E+01  0.52011466959E+01  0.00000000000E+00 0. -1.
          2    1    1    2  501    0  0.19813457125E+02 -0.14923629093E+02  0.11443743033E+04  0.11446431033E+04  0.00000000000E+00 0. -1.
          1    1    1    2  502    0 -0.19813457125E+02  0.14923629093E+02  0.25292368467E+02  0.35425861898E+02  0.00000000000E+00 0. -1.
</event>
<event>
 4    1  0.3837333E+003  0.2179902E+02  0.7546771E-02  0.1508156E+00
          2   -1    0    0  502    0  0.00000000000E+00  0.00000000000E+00  0.75761971397E+02  0.75761971397E+02  0.00000000000E+00 0. -1.
          1   -1    0    0  501    0 -0.00000000000E+00 -0.00000000000E+00 -0.10548983207E+02  0.10548983207E+02  0.00000000000E+00 0. -1.
          2    1    1    2  501    0 -0.36648258714E+01  0.21488744567E+02  0.60084633891E+02  0.63916823463E+02  0.00000000000E+00 0. -1.
          1    1    1    2  502    0  0.36648258714E+01 -0.21488744567E+02  0.51283542987E+01  0.22394131141E+02  0.00000000000E+00 0. -1.
</event>
<event>
 4    1  0.3837333E+003  0.2335597E+02  0.7546771E-02  0.1488076E+00
          2   -1    0    0  502    0  0.00000000000E+00  0.00000000000E+00  0.14136810058E+02  0.14136810058E+02  0.00000000000E+00 0.  1.
          1   -1    0    0  501    0 -0.00000000000E+00 -0.00000000000E+00 -0.52887243312E+02  0.52887243312E+02  0.00000000000E+00 0.  1.
          2    1    1    2  501    0 -0.10503569075E+02 -0.20860879114E+02 -0.19494263646E+01  0.23437182080E+02  0.00000000000E+00 0.  1.
          1    1    1    2  502    0  0.10503569075E+02  0.20860879114E+02 -0.36801006889E+02  0.43586871289E+02  0.00000000000E+00 0.  1.
</event>
<event>
 4    1  0.3837333E+003  0.2551238E+02  0.7546771E-02  0.1463152E+00
          2   -1    0    0  502    0  0.00000000000E+00  0.00000000000E+00  0.97993429692E+03  0.97993429692E+03  0.00000000000E+00 0.  1.
          1   -1    0    0  501    0 -0.00000000000E+00 -0.00000000000E+00 -0.68261982923E+00  0.68261982923E+00  0.00000000000E+00 0.  1.
          2    1    1    2  501    0 -0.24673347873E+02 -0.64890233145E+01  0.57014746248E+03  0.57071797807E+03  0.00000000000E+00 0.  1.
          1    1    1    2  502    0  0.24673347873E+02  0.64890233145E+01  0.40910421461E+03  0.40989893868E+03  0.00000000000E+00 0.  1.
</event>
<event>
 4    1  0.3837333E+003  0.2429981E+02  0.7546771E-02  0.1476791E+00
          2   -1    0    0  502    0  0.00000000000E+00  0.00000000000E+00  0.55295121689E+03  0.55295121689E+03  0.00000000000E+00 0. -1.
          1   -1    0    0  501    0 -0.00000000000E+00 -0.00000000000E+00 -0.15779691591E+02  0.15779691591E+02  0.00000000000E+00 0. -1.
          2    1    1    2  501    0  0.14372700194E+02 -0.19593525192E+02  0.54316063201E+03  0.54370392026E+03  0.00000000000E+00 0. -1.
          1    1    1    2  502    0 -0.14372700194E+02  0.19593525192E+02 -0.59891067104E+01  0.25026988223E+02  0.00000000000E+00 0. -1.
</event>
<event>
 4    1  0.3837333E+003  0.2737672E+02  0.7546771E-02  0.1443860E+00
          2   -1    0    0  502    0  0.00000000000E+00  0.00000000000E+00  0.10137019641E+03  0.10137019641E+03  0.00000000000E+00 0.  1.
          1   -1    0    0  501    0 -0.00000000000E+00 -0.00000000000E+00 -0.71382672704E+02  0.71382672704E+02  0.00000000000E+00 0.  1.
          2    1    1    2  501    0 -0.62010686509E+01  0.26665178885E+02  0.96774677533E+02  0.10057247749E+03  0.00000000000E+00 0.  1.
          1    1    1    2  502    0  0.62010686509E+01 -0.26665178885E+02 -0.66787153830E+02  0.72180391618E+02  0.00000000000E+00 0.  1.
</event>
<event>
 4    1  0.3837333E+003  0.3211354E+02  0.7546771E-02  0.1402077E+00
          2   -1    0    0  502    0  0.00000000000E+00  0.00000000000E+00  0.57773785796E+01  0.57773785796E+01  0.00000000000E+00 0. -1.
          1   -1    0    0  501    0 -0.00000000000E+00 -0.00000000000E+00 -0.55867630929E+03  0.55867630929E+03  0.00000000000E+00 0. -1.
          2    1    1    2  501    0 -0.31065384966E+02  0.81376661505E+01 -0.43635531603E+02  0.54178772335E+02  0.00000000000E+00 0. -1.
          1    1    1    2  502    0  0.31065384966E+02 -0.81376661505E+01 -0.50926339911E+03  0.51027491553E+03  0.00000000000E+00 0. -1.
</event>
<event>
 4    1  0.3837333E+003  0.2142965E+02  0.7546771E-02  0.1513218E+00
          2   -1    0    0  502    0  0.00000000000E+00  0.00000000000E+00  0.81910618618E+01  0.81910618618E+01  0.00000000000E+00 0. -1.
          1   -1    0    0  501    0 -0.00000000000E+00 -0.00000000000E+00 -0.32840399533E+03  0.32840399533E+03  0.00000000000E+00 0.  1.
          2    1    1    2  501    0 -0.30314473012E+01  0.21214152894E+02 -0.68465357596E+01  0.22496777718E+02  0.00000000000E+00 0. -1.
          1    1    1    2  502    0  0.30314473012E+01 -0.21214152894E+02 -0.31336639771E+03  0.31409827948E+03  0.00000000000E+00 0.  1.
</event>
<event>
 4    1  0.3837333E+003  0.3493873E+02  0.7546771E-02  0.1380994E+00
          2   -1    0    0  502    0  0.00000000000E+00  0.00000000000E+00  0.11753395880E+04  0.11753395880E+04  0.00000000000E+00 0. -1.
          1   -1    0    0  501    0 -0.00000000000E+00 -0.00000000000E+00 -0.21594805311E+03  0.21594805311E+03  0.00000000000E+00 0.  1.
          2    1    1    2  501    0 -0.34919966073E+02  0.11450510783E+01  0.11736647155E+04  0.11741846445E+04  0.00000000000E+00 0. -1.
          1    1    1    2  502    0  0.34919966073E+02 -0.11450510783E+01 -0.21427318061E+03  0.21710299652E+03  0.00000000000E+00 0.  1.
</event>
<event>
 4    1  0.3837333E+003  0.8228702E+02  0.7546771E-02  0.1198635E+00
          2   -1    0    0  502    0  0.00000000000E+00  0.00000000000E+00  0.94683412392E+03  0.94683412392E+03  0.00000000000E+00 0. -1.
          1   -1    0    0  501    0 -0.00000000000E+00 -0.00000000000E+00 -0.63541653654E+02  0.63541653654E+02  0.00000000000E+00 0. -1.
          2    1    1    2  501    0  0.11455584594E+02 -0.81485720672E+02  0.91755734823E+03  0.92123973013E+03  0.00000000000E+00 0. -1.
          1    1    1    2  502    0 -0.11455584594E+02  0.81485720672E+02 -0.34264877959E+02  0.89136047441E+02  0.00000000000E+00 0. -1.
</event>
<event>
 4    1  0.3837333E+003  0.6097273E+02  0.7546771E-02  0.1256563E+00
          2   -1    0    0  502    0  0.00000000000E+00  0.00000000000E+00  0.47521294304E+03  0.47521294304E+03  0.00000000000E+00 0.  1.
          1   -1    0    0  501    0 -0.00000000000E+00 -0.00000000000E+00 -0.18025500361E+02  0.18025500361E+02  0.00000000000E+00 0. -1.
          2    1    1    2  501    0  0.40729943330E+02 -0.45373400842E+02  0.41413171385E+03  0.41859616602E+03  0.00000000000E+00 0.  1.
          1    1    1    2  502    0 -0.40729943330E+02  0.45373400842E+02  0.43055728823E+02  0.74642277378E+02  0.00000000000E+00 0. -1.
</event>
<event>
 4    1  0.3837333E+003  0.2696057E+02  0.7546771E-02  0.1448005E+00
          2   -1    0    0  502    0  0.00000000000E+00  0.00000000000E+00  0.23272874931E+01  0.23272874931E+01  0.00000000000E+00 0. -1.
          1   -1    0    0  501    0 -0.00000000000E+00 -0.00000000000E+00 -0.36015400688E+03  0.36015400688E+03  0.00000000000E+00 0. -1.
          2    1    1    2  501    0  0.14366616166E+02 -0.22813870084E+02 -0.11286641262E+03  0.11604180034E+03  0.00000000000E+00 0. -1.
          1    1    1    2  502    0 -0.14366616166E+02  0.22813870084E+02 -0.24496030677E+03  0.24643949404E+03  0.00000000000E+00 0. -1.
</event>
<event>
 4    1  0.3837333E+003  0.5736451E+02  0.7546771E-02  0.1269060E+00
          2   -1    0    0  502    0  0.00000000000E+00  0.00000000000E+00  0.61390602423E+02  0.61390602423E+02  0.00000000000E+00 0. -1.
          1   -1    0    0  501    0 -0.00000000000E+00 -0.00000000000E+00 -0.73811280302E+03  0.73811280302E+03  0.00000000000E+00 0. -1.
          2    1    1    2  501    0  0.50157204558E+02  0.27837777557E+02  0.46601874662E+02  0.73908198128E+02  0.00000000000E+00 0. -1.
          1    1    1    2  502    0 -0.50157204558E+02 -0.27837777557E+02 -0.72332407526E+03  0.72559520732E+03  0.00000000000E+00 0. -1.
</event>
<event>
 4    1  0.3837333E+003  0.3049043E+02  0.7546771E-02  0.1415382E+00
          2   -1    0    0  502    0  0.00000000000E+00  0.00000000000E+00  0.12800874613E+04  0.12800874613E+04  0.00000000000E+00 0.  1.
          1   -1    0    0  501    0 -0.00000000000E+00 -0.00000000000E+00 -0.78122470395E+01  0.78122470395E+01  0.00000000000E+00 0.  1.
          2    1    1    2  501    0  0.27510541992E+01  0.30366063842E+02  0.12494256336E+04  0.12497976156E+04  0.00000000000E+00 0.  1.
          1    1    1    2  502    0 -0.27510541992E+01 -0.30366063842E+02  0.22849580656E+02  0.38102092707E+02  0.00000000000E+00 0.  1.
</event>
<event>
 4    1  0.3837333E+003  0.2087635E+02  0.7546771E-02  0.1521038E+00
          2   -1    0    0  502    0  0.00000000000E+00  0.00000000000E+00  0.35591417977E+01  0.35591417977E+01  0.00000000000E+00 0. -1.
          1   -1    0    0  501    0 -0.00000000000E+00 -0.00000000000E+00 -0.47322535729E+03  0.47322535729E+03  0.00000000000E+00 0. -1.
          2    1    1    2  501    0  0.14957046111E+02  0.14563949542E+02 -0.29588476265E+02  0.36211873499E+02  0.00000000000E+00 0. -1.
          1    1    1    2  502    0 -0.14957046111E+02 -0.14563949542E+02 -0.44007773922E+03  0.44057262558E+03  0.00000000000E+00 0. -1.
</event>
<event>
 4    1  0.3837333E+003  0.2519060E+02  0.7546771E-02  0.1466682E+00
          2   -1    0    0  502    0  0.00000000000E+00  0.00000000000E+00  0.12763107708E+04  0.12763107708E+04  0.00000000000E+00 0.  1.
          1   -1    0    0  501    0 -0.00000000000E+00 -0.00000000000E+00 -0.70924577447E+00  0.70924577447E+00  0.00000000000E+00 0. -1.
          2    1    1    2  501    0 -0.15285749197E+02 -0.20022786497E+02  0.98693839633E+03  0.98725982611E+03  0.00000000000E+00 0.  1.
          1    1    1    2  502    0  0.15285749197E+02  0.20022786497E+02  0.28866312871E+03  0.28976019047E+03  0.00000000000E+00 0. -1.
</event>
<event>
 4    1  0.3837333E+003  0.3075602E+02  0.7546771E-02  0.1413138E+00
          2   -1    0    0  502    0  0.00000000000E+00  0.00000000000E+00  0.24405014604E+03  0.24405014604E+03  0.00000000000E+00 0.  1.
          1   -1    0    0  501    0 -0.00000000000E+00 -0.00000000000E+00 -0.49749695647E+01  0.49749695647E+01  0.00000000000E+00 0.  1.
          2    1    1    2  501    0 -0.29995955925E+02 -0.67952269178E+01  0.17805910021E+03  0.18069580971E+03  0.00000000000E+00 0.  1.
          1    1    1    2  502    0  0.29995955925E+02  0.67952269178E+01  0.61016076273E+02  0.68329305898E+02  0.00000000000E+00 0.  1.
</event>
<event>
 4    1  0.3837333E+003  0.3009260E+02  0.7546771E-02  0.1418793E+00
          2   -1    0    0  502    0  0.00000000000E+00  0.00000000000E+00  0.21966875508E+03  0.21966875508E+03  0.00000000000E+00 0.  1.
          1   -1    0    0  501    0 -0.00000000000E+00 -0.00000000000E+00 -0.66180115638E+02  0.66180115638E+02  0.00000000000E+00 0.  1.
          2    1    1    2  501    0  0.10804908651E+02 -0.28085916566E+02  0.21514575070E+03  0.21724009483E+03  0.00000000000E+00 0.  1.
          1    1    1    2  502    0 -0.10804908651E+02  0.28085916566E+02 -0.61657111254E+02  0.68608775885E+02  0.00000000000E+00 0.  1.
</event>
<event>
 4    1  0.3837333E+003  0.2944067E+02  0.7546771E-02  0.1424520E+00
          2   -1    0    0  502    0  0.00000000000E+00  0.00000000000E+00  0.17685215439E+03  0.17685215439E+03  0.00000000000E+00 0. -1.
          1   -1    0    0  501    0 -0.00000000000E+00 -0.00000000000E+00 -0.69509936950E+02  0.69509936950E+02  0.00000000000E+00 0.  1.
          2    1    1    2  501    0  0.29324788363E+02  0.26095972986E+01  0.17243016057E+03  0.17492545122E+03  0.00000000000E+00 0. -1.
          1    1    1    2  502    0 -0.29324788363E+02 -0.26095972986E+01 -0.65087943131E+02  0.71436640119E+02  0.00000000000E+00 0.  1.
</event>
<event>
 4    1  0.3837333E+003  0.4120058E+02  0.7546771E-02  0.1341591E+00
          2   -1    0    0  502    0  0.00000000000E+00  0.00000000000E+00  0.19976636806E+03  0.19976636806E+03  0.00000000000E+00 0.  1.
          1   -1    0    0  501    0 -0.00000000000E+00 -0.00000000000E+00 -0.35792078976E+03  0.35792078976E+03  0.00000000000E+00 0.  1.
          2    1    1    2  501    0  0.39932882441E+02  0.10141631294E+02  0.19643648560E+03  0.20071068896E+03  0.00000000000E+00 0.  1.
          1    1    1    2  502    0 -0.39932882441E+02 -0.10141631294E+02 -0.35459090730E+03  0.35697646887E+03  0.00000000000E+00 0.  1.
</event>
<event>
 4    1  0.3837333E+003  0.2377194E+02  0.7546771E-02  0.1483026E+00
          2   -1    0    0  502    0  0.00000000000E+00  0.00000000000E+00  0.12844678523E+02  0.12844678523E+02  0.00000000000E+00 0.  1.
          1   -1    0    0  501    0 -0.00000000000E+00 -0.00000000000E+00 -0.31381568716E+03  0.31381568716E+03  0.00000000000E+00 0.  1.
          2    1    1    2  501    0 -0.14414124451E+01 -0.23728198870E+02  0.96353704928E+00  0.23791458448E+02  0.00000000000E+00 0.  1.
          1    1    1    2  502    0  0.14414124451E+01  0.23728198870E+02 -0.30193454569E+03  0.30286890724E+03  0.00000000000E+00 0.  1.
</event>
<event>
 4    1  0.3837333E+003  0.2341067E+02  0.7546771E-02  0.1487405E+00
          2   -1    0    0  502    0  0.00000000000E+00  0.00000000000E+00  0.46851842339E+00  0.46851842339E+00  0.00000000000E+00 0. -1.
          1   -1    0    0  501    0 -0.00000000000E+00 -0.00000000000E+00 -0.12591079789E+04  0.12591079789E+04  0.00000000000E+00 0. -1.
          2    1    1    2  501    0 -0.23400130324E+02  0.70243459280E+00 -0.46156398435E+03  0.46215730132E+03  0.00000000000E+00 0. -1.
          1    1    1    2  502    0  0.23400130324E+02 -0.70243459280E+00 -0.79707547608E+03  0.79741919596E+03  0.00000000000E+00 0. -1.
</event>
<event>
 4    1  0.3837333E+003  0.2493115E+02  0.7546771E-02  0.1469575E+00
          2   -1    0    0  502    0  0.00000000000E+00  0.00000000000E+00  0.19371587847E+03  0.19371587847E+03  0.00000000000E+00 0.  1.
          1   -1    0    0  501    0 -0.00000000000E+00 -0.00000000000E+00 -0.13602103778E+03  0.13602103778E+03  0.00000000000E+00 0. -1.
          2    1    1    2  501    0 -0.16426924504E+02  0.18754160321E+02  0.19175971511E+03  0.19337360399E+03  0.00000000000E+00 0.  1.
          1    1    1    2  502    0  0.16426924504E+02 -0.18754160321E+02 -0.13406487442E+03  0.13636331226E+03  0.00000000000E+00 0. -1.
</event>
<event>
 4    1  0.3837333E+003  0.2642049E+02  0.7546771E-02  0.1453518E+00
          2   -1    0    0  502    0  0.00000000000E+00  0.00000000000E+00  0.63412880060E+02  0.63412880060E+02  0.00000000000E+00 0.  1.
          1   -1    0    0  501    0 -0.00000000000E+00 -0.00000000000E+00 -0.62027073915E+02  0.62027073915E+02  0.00000000000E+00 0.  1.
          2    1    1    2  501    0 -0.16166280367E+02  0.20897214888E+02  0.57575836337E+02  0.63348394936E+02  0.00000000000E+00 0.  1.
          1    1    1    2  502    0  0.16166280367E+02 -0.20897214888E+02 -0.56190030193E+02  0.62091559040E+02  0.00000000000E+00 0.  1.
</event>
<event>
 4    1  0.3837333E+003  0.2714171E+02  0.7546771E-02  0.1446190E+00
          2   -1    0    0  502    0  0.00000000000E+00  0.00000000000E+00  0.12025635006E+04  0.12025635006E+04  0.00000000000E+00 0. -1.
          1   -1    0    0  501    0 -0.00000000000E+00 -0.00000000000E+00 -0.14400525774E+01  0.14400525774E+01  0.00000000000E+00 0. -1.
          2    1    1    2  501    0 -0.26962315438E+02 -0.31154310354E+01  0.10568970512E+04  0.10572455009E+04  0.00000000000E+00 0. -1.
          1    1    1    2  502    0  0.26962315438E+02  0.31154310354E+01  0.14422639685E+03  0.14675805229E+03  0.00000000000E+00 0. -1.
</event>
<event>
 4    1  0.3837333E+003  0.3480210E+02  0.7546771E-02  0.1381960E+00
          2   -1    0    0  502    0  0.00000000000E+00  0.00000000000E+00  0.47922398742E+02  0.47922398742E+02  0.00000000000E+00 0.  1.
          1   -1    0    0  501    0 -0.00000000000E+00 -0.00000000000E+00 -0.36586622451E+03  0.36586622451E+03  0.00000000000E+00 0.  1.
          2    1    1    2  501    0  0.13859683454E+02  0.31923271381E+02  0.40648439071E+02  0.53511509790E+02  0.00000000000E+00 0.  1.
          1    1    1    2  502    0 -0.13859683454E+02 -0.31923271381E+02 -0.35859226484E+03  0.36027711346E+03  0.00000000000E+00 0.  1.
</event>
<event>
 4    1  0.3837333E+003  0.2357759E+02  0.7546771E-02  0.1485370E+00
          2   -1    0    0  502    0  0.00000000000E+00  0.00000000000E+00  0.27049666469E+03  0.27049666469E+03  0.00000000000E+00 0.  1.
          1   -1    0    0  501    0 -0.00000000000E+00 -0.00000000000E+00 -0.57112442989E+03  0.57112442989E+03  0.00000000000E+00 0. -1.
          2    1    1    2  501    0 -0.20977494368E+02  0.10763250757E+02  0.26973886561E+03  0.27076735117E+03  0.00000000000E+00 0.  1.
          1    1    1    2  502    0  0.20977494368E+02 -0.10763250757E+02 -0.57036663081E+03  0.57085374342E+03  0.00000000000E+00 0. -1.
</event>
<event>
 4    1  0.3837333E+003  0.2128551E+02  0.7546771E-02  0.1515227E+00
          2   -1    0    0  502    0  0.00000000000E+00  0.00000000000E+00  0.39715763299E+01  0.39715763299E+01  0.00000000000E+00 0. -1.
          1   -1    0    0  501    0 -0.00000000000E+00 -0.00000000000E+00 -0.51738129400E+03  0.51738129400E+03  0.00000000000E+00 0.  1.
          2    1    1    2  501    0 -0.15670608072E+02  0.14405026262E+02 -0.26554394579E+02  0.34032464066E+02  0.00000000000E+00 0. -1.
          1    1    1    2  502    0  0.15670608072E+02 -0.14405026262E+02 -0.48685532309E+03  0.48732040626E+03  0.00000000000E+00 0.  1.
</event>
<event>
 4    1  0.3837333E+003  0.2034838E+02  0.7546771E-02  0.1528775E+00
          2   -1    0    0  502    0  0.00000000000E+00  0.00000000000E+00  0.15252497596E+03  0.15252497596E+03  0.00000000000E+00 0.  1.
          1   -1    0    0  501    0 -0.00000000000E+00 -0.00000000000E+00 -0.97605578100E+01  0.97605578100E+01  0.00000000000E+00 0. -1.
          2    1    1    2  501    0  0.12865119291E+02  0.15765321529E+02  0.14032359596E+03  0.14179128408E+03  0.00000000000E+00 0.  1.
          1    1    1    2  502    0 -0.12865119291E+02 -0.15765321529E+02  0.24408221844E+01  0.20494249687E+02  0.00000000000E+00 0. -1.
</event>
<event>
 4    1  0.3837333E+003  0.3303204E+02  0.7546771E-02  0.1394953E+00
          2   -1    0    0  502    0  0.00000000000E+00  0.00000000000E+00  0.26391207577E+03  0.26391207577E+03  0.00000000000E+00 0. -1.
          1   -1    0    0  501    0 -0.00000000000E+00 -0.00000000000E+00 -0.40965302521E+03  0.40965302521E+03  0.00000000000E+00 0. -1.
          2    1    1    2  501    0 -0.15365012268E+02  0.29240932358E+02  0.26220829028E+03  0.26428072805E+03  0.00000000000E+00 0. -1.
          1    1    1    2  502    0  0.15365012268E+02 -0.29240932358E+02 -0.40794923973E+03  0.40928437293E+03  0.00000000000E+00 0. -1.
</event>
<event>
 4    1  0.3837333E+003  0.2357484E+02  0.7546771E-02  0.1485403E+00
          2   -1    0    0  502    0  0.00000000000E+00  0.00000000000E+00  0.20937022116E+02  0.20937022116E+02  0.00000000000E+00 0. -1.
          1   -1    0    0  501    0 -0.00000000000E+00 -0.00000000000E+00 -0.25270585948E+03  0.25270585948E+03  0.00000000000E+00 0.  1.
          2    1    1    2  501    0 -0.21340670537E+02 -0.10017421086E+02  0.13551628167E+02  0.27192270412E+02  0.00000000000E+00 0. -1.
          1    1    1    2  502    0  0.21340670537E+02  0.10017421086E+02 -0.24532046553E+03  0.24645061118E+03  0.00000000000E+00 0.  1.
</event>
<event>
 4    1  0.3837333E+003  0.2636094E+02  0.7546771E-02  0.1454135E+00
          2   -1    0    0  502    0  0.00000000000E+00  0.00000000000E+00  0.49342211420E+03  0.49342211420E+03  0.00000000000E+00 0. -1.
          1   -1    0    0  501    0 -0.00000000000E+00 -0.00000000000E+00 -0.66836330939E+01  0.66836330939E+01  0.00000000000E+00 0. -1.
          2    1    1    2  501    0 -0.39657933902E+01 -0.26060923244E+02  0.46552082700E+03  0.46626659714E+03  0.00000000000E+00 0. -1.
          1    1    1    2  502    0  0.39657933902E+01  0.26060923244E+02  0.21217654112E+02  0.33839150160E+02  0.00000000000E+00 0. -1.
</event>
<event>
 4    1  0.3837333E+003  0.2294738E+02  0.7546771E-02  0.1493160E+00
          2   -1    0    0  502    0  0.00000000000E+00  0.00000000000E+00  0.77932040444E+03  0.77932040444E+03  0.00000000000E+00 0. -1.
          1   -1    0    0  501    0 -0.00000000000E+00 -0.00000000000E+00 -0.70108118617E+02  0.70108118617E+02  0.00000000000E+00 0. -1.
          2    1    1    2  501    0  0.51928228165E+01  0.22352109146E+02  0.77726877520E+03  0.77760744023E+03  0.00000000000E+00 0. -1.
          1    1    1    2  502    0 -0.51928228165E+01 -0.22352109146E+02 -0.68056489380E+02  0.71821082829E+02  0.00000000000E+00 0. -1.
</event>
<event>
 4    1  0.3837333E+003  0.4487085E+02  0.7546771E-02  0.1322086E+00
          2   -1    0    0  502    0  0.00000000000E+00  0.00000000000E+00  0.54517800845E+01  0.54517800845E+01  0.00000000000E+00 0.  1.
          1   -1    0    0  501    0 -0.00000000000E+00 -0.00000000000E+00 -0.70925554478E+03  0.70925554478E+03  0.00000000000E+00 0. -1.
          2    1    1    2  501    0  0.43645730398E+02  0.10413612034E+02 -0.10450057492E+03  0.11372670424E+03  0.00000000000E+00 0.  1.
          1    1    1    2  502    0 -0.43645730398E+02 -0.10413612034E+02 -0.59930318977E+03  0.60098062063E+03  0.00000000000E+00 0. -1.
</event>
<event>
 4    1  0.3837333E+003  0.5126622E+02  0.7546771E-02  0.1292774E+00
          2   -1    0    0  502    0  0.00000000000E+00  0.00000000000E+00  0.18391855879E+02  0.18391855879E+02  0.00000000000E+00 0. -1.
          1   -1    0    0  501    0 -0.00000000000E+00 -0.00000000000E+00 -0.89788731196E+03  0.89788731196E+03  0.00000000000E+00 0. -1.
          2    1    1    2  501    0  0.48243512076E+02  0.17343259944E+02 -0.19644252890E+02  0.54901018156E+02  0.00000000000E+00 0. -1.
          1    1    1    2  502    0 -0.48243512076E+02 -0.17343259944E+02 -0.85985120319E+03  0.86137814968E+03  0.00000000000E+00 0. -1.
</event>
<event>
 4    1  0.3837333E+003  0.2602802E+02  0.7546771E-02  0.1457624E+00
          2   -1    0    0  502    0  0.00000000000E+00  0.00000000000E+00  0.68364701479E+03  0.68364701479E+03  0.00000000000E+00 0.  1.
          1   -1    0    0  501    0 -0.00000000000E+00 -0.00000000000E+00 -0.17226549051E+02  0.17226549051E+02  0.00000000000E+00 0. -1.
          2    1    1    2  501    0 -0.12431213816E+01 -0.25998320554E+02  0.67341840271E+03  0.67392121433E+03  0.00000000000E+00 0.  1.
          1    1    1    2  502    0  0.12431213816E+01  0.25998320554E+02 -0.69979369663E+01  0.26952349512E+02  0.00000000000E+00 0. -1.
</event>
<event>
 4    1  0.3837333E+003  0.2184054E+02  0.7546771E-02  0.1507594E+00
          2   -1    0    0  502    0  0.00000000000E+00  0.00000000000E+00  0.17257255751E+03  0.17257255751E+03  0.00000000000E+00 0.  1.
          1   -1    0    0  501    0 -0.00000000000E+00 -0.00000000000E+00 -0.23763486500E+03  0.23763486500E+03  0.00000000000E+00 0.  1.
          2    1    1    2  501    0 -0.60362825056E+00 -0.21832195126E+02  0.17137621166E+03  0.17276230791E+03  0.00000000000E+00 0.  1.
          1    1    1    2  502    0  0.60362825056E+00  0.21832195126E+02 -0.23643851915E+03  0.23744511460E+03  0.00000000000E+00 0.  1.
</event>
<event>
 4    1  0.3837333E+003  0.3405672E+02  0.7546771E-02  0.1387319E+00
          2   -1    0    0  502    0  0.00000000000E+00  0.00000000000E+00  0.28999046382E+01  0.28999046382E+01  0.00000000000E+00 0.  1.
          1   -1    0    0  501    0 -0.00000000000E+00 -0.00000000000E+00 -0.43145465004E+03  0.43145465004E+03  0.00000000000E+00 0.  1.
          2    1    1    2  501    0 -0.29119908516E+02  0.17660441328E+02 -0.15560536372E+03  0.15928869853E+03  0.00000000000E+00 0.  1.
          1    1    1    2  502    0  0.29119908516E+02 -0.17660441328E+02 -0.27294938167E+03  0.27506585614E+03  0.00000000000E+00 0.  1.
</event>
<event>
 4    1  0.3837333E+003  0.2587291E+02  0.7546771E-02  0.1459271E+00
          2   -1    0    0  502    0  0.00000000000E+00  0.00000000000E+00  0.27691210714E+01  0.27691210714E+01  0.00000000000E+00 0.  1.
          1   -1    0    0  501    0 -0.00000000000E+00 -0.00000000000E+00 -0.87070030381E+03  0.87070030381E+03  0.00000000000E+00 0.  1.
          2    1    1    2  501    0  0.16229069619E+02  0.20150056361E+02 -0.62776705651E+02  0.67899353785E+02  0.00000000000E+00 0.  1.
          1    1    1    2  502    0 -0.16229069619E+02 -0.20150056361E+02 -0.80515447708E+03  0.80557007109E+03  0.00000000000E+00 0.  1.
</event>
<event>
 4    1  0.3837333E+003  0.3167514E+02  0.7546771E-02  0.1405577E+00
          2   -1    0    0  502    0  0.00000000000E+00  0.00000000000E+00  0.18152165478E+03  0.18152165478E+03  0.00000000000E+00 0. -1.
          1   -1    0    0  501    0 -0.00000000000E+00 -0.00000000000E+00 -0.89480931653E+01  0.89480931653E+01  0.00000000000E+00 0. -1.
          2    1    1    2  501    0 -0.30519354425E+02  0.84784247504E+01  0.14517082830E+03  0.14858628494E+03  0.00000000000E+00 0. -1.
          1    1    1    2  502    0  0.30519354425E+02 -0.84784247504E+01  0.27402733312E+02  0.41883463010E+02  0.00000000000E+00 0. -1.
</event>
<event>
 4    1  0.3837333E+003  0.2376957E+02  0.7546771E-02  0.1483054E+00
          2   -1    0    0  502    0  0.00000000000E+00  0.00000000000E+00  0.11477882838E+03  0.11477882838E+03  0.00000000000E+00 0.  1.
          1   -1    0    0  501    0 -0.00000000000E+00 -0.00000000000E+00 -0.89213477600E+03  0.89213477600E+03  0.00000000000E+00 0. -1.
          2    1    1    2  501    0 -0.21530300230E+02 -0.10071671255E+02  0.11338797013E+03  0.11585259669E+03  0.00000000000E+00 0.  1.
          1    1    1    2  502    0  0.21530300230E+02  0.10071671255E+02 -0.89074391776E+03  0.89106100768E+03  0.00000000000E+00 0. -1.
</event>
<event>
 4    1  0.3837333E+003  0.3521957E+02  0.7546771E-02  0.1379026E+00
          2   -1    0    0  502    0  0.00000000000E+00  0.00000000000E+00  0.86143905334E+03  0.86143905334E+03  0.00000000000E+00 0. -1.
          1   -1    0    0  501    0 -0.00000000000E+00 -0.00000000000E+00 -0.38978659388E+01  0.38978659388E+01  0.00000000000E+00 0.  1.
          2    1    1    2  501    0 -0.73223467492E+01 -0.34449988224E+02  0.77234942662E+03  0.77315202597E+03  0.00000000000E+00 0. -1.
          1    1    1    2  502    0  0.73223467492E+01  0.34449988224E+02  0.85191760774E+02  0.92184893308E+02  0.00000000000E+00 0.  1.
</event>
<event>
 4    1  0.3837333E+003  0.2086307E+02  0.7546771E-02  0.1521229E+00
          2   -1    0    0  502    0  0.00000000000E+00  0.00000000000E+00  0.73677180515E+00  0.73677180515E+00  0.00000000000E+00 0. -1.
          1   -1    0    0  501    0 -0.00000000000E+00 -0.00000000000E+00 -0.16809177714E+04  0.16809177714E+04  0.00000000000E+00 0. -1.
          2    1    1    2  501    0 -0.20114364588E+02 -0.55389553083E+01 -0.16295608626E+03  0.16428619460E+03  0.00000000000E+00 0. -1.
          1    1    1    2  502    0  0.20114364588E+02  0.55389553083E+01 -0.15172249133E+04  0.15173683486E+04  0.00000000000E+00 0. -1.
</event>
<event>
 4    1  0.3837333E+003  0.2137889E+02  0.7546771E-02  0.1513924E+00
          2   -1    0    0  502    0  0.00000000000E+00  0.00000000000E+00  0.41704588594E+01  0.41704588594E+01  0.00000000000E+00 0.  1.
          1   -1    0    0  501    0 -0.00000000000E+00 -0.00000000000E+00 -0.22031559186E+03  0.22031559186E+03  0.00000000000E+00 0. -1.
          2    1    1    2  501    0  0.18552977975E+02 -0.10622801550E+02 -0.28501884791E+02  0.35628841423E+02  0.00000000000E+00 0.  1.
          1    1    1    2  502    0 -0.18552977975E+02  0.10622801550E+02 -0.18764324821E+03  0.18885720930E+03  0.00000000000E+00 0. -1.
</event>
<event>
 4    1  0.3837333E+003  0.2631539E+02  0.7546771E-02  0.1454609E+00
          2   -1    0    0  502    0  0.00000000000E+00  0.00000000000E+00  0.54283460864E+03  0.54283460864E+03  0.00000000000E+00 0. -1.
          1   -1    0    0  501    0 -0.00000000000E+00 -0.00000000000E+00 -0.45003591501E+01  0.45003591501E+01  0.00000000000E+00 0.  1.
          2    1    1    2  501    0  0.12140634998E+02 -0.23347474942E+02  0.50082167691E+03  0.50151256382E+03  0.00000000000E+00 0. -1.
          1    1    1    2  502    0 -0.12140634998E+02  0.23347474942E+02  0.37512572587E+02  0.45822403979E+02  0.00000000000E+00 0.  1.
</event>
<event>
 4    1  0.3837333E+003  0.2733301E+02  0.7546771E-02  0.1444291E+00
          2   -1    0    0  502    0  0.00000000000E+00  0.00000000000E+00  0.85997960846E+02  0.85997960846E+02  0.00000000000E+00 0.  1.
          1   -1    0    0  501    0 -0.00000000000E+00 -0.00000000000E+00 -0.89055214088E+02  0.89055214088E+02  0.00000000000E+00 0.  1.
          2    1    1    2  501    0  0.86088346422E+01  0.25941885378E+02  0.81619326556E+02  0.86074432431E+02  0.00000000000E+00 0.  1.
          1    1    1    2  502    0 -0.86088346422E+01 -0.25941885378E+02 -0.84676579799E+02  0.88978742503E+02  0.00000000000E+00 0.  1.
</event>
<event>
 4    1  0.3837333E+003  0.2307397E+02  0.7546771E-02  0.1491571E+00
          2   -1    0    0  502    0  0.00000000000E+00  0.00000000000E+00  0.11147320781E+03  0.11147320781E+03  0.00000000000E+00 0.  1.
          1   -1    0    0  501    0 -0.00000000000E+00 -0.00000000000E+00 -0.52072884020E+01  0.52072884020E+01  0.00000000000E+00 0.  1.
          2    1    1    2  501    0  0.62960524441E+01 -0.22198375376E+02  0.69920677651E+02  0.73629541007E+02  0.00000000000E+00 0.  1.
          1    1    1    2  502    0 -0.62960524441E+01  0.22198375376E+02  0.36345241759E+02  0.43050955207E+02  0.00000000000E+00 0.  1.
</event>
<event>
 4    1  0.3837333E+003  0.3186129E+02  0.7546771E-02  0.1404083E+00
          2   -1    0    0  502    0  0.00000000000E+00  0.00000000000E+00  0.36019474246E+03  0.36019474246E+03  0.00000000000E+00 0. -1.
          1   -1    0    0  501    0 -0.00000000000E+00 -0.00000000000E+00 -0.15722503648E+02  0.15722503648E+02  0.00000000000E+00 0.  1.
          2    1    1    2  501    0 -0.29937884598E+02  0.10902526127E+02  0.34251734425E+03  0.34399603650E+03  0.00000000000E+00 0. -1.
          1    1    1    2  502    0  0.29937884598E+02 -0.10902526127E+02  0.19548945552E+01  0.31921209609E+02  0.00000000000E+00 0.  1.
</event>
<event>
 4    1  0.3837333E+003  0.2796901E+02  0.7546771E-02  0.1438110E+00
          2   -1    0    0  502    0  0.00000000000E+00  0.00000000000E+00  0.73108265197E+01  0.73108265197E+01  0.00000000000E+00 0.  1.
          1   -1    0    0  501    0 -0.00000000000E+00 -0.00000000000E+00 -0.34347273855E+03  0.34347273855E+03  0.00000000000E+00 0. -1.
          2    1    1    2  501    0 -0.17022426659E+02  0.22192400289E+02 -0.22550884984E+02  0.35927817266E+02  0.00000000000E+00 0.  1.
          1    1    1    2  502    0  0.17022426659E+02 -0.22192400289E+02 -0.31361102705E+03  0.31485574781E+03  0.00000000000E+00 0. -1.
</event>
<event>
 4    1  0.3837333E+003  0.2093397E+02  0.7546771E-02  0.1520210E+00
          2   -1    0    0  502    0  0.00000000000E+00  0.00000000000E+00  0.14812837682E+01  0.14812837682E+01  0.00000000000E+00 0. -1.
          1   -1    0    0  501    0 -0.00000000000E+00 -0.00000000000E+00 -0.40809824195E+03  0.40809824195E+03  0.00000000000E+00 0. -1.
          2    1    1    2  501    0 -0.80636245035E+00 -0.20918429670E+02 -0.95903443505E+02  0.98161608567E+02  0.00000000000E+00 0. -1.
          1    1    1    2  502    0  0.80636245035E+00  0.20918429670E+02 -0.31071351468E+03  0.31141791715E+03  0.00000000000E+00 0. -1.
</event>
<event>
 4    1  0.3837333E+003  0.2044667E+02  0.7546771E-02  0.1527314E+00
          2   -1    0    0  502    0  0.00000000000E+00  0.00000000000E+00  0.92904055945E+02  0.92904055945E+02  0.00000000000E+00 0.  1.
          1   -1    0    0  501    0 -0.00000000000E+00 -0.00000000000E+00 -0.75497206688E+01  0.75497206688E+01  0.00000000000E+00 0.  1.
          2    1    1    2  501    0  0.11196336192E+02  0.17108718212E+02  0.74600075803E+02  0.77351389728E+02  0.00000000000E+00 0.  1.
          1    1    1    2  502    0 -0.11196336192E+02 -0.17108718212E+02  0.10754259473E+02  0.23102386886E+02  0.00000000000E+00 0.  1.
</event>
<event>
 4    1  0.3837333E+003  0.2412549E+02  0.7546771E-02  0.1478829E+00
          2   -1    0    0  502    0  0.00000000000E+00  0.00000000000E+00  0.24515065628E+04  0.24515065628E+04  0.00000000000E+00 0. -1.
          1   -1    0    0  501    0 -0.00000000000E+00 -0.00000000000E+00 -0.24166848976E+00  0.24166848976E+00  0.00000000000E+00 0. -1.
          2    1    1    2  501    0 -0.14672390707E+02  0.19150973981E+02  0.10631120036E+04  0.10633857113E+04  0.00000000000E+00 0. -1.
          1    1    1    2  502    0  0.14672390707E+02 -0.19150973981E+02  0.13881528907E+04  0.13883625199E+04  0.00000000000E+00 0. -1.
</event>
<event>
 4    1  0.3837333E+003  0.2239708E+02  0.7546771E-02  0.1500211E+00
          2   -1    0    0  502    0  0.00000000000E+00  0.00000000000E+00  0.31941662804E+03  0.31941662804E+03  0.00000000000E+00 0. -1.
          1   -1    0    0  501    0 -0.00000000000E+00 -0.00000000000E+00 -0.44885098772E+01  0.44885098772E+01  0.00000000000E+00 0. -1.
          2    1    1    2  501    0  0.21828684485E+02 -0.50137359040E+01  0.28804613715E+03  0.28891556922E+03  0.00000000000E+00 0. -1.
          1    1    1    2  502    0 -0.21828684485E+02  0.50137359040E+01  0.26881981014E+02  0.34989568692E+02  0.00000000000E+00 0. -1.
</event>
<event>
 4    1  0.3837333E+003  0.4531299E+02  0.7546771E-02  0.1319882E+00
          2   -1    0    0  502    0  0.00000000000E+00  0.00000000000E+00  0.21874314868E+04  0.21874314868E+04  0.00000000000E+00 0.  1.
          1   -1    0    0  501    0 -0.00000000000E+00 -0.00000000000E+00 -0.24962943526E+01  0.24962943526E+01  0.00000000000E+00 0.  1.
          2    1    1    2  501    0  0.44868507143E+02 -0.63312038543E+01  0.19574033568E+04  0.19579277741E+04  0.00000000000E+00 0.  1.
          1    1    1    2  502    0 -0.44868507143E+02  0.63312038543E+01  0.22753183565E+03  0.23200000713E+03  0.00000000000E+00 0.  1.
</event>
<event>
 4    1  0.3837333E+003  0.2160472E+02  0.7546771E-02  0.1510804E+00
          2   -1    0    0  502    0  0.00000000000E+00  0.00000000000E+00  0.59530128664E+03  0.59530128664E+03  0.00000000000E+00 0.  1.
          1   -1    0    0  501    0 -0.00000000000E+00 -0.00000000000E+00 -0.21874567581E+02  0.21874567581E+02  0.00000000000E+00 0. -1.
          2    1    1    2  501    0 -0.90871989176E+01 -0.19600677560E+02  0.58972024987E+03  0.59011586731E+03  0.00000000000E+00 0.  1.
          1    1    1    2  502    0  0.90871989176E+01  0.19600677560E+02 -0.16293530815E+02  0.27059986907E+02  0.00000000000E+00 0. -1.
</event>
<event>
 4    1  0.3837333E+003  0.3428444E+02  0.7546771E-02  0.1385665E+00
          2   -1    0    0  502    0  0.00000000000E+00  0.00000000000E+00  0.45753304392E+03  0.45753304392E+03  0.00000000000E+00 0. -1.
          1   -1    0    0  501    0 -0.00000000000E+00 -0.00000000000E+00 -0.28164264873E+01  0.28164264873E+01  0.00000000000E+00 0. -1.
          2    1    1    2  501    0  0.34274883962E+02  0.80858018614E+00  0.15914094529E+03  0.16279208193E+03  0.00000000000E+00 0. -1.
          1    1    1    2  502    0 -0.34274883962E+02 -0.80858018614E+00  0.29557567214E+03  0.29755738847E+03  0.00000000000E+00 0. -1.
</event>
<event>
 4    1  0.3837333E+003  0.2053320E+02  0.7546771E-02  0.1526035E+00
          2   -1    0    0  502    0  0.00000000000E+00  0.00000000000E+00  0.11115609845E+03  0.11115609845E+03  0.00000000000E+00 0. -1.
          1   -1    0    0  501    0 -0.00000000000E+00 -0.00000000000E+00 -0.51976159996E+03  0.51976159996E+03  0.00000000000E+00 0. -1.
          2    1    1    2  501    0 -0.17948043902E+02 -0.99739585014E+01  0.11000295636E+03  0.11190291567E+03  0.00000000000E+00 0. -1.
          1    1    1    2  502    0  0.17948043902E+02  0.99739585014E+01 -0.51860845787E+03  0.51901478274E+03  0.00000000000E+00 0. -1.
</event>
<event>
 4    1  0.3837333E+003  0.2148227E+02  0.7546771E-02  0.1512489E+00
          2   -1    0    0  502    0  0.00000000000E+00  0.00000000000E+00  0.25721928920E+01  0.25721928920E+01  0.00000000000E+00 0. -1.
          1   -1    0    0  501    0 -0.00000000000E+00 -0.00000000000E+00 -0.17995864457E+03  0.17995864457E+03  0.00000000000E+00 0. -1.
          2    1    1    2  501    0 -0.21135368833E+02 -0.38450287608E+01 -0.83673543050E+02  0.86387208940E+02  0.00000000000E+00 0. -1.
          1    1    1    2  502    0  0.21135368833E+02  0.38450287608E+01 -0.93712908631E+02  0.96143628525E+02  0.00000000000E+00 0. -1.
</event>
<event>
 4    1  0.3837333E+003  0.2272666E+02  0.7546771E-02  0.1495959E+00
          2   -1    0    0  502    0  0.00000000000E+00  0.00000000000E+00  0.29359005785E+02  0.29359005785E+02  0.00000000000E+00 0.  1.
          1   -1    0    0  501    0 -0.00000000000E+00 -0.00000000000E+00 -0.32485047733E+03  0.32485047733E+03  0.00000000000E+00 0.  1.
          2    1    1    2  501    0 -0.71097894034E+01 -0.21585922878E+02  0.24496616795E+02  0.33415346867E+02  0.00000000000E+00 0.  1.
          1    1    1    2  502    0  0.71097894034E+01  0.21585922878E+02 -0.31998808834E+03  0.32079413625E+03  0.00000000000E+00 0.  1.
</event>
<event>
 4    1  0.3837333E+003  0.2787421E+02  0.7546771E-02  0.1439019E+00
          2   -1    0    0  502    0  0.00000000000E+00  0.00000000000E+00  0.10620352970E+02  0.10620352970E+02  0.00000000000E+00 0. -1.
          1   -1    0    0  501    0 -0.00000000000E+00 -0.00000000000E+00 -0.17938743694E+04  0.17938743694E+04  0.00000000000E+00 0.  1.
          2    1    1    2  501    0 -0.23461116300E+01 -0.27775298662E+02 -0.79691130048E+01  0.28991002356E+02  0.00000000000E+00 0. -1.
          1    1    1    2  502    0  0.23461116300E+01  0.27775298662E+02 -0.17752849034E+04  0.17755037200E+04  0.00000000000E+00 0.  1.
</event>
<event>
 4    1  0.3837333E+003  0.3779200E+02  0.7546771E-02  0.1361934E+00
          2   -1    0    0  502    0  0.00000000000E+00  0.00000000000E+00  0.10018628946E+03  0.10018628946E+03  0.00000000000E+00 0.  1.
          1   -1    0    0  501    0 -0.00000000000E+00 -0.00000000000E+00 -0.38539685171E+03  0.38539685171E+03  0.00000000000E+00 0.  1.
          2    1    1    2  501    0 -0.35014580992E+02  0.14220197223E+02  0.95653559968E+02  0.10284861898E+03  0.00000000000E+00 0.  1.
          1    1    1    2  502    0  0.35014580992E+02 -0.14220197223E+02 -0.38086412222E+03  0.38273452220E+03  0.00000000000E+00 0.  1.
</event>
<event>
 4    1  0.3837333E+003  0.2272343E+02  0.7546771E-02  0.1496001E+00
          2   -1    0    0  502    0  0.00000000000E+00  0.00000000000E+00  0.43217121187E+03  0.43217121187E+03  0.00000000000E+00 0.  1.
          1   -1    0    0  501    0 -0.00000000000E+00 -0.00000000000E+00 -0.44598150786E+01  0.44598150786E+01  0.00000000000E+00 0.  1.
          2    1    1    2  501    0  0.86924036079E+01  0.20995153527E+02  0.40065246489E+03  0.40129633935E+03  0.00000000000E+00 0.  1.
          1    1    1    2  502    0 -0.86924036079E+01 -0.20995153527E+02  0.27058931898E+02  0.35334687597E+02  0.00000000000E+00 0.  1.
</event>
<event>
 4    1  0.3837333E+003  0.3855258E+02  0.7546771E-02  0.1357183E+00
          2   -1    0    0  502    0  0.00000000000E+00  0.00000000000E+00  0.20504216666E+04  0.20504216666E+04  0.00000000000E+00 0.  1.
          1   -1    0    0  501    0 -0.00000000000E+00 -0.00000000000E+00 -0.27760406629E+01  0.27760406629E+01  0.00000000000E+00 0.  1.
          2    1    1    2  501    0 -0.29345384290E+02  0.25002990062E+02  0.19062688257E+04  0.19066586315E+04  0.00000000000E+00 0.  1.
          1    1    1    2  502    0  0.29345384290E+02 -0.25002990062E+02  0.14137680021E+03  0.14653907578E+03  0.00000000000E+00 0.  1.
</event>
<event>
 4    1  0.3837333E+003  0.2317050E+02  0.7546771E-02  0.1490368E+00
          2   -1    0    0  502    0  0.00000000000E+00  0.00000000000E+00  0.90265999229E+03  0.90265999229E+03  0.00000000000E+00 0.  1.
          1   -1    0    0  501    0 -0.00000000000E+00 -0.00000000000E+00 -0.77023734803E+01  0.77023734803E+01  0.00000000000E+00 0. -1.
          2    1    1    2  501    0  0.17930645850E+02 -0.14675279976E+02  0.88473273458E+03  0.88503609166E+03  0.00000000000E+00 0.  1.
          1    1    1    2  502    0 -0.17930645850E+02  0.14675279976E+02  0.10224884235E+02  0.25326274116E+02  0.00000000000E+00 0. -1.
</event>
<event>
 4    1  0.3837333E+003  0.2809385E+02  0.7546771E-02  0.1436919E+00
          2   -1    0    0  502    0  0.00000000000E+00  0.00000000000E+00  0.19656423145E+04  0.19656423145E+04  0.00000000000E+00 0.  1.
          1   -1    0    0  501    0 -0.00000000000E+00 -0.00000000000E+00 -0.43714579211E+01  0.43714579211E+01  0.00000000000E+00 0. -1.
          2    1    1    2  501    0  0.25787104658E+02  0.11148532457E+02  0.19193151183E+04  0.19195207183E+04  0.00000000000E+00 0.  1.
          1    1    1    2  502    0 -0.25787104658E+02 -0.11148532457E+02  0.41955738272E+02  0.50493054142E+02  0.00000000000E+00 0. -1.
</event>
<event>
 4    1  0.3837333E+003  0.2332825E+02  0.7546771E-02  0.1488417E+00
          2   -1    0    0  502    0  0.00000000000E+00  0.00000000000E+00  0.63174541856E+00  0.63174541856E+00  0.00000000000E+00 0. -1.
          1   -1    0    0  501    0 -0.00000000000E+00 -0.00000000000E+00 -0.88466280323E+03  0.88466280323E+03  0.00000000000E+00 0. -1.
          2    1    1    2  501    0  0.22510391444E+02  0.61228664911E+01 -0.37028915698E+03  0.37102327015E+03  0.00000000000E+00 0. -1.
          1    1    1    2  502    0 -0.22510391444E+02 -0.61228664911E+01 -0.51374190083E+03  0.51427127850E+03  0.00000000000E+00 0. -1.
</event>
<event>
 4    1  0.3837333E+003  0.2605777E+02  0.7546771E-02  0.1457310E+00
          2   -1    0    0  502    0  0.00000000000E+00  0.00000000000E+00  0.28848634130E+02  0.28848634130E+02  0.00000000000E+00 0. -1.
          1   -1    0    0  501    0 -0.00000000000E+00 -0.00000000000E+00 -0.11799383830E+04  0.11799383830E+04  0.00000000000E+00 0.  1.
          2    1    1    2  501    0  0.90478067152E+01  0.24436537617E+02  0.22790181213E+02  0.34617907747E+02  0.00000000000E+00 0. -1.
          1    1    1    2  502    0 -0.90478067152E+01 -0.24436537617E+02 -0.11738799301E+04  0.11741691094E+04  0.00000000000E+00 0.  1.
</event>
<event>
 4    1  0.3837333E+003  0.2204821E+02  0.7546771E-02  0.1504809E+00
          2   -1    0    0  502    0  0.00000000000E+00  0.00000000000E+00  0.18375256713E+02  0.18375256713E+02  0.00000000000E+00 0. -1.
          1   -1    0    0  501    0 -0.00000000000E+00 -0.00000000000E+00 -0.27695138220E+02  0.27695138220E+02  0.00000000000E+00 0. -1.
          2    1    1    2  501    0  0.87899799258E+01  0.20220286302E+02  0.21382992770E+00  0.22049250519E+02  0.00000000000E+00 0. -1.
          1    1    1    2  502    0 -0.87899799258E+01 -0.20220286302E+02 -0.95337114347E+01  0.24021144414E+02  0.00000000000E+00 0. -1.
</event>
<event>
 4    1  0.3837333E+003  0.2007043E+02  0.7546771E-02  0.1532962E+00
          2   -1    0    0  502    0  0.00000000000E+00  0.00000000000E+00  0.81937642340E+03  0.81937642340E+03  0.00000000000E+00 0.  1.
          1   -1    0    0  501    0 -0.00000000000E+00 -0.00000000000E+00 -0.96368842522E+00  0.96368842522E+00  0.00000000000E+00 0.  1.
          2    1    1    2  501    0 -0.96068144128E+01 -0.17621901121E+02  0.69628300932E+03  0.69657221546E+03  0.00000000000E+00 0.  1.
          1    1    1    2  502    0  0.96068144128E+01  0.17621901121E+02  0.12212972565E+03  0.12376789636E+03  0.00000000000E+00 0.  1.
</event>
<event>
 4    1  0.3837333E+003  0.2167217E+02  0.7546771E-02  0.1509880E+00
          2   -1    0    0  502    0  0.00000000000E+00  0.00000000000E+00  0.57527332515E+02  0.57527332515E+02  0.00000000000E+00 0. -1.
          1   -1    0    0  501    0 -0.00000000000E+00 -0.00000000000E+00 -0.49972755030E+03  0.49972755030E+03  0.00000000000E+00 0. -1.
          2    1    1    2  501    0  0.10910387665E+02 -0.18725559221E+02  0.55241859183E+02  0.59340931347E+02  0.00000000000E+00 0. -1.
          1    1    1    2  502    0 -0.10910387665E+02  0.18725559221E+02 -0.49744207697E+03  0.49791395147E+03  0.00000000000E+00 0. -1.
</event>
<event>
 4    1  0.3837333E+003  0.3044522E+02  0.7546771E-02  0.1415766E+00
          2   -1    0    0  502    0  0.00000000000E+00  0.00000000000E+00  0.82404330676E+02  0.82404330676E+02  0.00000000000E+00 0.  1.
          1   -1    0    0  501    0 -0.00000000000E+00 -0.00000000000E+00 -0.11426044568E+02  0.11426044568E+02  0.00000000000E+00 0.  1.
          2    1    1    2  501    0 -0.25946118914E+02 -0.15928293627E+02  0.41339997703E+02  0.51341085250E+02  0.00000000000E+00 0.  1.
          1    1    1    2  502    0  0.25946118914E+02  0.15928293627E+02  0.29638288405E+02  0.42489289993E+02  0.00000000000E+00 0.  1.
</event>
<event>
 4    1  0.3837333E+003  0.2033528E+02  0.7546771E-02  0.1528970E+00
          2   -1    0    0  502    0  0.00000000000E+00  0.00000000000E+00  0.48688845369E+03  0.48688845369E+03  0.00000000000E+00 0.  1.
          1   -1    0    0  501    0 -0.00000000000E+00 -0.00000000000E+00 -0.46654837444E+01  0.46654837444E+01  0.00000000000E+00 0.  1.
          2    1    1    2  501    0  0.15798248368E+02  0.12803871693E+02  0.46339455237E+03  0.46384052750E+03  0.00000000000E+00 0.  1.
          1    1    1    2  502    0 -0.15798248368E+02 -0.12803871693E+02  0.18828417567E+02  0.27713409929E+02  0.00000000000E+00 0.  1.
</event>
<event>
 4    1  0.3837333E+003  0.2294968E+02  0.7546771E-02  0.1493131E+00
          2   -1    0    0  502    0  0.00000000000E+00  0.00000000000E+00  0.28355204892E+03  0.28355204892E+03  0.00000000000E+00 0. -1.
          1   -1    0    0  501    0 -0.00000000000E+00 -0.00000000000E+00 -0.23099556752E+01  0.23099556752E+01  0.00000000000E+00 0. -1.
          2    1    1    2  501    0 -0.16947444375E+02 -0.15474885946E+02  0.20388109238E+03  0.20516868133E+03  0.00000000000E+00 0. -1.
          1    1    1    2  502    0  0.16947444375E+02  0.15474885946E+02  0.77361000863E+02  0.80693323270E+02  0.00000000000E+00 0. -1.
</event>
<event>
 4    1  0.3837333E+003  0.2439244E+02  0.7546771E-02  0.1475716E+00
          2   -1    0    0  502    0  0.00000000000E+00  0.00000000000E+00  0.19391180708E+03  0.19391180708E+03  0.00000000000E+00 0.  1.
          1   -1    0    0  501    0 -0.00000000000E+00 -0.00000000000E+00 -0.31534870511E+01  0.31534870511E+01  0.00000000000E+00 0. -1.
          2    1    1    2  501    0 -0.13685645875E+02 -0.20191442625E+02  0.11156808749E+03  0.11420345619E+03  0.00000000000E+00 0.  1.
          1    1    1    2  502    0  0.13685645875E+02  0.20191442625E+02  0.79190232535E+02  0.82861837942E+02  0.00000000000E+00 0. -1.
</event>
<event>
 4    1  0.3837333E+003  0.2079430E+02  0.7546771E-02  0.1522222E+00
          2   -1    0    0  502    0  0.00000000000E+00  0.00000000000E+00  0.47098190018E+01  0.47098190018E+01  0.00000000000E+00 0. -1.
          1   -1    0    0  501    0 -0.00000000000E+00 -0.00000000000E+00 -0.14618800734E+03  0.14618800734E+03  0.00000000000E+00 0. -1.
          2    1    1    2  501    0 -0.43159205841E+01  0.20341474851E+02 -0.24722592048E+02  0.32304942767E+02  0.00000000000E+00 0. -1.
          1    1    1    2  502    0  0.43159205841E+01 -0.20341474851E+02 -0.11675559629E+03  0.11859288358E+03  0.00000000000E+00 0. -1.
</event>
<event>
 4    1  0.3837333E+003  0.2039980E+02  0.7546771E-02  0.1528009E+00
          2   -1    0    0  502    0  0.00000000000E+00  0.00000000000E+00  0.38725810676E+02  0.38725810676E+02  0.00000000000E+00 0. -1.
          1   -1    0    0  501    0 -0.00000000000E+00 -0.00000000000E+00 -0.11309516261E+02  0.11309516261E+02  0.00000000000E+00 0. -1.
          2    1    1    2  501    0 -0.20146469044E+02 -0.32049158724E+01  0.19292036086E+02  0.28077292551E+02  0.00000000000E+00 0. -1.
          1    1    1    2  502    0  0.20146469044E+02  0.32049158724E+01  0.81242583290E+01  0.21958034385E+02  0.00000000000E+00 0. -1.
</event>
<event>
 4    1  0.3837333E+003  0.2670685E+02  0.7546771E-02  0.1450575E+00
          2   -1    0    0  502    0  0.00000000000E+00  0.00000000000E+00  0.11758135984E+02  0.11758135984E+02  0.00000000000E+00 0. -1.
          1   -1    0    0  501    0 -0.00000000000E+00 -0.00000000000E+00 -0.60924868428E+03  0.60924868428E+03  0.00000000000E+00 0.  1.
          2    1    1    2  501    0  0.26693047924E+02 -0.85851906363E+00 -0.41049050141E+01  0.27020475711E+02  0.00000000000E+00 0. -1.
          1    1    1    2  502    0 -0.26693047924E+02  0.85851906363E+00 -0.59338564328E+03  0.59398634455E+03  0.00000000000E+00 0.  1.
</event>
<event>
 4    1  0.3837333E+003  0.2377773E+02  0.7546771E-02  0.1482956E+00
          2   -1    0    0  502    0  0.00000000000E+00  0.00000000000E+00  0.86901911918E+03  0.86901911918E+03  0.00000000000E+00 0. -1.
          1   -1    0    0  501    0 -0.00000000000E+00 -0.00000000000E+00 -0.22914776980E+01  0.22914776980E+01  0.00000000000E+00 0.  1.
          2    1    1    2  501    0 -0.15056787731E+02  0.18403084333E+02  0.80202195205E+03  0.80237434651E+03  0.00000000000E+00 0. -1.
          1    1    1    2  502    0  0.15056787731E+02 -0.18403084333E+02  0.64705689432E+02  0.68936250367E+02  0.00000000000E+00 0.  1.
</event>
<event>
 4    1  0.3837333E+003  0.2334691E+02  0.7546771E-02  0.1488187E+00
          2   -1    0    0  502    0  0.00000000000E+00  0.00000000000E+00  0.11163764194E+03  0.11163764194E+03  0.00000000000E+00 0.  1.
          1   -1    0    0  501    0 -0.00000000000E+00 -0.00000000000E+00 -0.64009414619E+01  0.64009414619E+01  0.00000000000E+00 0.  1.
          2    1    1    2  501    0 -0.22606620152E+02 -0.58325560119E+01  0.81363321067E+02  0.84646724682E+02  0.00000000000E+00 0.  1.
          1    1    1    2  502    0  0.22606620152E+02  0.58325560119E+01  0.23873379413E+02  0.33391858722E+02  0.00000000000E+00 0.  1.
</event>
<event>
 4    1  0.3837333E+003  0.2178202E+02  0.7546771E-02  0.1508386E+00
          2   -1    0    0  502    0  0.00000000000E+00  0.00000000000E+00  0.42584297189E+03  0.42584297189E+03  0.00000000000E+00 0.  1.
          1   -1    0    0  501    0 -0.00000000000E+00 -0.00000000000E+00 -0.86277636934E+01  0.86277636934E+01  0.00000000000E+00 0.  1.
          2    1    1    2  501    0  0.12771961027E+02 -0.17644637194E+02  0.41133181680E+03  0.41190814476E+03  0.00000000000E+00 0.  1.
          1    1    1    2  502    0 -0.12771961027E+02  0.17644637194E+02  0.58833913966E+01  0.22562590820E+02  0.00000000000E+00 0.  1.
</event>
<event>
 4    1  0.3837333E+003  0.2396086E+02  0.7546771E-02  0.1480773E+00
          2   -1    0    0  502    0  0.00000000000E+00  0.00000000000E+00  0.99022806264E+01  0.99022806264E+01  0.00000000000E+00 0. -1.
          1   -1    0    0  501    0 -0.00000000000E+00 -0.00000000000E+00 -0.94261899182E+03  0.94261899182E+03  0.00000000000E+00 0. -1.
          2    1    1    2  501    0  0.78794649284E+01  0.22628233751E+02 -0.49771347037E+01  0.24472327231E+02  0.00000000000E+00 0. -1.
          1    1    1    2  502    0 -0.78794649284E+01 -0.22628233751E+02 -0.92773957649E+03  0.92804894521E+03  0.00000000000E+00 0. -1.
</event>
<event>
 4    1  0.4265342E+003  0.3214810E+02  0.7546771E-02  0.1401804E+00
          2   -1    0    0  502    0  0.00000000000E+00  0.00000000000E+00  0.94416872101E+03  0.94416872101E+03  0.00000000000E+00 0.  1.
          1   -1    0    0  501    0 -0.00000000000E+00 -0.00000000000E+00 -0.50085125447E+03  0.50085125447E+03  0.00000000000E+00 0.  1.
          2    1    1    2  501    0 -0.29656406873E+02 -0.12409577378E+02  0.94337876396E+03  0.94392637020E+03  0.00000000000E+00 0.  1.
          1    1    1    2  502    0  0.29656406873E+02  0.12409577378E+02 -0.50006129742E+03  0.50109360528E+03  0.00000000000E+00 0.  1.
</event>
<event>
 4    1  0.3837333E+003  0.2320315E+02  0.7546771E-02  0.1489963E+00
          2   -1    0    0  502    0  0.00000000000E+00  0.00000000000E+00  0.37662599459E+03  0.37662599459E+03  0.00000000000E+00 0.  1.
          1   -1    0    0  501    0 -0.00000000000E+00 -0.00000000000E+00 -0.24030477612E+01  0.24030477612E+01  0.00000000000E+00 0.  1.
          2    1    1    2  501    0 -0.23160970083E+02 -0.13984038522E+01  0.30773732455E+03  0.30861083420E+03  0.00000000000E+00 0.  1.
          1    1    1    2  502    0  0.23160970083E+02  0.13984038522E+01  0.66485622285E+02  0.70418208151E+02  0.00000000000E+00 0.  1.
</event>
<event>
 4    1  0.3837333E+003  0.2372632E+02  0.7546771E-02  0.1483574E+00
          2   -1    0    0  502    0  0.00000000000E+00  0.00000000000E+00  0.26456775937E+01  0.26456775937E+01  0.00000000000E+00 0. -1.
          1   -1    0    0  501    0 -0.00000000000E+00 -0.00000000000E+00 -0.62192396523E+03  0.62192396523E+03  0.00000000000E+00 0.  1.
          2    1    1    2  501    0 -0.18785094674E+02  0.14493393178E+02 -0.56346766430E+02  0.61138337521E+02  0.00000000000E+00 0. -1.
          1    1    1    2  502    0  0.18785094674E+02 -0.14493393178E+02 -0.56293152120E+03  0.56343130530E+03  0.00000000000E+00 0.  1.
</event>
<event>
 4    1  0.3837333E+003  0.2303595E+02  0.7546771E-02  0.1492047E+00
          2   -1    0    0  502    0  0.00000000000E+00  0.00000000000E+00  0.69359033136E+03  0.69359033136E+03  0.00000000000E+00 0.  1.
          1   -1    0    0  501    0 -0.00000000000E+00 -0.00000000000E+00 -0.24876781858E+02  0.24876781858E+02  0.00000000000E+00 0. -1.
          2    1    1    2  501    0  0.23028985065E+02 -0.56638632696E+00  0.68802308744E+03  0.68840861688E+03  0.00000000000E+00 0.  1.
          1    1    1    2  502    0 -0.23028985065E+02  0.56638632696E+00 -0.19309537939E+02  0.30058496336E+02  0.00000000000E+00 0. -1.
</event>
<event>
 4    1  0.3837333E+003  0.4349518E+02  0.7546771E-02  0.1329138E+00
          2   -1    0    0  502    0  0.00000000000E+00  0.00000000000E+00  0.11061709526E+04  0.11061709526E+04  0.00000000000E+00 0.  1.
          1   -1    0    0  501    0 -0.00000000000E+00 -0.00000000000E+00 -0.25682672606E+01  0.25682672606E+01  0.00000000000E+00 0.  1.
          2    1    1    2  501    0  0.25573090975E+02 -0.35183054500E+02  0.87222678388E+03  0.87331059356E+03  0.00000000000E+00 0.  1.
          1    1    1    2  502    0 -0.25573090975E+02  0.35183054500E+02  0.23137590148E+03  0.23542862632E+03  0.00000000000E+00 0.  1.
</event>
<event>
 4    1  0.3837333E+003  0.2177973E+02  0.7546771E-02  0.1508417E+00
          2   -1    0    0  502    0  0.00000000000E+00  0.00000000000E+00  0.11044216620E+03  0.11044216620E+03  0.00000000000E+00 0.  1.
          1   -1    0    0  501    0 -0.00000000000E+00 -0.00000000000E+00 -0.56544032215E+03  0.56544032215E+03  0.00000000000E+00 0.  1.
          2    1    1    2  501    0  0.20468138815E+02 -0.74439061046E+01  0.10915622415E+03  0.11130785109E+03  0.00000000000E+00 0.  1.
          1    1    1    2  502    0 -0.20468138815E+02  0.74439061046E+01 -0.56415438010E+03  0.56457463725E+03  0.00000000000E+00 0.  1.
</event>
<event>
 4    1  0.3837333E+003  0.4042717E+02  0.7546771E-02  0.1346001E+00
          2   -1    0    0  502    0  0.00000000000E+00  0.00000000000E+00  0.13491362732E+04  0.13491362732E+04  0.00000000000E+00 0. -1.
          1   -1    0    0  501    0 -0.00000000000E+00 -0.00000000000E+00 -0.14112333795E+02  0.14112333795E+02  0.00000000000E+00 0. -1.
          2    1    1    2  501    0  0.30994015608E+02 -0.25956260563E+02  0.13192244842E+04  0.13198437772E+04  0.00000000000E+00 0. -1.
          1    1    1    2  502    0 -0.30994015608E+02  0.25956260563E+02  0.15799455204E+02  0.43404829808E+02  0.00000000000E+00 0. -1.
</event>
<event>
 4    1  0.3837333E+003  0.2661914E+02  0.7546771E-02  0.1451472E+00
          2   -1    0    0  502    0  0.00000000000E+00  0.00000000000E+00  0.66345449069E+03  0.66345449069E+03  0.00000000000E+00 0.  1.
          1   -1    0    0  501    0 -0.00000000000E+00 -0.00000000000E+00 -0.35184488010E+02  0.35184488010E+02  0.00000000000E+00 0.  1.
          2    1    1    2  501    0 -0.38553617135E+01 -0.26338468176E+02  0.65811189350E+03  0.65865001563E+03  0.00000000000E+00 0.  1.
          1    1    1    2  502    0  0.38553617135E+01  0.26338468176E+02 -0.29841890821E+02  0.39988963072E+02  0.00000000000E+00 0.  1.
</event>
<event>
 4    1  0.3837333E+003  0.2276525E+02  0.7546771E-02  0.1495467E+00
          2   -1    0    0  502    0  0.00000000000E+00  0.00000000000E+00  0.64112257218E+03  0.64112257218E+03  0.00000000000E+00 0. -1.
          1   -1    0    0  501    0 -0.00000000000E+00 -0.00000000000E+00 -0.86881481316E+02  0.86881481316E+02  0.00000000000E+00 0. -1.
          2    1    1    2  501    0  0.10015780514E+02 -0.20443596704E+02  0.63942525107E+03  0.63983037456E+03  0.00000000000E+00 0. -1.
          1    1    1    2  502    0 -0.10015780514E+02  0.20443596704E+02 -0.85184160210E+02  0.88173678930E+02  0.00000000000E+00 0. -1.
</event>
<event>
 4    1  0.3837333E+003  0.2079490E+02  0.7546771E-02  0.1522213E+00
          2   -1    0    0  502    0  0.00000000000E+00  0.00000000000E+00  0.92561716329E+01  0.92561716329E+01  0.00000000000E+00 0. -1.
          1   -1    0    0  501    0 -0.00000000000E+00 -0.00000000000E+00 -0.40230751754E+03  0.40230751754E+03  0.00000000000E+00 0.  1.
          2    1    1    2  501    0  0.18673005216E+02 -0.91513191432E+01 -0.30605905124E+01  0.21018919576E+02  0.00000000000E+00 0. -1.
          1    1    1    2  502    0 -0.18673005216E+02  0.91513191432E+01 -0.38999075539E+03  0.39054476959E+03  0.00000000000E+00 0.  1.
</event>
<event>
 4    1  0.3837333E+003  0.3137765E+02  0.7546771E-02  0.1407991E+00
          2   -1    0    0  502    0  0.00000000000E+00  0.00000000000E+00  0.19765726216E+02  0.19765726216E+02  0.00000000000E+00 0. -1.
          1   -1    0    0  501    0 -0.00000000000E+00 -0.00000000000E+00 -0.18839217850E+03  0.18839217850E+03  0.00000000000E+00 0.  1.
          2    1    1    2  501    0  0.20848130709E+02 -0.23450210770E+02  0.49521623943E+01  0.31766032985E+02  0.00000000000E+00 0. -1.
          1    1    1    2  502    0 -0.20848130709E+02  0.23450210770E+02 -0.17357861468E+03  0.17639187174E+03  0.00000000000E+00 0.  1.
</event>
<event>
 4    1  0.3837333E+003  0.2595503E+02  0.7546771E-02  0.1458397E+00
          2   -1    0    0  502    0  0.00000000000E+00  0.00000000000E+00  0.53327388144E+03  0.53327388144E+03  0.00000000000E+00 0.  1.
          1   -1    0    0  501    0 -0.00000000000E+00 -0.00000000000E+00 -0.39001748181E+01  0.39001748181E+01  0.00000000000E+00 0. -1.
          2    1    1    2  501    0 -0.23747631936E+02  0.10474426702E+02  0.48553361518E+03  0.48622685560E+03  0.00000000000E+00 0.  1.
          1    1    1    2  502    0  0.23747631936E+02 -0.10474426702E+02  0.43840091447E+02  0.50947200663E+02  0.00000000000E+00 0. -1.
</event>
<event>
 4    1  0.3837333E+003  0.3826823E+02  0.7546771E-02  0.1358944E+00
          2   -1    0    0  502    0  0.00000000000E+00  0.00000000000E+00  0.24401293826E+01  0.24401293826E+01  0.00000000000E+00 0. -1.
          1   -1    0    0  501    0 -0.00000000000E+00 -0.00000000000E+00 -0.81540108337E+03  0.81540108337E+03  0.00000000000E+00 0. -1.
          2    1    1    2  501    0 -0.35961020991E+02  0.13086738396E+02 -0.19638331006E+03  0.20007714068E+03  0.00000000000E+00 0. -1.
          1    1    1    2  502    0  0.35961020991E+02 -0.13086738396E+02 -0.61657764393E+03  0.61776407207E+03  0.00000000000E+00 0. -1.
</event>
<event>
 4    1  0.3837333E+003  0.2306851E+02  0.7546771E-02  0.1491640E+00
          2   -1    0    0  502    0  0.00000000000E+00  0.00000000000E+00  0.24953937216E+01  0.24953937216E+01  0.00000000000E+00 0.  1.
          1   -1    0    0  501    0 -0.00000000000E+00 -0.00000000000E+00 -0.52692946029E+03  0.52692946029E+03  0.00000000000E+00 0. -1.
          2    1    1    2  501    0 -0.18556114107E+02 -0.13704991349E+02 -0.57978633006E+02  0.62399343297E+02  0.00000000000E+00 0.  1.
          1    1    1    2  502    0  0.18556114107E+02  0.13704991349E+02 -0.46645543356E+03  0.46702551071E+03  0.00000000000E+00 0. -1.
</event>
<event>
 4    1  0.3837333E+003  0.2016609E+02  0.7546771E-02  0.1531512E+00
          2   -1    0    0  502    0  0.00000000000E+00  0.00000000000E+00  0.20148670718E+02  0.20148670718E+02  0.00000000000E+00 0.  1.
          1   -1    0    0  501    0 -0.00000000000E+00 -0.00000000000E+00 -0.23173318022E+03  0.23173318022E+03  0.00000000000E+00 0.  1.
          2    1    1    2  501    0  0.10818056076E+02  0.17018838449E+02  0.14539134401E+02  0.24860764843E+02  0.00000000000E+00 0.  1.
          1    1    1    2  502    0 -0.10818056076E+02 -0.17018838449E+02 -0.22612364390E+03  0.22702108609E+03  0.00000000000E+00 0.  1.
</event>
<event>
 4    1  0.3837333E+003  0.3393197E+02  0.7546771E-02  0.1388231E+00
          2   -1    0    0  502    0  0.00000000000E+00  0.00000000000E+00  0.10434080308E+04  0.10434080308E+04  0.00000000000E+00 0. -1.
          1   -1    0    0  501    0 -0.00000000000E+00 -0.00000000000E+00 -0.10441193453E+02  0.10441193453E+02  0.00000000000E+00 0.  1.
          2    1    1    2  501    0  0.12306676051E+02  0.31621580434E+02  0.10147866609E+04  0.10153538032E+04  0.00000000000E+00 0. -1.
          1    1    1    2  502    0 -0.12306676051E+02 -0.31621580434E+02  0.18180176487E+02  0.38495421048E+02  0.00000000000E+00 0.  1.
</event>
<event>
 4    1  0.3837333E+003  0.2165397E+02  0.7546771E-02  0.1510129E+00
          2   -1    0    0  502    0  0.00000000000E+00  0.00000000000E+00  0.14107046839E+04  0.14107046839E+04  0.00000000000E+00 0.  1.
          1   -1    0    0  501    0 -0.00000000000E+00 -0.00000000000E+00 -0.24723840153E+02  0.24723840153E+02  0.00000000000E+00 0.  1.
          2    1    1    2  501    0 -0.21114242517E+02  0.48044806688E+01  0.14058639465E+04  0.14060307003E+04  0.00000000000E+00 0.  1.
          1    1    1    2  502    0  0.21114242517E+02 -0.48044806688E+01 -0.19883102668E+02  0.29397823784E+02  0.00000000000E+00 0.  1.
</event>
<event>
 4    1  0.3837333E+003  0.3271466E+02  0.7546771E-02  0.1397383E+00
          2   -1    0    0  502    0  0.00000000000E+00  0.00000000000E+00  0.65462275716E+01  0.65462275716E+01  0.00000000000E+00 0.  1.
          1   -1    0    0  501    0 -0.00000000000E+00 -0.00000000000E+00 -0.12964743443E+04  0.12964743443E+04  0.00000000000E+00 0. -1.
          2    1    1    2  501    0 -0.28880290655E+02 -0.15368081427E+02 -0.35916675863E+02  0.48582473384E+02  0.00000000000E+00 0.  1.
          1    1    1    2  502    0  0.28880290655E+02  0.15368081427E+02 -0.12540114408E+04  0.12544380985E+04  0.00000000000E+00 0. -1.
</event>
<event>
 4    1  0.3837333E+003  0.2327398E+02  0.7546771E-02  0.1489086E+00
          2   -1    0    0  502    0  0.00000000000E+00  0.00000000000E+00  0.20107578085E+03  0.20107578085E+03  0.00000000000E+00 0.  1.
          1   -1    0    0  501    0 -0.00000000000E+00 -0.00000000000E+00 -0.13351127133E+02  0.13351127133E+02  0.00000000000E+00 0. -1.
          2    1    1    2  501    0  0.23216898516E+02 -0.16290375940E+01  0.18965061748E+03  0.19107337557E+03  0.00000000000E+00 0.  1.
          1    1    1    2  502    0 -0.23216898516E+02  0.16290375940E+01 -0.19259637571E+01  0.23353532422E+02  0.00000000000E+00 0. -1.
</event>
<event>
 4    1  0.3837333E+003  0.2790080E+02  0.7546771E-02  0.1438763E+00
          2   -1    0    0  502    0  0.00000000000E+00  0.00000000000E+00  0.37137032983E+01  0.37137032983E+01  0.00000000000E+00 0. -1.
          1   -1    0    0  501    0 -0.00000000000E+00 -0.00000000000E+00 -0.27292646082E+03  0.27292646082E+03  0.00000000000E+00 0. -1.
          2    1    1    2  501    0  0.16775601316E+02 -0.22294249589E+02 -0.67987452482E+02  0.73489782005E+02  0.00000000000E+00 0. -1.
          1    1    1    2  502    0 -0.16775601316E+02  0.22294249589E+02 -0.20122530504E+03  0.20315038212E+03  0.00000000000E+00 0. -1.
</event>
<event>
 4    1  0.3837333E+003  0.3975595E+02  0.7546771E-02  0.1349922E+00
          2   -1    0    0  502    0  0.00000000000E+00  0.00000000000E+00  0.18706240923E+02  0.18706240923E+02  0.00000000000E+00 0. -1.
          1   -1    0    0  501    0 -0.00000000000E+00 -0.00000000000E+00 -0.31009028901E+03  0.31009028901E+03  0.00000000000E+00 0. -1.
          2    1    1    2  501    0  0.10630945897E+02  0.38308202229E+02 -0.54685723221E+01  0.40130295936E+02  0.00000000000E+00 0. -1.
          1    1    1    2  502    0 -0.10630945897E+02 -0.38308202229E+02 -0.28591547576E+03  0.28866623399E+03  0.00000000000E+00 0. -1.
</event>
<event>
 4    1  0.3837333E+003  0.2521819E+02  0.7546771E-02  0.1466377E+00
          2   -1    0    0  502    0  0.00000000000E+00  0.00000000000E+00  0.12140978881E+04  0.12140978881E+04  0.00000000000E+00 0. -1.
          1   -1    0    0  501    0 -0.00000000000E+00 -0.00000000000E+00 -0.41610124756E+02  0.41610124756E+02  0.00000000000E+00 0. -1.
          2    1    1    2  501    0 -0.10628010104E+02  0.22869252755E+02  0.12101334905E+04  0.12103962252E+04  0.00000000000E+00 0. -1.
          1    1    1    2  502    0  0.10628010104E+02 -0.22869252755E+02 -0.37645727161E+02  0.45311787581E+02  0.00000000000E+00 0. -1.
</event>
<event>
 4    1  0.3837333E+003  0.3399271E+02  0.7546771E-02  0.1387786E+00
          2   -1    0    0  502    0  0.00000000000E+00  0.00000000000E+00  0.20606016792E+02  0.20606016792E+02  0.00000000000E+00 0.  1.
          1   -1    0    0  501    0 -0.00000000000E+00 -0.00000000000E+00 -0.36006857796E+03  0.36006857796E+03  0.00000000000E+00 0.  1.
          2    1    1    2  501    0  0.11859568842E+02 -0.31856789511E+02  0.51578133778E+01  0.34381789510E+02  0.00000000000E+00 0.  1.
          1    1    1    2  502    0 -0.11859568842E+02  0.31856789511E+02 -0.34462037454E+03  0.34629280524E+03  0.00000000000E+00 0.  1.
</event>
<event>
 4    1  0.3837333E+003  0.2293828E+02  0.7546771E-02  0.1493275E+00
          2   -1    0    0  502    0  0.00000000000E+00  0.00000000000E+00  0.69081470638E+03  0.69081470638E+03  0.00000000000E+00 0.  1.
          1   -1    0    0  501    0 -0.00000000000E+00 -0.00000000000E+00 -0.10111260490E+02  0.10111260490E+02  0.00000000000E+00 0. -1.
          2    1    1    2  501    0  0.22649608386E+02  0.36276388625E+01  0.67735651654E+03  0.67774480081E+03  0.00000000000E+00 0.  1.
          1    1    1    2  502    0 -0.22649608386E+02 -0.36276388625E+01  0.33469293477E+01  0.23181166059E+02  0.00000000000E+00 0. -1.
</event>
<event>
 4    1  0.3837333E+003  0.2377786E+02  0.7546771E-02  0.1482955E+00
          2   -1    0    0  502    0  0.00000000000E+00  0.00000000000E+00  0.22877851480E+03  0.22877851480E+03  0.00000000000E+00 0.  1.
          1   -1    0    0  501    0 -0.00000000000E+00 -0.00000000000E+00 -0.29272112496E+03  0.29272112496E+03  0.00000000000E+00 0. -1.
          2    1    1    2  501    0  0.11641555817E+02 -0.20733086219E+02  0.22767547837E+03  0.22891376135E+03  0.00000000000E+00 0.  1.
          1    1    1    2  502    0 -0.11641555817E+02  0.20733086219E+02 -0.29161808853E+03  0.29258587841E+03  0.00000000000E+00 0. -1.
</event>
<event>
 4    1  0.3837333E+003  0.2413627E+02  0.7546771E-02  0.1478702E+00
          2   -1    0    0  502    0  0.00000000000E+00  0.00000000000E+00  0.74676875945E+01  0.74676875945E+01  0.00000000000E+00 0.  1.
          1   -1    0    0  501    0 -0.00000000000E+00 -0.00000000000E+00 -0.29586439281E+03  0.29586439281E+03  0.00000000000E+00 0.  1.
          2    1    1    2  501    0  0.13849671366E+02 -0.19767301639E+02 -0.14054262749E+02  0.27929946517E+02  0.00000000000E+00 0.  1.
          1    1    1    2  502    0 -0.13849671366E+02  0.19767301639E+02 -0.27434244247E+03  0.27540213389E+03  0.00000000000E+00 0.  1.
</event>
<event>
 4    1  0.3837333E+003  0.2224256E+02  0.7546771E-02  0.1502235E+00
          2   -1    0    0  502    0  0.00000000000E+00  0.00000000000E+00  0.32333822226E+02  0.32333822226E+02  0.00000000000E+00 0.  1.
          1   -1    0    0  501    0 -0.00000000000E+00 -0.00000000000E+00 -0.25942197301E+03  0.25942197301E+03  0.00000000000E+00 0.  1.
          2    1    1    2  501    0 -0.13340300486E+02  0.17797968349E+02  0.27966500111E+02  0.35733127807E+02  0.00000000000E+00 0.  1.
          1    1    1    2  502    0  0.13340300486E+02 -0.17797968349E+02 -0.25505465090E+03  0.25602266743E+03  0.00000000000E+00 0.  1.
</event>
<event>
 4    1  0.3837333E+003  0.4057507E+02  0.7546771E-02  0.1345148E+00
          2   -1    0    0  502    0  0.00000000000E+00  0.00000000000E+00  0.14454424515E+04  0.14454424515E+04  0.00000000000E+00 0.  1.
          1   -1    0    0  501    0 -0.00000000000E+00 -0.00000000000E+00 -0.61934068188E+01  0.61934068188E+01  0.00000000000E+00 0. -1.
          2    1    1    2  501    0 -0.14679982118E+02 -0.37826370335E+02  0.13753146766E+04  0.13759130772E+04  0.00000000000E+00 0.  1.
          1    1    1    2  502    0  0.14679982118E+02  0.37826370335E+02  0.63934368074E+02  0.75722781174E+02  0.00000000000E+00 0. -1.
</event>
<event>
 4    1  0.3837333E+003  0.3155965E+02  0.7546771E-02  0.1406511E+00
          2   -1    0    0  502    0  0.00000000000E+00  0.00000000000E+00  0.28542482408E+02  0.28542482408E+02  0.00000000000E+00 0. -1.
          1   -1    0    0  501    0 -0.00000000000E+00 -0.00000000000E+00 -0.54352425250E+03  0.54352425250E+03  0.00000000000E+00 0. -1.
          2    1    1    2  501    0  0.23623225043E+02  0.20927362632E+02  0.19208110771E+02  0.36945402793E+02  0.00000000000E+00 0. -1.
          1    1    1    2  502    0 -0.23623225043E+02 -0.20927362632E+02 -0.53418988086E+03  0.53512133211E+03  0.00000000000E+00 0. -1.
</event>
<event>
 4    1  0.3837333E+003  0.2174602E+02  0.7546771E-02  0.1508875E+00
          2   -1    0    0  502    0  0.00000000000E+00  0.00000000000E+00  0.59498225942E+03  0.59498225942E+03  0.00000000000E+00 0. -1.
          1   -1    0    0  501    0 -0.00000000000E+00 -0.00000000000E+00 -0.97733916465E+02  0.97733916465E+02  0.00000000000E+00 0.  1.
          2    1    1    2  501    0 -0.21338954715E+02 -0.41879039700E+01  0.59357105032E+03  0.59396925957E+03  0.00000000000E+00 0. -1.
          1    1    1    2  502    0  0.21338954715E+02  0.41879039700E+01 -0.96322707368E+02  0.98746916320E+02  0.00000000000E+00 0.  1.
</event>
<event>
 4    1  0.3837333E+003  0.2507928E+02  0.7546771E-02  0.1467918E+00
          2   -1    0    0  502    0  0.00000000000E+00  0.00000000000E+00  0.64239264814E+03  0.64239264814E+03  0.00000000000E+00 0. -1.
          1   -1    0    0  501    0 -0.00000000000E+00 -0.00000000000E+00 -0.53634227597E+01  0.53634227597E+01  0.00000000000E+00 0.  1.
          2    1    1    2  501    0 -0.75981561374E+01 -0.23900592345E+02  0.61134184226E+03  0.61185604384E+03  0.00000000000E+00 0. -1.
          1    1    1    2  502    0  0.75981561374E+01  0.23900592345E+02  0.25687383127E+02  0.35900027062E+02  0.00000000000E+00 0.  1.
</event>
<event>
 4    1  0.3837333E+003  0.2728102E+02  0.7546771E-02  0.1444805E+00
          2   -1    0    0  502    0  0.00000000000E+00  0.00000000000E+00  0.99097078712E+03  0.99097078712E+03  0.00000000000E+00 0. -1.
          1   -1    0    0  501    0 -0.00000000000E+00 -0.00000000000E+00 -0.14595442387E+03  0.14595442387E+03  0.00000000000E+00 0. -1.
          2    1    1    2  501    0  0.10335156078E+00 -0.27280825804E+02  0.98950633622E+03  0.98988233824E+03  0.00000000000E+00 0. -1.
          1    1    1    2  502    0 -0.10335156078E+00  0.27280825804E+02 -0.14448997297E+03  0.14704287276E+03  0.00000000000E+00 0. -1.
</event>
<event>
 4    1  0.3837333E+003  0.3413935E+02  0.7546771E-02  0.1386717E+00
          2   -1    0    0  502    0  0.00000000000E+00  0.00000000000E+00  0.60453705730E+03  0.60453705730E+03  0.00000000000E+00 0. -1.
          1   -1    0    0  501    0 -0.00000000000E+00 -0.00000000000E+00 -0.99891234154E+01  0.99891234154E+01  0.00000000000E+00 0. -1.
          2    1    1    2  501    0  0.31410266164E+02 -0.13374987282E+02  0.57329795234E+03  0.57431353568E+03  0.00000000000E+00 0. -1.
          1    1    1    2  502    0 -0.31410266164E+02  0.13374987282E+02  0.21249981544E+02  0.40212645038E+02  0.00000000000E+00 0. -1.
</event>
<event>
 4    1  0.3837333E+003  0.2229805E+02  0.7546771E-02  0.1501506E+00
          2   -1    0    0  502    0  0.00000000000E+00  0.00000000000E+00  0.95032209332E+03  0.95032209332E+03  0.00000000000E+00 0. -1.
          1   -1    0    0  501    0 -0.00000000000E+00 -0.00000000000E+00 -0.53019741014E+00  0.53019741014E+00  0.00000000000E+00 0.  1.
          2    1    1    2  501    0 -0.44679797340E+01  0.21845832500E+02  0.52953526121E+03  0.53000452461E+03  0.00000000000E+00 0. -1.
          1    1    1    2  502    0  0.44679797340E+01 -0.21845832500E+02  0.42025663471E+03  0.42084776613E+03  0.00000000000E+00 0.  1.
</event>
<event>
 4    1  0.3837333E+003  0.2602829E+02  0.7546771E-02  0.1457621E+00
          2   -1    0    0  502    0  0.00000000000E+00  0.00000000000E+00  0.19817918559E+03  0.19817918559E+03  0.00000000000E+00 0. -1.
          1   -1    0    0  501    0 -0.00000000000E+00 -0.00000000000E+00 -0.46423865694E+01  0.46423865694E+01  0.00000000000E+00 0.  1.
          2    1    1    2  501    0  0.22636227701E+02  0.12848075285E+02  0.14883837798E+03  0.15109710322E+03  0.00000000000E+00 0. -1.
          1    1    1    2  502    0 -0.22636227701E+02 -0.12848075285E+02  0.44698421040E+02  0.51724468934E+02  0.00000000000E+00 0.  1.
</event>
<event>
 4    1  0.3837333E+003  0.2007282E+02  0.7546771E-02  0.1532925E+00
          2   -1    0    0  502    0  0.00000000000E+00  0.00000000000E+00  0.57680371916E+03  0.57680371916E+03  0.00000000000E+00 0. -1.
          1   -1    0    0  501    0 -0.00000000000E+00 -0.00000000000E+00 -0.35132539258E+01  0.35132539258E+01  0.00000000000E+00 0.  1.
          2    1    1    2  501    0 -0.78029950844E+01  0.18494090693E+02  0.54636078203E+03  0.54672938668E+03  0.00000000000E+00 0. -1.
          1    1    1    2  502    0  0.78029950844E+01 -0.18494090693E+02  0.26929683203E+02  0.33587586401E+02  0.00000000000E+00 0.  1.
</event>
<event>
 4    1  0.3837333E+003  0.7132405E+02  0.7546771E-02  0.1225562E+00
          2   -1    0    0  502    0  0.00000000000E+00  0.00000000000E+00  0.32040509735E+03  0.32040509735E+03  0.00000000000E+00 0. -1.
          1   -1    0    0  501    0 -0.00000000000E+00 -0.00000000000E+00 -0.95665825669E+03  0.95665825669E+03  0.00000000000E+00 0.  1.
          2    1    1    2  501    0  0.55445543362E+01  0.71108215518E+02  0.31508424160E+03  0.32305603183E+03  0.00000000000E+00 0. -1.
          1    1    1    2  502    0 -0.55445543362E+01 -0.71108215518E+02 -0.95133740094E+03  0.95400732221E+03  0.00000000000E+00 0.  1.
</event>
<event>
 4    1  0.3837333E+003  0.6216978E+02  0.7546771E-02  0.1252633E+00
          2   -1    0    0  502    0  0.00000000000E+00  0.00000000000E+00  0.36192398731E+04  0.36192398731E+04  0.00000000000E+00 0.  1.
          1   -1    0    0  501    0 -0.00000000000E+00 -0.00000000000E+00 -0.67589166057E+02  0.67589166057E+02  0.00000000000E+00 0. -1.
          2    1    1    2  501    0  0.60031901687E+02 -0.16163283444E+02  0.36046186774E+04  0.36051547665E+04  0.00000000000E+00 0.  1.
          1    1    1    2  502    0 -0.60031901687E+02  0.16163283444E+02 -0.52967970277E+02  0.81674272737E+02  0.00000000000E+00 0. -1.
</event>
<event>
 4    1  0.3837333E+003  0.2679662E+02  0.7546771E-02  0.1449662E+00
          2   -1    0    0  502    0  0.00000000000E+00  0.00000000000E+00  0.66092128905E+03  0.66092128905E+03  0.00000000000E+00 0. -1.
          1   -1    0    0  501    0 -0.00000000000E+00 -0.00000000000E+00 -0.54084196128E+01  0.54084196128E+01  0.00000000000E+00 0.  1.
          2    1    1    2  501    0  0.11187786204E+02  0.24349383576E+02  0.62558391157E+03  0.62615755961E+03  0.00000000000E+00 0. -1.
          1    1    1    2  502    0 -0.11187786204E+02 -0.24349383576E+02  0.29928957875E+02  0.40172149061E+02  0.00000000000E+00 0.  1.
</event>
<event>
 4    1  0.3837333E+003  0.3208870E+02  0.7546771E-02  0.1402274E+00
          2   -1    0    0  502    0  0.00000000000E+00  0.00000000000E+00  0.11431733633E+04  0.11431733633E+04  0.00000000000E+00 0.  1.
          1   -1    0    0  501    0 -0.00000000000E+00 -0.00000000000E+00 -0.21048982736E+01  0.21048982736E+01  0.00000000000E+00 0. -1.
          2    1    1    2  501    0 -0.31612731461E+02 -0.55063526724E+01  0.10036559658E+04  0.10041688017E+04  0.00000000000E+00 0.  1.
          1    1    1    2  502    0  0.31612731461E+02  0.55063526724E+01  0.13741249929E+03  0.14110945989E+03  0.00000000000E+00 0. -1.
</event>
<event>
 4    1  0.3837333E+003  0.2122518E+02  0.7546771E-02  0.1516074E+00
          2   -1    0    0  502    0  0.00000000000E+00  0.00000000000E+00  0.35053413635E+02  0.35053413635E+02  0.00000000000E+00 0. -1.
          1   -1    0    0  501    0 -0.00000000000E+00 -0.00000000000E+00 -0.16358067600E+02  0.16358067600E+02  0.00000000000E+00 0. -1.
          2    1    1    2  501    0 -0.21185245861E+02 -0.13013386080E+01  0.21248341166E+02  0.30033316944E+02  0.00000000000E+00 0. -1.
          1    1    1    2  502    0  0.21185245861E+02  0.13013386080E+01 -0.25529951312E+01  0.21378164292E+02  0.00000000000E+00 0. -1.
</event>
<event>
 4    1  0.3837333E+003  0.3095795E+02  0.7546771E-02  0.1411450E+00
          2   -1    0    0  502    0  0.00000000000E+00  0.00000000000E+00  0.30462716574E+01  0.30462716574E+01  0.00000000000E+00 0.  1.
          1   -1    0    0  501    0 -0.00000000000E+00 -0.00000000000E+00 -0.31463468118E+03  0.31463468118E+03  0.00000000000E+00 0. -1.
          2    1    1    2  501    0 -0.20357777740E+02 -0.23322828502E+02 -0.15714453337E+03  0.16016490817E+03  0.00000000000E+00 0.  1.
          1    1    1    2  502    0  0.20357777740E+02  0.23322828502E+02 -0.15444387616E+03  0.15751604466E+03  0.00000000000E+00 0. -1.
</event>
<event>
 4    1  0.3837333E+003  0.2100817E+02  0.7546771E-02  0.1519148E+00
          2   -1    0    0  502    0  0.00000000000E+00  0.00000000000E+00  0.71951519312E+03  0.71951519312E+03  0.00000000000E+00 0. -1.
          1   -1    0    0  501    0 -0.00000000000E+00 -0.00000000000E+00 -0.10075534173E+01  0.10075534173E+01  0.00000000000E+00 0. -1.
          2    1    1    2  501    0 -0.17677262627E+02  0.11351549547E+02  0.58458532581E+03  0.58496268808E+03  0.00000000000E+00 0. -1.
          1    1    1    2  502    0  0.17677262627E+02 -0.11351549547E+02  0.13392231390E+03  0.13556005846E+03  0.00000000000E+00 0. -1.
</event>
<event>
 4    1  0.3837333E+003  0.5775681E+02  0.7546771E-02  0.1267651E+00
          2   -1    0    0  502    0  0.00000000000E+00  0.00000000000E+00  0.90508656888E+03  0.90508656888E+03  0.00000000000E+00 0.  1.
          1   -1    0    0  501    0 -0.00000000000E+00 -0.00000000000E+00 -0.42744285356E+02  0.42744285356E+02  0.00000000000E+00 0. -1.
          2    1    1    2  501    0  0.42665839210E+02 -0.38929101320E+02  0.88419413770E+03  0.88607850776E+03  0.00000000000E+00 0.  1.
          1    1    1    2  502    0 -0.42665839210E+02  0.38929101320E+02 -0.21851854174E+02  0.61752346481E+02  0.00000000000E+00 0. -1.
</event>
<event>
 4    1  0.3837333E+003  0.3236231E+02  0.7546771E-02  0.1400120E+00
          2   -1    0    0  502    0  0.00000000000E+00  0.00000000000E+00  0.18283846641E+04  0.18283846641E+04  0.00000000000E+00 0.  1.
          1   -1    0    0  501    0 -0.00000000000E+00 -0.00000000000E+00 -0.14181603278E+02  0.14181603278E+02  0.00000000000E+00 0. -1.
          2    1    1    2  501    0  0.32248803884E+02  0.27081303000E+01  0.18095870509E+04  0.18098764085E+04  0.00000000000E+00 0.  1.
          1    1    1    2  502    0 -0.32248803884E+02 -0.27081303000E+01  0.46160098678E+01  0.32689858806E+02  0.00000000000E+00 0. -1.
</event>
<event>
 4    1  0.3837333E+003  0.2647196E+02  0.7546771E-02  0.1452986E+00
          2   -1    0    0  502    0  0.00000000000E+00  0.00000000000E+00  0.94875625805E+02  0.94875625805E+02  0.00000000000E+00 0.  1.
          1   -1    0    0  501    0 -0.00000000000E+00 -0.00000000000E+00 -0.16342463617E+02  0.16342463617E+02  0.00000000000E+00 0. -1.
          2    1    1    2  501    0  0.21329869214E+01 -0.26385889547E+02  0.80433799421E+02  0.84677983500E+02  0.00000000000E+00 0.  1.
          1    1    1    2  502    0 -0.21329869214E+01  0.26385889547E+02 -0.19006372332E+01  0.26540105921E+02  0.00000000000E+00 0. -1.
</event>
<event>
 4    1  0.3837333E+003  0.2123822E+02  0.7546771E-02  0.1515891E+00
          2   -1    0    0  502    0  0.00000000000E+00  0.00000000000E+00  0.89464689838E+02  0.89464689838E+02  0.00000000000E+00 0.  1.
          1   -1    0    0  501    0 -0.00000000000E+00 -0.00000000000E+00 -0.11586873270E+03  0.11586873270E+03  0.00000000000E+00 0.  1.
          2    1    1    2  501    0 -0.27191571394E+01 -0.21063434124E+02  0.87206182984E+02  0.89755113633E+02  0.00000000000E+00 0.  1.
          1    1    1    2  502    0  0.27191571394E+01  0.21063434124E+02 -0.11361022584E+03  0.11557830890E+03  0.00000000000E+00 0.  1.
</event>
<event>
 4    1  0.3837333E+003  0.2238366E+02  0.7546771E-02  0.1500386E+00
          2   -1    0    0  502    0  0.00000000000E+00  0.00000000000E+00  0.65693394575E+03  0.65693394575E+03  0.00000000000E+00 0.  1.
          1   -1    0    0  501    0 -0.00000000000E+00 -0.00000000000E+00 -0.79393011360E+00  0.79393011360E+00  0.00000000000E+00 0. -1.
          2    1    1    2  501    0 -0.41074440448E+01 -0.22003567207E+02  0.39331923983E+03  0.39395564787E+03  0.00000000000E+00 0.  1.
          1    1    1    2  502    0  0.41074440448E+01  0.22003567207E+02  0.26282077581E+03  0.26377222800E+03  0.00000000000E+00 0. -1.
</event>
<event>
 4    1  0.4431302E+003  0.2274680E+02  0.7546771E-02  0.1495702E+00
          2   -1    0    0  502    0  0.00000000000E+00  0.00000000000E+00  0.75432188299E+03  0.75432188299E+03  0.00000000000E+00 0. -1.
          1   -1    0    0  501    0 -0.00000000000E+00 -0.00000000000E+00 -0.58759413289E+03  0.58759413289E+03  0.00000000000E+00 0. -1.
          2    1    1    2  501    0  0.18373395846E+02  0.13410266124E+02  0.75393014236E+03  0.75427321076E+03  0.00000000000E+00 0. -1.
          1    1    1    2  502    0 -0.18373395846E+02 -0.13410266124E+02 -0.58720239227E+03  0.58764280511E+03  0.00000000000E+00 0. -1.
</event>
<event>
 4    1  0.3837333E+003  0.3572555E+02  0.7546771E-02  0.1375533E+00
          2   -1    0    0  502    0  0.00000000000E+00  0.00000000000E+00  0.52454790568E+02  0.52454790568E+02  0.00000000000E+00 0.  1.
          1   -1    0    0  501    0 -0.00000000000E+00 -0.00000000000E+00 -0.24346170550E+02  0.24346170550E+02  0.00000000000E+00 0.  1.
          2    1    1    2  501    0 -0.35131883624E+02  0.64857335121E+01  0.13117971439E+02  0.38057787125E+02  0.00000000000E+00 0.  1.
          1    1    1    2  502    0  0.35131883624E+02 -0.64857335121E+01  0.14990648579E+02  0.38743173992E+02  0.00000000000E+00 0.  1.
</event>
<event>
 4    1  0.3837333E+003  0.2557276E+02  0.7546771E-02  0.1462497E+00
          2   -1    0    0  502    0  0.00000000000E+00  0.00000000000E+00  0.42933967257E+02  0.42933967257E+02  0.00000000000E+00 0. -1.
          1   -1    0    0  501    0 -0.00000000000E+00 -0.00000000000E+00 -0.24831173808E+02  0.24831173808E+02  0.00000000000E+00 0. -1.
          2    1    1    2  501    0 -0.17243938438E+02 -0.18884166430E+02 -0.12015341877E+02  0.28254797735E+02  0.00000000000E+00 0. -1.
          1    1    1    2  502    0  0.17243938438E+02  0.18884166430E+02  0.30118135325E+02  0.39510343330E+02  0.00000000000E+00 0. -1.
</event>
<event>
 4    1  0.3837333E+003  0.2032820E+02  0.7546771E-02  0.1529076E+00
          2   -1    0    0  502    0  0.00000000000E+00  0.00000000000E+00  0.31828214295E+03  0.31828214295E+03  0.00000000000E+00 0.  1.
          1   -1    0    0  501    0 -0.00000000000E+00 -0.00000000000E+00 -0.49866822465E+01  0.49866822465E+01  0.00000000000E+00 0. -1.
          2    1    1    2  501    0  0.11777745080E+02  0.16568662099E+02  0.29565709805E+03  0.29635511716E+03  0.00000000000E+00 0.  1.
          1    1    1    2  502    0 -0.11777745080E+02 -0.16568662099E+02  0.17638362657E+02  0.26913708034E+02  0.00000000000E+00 0. -1.
</event>
<event>
 4    1  0.3837333E+003  0.2368536E+02  0.7546771E-02  0.1484067E+00
          2   -1    0    0  502    0  0.00000000000E+00  0.00000000000E+00  0.94369521543E+02  0.94369521543E+02  0.00000000000E+00 0. -1.
          1   -1    0    0  501    0 -0.00000000000E+00 -0.00000000000E+00 -0.70410685969E+02  0.70410685969E+02  0.00000000000E+00 0. -1.
          2    1    1    2  501    0 -0.76449646355E+01  0.22417647602E+02  0.90814795222E+02  0.93852668793E+02  0.00000000000E+00 0. -1.
          1    1    1    2  502    0  0.76449646355E+01 -0.22417647602E+02 -0.66855959649E+02  0.70927538720E+02  0.00000000000E+00 0. -1.
</event>
<event>
 4    1  0.3837333E+003  0.2964148E+02  0.7546771E-02  0.1422738E+00
          2   -1    0    0  502    0  0.00000000000E+00  0.00000000000E+00  0.39925304505E+03  0.39925304505E+03  0.00000000000E+00 0.  1.
          1   -1    0    0  501    0 -0.00000000000E+00 -0.00000000000E+00 -0.80140394887E+01  0.80140394887E+01  0.00000000000E+00 0.  1.
          2    1    1    2  501    0 -0.26674365485E+02 -0.12926537571E+02  0.36905508402E+03  0.37024353092E+03  0.00000000000E+00 0.  1.
          1    1    1    2  502    0  0.26674365485E+02  0.12926537571E+02  0.22183921542E+02  0.37023553619E+02  0.00000000000E+00 0.  1.
</event>
<event>
 4    1  0.3837333E+003  0.2125492E+02  0.7546771E-02  0.1515656E+00
          2   -1    0    0  502    0  0.00000000000E+00  0.00000000000E+00  0.15890402158E+01  0.15890402158E+01  0.00000000000E+00 0.  1.
          1   -1    0    0  501    0 -0.00000000000E+00 -0.00000000000E+00 -0.70024745315E+03  0.70024745315E+03  0.00000000000E+00 0.  1.
          2    1    1    2  501    0 -0.13049812795E+02 -0.16777190710E+02 -0.78873022011E+02  0.81686751332E+02  0.00000000000E+00 0.  1.
          1    1    1    2  502    0  0.13049812795E+02  0.16777190710E+02 -0.61978539093E+03  0.62014974204E+03  0.00000000000E+00 0.  1.
</event>
<event>
 4    1  0.3837333E+003  0.2060498E+02  0.7546771E-02  0.1524980E+00
          2   -1    0    0  502    0  0.00000000000E+00  0.00000000000E+00  0.21944824141E+03  0.21944824141E+03  0.00000000000E+00 0. -1.
          1   -1    0    0  501    0 -0.00000000000E+00 -0.00000000000E+00 -0.16582263667E+02  0.16582263667E+02  0.00000000000E+00 0.  1.
          2    1    1    2  501    0 -0.49016930574E+01  0.20013462410E+02  0.21235021828E+03  0.21334755794E+03  0.00000000000E+00 0. -1.
          1    1    1    2  502    0  0.49016930574E+01 -0.20013462410E+02 -0.94842405385E+01  0.22682947142E+02  0.00000000000E+00 0.  1.
</event>
<event>
 4    1  0.3837333E+003  0.2398220E+02  0.7546771E-02  0.1480520E+00
          2   -1    0    0  502    0  0.00000000000E+00  0.00000000000E+00  0.17160980025E+04  0.17160980025E+04  0.00000000000E+00 0.  1.
          1   -1    0    0  501    0 -0.00000000000E+00 -0.00000000000E+00 -0.87055672605E+00  0.87055672605E+00  0.00000000000E+00 0. -1.
          2    1    1    2  501    0 -0.59568895624E+01 -0.23230610315E+02  0.15308643612E+04  0.15310521997E+04  0.00000000000E+00 0.  1.
          1    1    1    2  502    0  0.59568895624E+01  0.23230610315E+02  0.18436308458E+03  0.18591635954E+03  0.00000000000E+00 0. -1.
</event>
<event>
 4    1  0.3837333E+003  0.2071163E+02  0.7546771E-02  0.1523422E+00
          2   -1    0    0  502    0  0.00000000000E+00  0.00000000000E+00  0.17130706297E+02  0.17130706297E+02  0.00000000000E+00 0. -1.
          1   -1    0    0  501    0 -0.00000000000E+00 -0.00000000000E+00 -0.71465123800E+03  0.71465123800E+03  0.00000000000E+00 0. -1.
          2    1    1    2  501    0 -0.16605755993E+02  0.12378230179E+02  0.10663208381E+02  0.23295401423E+02  0.00000000000E+00 0. -1.
          1    1    1    2  502    0  0.16605755993E+02 -0.12378230179E+02 -0.70818374008E+03  0.70848654287E+03  0.00000000000E+00 0. -1.
</event>
<event>
 4    1  0.3837333E+003  0.2829082E+02  0.7546771E-02  0.1435055E+00
          2   -1    0    0  502    0  0.00000000000E+00  0.00000000000E+00  0.35496806884E+01  0.35496806884E+01  0.00000000000E+00 0. -1.
          1   -1    0    0  501    0 -0.00000000000E+00 -0.00000000000E+00 -0.32565152969E+03  0.32565152969E+03  0.00000000000E+00 0. -1.
          2    1    1    2  501    0 -0.17883742225E+02  0.21921273504E+02 -0.69758642604E+02  0.75277079420E+02  0.00000000000E+00 0. -1.
          1    1    1    2  502    0  0.17883742225E+02 -0.21921273504E+02 -0.25234320640E+03  0.25392413096E+03  0.00000000000E+00 0. -1.
</event>
<event>
 4    1  0.3837333E+003  0.2129981E+02  0.7546771E-02  0.1515027E+00
          2   -1    0    0  502    0  0.00000000000E+00  0.00000000000E+00  0.37740436366E+02  0.37740436366E+02  0.00000000000E+00 0.  1.
          1   -1    0    0  501    0 -0.00000000000E+00 -0.00000000000E+00 -0.14702652933E+02  0.14702652933E+02  0.00000000000E+00 0.  1.
          2    1    1    2  501    0  0.96491009018E+00  0.21277943700E+02  0.22717209573E+02  0.31140866242E+02  0.00000000000E+00 0.  1.
          1    1    1    2  502    0 -0.96491009018E+00 -0.21277943700E+02  0.32057386025E+00  0.21302223057E+02  0.00000000000E+00 0.  1.
</event>
<event>
 4    1  0.3837333E+003  0.2804018E+02  0.7546771E-02  0.1437430E+00
          2   -1    0    0  502    0  0.00000000000E+00  0.00000000000E+00  0.11202441851E+03  0.11202441851E+03  0.00000000000E+00 0. -1.
          1   -1    0    0  501    0 -0.00000000000E+00 -0.00000000000E+00 -0.45427897838E+02  0.45427897838E+02  0.00000000000E+00 0. -1.
          2    1    1    2  501    0 -0.27897323995E+02  0.28268188902E+01  0.10568784306E+03  0.10934428088E+03  0.00000000000E+00 0. -1.
          1    1    1    2  502    0  0.27897323995E+02 -0.28268188902E+01 -0.39091322384E+02  0.48108035470E+02  0.00000000000E+00 0. -1.
</event>
<event>
 4    1  0.3837333E+003  0.2991352E+02  0.7546771E-02  0.1420350E+00
          2   -1    0    0  502    0  0.00000000000E+00  0.00000000000E+00  0.98083546029E+03  0.98083546029E+03  0.00000000000E+00 0. -1.
          1   -1    0    0  501    0 -0.00000000000E+00 -0.00000000000E+00 -0.26686989186E+01  0.26686989186E+01  0.00000000000E+00 0.  1.
          2    1    1    2  501    0  0.12494926805E+02  0.27178948248E+02  0.88802350109E+03  0.88852718411E+03  0.00000000000E+00 0. -1.
          1    1    1    2  502    0 -0.12494926805E+02 -0.27178948248E+02  0.90143260284E+02  0.94976975095E+02  0.00000000000E+00 0.  1.
</event>
<event>
 4    1  0.3837333E+003  0.2949615E+02  0.7546771E-02  0.1424026E+00
          2   -1    0    0  502    0  0.00000000000E+00  0.00000000000E+00  0.57720689547E+02  0.57720689547E+02  0.00000000000E+00 0.  1.
          1   -1    0    0  501    0 -0.00000000000E+00 -0.00000000000E+00 -0.70292478226E+03  0.70292478226E+03  0.00000000000E+00 0. -1.
          2    1    1    2  501    0 -0.29405754644E+02 -0.23074802665E+01  0.53620917463E+02  0.61198248839E+02  0.00000000000E+00 0.  1.
          1    1    1    2  502    0  0.29405754644E+02  0.23074802665E+01 -0.69882501017E+03  0.69944722297E+03  0.00000000000E+00 0. -1.
</event>
<event>
 4    1  0.3837333E+003  0.4023966E+02  0.7546771E-02  0.1347087E+00
          2   -1    0    0  502    0  0.00000000000E+00  0.00000000000E+00  0.20916701384E+03  0.20916701384E+03  0.00000000000E+00 0.  1.
          1   -1    0    0  501    0 -0.00000000000E+00 -0.00000000000E+00 -0.19011267030E+02  0.19011267030E+02  0.00000000000E+00 0.  1.
          2    1    1    2  501    0  0.40198928226E+02  0.18100510656E+01  0.18291934286E+03  0.18729312883E+03  0.00000000000E+00 0.  1.
          1    1    1    2  502    0 -0.40198928226E+02 -0.18100510656E+01  0.72364039554E+01  0.40885152043E+02  0.00000000000E+00 0.  1.
</event>
<event>
 4    1  0.3837333E+003  0.3088699E+02  0.7546771E-02  0.1412042E+00
          2   -1    0    0  502    0  0.00000000000E+00  0.00000000000E+00  0.11154830170E+03  0.11154830170E+03  0.00000000000E+00 0. -1.
          1   -1    0    0  501    0 -0.00000000000E+00 -0.00000000000E+00 -0.10162219679E+02  0.10162219679E+02  0.00000000000E+00 0. -1.
          2    1    1    2  501    0 -0.26785364774E+02  0.15380153897E+02  0.26471965944E+02  0.40678862827E+02  0.00000000000E+00 0. -1.
          1    1    1    2  502    0  0.26785364774E+02 -0.15380153897E+02  0.74914116078E+02  0.81031658552E+02  0.00000000000E+00 0. -1.
</event>
<event>
 4    1  0.3837333E+003  0.2537154E+02  0.7546771E-02  0.1464690E+00
          2   -1    0    0  502    0  0.00000000000E+00  0.00000000000E+00  0.16164103031E+02  0.16164103031E+02  0.00000000000E+00 0.  1.
          1   -1    0    0  501    0 -0.00000000000E+00 -0.00000000000E+00 -0.55777308427E+03  0.55777308427E+03  0.00000000000E+00 0.  1.
          2    1    1    2  501    0 -0.35708438749E+01  0.25119003182E+02  0.57299521919E+01  0.26010528618E+02  0.00000000000E+00 0.  1.
          1    1    1    2  502    0  0.35708438749E+01 -0.25119003182E+02 -0.54733893343E+03  0.54792665868E+03  0.00000000000E+00 0.  1.
</event>
<event>
 4    1  0.3837333E+003  0.2047226E+02  0.7546771E-02  0.1526935E+00
          2   -1    0    0  502    0  0.00000000000E+00  0.00000000000E+00  0.72076587275E+03  0.72076587275E+03  0.00000000000E+00 0. -1.
          1   -1    0    0  501    0 -0.00000000000E+00 -0.00000000000E+00 -0.60042812288E+00  0.60042812288E+00  0.00000000000E+00 0. -1.
          2    1    1    2  501    0 -0.93611406650E+01 -0.18206645535E+02  0.29601381351E+03  0.29672089694E+03  0.00000000000E+00 0. -1.
          1    1    1    2  502    0  0.93611406650E+01  0.18206645535E+02  0.42415163112E+03  0.42464540393E+03  0.00000000000E+00 0. -1.
</event>
<event>
 4    1  0.3837333E+003  0.2406362E+02  0.7546771E-02  0.1479557E+00
          2   -1    0    0  502    0  0.00000000000E+00  0.00000000000E+00  0.27738279276E+03  0.27738279276E+03  0.00000000000E+00 0.  1.
          1   -1    0    0  501    0 -0.00000000000E+00 -0.00000000000E+00 -0.40869676613E+01  0.40869676613E+01  0.00000000000E+00 0.  1.
          2    1    1    2  501    0  0.65412647419E+00 -0.24054730633E+02  0.23508300948E+03  0.23631140323E+03  0.00000000000E+00 0.  1.
          1    1    1    2  502    0 -0.65412647419E+00  0.24054730633E+02  0.38212815618E+02  0.45158357197E+02  0.00000000000E+00 0.  1.
</event>
<event>
 4    1  0.3837333E+003  0.2084301E+02  0.7546771E-02  0.1521518E+00
          2   -1    0    0  502    0  0.00000000000E+00  0.00000000000E+00  0.32537148101E+03  0.32537148101E+03  0.00000000000E+00 0.  1.
          1   -1    0    0  501    0 -0.00000000000E+00 -0.00000000000E+00 -0.95903229971E+01  0.95903229971E+01  0.00000000000E+00 0.  1.
          2    1    1    2  501    0 -0.88451042519E+01  0.18873138068E+02  0.31327620283E+03  0.31396880493E+03  0.00000000000E+00 0.  1.
          1    1    1    2  502    0  0.88451042519E+01 -0.18873138068E+02  0.25049551824E+01  0.20992999076E+02  0.00000000000E+00 0.  1.
</event>
<event>
 4    1  0.3837333E+003  0.3639921E+02  0.7546771E-02  0.1370984E+00
          2   -1    0    0  502    0  0.00000000000E+00  0.00000000000E+00  0.98530883913E+03  0.98530883913E+03  0.00000000000E+00 0. -1.
          1   -1    0    0  501    0 -0.00000000000E+00 -0.00000000000E+00 -0.30176777866E+02  0.30176777866E+02  0.00000000000E+00 0.  1.
          2    1    1    2  501    0 -0.33805880838E+02  0.13493134060E+02  0.97386759515E+03  0.97454758484E+03  0.00000000000E+00 0. -1.
          1    1    1    2  502    0  0.33805880838E+02 -0.13493134060E+02 -0.18735533888E+02  0.40938032147E+02  0.00000000000E+00 0.  1.
</event>
<event>
 4    1  0.3837333E+003  0.3478656E+02  0.7546771E-02  0.1382070E+00
          2   -1    0    0  502    0  0.00000000000E+00  0.00000000000E+00  0.12573385869E+04  0.12573385869E+04  0.00000000000E+00 0.  1.
          1   -1    0    0  501    0 -0.00000000000E+00 -0.00000000000E+00 -0.96357145914E+00  0.96357145914E+00  0.00000000000E+00 0.  1.
          2    1    1    2  501    0  0.34526082624E+02  0.42490618855E+01  0.64980754171E+03  0.65073800118E+03  0.00000000000E+00 0.  1.
          1    1    1    2  502    0 -0.34526082624E+02 -0.42490618855E+01  0.60656747368E+03  0.60756415714E+03  0.00000000000E+00 0.  1.
</event>
<event>
 4    1  0.3837333E+003  0.3881629E+02  0.7546771E-02  0.1355565E+00
          2   -1    0    0  502    0  0.00000000000E+00  0.00000000000E+00  0.15471106118E+03  0.15471106118E+03  0.00000000000E+00 0. -1.
          1   -1    0    0  501    0 -0.00000000000E+00 -0.00000000000E+00 -0.40416532898E+03  0.40416532898E+03  0.00000000000E+00 0.  1.
          2    1    1    2  501    0 -0.35476162739E+02  0.15752647162E+02  0.15132384071E+03  0.15622294576E+03  0.00000000000E+00 0. -1.
          1    1    1    2  502    0  0.35476162739E+02 -0.15752647162E+02 -0.40077810852E+03  0.40265344439E+03  0.00000000000E+00 0.  1.
</event>
<event>
 4    1  0.3837333E+003  0.2035621E+02  0.7546771E-02  0.1528658E+00
          2   -1    0    0  502    0  0.00000000000E+00  0.00000000000E+00  0.14152325827E+02  0.14152325827E+02  0.00000000000E+00 0.  1.
          1   -1    0    0  501    0 -0.00000000000E+00 -0.00000000000E+00 -0.30717590461E+03  0.30717590461E+03  0.00000000000E+00 0. -1.
          2    1    1    2  501    0  0.14343041492E+02 -0.14444808094E+02  0.63034446677E+01  0.21309827188E+02  0.00000000000E+00 0.  1.
          1    1    1    2  502    0 -0.14343041492E+02  0.14444808094E+02 -0.29932702345E+03  0.30001840324E+03  0.00000000000E+00 0. -1.
</event>
<event>
 4    1  0.3837333E+003  0.3289849E+02  0.7546771E-02  0.1395972E+00
          2   -1    0    0  502    0  0.00000000000E+00  0.00000000000E+00  0.18303052083E+04  0.18303052083E+04  0.00000000000E+00 0. -1.
          1   -1    0    0  501    0 -0.00000000000E+00 -0.00000000000E+00 -0.14462053965E+01  0.14462053965E+01  0.00000000000E+00 0.  1.
          2    1    1    2  501    0  0.29923460658E+02  0.13671035962E+02  0.16185929326E+04  0.16189272350E+04  0.00000000000E+00 0. -1.
          1    1    1    2  502    0 -0.29923460658E+02 -0.13671035962E+02  0.21026607027E+03  0.21282417868E+03  0.00000000000E+00 0.  1.
</event>
<event>
 4    1  0.3837333E+003  0.2299149E+02  0.7546771E-02  0.1492605E+00
          2   -1    0    0  502    0  0.00000000000E+00  0.00000000000E+00  0.12243476420E+02  0.12243476420E+02  0.00000000000E+00 0.  1.
          1   -1    0    0  501    0 -0.00000000000E+00 -0.00000000000E+00 -0.54609571784E+02  0.54609571784E+02  0.00000000000E+00 0. -1.
          2    1    1    2  501    0 -0.12596960504E+02  0.19233434785E+02 -0.58872379438E+01  0.23733267752E+02  0.00000000000E+00 0.  1.
          1    1    1    2  502    0  0.12596960504E+02 -0.19233434785E+02 -0.36478857420E+02  0.43119780452E+02  0.00000000000E+00 0. -1.
</event>
<event>
 4    1  0.3837333E+003  0.2047149E+02  0.7546771E-02  0.1526946E+00
          2   -1    0    0  502    0  0.00000000000E+00  0.00000000000E+00  0.52905314546E+03  0.52905314546E+03  0.00000000000E+00 0.  1.
          1   -1    0    0  501    0 -0.00000000000E+00 -0.00000000000E+00 -0.12222912721E+03  0.12222912721E+03  0.00000000000E+00 0. -1.
          2    1    1    2  501    0  0.17952597766E+02 -0.98380014149E+01  0.52799623145E+03  0.52839294324E+03  0.00000000000E+00 0.  1.
          1    1    1    2  502    0 -0.17952597766E+02  0.98380014149E+01 -0.12117221320E+03  0.12288932944E+03  0.00000000000E+00 0. -1.
</event>
<event>
 4    1  0.3837333E+003  0.2361508E+02  0.7546771E-02  0.1484916E+00
          2   -1    0    0  502    0  0.00000000000E+00  0.00000000000E+00  0.10299946835E+03  0.10299946835E+03  0.00000000000E+00 0. -1.
          1   -1    0    0  501    0 -0.00000000000E+00 -0.00000000000E+00 -0.60085459929E+01  0.60085459929E+01  0.00000000000E+00 0. -1.
          2    1    1    2  501    0  0.83174946350E+00 -0.23600431428E+02  0.65635793731E+02  0.69754781840E+02  0.00000000000E+00 0. -1.
          1    1    1    2  502    0 -0.83174946350E+00  0.23600431428E+02  0.31355128624E+02  0.39253232502E+02  0.00000000000E+00 0. -1.
</event>
<event>
 4    1  0.3837333E+003  0.2515594E+02  0.7546771E-02  0.1467066E+00
          2   -1    0    0  502    0  0.00000000000E+00  0.00000000000E+00  0.74031834506E+02  0.74031834506E+02  0.00000000000E+00 0. -1.
          1   -1    0    0  501    0 -0.00000000000E+00 -0.00000000000E+00 -0.98790411183E+02  0.98790411183E+02  0.00000000000E+00 0. -1.
          2    1    1    2  501    0 -0.21495317874E+02  0.13067995705E+02  0.70208852971E+02  0.74579516207E+02  0.00000000000E+00 0. -1.
          1    1    1    2  502    0  0.21495317874E+02 -0.13067995705E+02 -0.94967429647E+02  0.98242729482E+02  0.00000000000E+00 0. -1.
</event>
<event>
 4    1  0.3837333E+003  0.2277786E+02  0.7546771E-02  0.1495307E+00
          2   -1    0    0  502    0  0.00000000000E+00  0.00000000000E+00  0.68891290010E+00  0.68891290010E+00  0.00000000000E+00 0. -1.
          1   -1    0    0  501    0 -0.00000000000E+00 -0.00000000000E+00 -0.94651446945E+03  0.94651446945E+03  0.00000000000E+00 0. -1.
          2    1    1    2  501    0 -0.16208012103E+02  0.16004105028E+02 -0.25883252461E+03  0.25983284402E+03  0.00000000000E+00 0. -1.
          1    1    1    2  502    0  0.16208012103E+02 -0.16004105028E+02 -0.68699303194E+03  0.68737053833E+03  0.00000000000E+00 0. -1.
</event>
<event>
 4    1  0.3837333E+003  0.5737074E+02  0.7546771E-02  0.1269037E+00
          2   -1    0    0  502    0  0.00000000000E+00  0.00000000000E+00  0.14349924094E+04  0.14349924094E+04  0.00000000000E+00 0. -1.
          1   -1    0    0  501    0 -0.00000000000E+00 -0.00000000000E+00 -0.28106795575E+02  0.28106795575E+02  0.00000000000E+00 0.  1.
          2    1    1    2  501    0 -0.36249735542E+02 -0.44467505358E+02  0.14045079729E+04  0.14056792125E+04  0.00000000000E+00 0. -1.
          1    1    1    2  502    0  0.36249735542E+02  0.44467505358E+02  0.23776408691E+01  0.57419992474E+02  0.00000000000E+00 0.  1.
</event>
<event>
 4    1  0.3837333E+003  0.2895968E+02  0.7546771E-02  0.1428857E+00
          2   -1    0    0  502    0  0.00000000000E+00  0.00000000000E+00  0.12996692670E+04  0.12996692670E+04  0.00000000000E+00 0. -1.
          1   -1    0    0  501    0 -0.00000000000E+00 -0.00000000000E+00 -0.33592899998E+02  0.33592899998E+02  0.00000000000E+00 0.  1.
          2    1    1    2  501    0  0.18741783526E+02  0.22077336263E+02  0.12932355255E+04  0.12935597349E+04  0.00000000000E+00 0. -1.
          1    1    1    2  502    0 -0.18741783526E+02 -0.22077336263E+02 -0.27159158509E+02  0.39702432131E+02  0.00000000000E+00 0.  1.
</event>
<event>
 4    1  0.3837333E+003  0.2447165E+02  0.7546771E-02  0.1474802E+00
          2   -1    0    0  502    0  0.00000000000E+00  0.00000000000E+00  0.16912633592E+04  0.16912633592E+04  0.00000000000E+00 0. -1.
          1   -1    0    0  501    0 -0.00000000000E+00 -0.00000000000E+00 -0.86061734253E+00  0.86061734253E+00  0.00000000000E+00 0. -1.
          2    1    1    2  501    0 -0.10304531027E+02 -0.22196361024E+02  0.14942810094E+04  0.14944813806E+04  0.00000000000E+00 0. -1.
          1    1    1    2  502    0  0.10304531027E+02  0.22196361024E+02  0.19612173241E+03  0.19764259593E+03  0.00000000000E+00 0. -1.
</event>
<event>
 4    1  0.3837333E+003  0.4292359E+02  0.7546771E-02  0.1332156E+00
          2   -1    0    0  502    0  0.00000000000E+00  0.00000000000E+00  0.20904311284E+04  0.20904311284E+04  0.00000000000E+00 0.  1.
          1   -1    0    0  501    0 -0.00000000000E+00 -0.00000000000E+00 -0.14479423103E+01  0.14479423103E+01  0.00000000000E+00 0.  1.
          2    1    1    2  501    0  0.32758836339E+02 -0.27736142208E+02  0.16987663304E+04  0.16993085301E+04  0.00000000000E+00 0.  1.
          1    1    1    2  502    0 -0.32758836339E+02  0.27736142208E+02  0.39021685562E+03  0.39257054061E+03  0.00000000000E+00 0.  1.
</event>
<event>
 4    1  0.3837333E+003  0.2849367E+02  0.7546771E-02  0.1433155E+00
          2   -1    0    0  502    0  0.00000000000E+00  0.00000000000E+00  0.16036771900E+04  0.16036771900E+04  0.00000000000E+00 0.  1.
          1   -1    0    0  501    0 -0.00000000000E+00 -0.00000000000E+00 -0.53029522162E+02  0.53029522162E+02  0.00000000000E+00 0. -1.
          2    1    1    2  501    0 -0.43586589695E+01  0.28158321866E+02  0.15997136075E+04  0.15999673482E+04  0.00000000000E+00 0.  1.
          1    1    1    2  502    0  0.43586589695E+01 -0.28158321866E+02 -0.49065939661E+02  0.56739364053E+02  0.00000000000E+00 0. -1.
</event>
<event>
 4    1  0.3837333E+003  0.2611386E+02  0.7546771E-02  0.1456718E+00
          2   -1    0    0  502    0  0.00000000000E+00  0.00000000000E+00  0.98379870114E+01  0.98379870114E+01  0.00000000000E+00 0. -1.
          1   -1    0    0  501    0 -0.00000000000E+00 -0.00000000000E+00 -0.10912859846E+04  0.10912859846E+04  0.00000000000E+00 0.  1.
          2    1    1    2  501    0 -0.25974547598E+02 -0.26938398351E+01 -0.79341800825E+01  0.27292583417E+02  0.00000000000E+00 0. -1.
          1    1    1    2  502    0  0.25974547598E+02  0.26938398351E+01 -0.10735138175E+04  0.10738313882E+04  0.00000000000E+00 0.  1.
</event>
<event>
 4    1  0.3837333E+003  0.3008692E+02  0.7546771E-02  0.1418843E+00
          2   -1    0    0  502    0  0.00000000000E+00  0.00000000000E+00  0.40623122617E+02  0.40623122617E+02  0.00000000000E+00 0. -1.
          1   -1    0    0  501    0 -0.00000000000E+00 -0.00000000000E+00 -0.61962619750E+02  0.61962619750E+02  0.00000000000E+00 0. -1.
          2    1    1    2  501    0 -0.14491742308E+02  0.26366879007E+02  0.30376499811E+02  0.42754586239E+02  0.00000000000E+00 0. -1.
          1    1    1    2  502    0  0.14491742308E+02 -0.26366879007E+02 -0.51715996945E+02  0.59831156128E+02  0.00000000000E+00 0. -1.
</event>
<event>
 4    1  0.3837333E+003  0.2667593E+02  0.7546771E-02  0.1450891E+00
          2   -1    0    0  502    0  0.00000000000E+00  0.00000000000E+00  0.56402762482E+00  0.56402762482E+00  0.00000000000E+00 0. -1.
          1   -1    0    0  501    0 -0.00000000000E+00 -0.00000000000E+00 -0.21035743114E+04  0.21035743114E+04  0.00000000000E+00 0. -1.
          2    1    1    2  501    0  0.19634228643E+01 -0.26603570214E+02 -0.38592231609E+03  0.38684317110E+03  0.00000000000E+00 0. -1.
          1    1    1    2  502    0 -0.19634228643E+01  0.26603570214E+02 -0.17170879677E+04  0.17172951679E+04  0.00000000000E+00 0. -1.
</event>
<event>
 4    1  0.3837333E+003  0.2468224E+02  0.7546771E-02  0.1472390E+00
          2   -1    0    0  502    0  0.00000000000E+00  0.00000000000E+00  0.39412505535E+03  0.39412505535E+03  0.00000000000E+00 0.  1.
          1   -1    0    0  501    0 -0.00000000000E+00 -0.00000000000E+00 -0.88621952956E+03  0.88621952956E+03  0.00000000000E+00 0. -1.
          2    1    1    2  501    0  0.19434116176E+02  0.15216046479E+02  0.39356652068E+03  0.39433972555E+03  0.00000000000E+00 0.  1.
          1    1    1    2  502    0 -0.19434116176E+02 -0.15216046479E+02 -0.88566099489E+03  0.88600485936E+03  0.00000000000E+00 0. -1.
</event>
<event>
 4    1  0.3837333E+003  0.2237406E+02  0.7546771E-02  0.1500511E+00
          2   -1    0    0  502    0  0.00000000000E+00  0.00000000000E+00  0.96602816625E+01  0.96602816625E+01  0.00000000000E+00 0. -1.
          1   -1    0    0  501    0 -0.00000000000E+00 -0.00000000000E+00 -0.69015714354E+03  0.69015714354E+03  0.00000000000E+00 0. -1.
          2    1    1    2  501    0 -0.21664884002E+02  0.55884905835E+01 -0.37324232580E+01  0.22683240712E+02  0.00000000000E+00 0. -1.
          1    1    1    2  502    0  0.21664884002E+02 -0.55884905835E+01 -0.67676443862E+03  0.67713418449E+03  0.00000000000E+00 0. -1.
</event>
<event>
 4    1  0.3837333E+003  0.2037076E+02  0.7546771E-02  0.1528441E+00
          2   -1    0    0  502    0  0.00000000000E+00  0.00000000000E+00  0.34087566618E+01  0.34087566618E+01  0.00000000000E+00 0. -1.
          1   -1    0    0  501    0 -0.00000000000E+00 -0.00000000000E+00 -0.13150222918E+04  0.13150222918E+04  0.00000000000E+00 0. -1.
          2    1    1    2  501    0  0.18003856590E+02 -0.95304280816E+01 -0.27844974710E+02  0.34500877208E+02  0.00000000000E+00 0. -1.
          1    1    1    2  502    0 -0.18003856590E+02  0.95304280816E+01 -0.12837685604E+04  0.12839301713E+04  0.00000000000E+00 0. -1.
</event>
<event>
 4    1  0.3837333E+003  0.2128661E+02  0.7546771E-02  0.1515212E+00
          2   -1    0    0  502    0  0.00000000000E+00  0.00000000000E+00  0.10368427436E+04  0.10368427436E+04  0.00000000000E+00 0.  1.
          1   -1    0    0  501    0 -0.00000000000E+00 -0.00000000000E+00 -0.60388512931E+00  0.60388512931E+00  0.00000000000E+00 0.  1.
          2    1    1    2  501    0  0.19713370658E+02  0.80313572429E+01  0.79079301499E+03  0.79107946013E+03  0.00000000000E+00 0.  1.
          1    1    1    2  502    0 -0.19713370658E+02 -0.80313572429E+01  0.24544584344E+03  0.24636716856E+03  0.00000000000E+00 0.  1.
</event>
<event>
 4    1  0.3837333E+003  0.2243449E+02  0.7546771E-02  0.1499724E+00
          2   -1    0    0  502    0  0.00000000000E+00  0.00000000000E+00  0.15100298787E+01  0.15100298787E+01  0.00000000000E+00 0. -1.
          1   -1    0    0  501    0 -0.00000000000E+00 -0.00000000000E+00 -0.11871732510E+04  0.11871732510E+04  0.00000000000E+00 0.  1.
          2    1    1    2  501    0 -0.20155471319E+02  0.98520751534E+01 -0.88781694849E+02  0.91572352538E+02  0.00000000000E+00 0. -1.
          1    1    1    2  502    0  0.20155471319E+02 -0.98520751534E+01 -0.10968815263E+04  0.10971109284E+04  0.00000000000E+00 0.  1.
</event>
<event>
 4    1  0.3837333E+003  0.2169657E+02  0.7546771E-02  0.1509548E+00
          2   -1    0    0  502    0  0.00000000000E+00  0.00000000000E+00  0.71269441170E+01  0.71269441170E+01  0.00000000000E+00 0.  1.
          1   -1    0    0  501    0 -0.00000000000E+00 -0.00000000000E+00 -0.34922184343E+03  0.34922184343E+03  0.00000000000E+00 0. -1.
          2    1    1    2  501    0  0.19420748402E+02 -0.96734631232E+01 -0.10605140891E+02  0.24149748873E+02  0.00000000000E+00 0.  1.
          1    1    1    2  502    0 -0.19420748402E+02  0.96734631232E+01 -0.33148975842E+03  0.33219903867E+03  0.00000000000E+00 0. -1.
</event>
<event>
 4    1  0.3837333E+003  0.3203357E+02  0.7546771E-02  0.1402711E+00
          2   -1    0    0  502    0  0.00000000000E+00  0.00000000000E+00  0.22756765639E+03  0.22756765639E+03  0.00000000000E+00 0.  1.
          1   -1    0    0  501    0 -0.00000000000E+00 -0.00000000000E+00 -0.18162179845E+04  0.18162179845E+04  0.00000000000E+00 0. -1.
          2    1    1    2  501    0  0.30797727172E+02 -0.88119049344E+01  0.22629831815E+03  0.22855432278E+03  0.00000000000E+00 0.  1.
          1    1    1    2  502    0 -0.30797727172E+02  0.88119049344E+01 -0.18149486462E+04  0.18152313181E+04  0.00000000000E+00 0. -1.
</event>
<event>
 4    1  0.3837333E+003  0.2194661E+02  0.7546771E-02  0.1506167E+00
          2   -1    0    0  502    0  0.00000000000E+00  0.00000000000E+00  0.13567278297E+04  0.13567278297E+04  0.00000000000E+00 0. -1.
          1   -1    0    0  501    0 -0.00000000000E+00 -0.00000000000E+00 -0.86407045495E+01  0.86407045495E+01  0.00000000000E+00 0. -1.
          2    1    1    2  501    0  0.79296241677E+01  0.20463983082E+02  0.13425563905E+04  0.13427357578E+04  0.00000000000E+00 0. -1.
          1    1    1    2  502    0 -0.79296241677E+01 -0.20463983082E+02  0.55307345912E+01  0.22632776412E+02  0.00000000000E+00 0. -1.
</event>
<event>
 4    1  0.3837333E+003  0.3683548E+02  0.7546771E-02  0.1368099E+00
          2   -1    0    0  502    0  0.00000000000E+00  0.00000000000E+00  0.96989227776E+03  0.96989227776E+03  0.00000000000E+00 0.  1.
          1   -1    0    0  501    0 -0.00000000000E+00 -0.00000000000E+00 -0.16150782603E+01  0.16150782603E+01  0.00000000000E+00 0.  1.
          2    1    1    2  501    0 -0.14292811363E+02 -0.33949477717E+02  0.30645241804E+03  0.30865828357E+03  0.00000000000E+00 0.  1.
          1    1    1    2  502    0  0.14292811363E+02  0.33949477717E+02  0.66182478146E+03  0.66284907245E+03  0.00000000000E+00 0.  1.
</event>
<event>
 4    1  0.3837333E+003  0.2719456E+02  0.7546771E-02  0.1445663E+00
          2   -1    0    0  502    0  0.00000000000E+00  0.00000000000E+00  0.21401300486E+03  0.21401300486E+03  0.00000000000E+00 0.  1.
          1   -1    0    0  501    0 -0.00000000000E+00 -0.00000000000E+00 -0.56391608067E+03  0.56391608067E+03  0.00000000000E+00 0. -1.
          2    1    1    2  501    0  0.23546200554E+01  0.27092433964E+02  0.21281941155E+03  0.21454986867E+03  0.00000000000E+00 0.  1.
          1    1    1    2  502    0 -0.23546200554E+01 -0.27092433964E+02 -0.56272248736E+03  0.56337921686E+03  0.00000000000E+00 0. -1.
</event>
<event>
 4    1  0.3837333E+003  0.5385410E+02  0.7546771E-02  0.1282275E+00
          2   -1    0    0  502    0  0.00000000000E+00  0.00000000000E+00  0.57269107116E+02  0.57269107116E+02  0.00000000000E+00 0.  1.
          1   -1    0    0  501    0 -0.00000000000E+00 -0.00000000000E+00 -0.81273386729E+02  0.81273386729E+02  0.00000000000E+00 0. -1.
          2    1    1    2  501    0  0.37153050814E+02  0.38986088001E+02  0.30524095886E+02  0.61903026356E+02  0.00000000000E+00 0.  1.
          1    1    1    2  502    0 -0.37153050814E+02 -0.38986088001E+02 -0.54528375499E+02  0.76639467489E+02  0.00000000000E+00 0. -1.
</event>
<event>
 4    1  0.3837333E+003  0.2889732E+02  0.7546771E-02  0.1429427E+00
          2   -1    0    0  502    0  0.00000000000E+00  0.00000000000E+00  0.16183358630E+04  0.16183358630E+04  0.00000000000E+00 0. -1.
          1   -1    0    0  501    0 -0.00000000000E+00 -0.00000000000E+00 -0.28104642838E+01  0.28104642838E+01  0.00000000000E+00 0. -1.
          2    1    1    2  501    0 -0.14913482745E+02 -0.24751624837E+02  0.15401557440E+04  0.15404268144E+04  0.00000000000E+00 0. -1.
          1    1    1    2  502    0  0.14913482745E+02  0.24751624837E+02  0.75369654671E+02  0.80719512789E+02  0.00000000000E+00 0. -1.
</event>
<event>
 4    1  0.3837333E+003  0.3525049E+02  0.7546771E-02  0.1378811E+00
          2   -1    0    0  502    0  0.00000000000E+00  0.00000000000E+00  0.42073353964E+03  0.42073353964E+03  0.00000000000E+00 0. -1.
          1   -1    0    0  501    0 -0.00000000000E+00 -0.00000000000E+00 -0.38178715247E+02  0.38178715247E+02  0.00000000000E+00 0. -1.
          2    1    1    2  501    0  0.87236155768E+01 -0.34153999601E+02  0.41167985777E+03  0.41318628057E+03  0.00000000000E+00 0. -1.
          1    1    1    2  502    0 -0.87236155768E+01  0.34153999601E+02 -0.29125033381E+02  0.45725974314E+02  0.00000000000E+00 0. -1.
</event>
<event>
 4    1  0.3837333E+003  0.3365959E+02  0.7546771E-02  0.1390240E+00
          2   -1    0    0  502    0  0.00000000000E+00  0.00000000000E+00  0.65471277224E+02  0.65471277224E+02  0.00000000000E+00 0. -1.
          1   -1    0    0  501    0 -0.00000000000E+00 -0.00000000000E+00 -0.59344983498E+02  0.59344983498E+02  0.00000000000E+00 0. -1.
          2    1    1    2  501    0  0.15888072951E+02  0.29673845847E+02  0.55590004096E+02  0.64986279666E+02  0.00000000000E+00 0. -1.
          1    1    1    2  502    0 -0.15888072951E+02 -0.29673845847E+02 -0.49463710370E+02  0.59829981055E+02  0.00000000000E+00 0. -1.
</event>
<event>
 4    1  0.3837333E+003  0.2742834E+02  0.7546771E-02  0.1443352E+00
          2   -1    0    0  502    0  0.00000000000E+00  0.00000000000E+00  0.10063584436E+04  0.10063584436E+04  0.00000000000E+00 0. -1.
          1   -1    0    0  501    0 -0.00000000000E+00 -0.00000000000E+00 -0.20920617909E+01  0.20920617909E+01  0.00000000000E+00 0.  1.
          2    1    1    2  501    0 -0.14695883079E+02 -0.23159120362E+02  0.90635333071E+03  0.90676825811E+03  0.00000000000E+00 0. -1.
          1    1    1    2  502    0  0.14695883079E+02  0.23159120362E+02  0.97913051074E+02  0.10168224725E+03  0.00000000000E+00 0.  1.
</event>
<event>
 4    1  0.3837333E+003  0.2469363E+02  0.7546771E-02  0.1472260E+00
          2   -1    0    0  502    0  0.00000000000E+00  0.00000000000E+00  0.68370540694E+00  0.68370540694E+00  0.00000000000E+00 0. -1.
          1   -1    0    0  501    0 -0.00000000000E+00 -0.00000000000E+00 -0.10556338466E+04  0.10556338466E+04  0.00000000000E+00 0. -1.
          2    1    1    2  501    0 -0.66899329029E+01 -0.23770151982E+02 -0.31944849081E+03  0.32040148815E+03  0.00000000000E+00 0. -1.
          1    1    1    2  502    0  0.66899329029E+01  0.23770151982E+02 -0.73550165037E+03  0.73591606384E+03  0.00000000000E+00 0. -1.
</event>
<event>
 4    1  0.3837333E+003  0.4066541E+02  0.7546771E-02  0.1344630E+00
          2   -1    0    0  502    0  0.00000000000E+00  0.00000000000E+00  0.48859420974E+02  0.48859420974E+02  0.00000000000E+00 0.  1.
          1   -1    0    0  501    0 -0.00000000000E+00 -0.00000000000E+00 -0.40574469795E+02  0.40574469795E+02  0.00000000000E+00 0.  1.
          2    1    1    2  501    0 -0.37354893078E+02  0.16071319765E+02  0.22352790947E+02  0.46403907367E+02  0.00000000000E+00 0.  1.
          1    1    1    2  502    0  0.37354893078E+02 -0.16071319765E+02 -0.14067839768E+02  0.43029983402E+02  0.00000000000E+00 0.  1.
</event>
<event>
 4    1  0.3837333E+003  0.2475943E+02  0.7546771E-02  0.1471513E+00
          2   -1    0    0  502    0  0.00000000000E+00  0.00000000000E+00  0.13920402599E+02  0.13920402599E+02  0.00000000000E+00 0.  1.
          1   -1    0    0  501    0 -0.00000000000E+00 -0.00000000000E+00 -0.59901923175E+02  0.59901923175E+02  0.00000000000E+00 0.  1.
          2    1    1    2  501    0  0.24734744371E+02  0.11053500763E+01 -0.39957295538E+01  0.25079777362E+02  0.00000000000E+00 0.  1.
          1    1    1    2  502    0 -0.24734744371E+02 -0.11053500763E+01 -0.41985791023E+02  0.48742548412E+02  0.00000000000E+00 0.  1.
</event>
<event>
 4    1  0.3837333E+003  0.4060584E+02  0.7546771E-02  0.1344972E+00
          2   -1    0    0  502    0  0.00000000000E+00  0.00000000000E+00  0.18974915603E+04  0.18974915603E+04  0.00000000000E+00 0.  1.
          1   -1    0    0  501    0 -0.00000000000E+00 -0.00000000000E+00 -0.13109002048E+02  0.13109002048E+02  0.00000000000E+00 0. -1.
          2    1    1    2  501    0  0.31393400591E+02  0.25754393955E+02  0.18652867858E+04  0.18657287122E+04  0.00000000000E+00 0.  1.
          1    1    1    2  502    0 -0.31393400591E+02 -0.25754393955E+02  0.19095772496E+02  0.44871850150E+02  0.00000000000E+00 0. -1.
</event>
<event>
 4    1  0.3837333E+003  0.3584206E+02  0.7546771E-02  0.1374738E+00
          2   -1    0    0  502    0  0.00000000000E+00  0.00000000000E+00  0.46913389645E+03  0.46913389645E+03  0.00000000000E+00 0.  1.
          1   -1    0    0  501    0 -0.00000000000E+00 -0.00000000000E+00 -0.48048272627E+02  0.48048272627E+02  0.00000000000E+00 0. -1.
          2    1    1    2  501    0  0.24939019724E+02 -0.25742929877E+02  0.46165703679E+03  0.46304629656E+03  0.00000000000E+00 0.  1.
          1    1    1    2  502    0 -0.24939019724E+02  0.25742929877E+02 -0.40571412962E+02  0.54135872517E+02  0.00000000000E+00 0. -1.
</event>
<event>
 4    1  0.3837333E+003  0.2102395E+02  0.7546771E-02  0.1518923E+00
          2   -1    0    0  502    0  0.00000000000E+00  0.00000000000E+00  0.19973643846E+04  0.19973643846E+04  0.00000000000E+00 0. -1.
          1   -1    0    0  501    0 -0.00000000000E+00 -0.00000000000E+00 -0.25173428378E+00  0.25173428378E+00  0.00000000000E+00 0. -1.
          2    1    1    2  501    0 -0.14667277922E+02 -0.15062452095E+02  0.13458756522E+04  0.13460398500E+04  0.00000000000E+00 0. -1.
          1    1    1    2  502    0  0.14667277922E+02  0.15062452095E+02  0.65123699807E+03  0.65157626887E+03  0.00000000000E+00 0. -1.
</event>
<event>
 4    1  0.3837333E+003  0.4079443E+02  0.7546771E-02  0.1343892E+00
          2   -1    0    0  502    0  0.00000000000E+00  0.00000000000E+00  0.44060869940E+02  0.44060869940E+02  0.00000000000E+00 0.  1.
          1   -1    0    0  501    0 -0.00000000000E+00 -0.00000000000E+00 -0.17090036177E+03  0.17090036177E+03  0.00000000000E+00 0.  1.
          2    1    1    2  501    0 -0.40407618446E+02 -0.56044708783E+01  0.31443278041E+02  0.51505974957E+02  0.00000000000E+00 0.  1.
          1    1    1    2  502    0  0.40407618446E+02  0.56044708783E+01 -0.15828276988E+03  0.16345525676E+03  0.00000000000E+00 0.  1.
</event>
<event>
 4    1  0.3837333E+003  0.2014567E+02  0.7546771E-02  0.1531820E+00
          2   -1    0    0  502    0  0.00000000000E+00  0.00000000000E+00  0.69804911665E+01  0.69804911665E+01  0.00000000000E+00 0.  1.
          1   -1    0    0  501    0 -0.00000000000E+00 -0.00000000000E+00 -0.67688262990E+02  0.67688262990E+02  0.00000000000E+00 0. -1.
          2    1    1    2  501    0 -0.11923587096E+02  0.16238110743E+02 -0.16331996149E+02  0.25934191098E+02  0.00000000000E+00 0.  1.
          1    1    1    2  502    0  0.11923587096E+02 -0.16238110743E+02 -0.44375775675E+02  0.48734563058E+02  0.00000000000E+00 0. -1.
</event>
<event>
 4    1  0.3837333E+003  0.2269849E+02  0.7546771E-02  0.1496319E+00
          2   -1    0    0  502    0  0.00000000000E+00  0.00000000000E+00  0.23304936283E+03  0.23304936283E+03  0.00000000000E+00 0. -1.
          1   -1    0    0  501    0 -0.00000000000E+00 -0.00000000000E+00 -0.44211740503E+02  0.44211740503E+02  0.00000000000E+00 0. -1.
          2    1    1    2  501    0  0.18797282833E+02  0.12723353135E+02  0.22953884372E+03  0.23065841049E+03  0.00000000000E+00 0. -1.
          1    1    1    2  502    0 -0.18797282833E+02 -0.12723353135E+02 -0.40701221391E+02  0.46602692837E+02  0.00000000000E+00 0. -1.
</event>
<event>
 4    1  0.3837333E+003  0.2445807E+02  0.7546771E-02  0.1474958E+00
          2   -1    0    0  502    0  0.00000000000E+00  0.00000000000E+00  0.60669713721E+01  0.60669713721E+01  0.00000000000E+00 0.  1.
          1   -1    0    0  501    0 -0.00000000000E+00 -0.00000000000E+00 -0.12476736122E+04  0.12476736122E+04  0.00000000000E+00 0. -1.
          2    1    1    2  501    0 -0.11565705867E+02  0.21550678734E+02 -0.19212351014E+02  0.31101635610E+02  0.00000000000E+00 0.  1.
          1    1    1    2  502    0  0.11565705867E+02 -0.21550678734E+02 -0.12223942898E+04  0.12226389480E+04  0.00000000000E+00 0. -1.
</event>
<event>
 4    1  0.3837333E+003  0.2869072E+02  0.7546771E-02  0.1431326E+00
          2   -1    0    0  502    0  0.00000000000E+00  0.00000000000E+00  0.59627274928E+01  0.59627274928E+01  0.00000000000E+00 0. -1.
          1   -1    0    0  501    0 -0.00000000000E+00 -0.00000000000E+00 -0.13817490272E+03  0.13817490272E+03  0.00000000000E+00 0. -1.
          2    1    1    2  501    0 -0.18226452241E+02  0.22157465882E+02 -0.68269502056E+02  0.74053236031E+02  0.00000000000E+00 0. -1.
          1    1    1    2  502    0  0.18226452241E+02 -0.22157465882E+02 -0.63942673174E+02  0.70084394185E+02  0.00000000000E+00 0. -1.
</event>
<event>
 4    1  0.3837333E+003  0.3357067E+02  0.7546771E-02  0.1390900E+00
          2   -1    0    0  502    0  0.00000000000E+00  0.00000000000E+00  0.19679013840E+03  0.19679013840E+03  0.00000000000E+00 0. -1.
          1   -1    0    0  501    0 -0.00000000000E+00 -0.00000000000E+00 -0.57271718674E+01  0.57271718674E+01  0.00000000000E+00 0. -1.
          2    1    1    2  501    0  0.30951361316E+02 -0.13000123176E+02  0.96276274747E+02  0.10196132134E+03  0.00000000000E+00 0. -1.
          1    1    1    2  502    0 -0.30951361316E+02  0.13000123176E+02  0.94786691788E+02  0.10055598893E+03  0.00000000000E+00 0. -1.
</event>
<event>
 4    1  0.3837333E+003  0.2210181E+02  0.7546771E-02  0.1504096E+00
          2   -1    0    0  502    0  0.00000000000E+00  0.00000000000E+00  0.64793166035E+02  0.64793166035E+02  0.00000000000E+00 0.  1.
          1   -1    0    0  501    0 -0.00000000000E+00 -0.00000000000E+00 -0.13320208400E+04  0.13320208400E+04  0.00000000000E+00 0. -1.
          2    1    1    2  501    0 -0.13144571174E+02  0.17768240738E+02  0.62813873458E+02  0.66588834117E+02  0.00000000000E+00 0.  1.
          1    1    1    2  502    0  0.13144571174E+02 -0.17768240738E+02 -0.13300415474E+04  0.13302251719E+04  0.00000000000E+00 0. -1.
</event>
<event>
 4    1  0.3837333E+003  0.2287568E+02  0.7546771E-02  0.1494065E+00
          2   -1    0    0  502    0  0.00000000000E+00  0.00000000000E+00  0.91394861572E+03  0.91394861572E+03  0.00000000000E+00 0.  1.
          1   -1    0    0  501    0 -0.00000000000E+00 -0.00000000000E+00 -0.38111808174E+01  0.38111808174E+01  0.00000000000E+00 0.  1.
          2    1    1    2  501    0  0.18427513850E+02  0.13554463002E+02  0.87807697443E+03  0.87837490274E+03  0.00000000000E+00 0.  1.
          1    1    1    2  502    0 -0.18427513850E+02 -0.13554463002E+02  0.32060460474E+02  0.39384893802E+02  0.00000000000E+00 0.  1.
</event>
<event>
 4    1  0.3837333E+003  0.2675481E+02  0.7546771E-02  0.1450087E+00
          2   -1    0    0  502    0  0.00000000000E+00  0.00000000000E+00  0.20170054758E+01  0.20170054758E+01  0.00000000000E+00 0. -1.
          1   -1    0    0  501    0 -0.00000000000E+00 -0.00000000000E+00 -0.54890924332E+03  0.54890924332E+03  0.00000000000E+00 0. -1.
          2    1    1    2  501    0  0.18104254102E+02  0.19699133741E+02 -0.10967665426E+03  0.11289281809E+03  0.00000000000E+00 0. -1.
          1    1    1    2  502    0 -0.18104254102E+02 -0.19699133741E+02 -0.43721558358E+03  0.43803343070E+03  0.00000000000E+00 0. -1.
</event>
<event>
 4    1  0.3837333E+003  0.2015613E+02  0.7546771E-02  0.1531662E+00
          2   -1    0    0  502    0  0.00000000000E+00  0.00000000000E+00  0.18729310499E+02  0.18729310499E+02  0.00000000000E+00 0.  1.
          1   -1    0    0  501    0 -0.00000000000E+00 -0.00000000000E+00 -0.12048369198E+03  0.12048369198E+03  0.00000000000E+00 0. -1.
          2    1    1    2  501    0 -0.14094753687E+02 -0.14408586065E+02  0.12152717839E+02  0.23536312047E+02  0.00000000000E+00 0.  1.
          1    1    1    2  502    0  0.14094753687E+02  0.14408586065E+02 -0.11390709932E+03  0.11567669044E+03  0.00000000000E+00 0. -1.
</event>
<event>
 4    1  0.3837333E+003  0.3515154E+02  0.7546771E-02  0.1379501E+00
          2   -1    0    0  502    0  0.00000000000E+00  0.00000000000E+00  0.42216220520E+03  0.42216220520E+03  0.00000000000E+00 0. -1.
          1   -1    0    0  501    0 -0.00000000000E+00 -0.00000000000E+00 -0.42672161117E+02  0.42672161117E+02  0.00000000000E+00 0.  1.
          2    1    1    2  501    0  0.35143695810E+02 -0.74267069584E+00  0.41404980542E+03  0.41553925480E+03  0.00000000000E+00 0. -1.
          1    1    1    2  502    0 -0.35143695810E+02  0.74267069584E+00 -0.34559761340E+02  0.49295111510E+02  0.00000000000E+00 0.  1.
</event>
<event>
 4    1  0.3837333E+003  0.4800423E+02  0.7546771E-02  0.1307065E+00
          2   -1    0    0  502    0  0.00000000000E+00  0.00000000000E+00  0.15473970287E+04  0.15473970287E+04  0.00000000000E+00 0.  1.
          1   -1    0    0  501    0 -0.00000000000E+00 -0.00000000000E+00 -0.24894145093E+02  0.24894145093E+02  0.00000000000E+00 0. -1.
          2    1    1    2  501    0  0.37168669324E+02  0.30379209320E+02  0.15235200762E+04  0.15242761656E+04  0.00000000000E+00 0.  1.
          1    1    1    2  502    0 -0.37168669324E+02 -0.30379209320E+02 -0.10171925487E+01  0.48015008268E+02  0.00000000000E+00 0. -1.
</event>
<event>
 4    1  0.3837333E+003  0.2280648E+02  0.7546771E-02  0.1494943E+00
          2   -1    0    0  502    0  0.00000000000E+00  0.00000000000E+00  0.13137839786E+03  0.13137839786E+03  0.00000000000E+00 0. -1.
          1   -1    0    0  501    0 -0.00000000000E+00 -0.00000000000E+00 -0.42597028448E+02  0.42597028448E+02  0.00000000000E+00 0. -1.
          2    1    1    2  501    0 -0.14108416758E+02 -0.17918937164E+02  0.12723741454E+03  0.12926521339E+03  0.00000000000E+00 0. -1.
          1    1    1    2  502    0  0.14108416758E+02  0.17918937164E+02 -0.38456045129E+02  0.44710212922E+02  0.00000000000E+00 0. -1.
</event>
<event>
 4    1  0.3837333E+003  0.2746022E+02  0.7546771E-02  0.1443039E+00
          2   -1    0    0  502    0  0.00000000000E+00  0.00000000000E+00  0.32104307296E+03  0.32104307296E+03  0.00000000000E+00 0.  1.
          1   -1    0    0  501    0 -0.00000000000E+00 -0.00000000000E+00 -0.46801020384E+01  0.46801020384E+01  0.00000000000E+00 0. -1.
          2    1    1    2  501    0 -0.25973899779E+02 -0.89118154105E+01  0.27312669284E+03  0.27450365073E+03  0.00000000000E+00 0.  1.
          1    1    1    2  502    0  0.25973899779E+02  0.89118154105E+01  0.43236278079E+02  0.51219524264E+02  0.00000000000E+00 0. -1.
</event>
<event>
 4    1  0.3837333E+003  0.2728275E+02  0.7546771E-02  0.1444788E+00
          2   -1    0    0  502    0  0.00000000000E+00  0.00000000000E+00  0.28200204117E+02  0.28200204117E+02  0.00000000000E+00 0.  1.
          1   -1    0    0  501    0 -0.00000000000E+00 -0.00000000000E+00 -0.78175333900E+02  0.78175333900E+02  0.00000000000E+00 0.  1.
          2    1    1    2  501    0  0.21087561202E+02 -0.17310783602E+02  0.18299557723E+02  0.32851518674E+02  0.00000000000E+00 0.  1.
          1    1    1    2  502    0 -0.21087561202E+02  0.17310783602E+02 -0.68274687506E+02  0.73524019343E+02  0.00000000000E+00 0.  1.
</event>
<event>
 4    1  0.3837333E+003  0.2510625E+02  0.7546771E-02  0.1467618E+00
          2   -1    0    0  502    0  0.00000000000E+00  0.00000000000E+00  0.57276177663E+02  0.57276177663E+02  0.00000000000E+00 0.  1.
          1   -1    0    0  501    0 -0.00000000000E+00 -0.00000000000E+00 -0.93867300540E+03  0.93867300540E+03  0.00000000000E+00 0.  1.
          2    1    1    2  501    0 -0.17197163358E+02  0.18291559505E+02  0.54348448272E+02  0.59867164675E+02  0.00000000000E+00 0.  1.
          1    1    1    2  502    0  0.17197163358E+02 -0.18291559505E+02 -0.93574527601E+03  0.93608201839E+03  0.00000000000E+00 0.  1.
</event>
<event>
 4    1  0.3837333E+003  0.2483773E+02  0.7546771E-02  0.1470627E+00
          2   -1    0    0  502    0  0.00000000000E+00  0.00000000000E+00  0.50339160765E+03  0.50339160765E+03  0.00000000000E+00 0. -1.
          1   -1    0    0  501    0 -0.00000000000E+00 -0.00000000000E+00 -0.20435652757E+01  0.20435652757E+01  0.00000000000E+00 0. -1.
          2    1    1    2  501    0 -0.51284900350E+01 -0.24302501482E+02  0.41056785700E+03  0.41131846323E+03  0.00000000000E+00 0. -1.
          1    1    1    2  502    0  0.51284900350E+01  0.24302501482E+02  0.90780185377E+02  0.94116709704E+02  0.00000000000E+00 0. -1.
</event>
<event>
 4    1  0.3837333E+003  0.6545005E+02  0.7546771E-02  0.1242361E+00
          2   -1    0    0  502    0  0.00000000000E+00  0.00000000000E+00  0.10297859639E+03  0.10297859639E+03  0.00000000000E+00 0.  1.
          1   -1    0    0  501    0 -0.00000000000E+00 -0.00000000000E+00 -0.12039144466E+03  0.12039144466E+03  0.00000000000E+00 0.  1.
          2    1    1    2  501    0  0.59710341971E+02  0.26802686782E+02  0.81646459364E+02  0.10464154664E+03  0.00000000000E+00 0.  1.
          1    1    1    2  502    0 -0.59710341971E+02 -0.26802686782E+02 -0.99059307635E+02  0.11872849442E+03  0.00000000000E+00 0.  1.
</event>
<event>
 4    1  0.3837333E+003  0.4155986E+02  0.7546771E-02  0.1339580E+00
          2   -1    0    0  502    0  0.00000000000E+00  0.00000000000E+00  0.38977862443E+02  0.38977862443E+02  0.00000000000E+00 0.  1.
          1   -1    0    0  501    0 -0.00000000000E+00 -0.00000000000E+00 -0.25768848183E+03  0.25768848183E+03  0.00000000000E+00 0.  1.
          2    1    1    2  501    0  0.19474681747E+01 -0.41514211174E+02  0.25622735354E+02  0.48823630843E+02  0.00000000000E+00 0.  1.
          1    1    1    2  502    0 -0.19474681747E+01  0.41514211174E+02 -0.24433335474E+03  0.24784271343E+03  0.00000000000E+00 0.  1.
</event>
<event>
 4    1  0.3837333E+003  0.2595971E+02  0.7546771E-02  0.1458347E+00
          2   -1    0    0  502    0  0.00000000000E+00  0.00000000000E+00  0.26193035325E+03  0.26193035325E+03  0.00000000000E+00 0. -1.
          1   -1    0    0  501    0 -0.00000000000E+00 -0.00000000000E+00 -0.16252533468E+02  0.16252533468E+02  0.00000000000E+00 0. -1.
          2    1    1    2  501    0 -0.17528686071E+02 -0.19148144926E+02  0.25044693206E+03  0.25178874492E+03  0.00000000000E+00 0. -1.
          1    1    1    2  502    0  0.17528686071E+02  0.19148144926E+02 -0.47691122768E+01  0.26394141800E+02  0.00000000000E+00 0. -1.
</event>
<event>
 4    1  0.3837333E+003  0.2399072E+02  0.7546771E-02  0.1480419E+00
          2   -1    0    0  502    0  0.00000000000E+00  0.00000000000E+00  0.10824882478E+02  0.10824882478E+02  0.00000000000E+00 0.  1.
          1   -1    0    0  501    0 -0.00000000000E+00 -0.00000000000E+00 -0.35627460945E+03  0.35627460945E+03  0.00000000000E+00 0.  1.
          2    1    1    2  501    0 -0.17050082507E+02 -0.16877476353E+02 -0.34244891440E+01  0.24233894599E+02  0.00000000000E+00 0.  1.
          1    1    1    2  502    0  0.17050082507E+02  0.16877476353E+02 -0.34202523782E+03  0.34286559733E+03  0.00000000000E+00 0.  1.
</event>
<event>
 4    1  0.3837333E+003  0.2023544E+02  0.7546771E-02  0.1530467E+00
          2   -1    0    0  502    0  0.00000000000E+00  0.00000000000E+00  0.60807706591E+01  0.60807706591E+01  0.00000000000E+00 0. -1.
          1   -1    0    0  501    0 -0.00000000000E+00 -0.00000000000E+00 -0.47869494959E+03  0.47869494959E+03  0.00000000000E+00 0.  1.
          2    1    1    2  501    0  0.19496359805E+02  0.54189452586E+01 -0.11613680344E+02  0.23331321962E+02  0.00000000000E+00 0. -1.
          1    1    1    2  502    0 -0.19496359805E+02 -0.54189452586E+01 -0.46100049859E+03  0.46144439829E+03  0.00000000000E+00 0.  1.
</event>
<event>
 4    1  0.3837333E+003  0.2070061E+02  0.7546771E-02  0.1523583E+00
          2   -1    0    0  502    0  0.00000000000E+00  0.00000000000E+00  0.15564454364E+03  0.15564454364E+03  0.00000000000E+00 0. -1.
          1   -1    0    0  501    0 -0.00000000000E+00 -0.00000000000E+00 -0.67473474285E+01  0.67473474285E+01  0.00000000000E+00 0.  1.
          2    1    1    2  501    0 -0.20117600795E+02  0.48782621249E+01  0.13692006273E+03  0.13847605887E+03  0.00000000000E+00 0. -1.
          1    1    1    2  502    0  0.20117600795E+02 -0.48782621249E+01  0.11977133480E+02  0.23915832194E+02  0.00000000000E+00 0.  1.
</event>
<event>
 4    1  0.3837333E+003  0.3462929E+02  0.7546771E-02  0.1383188E+00
          2   -1    0    0  502    0  0.00000000000E+00  0.00000000000E+00  0.19463343221E+04  0.19463343221E+04  0.00000000000E+00 0.  1.
          1   -1    0    0  501    0 -0.00000000000E+00 -0.00000000000E+00 -0.87288188305E+00  0.87288188305E+00  0.00000000000E+00 0.  1.
          2    1    1    2  501    0  0.84233511199E+01 -0.33589208593E+02  0.15007677435E+04  0.15011672151E+04  0.00000000000E+00 0.  1.
          1    1    1    2  502    0 -0.84233511199E+01  0.33589208593E+02  0.44469369673E+03  0.44603998889E+03  0.00000000000E+00 0.  1.
</event>
<event>
 4    1  0.3837333E+003  0.2901648E+02  0.7546771E-02  0.1428340E+00
          2   -1    0    0  502    0  0.00000000000E+00  0.00000000000E+00  0.11937057852E+03  0.11937057852E+03  0.00000000000E+00 0. -1.
          1   -1    0    0  501    0 -0.00000000000E+00 -0.00000000000E+00 -0.49244338966E+02  0.49244338966E+02  0.00000000000E+00 0.  1.
          2    1    1    2  501    0  0.22115309945E+02 -0.18784805955E+02  0.11309965523E+03  0.11676252773E+03  0.00000000000E+00 0. -1.
          1    1    1    2  502    0 -0.22115309945E+02  0.18784805955E+02 -0.42973415675E+02  0.51852389757E+02  0.00000000000E+00 0.  1.
</event>
<event>
 4    1  0.3837333E+003  0.2252489E+02  0.7546771E-02  0.1498552E+00
          2   -1    0    0  502    0  0.00000000000E+00  0.00000000000E+00  0.16064436225E+04  0.16064436225E+04  0.00000000000E+00 0.  1.
          1   -1    0    0  501    0 -0.00000000000E+00 -0.00000000000E+00 -0.25763070665E+02  0.25763070665E+02  0.00000000000E+00 0. -1.
          2    1    1    2  501    0  0.17823345318E+02 -0.13773134090E+02  0.16014258062E+04  0.16015842106E+04  0.00000000000E+00 0.  1.
          1    1    1    2  502    0 -0.17823345318E+02  0.13773134090E+02 -0.20745254357E+02  0.30622482579E+02  0.00000000000E+00 0. -1.
</event>
<event>
 4    1  0.3837333E+003  0.2173036E+02  0.7546771E-02  0.1509088E+00
          2   -1    0    0  502    0  0.00000000000E+00  0.00000000000E+00  0.15556932758E+03  0.15556932758E+03  0.00000000000E+00 0. -1.
          1   -1    0    0  501    0 -0.00000000000E+00 -0.00000000000E+00 -0.34228203993E+02  0.34228203993E+02  0.00000000000E+00 0.  1.
          2    1    1    2  501    0  0.21446823851E+02  0.34989081330E+01  0.15126384692E+03  0.15281675300E+03  0.00000000000E+00 0. -1.
          1    1    1    2  502    0 -0.21446823851E+02 -0.34989081330E+01 -0.29922723341E+02  0.36980778569E+02  0.00000000000E+00 0.  1.
</event>
<event>
 4    1  0.3837333E+003  0.2556148E+02  0.7546771E-02  0.1462619E+00
          2   -1    0    0  502    0  0.00000000000E+00  0.00000000000E+00  0.12621248916E+03  0.12621248916E+03  0.00000000000E+00 0.  1.
          1   -1    0    0  501    0 -0.00000000000E+00 -0.00000000000E+00 -0.88076357664E+03  0.88076357664E+03  0.00000000000E+00 0.  1.
          2    1    1    2  501    0 -0.25291787569E+02 -0.37033398727E+01  0.12473062280E+03  0.12732288682E+03  0.00000000000E+00 0.  1.
          1    1    1    2  502    0  0.25291787569E+02  0.37033398727E+01 -0.87928171029E+03  0.87965317898E+03  0.00000000000E+00 0.  1.
</event>
<event>
 4    1  0.3837333E+003  0.3364757E+02  0.7546771E-02  0.1390329E+00
          2   -1    0    0  502    0  0.00000000000E+00  0.00000000000E+00  0.23396040917E+04  0.23396040917E+04  0.00000000000E+00 0. -1.
          1   -1    0    0  501    0 -0.00000000000E+00 -0.00000000000E+00 -0.27258076999E+02  0.27258076999E+02  0.00000000000E+00 0.  1.
          2    1    1    2  501    0  0.33586198860E+02  0.20313887854E+01  0.23290523686E+04  0.23292954074E+04  0.00000000000E+00 0. -1.
          1    1    1    2  502    0 -0.33586198860E+02 -0.20313887854E+01 -0.16706353890E+02  0.37566761300E+02  0.00000000000E+00 0.  1.
</event>
<event>
 4    1  0.3837333E+003  0.3298850E+02  0.7546771E-02  0.1395284E+00
          2   -1    0    0  502    0  0.00000000000E+00  0.00000000000E+00  0.21385797599E+02  0.21385797599E+02  0.00000000000E+00 0. -1.
          1   -1    0    0  501    0 -0.00000000000E+00 -0.00000000000E+00 -0.80541302963E+02  0.80541302963E+02  0.00000000000E+00 0. -1.
          2    1    1    2  501    0  0.24908875467E+02 -0.21628436696E+02  0.13465759962E+01  0.33015975191E+02  0.00000000000E+00 0. -1.
          1    1    1    2  502    0 -0.24908875467E+02  0.21628436696E+02 -0.60502081360E+02  0.68911125371E+02  0.00000000000E+00 0. -1.
</event>
<event>
 4    1  0.3837333E+003  0.2246897E+02  0.7546771E-02  0.1499276E+00
          2   -1    0    0  502    0  0.00000000000E+00  0.00000000000E+00  0.22834191284E+03  0.22834191284E+03  0.00000000000E+00 0. -1.
          1   -1    0    0  501    0 -0.00000000000E+00 -0.00000000000E+00 -0.70088637327E+02  0.70088637327E+02  0.00000000000E+00 0. -1.
          2    1    1    2  501    0  0.70802815992E+01 -0.21324259125E+02  0.22596954292E+03  0.22708388041E+03  0.00000000000E+00 0. -1.
          1    1    1    2  502    0 -0.70802815992E+01  0.21324259125E+02 -0.67716267404E+02  0.71346669760E+02  0.00000000000E+00 0. -1.
</event>
<event>
 4    1  0.3837333E+003  0.2982228E+02  0.7546771E-02  0.1421147E+00
          2   -1    0    0  502    0  0.00000000000E+00  0.00000000000E+00  0.31522413577E+03  0.31522413577E+03  0.00000000000E+00 0.  1.
          1   -1    0    0  501    0 -0.00000000000E+00 -0.00000000000E+00 -0.35733013992E+01  0.35733013992E+01  0.00000000000E+00 0.  1.
          2    1    1    2  501    0  0.23435706063E+02 -0.18442784441E+02  0.22894518581E+03  0.23087933369E+03  0.00000000000E+00 0.  1.
          1    1    1    2  502    0 -0.23435706063E+02  0.18442784441E+02  0.82705648558E+02  0.87918103483E+02  0.00000000000E+00 0.  1.
</event>
<event>
 4    1  0.3837333E+003  0.3484990E+02  0.7546771E-02  0.1381622E+00
          2   -1    0    0  502    0  0.00000000000E+00  0.00000000000E+00  0.42528929993E+02  0.42528929993E+02  0.00000000000E+00 0.  1.
          1   -1    0    0  501    0 -0.00000000000E+00 -0.00000000000E+00 -0.23519714905E+03  0.23519714905E+03  0.00000000000E+00 0. -1.
          2    1    1    2  501    0 -0.14853825307E+02  0.31525852929E+02  0.33825901526E+02  0.48566522865E+02  0.00000000000E+00 0.  1.
          1    1    1    2  502    0  0.14853825307E+02 -0.31525852929E+02 -0.22649412058E+03  0.22915955618E+03  0.00000000000E+00 0. -1.
</event>
<event>
 4    1  0.3837333E+003  0.2691988E+02  0.7546771E-02  0.1448415E+00
          2   -1    0    0  502    0  0.00000000000E+00  0.00000000000E+00  0.30683506239E+01  0.30683506239E+01  0.00000000000E+00 0.  1.
          1   -1    0    0  501    0 -0.00000000000E+00 -0.00000000000E+00 -0.25605123726E+03  0.25605123726E+03  0.00000000000E+00 0.  1.
          2    1    1    2  501    0 -0.17939843875E+02 -0.20070900200E+02 -0.16258532333E+03  0.16479886649E+03  0.00000000000E+00 0.  1.
          1    1    1    2  502    0  0.17939843875E+02  0.20070900200E+02 -0.90397563303E+02  0.94320721394E+02  0.00000000000E+00 0.  1.
</event>
<event>
 4    1  0.3837333E+003  0.5593143E+02  0.7546771E-02  0.1274320E+00
          2   -1    0    0  502    0  0.00000000000E+00  0.00000000000E+00  0.24924945083E+01  0.24924945083E+01  0.00000000000E+00 0. -1.
          1   -1    0    0  501    0 -0.00000000000E+00 -0.00000000000E+00 -0.12627568644E+04  0.12627568644E+04  0.00000000000E+00 0. -1.
          2    1    1    2  501    0 -0.16947295809E+02  0.53302066977E+02 -0.67940534963E+03  0.68170371151E+03  0.00000000000E+00 0. -1.
          1    1    1    2  502    0  0.16947295809E+02 -0.53302066977E+02 -0.58085902023E+03  0.58354564736E+03  0.00000000000E+00 0. -1.
</event>
<event>
 4    1  0.3837333E+003  0.2610297E+02  0.7546771E-02  0.1456833E+00
          2   -1    0    0  502    0  0.00000000000E+00  0.00000000000E+00  0.16418640600E+01  0.16418640600E+01  0.00000000000E+00 0. -1.
          1   -1    0    0  501    0 -0.00000000000E+00 -0.00000000000E+00 -0.45557382729E+03  0.45557382729E+03  0.00000000000E+00 0. -1.
          2    1    1    2  501    0 -0.21361069915E+02  0.15002325310E+02 -0.15873800665E+03  0.16086988478E+03  0.00000000000E+00 0. -1.
          1    1    1    2  502    0  0.21361069915E+02 -0.15002325310E+02 -0.29519395658E+03  0.29634580657E+03  0.00000000000E+00 0. -1.
</event>
<event>
 4    1  0.3837333E+003  0.5328677E+02  0.7546771E-02  0.1284518E+00
          2   -1    0    0  502    0  0.00000000000E+00  0.00000000000E+00  0.15272514863E+03  0.15272514863E+03  0.00000000000E+00 0. -1.
          1   -1    0    0  501    0 -0.00000000000E+00 -0.00000000000E+00 -0.34916224991E+02  0.34916224991E+02  0.00000000000E+00 0.  1.
          2    1    1    2  501    0  0.29013624893E+02 -0.44695516354E+02  0.12305496444E+03  0.13409699432E+03  0.00000000000E+00 0. -1.
          1    1    1    2  502    0 -0.29013624893E+02  0.44695516354E+02 -0.52460407949E+01  0.53544379310E+02  0.00000000000E+00 0.  1.
</event>
<event>
 4    1  0.3837333E+003  0.2581452E+02  0.7546771E-02  0.1459894E+00
          2   -1    0    0  502    0  0.00000000000E+00  0.00000000000E+00  0.18052188664E+02  0.18052188664E+02  0.00000000000E+00 0. -1.
          1   -1    0    0  501    0 -0.00000000000E+00 -0.00000000000E+00 -0.10618458580E+03  0.10618458580E+03  0.00000000000E+00 0.  1.
          2    1    1    2  501    0  0.22449808542E+02  0.12743457664E+02  0.61058612551E+01  0.26526800758E+02  0.00000000000E+00 0. -1.
          1    1    1    2  502    0 -0.22449808542E+02 -0.12743457664E+02 -0.94238258387E+02  0.97709973701E+02  0.00000000000E+00 0.  1.
</event>
<event>
 4    1  0.3837333E+003  0.6159247E+02  0.7546771E-02  0.1254516E+00
          2   -1    0    0  502    0  0.00000000000E+00  0.00000000000E+00  0.43538270719E+03  0.43538270719E+03  0.00000000000E+00 0. -1.
          1   -1    0    0  501    0 -0.00000000000E+00 -0.00000000000E+00 -0.12217306397E+02  0.12217306397E+02  0.00000000000E+00 0. -1.
          2    1    1    2  501    0 -0.37066954665E+02 -0.49190138051E+02  0.91728413010E+02  0.11048859924E+03  0.00000000000E+00 0. -1.
          1    1    1    2  502    0  0.37066954665E+02  0.49190138051E+02  0.33143698779E+03  0.33711141435E+03  0.00000000000E+00 0. -1.
</event>
<event>
 4    1  0.3837333E+003  0.2577678E+02  0.7546771E-02  0.1460298E+00
          2   -1    0    0  502    0  0.00000000000E+00  0.00000000000E+00  0.17692091850E+04  0.17692091850E+04  0.00000000000E+00 0. -1.
          1   -1    0    0  501    0 -0.00000000000E+00 -0.00000000000E+00 -0.14661698382E+02  0.14661698382E+02  0.00000000000E+00 0.  1.
          2    1    1    2  501    0 -0.42596685441E+01  0.25422387657E+02  0.17577116267E+04  0.17579006244E+04  0.00000000000E+00 0. -1.
          1    1    1    2  502    0  0.42596685441E+01 -0.25422387657E+02 -0.31641400783E+01  0.25970259004E+02  0.00000000000E+00 0.  1.
</event>
<event>
 4    1  0.3837333E+003  0.2782280E+02  0.7546771E-02  0.1439514E+00
          2   -1    0    0  502    0  0.00000000000E+00  0.00000000000E+00  0.12052914929E+03  0.12052914929E+03  0.00000000000E+00 0. -1.
          1   -1    0    0  501    0 -0.00000000000E+00 -0.00000000000E+00 -0.97522651687E+01  0.97522651687E+01  0.00000000000E+00 0. -1.
          2    1    1    2  501    0 -0.44802834666E+01  0.27459698739E+02  0.93451297308E+02  0.97505143266E+02  0.00000000000E+00 0. -1.
          1    1    1    2  502    0  0.44802834666E+01 -0.27459698739E+02  0.17325586810E+02  0.32776271189E+02  0.00000000000E+00 0. -1.
</event>
<event>
 4    1  0.3837333E+003  0.2299344E+02  0.7546771E-02  0.1492581E+00
          2   -1    0    0  502    0  0.00000000000E+00  0.00000000000E+00  0.73514044773E+00  0.73514044773E+00  0.00000000000E+00 0. -1.
          1   -1    0    0  501    0 -0.00000000000E+00 -0.00000000000E+00 -0.77285520150E+03  0.77285520150E+03  0.00000000000E+00 0. -1.
          2    1    1    2  501    0 -0.31334000450E+01  0.22778937863E+02 -0.28412595819E+03  0.28505483389E+03  0.00000000000E+00 0. -1.
          1    1    1    2  502    0  0.31334000450E+01 -0.22778937863E+02 -0.48799410286E+03  0.48853550806E+03  0.00000000000E+00 0. -1.
</event>
<event>
 4    1  0.3837333E+003  0.2334360E+02  0.7546771E-02  0.1488228E+00
          2   -1    0    0  502    0  0.00000000000E+00  0.00000000000E+00  0.16634000641E+01  0.16634000641E+01  0.00000000000E+00 0.  1.
          1   -1    0    0  501    0 -0.00000000000E+00 -0.00000000000E+00 -0.92615137638E+03  0.92615137638E+03  0.00000000000E+00 0.  1.
          2    1    1    2  501    0 -0.15744571840E+02  0.17234623217E+02 -0.89301087665E+02  0.92301722833E+02  0.00000000000E+00 0.  1.
          1    1    1    2  502    0  0.15744571840E+02 -0.17234623217E+02 -0.83518688865E+03  0.83551305361E+03  0.00000000000E+00 0.  1.
</event>
<event>
 4    1  0.3837333E+003  0.2812122E+02  0.7546771E-02  0.1436659E+00
          2   -1    0    0  502    0  0.00000000000E+00  0.00000000000E+00  0.90531875374E+02  0.90531875374E+02  0.00000000000E+00 0. -1.
          1   -1    0    0  501    0 -0.00000000000E+00 -0.00000000000E+00 -0.16490433716E+04  0.16490433716E+04  0.00000000000E+00 0. -1.
          2    1    1    2  501    0 -0.26179592040E+02 -0.10268008751E+02  0.88225158826E+02  0.92598497250E+02  0.00000000000E+00 0. -1.
          1    1    1    2  502    0  0.26179592040E+02  0.10268008751E+02 -0.16467366550E+04  0.16469767497E+04  0.00000000000E+00 0. -1.
</event>
<event>
 4    1  0.3837333E+003  0.2657985E+02  0.7546771E-02  0.1451875E+00
          2   -1    0    0  502    0  0.00000000000E+00  0.00000000000E+00  0.14632990487E+04  0.14632990487E+04  0.00000000000E+00 0.  1.
          1   -1    0    0  501    0 -0.00000000000E+00 -0.00000000000E+00 -0.46434917998E+02  0.46434917998E+02  0.00000000000E+00 0. -1.
          2    1    1    2  501    0  0.13139622935E+02  0.23104951879E+02  0.14593644444E+04  0.14596064778E+04  0.00000000000E+00 0.  1.
          1    1    1    2  502    0 -0.13139622935E+02 -0.23104951879E+02 -0.42500313619E+02  0.50127488965E+02  0.00000000000E+00 0. -1.
</event>
<event>
 4    1  0.3837333E+003  0.6220789E+02  0.7546771E-02  0.1252510E+00
          2   -1    0    0  502    0  0.00000000000E+00  0.00000000000E+00  0.16624025192E+03  0.16624025192E+03  0.00000000000E+00 0. -1.
          1   -1    0    0  501    0 -0.00000000000E+00 -0.00000000000E+00 -0.54177174648E+02  0.54177174648E+02  0.00000000000E+00 0.  1.
          2    1    1    2  501    0  0.23121350716E+02  0.57751403272E+02  0.13926113281E+03  0.15252371799E+03  0.00000000000E+00 0. -1.
          1    1    1    2  502    0 -0.23121350716E+02 -0.57751403272E+02 -0.27198055540E+02  0.67893708574E+02  0.00000000000E+00 0.  1.
</event>
<event>
 4    1  0.3837333E+003  0.4414064E+02  0.7546771E-02  0.1325793E+00
          2   -1    0    0  502    0  0.00000000000E+00  0.00000000000E+00  0.14948788834E+04  0.14948788834E+04  0.00000000000E+00 0.  1.
          1   -1    0    0  501    0 -0.00000000000E+00 -0.00000000000E+00 -0.22987326972E+02  0.22987326972E+02  0.00000000000E+00 0.  1.
          2    1    1    2  501    0  0.13429257396E+02  0.42048195940E+02  0.14730491975E+04  0.14737103969E+04  0.00000000000E+00 0.  1.
          1    1    1    2  502    0 -0.13429257396E+02 -0.42048195940E+02 -0.11576409908E+01  0.44155813533E+02  0.00000000000E+00 0.  1.
</event>
<event>
 4    1  0.3837333E+003  0.3441790E+02  0.7546771E-02  0.1384702E+00
          2   -1    0    0  502    0  0.00000000000E+00  0.00000000000E+00  0.14338073080E+01  0.14338073080E+01  0.00000000000E+00 0.  1.
          1   -1    0    0  501    0 -0.00000000000E+00 -0.00000000000E+00 -0.17263574404E+04  0.17263574404E+04  0.00000000000E+00 0.  1.
          2    1    1    2  501    0  0.17292531629E+02 -0.29758361479E+02 -0.23864296561E+03  0.24111212488E+03  0.00000000000E+00 0.  1.
          1    1    1    2  502    0 -0.17292531629E+02  0.29758361479E+02 -0.14862806675E+04  0.14866791228E+04  0.00000000000E+00 0.  1.
</event>
<event>
 4    1  0.3837333E+003  0.2656378E+02  0.7546771E-02  0.1452040E+00
          2   -1    0    0  502    0  0.00000000000E+00  0.00000000000E+00  0.11264421124E+04  0.11264421124E+04  0.00000000000E+00 0. -1.
          1   -1    0    0  501    0 -0.00000000000E+00 -0.00000000000E+00 -0.18699048024E+03  0.18699048024E+03  0.00000000000E+00 0.  1.
          2    1    1    2  501    0 -0.26080617321E+02 -0.50433903417E+01  0.11253411731E+04  0.11256546497E+04  0.00000000000E+00 0. -1.
          1    1    1    2  502    0  0.26080617321E+02  0.50433903417E+01 -0.18588954102E+03  0.18777794292E+03  0.00000000000E+00 0.  1.
</event>
<event>
 4    1  0.3837333E+003  0.2476133E+02  0.7546771E-02  0.1471491E+00
          2   -1    0    0  502    0  0.00000000000E+00  0.00000000000E+00  0.55351605219E+03  0.55351605219E+03  0.00000000000E+00 0. -1.
          1   -1    0    0  501    0 -0.00000000000E+00 -0.00000000000E+00 -0.37545266673E+01  0.37545266673E+01  0.00000000000E+00 0. -1.
          2    1    1    2  501    0 -0.19445076307E+02  0.15330124521E+02  0.50883028675E+03  0.50943241399E+03  0.00000000000E+00 0. -1.
          1    1    1    2  502    0  0.19445076307E+02 -0.15330124521E+02  0.40931238778E+02  0.47838164872E+02  0.00000000000E+00 0. -1.
</event>
<event>
 4    1  0.3837333E+003  0.2175152E+02  0.7546771E-02  0.1508800E+00
          2   -1    0    0  502    0  0.00000000000E+00  0.00000000000E+00  0.24506891502E+03  0.24506891502E+03  0.00000000000E+00 0.  1.
          1   -1    0    0  501    0 -0.00000000000E+00 -0.00000000000E+00 -0.22786289799E+01  0.22786289799E+01  0.00000000000E+00 0.  1.
          2    1    1    2  501    0  0.26369801152E+01  0.21591085141E+02  0.16972907566E+03  0.17111717548E+03  0.00000000000E+00 0.  1.
          1    1    1    2  502    0 -0.26369801152E+01 -0.21591085141E+02  0.73061210385E+02  0.76230368519E+02  0.00000000000E+00 0.  1.
</event>
<event>
 4    1  0.3837333E+003  0.2052560E+02  0.7546771E-02  0.1526147E+00
          2   -1    0    0  502    0  0.00000000000E+00  0.00000000000E+00  0.11387048395E+02  0.11387048395E+02  0.00000000000E+00 0.  1.
          1   -1    0    0  501    0 -0.00000000000E+00 -0.00000000000E+00 -0.72302082454E+02  0.72302082454E+02  0.00000000000E+00 0.  1.
          2    1    1    2  501    0  0.48863994024E+01 -0.19935476592E+02 -0.12176775777E+01  0.20561684386E+02  0.00000000000E+00 0.  1.
          1    1    1    2  502    0 -0.48863994024E+01  0.19935476592E+02 -0.59697356482E+02  0.63127446464E+02  0.00000000000E+00 0.  1.
</event>
<event>
 4    1  0.3837333E+003  0.2632977E+02  0.7546771E-02  0.1454459E+00
          2   -1    0    0  502    0  0.00000000000E+00  0.00000000000E+00  0.98907086480E+03  0.98907086480E+03  0.00000000000E+00 0. -1.
          1   -1    0    0  501    0 -0.00000000000E+00 -0.00000000000E+00 -0.15854545889E+01  0.15854545889E+01  0.00000000000E+00 0. -1.
          2    1    1    2  501    0  0.26246097952E+02  0.20973678350E+01  0.86371930341E+03  0.86412053077E+03  0.00000000000E+00 0. -1.
          1    1    1    2  502    0 -0.26246097952E+02 -0.20973678350E+01  0.12376610680E+03  0.12653578862E+03  0.00000000000E+00 0. -1.
</event>
<event>
 4    1  0.4209059E+003  0.2190491E+02  0.7546771E-02  0.1506727E+00
          2   -1    0    0  502    0  0.00000000000E+00  0.00000000000E+00  0.48599269770E+03  0.48599269770E+03  0.00000000000E+00 0. -1.
          1   -1    0    0  501    0 -0.00000000000E+00 -0.00000000000E+00 -0.96285654260E+03  0.96285654260E+03  0.00000000000E+00 0. -1.
          2    1    1    2  501    0 -0.21817315257E+02 -0.19569928968E+01  0.48562119140E+03  0.48611497262E+03  0.00000000000E+00 0. -1.
          1    1    1    2  502    0  0.21817315257E+02  0.19569928968E+01 -0.96248503631E+03  0.96273426769E+03  0.00000000000E+00 0. -1.
</event>
<event>
 4    1  0.3837333E+003  0.2050094E+02  0.7546771E-02  0.1526511E+00
          2   -1    0    0  502    0  0.00000000000E+00  0.00000000000E+00  0.52757849214E+03  0.52757849214E+03  0.00000000000E+00 0.  1.
          1   -1    0    0  501    0 -0.00000000000E+00 -0.00000000000E+00 -0.88081035827E+00  0.88081035827E+00  0.00000000000E+00 0.  1.
          2    1    1    2  501    0  0.18741227571E+02  0.83099022285E+01  0.18166617039E+03  0.18281927018E+03  0.00000000000E+00 0.  1.
          1    1    1    2  502    0 -0.18741227571E+02 -0.83099022285E+01  0.34503151140E+03  0.34564003232E+03  0.00000000000E+00 0.  1.
</event>
<event>
 4    1  0.3837333E+003  0.3004476E+02  0.7546771E-02  0.1419208E+00
          2   -1    0    0  502    0  0.00000000000E+00  0.00000000000E+00  0.20648545501E+01  0.20648545501E+01  0.00000000000E+00 0. -1.
          1   -1    0    0  501    0 -0.00000000000E+00 -0.00000000000E+00 -0.48224239442E+03  0.48224239442E+03  0.00000000000E+00 0. -1.
          2    1    1    2  501    0  0.29966107521E+02 -0.21725991231E+01 -0.16605591338E+03  0.16875204934E+03  0.00000000000E+00 0. -1.
          1    1    1    2  502    0 -0.29966107521E+02  0.21725991231E+01 -0.31412162649E+03  0.31555519963E+03  0.00000000000E+00 0. -1.
</event>
<event>
 4    1  0.3837333E+003  0.2293061E+02  0.7546771E-02  0.1493371E+00
          2   -1    0    0  502    0  0.00000000000E+00  0.00000000000E+00  0.49501282537E+00  0.49501282537E+00  0.00000000000E+00 0.  1.
          1   -1    0    0  501    0 -0.00000000000E+00 -0.00000000000E+00 -0.11446363594E+04  0.11446363594E+04  0.00000000000E+00 0.  1.
          2    1    1    2  501    0  0.14999029066E+01  0.22881507086E+02 -0.41843384807E+03  0.41906168792E+03  0.00000000000E+00 0.  1.
          1    1    1    2  502    0 -0.14999029066E+01 -0.22881507086E+02 -0.72570749851E+03  0.72606968431E+03  0.00000000000E+00 0.  1.
</event>
<event>
 4    1  0.3837333E+003  0.2250771E+02  0.7546771E-02  0.1498774E+00
          2   -1    0    0  502    0  0.00000000000E+00  0.00000000000E+00  0.40089704061E+03  0.40089704061E+03  0.00000000000E+00 0.  1.
          1   -1    0    0  501    0 -0.00000000000E+00 -0.00000000000E+00 -0.95479618139E+01  0.95479618139E+01  0.00000000000E+00 0.  1.
          2    1    1    2  501    0  0.11486478592E+02  0.19356079741E+02  0.38683480771E+03  0.38748905206E+03  0.00000000000E+00 0.  1.
          1    1    1    2  502    0 -0.11486478592E+02 -0.19356079741E+02  0.45142710836E+01  0.22955950358E+02  0.00000000000E+00 0.  1.
</event>
<event>
 4    1  0.3837333E+003  0.2710962E+02  0.7546771E-02  0.1446510E+00
          2   -1    0    0  502    0  0.00000000000E+00  0.00000000000E+00  0.64582875662E+03  0.64582875662E+03  0.00000000000E+00 0.  1.
          1   -1    0    0  501    0 -0.00000000000E+00 -0.00000000000E+00 -0.28165104264E+03  0.28165104264E+03  0.00000000000E+00 0. -1.
          2    1    1    2  501    0  0.62269169773E+01  0.26384790945E+02  0.64489097430E+03  0.64546053359E+03  0.00000000000E+00 0.  1.
          1    1    1    2  502    0 -0.62269169773E+01 -0.26384790945E+02 -0.28071326033E+03  0.28201926567E+03  0.00000000000E+00 0. -1.
</event>
<event>
 4    1  0.3837333E+003  0.2033712E+02  0.7546771E-02  0.1528943E+00
          2   -1    0    0  502    0  0.00000000000E+00  0.00000000000E+00  0.69338294255E+01  0.69338294255E+01  0.00000000000E+00 0.  1.
          1   -1    0    0  501    0 -0.00000000000E+00 -0.00000000000E+00 -0.66583438819E+03  0.66583438819E+03  0.00000000000E+00 0. -1.
          2    1    1    2  501    0  0.19309796712E+02 -0.63820089925E+01 -0.84872772267E+01  0.22037063383E+02  0.00000000000E+00 0.  1.
          1    1    1    2  502    0 -0.19309796712E+02  0.63820089925E+01 -0.65041328153E+03  0.65073115423E+03  0.00000000000E+00 0. -1.
</event>
<event>
 4    1  0.3837333E+003  0.2150928E+02  0.7546771E-02  0.1512116E+00
          2   -1    0    0  502    0  0.00000000000E+00  0.00000000000E+00  0.11126001803E+03  0.11126001803E+03  0.00000000000E+00 0. -1.
          1   -1    0    0  501    0 -0.00000000000E+00 -0.00000000000E+00 -0.15540751434E+03  0.15540751434E+03  0.00000000000E+00 0.  1.
          2    1    1    2  501    0 -0.12783531076E+02 -0.17298274651E+02  0.10946410489E+03  0.11155733607E+03  0.00000000000E+00 0. -1.
          1    1    1    2  502    0  0.12783531076E+02  0.17298274651E+02 -0.15361160119E+03  0.15511019629E+03  0.00000000000E+00 0.  1.
</event>
<event>
 4    1  0.3837333E+003  0.4359636E+02  0.7546771E-02  0.1328609E+00
          2   -1    0    0  502    0  0.00000000000E+00  0.00000000000E+00  0.29481383292E+02  0.29481383292E+02  0.00000000000E+00 0.  1.
          1   -1    0    0  501    0 -0.00000000000E+00 -0.00000000000E+00 -0.54722565692E+03  0.54722565692E+03  0.00000000000E+00 0.  1.
          2    1    1    2  501    0 -0.19465147600E+02 -0.39009626777E+02  0.11963650908E+02  0.45208095464E+02  0.00000000000E+00 0.  1.
          1    1    1    2  502    0  0.19465147600E+02  0.39009626777E+02 -0.52970792454E+03  0.53149894475E+03  0.00000000000E+00 0.  1.
</event>
<event>
 4    1  0.3837333E+003  0.2918849E+02  0.7546771E-02  0.1426782E+00
          2   -1    0    0  502    0  0.00000000000E+00  0.00000000000E+00  0.14310809219E+03  0.14310809219E+03  0.00000000000E+00 0.  1.
          1   -1    0    0  501    0 -0.00000000000E+00 -0.00000000000E+00 -0.70087920159E+01  0.70087920159E+01  0.00000000000E+00 0. -1.
          2    1    1    2  501    0 -0.12204141968E+02 -0.26514651160E+02  0.97177067721E+02  0.10146600563E+03  0.00000000000E+00 0.  1.
          1    1    1    2  502    0  0.12204141968E+02  0.26514651160E+02  0.38922232456E+02  0.48650878580E+02  0.00000000000E+00 0. -1.
</event>
<event>
 4    1  0.3837333E+003  0.2277264E+02  0.7546771E-02  0.1495373E+00
          2   -1    0    0  502    0  0.00000000000E+00  0.00000000000E+00  0.68169941177E+03  0.68169941177E+03  0.00000000000E+00 0.  1.
          1   -1    0    0  501    0 -0.00000000000E+00 -0.00000000000E+00 -0.21017996028E+03  0.21017996028E+03  0.00000000000E+00 0. -1.
          2    1    1    2  501    0 -0.16010943704E+02 -0.16193908028E+02  0.68089165233E+03  0.68127236491E+03  0.00000000000E+00 0.  1.
          1    1    1    2  502    0  0.16010943704E+02  0.16193908028E+02 -0.20937220083E+03  0.21060700714E+03  0.00000000000E+00 0. -1.
</event>
<event>
 4    1  0.3837333E+003  0.3126296E+02  0.7546771E-02  0.1408930E+00
          2   -1    0    0  502    0  0.00000000000E+00  0.00000000000E+00  0.92168145108E+03  0.92168145108E+03  0.00000000000E+00 0. -1.
          1   -1    0    0  501    0 -0.00000000000E+00 -0.00000000000E+00 -0.91092928385E+02  0.91092928385E+02  0.00000000000E+00 0. -1.
          2    1    1    2  501    0  0.31195505079E+02  0.20526519645E+01  0.91872536568E+03  0.91925712968E+03  0.00000000000E+00 0. -1.
          1    1    1    2  502    0 -0.31195505079E+02 -0.20526519645E+01 -0.88136842983E+02  0.93517249790E+02  0.00000000000E+00 0. -1.
</event>
<event>
 4    1  0.3837333E+003  0.5103624E+02  0.7546771E-02  0.1293741E+00
          2   -1    0    0  502    0  0.00000000000E+00  0.00000000000E+00  0.26688760864E+03  0.26688760864E+03  0.00000000000E+00 0. -1.
          1   -1    0    0  501    0 -0.00000000000E+00 -0.00000000000E+00 -0.38804436864E+02  0.38804436864E+02  0.00000000000E+00 0. -1.
          2    1    1    2  501    0 -0.21718933261E+02 -0.46184262054E+02  0.24627719796E+03  0.25150975401E+03  0.00000000000E+00 0. -1.
          1    1    1    2  502    0  0.21718933261E+02  0.46184262054E+02 -0.18194026185E+02  0.54182291501E+02  0.00000000000E+00 0. -1.
</event>
<event>
 4    1  0.3837333E+003  0.2218714E+02  0.7546771E-02  0.1502965E+00
          2   -1    0    0  502    0  0.00000000000E+00  0.00000000000E+00  0.59677905015E+02  0.59677905015E+02  0.00000000000E+00 0. -1.
          1   -1    0    0  501    0 -0.00000000000E+00 -0.00000000000E+00 -0.24416786087E+03  0.24416786087E+03  0.00000000000E+00 0. -1.
          2    1    1    2  501    0  0.16395002291E+02 -0.14949022378E+02  0.57089636863E+02  0.61249457200E+02  0.00000000000E+00 0. -1.
          1    1    1    2  502    0 -0.16395002291E+02  0.14949022378E+02 -0.24157959272E+03  0.24259630869E+03  0.00000000000E+00 0. -1.
</event>
<event>
 4    1  0.3837333E+003  0.2966954E+02  0.7546771E-02  0.1422490E+00
          2   -1    0    0  502    0  0.00000000000E+00  0.00000000000E+00  0.12511978968E+04  0.12511978968E+04  0.00000000000E+00 0. -1.
          1   -1    0    0  501    0 -0.00000000000E+00 -0.00000000000E+00 -0.69104576112E+01  0.69104576112E+01  0.00000000000E+00 0. -1.
          2    1    1    2  501    0 -0.29142818026E+02 -0.55657713269E+01  0.12183166449E+04  0.12186778610E+04  0.00000000000E+00 0. -1.
          1    1    1    2  502    0  0.29142818026E+02  0.55657713269E+01  0.25970794227E+02  0.39430493349E+02  0.00000000000E+00 0. -1.
</event>
<event>
 4    1  0.3837333E+003  0.3671168E+02  0.7546771E-02  0.1368913E+00
          2   -1    0    0  502    0  0.00000000000E+00  0.00000000000E+00  0.33913293055E+01  0.33913293055E+01  0.00000000000E+00 0.  1.
          1   -1    0    0  501    0 -0.00000000000E+00 -0.00000000000E+00 -0.51242659739E+03  0.51242659739E+03  0.00000000000E+00 0. -1.
          2    1    1    2  501    0 -0.30226448384E+02  0.20835285497E+02 -0.13232884824E+03  0.13732687785E+03  0.00000000000E+00 0.  1.
          1    1    1    2  502    0  0.30226448384E+02 -0.20835285497E+02 -0.37670641984E+03  0.37849104884E+03  0.00000000000E+00 0. -1.
</event>
<event>
 4    1  0.3837333E+003  0.2053483E+02  0.7546771E-02  0.1526011E+00
          2   -1    0    0  502    0  0.00000000000E+00  0.00000000000E+00  0.13492511595E+03  0.13492511595E+03  0.00000000000E+00 0.  1.
          1   -1    0    0  501    0 -0.00000000000E+00 -0.00000000000E+00 -0.23743390077E+02  0.23743390077E+02  0.00000000000E+00 0. -1.
          2    1    1    2  501    0  0.11861354006E+02 -0.16762681826E+02  0.12951968128E+03  0.13113743577E+03  0.00000000000E+00 0.  1.
          1    1    1    2  502    0 -0.11861354006E+02  0.16762681826E+02 -0.18337955410E+02  0.27531070257E+02  0.00000000000E+00 0. -1.
</event>
<event>
 4    1  0.3837333E+003  0.2082170E+02  0.7546771E-02  0.1521826E+00
          2   -1    0    0  502    0  0.00000000000E+00  0.00000000000E+00  0.25055486483E+03  0.25055486483E+03  0.00000000000E+00 0.  1.
          1   -1    0    0  501    0 -0.00000000000E+00 -0.00000000000E+00 -0.94584534522E+03  0.94584534522E+03  0.00000000000E+00 0.  1.
          2    1    1    2  501    0 -0.16459588067E+02 -0.12752464025E+02  0.25000743956E+03  0.25087300217E+03  0.00000000000E+00 0.  1.
          1    1    1    2  502    0  0.16459588067E+02  0.12752464025E+02 -0.94529791995E+03  0.94552720788E+03  0.00000000000E+00 0.  1.
</event>
<event>
 4    1  0.3837333E+003  0.2050226E+02  0.7546771E-02  0.1526491E+00
          2   -1    0    0  502    0  0.00000000000E+00  0.00000000000E+00  0.26379062260E+02  0.26379062260E+02  0.00000000000E+00 0.  1.
          1   -1    0    0  501    0 -0.00000000000E+00 -0.00000000000E+00 -0.48406347629E+02  0.48406347629E+02  0.00000000000E+00 0.  1.
          2    1    1    2  501    0  0.16074403328E+02  0.12726195392E+02  0.19612187883E+02  0.28372176601E+02  0.00000000000E+00 0.  1.
          1    1    1    2  502    0 -0.16074403328E+02 -0.12726195392E+02 -0.41639473253E+02  0.46413233288E+02  0.00000000000E+00 0.  1.
</event>
<event>
 4    1  0.3837333E+003  0.2885531E+02  0.7546771E-02  0.1429811E+00
          2   -1    0    0  502    0  0.00000000000E+00  0.00000000000E+00  0.13666746776E+02  0.13666746776E+02  0.00000000000E+00 0. -1.
          1   -1    0    0  501    0 -0.00000000000E+00 -0.00000000000E+00 -0.18539447293E+03  0.18539447293E+03  0.00000000000E+00 0. -1.
          2    1    1    2  501    0 -0.54481880117E+01  0.28336304543E+02 -0.43104857821E+01  0.29175489635E+02  0.00000000000E+00 0. -1.
          1    1    1    2  502    0  0.54481880117E+01 -0.28336304543E+02 -0.16741724037E+03  0.16988573007E+03  0.00000000000E+00 0. -1.
</event>
<event>
 4    1  0.3837333E+003  0.2403155E+02  0.7546771E-02  0.1479936E+00
          2   -1    0    0  502    0  0.00000000000E+00  0.00000000000E+00  0.71583002123E+03  0.71583002123E+03  0.00000000000E+00 0.  1.
          1   -1    0    0  501    0 -0.00000000000E+00 -0.00000000000E+00 -0.46380625885E+01  0.46380625885E+01  0.00000000000E+00 0.  1.
          2    1    1    2  501    0 -0.20414091130E+02  0.12679908860E+02  0.68300354506E+03  0.68342619043E+03  0.00000000000E+00 0.  1.
          1    1    1    2  502    0  0.20414091130E+02 -0.12679908860E+02  0.28188413584E+02  0.37041893388E+02  0.00000000000E+00 0.  1.
</event>
<event>
 4    1  0.3837333E+003  0.2019815E+02  0.7546771E-02  0.1531028E+00
          2   -1    0    0  502    0  0.00000000000E+00  0.00000000000E+00  0.27787280927E+02  0.27787280927E+02  0.00000000000E+00 0. -1.
          1   -1    0    0  501    0 -0.00000000000E+00 -0.00000000000E+00 -0.34244409338E+02  0.34244409338E+02  0.00000000000E+00 0.  1.
          2    1    1    2  501    0 -0.96352408702E+01  0.17751823653E+02  0.20213888374E+02  0.28575625852E+02  0.00000000000E+00 0. -1.
          1    1    1    2  502    0  0.96352408702E+01 -0.17751823653E+02 -0.26671016785E+02  0.33456064413E+02  0.00000000000E+00 0.  1.
</event>
<event>
 4    1  0.3837333E+003  0.3864582E+02  0.7546771E-02  0.1356609E+00
          2   -1    0    0  502    0  0.00000000000E+00  0.00000000000E+00  0.98717507549E+02  0.98717507549E+02  0.00000000000E+00 0.  1.
          1   -1    0    0  501    0 -0.00000000000E+00 -0.00000000000E+00 -0.34244977515E+02  0.34244977515E+02  0.00000000000E+00 0. -1.
          2    1    1    2  501    0 -0.25475830659E+02 -0.29059961907E+02  0.81906783321E+02  0.90566111145E+02  0.00000000000E+00 0.  1.
          1    1    1    2  502    0  0.25475830659E+02  0.29059961907E+02 -0.17434253287E+02  0.42396373919E+02  0.00000000000E+00 0. -1.
</event>
<event>
 4    1  0.3837333E+003  0.3434206E+02  0.7546771E-02  0.1385249E+00
          2   -1    0    0  502    0  0.00000000000E+00  0.00000000000E+00  0.17828745657E+03  0.17828745657E+03  0.00000000000E+00 0.  1.
          1   -1    0    0  501    0 -0.00000000000E+00 -0.00000000000E+00 -0.90875970236E+02  0.90875970236E+02  0.00000000000E+00 0.  1.
          2    1    1    2  501    0 -0.20985073109E+00  0.34341422500E+02  0.17329669109E+03  0.17666669318E+03  0.00000000000E+00 0.  1.
          1    1    1    2  502    0  0.20985073109E+00 -0.34341422500E+02 -0.85885204752E+02  0.92496733629E+02  0.00000000000E+00 0.  1.
</event>
<event>
 4    1  0.3837333E+003  0.2057139E+02  0.7546771E-02  0.1525473E+00
          2   -1    0    0  502    0  0.00000000000E+00  0.00000000000E+00  0.38128809508E+03  0.38128809508E+03  0.00000000000E+00 0.  1.
          1   -1    0    0  501    0 -0.00000000000E+00 -0.00000000000E+00 -0.49544735716E+02  0.49544735716E+02  0.00000000000E+00 0. -1.
          2    1    1    2  501    0  0.74504056317E+01 -0.19174815045E+02  0.37886160678E+03  0.37941968738E+03  0.00000000000E+00 0.  1.
          1    1    1    2  502    0 -0.74504056317E+01  0.19174815045E+02 -0.47118247419E+02  0.51413143417E+02  0.00000000000E+00 0. -1.
</event>
<event>
 4    1  0.3837333E+003  0.3801762E+02  0.7546771E-02  0.1360511E+00
          2   -1    0    0  502    0  0.00000000000E+00  0.00000000000E+00  0.70651188543E+02  0.70651188543E+02  0.00000000000E+00 0.  1.
          1   -1    0    0  501    0 -0.00000000000E+00 -0.00000000000E+00 -0.61305230476E+02  0.61305230476E+02  0.00000000000E+00 0.  1.
          2    1    1    2  501    0  0.25578667196E+02 -0.28125986560E+02  0.58529250104E+02  0.69792638962E+02  0.00000000000E+00 0.  1.
          1    1    1    2  502    0 -0.25578667196E+02  0.28125986560E+02 -0.49183292037E+02  0.62163780058E+02  0.00000000000E+00 0.  1.
</event>
<event>
 4    1  0.3837333E+003  0.2323566E+02  0.7546771E-02  0.1489560E+00
          2   -1    0    0  502    0  0.00000000000E+00  0.00000000000E+00  0.13343278696E+02  0.13343278696E+02  0.00000000000E+00 0.  1.
          1   -1    0    0  501    0 -0.00000000000E+00 -0.00000000000E+00 -0.46689002945E+03  0.46689002945E+03  0.00000000000E+00 0. -1.
          2    1    1    2  501    0 -0.17491481709E+01 -0.23169732928E+02  0.27029270772E+01  0.23392346143E+02  0.00000000000E+00 0.  1.
          1    1    1    2  502    0  0.17491481709E+01  0.23169732928E+02 -0.45624967783E+03  0.45684096200E+03  0.00000000000E+00 0. -1.
</event>
<event>
 4    1  0.3837333E+003  0.2322653E+02  0.7546771E-02  0.1489673E+00
          2   -1    0    0  502    0  0.00000000000E+00  0.00000000000E+00  0.11050365360E+02  0.11050365360E+02  0.00000000000E+00 0. -1.
          1   -1    0    0  501    0 -0.00000000000E+00 -0.00000000000E+00 -0.12107646151E+04  0.12107646151E+04  0.00000000000E+00 0.  1.
          2    1    1    2  501    0 -0.17749331243E+02 -0.14981078332E+02 -0.13925772888E+01  0.23268234550E+02  0.00000000000E+00 0. -1.
          1    1    1    2  502    0  0.17749331243E+02  0.14981078332E+02 -0.11983216724E+04  0.11985467459E+04  0.00000000000E+00 0.  1.
</event>
<event>
 4    1  0.3837333E+003  0.3215595E+02  0.7546771E-02  0.1401742E+00
          2   -1    0    0  502    0  0.00000000000E+00  0.00000000000E+00  0.11476351481E+04  0.11476351481E+04  0.00000000000E+00 0.  1.
          1   -1    0    0  501    0 -0.00000000000E+00 -0.00000000000E+00 -0.30725672476E+01  0.30725672476E+01  0.00000000000E+00 0.  1.
          2    1    1    2  501    0  0.12704942108E+02  0.29539626768E+02  0.10559769681E+04  0.10564664511E+04  0.00000000000E+00 0.  1.
          1    1    1    2  502    0 -0.12704942108E+02 -0.29539626768E+02  0.88585612738E+02  0.94241264252E+02  0.00000000000E+00 0.  1.
</event>
<event>
 4    1  0.3837333E+003  0.2149914E+02  0.7546771E-02  0.1512256E+00
          2   -1    0    0  502    0  0.00000000000E+00  0.00000000000E+00  0.12566902289E+02  0.12566902289E+02  0.00000000000E+00 0. -1.
          1   -1    0    0  501    0 -0.00000000000E+00 -0.00000000000E+00 -0.92349055302E+03  0.92349055302E+03  0.00000000000E+00 0.  1.
          2    1    1    2  501    0 -0.13566034026E+02 -0.16678607439E+02  0.31520298461E+01  0.21728978748E+02  0.00000000000E+00 0. -1.
          1    1    1    2  502    0  0.13566034026E+02  0.16678607439E+02 -0.91407568058E+03  0.91432847656E+03  0.00000000000E+00 0.  1.
</event>
<event>
 4    1  0.3837333E+003  0.2661449E+02  0.7546771E-02  0.1451520E+00
          2   -1    0    0  502    0  0.00000000000E+00  0.00000000000E+00  0.14999791175E+01  0.14999791175E+01  0.00000000000E+00 0.  1.
          1   -1    0    0  501    0 -0.00000000000E+00 -0.00000000000E+00 -0.48623768952E+03  0.48623768952E+03  0.00000000000E+00 0.  1.
          2    1    1    2  501    0 -0.84610570808E+01  0.25233741010E+02 -0.20097305959E+03  0.20272765439E+03  0.00000000000E+00 0.  1.
          1    1    1    2  502    0  0.84610570808E+01 -0.25233741010E+02 -0.28376465082E+03  0.28501001425E+03  0.00000000000E+00 0.  1.
</event>
<event>
 4    1  0.3837333E+003  0.3011127E+02  0.7546771E-02  0.1418632E+00
          2   -1    0    0  502    0  0.00000000000E+00  0.00000000000E+00  0.98962374994E+03  0.98962374994E+03  0.00000000000E+00 0.  1.
          1   -1    0    0  501    0 -0.00000000000E+00 -0.00000000000E+00 -0.11457000843E+01  0.11457000843E+01  0.00000000000E+00 0.  1.
          2    1    1    2  501    0  0.28558820115E+02  0.95436932783E+01  0.71595824183E+03  0.71659116121E+03  0.00000000000E+00 0.  1.
          1    1    1    2  502    0 -0.28558820115E+02 -0.95436932783E+01  0.27251980802E+03  0.27417828880E+03  0.00000000000E+00 0.  1.
</event>
<event>
 4    1  0.3837333E+003  0.2418956E+02  0.7546771E-02  0.1478078E+00
          2   -1    0    0  502    0  0.00000000000E+00  0.00000000000E+00  0.16149669961E+04  0.16149669961E+04  0.00000000000E+00 0. -1.
          1   -1    0    0  501    0 -0.00000000000E+00 -0.00000000000E+00 -0.10602538210E+02  0.10602538210E+02  0.00000000000E+00 0.  1.
          2    1    1    2  501    0  0.88164401832E+01  0.22525653470E+02  0.16009586568E+04  0.16011413914E+04  0.00000000000E+00 0. -1.
          1    1    1    2  502    0 -0.88164401832E+01 -0.22525653470E+02  0.34058010890E+01  0.24428142844E+02  0.00000000000E+00 0.  1.
</event>
<event>
 4    1  0.3837333E+003  0.2045213E+02  0.7546771E-02  0.1527233E+00
          2   -1    0    0  502    0  0.00000000000E+00  0.00000000000E+00  0.34692402227E+03  0.34692402227E+03  0.00000000000E+00 0.  1.
          1   -1    0    0  501    0 -0.00000000000E+00 -0.00000000000E+00 -0.17702152128E+01  0.17702152128E+01  0.00000000000E+00 0. -1.
          2    1    1    2  501    0  0.62025576041E+01 -0.19488916477E+02  0.27103148140E+03  0.27180204837E+03  0.00000000000E+00 0.  1.
          1    1    1    2  502    0 -0.62025576041E+01  0.19488916477E+02  0.74122325659E+02  0.76892189118E+02  0.00000000000E+00 0. -1.
</event>
<event>
 4    1  0.3837333E+003  0.3070368E+02  0.7546771E-02  0.1413578E+00
          2   -1    0    0  502    0  0.00000000000E+00  0.00000000000E+00  0.16495336914E+02  0.16495336914E+02  0.00000000000E+00 0.  1.
          1   -1    0    0  501    0 -0.00000000000E+00 -0.00000000000E+00 -0.70212951535E+02  0.70212951535E+02  0.00000000000E+00 0.  1.
          2    1    1    2  501    0  0.24599454781E+01  0.30604974688E+02 -0.81590787953E+01  0.31769267763E+02  0.00000000000E+00 0.  1.
          1    1    1    2  502    0 -0.24599454781E+01 -0.30604974688E+02 -0.45558535826E+02  0.54939020686E+02  0.00000000000E+00 0.  1.
</event>
<event>
 4    1  0.3837333E+003  0.4299725E+02  0.7546771E-02  0.1331764E+00
          2   -1    0    0  502    0  0.00000000000E+00  0.00000000000E+00  0.95006127305E+03  0.95006127305E+03  0.00000000000E+00 0. -1.
          1   -1    0    0  501    0 -0.00000000000E+00 -0.00000000000E+00 -0.25861889013E+02  0.25861889013E+02  0.00000000000E+00 0. -1.
          2    1    1    2  501    0  0.39803641848E+02  0.16261418432E+02  0.93134431419E+03  0.93233631014E+03  0.00000000000E+00 0. -1.
          1    1    1    2  502    0 -0.39803641848E+02 -0.16261418432E+02 -0.71449301496E+01  0.43586851924E+02  0.00000000000E+00 0. -1.
</event>
<event>
 4    1  0.3837333E+003  0.2417626E+02  0.7546771E-02  0.1478233E+00
          2   -1    0    0  502    0  0.00000000000E+00  0.00000000000E+00  0.29935139783E+01  0.29935139783E+01  0.00000000000E+00 0. -1.
          1   -1    0    0  501    0 -0.00000000000E+00 -0.00000000000E+00 -0.19973133899E+03  0.19973133899E+03  0.00000000000E+00 0.  1.
          2    1    1    2  501    0 -0.24168079909E+02  0.62881311867E+00 -0.83190370136E+02  0.86632148628E+02  0.00000000000E+00 0. -1.
          1    1    1    2  502    0  0.24168079909E+02 -0.62881311867E+00 -0.11354745488E+03  0.11609270434E+03  0.00000000000E+00 0.  1.
</event>
<event>
 4    1  0.3837333E+003  0.2129107E+02  0.7546771E-02  0.1515149E+00
          2   -1    0    0  502    0  0.00000000000E+00  0.00000000000E+00  0.11888624850E+04  0.11888624850E+04  0.00000000000E+00 0. -1.
          1   -1    0    0  501    0 -0.00000000000E+00 -0.00000000000E+00 -0.59437657534E+00  0.59437657534E+00  0.00000000000E+00 0. -1.
          2    1    1    2  501    0  0.35242464108E+01  0.20997365784E+02  0.95022323857E+03  0.95046173663E+03  0.00000000000E+00 0. -1.
          1    1    1    2  502    0 -0.35242464108E+01 -0.20997365784E+02  0.23804486982E+03  0.23899512491E+03  0.00000000000E+00 0. -1.
</event>
<event>
 4    1  0.3837333E+003  0.3383227E+02  0.7546771E-02  0.1388964E+00
          2   -1    0    0  502    0  0.00000000000E+00  0.00000000000E+00  0.13595492808E+04  0.13595492808E+04  0.00000000000E+00 0. -1.
          1   -1    0    0  501    0 -0.00000000000E+00 -0.00000000000E+00 -0.22051186712E+01  0.22051186712E+01  0.00000000000E+00 0. -1.
          2    1    1    2  501    0 -0.33551354336E+02  0.43507340425E+01  0.12140167648E+04  0.12144880928E+04  0.00000000000E+00 0. -1.
          1    1    1    2  502    0  0.33551354336E+02 -0.43507340425E+01  0.14332739734E+03  0.14726630671E+03  0.00000000000E+00 0. -1.
</event>
<event>
 4    1  0.3837333E+003  0.2630326E+02  0.7546771E-02  0.1454735E+00
          2   -1    0    0  502    0  0.00000000000E+00  0.00000000000E+00  0.59887454434E+01  0.59887454434E+01  0.00000000000E+00 0.  1.
          1   -1    0    0  501    0 -0.00000000000E+00 -0.00000000000E+00 -0.23960612284E+03  0.23960612284E+03  0.00000000000E+00 0.  1.
          2    1    1    2  501    0 -0.23320768458E+02  0.12165656730E+02 -0.28441752852E+02  0.38740092287E+02  0.00000000000E+00 0.  1.
          1    1    1    2  502    0  0.23320768458E+02 -0.12165656730E+02 -0.20517562455E+03  0.20685477600E+03  0.00000000000E+00 0.  1.
</event>
<event>
 4    1  0.3837333E+003  0.2155038E+02  0.7546771E-02  0.1511550E+00
          2   -1    0    0  502    0  0.00000000000E+00  0.00000000000E+00  0.67455106849E+01  0.67455106849E+01  0.00000000000E+00 0. -1.
          1   -1    0    0  501    0 -0.00000000000E+00 -0.00000000000E+00 -0.92198881826E+02  0.92198881826E+02  0.00000000000E+00 0. -1.
          2    1    1    2  501    0  0.52068662725E+01  0.20911901591E+02 -0.17829843470E+02  0.27970026862E+02  0.00000000000E+00 0. -1.
          1    1    1    2  502    0 -0.52068662725E+01 -0.20911901591E+02 -0.67623527672E+02  0.70974365649E+02  0.00000000000E+00 0. -1.
</event>
<event>
 4    1  0.3837333E+003  0.2327484E+02  0.7546771E-02  0.1489076E+00
          2   -1    0    0  502    0  0.00000000000E+00  0.00000000000E+00  0.10923018204E+03  0.10923018204E+03  0.00000000000E+00 0.  1.
          1   -1    0    0  501    0 -0.00000000000E+00 -0.00000000000E+00 -0.29099231100E+03  0.29099231100E+03  0.00000000000E+00 0. -1.
          2    1    1    2  501    0 -0.15193840210E+02  0.17631370456E+02  0.10751759373E+03  0.11000795865E+03  0.00000000000E+00 0.  1.
          1    1    1    2  502    0  0.15193840210E+02 -0.17631370456E+02 -0.28927972270E+03  0.29021453439E+03  0.00000000000E+00 0. -1.
</event>
<event>
 4    1  0.3837333E+003  0.2331449E+02  0.7546771E-02  0.1488586E+00
          2   -1    0    0  502    0  0.00000000000E+00  0.00000000000E+00  0.94547472886E+03  0.94547472886E+03  0.00000000000E+00 0.  1.
          1   -1    0    0  501    0 -0.00000000000E+00 -0.00000000000E+00 -0.18555378540E+02  0.18555378540E+02  0.00000000000E+00 0.  1.
          2    1    1    2  501    0  0.23304471564E+02 -0.68326574815E+00  0.93794869238E+03  0.93823841042E+03  0.00000000000E+00 0.  1.
          1    1    1    2  502    0 -0.23304471564E+02  0.68326574815E+00 -0.11029342059E+02  0.25791696982E+02  0.00000000000E+00 0.  1.
</event>
<event>
 4    1  0.3837333E+003  0.2014146E+02  0.7546771E-02  0.1531884E+00
          2   -1    0    0  502    0  0.00000000000E+00  0.00000000000E+00  0.34747317480E+02  0.34747317480E+02  0.00000000000E+00 0.  1.
          1   -1    0    0  501    0 -0.00000000000E+00 -0.00000000000E+00 -0.10193512227E+03  0.10193512227E+03  0.00000000000E+00 0.  1.
          2    1    1    2  501    0  0.91983611851E+00 -0.20120447408E+02  0.30714617486E+02  0.36729636939E+02  0.00000000000E+00 0.  1.
          1    1    1    2  502    0 -0.91983611851E+00  0.20120447408E+02 -0.97902422277E+02  0.99952802812E+02  0.00000000000E+00 0.  1.
</event>
<event>
 4    1  0.3837333E+003  0.2833843E+02  0.7546771E-02  0.1434608E+00
          2   -1    0    0  502    0  0.00000000000E+00  0.00000000000E+00  0.19797619232E+03  0.19797619232E+03  0.00000000000E+00 0.  1.
          1   -1    0    0  501    0 -0.00000000000E+00 -0.00000000000E+00 -0.57401844215E+01  0.57401844215E+01  0.00000000000E+00 0. -1.
          2    1    1    2  501    0  0.27527510994E+02 -0.67307422188E+01  0.15128493085E+03  0.15391620140E+03  0.00000000000E+00 0.  1.
          1    1    1    2  502    0 -0.27527510994E+02  0.67307422188E+01  0.40951077054E+02  0.49800175343E+02  0.00000000000E+00 0. -1.
</event>
<event>
 4    1  0.3837333E+003  0.4862853E+02  0.7546771E-02  0.1304231E+00
          2   -1    0    0  502    0  0.00000000000E+00  0.00000000000E+00  0.89659971276E+03  0.89659971276E+03  0.00000000000E+00 0. -1.
          1   -1    0    0  501    0 -0.00000000000E+00 -0.00000000000E+00 -0.52545877490E+02  0.52545877490E+02  0.00000000000E+00 0.  1.
          2    1    1    2  501    0 -0.42383378028E+02  0.23840788443E+02  0.88453621983E+03  0.88587191970E+03  0.00000000000E+00 0. -1.
          1    1    1    2  502    0  0.42383378028E+02 -0.23840788443E+02 -0.40482384551E+02  0.63273670556E+02  0.00000000000E+00 0.  1.
</event>
<event>
 4    1  0.3837333E+003  0.3355714E+02  0.7546771E-02  0.1391001E+00
          2   -1    0    0  502    0  0.00000000000E+00  0.00000000000E+00  0.64286172327E+01  0.64286172327E+01  0.00000000000E+00 0. -1.
          1   -1    0    0  501    0 -0.00000000000E+00 -0.00000000000E+00 -0.62220949729E+03  0.62220949729E+03  0.00000000000E+00 0. -1.
          2    1    1    2  501    0  0.25571462365E+02  0.21729754063E+02 -0.41464333866E+02  0.53342036726E+02  0.00000000000E+00 0. -1.
          1    1    1    2  502    0 -0.25571462365E+02 -0.21729754063E+02 -0.57431654620E+03  0.57529607780E+03  0.00000000000E+00 0. -1.
</event>
<event>
 4    1  0.3837333E+003  0.3473085E+02  0.7546771E-02  0.1382465E+00
          2   -1    0    0  502    0  0.00000000000E+00  0.00000000000E+00  0.20538993787E+03  0.20538993787E+03  0.00000000000E+00 0.  1.
          1   -1    0    0  501    0 -0.00000000000E+00 -0.00000000000E+00 -0.16098161352E+04  0.16098161352E+04  0.00000000000E+00 0.  1.
          2    1    1    2  501    0  0.29571213328E+02 -0.18214693906E+02  0.20373287917E+03  0.20667200533E+03  0.00000000000E+00 0.  1.
          1    1    1    2  502    0 -0.29571213328E+02  0.18214693906E+02 -0.16081590765E+04  0.16085340678E+04  0.00000000000E+00 0.  1.
</event>
<event>
 4    1  0.3837333E+003  0.3156785E+02  0.7546771E-02  0.1406444E+00
          2   -1    0    0  502    0  0.00000000000E+00  0.00000000000E+00  0.95846599918E+00  0.95846599918E+00  0.00000000000E+00 0. -1.
          1   -1    0    0  501    0 -0.00000000000E+00 -0.00000000000E+00 -0.19109906735E+04  0.19109906735E+04  0.00000000000E+00 0. -1.
          2    1    1    2  501    0 -0.29257575853E+02  0.11854250839E+02 -0.30951722536E+03  0.31112287252E+03  0.00000000000E+00 0. -1.
          1    1    1    2  502    0  0.29257575853E+02 -0.11854250839E+02 -0.16005149822E+04  0.16008262670E+04  0.00000000000E+00 0. -1.
</event>
<event>
 4    1  0.3837333E+003  0.3500177E+02  0.7546771E-02  0.1380551E+00
          2   -1    0    0  502    0  0.00000000000E+00  0.00000000000E+00  0.51958119083E+01  0.51958119083E+01  0.00000000000E+00 0. -1.
          1   -1    0    0  501    0 -0.00000000000E+00 -0.00000000000E+00 -0.24554224970E+03  0.24554224970E+03  0.00000000000E+00 0.  1.
          2    1    1    2  501    0  0.30394009576E+02  0.17358812568E+02 -0.95189119791E+02  0.10142037625E+03  0.00000000000E+00 0. -1.
          1    1    1    2  502    0 -0.30394009576E+02 -0.17358812568E+02 -0.14515731800E+03  0.14931768536E+03  0.00000000000E+00 0.  1.
</event>
<event>
 4    1  0.3837333E+003  0.3482771E+02  0.7546771E-02  0.1381778E+00
          2   -1    0    0  502    0  0.00000000000E+00  0.00000000000E+00  0.86782075362E+03  0.86782075362E+03  0.00000000000E+00 0. -1.
          1   -1    0    0  501    0 -0.00000000000E+00 -0.00000000000E+00 -0.23200800798E+01  0.23200800798E+01  0.00000000000E+00 0.  1.
          2    1    1    2  501    0  0.27489311745E+02  0.21384740224E+02  0.70707104919E+03  0.70792827178E+03  0.00000000000E+00 0. -1.
          1    1    1    2  502    0 -0.27489311745E+02 -0.21384740224E+02  0.15842962435E+03  0.16221256192E+03  0.00000000000E+00 0.  1.
</event>
<event>
 4    1  0.3837333E+003  0.2734181E+02  0.7546771E-02  0.1444204E+00
          2   -1    0    0  502    0  0.00000000000E+00  0.00000000000E+00  0.25046865878E+02  0.25046865878E+02  0.00000000000E+00 0. -1.
          1   -1    0    0  501    0 -0.00000000000E+00 -0.00000000000E+00 -0.30529746695E+02  0.30529746695E+02  0.00000000000E+00 0.  1.
          2    1    1    2  501    0  0.24987459829E+02 -0.11099621687E+02  0.14140117499E+01  0.27378352389E+02  0.00000000000E+00 0. -1.
          1    1    1    2  502    0 -0.24987459829E+02  0.11099621687E+02 -0.68968925666E+01  0.28198260184E+02  0.00000000000E+00 0.  1.
</event>
<event>
 4    1  0.3837333E+003  0.2025487E+02  0.7546771E-02  0.1530175E+00
          2   -1    0    0  502    0  0.00000000000E+00  0.00000000000E+00  0.26504635036E+03  0.26504635036E+03  0.00000000000E+00 0. -1.
          1   -1    0    0  501    0 -0.00000000000E+00 -0.00000000000E+00 -0.51557198271E+01  0.51557198271E+01  0.00000000000E+00 0.  1.
          2    1    1    2  501    0  0.17702806195E+02  0.98422669715E+01  0.24296074277E+03  0.24380357277E+03  0.00000000000E+00 0. -1.
          1    1    1    2  502    0 -0.17702806195E+02 -0.98422669715E+01  0.16929887759E+02  0.26398497416E+02  0.00000000000E+00 0.  1.
</event>
<event>
 4    1  0.3837333E+003  0.9786790E+02  0.7546771E-02  0.1167555E+00
          2   -1    0    0  502    0  0.00000000000E+00  0.00000000000E+00  0.84808987141E+02  0.84808987141E+02  0.00000000000E+00 0. -1.
          1   -1    0    0  501    0 -0.00000000000E+00 -0.00000000000E+00 -0.53890288832E+03  0.53890288832E+03  0.00000000000E+00 0. -1.
          2    1    1    2  501    0  0.13966031861E+02  0.96866273971E+02  0.50212180056E+02  0.10999721862E+03  0.00000000000E+00 0. -1.
          1    1    1    2  502    0 -0.13966031861E+02 -0.96866273971E+02 -0.50430608124E+03  0.51371465684E+03  0.00000000000E+00 0. -1.
</event>
<event>
 4    1  0.3837333E+003  0.4795503E+02  0.7546771E-02  0.1307291E+00
          2   -1    0    0  502    0  0.00000000000E+00  0.00000000000E+00  0.24389235853E+03  0.24389235853E+03  0.00000000000E+00 0. -1.
          1   -1    0    0  501    0 -0.00000000000E+00 -0.00000000000E+00 -0.18612117082E+03  0.18612117082E+03  0.00000000000E+00 0.  1.
          2    1    1    2  501    0 -0.19529784211E+02 -0.43798085529E+02  0.23837533974E+03  0.24315116155E+03  0.00000000000E+00 0. -1.
          1    1    1    2  502    0  0.19529784211E+02  0.43798085529E+02 -0.18060415203E+03  0.18686236780E+03  0.00000000000E+00 0.  1.
</event>
<event>
 4    1  0.3837333E+003  0.2450086E+02  0.7546771E-02  0.1474465E+00
          2   -1    0    0  502    0  0.00000000000E+00  0.00000000000E+00  0.23837852804E+01  0.23837852804E+01  0.00000000000E+00 0. -1.
          1   -1    0    0  501    0 -0.00000000000E+00 -0.00000000000E+00 -0.11173853440E+04  0.11173853440E+04  0.00000000000E+00 0. -1.
          2    1    1    2  501    0  0.16246624192E+02  0.18339559915E+02 -0.64728628649E+02  0.69210458908E+02  0.00000000000E+00 0. -1.
          1    1    1    2  502    0 -0.16246624192E+02 -0.18339559915E+02 -0.10502729301E+04  0.10505586704E+04  0.00000000000E+00 0. -1.
</event>
<event>
 4    1  0.3837333E+003  0.2307889E+02  0.7546771E-02  0.1491510E+00
          2   -1    0    0  502    0  0.00000000000E+00  0.00000000000E+00  0.42441774295E+02  0.42441774295E+02  0.00000000000E+00 0.  1.
          1   -1    0    0  501    0 -0.00000000000E+00 -0.00000000000E+00 -0.13481170876E+02  0.13481170876E+02  0.00000000000E+00 0. -1.
          2    1    1    2  501    0 -0.22988761091E+02  0.20376025399E+01  0.21829873825E+02  0.31767567609E+02  0.00000000000E+00 0.  1.
          1    1    1    2  502    0  0.22988761091E+02 -0.20376025399E+01  0.71307295943E+01  0.24155377562E+02  0.00000000000E+00 0. -1.
</event>
<event>
 4    1  0.3837333E+003  0.2029811E+02  0.7546771E-02  0.1529526E+00
          2   -1    0    0  502    0  0.00000000000E+00  0.00000000000E+00  0.52869247682E+03  0.52869247682E+03  0.00000000000E+00 0.  1.
          1   -1    0    0  501    0 -0.00000000000E+00 -0.00000000000E+00 -0.11880547212E+01  0.11880547212E+01  0.00000000000E+00 0.  1.
          2    1    1    2  501    0  0.90236510445E+01  0.18182050860E+02  0.41915468073E+03  0.41964587407E+03  0.00000000000E+00 0.  1.
          1    1    1    2  502    0 -0.90236510445E+01 -0.18182050860E+02  0.10834974137E+03  0.11023465746E+03  0.00000000000E+00 0.  1.
</event>
<event>
 4    1  0.3837333E+003  0.3550135E+02  0.7546771E-02  0.1377072E+00
          2   -1    0    0  502    0  0.00000000000E+00  0.00000000000E+00  0.25930389409E+03  0.25930389409E+03  0.00000000000E+00 0.  1.
          1   -1    0    0  501    0 -0.00000000000E+00 -0.00000000000E+00 -0.76533315393E+03  0.76533315393E+03  0.00000000000E+00 0.  1.
          2    1    1    2  501    0  0.33678327925E+02  0.11230146523E+02  0.25767448006E+03  0.26010859970E+03  0.00000000000E+00 0.  1.
          1    1    1    2  502    0 -0.33678327925E+02 -0.11230146523E+02 -0.76370373990E+03  0.76452844833E+03  0.00000000000E+00 0.  1.
</event>
<event>
 4    1  0.3837333E+003  0.6552964E+02  0.7546771E-02  0.1242120E+00
          2   -1    0    0  502    0  0.00000000000E+00  0.00000000000E+00  0.83619537078E+03  0.83619537078E+03  0.00000000000E+00 0. -1.
          1   -1    0    0  501    0 -0.00000000000E+00 -0.00000000000E+00 -0.10843538156E+02  0.10843538156E+02  0.00000000000E+00 0.  1.
          2    1    1    2  501    0  0.19644150305E+02  0.62515930424E+02  0.71995852829E+03  0.72293458671E+03  0.00000000000E+00 0. -1.
          1    1    1    2  502    0 -0.19644150305E+02 -0.62515930424E+02  0.10539330433E+03  0.12410432223E+03  0.00000000000E+00 0.  1.
</event>
<event>
 4    1  0.3837333E+003  0.2796410E+02  0.7546771E-02  0.1438157E+00
          2   -1    0    0  502    0  0.00000000000E+00  0.00000000000E+00  0.81286814701E+02  0.81286814701E+02  0.00000000000E+00 0.  1.
          1   -1    0    0  501    0 -0.00000000000E+00 -0.00000000000E+00 -0.10626533134E+03  0.10626533134E+03  0.00000000000E+00 0.  1.
          2    1    1    2  501    0  0.27829453706E+02 -0.27408975520E+01  0.76941384787E+02  0.81865546514E+02  0.00000000000E+00 0.  1.
          1    1    1    2  502    0 -0.27829453706E+02  0.27408975520E+01 -0.10191990142E+03  0.10568659953E+03  0.00000000000E+00 0.  1.
</event>
<event>
 4    1  0.3837333E+003  0.2935203E+02  0.7546771E-02  0.1425312E+00
          2   -1    0    0  502    0  0.00000000000E+00  0.00000000000E+00  0.21870998297E+04  0.21870998297E+04  0.00000000000E+00 0. -1.
          1   -1    0    0  501    0 -0.00000000000E+00 -0.00000000000E+00 -0.79488655996E+00  0.79488655996E+00  0.00000000000E+00 0. -1.
          2    1    1    2  501    0 -0.16502526597E+02 -0.24273610018E+02  0.18701115248E+04  0.18703418556E+04  0.00000000000E+00 0. -1.
          1    1    1    2  502    0  0.16502526597E+02  0.24273610018E+02  0.31619341834E+03  0.31755286069E+03  0.00000000000E+00 0. -1.
</event>
<event>
 4    1  0.3837333E+003  0.2225113E+02  0.7546771E-02  0.1502122E+00
          2   -1    0    0  502    0  0.00000000000E+00  0.00000000000E+00  0.12761676399E+03  0.12761676399E+03  0.00000000000E+00 0. -1.
          1   -1    0    0  501    0 -0.00000000000E+00 -0.00000000000E+00 -0.11358349145E+02  0.11358349145E+02  0.00000000000E+00 0. -1.
          2    1    1    2  501    0  0.18309174478E+02  0.12644642178E+02  0.11451393004E+03  0.11665570290E+03  0.00000000000E+00 0. -1.
          1    1    1    2  502    0 -0.18309174478E+02 -0.12644642178E+02  0.17444848009E+01  0.22319410232E+02  0.00000000000E+00 0. -1.
</event>
<event>
 4    1  0.3837333E+003  0.2161769E+02  0.7546771E-02  0.1510626E+00
          2   -1    0    0  502    0  0.00000000000E+00  0.00000000000E+00  0.17115082209E+02  0.17115082209E+02  0.00000000000E+00 0.  1.
          1   -1    0    0  501    0 -0.00000000000E+00 -0.00000000000E+00 -0.91914718645E+02  0.91914718645E+02  0.00000000000E+00 0. -1.
          2    1    1    2  501    0  0.16935460652E+02  0.13435583496E+02  0.83060670686E+01  0.23158486166E+02  0.00000000000E+00 0.  1.
          1    1    1    2  502    0 -0.16935460652E+02 -0.13435583496E+02 -0.83105703504E+02  0.85871314688E+02  0.00000000000E+00 0. -1.
</event>
<event>
 4    1  0.3837333E+003  0.2563542E+02  0.7546771E-02  0.1461819E+00
          2   -1    0    0  502    0  0.00000000000E+00  0.00000000000E+00  0.33302353705E+03  0.33302353705E+03  0.00000000000E+00 0. -1.
          1   -1    0    0  501    0 -0.00000000000E+00 -0.00000000000E+00 -0.31484305398E+01  0.31484305398E+01  0.00000000000E+00 0.  1.
          2    1    1    2  501    0 -0.25631962301E+02  0.42129136354E+00  0.26762482256E+03  0.26884981054E+03  0.00000000000E+00 0. -1.
          1    1    1    2  502    0  0.25631962301E+02 -0.42129136354E+00  0.62250283953E+02  0.67322157051E+02  0.00000000000E+00 0.  1.
</event>
<event>
 4    1  0.3837333E+003  0.5155890E+02  0.7546771E-02  0.1291551E+00
          2   -1    0    0  502    0  0.00000000000E+00  0.00000000000E+00  0.32031871047E+03  0.32031871047E+03  0.00000000000E+00 0. -1.
          1   -1    0    0  501    0 -0.00000000000E+00 -0.00000000000E+00 -0.10716954758E+02  0.10716954758E+02  0.00000000000E+00 0. -1.
          2    1    1    2  501    0 -0.14234983897E+02 -0.49554872566E+02  0.23342114729E+03  0.23904759393E+03  0.00000000000E+00 0. -1.
          1    1    1    2  502    0  0.14234983897E+02  0.49554872566E+02  0.76180608419E+02  0.91988071295E+02  0.00000000000E+00 0. -1.
</event>
<event>
 4    1  0.3837333E+003  0.2282047E+02  0.7546771E-02  0.1494765E+00
          2   -1    0    0  502    0  0.00000000000E+00  0.00000000000E+00  0.34005856970E+03  0.34005856970E+03  0.00000000000E+00 0.  1.
          1   -1    0    0  501    0 -0.00000000000E+00 -0.00000000000E+00 -0.89427109965E+03  0.89427109965E+03  0.00000000000E+00 0.  1.
          2    1    1    2  501    0  0.17106974179E+02 -0.15103815670E+02  0.33952990118E+03  0.34029594122E+03  0.00000000000E+00 0.  1.
          1    1    1    2  502    0 -0.17106974179E+02  0.15103815670E+02 -0.89374243114E+03  0.89403372813E+03  0.00000000000E+00 0.  1.
</event>
<event>
 4    1  0.3837333E+003  0.2820807E+02  0.7546771E-02  0.1435836E+00
          2   -1    0    0  502    0  0.00000000000E+00  0.00000000000E+00  0.50705470305E+03  0.50705470305E+03  0.00000000000E+00 0.  1.
          1   -1    0    0  501    0 -0.00000000000E+00 -0.00000000000E+00 -0.17466373887E+01  0.17466373887E+01  0.00000000000E+00 0. -1.
          2    1    1    2  501    0 -0.28076381218E+02  0.27225525212E+01  0.33372745971E+03  0.33491747169E+03  0.00000000000E+00 0.  1.
          1    1    1    2  502    0  0.28076381218E+02 -0.27225525212E+01  0.17158060595E+03  0.17388386875E+03  0.00000000000E+00 0. -1.
</event>
<event>
 4    1  0.3837333E+003  0.2450733E+02  0.7546771E-02  0.1474391E+00
          2   -1    0    0  502    0  0.00000000000E+00  0.00000000000E+00  0.24550782350E+03  0.24550782350E+03  0.00000000000E+00 0. -1.
          1   -1    0    0  501    0 -0.00000000000E+00 -0.00000000000E+00 -0.70095999283E+01  0.70095999283E+01  0.00000000000E+00 0. -1.
          2    1    1    2  501    0  0.13104935314E+02 -0.20709177085E+02  0.22111990299E+03  0.22247386553E+03  0.00000000000E+00 0. -1.
          1    1    1    2  502    0 -0.13104935314E+02  0.20709177085E+02  0.17378320587E+02  0.30043557905E+02  0.00000000000E+00 0. -1.
</event>
<event>
 4    1  0.3837333E+003  0.2063571E+02  0.7546771E-02  0.1524530E+00
          2   -1    0    0  502    0  0.00000000000E+00  0.00000000000E+00  0.11996739403E+01  0.11996739403E+01  0.00000000000E+00 0.  1.
          1   -1    0    0  501    0 -0.00000000000E+00 -0.00000000000E+00 -0.40926503000E+03  0.40926503000E+03  0.00000000000E+00 0. -1.
          2    1    1    2  501    0  0.11709224258E+02 -0.16991955527E+02 -0.12927150286E+03  0.13090818896E+03  0.00000000000E+00 0.  1.
          1    1    1    2  502    0 -0.11709224258E+02  0.16991955527E+02 -0.27879385319E+03  0.27955651497E+03  0.00000000000E+00 0. -1.
</event>
<event>
 4    1  0.3837333E+003  0.2540031E+02  0.7546771E-02  0.1464375E+00
          2   -1    0    0  502    0  0.00000000000E+00  0.00000000000E+00  0.11069853238E+04  0.11069853238E+04  0.00000000000E+00 0.  1.
          1   -1    0    0  501    0 -0.00000000000E+00 -0.00000000000E+00 -0.60165319403E+02  0.60165319403E+02  0.00000000000E+00 0. -1.
          2    1    1    2  501    0 -0.14622371682E+02 -0.20769259109E+02  0.11041518934E+04  0.11044440138E+04  0.00000000000E+00 0.  1.
          1    1    1    2  502    0  0.14622371682E+02  0.20769259109E+02 -0.57331889000E+02  0.62706629425E+02  0.00000000000E+00 0. -1.
</event>
<event>
 4    1  0.3837333E+003  0.2994002E+02  0.7546771E-02  0.1420118E+00
          2   -1    0    0  502    0  0.00000000000E+00  0.00000000000E+00  0.21356634722E+04  0.21356634722E+04  0.00000000000E+00 0.  1.
          1   -1    0    0  501    0 -0.00000000000E+00 -0.00000000000E+00 -0.49137329547E+01  0.49137329547E+01  0.00000000000E+00 0.  1.
          2    1    1    2  501    0  0.24818343887E+02  0.16746783460E+02  0.20889311709E+04  0.20891457206E+04  0.00000000000E+00 0.  1.
          1    1    1    2  502    0 -0.24818343887E+02 -0.16746783460E+02  0.41818568331E+02  0.51431484586E+02  0.00000000000E+00 0.  1.
</event>
<event>
 4    1  0.3837333E+003  0.2153023E+02  0.7546771E-02  0.1511827E+00
          2   -1    0    0  502    0  0.00000000000E+00  0.00000000000E+00  0.97467063433E+02  0.97467063433E+02  0.00000000000E+00 0. -1.
          1   -1    0    0  501    0 -0.00000000000E+00 -0.00000000000E+00 -0.13573584547E+04  0.13573584547E+04  0.00000000000E+00 0.  1.
          2    1    1    2  501    0 -0.17714563797E+02 -0.12237038891E+02  0.96191574098E+02  0.98571648149E+02  0.00000000000E+00 0. -1.
          1    1    1    2  502    0  0.17714563797E+02  0.12237038891E+02 -0.13560829654E+04  0.13562538700E+04  0.00000000000E+00 0.  1.
</event>
<event>
 4    1  0.3837333E+003  0.2962520E+02  0.7546771E-02  0.1422882E+00
          2   -1    0    0  502    0  0.00000000000E+00  0.00000000000E+00  0.23897384458E+03  0.23897384458E+03  0.00000000000E+00 0.  1.
          1   -1    0    0  501    0 -0.00000000000E+00 -0.00000000000E+00 -0.29255228385E+03  0.29255228385E+03  0.00000000000E+00 0. -1.
          2    1    1    2  501    0 -0.20060505112E+02  0.21799741656E+02  0.23730043265E+03  0.23914252641E+03  0.00000000000E+00 0.  1.
          1    1    1    2  502    0  0.20060505112E+02 -0.21799741656E+02 -0.29087887192E+03  0.29238360202E+03  0.00000000000E+00 0. -1.
</event>
<event>
 4    1  0.3837333E+003  0.2635852E+02  0.7546771E-02  0.1454161E+00
          2   -1    0    0  502    0  0.00000000000E+00  0.00000000000E+00  0.32649692932E+03  0.32649692932E+03  0.00000000000E+00 0. -1.
          1   -1    0    0  501    0 -0.00000000000E+00 -0.00000000000E+00 -0.93748050829E+03  0.93748050829E+03  0.00000000000E+00 0. -1.
          2    1    1    2  501    0  0.26240301074E+02 -0.24935901512E+01  0.32577925638E+03  0.32684383929E+03  0.00000000000E+00 0. -1.
          1    1    1    2  502    0 -0.26240301074E+02  0.24935901512E+01 -0.93676283536E+03  0.93713359832E+03  0.00000000000E+00 0. -1.
</event>
<event>
 4    1  0.3837333E+003  0.7290663E+02  0.7546771E-02  0.1221348E+00
          2   -1    0    0  502    0  0.00000000000E+00  0.00000000000E+00  0.14201283305E+03  0.14201283305E+03  0.00000000000E+00 0.  1.
          1   -1    0    0  501    0 -0.00000000000E+00 -0.00000000000E+00 -0.14186927977E+03  0.14186927977E+03  0.00000000000E+00 0.  1.
          2    1    1    2  501    0  0.72726407302E+02  0.51230861956E+01  0.12185800658E+03  0.14200264117E+03  0.00000000000E+00 0.  1.
          1    1    1    2  502    0 -0.72726407302E+02 -0.51230861956E+01 -0.12171445330E+03  0.14187947164E+03  0.00000000000E+00 0.  1.
</event>
<event>
 4    1  0.3837333E+003  0.3943990E+02  0.7546771E-02  0.1351800E+00
          2   -1    0    0  502    0  0.00000000000E+00  0.00000000000E+00  0.17787069281E+03  0.17787069281E+03  0.00000000000E+00 0. -1.
          1   -1    0    0  501    0 -0.00000000000E+00 -0.00000000000E+00 -0.13125337751E+04  0.13125337751E+04  0.00000000000E+00 0. -1.
          2    1    1    2  501    0  0.10480917571E+02 -0.38021783348E+02  0.17538397745E+03  0.17976385951E+03  0.00000000000E+00 0. -1.
          1    1    1    2  502    0 -0.10480917571E+02  0.38021783348E+02 -0.13100470597E+04  0.13106406084E+04  0.00000000000E+00 0. -1.
</event>
<event>
 4    1  0.3837333E+003  0.2694704E+02  0.7546771E-02  0.1448141E+00
          2   -1    0    0  502    0  0.00000000000E+00  0.00000000000E+00  0.22766087820E+03  0.22766087820E+03  0.00000000000E+00 0.  1.
          1   -1    0    0  501    0 -0.00000000000E+00 -0.00000000000E+00 -0.85092444399E+02  0.85092444399E+02  0.00000000000E+00 0. -1.
          2    1    1    2  501    0  0.23148596722E+02 -0.13794395612E+02  0.22470209742E+03  0.22631211958E+03  0.00000000000E+00 0.  1.
          1    1    1    2  502    0 -0.23148596722E+02  0.13794395612E+02 -0.82133663621E+02  0.86441203024E+02  0.00000000000E+00 0. -1.
</event>
<event>
 4    1  0.3837333E+003  0.2459264E+02  0.7546771E-02  0.1473412E+00
          2   -1    0    0  502    0  0.00000000000E+00  0.00000000000E+00  0.27598996921E+02  0.27598996921E+02  0.00000000000E+00 0.  1.
          1   -1    0    0  501    0 -0.00000000000E+00 -0.00000000000E+00 -0.15463770435E+03  0.15463770435E+03  0.00000000000E+00 0. -1.
          2    1    1    2  501    0  0.22893309341E+02  0.89830024742E+01  0.20896260317E+02  0.32271529887E+02  0.00000000000E+00 0.  1.
          1    1    1    2  502    0 -0.22893309341E+02 -0.89830024742E+01 -0.14793496775E+03  0.14996517139E+03  0.00000000000E+00 0. -1.
</event>
<event>
 4    1  0.3837333E+003  0.2931567E+02  0.7546771E-02  0.1425638E+00
          2   -1    0    0  502    0  0.00000000000E+00  0.00000000000E+00  0.36102028766E+03  0.36102028766E+03  0.00000000000E+00 0.  1.
          1   -1    0    0  501    0 -0.00000000000E+00 -0.00000000000E+00 -0.25224261034E+01  0.25224261034E+01  0.00000000000E+00 0.  1.
          2    1    1    2  501    0  0.80211047297E+01  0.28196990757E+02  0.22236597670E+03  0.22429007112E+03  0.00000000000E+00 0.  1.
          1    1    1    2  502    0 -0.80211047297E+01 -0.28196990757E+02  0.13613188485E+03  0.13925264264E+03  0.00000000000E+00 0.  1.
</event>
<event>
 4    1  0.3837333E+003  0.2101527E+02  0.7546771E-02  0.1519047E+00
          2   -1    0    0  502    0  0.00000000000E+00  0.00000000000E+00  0.45456684914E+01  0.45456684914E+01  0.00000000000E+00 0.  1.
          1   -1    0    0  501    0 -0.00000000000E+00 -0.00000000000E+00 -0.77135149851E+03  0.77135149851E+03  0.00000000000E+00 0.  1.
          2    1    1    2  501    0  0.20997514800E+02  0.86368813259E+00 -0.20708602373E+02  0.29504030186E+02  0.00000000000E+00 0.  1.
          1    1    1    2  502    0 -0.20997514800E+02 -0.86368813259E+00 -0.74609722765E+03  0.74639313682E+03  0.00000000000E+00 0.  1.
</event>
<event>
 4    1  0.3837333E+003  0.2930516E+02  0.7546771E-02  0.1425732E+00
          2   -1    0    0  502    0  0.00000000000E+00  0.00000000000E+00  0.26966384987E+03  0.26966384987E+03  0.00000000000E+00 0.  1.
          1   -1    0    0  501    0 -0.00000000000E+00 -0.00000000000E+00 -0.32039835378E+01  0.32039835378E+01  0.00000000000E+00 0.  1.
          2    1    1    2  501    0  0.15263049784E+02  0.25016625489E+02  0.14382077004E+03  0.14677604074E+03  0.00000000000E+00 0.  1.
          1    1    1    2  502    0 -0.15263049784E+02 -0.25016625489E+02  0.12263909629E+03  0.12609179267E+03  0.00000000000E+00 0.  1.
</event>
<event>
 4    1  0.3837333E+003  0.3247613E+02  0.7546771E-02  0.1399231E+00
          2   -1    0    0  502    0  0.00000000000E+00  0.00000000000E+00  0.21129618144E+04  0.21129618144E+04  0.00000000000E+00 0.  1.
          1   -1    0    0  501    0 -0.00000000000E+00 -0.00000000000E+00 -0.69290360253E+00  0.69290360253E+00  0.00000000000E+00 0.  1.
          2    1    1    2  501    0 -0.15621041705E+02  0.28472484851E+02  0.16149710888E+04  0.16152975940E+04  0.00000000000E+00 0.  1.
          1    1    1    2  502    0  0.15621041705E+02 -0.28472484851E+02  0.49729782193E+03  0.49835712399E+03  0.00000000000E+00 0.  1.
</event>
<event>
 4    1  0.3837333E+003  0.2085261E+02  0.7546771E-02  0.1521380E+00
          2   -1    0    0  502    0  0.00000000000E+00  0.00000000000E+00  0.64947245716E+01  0.64947245716E+01  0.00000000000E+00 0.  1.
          1   -1    0    0  501    0 -0.00000000000E+00 -0.00000000000E+00 -0.13963785309E+04  0.13963785309E+04  0.00000000000E+00 0. -1.
          2    1    1    2  501    0  0.85060372247E+01 -0.19038871736E+02 -0.10527536441E+02  0.23359373488E+02  0.00000000000E+00 0.  1.
          1    1    1    2  502    0 -0.85060372247E+01  0.19038871736E+02 -0.13793562699E+04  0.13795138820E+04  0.00000000000E+00 0. -1.
</event>
<event>
 4    1  0.3837333E+003  0.2181659E+02  0.7546771E-02  0.1507918E+00
          2   -1    0    0  502    0  0.00000000000E+00  0.00000000000E+00  0.55748982471E+03  0.55748982471E+03  0.00000000000E+00 0. -1.
          1   -1    0    0  501    0 -0.00000000000E+00 -0.00000000000E+00 -0.63635268823E+01  0.63635268823E+01  0.00000000000E+00 0.  1.
          2    1    1    2  501    0 -0.15055198932E+02  0.15789377512E+02  0.53789666152E+03  0.53833890992E+03  0.00000000000E+00 0. -1.
          1    1    1    2  502    0  0.15055198932E+02 -0.15789377512E+02  0.13229636306E+02  0.25514441673E+02  0.00000000000E+00 0.  1.
</event>
<event>
 4    1  0.3837333E+003  0.2761668E+02  0.7546771E-02  0.1441510E+00
          2   -1    0    0  502    0  0.00000000000E+00  0.00000000000E+00  0.85441246336E+00  0.85441246336E+00  0.00000000000E+00 0. -1.
          1   -1    0    0  501    0 -0.00000000000E+00 -0.00000000000E+00 -0.12130912003E+04  0.12130912003E+04  0.00000000000E+00 0.  1.
          2    1    1    2  501    0 -0.13865197833E+02  0.23883825581E+02 -0.29415404142E+03  0.29544759420E+03  0.00000000000E+00 0. -1.
          1    1    1    2  502    0  0.13865197833E+02 -0.23883825581E+02 -0.91808274637E+03  0.91849801851E+03  0.00000000000E+00 0.  1.
</event>
<event>
 4    1  0.3837333E+003  0.3005548E+02  0.7546771E-02  0.1419115E+00
          2   -1    0    0  502    0  0.00000000000E+00  0.00000000000E+00  0.18178046554E+03  0.18178046554E+03  0.00000000000E+00 0. -1.
          1   -1    0    0  501    0 -0.00000000000E+00 -0.00000000000E+00 -0.52378955220E+01  0.52378955220E+01  0.00000000000E+00 0. -1.
          2    1    1    2  501    0 -0.89916231899E+01 -0.28678961416E+02  0.10944410704E+03  0.11349601174E+03  0.00000000000E+00 0. -1.
          1    1    1    2  502    0  0.89916231899E+01  0.28678961416E+02  0.67098462972E+02  0.73522349315E+02  0.00000000000E+00 0. -1.
</event>
<event>
 4    1  0.3837333E+003  0.2417875E+02  0.7546771E-02  0.1478204E+00
          2   -1    0    0  502    0  0.00000000000E+00  0.00000000000E+00  0.53277247429E+03  0.53277247429E+03  0.00000000000E+00 0. -1.
          1   -1    0    0  501    0 -0.00000000000E+00 -0.00000000000E+00 -0.23915540130E+03  0.23915540130E+03  0.00000000000E+00 0. -1.
          2    1    1    2  501    0 -0.13299814193E+02 -0.20192243036E+02  0.53188600987E+03  0.53243529112E+03  0.00000000000E+00 0. -1.
          1    1    1    2  502    0  0.13299814193E+02  0.20192243036E+02 -0.23826893687E+03  0.23949258447E+03  0.00000000000E+00 0. -1.
</event>
<event>
 4    1  0.3837333E+003  0.2830352E+02  0.7546771E-02  0.1434936E+00
          2   -1    0    0  502    0  0.00000000000E+00  0.00000000000E+00  0.58441649972E+00  0.58441649972E+00  0.00000000000E+00 0. -1.
          1   -1    0    0  501    0 -0.00000000000E+00 -0.00000000000E+00 -0.17833078018E+04  0.17833078018E+04  0.00000000000E+00 0. -1.
          2    1    1    2  501    0 -0.55469581926E+01 -0.27754629983E+02 -0.13203727450E+04  0.13206760670E+04  0.00000000000E+00 0. -1.
          1    1    1    2  502    0  0.55469581926E+01  0.27754629983E+02 -0.46235064022E+03  0.46321615121E+03  0.00000000000E+00 0. -1.
</event>
<event>
 4    1  0.3837333E+003  0.1103620E+03  0.7546771E-02  0.1146970E+00
          2   -1    0    0  502    0  0.00000000000E+00  0.00000000000E+00  0.57770681153E+03  0.57770681153E+03  0.00000000000E+00 0. -1.
          1   -1    0    0  501    0 -0.00000000000E+00 -0.00000000000E+00 -0.11831806548E+04  0.11831806548E+04  0.00000000000E+00 0.  1.
          2    1    1    2  501    0 -0.80694489318E+02  0.75287195479E+02  0.56982729455E+03  0.58041615072E+03  0.00000000000E+00 0. -1.
          1    1    1    2  502    0  0.80694489318E+02 -0.75287195479E+02 -0.11753011378E+04  0.11804713156E+04  0.00000000000E+00 0.  1.
</event>
<event>
 4    1  0.3837333E+003  0.2175571E+02  0.7546771E-02  0.1508743E+00
          2   -1    0    0  502    0  0.00000000000E+00  0.00000000000E+00  0.21959126618E+02  0.21959126618E+02  0.00000000000E+00 0.  1.
          1   -1    0    0  501    0 -0.00000000000E+00 -0.00000000000E+00 -0.12532748472E+03  0.12532748472E+03  0.00000000000E+00 0. -1.
          2    1    1    2  501    0 -0.18430882672E+02  0.11559127092E+02  0.15327877646E+02  0.26613054848E+02  0.00000000000E+00 0.  1.
          1    1    1    2  502    0  0.18430882672E+02 -0.11559127092E+02 -0.11869623575E+03  0.12067355649E+03  0.00000000000E+00 0. -1.
</event>
<event>
 4    1  0.3837333E+003  0.3749246E+02  0.7546771E-02  0.1363841E+00
          2   -1    0    0  502    0  0.00000000000E+00  0.00000000000E+00  0.10405279609E+04  0.10405279609E+04  0.00000000000E+00 0.  1.
          1   -1    0    0  501    0 -0.00000000000E+00 -0.00000000000E+00 -0.47301833353E+01  0.47301833353E+01  0.00000000000E+00 0. -1.
          2    1    1    2  501    0  0.31097920231E+02  0.20942865456E+02  0.95963684482E+03  0.96036896982E+03  0.00000000000E+00 0.  1.
          1    1    1    2  502    0 -0.31097920231E+02 -0.20942865456E+02  0.76160932730E+02  0.84889174401E+02  0.00000000000E+00 0. -1.
</event>
<event>
 4    1  0.3837333E+003  0.2367856E+02  0.7546771E-02  0.1484149E+00
          2   -1    0    0  502    0  0.00000000000E+00  0.00000000000E+00  0.39342533791E+03  0.39342533791E+03  0.00000000000E+00 0.  1.
          1   -1    0    0  501    0 -0.00000000000E+00 -0.00000000000E+00 -0.53648826306E+01  0.53648826306E+01  0.00000000000E+00 0.  1.
          2    1    1    2  501    0 -0.70589244967E+01 -0.22601899238E+02  0.36490186755E+03  0.36566931400E+03  0.00000000000E+00 0.  1.
          1    1    1    2  502    0  0.70589244967E+01  0.22601899238E+02  0.23158587737E+02  0.33120906542E+02  0.00000000000E+00 0.  1.
</event>
<event>
 4    1  0.3837333E+003  0.2568973E+02  0.7546771E-02  0.1461233E+00
          2   -1    0    0  502    0  0.00000000000E+00  0.00000000000E+00  0.88158023113E+01  0.88158023113E+01  0.00000000000E+00 0. -1.
          1   -1    0    0  501    0 -0.00000000000E+00 -0.00000000000E+00 -0.10170258497E+04  0.10170258497E+04  0.00000000000E+00 0. -1.
          2    1    1    2  501    0  0.96985344540E+01 -0.23788663487E+02 -0.10422531554E+02  0.27723478228E+02  0.00000000000E+00 0. -1.
          1    1    1    2  502    0 -0.96985344540E+01  0.23788663487E+02 -0.99778751583E+03  0.99811817378E+03  0.00000000000E+00 0. -1.
</event>
<event>
 4    1  0.3837333E+003  0.2734209E+02  0.7546771E-02  0.1444202E+00
          2   -1    0    0  502    0  0.00000000000E+00  0.00000000000E+00  0.16880199528E+02  0.16880199528E+02  0.00000000000E+00 0. -1.
          1   -1    0    0  501    0 -0.00000000000E+00 -0.00000000000E+00 -0.75494511149E+02  0.75494511149E+02  0.00000000000E+00 0. -1.
          2    1    1    2  501    0  0.13939284303E+02  0.23522035768E+02  0.38817766218E+00  0.27344844037E+02  0.00000000000E+00 0. -1.
          1    1    1    2  502    0 -0.13939284303E+02 -0.23522035768E+02 -0.59002489283E+02  0.65029866640E+02  0.00000000000E+00 0. -1.
</event>
<event>
 4    1  0.3837333E+003  0.4623097E+02  0.7546771E-02  0.1315396E+00
          2   -1    0    0  502    0  0.00000000000E+00  0.00000000000E+00  0.80372416349E+03  0.80372416349E+03  0.00000000000E+00 0.  1.
          1   -1    0    0  501    0 -0.00000000000E+00 -0.00000000000E+00 -0.28185078466E+02  0.28185078466E+02  0.00000000000E+00 0.  1.
          2    1    1    2  501    0  0.17772741853E+02  0.42678242407E+02  0.78361554224E+03  0.78497810210E+03  0.00000000000E+00 0.  1.
          1    1    1    2  502    0 -0.17772741853E+02 -0.42678242407E+02 -0.80764572125E+01  0.46931139865E+02  0.00000000000E+00 0.  1.
</event>
<event>
 4    1  0.3837333E+003  0.4049412E+02  0.7546771E-02  0.1345614E+00
          2   -1    0    0  502    0  0.00000000000E+00  0.00000000000E+00  0.56238625866E+01  0.56238625866E+01  0.00000000000E+00 0. -1.
          1   -1    0    0  501    0 -0.00000000000E+00 -0.00000000000E+00 -0.76600908635E+03  0.76600908635E+03  0.00000000000E+00 0. -1.
          2    1    1    2  501    0  0.15784801723E+02 -0.37290939035E+02 -0.76557462203E+02  0.86607269432E+02  0.00000000000E+00 0. -1.
          1    1    1    2  502    0 -0.15784801723E+02  0.37290939035E+02 -0.68382776157E+03  0.68502567951E+03  0.00000000000E+00 0. -1.
</event>
<event>
 4    1  0.3837333E+003  0.3042514E+02  0.7546771E-02  0.1415937E+00
          2   -1    0    0  502    0  0.00000000000E+00  0.00000000000E+00  0.70306715172E+03  0.70306715172E+03  0.00000000000E+00 0. -1.
          1   -1    0    0  501    0 -0.00000000000E+00 -0.00000000000E+00 -0.16379357506E+01  0.16379357506E+01  0.00000000000E+00 0. -1.
          2    1    1    2  501    0 -0.92201048564E+01 -0.28994462776E+02  0.50676997572E+03  0.50768247705E+03  0.00000000000E+00 0. -1.
          1    1    1    2  502    0  0.92201048564E+01  0.28994462776E+02  0.19465924025E+03  0.19702261042E+03  0.00000000000E+00 0. -1.
</event>
<event>
 4    1  0.3837333E+003  0.2733354E+02  0.7546771E-02  0.1444286E+00
          2   -1    0    0  502    0  0.00000000000E+00  0.00000000000E+00  0.40346265560E+03  0.40346265560E+03  0.00000000000E+00 0. -1.
          1   -1    0    0  501    0 -0.00000000000E+00 -0.00000000000E+00 -0.45578350708E+01  0.45578350708E+01  0.00000000000E+00 0.  1.
          2    1    1    2  501    0  0.26531700651E+02 -0.65720083518E+01  0.35664834748E+03  0.35769423562E+03  0.00000000000E+00 0. -1.
          1    1    1    2  502    0 -0.26531700651E+02  0.65720083518E+01  0.42256473048E+02  0.50326255053E+02  0.00000000000E+00 0.  1.
</event>
<event>
 4    1  0.3837333E+003  0.2127954E+02  0.7546771E-02  0.1515311E+00
          2   -1    0    0  502    0  0.00000000000E+00  0.00000000000E+00  0.30215873779E+02  0.30215873779E+02  0.00000000000E+00 0. -1.
          1   -1    0    0  501    0 -0.00000000000E+00 -0.00000000000E+00 -0.12172688902E+03  0.12172688902E+03  0.00000000000E+00 0.  1.
          2    1    1    2  501    0 -0.10794216722E+02 -0.18338586273E+02  0.25385811778E+02  0.33124889446E+02  0.00000000000E+00 0. -1.
          1    1    1    2  502    0  0.10794216722E+02  0.18338586273E+02 -0.11689682702E+03  0.11881787336E+03  0.00000000000E+00 0.  1.
</event>
<event>
 4    1  0.3837333E+003  0.2207217E+02  0.7546771E-02  0.1504490E+00
          2   -1    0    0  502    0  0.00000000000E+00  0.00000000000E+00  0.62458780463E+03  0.62458780463E+03  0.00000000000E+00 0.  1.
          1   -1    0    0  501    0 -0.00000000000E+00 -0.00000000000E+00 -0.22662556970E+01  0.22662556970E+01  0.00000000000E+00 0.  1.
          2    1    1    2  501    0  0.15119245866E+02  0.16080703574E+02  0.56498218886E+03  0.56541317137E+03  0.00000000000E+00 0.  1.
          1    1    1    2  502    0 -0.15119245866E+02 -0.16080703574E+02  0.57339360074E+02  0.61440888964E+02  0.00000000000E+00 0.  1.
</event>
<event>
 4    1  0.3837333E+003  0.2382325E+02  0.7546771E-02  0.1482411E+00
          2   -1    0    0  502    0  0.00000000000E+00  0.00000000000E+00  0.17476858833E+03  0.17476858833E+03  0.00000000000E+00 0. -1.
          1   -1    0    0  501    0 -0.00000000000E+00 -0.00000000000E+00 -0.53696586876E+02  0.53696586876E+02  0.00000000000E+00 0.  1.
          2    1    1    2  501    0 -0.19323225277E+02 -0.13934133938E+02  0.17126048608E+03  0.17290951742E+03  0.00000000000E+00 0. -1.
          1    1    1    2  502    0  0.19323225277E+02  0.13934133938E+02 -0.50188484620E+02  0.55555657787E+02  0.00000000000E+00 0.  1.
</event>
<event>
 4    1  0.3837333E+003  0.2062578E+02  0.7546771E-02  0.1524675E+00
          2   -1    0    0  502    0  0.00000000000E+00  0.00000000000E+00  0.49401234935E+03  0.49401234935E+03  0.00000000000E+00 0.  1.
          1   -1    0    0  501    0 -0.00000000000E+00 -0.00000000000E+00 -0.15245047957E+02  0.15245047957E+02  0.00000000000E+00 0.  1.
          2    1    1    2  501    0  0.20516831272E+02  0.21171641713E+01  0.48671611638E+03  0.48715295411E+03  0.00000000000E+00 0.  1.
          1    1    1    2  502    0 -0.20516831272E+02 -0.21171641713E+01 -0.79488149868E+01  0.22104443202E+02  0.00000000000E+00 0.  1.
</event>
<event>
 4    1  0.3837333E+003  0.2490531E+02  0.7546771E-02  0.1469866E+00
          2   -1    0    0  502    0  0.00000000000E+00  0.00000000000E+00  0.95206808882E+00  0.95206808882E+00  0.00000000000E+00 0. -1.
          1   -1    0    0  501    0 -0.00000000000E+00 -0.00000000000E+00 -0.13950726212E+04  0.13950726212E+04  0.00000000000E+00 0. -1.
          2    1    1    2  501    0  0.89600085447E+01 -0.23237740242E+02 -0.18746453741E+03  0.18911167894E+03  0.00000000000E+00 0. -1.
          1    1    1    2  502    0 -0.89600085447E+01  0.23237740242E+02 -0.12066560157E+04  0.12069130104E+04  0.00000000000E+00 0. -1.
</event>
<event>
 4    1  0.3837333E+003  0.2189089E+02  0.7546771E-02  0.1506915E+00
          2   -1    0    0  502    0  0.00000000000E+00  0.00000000000E+00  0.84904742713E+03  0.84904742713E+03  0.00000000000E+00 0.  1.
          1   -1    0    0  501    0 -0.00000000000E+00 -0.00000000000E+00 -0.72766064493E+02  0.72766064493E+02  0.00000000000E+00 0. -1.
          2    1    1    2  501    0 -0.20217189431E+02  0.83950289977E+01  0.84725643425E+03  0.84753918885E+03  0.00000000000E+00 0.  1.
          1    1    1    2  502    0  0.20217189431E+02 -0.83950289977E+01 -0.70975071618E+02  0.74274302767E+02  0.00000000000E+00 0. -1.
</event>
<event>
 4    1  0.3837333E+003  0.2892862E+02  0.7546771E-02  0.1429141E+00
          2   -1    0    0  502    0  0.00000000000E+00  0.00000000000E+00  0.76770935247E+01  0.76770935247E+01  0.00000000000E+00 0.  1.
          1   -1    0    0  501    0 -0.00000000000E+00 -0.00000000000E+00 -0.11901284872E+03  0.11901284872E+03  0.00000000000E+00 0.  1.
          2    1    1    2  501    0 -0.53184539895E+01  0.28435530051E+02 -0.37301713106E+02  0.47204693863E+02  0.00000000000E+00 0.  1.
          1    1    1    2  502    0  0.53184539895E+01 -0.28435530051E+02 -0.74034042091E+02  0.79485248383E+02  0.00000000000E+00 0.  1.
</event>
<event>
 4    1  0.3837333E+003  0.2895781E+02  0.7546771E-02  0.1428874E+00
          2   -1    0    0  502    0  0.00000000000E+00  0.00000000000E+00  0.24350608232E+01  0.24350608232E+01  0.00000000000E+00 0.  1.
          1   -1    0    0  501    0 -0.00000000000E+00 -0.00000000000E+00 -0.52028004121E+03  0.52028004121E+03  0.00000000000E+00 0.  1.
          2    1    1    2  501    0  0.10603188864E+02  0.26946743616E+02 -0.10694982503E+03  0.11080081083E+03  0.00000000000E+00 0.  1.
          1    1    1    2  502    0 -0.10603188864E+02 -0.26946743616E+02 -0.41089515536E+03  0.41191429121E+03  0.00000000000E+00 0.  1.
</event>
<event>
 4    1  0.3837333E+003  0.3447406E+02  0.7546771E-02  0.1384299E+00
          2   -1    0    0  502    0  0.00000000000E+00  0.00000000000E+00  0.14634743133E+03  0.14634743133E+03  0.00000000000E+00 0.  1.
          1   -1    0    0  501    0 -0.00000000000E+00 -0.00000000000E+00 -0.19372009610E+02  0.19372009610E+02  0.00000000000E+00 0. -1.
          2    1    1    2  501    0  0.27716504710E+02 -0.20500151048E+02  0.12663509869E+03  0.13124370098E+03  0.00000000000E+00 0.  1.
          1    1    1    2  502    0 -0.27716504710E+02  0.20500151048E+02  0.34032303323E+00  0.34475739964E+02  0.00000000000E+00 0. -1.
</event>
<event>
 4    1  0.3837333E+003  0.4824191E+02  0.7546771E-02  0.1305980E+00
          2   -1    0    0  502    0  0.00000000000E+00  0.00000000000E+00  0.23237218225E+04  0.23237218225E+04  0.00000000000E+00 0.  1.
          1   -1    0    0  501    0 -0.00000000000E+00 -0.00000000000E+00 -0.18099903699E+02  0.18099903699E+02  0.00000000000E+00 0. -1.
          2    1    1    2  501    0 -0.44282995642E+02  0.19138930147E+02  0.22908655025E+04  0.22913733945E+04  0.00000000000E+00 0.  1.
          1    1    1    2  502    0  0.44282995642E+02 -0.19138930147E+02  0.14756416275E+02  0.50448331701E+02  0.00000000000E+00 0. -1.
</event>
<event>
 4    1  0.3837333E+003  0.3976866E+02  0.7546771E-02  0.1349847E+00
          2   -1    0    0  502    0  0.00000000000E+00  0.00000000000E+00  0.86460385479E+03  0.86460385479E+03  0.00000000000E+00 0. -1.
          1   -1    0    0  501    0 -0.00000000000E+00 -0.00000000000E+00 -0.99885717166E+02  0.99885717166E+02  0.00000000000E+00 0. -1.
          2    1    1    2  501    0  0.39710727460E+02 -0.21457495029E+01  0.86016775857E+03  0.86108659204E+03  0.00000000000E+00 0. -1.
          1    1    1    2  502    0 -0.39710727460E+02  0.21457495029E+01 -0.95449620944E+02  0.10340297991E+03  0.00000000000E+00 0. -1.
</event>
<event>
 4    1  0.3837333E+003  0.2507983E+02  0.7546771E-02  0.1467912E+00
          2   -1    0    0  502    0  0.00000000000E+00  0.00000000000E+00  0.54363865731E+02  0.54363865731E+02  0.00000000000E+00 0.  1.
          1   -1    0    0  501    0 -0.00000000000E+00 -0.00000000000E+00 -0.18883057026E+03  0.18883057026E+03  0.00000000000E+00 0. -1.
          2    1    1    2  501    0 -0.85446503224E+01  0.23579377330E+02  0.50579690798E+02  0.56456206086E+02  0.00000000000E+00 0.  1.
          1    1    1    2  502    0  0.85446503224E+01 -0.23579377330E+02 -0.18504639533E+03  0.18673822991E+03  0.00000000000E+00 0. -1.
</event>
<event>
 4    1  0.3837333E+003  0.2165635E+02  0.7546771E-02  0.1510097E+00
          2   -1    0    0  502    0  0.00000000000E+00  0.00000000000E+00  0.50292724932E+03  0.50292724932E+03  0.00000000000E+00 0.  1.
          1   -1    0    0  501    0 -0.00000000000E+00 -0.00000000000E+00 -0.25845054844E+01  0.25845054844E+01  0.00000000000E+00 0. -1.
          2    1    1    2  501    0 -0.21537217312E+02 -0.22684074129E+01  0.45224686142E+03  0.45276508375E+03  0.00000000000E+00 0.  1.
          1    1    1    2  502    0  0.21537217312E+02  0.22684074129E+01  0.48095882423E+02  0.52746671058E+02  0.00000000000E+00 0. -1.
</event>
<event>
 4    1  0.3837333E+003  0.2773928E+02  0.7546771E-02  0.1440320E+00
          2   -1    0    0  502    0  0.00000000000E+00  0.00000000000E+00  0.10260018847E+02  0.10260018847E+02  0.00000000000E+00 0.  1.
          1   -1    0    0  501    0 -0.00000000000E+00 -0.00000000000E+00 -0.38066461284E+03  0.38066461284E+03  0.00000000000E+00 0. -1.
          2    1    1    2  501    0  0.26363661366E+02  0.86270090297E+01 -0.10049657199E+02  0.29503619020E+02  0.00000000000E+00 0.  1.
          1    1    1    2  502    0 -0.26363661366E+02 -0.86270090297E+01 -0.36035493679E+03  0.36142101266E+03  0.00000000000E+00 0. -1.
</event>
<event>
 4    1  0.3837333E+003  0.2550580E+02  0.7546771E-02  0.1463224E+00
          2   -1    0    0  502    0  0.00000000000E+00  0.00000000000E+00  0.12638143691E+03  0.12638143691E+03  0.00000000000E+00 0. -1.
          1   -1    0    0  501    0 -0.00000000000E+00 -0.00000000000E+00 -0.87160459640E+01  0.87160459640E+01  0.00000000000E+00 0. -1.
          2    1    1    2  501    0 -0.13859302726E+02  0.21411814198E+02  0.10205464011E+03  0.10519361020E+03  0.00000000000E+00 0. -1.
          1    1    1    2  502    0  0.13859302726E+02 -0.21411814198E+02  0.15610750842E+02  0.29903872678E+02  0.00000000000E+00 0. -1.
</event>
<event>
 4    1  0.3837333E+003  0.3457322E+02  0.7546771E-02  0.1383589E+00
          2   -1    0    0  502    0  0.00000000000E+00  0.00000000000E+00  0.10561543929E+04  0.10561543929E+04  0.00000000000E+00 0. -1.
          1   -1    0    0  501    0 -0.00000000000E+00 -0.00000000000E+00 -0.39691419603E+01  0.39691419603E+01  0.00000000000E+00 0. -1.
          2    1    1    2  501    0  0.27144454563E+02  0.21412296905E+02  0.97425713228E+03  0.97487038506E+03  0.00000000000E+00 0. -1.
          1    1    1    2  502    0 -0.27144454563E+02 -0.21412296905E+02  0.77928118630E+02  0.85253149769E+02  0.00000000000E+00 0. -1.
</event>
<event>
 4    1  0.3837333E+003  0.3776200E+02  0.7546771E-02  0.1362124E+00
          2   -1    0    0  502    0  0.00000000000E+00  0.00000000000E+00  0.43545677110E+03  0.43545677110E+03  0.00000000000E+00 0. -1.
          1   -1    0    0  501    0 -0.00000000000E+00 -0.00000000000E+00 -0.99382506597E+03  0.99382506597E+03  0.00000000000E+00 0. -1.
          2    1    1    2  501    0  0.35660614451E+02  0.12421310749E+02  0.43427843013E+03  0.43591710595E+03  0.00000000000E+00 0. -1.
          1    1    1    2  502    0 -0.35660614451E+02 -0.12421310749E+02 -0.99264672500E+03  0.99336473112E+03  0.00000000000E+00 0. -1.
</event>
<event>
 4    1  0.3837333E+003  0.3891445E+02  0.7546771E-02  0.1354967E+00
          2   -1    0    0  502    0  0.00000000000E+00  0.00000000000E+00  0.16126950626E+04  0.16126950626E+04  0.00000000000E+00 0. -1.
          1   -1    0    0  501    0 -0.00000000000E+00 -0.00000000000E+00 -0.12425935504E+01  0.12425935504E+01  0.00000000000E+00 0.  1.
          2    1    1    2  501    0 -0.37854424465E+02 -0.90209188033E+01  0.12045971567E+04  0.12052255575E+04  0.00000000000E+00 0. -1.
          1    1    1    2  502    0  0.37854424465E+02  0.90209188033E+01  0.40685531227E+03  0.40871209861E+03  0.00000000000E+00 0.  1.
</event>
<event>
 4    1  0.3837333E+003  0.2410603E+02  0.7546771E-02  0.1479058E+00
          2   -1    0    0  502    0  0.00000000000E+00  0.00000000000E+00  0.10198128836E+02  0.10198128836E+02  0.00000000000E+00 0. -1.
          1   -1    0    0  501    0 -0.00000000000E+00 -0.00000000000E+00 -0.69569326182E+02  0.69569326182E+02  0.00000000000E+00 0. -1.
          2    1    1    2  501    0  0.23210503182E+02 -0.65094614781E+01 -0.12719999615E+02  0.27256172455E+02  0.00000000000E+00 0. -1.
          1    1    1    2  502    0 -0.23210503182E+02  0.65094614781E+01 -0.46651197731E+02  0.52511282563E+02  0.00000000000E+00 0. -1.
</event>
<event>
 4    1  0.3837333E+003  0.5135719E+02  0.7546771E-02  0.1292393E+00
          2   -1    0    0  502    0  0.00000000000E+00  0.00000000000E+00  0.44815465367E+03  0.44815465367E+03  0.00000000000E+00 0.  1.
          1   -1    0    0  501    0 -0.00000000000E+00 -0.00000000000E+00 -0.70877235320E+01  0.70877235320E+01  0.00000000000E+00 0.  1.
          2    1    1    2  501    0  0.40456801433E+02  0.31635560532E+02  0.31428387391E+03  0.31845237457E+03  0.00000000000E+00 0.  1.
          1    1    1    2  502    0 -0.40456801433E+02 -0.31635560532E+02  0.12678305623E+03  0.13679000263E+03  0.00000000000E+00 0.  1.
</event>
<event>
 4    1  0.3837333E+003  0.4900831E+02  0.7546771E-02  0.1302530E+00
          2   -1    0    0  502    0  0.00000000000E+00  0.00000000000E+00  0.78000036689E+03  0.78000036689E+03  0.00000000000E+00 0.  1.
          1   -1    0    0  501    0 -0.00000000000E+00 -0.00000000000E+00 -0.62699341603E+01  0.62699341603E+01  0.00000000000E+00 0. -1.
          2    1    1    2  501    0  0.27321598303E+02  0.40685930223E+02  0.66731326536E+03  0.66911046082E+03  0.00000000000E+00 0.  1.
          1    1    1    2  502    0 -0.27321598303E+02 -0.40685930223E+02  0.10641716737E+03  0.11715984023E+03  0.00000000000E+00 0. -1.
</event>
<event>
 4    1  0.3837333E+003  0.2067493E+02  0.7546771E-02  0.1523957E+00
          2   -1    0    0  502    0  0.00000000000E+00  0.00000000000E+00  0.14086224258E+02  0.14086224258E+02  0.00000000000E+00 0. -1.
          1   -1    0    0  501    0 -0.00000000000E+00 -0.00000000000E+00 -0.11510235765E+03  0.11510235765E+03  0.00000000000E+00 0.  1.
          2    1    1    2  501    0 -0.48552335229E+01  0.20096754294E+02  0.49212564097E+01  0.21252566677E+02  0.00000000000E+00 0. -1.
          1    1    1    2  502    0  0.48552335229E+01 -0.20096754294E+02 -0.10593738981E+03  0.10793601523E+03  0.00000000000E+00 0.  1.
</event>
<event>
 4    1  0.3837333E+003  0.2155181E+02  0.7546771E-02  0.1511530E+00
          2   -1    0    0  502    0  0.00000000000E+00  0.00000000000E+00  0.37665723768E+01  0.37665723768E+01  0.00000000000E+00 0.  1.
          1   -1    0    0  501    0 -0.00000000000E+00 -0.00000000000E+00 -0.73906451638E+03  0.73906451638E+03  0.00000000000E+00 0. -1.
          2    1    1    2  501    0  0.21517176090E+02 -0.12213039098E+01 -0.28632798673E+02  0.35837377275E+02  0.00000000000E+00 0.  1.
          1    1    1    2  502    0 -0.21517176090E+02  0.12213039098E+01 -0.70666514533E+03  0.70699371148E+03  0.00000000000E+00 0. -1.
</event>
<event>
 4    1  0.3837333E+003  0.3944567E+02  0.7546771E-02  0.1351765E+00
          2   -1    0    0  502    0  0.00000000000E+00  0.00000000000E+00  0.10593873479E+04  0.10593873479E+04  0.00000000000E+00 0. -1.
          1   -1    0    0  501    0 -0.00000000000E+00 -0.00000000000E+00 -0.18903548176E+01  0.18903548176E+01  0.00000000000E+00 0.  1.
          2    1    1    2  501    0  0.39066506500E+02 -0.54560770110E+01  0.77935203153E+03  0.78034963302E+03  0.00000000000E+00 0. -1.
          1    1    1    2  502    0 -0.39066506500E+02  0.54560770110E+01  0.27814496159E+03  0.28092806973E+03  0.00000000000E+00 0.  1.
</event>
<event>
 4    1  0.3837333E+003  0.2725847E+02  0.7546771E-02  0.1445029E+00
          2   -1    0    0  502    0  0.00000000000E+00  0.00000000000E+00  0.67160297642E+03  0.67160297642E+03  0.00000000000E+00 0. -1.
          1   -1    0    0  501    0 -0.00000000000E+00 -0.00000000000E+00 -0.40497381376E+01  0.40497381376E+01  0.00000000000E+00 0. -1.
          2    1    1    2  501    0 -0.11301636365E+02 -0.24805181253E+02  0.62178442661E+03  0.62238163306E+03  0.00000000000E+00 0. -1.
          1    1    1    2  502    0  0.11301636365E+02  0.24805181253E+02  0.45768811671E+02  0.53271081492E+02  0.00000000000E+00 0. -1.
</event>
<event>
 4    1  0.3837333E+003  0.2176928E+02  0.7546771E-02  0.1508559E+00
          2   -1    0    0  502    0  0.00000000000E+00  0.00000000000E+00  0.24709294631E+03  0.24709294631E+03  0.00000000000E+00 0.  1.
          1   -1    0    0  501    0 -0.00000000000E+00 -0.00000000000E+00 -0.17045601934E+03  0.17045601934E+03  0.00000000000E+00 0.  1.
          2    1    1    2  501    0  0.47103909629E+01  0.21253557730E+02  0.24591509728E+03  0.24687676393E+03  0.00000000000E+00 0.  1.
          1    1    1    2  502    0 -0.47103909629E+01 -0.21253557730E+02 -0.16927817030E+03  0.17067220172E+03  0.00000000000E+00 0.  1.
</event>
<event>
 4    1  0.3837333E+003  0.3237306E+02  0.7546771E-02  0.1400036E+00
          2   -1    0    0  502    0  0.00000000000E+00  0.00000000000E+00  0.31990362905E+01  0.31990362905E+01  0.00000000000E+00 0. -1.
          1   -1    0    0  501    0 -0.00000000000E+00 -0.00000000000E+00 -0.47567705093E+03  0.47567705093E+03  0.00000000000E+00 0.  1.
          2    1    1    2  501    0 -0.84773932750E+01 -0.31243375458E+02 -0.10264832802E+03  0.10763221614E+03  0.00000000000E+00 0. -1.
          1    1    1    2  502    0  0.84773932750E+01  0.31243375458E+02 -0.36982968662E+03  0.37124387108E+03  0.00000000000E+00 0.  1.
</event>
<event>
 4    1  0.3837333E+003  0.5823158E+02  0.7546771E-02  0.1265962E+00
          2   -1    0    0  502    0  0.00000000000E+00  0.00000000000E+00  0.59405012713E+02  0.59405012713E+02  0.00000000000E+00 0.  1.
          1   -1    0    0  501    0 -0.00000000000E+00 -0.00000000000E+00 -0.58800345904E+02  0.58800345904E+02  0.00000000000E+00 0.  1.
          2    1    1    2  501    0 -0.57673408108E+02  0.80431321124E+01 -0.98033081529E+01  0.59050984985E+02  0.00000000000E+00 0.  1.
          1    1    1    2  502    0  0.57673408108E+02 -0.80431321124E+01  0.10407974963E+02  0.59154373632E+02  0.00000000000E+00 0.  1.
</event>
<event>
 4    1  0.3837333E+003  0.2977391E+02  0.7546771E-02  0.1421572E+00
          2   -1    0    0  502    0  0.00000000000E+00  0.00000000000E+00  0.26025261479E+03  0.26025261479E+03  0.00000000000E+00 0. -1.
          1   -1    0    0  501    0 -0.00000000000E+00 -0.00000000000E+00 -0.22127884863E+02  0.22127884863E+02  0.00000000000E+00 0.  1.
          2    1    1    2  501    0 -0.15874168779E+02 -0.25189208451E+02  0.24893170725E+03  0.25070596390E+03  0.00000000000E+00 0. -1.
          1    1    1    2  502    0  0.15874168779E+02  0.25189208451E+02 -0.10806977322E+02  0.31674535761E+02  0.00000000000E+00 0.  1.
</event>
<event>
 4    1  0.3837333E+003  0.2170186E+02  0.7546771E-02  0.1509476E+00
          2   -1    0    0  502    0  0.00000000000E+00  0.00000000000E+00  0.32324970904E+02  0.32324970904E+02  0.00000000000E+00 0. -1.
          1   -1    0    0  501    0 -0.00000000000E+00 -0.00000000000E+00 -0.29144652005E+03  0.29144652005E+03  0.00000000000E+00 0. -1.
          2    1    1    2  501    0  0.11484593815E+02 -0.18413986475E+02  0.28226630607E+02  0.35604964098E+02  0.00000000000E+00 0. -1.
          1    1    1    2  502    0 -0.11484593815E+02  0.18413986475E+02 -0.28734817975E+03  0.28816652686E+03  0.00000000000E+00 0. -1.
</event>
<event>
 4    1  0.3837333E+003  0.2331015E+02  0.7546771E-02  0.1488640E+00
          2   -1    0    0  502    0  0.00000000000E+00  0.00000000000E+00  0.28524294525E+03  0.28524294525E+03  0.00000000000E+00 0.  1.
          1   -1    0    0  501    0 -0.00000000000E+00 -0.00000000000E+00 -0.88938289898E+03  0.88938289898E+03  0.00000000000E+00 0.  1.
          2    1    1    2  501    0 -0.83371537259E+00  0.23295240352E+02  0.28461364353E+03  0.28556661113E+03  0.00000000000E+00 0.  1.
          1    1    1    2  502    0  0.83371537259E+00 -0.23295240352E+02 -0.88875359726E+03  0.88905923310E+03  0.00000000000E+00 0.  1.
</event>
<event>
 4    1  0.3837333E+003  0.2093898E+02  0.7546771E-02  0.1520138E+00
          2   -1    0    0  502    0  0.00000000000E+00  0.00000000000E+00  0.17830534633E+02  0.17830534633E+02  0.00000000000E+00 0. -1.
          1   -1    0    0  501    0 -0.00000000000E+00 -0.00000000000E+00 -0.26990165156E+02  0.26990165156E+02  0.00000000000E+00 0. -1.
          2    1    1    2  501    0  0.76293918938E+01 -0.19499571520E+02  0.21040392303E+01  0.21044426607E+02  0.00000000000E+00 0. -1.
          1    1    1    2  502    0 -0.76293918938E+01  0.19499571520E+02 -0.11263669754E+02  0.23776273183E+02  0.00000000000E+00 0. -1.
</event>
<event>
 4    1  0.3837333E+003  0.3368114E+02  0.7546771E-02  0.1390080E+00
          2   -1    0    0  502    0  0.00000000000E+00  0.00000000000E+00  0.10538156411E+01  0.10538156411E+01  0.00000000000E+00 0. -1.
          1   -1    0    0  501    0 -0.00000000000E+00 -0.00000000000E+00 -0.14531496509E+04  0.14531496509E+04  0.00000000000E+00 0.  1.
          2    1    1    2  501    0 -0.14438690577E+02  0.30429315702E+02 -0.35586516712E+03  0.35745550242E+03  0.00000000000E+00 0. -1.
          1    1    1    2  502    0  0.14438690577E+02 -0.30429315702E+02 -0.10962306681E+04  0.10967479641E+04  0.00000000000E+00 0.  1.
</event>
<event>
 4    1  0.3837333E+003  0.2510308E+02  0.7546771E-02  0.1467653E+00
          2   -1    0    0  502    0  0.00000000000E+00  0.00000000000E+00  0.38717193483E+02  0.38717193483E+02  0.00000000000E+00 0. -1.
          1   -1    0    0  501    0 -0.00000000000E+00 -0.00000000000E+00 -0.14005802131E+03  0.14005802131E+03  0.00000000000E+00 0.  1.
          2    1    1    2  501    0  0.18835448439E+02  0.16594896308E+02  0.33362986741E+02  0.41752288388E+02  0.00000000000E+00 0. -1.
          1    1    1    2  502    0 -0.18835448439E+02 -0.16594896308E+02 -0.13470381456E+03  0.13702292640E+03  0.00000000000E+00 0.  1.
</event>
<event>
 4    1  0.3837333E+003  0.2189950E+02  0.7546771E-02  0.1506800E+00
          2   -1    0    0  502    0  0.00000000000E+00  0.00000000000E+00  0.46291390530E+03  0.46291390530E+03  0.00000000000E+00 0. -1.
          1   -1    0    0  501    0 -0.00000000000E+00 -0.00000000000E+00 -0.18421971050E+01  0.18421971050E+01  0.00000000000E+00 0. -1.
          2    1    1    2  501    0  0.15527962261E+02 -0.15442482775E+02  0.38426010704E+03  0.38488364183E+03  0.00000000000E+00 0. -1.
          1    1    1    2  502    0 -0.15527962261E+02  0.15442482775E+02  0.76811601153E+02  0.79872460572E+02  0.00000000000E+00 0. -1.
</event>
<event>
 4    1  0.3837333E+003  0.2101838E+02  0.7546771E-02  0.1519003E+00
          2   -1    0    0  502    0  0.00000000000E+00  0.00000000000E+00  0.13812684297E+03  0.13812684297E+03  0.00000000000E+00 0. -1.
          1   -1    0    0  501    0 -0.00000000000E+00 -0.00000000000E+00 -0.50522175711E+01  0.50522175711E+01  0.00000000000E+00 0. -1.
          2    1    1    2  501    0 -0.18568642882E+02  0.98477246677E+01  0.10990365264E+03  0.11189542012E+03  0.00000000000E+00 0. -1.
          1    1    1    2  502    0  0.18568642882E+02 -0.98477246677E+01  0.23170972761E+02  0.31283640426E+02  0.00000000000E+00 0. -1.
</event>
<event>
 4    1  0.3837333E+003  0.4660039E+02  0.7546771E-02  0.1313625E+00
          2   -1    0    0  502    0  0.00000000000E+00  0.00000000000E+00  0.26030958435E+04  0.26030958435E+04  0.00000000000E+00 0. -1.
          1   -1    0    0  501    0 -0.00000000000E+00 -0.00000000000E+00 -0.29383971695E+01  0.29383971695E+01  0.00000000000E+00 0. -1.
          2    1    1    2  501    0  0.32732438175E+02 -0.33169012770E+02  0.24027203607E+04  0.24031722218E+04  0.00000000000E+00 0. -1.
          1    1    1    2  502    0 -0.32732438175E+02  0.33169012770E+02  0.19743708565E+03  0.20286201888E+03  0.00000000000E+00 0. -1.
</event>
<event>
 4    1  0.3837333E+003  0.2125050E+02  0.7546771E-02  0.1515718E+00
          2   -1    0    0  502    0  0.00000000000E+00  0.00000000000E+00  0.14892578831E+04  0.14892578831E+04  0.00000000000E+00 0. -1.
          1   -1    0    0  501    0 -0.00000000000E+00 -0.00000000000E+00 -0.11356398498E+03  0.11356398498E+03  0.00000000000E+00 0.  1.
          2    1    1    2  501    0 -0.20948884867E+02 -0.35676212253E+01  0.14881872438E+04  0.14883389588E+04  0.00000000000E+00 0. -1.
          1    1    1    2  502    0  0.20948884867E+02  0.35676212253E+01 -0.11249334567E+03  0.11448290928E+03  0.00000000000E+00 0.  1.
</event>
<event>
 4    1  0.3837333E+003  0.2701595E+02  0.7546771E-02  0.1447448E+00
          2   -1    0    0  502    0  0.00000000000E+00  0.00000000000E+00  0.24129819089E+03  0.24129819089E+03  0.00000000000E+00 0. -1.
          1   -1    0    0  501    0 -0.00000000000E+00 -0.00000000000E+00 -0.24643342826E+03  0.24643342826E+03  0.00000000000E+00 0. -1.
          2    1    1    2  501    0  0.11471603446E+02 -0.24459438046E+02  0.23979696282E+03  0.24131399705E+03  0.00000000000E+00 0. -1.
          1    1    1    2  502    0 -0.11471603446E+02  0.24459438046E+02 -0.24493220019E+03  0.24641762210E+03  0.00000000000E+00 0. -1.
</event>
<event>
 4    1  0.3837333E+003  0.2865087E+02  0.7546771E-02  0.1431694E+00
          2   -1    0    0  502    0  0.00000000000E+00  0.00000000000E+00  0.52752870535E+02  0.52752870535E+02  0.00000000000E+00 0. -1.
          1   -1    0    0  501    0 -0.00000000000E+00 -0.00000000000E+00 -0.77537444244E+02  0.77537444244E+02  0.00000000000E+00 0. -1.
          2    1    1    2  501    0  0.24641713673E+02 -0.14617051839E+02  0.45850310149E+02  0.54065915307E+02  0.00000000000E+00 0. -1.
          1    1    1    2  502    0 -0.24641713673E+02  0.14617051839E+02 -0.70634883859E+02  0.76224399472E+02  0.00000000000E+00 0. -1.
</event>
<event>
 4    1  0.3837333E+003  0.2823338E+02  0.7546771E-02  0.1435597E+00
          2   -1    0    0  502    0  0.00000000000E+00  0.00000000000E+00  0.51102261299E+03  0.51102261299E+03  0.00000000000E+00 0.  1.
          1   -1    0    0  501    0 -0.00000000000E+00 -0.00000000000E+00 -0.12336272738E+02  0.12336272738E+02  0.00000000000E+00 0. -1.
          2    1    1    2  501    0 -0.14922567908E+02  0.23967489627E+02  0.49391967764E+03  0.49472595601E+03  0.00000000000E+00 0.  1.
          1    1    1    2  502    0  0.14922567908E+02 -0.23967489627E+02  0.47666626191E+01  0.28632929723E+02  0.00000000000E+00 0. -1.
</event>
<event>
 4    1  0.3837333E+003  0.2727460E+02  0.7546771E-02  0.1444869E+00
          2   -1    0    0  502    0  0.00000000000E+00  0.00000000000E+00  0.62484954828E+01  0.62484954828E+01  0.00000000000E+00 0.  1.
          1   -1    0    0  501    0 -0.00000000000E+00 -0.00000000000E+00 -0.12546514962E+03  0.12546514962E+03  0.00000000000E+00 0. -1.
          2    1    1    2  501    0 -0.27263910267E+02 -0.76371148282E+00 -0.44720524311E+02  0.52381574556E+02  0.00000000000E+00 0.  1.
          1    1    1    2  502    0  0.27263910267E+02  0.76371148282E+00 -0.74496129829E+02  0.79332070550E+02  0.00000000000E+00 0. -1.
</event>
<event>
 4    1  0.3837333E+003  0.3487361E+02  0.7546771E-02  0.1381454E+00
          2   -1    0    0  502    0  0.00000000000E+00  0.00000000000E+00  0.22004003456E+04  0.22004003456E+04  0.00000000000E+00 0.  1.
          1   -1    0    0  501    0 -0.00000000000E+00 -0.00000000000E+00 -0.29683065448E+02  0.29683065448E+02  0.00000000000E+00 0.  1.
          2    1    1    2  501    0 -0.10430050620E+02 -0.33277359815E+02  0.21899704400E+04  0.21902480902E+04  0.00000000000E+00 0.  1.
          1    1    1    2  502    0  0.10430050620E+02  0.33277359815E+02 -0.19253159758E+02  0.39835320921E+02  0.00000000000E+00 0.  1.
</event>
<event>
 4    1  0.3837333E+003  0.2568898E+02  0.7546771E-02  0.1461241E+00
          2   -1    0    0  502    0  0.00000000000E+00  0.00000000000E+00  0.20876452663E+02  0.20876452663E+02  0.00000000000E+00 0.  1.
          1   -1    0    0  501    0 -0.00000000000E+00 -0.00000000000E+00 -0.35236703289E+03  0.35236703289E+03  0.00000000000E+00 0. -1.
          2    1    1    2  501    0 -0.22730597387E+02  0.11968446155E+02  0.12308851769E+02  0.28485638360E+02  0.00000000000E+00 0.  1.
          1    1    1    2  502    0  0.22730597387E+02 -0.11968446155E+02 -0.34379943200E+03  0.34475784719E+03  0.00000000000E+00 0. -1.
</event>
<event>
 4    1  0.3837333E+003  0.2451043E+02  0.7546771E-02  0.1474355E+00
          2   -1    0    0  502    0  0.00000000000E+00  0.00000000000E+00  0.85856001763E+02  0.85856001763E+02  0.00000000000E+00 0.  1.
          1   -1    0    0  501    0 -0.00000000000E+00 -0.00000000000E+00 -0.13339131997E+02  0.13339131997E+02  0.00000000000E+00 0. -1.
          2    1    1    2  501    0 -0.24406937218E+02 -0.22500348363E+01  0.70456657755E+02  0.74598269840E+02  0.00000000000E+00 0.  1.
          1    1    1    2  502    0  0.24406937218E+02  0.22500348363E+01  0.20602120114E+01  0.24596863920E+02  0.00000000000E+00 0. -1.
</event>
<event>
 4    1  0.3837333E+003  0.2355919E+02  0.7546771E-02  0.1485593E+00
          2   -1    0    0  502    0  0.00000000000E+00  0.00000000000E+00  0.15256227306E+04  0.15256227306E+04  0.00000000000E+00 0.  1.
          1   -1    0    0  501    0 -0.00000000000E+00 -0.00000000000E+00 -0.10544295860E+02  0.10544295860E+02  0.00000000000E+00 0. -1.
          2    1    1    2  501    0 -0.10360517190E+02  0.21158806407E+02  0.15122558543E+04  0.15124393556E+04  0.00000000000E+00 0.  1.
          1    1    1    2  502    0  0.10360517190E+02 -0.21158806407E+02  0.28225804242E+01  0.23727670878E+02  0.00000000000E+00 0. -1.
</event>
<event>
 4    1  0.3837333E+003  0.2098619E+02  0.7546771E-02  0.1519462E+00
          2   -1    0    0  502    0  0.00000000000E+00  0.00000000000E+00  0.44789138189E+01  0.44789138189E+01  0.00000000000E+00 0. -1.
          1   -1    0    0  501    0 -0.00000000000E+00 -0.00000000000E+00 -0.22774919646E+03  0.22774919646E+03  0.00000000000E+00 0. -1.
          2    1    1    2  501    0  0.18594376474E+02  0.97298089497E+01 -0.24106021754E+02  0.31961231257E+02  0.00000000000E+00 0. -1.
          1    1    1    2  502    0 -0.18594376474E+02 -0.97298089497E+01 -0.19916426089E+03  0.20026687902E+03  0.00000000000E+00 0. -1.
</event>
<event>
 4    1  0.3837333E+003  0.2642363E+02  0.7546771E-02  0.1453485E+00
          2   -1    0    0  502    0  0.00000000000E+00  0.00000000000E+00  0.79854389378E+01  0.79854389378E+01  0.00000000000E+00 0.  1.
          1   -1    0    0  501    0 -0.00000000000E+00 -0.00000000000E+00 -0.23182552266E+03  0.23182552266E+03  0.00000000000E+00 0.  1.
          2    1    1    2  501    0 -0.64085454165E+01 -0.25634719900E+02 -0.17290338357E+02  0.31577905554E+02  0.00000000000E+00 0.  1.
          1    1    1    2  502    0  0.64085454165E+01  0.25634719900E+02 -0.20654974536E+03  0.20823305604E+03  0.00000000000E+00 0.  1.
</event>
<event>
 4    1  0.4214267E+003  0.2898529E+02  0.7546771E-02  0.1428624E+00
          2   -1    0    0  502    0  0.00000000000E+00  0.00000000000E+00  0.85099002687E+03  0.85099002687E+03  0.00000000000E+00 0.  1.
          1   -1    0    0  501    0 -0.00000000000E+00 -0.00000000000E+00 -0.52514054488E+03  0.52514054488E+03  0.00000000000E+00 0.  1.
          2    1    1    2  501    0 -0.28714984481E+02 -0.39492952516E+01  0.85034294488E+03  0.85083680643E+03  0.00000000000E+00 0.  1.
          1    1    1    2  502    0  0.28714984481E+02  0.39492952516E+01 -0.52449346289E+03  0.52529376532E+03  0.00000000000E+00 0.  1.
</event>
<event>
 4    1  0.3837333E+003  0.6438945E+02  0.7546771E-02  0.1245606E+00
          2   -1    0    0  502    0  0.00000000000E+00  0.00000000000E+00  0.29417787580E+02  0.29417787580E+02  0.00000000000E+00 0.  1.
          1   -1    0    0  501    0 -0.00000000000E+00 -0.00000000000E+00 -0.20651470037E+03  0.20651470037E+03  0.00000000000E+00 0.  1.
          2    1    1    2  501    0 -0.27750401484E+02  0.58102641520E+02 -0.22072235462E+02  0.68067505555E+02  0.00000000000E+00 0.  1.
          1    1    1    2  502    0  0.27750401484E+02 -0.58102641520E+02 -0.15502467733E+03  0.16786498240E+03  0.00000000000E+00 0.  1.
</event>
<event>
 4    1  0.3837333E+003  0.3232868E+02  0.7546771E-02  0.1400383E+00
          2   -1    0    0  502    0  0.00000000000E+00  0.00000000000E+00  0.38437720346E+02  0.38437720346E+02  0.00000000000E+00 0.  1.
          1   -1    0    0  501    0 -0.00000000000E+00 -0.00000000000E+00 -0.56250978934E+03  0.56250978934E+03  0.00000000000E+00 0.  1.
          2    1    1    2  501    0 -0.32172457620E+02 -0.31743536654E+01  0.31085630866E+02  0.44849303193E+02  0.00000000000E+00 0.  1.
          1    1    1    2  502    0  0.32172457620E+02  0.31743536654E+01 -0.55515769986E+03  0.55609820650E+03  0.00000000000E+00 0.  1.
</event>
<event>
 4    1  0.3837333E+003  0.7550053E+02  0.7546771E-02  0.1214697E+00
          2   -1    0    0  502    0  0.00000000000E+00  0.00000000000E+00  0.29490321198E+02  0.29490321198E+02  0.00000000000E+00 0.  1.
          1   -1    0    0  501    0 -0.00000000000E+00 -0.00000000000E+00 -0.22888113684E+03  0.22888113684E+03  0.00000000000E+00 0.  1.
          2    1    1    2  501    0  0.54201894770E+02  0.52559340311E+02 -0.48756412808E+02  0.89875010100E+02  0.00000000000E+00 0.  1.
          1    1    1    2  502    0 -0.54201894770E+02 -0.52559340311E+02 -0.15063440283E+03  0.16849644794E+03  0.00000000000E+00 0.  1.
</event>
<event>
 4    1  0.3837333E+003  0.2216123E+02  0.7546771E-02  0.1503308E+00
          2   -1    0    0  502    0  0.00000000000E+00  0.00000000000E+00  0.46294600645E+02  0.46294600645E+02  0.00000000000E+00 0. -1.
          1   -1    0    0  501    0 -0.00000000000E+00 -0.00000000000E+00 -0.14937686443E+03  0.14937686443E+03  0.00000000000E+00 0. -1.
          2    1    1    2  501    0  0.22050620969E+02  0.22113895678E+01  0.42756532491E+02  0.48158500803E+02  0.00000000000E+00 0. -1.
          1    1    1    2  502    0 -0.22050620969E+02 -0.22113895678E+01 -0.14583879627E+03  0.14751296427E+03  0.00000000000E+00 0. -1.
</event>
<event>
 4    1  0.3837333E+003  0.2246658E+02  0.7546771E-02  0.1499307E+00
          2   -1    0    0  502    0  0.00000000000E+00  0.00000000000E+00  0.87941667580E+03  0.87941667580E+03  0.00000000000E+00 0.  1.
          1   -1    0    0  501    0 -0.00000000000E+00 -0.00000000000E+00 -0.27307843841E+02  0.27307843841E+02  0.00000000000E+00 0. -1.
          2    1    1    2  501    0  0.27341355034E+01  0.22299591780E+02  0.87462698520E+03  0.87491548765E+03  0.00000000000E+00 0.  1.
          1    1    1    2  502    0 -0.27341355034E+01 -0.22299591780E+02 -0.22518153244E+02  0.31809031988E+02  0.00000000000E+00 0. -1.
</event>
<event>
 4    1  0.3837333E+003  0.4213068E+02  0.7546771E-02  0.1336433E+00
          2   -1    0    0  502    0  0.00000000000E+00  0.00000000000E+00  0.15260823925E+03  0.15260823925E+03  0.00000000000E+00 0. -1.
          1   -1    0    0  501    0 -0.00000000000E+00 -0.00000000000E+00 -0.15246341049E+03  0.15246341049E+03  0.00000000000E+00 0. -1.
          2    1    1    2  501    0 -0.32797102496E+01  0.42002832013E+02  0.14667453944E+03  0.15260542231E+03  0.00000000000E+00 0. -1.
          1    1    1    2  502    0  0.32797102496E+01 -0.42002832013E+02 -0.14652971068E+03  0.15246622743E+03  0.00000000000E+00 0. -1.
</event>
<event>
 4    1  0.3837333E+003  0.2248005E+02  0.7546771E-02  0.1499132E+00
          2   -1    0    0  502    0  0.00000000000E+00  0.00000000000E+00  0.55255433242E+02  0.55255433242E+02  0.00000000000E+00 0.  1.
          1   -1    0    0  501    0 -0.00000000000E+00 -0.00000000000E+00 -0.30423943631E+02  0.30423943631E+02  0.00000000000E+00 0.  1.
          2    1    1    2  501    0 -0.19187763436E+02 -0.11712482489E+02  0.48242370262E+02  0.53222916120E+02  0.00000000000E+00 0.  1.
          1    1    1    2  502    0  0.19187763436E+02  0.11712482489E+02 -0.23410880651E+02  0.32456460753E+02  0.00000000000E+00 0.  1.
</event>
<event>
 4    1  0.3837333E+003  0.3221048E+02  0.7546771E-02  0.1401312E+00
          2   -1    0    0  502    0  0.00000000000E+00  0.00000000000E+00  0.92433350472E+01  0.92433350472E+01  0.00000000000E+00 0. -1.
          1   -1    0    0  501    0 -0.00000000000E+00 -0.00000000000E+00 -0.47032548021E+03  0.47032548021E+03  0.00000000000E+00 0.  1.
          2    1    1    2  501    0  0.51023659416E+01  0.31803788043E+02 -0.21316730800E+02  0.38625355456E+02  0.00000000000E+00 0. -1.
          1    1    1    2  502    0 -0.51023659416E+01 -0.31803788043E+02 -0.43976541436E+03  0.44094345980E+03  0.00000000000E+00 0.  1.
</event>
<event>
 4    1  0.3837333E+003  0.2546507E+02  0.7546771E-02  0.1463667E+00
          2   -1    0    0  502    0  0.00000000000E+00  0.00000000000E+00  0.29989498891E+01  0.29989498891E+01  0.00000000000E+00 0. -1.
          1   -1    0    0  501    0 -0.00000000000E+00 -0.00000000000E+00 -0.76603756085E+03  0.76603756085E+03  0.00000000000E+00 0. -1.
          2    1    1    2  501    0 -0.13474057582E+02 -0.21608316399E+02 -0.55760314235E+02  0.61299936451E+02  0.00000000000E+00 0. -1.
          1    1    1    2  502    0  0.13474057582E+02  0.21608316399E+02 -0.70727829673E+03  0.70773657429E+03  0.00000000000E+00 0. -1.
</event>
<event>
 4    1  0.3837333E+003  0.2278464E+02  0.7546771E-02  0.1495220E+00
          2   -1    0    0  502    0  0.00000000000E+00  0.00000000000E+00  0.13619889792E+01  0.13619889792E+01  0.00000000000E+00 0. -1.
          1   -1    0    0  501    0 -0.00000000000E+00 -0.00000000000E+00 -0.14062317767E+04  0.14062317767E+04  0.00000000000E+00 0. -1.
          2    1    1    2  501    0 -0.20872265034E+02  0.91371862994E+01 -0.10154428514E+03  0.10406911870E+03  0.00000000000E+00 0. -1.
          1    1    1    2  502    0  0.20872265034E+02 -0.91371862994E+01 -0.13033255025E+04  0.13035246470E+04  0.00000000000E+00 0. -1.
</event>
<event>
 4    1  0.3837333E+003  0.2127173E+02  0.7546771E-02  0.1515420E+00
          2   -1    0    0  502    0  0.00000000000E+00  0.00000000000E+00  0.14524793789E+01  0.14524793789E+01  0.00000000000E+00 0.  1.
          1   -1    0    0  501    0 -0.00000000000E+00 -0.00000000000E+00 -0.36835674831E+03  0.36835674831E+03  0.00000000000E+00 0.  1.
          2    1    1    2  501    0 -0.40586462048E+01  0.20880939756E+02 -0.25607979589E+03  0.25696176392E+03  0.00000000000E+00 0.  1.
          1    1    1    2  502    0  0.40586462048E+01 -0.20880939756E+02 -0.11082447304E+03  0.11284746377E+03  0.00000000000E+00 0.  1.
</event>
<event>
 4    1  0.3837333E+003  0.2066761E+02  0.7546771E-02  0.1524064E+00
          2   -1    0    0  502    0  0.00000000000E+00  0.00000000000E+00  0.18389910716E+02  0.18389910716E+02  0.00000000000E+00 0.  1.
          1   -1    0    0  501    0 -0.00000000000E+00 -0.00000000000E+00 -0.73789858106E+03  0.73789858106E+03  0.00000000000E+00 0.  1.
          2    1    1    2  501    0  0.20666907759E+02  0.17002400918E+00  0.12390752453E+02  0.24097317918E+02  0.00000000000E+00 0.  1.
          1    1    1    2  502    0 -0.20666907759E+02 -0.17002400918E+00 -0.73189942280E+03  0.73219117386E+03  0.00000000000E+00 0.  1.
</event>
<event>
 4    1  0.3837333E+003  0.3367256E+02  0.7546771E-02  0.1390144E+00
          2   -1    0    0  502    0  0.00000000000E+00  0.00000000000E+00  0.95332445520E+03  0.95332445520E+03  0.00000000000E+00 0. -1.
          1   -1    0    0  501    0 -0.00000000000E+00 -0.00000000000E+00 -0.68322400556E+01  0.68322400556E+01  0.00000000000E+00 0. -1.
          2    1    1    2  501    0 -0.30996696624E+02  0.13154689588E+02  0.90954204420E+03  0.91016513404E+03  0.00000000000E+00 0. -1.
          1    1    1    2  502    0  0.30996696624E+02 -0.13154689588E+02  0.36950170947E+02  0.49991561216E+02  0.00000000000E+00 0. -1.
</event>
<event>
 4    1  0.3837333E+003  0.2321056E+02  0.7546771E-02  0.1489871E+00
          2   -1    0    0  502    0  0.00000000000E+00  0.00000000000E+00  0.57390377326E+02  0.57390377326E+02  0.00000000000E+00 0. -1.
          1   -1    0    0  501    0 -0.00000000000E+00 -0.00000000000E+00 -0.11350211572E+02  0.11350211572E+02  0.00000000000E+00 0. -1.
          2    1    1    2  501    0 -0.62707102792E+01 -0.22347442615E+02  0.37314032503E+02  0.43943907661E+02  0.00000000000E+00 0. -1.
          1    1    1    2  502    0  0.62707102792E+01  0.22347442615E+02  0.87261332506E+01  0.24796681237E+02  0.00000000000E+00 0. -1.
</event>
<event>
 4    1  0.3837333E+003  0.2429207E+02  0.7546771E-02  0.1476881E+00
          2   -1    0    0  502    0  0.00000000000E+00  0.00000000000E+00  0.13076534895E+03  0.13076534895E+03  0.00000000000E+00 0.  1.
          1   -1    0    0  501    0 -0.00000000000E+00 -0.00000000000E+00 -0.57409960827E+01  0.57409960827E+01  0.00000000000E+00 0.  1.
          2    1    1    2  501    0 -0.23892898989E+02  0.43856420310E+01  0.94082655552E+02  0.97168156069E+02  0.00000000000E+00 0.  1.
          1    1    1    2  502    0  0.23892898989E+02 -0.43856420310E+01  0.30941697312E+02  0.39338188960E+02  0.00000000000E+00 0.  1.
</event>
<event>
 4    1  0.3837333E+003  0.2116733E+02  0.7546771E-02  0.1516889E+00
          2   -1    0    0  502    0  0.00000000000E+00  0.00000000000E+00  0.17717923914E+02  0.17717923914E+02  0.00000000000E+00 0.  1.
          1   -1    0    0  501    0 -0.00000000000E+00 -0.00000000000E+00 -0.35053127422E+02  0.35053127422E+02  0.00000000000E+00 0.  1.
          2    1    1    2  501    0  0.19511232193E+02 -0.82077642386E+01 -0.22593890772E+02  0.30960288689E+02  0.00000000000E+00 0.  1.
          1    1    1    2  502    0 -0.19511232193E+02  0.82077642386E+01  0.52586872639E+01  0.21810762647E+02  0.00000000000E+00 0.  1.
</event>
<event>
 4    1  0.3837333E+003  0.3074217E+02  0.7546771E-02  0.1413254E+00
          2   -1    0    0  502    0  0.00000000000E+00  0.00000000000E+00  0.28668430272E+03  0.28668430272E+03  0.00000000000E+00 0.  1.
          1   -1    0    0  501    0 -0.00000000000E+00 -0.00000000000E+00 -0.43864591817E+01  0.43864591817E+01  0.00000000000E+00 0.  1.
          2    1    1    2  501    0 -0.17395302177E+02 -0.25347273164E+02  0.21369243686E+03  0.21589242313E+03  0.00000000000E+00 0.  1.
          1    1    1    2  502    0  0.17395302177E+02  0.25347273164E+02  0.68605406682E+02  0.75178338773E+02  0.00000000000E+00 0.  1.
</event>
<event>
 4    1  0.3837333E+003  0.3164838E+02  0.7546771E-02  0.1405793E+00
          2   -1    0    0  502    0  0.00000000000E+00  0.00000000000E+00  0.35580172201E+03  0.35580172201E+03  0.00000000000E+00 0.  1.
          1   -1    0    0  501    0 -0.00000000000E+00 -0.00000000000E+00 -0.28728387026E+01  0.28728387026E+01  0.00000000000E+00 0.  1.
          2    1    1    2  501    0  0.30324856293E+02 -0.90565929702E+01  0.15104101322E+03  0.15432111476E+03  0.00000000000E+00 0.  1.
          1    1    1    2  502    0 -0.30324856293E+02  0.90565929702E+01  0.20188787008E+03  0.20435344595E+03  0.00000000000E+00 0.  1.
</event>
<event>
 4    1  0.3837333E+003  0.4806286E+02  0.7546771E-02  0.1306797E+00
          2   -1    0    0  502    0  0.00000000000E+00  0.00000000000E+00  0.10360256239E+02  0.10360256239E+02  0.00000000000E+00 0.  1.
          1   -1    0    0  501    0 -0.00000000000E+00 -0.00000000000E+00 -0.10760248609E+04  0.10760248609E+04  0.00000000000E+00 0.  1.
          2    1    1    2  501    0  0.34364988793E+01 -0.47939849716E+02 -0.49182699206E+02  0.68767554970E+02  0.00000000000E+00 0.  1.
          1    1    1    2  502    0 -0.34364988793E+01  0.47939849716E+02 -0.10164819054E+04  0.10176175621E+04  0.00000000000E+00 0.  1.
</event>
<event>
 4    1  0.3837333E+003  0.5050762E+02  0.7546771E-02  0.1295986E+00
          2   -1    0    0  502    0  0.00000000000E+00  0.00000000000E+00  0.16215178350E+04  0.16215178350E+04  0.00000000000E+00 0. -1.
          1   -1    0    0  501    0 -0.00000000000E+00 -0.00000000000E+00 -0.15949354261E+01  0.15949354261E+01  0.00000000000E+00 0.  1.
          2    1    1    2  501    0 -0.48786598865E+02  0.13072300727E+02  0.71528298169E+03  0.71706398680E+03  0.00000000000E+00 0. -1.
          1    1    1    2  502    0  0.48786598865E+02 -0.13072300727E+02  0.90463991791E+03  0.90604878364E+03  0.00000000000E+00 0.  1.
</event>
<event>
 4    1  0.3837333E+003  0.2009087E+02  0.7546771E-02  0.1532651E+00
          2   -1    0    0  502    0  0.00000000000E+00  0.00000000000E+00  0.20448473022E+03  0.20448473022E+03  0.00000000000E+00 0. -1.
          1   -1    0    0  501    0 -0.00000000000E+00 -0.00000000000E+00 -0.35953159336E+01  0.35953159336E+01  0.00000000000E+00 0. -1.
          2    1    1    2  501    0  0.19642895106E+02  0.42189498532E+01  0.17031173674E+03  0.17149265447E+03  0.00000000000E+00 0. -1.
          1    1    1    2  502    0 -0.19642895106E+02 -0.42189498532E+01  0.30577677543E+02  0.36587391680E+02  0.00000000000E+00 0. -1.
</event>
<event>
 4    1  0.3837333E+003  0.2565494E+02  0.7546771E-02  0.1461608E+00
          2   -1    0    0  502    0  0.00000000000E+00  0.00000000000E+00  0.26693897681E+01  0.26693897681E+01  0.00000000000E+00 0. -1.
          1   -1    0    0  501    0 -0.00000000000E+00 -0.00000000000E+00 -0.58425551889E+03  0.58425551889E+03  0.00000000000E+00 0. -1.
          2    1    1    2  501    0  0.25347255239E+02  0.39613645486E+01 -0.67687126759E+02  0.72385930167E+02  0.00000000000E+00 0. -1.
          1    1    1    2  502    0 -0.25347255239E+02 -0.39613645486E+01 -0.51389900236E+03  0.51453897849E+03  0.00000000000E+00 0. -1.
</event>
<event>
 4    1  0.3837333E+003  0.2511359E+02  0.7546771E-02  0.1467537E+00
          2   -1    0    0  502    0  0.00000000000E+00  0.00000000000E+00  0.58610912322E+03  0.58610912322E+03  0.00000000000E+00 0.  1.
          1   -1    0    0  501    0 -0.00000000000E+00 -0.00000000000E+00 -0.32238623939E+01  0.32238623939E+01  0.00000000000E+00 0.  1.
          2    1    1    2  501    0  0.13775520109E+02  0.20998271752E+02  0.53195588413E+03  0.53254835934E+03  0.00000000000E+00 0.  1.
          1    1    1    2  502    0 -0.13775520109E+02 -0.20998271752E+02  0.50929376692E+02  0.56784626274E+02  0.00000000000E+00 0.  1.
</event>
<event>
 4    1  0.3837333E+003  0.2344430E+02  0.7546771E-02  0.1486993E+00
          2   -1    0    0  502    0  0.00000000000E+00  0.00000000000E+00  0.22868675561E+04  0.22868675561E+04  0.00000000000E+00 0. -1.
          1   -1    0    0  501    0 -0.00000000000E+00 -0.00000000000E+00 -0.24769237002E+00  0.24769237002E+00  0.00000000000E+00 0. -1.
          2    1    1    2  501    0  0.15274031496E+02  0.17785905606E+02  0.94633876004E+03  0.94662911599E+03  0.00000000000E+00 0. -1.
          1    1    1    2  502    0 -0.15274031496E+02 -0.17785905606E+02  0.13402811037E+04  0.13404861325E+04  0.00000000000E+00 0. -1.
</event>
<event>
 4    1  0.3837333E+003  0.3003563E+02  0.7546771E-02  0.1419287E+00
          2   -1    0    0  502    0  0.00000000000E+00  0.00000000000E+00  0.39453291382E+03  0.39453291382E+03  0.00000000000E+00 0. -1.
          1   -1    0    0  501    0 -0.00000000000E+00 -0.00000000000E+00 -0.28376264878E+01  0.28376264878E+01  0.00000000000E+00 0. -1.
          2    1    1    2  501    0  0.29921428130E+02 -0.26167162483E+01  0.28340128037E+03  0.28498846429E+03  0.00000000000E+00 0. -1.
          1    1    1    2  502    0 -0.29921428130E+02  0.26167162483E+01  0.10829400696E+03  0.11238207601E+03  0.00000000000E+00 0. -1.
</event>
<event>
 4    1  0.3837333E+003  0.2166603E+02  0.7546771E-02  0.1509964E+00
          2   -1    0    0  502    0  0.00000000000E+00  0.00000000000E+00  0.35626072468E+03  0.35626072468E+03  0.00000000000E+00 0. -1.
          1   -1    0    0  501    0 -0.00000000000E+00 -0.00000000000E+00 -0.86865911105E+03  0.86865911105E+03  0.00000000000E+00 0.  1.
          2    1    1    2  501    0  0.20730355835E+02 -0.62983370643E+01  0.35579604502E+03  0.35645510566E+03  0.00000000000E+00 0. -1.
          1    1    1    2  502    0 -0.20730355835E+02  0.62983370643E+01 -0.86819443138E+03  0.86846473007E+03  0.00000000000E+00 0.  1.
</event>
<event>
 4    1  0.3837333E+003  0.2810483E+02  0.7546771E-02  0.1436815E+00
          2   -1    0    0  502    0  0.00000000000E+00  0.00000000000E+00  0.12811757572E+04  0.12811757572E+04  0.00000000000E+00 0. -1.
          1   -1    0    0  501    0 -0.00000000000E+00 -0.00000000000E+00 -0.11693389297E+01  0.11693389297E+01  0.00000000000E+00 0. -1.
          2    1    1    2  501    0  0.23827837337E+02 -0.14903546302E+02  0.10808551746E+04  0.10812205095E+04  0.00000000000E+00 0. -1.
          1    1    1    2  502    0 -0.23827837337E+02  0.14903546302E+02  0.19915124358E+03  0.20112458662E+03  0.00000000000E+00 0. -1.
</event>
<event>
 4    1  0.3837333E+003  0.3762664E+02  0.7546771E-02  0.1362984E+00
          2   -1    0    0  502    0  0.00000000000E+00  0.00000000000E+00  0.26751316196E+03  0.26751316196E+03  0.00000000000E+00 0. -1.
          1   -1    0    0  501    0 -0.00000000000E+00 -0.00000000000E+00 -0.16676488018E+03  0.16676488018E+03  0.00000000000E+00 0.  1.
          2    1    1    2  501    0 -0.30263021336E+02 -0.22358740580E+02  0.26403991022E+03  0.26670740134E+03  0.00000000000E+00 0. -1.
          1    1    1    2  502    0  0.30263021336E+02  0.22358740580E+02 -0.16329162843E+03  0.16757064080E+03  0.00000000000E+00 0.  1.
</event>
<event>
 4    1  0.3837333E+003  0.3458096E+02  0.7546771E-02  0.1383533E+00
          2   -1    0    0  502    0  0.00000000000E+00  0.00000000000E+00  0.23172701977E+01  0.23172701977E+01  0.00000000000E+00 0. -1.
          1   -1    0    0  501    0 -0.00000000000E+00 -0.00000000000E+00 -0.20411736624E+04  0.20411736624E+04  0.00000000000E+00 0.  1.
          2    1    1    2  501    0 -0.11096420350E+02 -0.32752289094E+02 -0.13623786409E+03  0.14055816802E+03  0.00000000000E+00 0. -1.
          1    1    1    2  502    0  0.11096420350E+02  0.32752289094E+02 -0.19026185281E+04  0.19029327645E+04  0.00000000000E+00 0.  1.
</event>
<event>
 4    1  0.3837333E+003  0.2421089E+02  0.7546771E-02  0.1477828E+00
          2   -1    0    0  502    0  0.00000000000E+00  0.00000000000E+00  0.56341530868E+03  0.56341530868E+03  0.00000000000E+00 0. -1.
          1   -1    0    0  501    0 -0.00000000000E+00 -0.00000000000E+00 -0.16406322570E+02  0.16406322570E+02  0.00000000000E+00 0. -1.
          2    1    1    2  501    0  0.22582167531E+02 -0.87299963989E+01  0.55407264384E+03  0.55460135393E+03  0.00000000000E+00 0. -1.
          1    1    1    2  502    0 -0.22582167531E+02  0.87299963989E+01 -0.70636577325E+01  0.25220277319E+02  0.00000000000E+00 0. -1.
</event>
<event>
 4    1  0.3837333E+003  0.3061055E+02  0.7546771E-02  0.1414364E+00
          2   -1    0    0  502    0  0.00000000000E+00  0.00000000000E+00  0.43482643557E+01  0.43482643557E+01  0.00000000000E+00 0. -1.
          1   -1    0    0  501    0 -0.00000000000E+00 -0.00000000000E+00 -0.21664309401E+03  0.21664309401E+03  0.00000000000E+00 0. -1.
          2    1    1    2  501    0 -0.15251572290E+02  0.26540428705E+02 -0.11421086591E+03  0.11824181454E+03  0.00000000000E+00 0. -1.
          1    1    1    2  502    0  0.15251572290E+02 -0.26540428705E+02 -0.98083963747E+02  0.10274954383E+03  0.00000000000E+00 0. -1.
</event>
<event>
 4    1  0.3837333E+003  0.2851603E+02  0.7546771E-02  0.1432946E+00
          2   -1    0    0  502    0  0.00000000000E+00  0.00000000000E+00  0.19181486011E+04  0.19181486011E+04  0.00000000000E+00 0.  1.
          1   -1    0    0  501    0 -0.00000000000E+00 -0.00000000000E+00 -0.47906783781E+00  0.47906783781E+00  0.00000000000E+00 0.  1.
          2    1    1    2  501    0 -0.27565964244E+02 -0.72994300837E+01  0.12842817370E+04  0.12845982812E+04  0.00000000000E+00 0.  1.
          1    1    1    2  502    0  0.27565964244E+02  0.72994300837E+01  0.63338779623E+03  0.63402938771E+03  0.00000000000E+00 0.  1.
</event>
<event>
 4    1  0.3837333E+003  0.2057082E+02  0.7546771E-02  0.1525482E+00
          2   -1    0    0  502    0  0.00000000000E+00  0.00000000000E+00  0.20028431379E+02  0.20028431379E+02  0.00000000000E+00 0.  1.
          1   -1    0    0  501    0 -0.00000000000E+00 -0.00000000000E+00 -0.31856687608E+02  0.31856687608E+02  0.00000000000E+00 0.  1.
          2    1    1    2  501    0  0.17664408311E+02 -0.10541688738E+02  0.91411232741E+01  0.22510412194E+02  0.00000000000E+00 0.  1.
          1    1    1    2  502    0 -0.17664408311E+02  0.10541688738E+02 -0.20969379504E+02  0.29374706793E+02  0.00000000000E+00 0.  1.
</event>
<event>
 4    1  0.3837333E+003  0.2017569E+02  0.7546771E-02  0.1531367E+00
          2   -1    0    0  502    0  0.00000000000E+00  0.00000000000E+00  0.15091182203E+04  0.15091182203E+04  0.00000000000E+00 0. -1.
          1   -1    0    0  501    0 -0.00000000000E+00 -0.00000000000E+00 -0.37023795086E+00  0.37023795086E+00  0.00000000000E+00 0.  1.
          2    1    1    2  501    0 -0.17475137625E+02  0.10083559439E+02  0.11476102943E+04  0.11477876311E+04  0.00000000000E+00 0. -1.
          1    1    1    2  502    0  0.17475137625E+02 -0.10083559439E+02  0.36113768807E+03  0.36170082714E+03  0.00000000000E+00 0.  1.
</event>
<event>
 4    1  0.3837333E+003  0.4815123E+02  0.7546771E-02  0.1306393E+00
          2   -1    0    0  502    0  0.00000000000E+00  0.00000000000E+00  0.10777375285E+04  0.10777375285E+04  0.00000000000E+00 0. -1.
          1   -1    0    0  501    0 -0.00000000000E+00 -0.00000000000E+00 -0.37275586828E+01  0.37275586828E+01  0.00000000000E+00 0.  1.
          2    1    1    2  501    0 -0.43091480952E+02  0.21486406955E+02  0.88863295414E+03  0.88993655313E+03  0.00000000000E+00 0. -1.
          1    1    1    2  502    0  0.43091480952E+02 -0.21486406955E+02  0.18537701565E+03  0.19152853403E+03  0.00000000000E+00 0.  1.
</event>
<event>
 4    1  0.3837333E+003  0.2027732E+02  0.7546771E-02  0.1529838E+00
          2   -1    0    0  502    0  0.00000000000E+00  0.00000000000E+00  0.33696655743E+01  0.33696655743E+01  0.00000000000E+00 0. -1.
          1   -1    0    0  501    0 -0.00000000000E+00 -0.00000000000E+00 -0.36529471084E+03  0.36529471084E+03  0.00000000000E+00 0. -1.
          2    1    1    2  501    0  0.14128747011E+02  0.14544701131E+02 -0.30535065687E+02  0.36654604889E+02  0.00000000000E+00 0. -1.
          1    1    1    2  502    0 -0.14128747011E+02 -0.14544701131E+02 -0.33138997958E+03  0.33200977152E+03  0.00000000000E+00 0. -1.
</event>
<event>
 4    1  0.3837333E+003  0.2520761E+02  0.7546771E-02  0.1466494E+00
          2   -1    0    0  502    0  0.00000000000E+00  0.00000000000E+00  0.49359908165E+02  0.49359908165E+02  0.00000000000E+00 0. -1.
          1   -1    0    0  501    0 -0.00000000000E+00 -0.00000000000E+00 -0.10194965464E+03  0.10194965464E+03  0.00000000000E+00 0.  1.
          2    1    1    2  501    0 -0.38578285574E+01  0.24910656022E+02  0.44422282090E+02  0.51076048895E+02  0.00000000000E+00 0. -1.
          1    1    1    2  502    0  0.38578285574E+01 -0.24910656022E+02 -0.97012028564E+02  0.10023351391E+03  0.00000000000E+00 0.  1.
</event>
<event>
 4    1  0.3837333E+003  0.3011541E+02  0.7546771E-02  0.1418596E+00
          2   -1    0    0  502    0  0.00000000000E+00  0.00000000000E+00  0.10030793567E+04  0.10030793567E+04  0.00000000000E+00 0. -1.
          1   -1    0    0  501    0 -0.00000000000E+00 -0.00000000000E+00 -0.20728866633E+01  0.20728866633E+01  0.00000000000E+00 0. -1.
          2    1    1    2  501    0 -0.16831440877E+02  0.24972796385E+02  0.87787700406E+03  0.87839340402E+03  0.00000000000E+00 0. -1.
          1    1    1    2  502    0  0.16831440877E+02 -0.24972796385E+02  0.12312946602E+03  0.12675883939E+03  0.00000000000E+00 0. -1.
</event>
<event>
 4    1  0.3837333E+003  0.3426985E+02  0.7546771E-02  0.1385770E+00
          2   -1    0    0  502    0  0.00000000000E+00  0.00000000000E+00  0.62097507366E+01  0.62097507366E+01  0.00000000000E+00 0.  1.
          1   -1    0    0  501    0 -0.00000000000E+00 -0.00000000000E+00 -0.52554908286E+03  0.52554908286E+03  0.00000000000E+00 0.  1.
          2    1    1    2  501    0  0.87630221303E+01  0.33130532390E+02 -0.46943340786E+02  0.58121424427E+02  0.00000000000E+00 0.  1.
          1    1    1    2  502    0 -0.87630221303E+01 -0.33130532390E+02 -0.47239599134E+03  0.47363740917E+03  0.00000000000E+00 0.  1.
</event>
<event>
 4    1  0.3837333E+003  0.3866478E+02  0.7546771E-02  0.1356493E+00
          2   -1    0    0  502    0  0.00000000000E+00  0.00000000000E+00  0.19436971275E+02  0.19436971275E+02  0.00000000000E+00 0.  1.
          1   -1    0    0  501    0 -0.00000000000E+00 -0.00000000000E+00 -0.10217706213E+03  0.10217706213E+03  0.00000000000E+00 0.  1.
          2    1    1    2  501    0  0.10608246655E+02 -0.37181042688E+02 -0.11134028861E+02  0.40235947002E+02  0.00000000000E+00 0.  1.
          1    1    1    2  502    0 -0.10608246655E+02  0.37181042688E+02 -0.71606061999E+02  0.81378086408E+02  0.00000000000E+00 0.  1.
</event>
<event>
 4    1  0.3837333E+003  0.3861044E+02  0.7546771E-02  0.1356827E+00
          2   -1    0    0  502    0  0.00000000000E+00  0.00000000000E+00  0.77896424254E+03  0.77896424254E+03  0.00000000000E+00 0.  1.
          1   -1    0    0  501    0 -0.00000000000E+00 -0.00000000000E+00 -0.25517685278E+01  0.25517685278E+01  0.00000000000E+00 0.  1.
          2    1    1    2  501    0  0.38217429924E+02  0.54948937511E+01  0.58359241920E+03  0.58486825658E+03  0.00000000000E+00 0.  1.
          1    1    1    2  502    0 -0.38217429924E+02 -0.54948937511E+01  0.19282005481E+03  0.19664775449E+03  0.00000000000E+00 0.  1.
</event>
<event>
 4    1  0.3837333E+003  0.5009403E+02  0.7546771E-02  0.1297765E+00
          2   -1    0    0  502    0  0.00000000000E+00  0.00000000000E+00  0.17828880251E+02  0.17828880251E+02  0.00000000000E+00 0. -1.
          1   -1    0    0  501    0 -0.00000000000E+00 -0.00000000000E+00 -0.31578012137E+03  0.31578012137E+03  0.00000000000E+00 0.  1.
          2    1    1    2  501    0 -0.47287502109E+02  0.16531911916E+02 -0.24789811260E+02  0.55892277728E+02  0.00000000000E+00 0. -1.
          1    1    1    2  502    0  0.47287502109E+02 -0.16531911916E+02 -0.27316142986E+03  0.27771672389E+03  0.00000000000E+00 0.  1.
</event>
<event>
 4    1  0.3837333E+003  0.2831942E+02  0.7546771E-02  0.1434786E+00
          2   -1    0    0  502    0  0.00000000000E+00  0.00000000000E+00  0.14464982597E+02  0.14464982597E+02  0.00000000000E+00 0.  1.
          1   -1    0    0  501    0 -0.00000000000E+00 -0.00000000000E+00 -0.76551591918E+02  0.76551591918E+02  0.00000000000E+00 0. -1.
          2    1    1    2  501    0  0.12982878504E+02 -0.25168127849E+02 -0.71466290502E+01  0.29207261092E+02  0.00000000000E+00 0.  1.
          1    1    1    2  502    0 -0.12982878504E+02  0.25168127849E+02 -0.54939980271E+02  0.61809313423E+02  0.00000000000E+00 0. -1.
</event>
<event>
 4    1  0.3837333E+003  0.2515710E+02  0.7546771E-02  0.1467053E+00
          2   -1    0    0  502    0  0.00000000000E+00  0.00000000000E+00  0.23108452177E+03  0.23108452177E+03  0.00000000000E+00 0.  1.
          1   -1    0    0  501    0 -0.00000000000E+00 -0.00000000000E+00 -0.78981292247E+01  0.78981292247E+01  0.00000000000E+00 0. -1.
          2    1    1    2  501    0 -0.24542591185E+02  0.55263903106E+01  0.20817015519E+03  0.20968474738E+03  0.00000000000E+00 0.  1.
          1    1    1    2  502    0  0.24542591185E+02 -0.55263903106E+01  0.15016237357E+02  0.29297903617E+02  0.00000000000E+00 0. -1.
</event>
<event>
 4    1  0.3837333E+003  0.3640349E+02  0.7546771E-02  0.1370956E+00
          2   -1    0    0  502    0  0.00000000000E+00  0.00000000000E+00  0.51686768017E+03  0.51686768017E+03  0.00000000000E+00 0. -1.
          1   -1    0    0  501    0 -0.00000000000E+00 -0.00000000000E+00 -0.27113030500E+02  0.27113030500E+02  0.00000000000E+00 0. -1.
          2    1    1    2  501    0  0.25777446263E+02  0.25704810338E+02  0.50368803237E+03  0.50500182967E+03  0.00000000000E+00 0. -1.
          1    1    1    2  502    0 -0.25777446263E+02 -0.25704810338E+02 -0.13933382707E+02  0.38978881000E+02  0.00000000000E+00 0. -1.
</event>
<event>
 4    1  0.3837333E+003  0.1433906E+03  0.7546771E-02  0.1104591E+00
          2   -1    0    0  502    0  0.00000000000E+00  0.00000000000E+00  0.64410750680E+03  0.64410750680E+03  0.00000000000E+00 0. -1.
          1   -1    0    0  501    0 -0.00000000000E+00 -0.00000000000E+00 -0.40347957741E+02  0.40347957741E+02  0.00000000000E+00 0. -1.
          2    1    1    2  501    0 -0.14336782198E+03  0.25567609440E+01  0.45827636444E+03  0.48018548042E+03  0.00000000000E+00 0. -1.
          1    1    1    2  502    0  0.14336782198E+03 -0.25567609440E+01  0.14548318462E+03  0.20426998412E+03  0.00000000000E+00 0. -1.
</event>
<event>
 4    1  0.3837333E+003  0.2194950E+02  0.7546771E-02  0.1506128E+00
          2   -1    0    0  502    0  0.00000000000E+00  0.00000000000E+00  0.23675086326E+01  0.23675086326E+01  0.00000000000E+00 0. -1.
          1   -1    0    0  501    0 -0.00000000000E+00 -0.00000000000E+00 -0.28128775614E+03  0.28128775614E+03  0.00000000000E+00 0. -1.
          2    1    1    2  501    0 -0.63616112695E+01 -0.21007386910E+02 -0.64875375807E+02  0.68487917101E+02  0.00000000000E+00 0. -1.
          1    1    1    2  502    0  0.63616112695E+01  0.21007386910E+02 -0.21404487170E+03  0.21516734767E+03  0.00000000000E+00 0. -1.
</event>
<event>
 4    1  0.3837333E+003  0.2485681E+02  0.7546771E-02  0.1470412E+00
          2   -1    0    0  502    0  0.00000000000E+00  0.00000000000E+00  0.73252878756E+00  0.73252878756E+00  0.00000000000E+00 0.  1.
          1   -1    0    0  501    0 -0.00000000000E+00 -0.00000000000E+00 -0.12950095664E+04  0.12950095664E+04  0.00000000000E+00 0. -1.
          2    1    1    2  501    0  0.24317226680E+02  0.51510532884E+01 -0.26457513593E+03  0.26574021791E+03  0.00000000000E+00 0.  1.
          1    1    1    2  502    0 -0.24317226680E+02 -0.51510532884E+01 -0.10297019017E+04  0.10300018773E+04  0.00000000000E+00 0. -1.
</event>
<event>
 4    1  0.3837333E+003  0.3096748E+02  0.7546771E-02  0.1411371E+00
          2   -1    0    0  502    0  0.00000000000E+00  0.00000000000E+00  0.10617598870E+04  0.10617598870E+04  0.00000000000E+00 0. -1.
          1   -1    0    0  501    0 -0.00000000000E+00 -0.00000000000E+00 -0.32482473010E+03  0.32482473010E+03  0.00000000000E+00 0.  1.
          2    1    1    2  501    0 -0.52388774854E+01  0.30521124895E+02  0.10607953365E+04  0.10612472524E+04  0.00000000000E+00 0. -1.
          1    1    1    2  502    0  0.52388774854E+01 -0.30521124895E+02 -0.32386017960E+03  0.32533736464E+03  0.00000000000E+00 0.  1.
</event>
<event>
 4    1  0.3837333E+003  0.2254468E+02  0.7546771E-02  0.1498296E+00
          2   -1    0    0  502    0  0.00000000000E+00  0.00000000000E+00  0.79153102344E+02  0.79153102344E+02  0.00000000000E+00 0. -1.
          1   -1    0    0  501    0 -0.00000000000E+00 -0.00000000000E+00 -0.74627483124E+02  0.74627483124E+02  0.00000000000E+00 0.  1.
          2    1    1    2  501    0  0.39475100025E+01  0.22196389729E+02  0.75770727496E+02  0.79053562207E+02  0.00000000000E+00 0. -1.
          1    1    1    2  502    0 -0.39475100025E+01 -0.22196389729E+02 -0.71245108276E+02  0.74727023261E+02  0.00000000000E+00 0.  1.
</event>
<event>
 4    1  0.3837333E+003  0.3242394E+02  0.7546771E-02  0.1399638E+00
          2   -1    0    0  502    0  0.00000000000E+00  0.00000000000E+00  0.86094400617E+03  0.86094400617E+03  0.00000000000E+00 0. -1.
          1   -1    0    0  501    0 -0.00000000000E+00 -0.00000000000E+00 -0.93122405597E+01  0.93122405597E+01  0.00000000000E+00 0. -1.
          2    1    1    2  501    0 -0.27906785211E+02  0.16508280894E+02  0.83141268253E+03  0.83204468671E+03  0.00000000000E+00 0. -1.
          1    1    1    2  502    0  0.27906785211E+02 -0.16508280894E+02  0.20219083076E+02  0.38211560022E+02  0.00000000000E+00 0. -1.
</event>
<event>
 4    1  0.3837333E+003  0.3278360E+02  0.7546771E-02  0.1396853E+00
          2   -1    0    0  502    0  0.00000000000E+00  0.00000000000E+00  0.99774764525E+03  0.99774764525E+03  0.00000000000E+00 0.  1.
          1   -1    0    0  501    0 -0.00000000000E+00 -0.00000000000E+00 -0.61295797883E+01  0.61295797883E+01  0.00000000000E+00 0.  1.
          2    1    1    2  501    0 -0.18042334946E+02  0.27372220359E+02  0.95151388914E+03  0.95207848706E+03  0.00000000000E+00 0.  1.
          1    1    1    2  502    0  0.18042334946E+02 -0.27372220359E+02  0.40104176325E+02  0.51798737981E+02  0.00000000000E+00 0.  1.
</event>
<event>
 4    1  0.3837333E+003  0.2286360E+02  0.7546771E-02  0.1494218E+00
          2   -1    0    0  502    0  0.00000000000E+00  0.00000000000E+00  0.10796985240E+03  0.10796985240E+03  0.00000000000E+00 0.  1.
          1   -1    0    0  501    0 -0.00000000000E+00 -0.00000000000E+00 -0.69474213729E+01  0.69474213729E+01  0.00000000000E+00 0. -1.
          2    1    1    2  501    0  0.22858928595E+02  0.46232488483E+00  0.82145398937E+02  0.85267877465E+02  0.00000000000E+00 0.  1.
          1    1    1    2  502    0 -0.22858928595E+02 -0.46232488483E+00  0.18877032086E+02  0.29649396304E+02  0.00000000000E+00 0. -1.
</event>
<event>
 4    1  0.3837333E+003  0.2236397E+02  0.7546771E-02  0.1500643E+00
          2   -1    0    0  502    0  0.00000000000E+00  0.00000000000E+00  0.14820445505E+04  0.14820445505E+04  0.00000000000E+00 0.  1.
          1   -1    0    0  501    0 -0.00000000000E+00 -0.00000000000E+00 -0.87478079967E+01  0.87478079967E+01  0.00000000000E+00 0.  1.
          2    1    1    2  501    0  0.20715301926E+02 -0.84275297420E+01  0.14675252805E+04  0.14676956755E+04  0.00000000000E+00 0.  1.
          1    1    1    2  502    0 -0.20715301926E+02  0.84275297420E+01  0.57714620011E+01  0.23096682989E+02  0.00000000000E+00 0.  1.
</event>
<event>
 4    1  0.3837333E+003  0.5864899E+02  0.7546771E-02  0.1264493E+00
          2   -1    0    0  502    0  0.00000000000E+00  0.00000000000E+00  0.37770683640E+03  0.37770683640E+03  0.00000000000E+00 0.  1.
          1   -1    0    0  501    0 -0.00000000000E+00 -0.00000000000E+00 -0.23587552486E+02  0.23587552486E+02  0.00000000000E+00 0.  1.
          2    1    1    2  501    0  0.58554294690E+02  0.33314383790E+01  0.33427214646E+03  0.33937821351E+03  0.00000000000E+00 0.  1.
          1    1    1    2  502    0 -0.58554294690E+02 -0.33314383790E+01  0.19847137461E+02  0.61916175380E+02  0.00000000000E+00 0.  1.
</event>
<event>
 4    1  0.3837333E+003  0.2334635E+02  0.7546771E-02  0.1488194E+00
          2   -1    0    0  502    0  0.00000000000E+00  0.00000000000E+00  0.10406260400E+03  0.10406260400E+03  0.00000000000E+00 0. -1.
          1   -1    0    0  501    0 -0.00000000000E+00 -0.00000000000E+00 -0.96664473447E+01  0.96664473447E+01  0.00000000000E+00 0. -1.
          2    1    1    2  501    0 -0.20583638094E+02  0.11016626546E+02  0.85687977336E+02  0.88811495189E+02  0.00000000000E+00 0. -1.
          1    1    1    2  502    0  0.20583638094E+02 -0.11016626546E+02  0.87081793164E+01  0.24917556153E+02  0.00000000000E+00 0. -1.
</event>
<event>
 4    1  0.3837333E+003  0.2487318E+02  0.7546771E-02  0.1470227E+00
          2   -1    0    0  502    0  0.00000000000E+00  0.00000000000E+00  0.50554770081E+03  0.50554770081E+03  0.00000000000E+00 0. -1.
          1   -1    0    0  501    0 -0.00000000000E+00 -0.00000000000E+00 -0.62996603900E+03  0.62996603900E+03  0.00000000000E+00 0.  1.
          2    1    1    2  501    0 -0.18846943362E+02  0.16231685323E+02  0.50499597071E+03  0.50560815393E+03  0.00000000000E+00 0. -1.
          1    1    1    2  502    0  0.18846943362E+02 -0.16231685323E+02 -0.62941430890E+03  0.62990558588E+03  0.00000000000E+00 0.  1.
</event>
<event>
 4    1  0.3837333E+003  0.2779476E+02  0.7546771E-02  0.1439784E+00
          2   -1    0    0  502    0  0.00000000000E+00  0.00000000000E+00  0.31532288082E+03  0.31532288082E+03  0.00000000000E+00 0. -1.
          1   -1    0    0  501    0 -0.00000000000E+00 -0.00000000000E+00 -0.37898701229E+01  0.37898701229E+01  0.00000000000E+00 0. -1.
          2    1    1    2  501    0 -0.70064498296E+01  0.26897181701E+02  0.25063661680E+03  0.25217308025E+03  0.00000000000E+00 0. -1.
          1    1    1    2  502    0  0.70064498296E+01 -0.26897181701E+02  0.60896393903E+02  0.66939670698E+02  0.00000000000E+00 0. -1.
</event>
<event>
 4    1  0.3837333E+003  0.2013495E+02  0.7546771E-02  0.1531983E+00
          2   -1    0    0  502    0  0.00000000000E+00  0.00000000000E+00  0.83446591270E+02  0.83446591270E+02  0.00000000000E+00 0.  1.
          1   -1    0    0  501    0 -0.00000000000E+00 -0.00000000000E+00 -0.23795517948E+03  0.23795517948E+03  0.00000000000E+00 0.  1.
          2    1    1    2  501    0  0.13612233332E+02 -0.14836550142E+02  0.81797595801E+02  0.84239318582E+02  0.00000000000E+00 0.  1.
          1    1    1    2  502    0 -0.13612233332E+02  0.14836550142E+02 -0.23630618401E+03  0.23716245217E+03  0.00000000000E+00 0.  1.
</event>
<event>
 4    1  0.3837333E+003  0.4196397E+02  0.7546771E-02  0.1337346E+00
          2   -1    0    0  502    0  0.00000000000E+00  0.00000000000E+00  0.75072220056E+03  0.75072220056E+03  0.00000000000E+00 0.  1.
          1   -1    0    0  501    0 -0.00000000000E+00 -0.00000000000E+00 -0.82691593045E+01  0.82691593045E+01  0.00000000000E+00 0. -1.
          2    1    1    2  501    0 -0.24816874574E+02  0.33839294785E+02  0.69241766684E+03  0.69368811471E+03  0.00000000000E+00 0.  1.
          1    1    1    2  502    0  0.24816874574E+02 -0.33839294785E+02  0.50035374418E+02  0.65303245159E+02  0.00000000000E+00 0. -1.
</event>
<event>
 4    1  0.3837333E+003  0.2748160E+02  0.7546771E-02  0.1442829E+00
          2   -1    0    0  502    0  0.00000000000E+00  0.00000000000E+00  0.88767940885E+02  0.88767940885E+02  0.00000000000E+00 0.  1.
          1   -1    0    0  501    0 -0.00000000000E+00 -0.00000000000E+00 -0.34744043940E+03  0.34744043940E+03  0.00000000000E+00 0.  1.
          2    1    1    2  501    0  0.76140455070E+01 -0.26405768952E+02  0.86080957452E+02  0.90361327784E+02  0.00000000000E+00 0.  1.
          1    1    1    2  502    0 -0.76140455070E+01  0.26405768952E+02 -0.34475345597E+03  0.34584705250E+03  0.00000000000E+00 0.  1.
</event>
<event>
 4    1  0.3837333E+003  0.3523286E+02  0.7546771E-02  0.1378933E+00
          2   -1    0    0  502    0  0.00000000000E+00  0.00000000000E+00  0.12561078712E+04  0.12561078712E+04  0.00000000000E+00 0. -1.
          1   -1    0    0  501    0 -0.00000000000E+00 -0.00000000000E+00 -0.18604819647E+02  0.18604819647E+02  0.00000000000E+00 0. -1.
          2    1    1    2  501    0  0.80886877859E+01  0.34291801640E+02  0.12389492898E+04  0.12394501593E+04  0.00000000000E+00 0. -1.
          1    1    1    2  502    0 -0.80886877859E+01 -0.34291801640E+02 -0.14462382596E+01  0.35262531601E+02  0.00000000000E+00 0. -1.
</event>
<event>
 4    1  0.3837333E+003  0.2596334E+02  0.7546771E-02  0.1458309E+00
          2   -1    0    0  502    0  0.00000000000E+00  0.00000000000E+00  0.71425873265E+03  0.71425873265E+03  0.00000000000E+00 0.  1.
          1   -1    0    0  501    0 -0.00000000000E+00 -0.00000000000E+00 -0.97395762111E+00  0.97395762111E+00  0.00000000000E+00 0.  1.
          2    1    1    2  501    0 -0.23184054424E+02  0.11687373252E+02  0.41960326166E+03  0.42040574719E+03  0.00000000000E+00 0.  1.
          1    1    1    2  502    0  0.23184054424E+02 -0.11687373252E+02  0.29368151338E+03  0.29482694309E+03  0.00000000000E+00 0.  1.
</event>
<event>
 4    1  0.3837333E+003  0.2187294E+02  0.7546771E-02  0.1507157E+00
          2   -1    0    0  502    0  0.00000000000E+00  0.00000000000E+00  0.14069236627E+02  0.14069236627E+02  0.00000000000E+00 0.  1.
          1   -1    0    0  501    0 -0.00000000000E+00 -0.00000000000E+00 -0.22649143263E+03  0.22649143263E+03  0.00000000000E+00 0. -1.
          2    1    1    2  501    0  0.51810679345E+01  0.21250454631E+02  0.46728622083E+01  0.22366513546E+02  0.00000000000E+00 0.  1.
          1    1    1    2  502    0 -0.51810679345E+01 -0.21250454631E+02 -0.21709505821E+03  0.21819415572E+03  0.00000000000E+00 0. -1.
</event>
<event>
 4    1  0.3837333E+003  0.3776776E+02  0.7546771E-02  0.1362088E+00
          2   -1    0    0  502    0  0.00000000000E+00  0.00000000000E+00  0.15290126252E+03  0.15290126252E+03  0.00000000000E+00 0. -1.
          1   -1    0    0  501    0 -0.00000000000E+00 -0.00000000000E+00 -0.35389479422E+02  0.35389479422E+02  0.00000000000E+00 0.  1.
          2    1    1    2  501    0 -0.32056555560E+02  0.19969507836E+02  0.13954517047E+03  0.14456575874E+03  0.00000000000E+00 0. -1.
          1    1    1    2  502    0  0.32056555560E+02 -0.19969507836E+02 -0.22033387370E+02  0.43724983208E+02  0.00000000000E+00 0.  1.
</event>
<event>
 4    1  0.3837333E+003  0.2407626E+02  0.7546771E-02  0.1479408E+00
          2   -1    0    0  502    0  0.00000000000E+00  0.00000000000E+00  0.71510379067E+03  0.71510379067E+03  0.00000000000E+00 0. -1.
          1   -1    0    0  501    0 -0.00000000000E+00 -0.00000000000E+00 -0.89991822459E+01  0.89991822459E+01  0.00000000000E+00 0.  1.
          2    1    1    2  501    0 -0.23777176346E+02 -0.37831312875E+01  0.69841311519E+03  0.69882798003E+03  0.00000000000E+00 0. -1.
          1    1    1    2  502    0  0.23777176346E+02  0.37831312875E+01  0.76914932312E+01  0.25274992887E+02  0.00000000000E+00 0.  1.
</event>
<event>
 4    1  0.3837333E+003  0.2418196E+02  0.7546771E-02  0.1478167E+00
          2   -1    0    0  502    0  0.00000000000E+00  0.00000000000E+00  0.13852529692E+02  0.13852529692E+02  0.00000000000E+00 0.  1.
          1   -1    0    0  501    0 -0.00000000000E+00 -0.00000000000E+00 -0.61526451989E+03  0.61526451989E+03  0.00000000000E+00 0.  1.
          2    1    1    2  501    0  0.19455146495E+02  0.14361918275E+02  0.28697491500E+01  0.24351650496E+02  0.00000000000E+00 0.  1.
          1    1    1    2  502    0 -0.19455146495E+02 -0.14361918275E+02 -0.60428173935E+03  0.60476539909E+03  0.00000000000E+00 0.  1.
</event>
<event>
 4    1  0.3837333E+003  0.2143683E+02  0.7546771E-02  0.1513118E+00
          2   -1    0    0  502    0  0.00000000000E+00  0.00000000000E+00  0.51448497289E+02  0.51448497289E+02  0.00000000000E+00 0. -1.
          1   -1    0    0  501    0 -0.00000000000E+00 -0.00000000000E+00 -0.25219109991E+03  0.25219109991E+03  0.00000000000E+00 0.  1.
          2    1    1    2  501    0 -0.20641814993E+02  0.57838882643E+01  0.48735715836E+02  0.53241974867E+02  0.00000000000E+00 0. -1.
          1    1    1    2  502    0  0.20641814993E+02 -0.57838882643E+01 -0.24947831846E+03  0.25039762233E+03  0.00000000000E+00 0.  1.
</event>
<event>
 4    1  0.3837333E+003  0.2035737E+02  0.7546771E-02  0.1528641E+00
          2   -1    0    0  502    0  0.00000000000E+00  0.00000000000E+00  0.73558384692E+03  0.73558384692E+03  0.00000000000E+00 0. -1.
          1   -1    0    0  501    0 -0.00000000000E+00 -0.00000000000E+00 -0.68059192848E+02  0.68059192848E+02  0.00000000000E+00 0. -1.
          2    1    1    2  501    0  0.18724376958E+02 -0.79887524250E+01  0.73391725576E+03  0.73419953743E+03  0.00000000000E+00 0. -1.
          1    1    1    2  502    0 -0.18724376958E+02  0.79887524250E+01 -0.66392601690E+02  0.69443502338E+02  0.00000000000E+00 0. -1.
</event>
<event>
 4    1  0.3837333E+003  0.2515048E+02  0.7546771E-02  0.1467127E+00
          2   -1    0    0  502    0  0.00000000000E+00  0.00000000000E+00  0.16267190496E+04  0.16267190496E+04  0.00000000000E+00 0. -1.
          1   -1    0    0  501    0 -0.00000000000E+00 -0.00000000000E+00 -0.91486056593E+00  0.91486056593E+00  0.00000000000E+00 0. -1.
          2    1    1    2  501    0  0.24924573264E+02  0.33633449868E+01  0.14299904353E+04  0.14302115898E+04  0.00000000000E+00 0. -1.
          1    1    1    2  502    0 -0.24924573264E+02 -0.33633449868E+01  0.19581375371E+03  0.19742232038E+03  0.00000000000E+00 0. -1.
</event>
<event>
 4    1  0.3837333E+003  0.2042016E+02  0.7546771E-02  0.1527707E+00
          2   -1    0    0  502    0  0.00000000000E+00  0.00000000000E+00  0.18354762004E+03  0.18354762004E+03  0.00000000000E+00 0. -1.
          1   -1    0    0  501    0 -0.00000000000E+00 -0.00000000000E+00 -0.11462295069E+02  0.11462295069E+02  0.00000000000E+00 0. -1.
          2    1    1    2  501    0 -0.14450687079E+02  0.14427768450E+02  0.17335194896E+03  0.17455051150E+03  0.00000000000E+00 0. -1.
          1    1    1    2  502    0  0.14450687079E+02 -0.14427768450E+02 -0.12666239855E+01  0.20459403604E+02  0.00000000000E+00 0. -1.
</event>
<event>
 4    1  0.3837333E+003  0.3164088E+02  0.7546771E-02  0.1405854E+00
          2   -1    0    0  502    0  0.00000000000E+00  0.00000000000E+00  0.97006321596E+03  0.97006321596E+03  0.00000000000E+00 0.  1.
          1   -1    0    0  501    0 -0.00000000000E+00 -0.00000000000E+00 -0.68548188920E+02  0.68548188920E+02  0.00000000000E+00 0.  1.
          2    1    1    2  501    0 -0.23050853737E+01 -0.31556802744E+02  0.96613913363E+03  0.96665711126E+03  0.00000000000E+00 0.  1.
          1    1    1    2  502    0  0.23050853737E+01  0.31556802744E+02 -0.64624106590E+02  0.71954293621E+02  0.00000000000E+00 0.  1.
</event>
<event>
 4    1  0.3837333E+003  0.2852286E+02  0.7546771E-02  0.1432883E+00
          2   -1    0    0  502    0  0.00000000000E+00  0.00000000000E+00  0.27355796328E+02  0.27355796328E+02  0.00000000000E+00 0.  1.
          1   -1    0    0  501    0 -0.00000000000E+00 -0.00000000000E+00 -0.39172677154E+02  0.39172677154E+02  0.00000000000E+00 0.  1.
          2    1    1    2  501    0  0.21136230043E+02  0.19152371759E+02  0.10414936198E+02  0.30364855679E+02  0.00000000000E+00 0.  1.
          1    1    1    2  502    0 -0.21136230043E+02 -0.19152371759E+02 -0.22231817024E+02  0.36163617803E+02  0.00000000000E+00 0.  1.
</event>
<event>
 4    1  0.3837333E+003  0.2527994E+02  0.7546771E-02  0.1465696E+00
          2   -1    0    0  502    0  0.00000000000E+00  0.00000000000E+00  0.19477248420E+02  0.19477248420E+02  0.00000000000E+00 0.  1.
          1   -1    0    0  501    0 -0.00000000000E+00 -0.00000000000E+00 -0.35701924613E+03  0.35701924613E+03  0.00000000000E+00 0.  1.
          2    1    1    2  501    0 -0.16500925757E+02 -0.19151889462E+02  0.10618451885E+02  0.27419462818E+02  0.00000000000E+00 0.  1.
          1    1    1    2  502    0  0.16500925757E+02  0.19151889462E+02 -0.34816044959E+03  0.34907703173E+03  0.00000000000E+00 0.  1.
</event>
<event>
 4    1  0.3837333E+003  0.2292208E+02  0.7546771E-02  0.1493479E+00
          2   -1    0    0  502    0  0.00000000000E+00  0.00000000000E+00  0.28101822013E+02  0.28101822013E+02  0.00000000000E+00 0.  1.
          1   -1    0    0  501    0 -0.00000000000E+00 -0.00000000000E+00 -0.17498133317E+03  0.17498133317E+03  0.00000000000E+00 0.  1.
          2    1    1    2  501    0  0.10686092131E+02 -0.20278785296E+02  0.22523654535E+02  0.32136221180E+02  0.00000000000E+00 0.  1.
          1    1    1    2  502    0 -0.10686092131E+02  0.20278785296E+02 -0.16940316570E+03  0.17094693400E+03  0.00000000000E+00 0.  1.
</event>
<event>
 4    1  0.3837333E+003  0.2333126E+02  0.7546771E-02  0.1488380E+00
          2   -1    0    0  502    0  0.00000000000E+00  0.00000000000E+00  0.11649403151E+04  0.11649403151E+04  0.00000000000E+00 0. -1.
          1   -1    0    0  501    0 -0.00000000000E+00 -0.00000000000E+00 -0.18013057591E+02  0.18013057591E+02  0.00000000000E+00 0. -1.
          2    1    1    2  501    0  0.19875812141E+02 -0.12218823376E+02  0.11572181853E+04  0.11574533580E+04  0.00000000000E+00 0. -1.
          1    1    1    2  502    0 -0.19875812141E+02  0.12218823376E+02 -0.10290927813E+02  0.25500014671E+02  0.00000000000E+00 0. -1.
</event>
<event>
 4    1  0.3837333E+003  0.2481272E+02  0.7546771E-02  0.1470909E+00
          2   -1    0    0  502    0  0.00000000000E+00  0.00000000000E+00  0.32535169982E+03  0.32535169982E+03  0.00000000000E+00 0. -1.
          1   -1    0    0  501    0 -0.00000000000E+00 -0.00000000000E+00 -0.62955955204E+01  0.62955955204E+01  0.00000000000E+00 0.  1.
          2    1    1    2  501    0  0.15030788437E+02 -0.19741994831E+02  0.29820867027E+03  0.29923917187E+03  0.00000000000E+00 0. -1.
          1    1    1    2  502    0 -0.15030788437E+02  0.19741994831E+02  0.20847434033E+02  0.32408123468E+02  0.00000000000E+00 0.  1.
</event>
<event>
 4    1  0.3837333E+003  0.4354514E+02  0.7546771E-02  0.1328876E+00
          2   -1    0    0  502    0  0.00000000000E+00  0.00000000000E+00  0.17199937735E+04  0.17199937735E+04  0.00000000000E+00 0.  1.
          1   -1    0    0  501    0 -0.00000000000E+00 -0.00000000000E+00 -0.64313741089E+02  0.64313741089E+02  0.00000000000E+00 0. -1.
          2    1    1    2  501    0 -0.12207291643E+02  0.41799056775E+02  0.17123142970E+04  0.17128678965E+04  0.00000000000E+00 0.  1.
          1    1    1    2  502    0  0.12207291643E+02 -0.41799056775E+02 -0.56634264558E+02  0.71439618130E+02  0.00000000000E+00 0. -1.
</event>
<event>
 4    1  0.3837333E+003  0.3407143E+02  0.7546771E-02  0.1387211E+00
          2   -1    0    0  502    0  0.00000000000E+00  0.00000000000E+00  0.83137705606E+03  0.83137705606E+03  0.00000000000E+00 0.  1.
          1   -1    0    0  501    0 -0.00000000000E+00 -0.00000000000E+00 -0.96059268119E+01  0.96059268119E+01  0.00000000000E+00 0. -1.
          2    1    1    2  501    0 -0.30595770781E+01 -0.33933780397E+02  0.79961635709E+03  0.80034191506E+03  0.00000000000E+00 0.  1.
          1    1    1    2  502    0  0.30595770781E+01  0.33933780397E+02  0.22154772153E+02  0.40641067815E+02  0.00000000000E+00 0. -1.
</event>
<event>
 4    1  0.3837333E+003  0.2677113E+02  0.7546771E-02  0.1449921E+00
          2   -1    0    0  502    0  0.00000000000E+00  0.00000000000E+00  0.16685437995E+04  0.16685437995E+04  0.00000000000E+00 0. -1.
          1   -1    0    0  501    0 -0.00000000000E+00 -0.00000000000E+00 -0.17881937755E+02  0.17881937755E+02  0.00000000000E+00 0.  1.
          2    1    1    2  501    0  0.23634234041E+02  0.12574441943E+02  0.16583550621E+04  0.16585711337E+04  0.00000000000E+00 0. -1.
          1    1    1    2  502    0 -0.23634234041E+02 -0.12574441943E+02 -0.76932003222E+01  0.27854603570E+02  0.00000000000E+00 0.  1.
</event>
<event>
 4    1  0.3837333E+003  0.3998596E+02  0.7546771E-02  0.1348568E+00
          2   -1    0    0  502    0  0.00000000000E+00  0.00000000000E+00  0.62617340095E+03  0.62617340095E+03  0.00000000000E+00 0.  1.
          1   -1    0    0  501    0 -0.00000000000E+00 -0.00000000000E+00 -0.29465157081E+02  0.29465157081E+02  0.00000000000E+00 0. -1.
          2    1    1    2  501    0  0.34275044451E+02  0.20593639139E+02  0.61164739272E+03  0.61295302403E+03  0.00000000000E+00 0.  1.
          1    1    1    2  502    0 -0.34275044451E+02 -0.20593639139E+02 -0.14939148846E+02  0.42685534006E+02  0.00000000000E+00 0. -1.
</event>
<event>
 4    1  0.3837333E+003  0.7358076E+02  0.7546771E-02  0.1219589E+00
          2   -1    0    0  502    0  0.00000000000E+00  0.00000000000E+00  0.32303595594E+04  0.32303595594E+04  0.00000000000E+00 0.  1.
          1   -1    0    0  501    0 -0.00000000000E+00 -0.00000000000E+00 -0.63222709846E+01  0.63222709846E+01  0.00000000000E+00 0.  1.
          2    1    1    2  501    0  0.52846772671E+02 -0.51199088141E+02  0.29993655568E+04  0.30002679666E+04  0.00000000000E+00 0.  1.
          1    1    1    2  502    0 -0.52846772671E+02  0.51199088141E+02  0.22467173159E+03  0.23641386378E+03  0.00000000000E+00 0.  1.
</event>
<event>
 4    1  0.3837333E+003  0.4659375E+02  0.7546771E-02  0.1313657E+00
          2   -1    0    0  502    0  0.00000000000E+00  0.00000000000E+00  0.46278669893E+03  0.46278669893E+03  0.00000000000E+00 0. -1.
          1   -1    0    0  501    0 -0.00000000000E+00 -0.00000000000E+00 -0.15073982967E+02  0.15073982967E+02  0.00000000000E+00 0. -1.
          2    1    1    2  501    0 -0.23644848053E+02 -0.40148462738E+02  0.42215343270E+03  0.42471696298E+03  0.00000000000E+00 0. -1.
          1    1    1    2  502    0  0.23644848053E+02  0.40148462738E+02  0.25559283260E+02  0.53143718918E+02  0.00000000000E+00 0. -1.
</event>
<event>
 4    1  0.3837333E+003  0.2344936E+02  0.7546771E-02  0.1486931E+00
          2   -1    0    0  502    0  0.00000000000E+00  0.00000000000E+00  0.12728174962E+03  0.12728174962E+03  0.00000000000E+00 0.  1.
          1   -1    0    0  501    0 -0.00000000000E+00 -0.00000000000E+00 -0.10631813227E+02  0.10631813227E+02  0.00000000000E+00 0.  1.
          2    1    1    2  501    0 -0.11826642291E+02 -0.20248532969E+02  0.11145575178E+03  0.11389581713E+03  0.00000000000E+00 0.  1.
          1    1    1    2  502    0  0.11826642291E+02  0.20248532969E+02  0.51941846080E+01  0.24017745710E+02  0.00000000000E+00 0.  1.
</event>
<event>
 4    1  0.3837333E+003  0.2368863E+02  0.7546771E-02  0.1484027E+00
          2   -1    0    0  502    0  0.00000000000E+00  0.00000000000E+00  0.67861985107E+01  0.67861985107E+01  0.00000000000E+00 0. -1.
          1   -1    0    0  501    0 -0.00000000000E+00 -0.00000000000E+00 -0.12966285802E+03  0.12966285802E+03  0.00000000000E+00 0. -1.
          2    1    1    2  501    0  0.97546726682E+01  0.21586972715E+02 -0.20374821386E+02  0.31245549705E+02  0.00000000000E+00 0. -1.
          1    1    1    2  502    0 -0.97546726682E+01 -0.21586972715E+02 -0.10250183813E+03  0.10520350683E+03  0.00000000000E+00 0. -1.
</event>
<event>
 4    1  0.3837333E+003  0.2100730E+02  0.7546771E-02  0.1519161E+00
          2   -1    0    0  502    0  0.00000000000E+00  0.00000000000E+00  0.22479491953E+03  0.22479491953E+03  0.00000000000E+00 0.  1.
          1   -1    0    0  501    0 -0.00000000000E+00 -0.00000000000E+00 -0.11072974365E+02  0.11072974365E+02  0.00000000000E+00 0.  1.
          2    1    1    2  501    0 -0.19767784442E+02  0.71092516986E+01  0.21383088076E+03  0.21486030887E+03  0.00000000000E+00 0.  1.
          1    1    1    2  502    0  0.19767784442E+02 -0.71092516986E+01 -0.10893559798E+00  0.21007585021E+02  0.00000000000E+00 0.  1.
</event>
<event>
 4    1  0.3837333E+003  0.2889829E+02  0.7546771E-02  0.1429418E+00
          2   -1    0    0  502    0  0.00000000000E+00  0.00000000000E+00  0.42456116925E+03  0.42456116925E+03  0.00000000000E+00 0. -1.
          1   -1    0    0  501    0 -0.00000000000E+00 -0.00000000000E+00 -0.57108965900E+03  0.57108965900E+03  0.00000000000E+00 0. -1.
          2    1    1    2  501    0 -0.24817769650E+02 -0.14805039857E+02  0.42370310246E+03  0.42468744970E+03  0.00000000000E+00 0. -1.
          1    1    1    2  502    0  0.24817769650E+02  0.14805039857E+02 -0.57023159221E+03  0.57096337855E+03  0.00000000000E+00 0. -1.
</event>
<event>
 4    1  0.3837333E+003  0.3620968E+02  0.7546771E-02  0.1372253E+00
          2   -1    0    0  502    0  0.00000000000E+00  0.00000000000E+00  0.10460093104E+04  0.10460093104E+04  0.00000000000E+00 0.  1.
          1   -1    0    0  501    0 -0.00000000000E+00 -0.00000000000E+00 -0.36592025815E+01  0.36592025815E+01  0.00000000000E+00 0. -1.
          2    1    1    2  501    0 -0.36195253141E+02  0.10221291614E+01  0.94672705687E+03  0.94741926374E+03  0.00000000000E+00 0.  1.
          1    1    1    2  502    0  0.36195253141E+02 -0.10221291614E+01  0.95623050979E+02  0.10224924927E+03  0.00000000000E+00 0. -1.
</event>
<event>
 4    1  0.3837333E+003  0.2549604E+02  0.7546771E-02  0.1463330E+00
          2   -1    0    0  502    0  0.00000000000E+00  0.00000000000E+00  0.98541416396E+02  0.98541416396E+02  0.00000000000E+00 0.  1.
          1   -1    0    0  501    0 -0.00000000000E+00 -0.00000000000E+00 -0.10892505099E+03  0.10892505099E+03  0.00000000000E+00 0. -1.
          2    1    1    2  501    0 -0.15587466273E+02 -0.20176197478E+02  0.95351224637E+02  0.98701084539E+02  0.00000000000E+00 0.  1.
          1    1    1    2  502    0  0.15587466273E+02  0.20176197478E+02 -0.10573485923E+03  0.10876538285E+03  0.00000000000E+00 0. -1.
</event>
<event>
 4    1  0.3837333E+003  0.2600012E+02  0.7546771E-02  0.1457919E+00
          2   -1    0    0  502    0  0.00000000000E+00  0.00000000000E+00  0.99600767323E+03  0.99600767323E+03  0.00000000000E+00 0. -1.
          1   -1    0    0  501    0 -0.00000000000E+00 -0.00000000000E+00 -0.18927915600E+02  0.18927915600E+02  0.00000000000E+00 0. -1.
          2    1    1    2  501    0  0.25958757993E+02 -0.14659784634E+01  0.98682624286E+03  0.98716869876E+03  0.00000000000E+00 0. -1.
          1    1    1    2  502    0 -0.25958757993E+02  0.14659784634E+01 -0.97464852380E+01  0.27766890065E+02  0.00000000000E+00 0. -1.
</event>
<event>
 4    1  0.3837333E+003  0.2003457E+02  0.7546771E-02  0.1533508E+00
          2   -1    0    0  502    0  0.00000000000E+00  0.00000000000E+00  0.12529145296E+04  0.12529145296E+04  0.00000000000E+00 0. -1.
          1   -1    0    0  501    0 -0.00000000000E+00 -0.00000000000E+00 -0.11398483863E+02  0.11398483863E+02  0.00000000000E+00 0.  1.
          2    1    1    2  501    0 -0.19353489424E+02  0.51794156741E+01  0.12439676783E+04  0.12441290000E+04  0.00000000000E+00 0. -1.
          1    1    1    2  502    0  0.19353489424E+02 -0.51794156741E+01 -0.24516325411E+01  0.20184013519E+02  0.00000000000E+00 0.  1.
</event>
<event>
 4    1  0.5122418E+003  0.3192065E+02  0.7546771E-02  0.1403609E+00
          2   -1    0    0  502    0  0.00000000000E+00  0.00000000000E+00  0.23182666069E+04  0.23182666069E+04  0.00000000000E+00 0.  1.
          1   -1    0    0  501    0 -0.00000000000E+00 -0.00000000000E+00 -0.13671594656E+04  0.13671594656E+04  0.00000000000E+00 0. -1.
          2    1    1    2  501    0 -0.10588594760E+02  0.30113283936E+02  0.23179703806E+04  0.23181901591E+04  0.00000000000E+00 0.  1.
          1    1    1    2  502    0  0.10588594760E+02 -0.30113283936E+02 -0.13668632393E+04  0.13672359135E+04  0.00000000000E+00 0. -1.
</event>
<event>
 4    1  0.3837333E+003  0.2413522E+02  0.7546771E-02  0.1478715E+00
          2   -1    0    0  502    0  0.00000000000E+00  0.00000000000E+00  0.17219494094E+02  0.17219494094E+02  0.00000000000E+00 0.  1.
          1   -1    0    0  501    0 -0.00000000000E+00 -0.00000000000E+00 -0.60145004542E+02  0.60145004542E+02  0.00000000000E+00 0.  1.
          2    1    1    2  501    0 -0.18347450226E+02 -0.15680564848E+02  0.41246551336E+01  0.24485134750E+02  0.00000000000E+00 0.  1.
          1    1    1    2  502    0  0.18347450226E+02  0.15680564848E+02 -0.47050165582E+02  0.52879363886E+02  0.00000000000E+00 0.  1.
</event>
<event>
 4    1  0.3837333E+003  0.2758101E+02  0.7546771E-02  0.1441857E+00
          2   -1    0    0  502    0  0.00000000000E+00  0.00000000000E+00  0.25861394267E+02  0.25861394267E+02  0.00000000000E+00 0.  1.
          1   -1    0    0  501    0 -0.00000000000E+00 -0.00000000000E+00 -0.33676187592E+02  0.33676187592E+02  0.00000000000E+00 0.  1.
          2    1    1    2  501    0  0.43826897105E+01 -0.27230573878E+02  0.66818878886E+01  0.28378860946E+02  0.00000000000E+00 0.  1.
          1    1    1    2  502    0 -0.43826897105E+01  0.27230573878E+02 -0.14496681213E+02  0.31158720914E+02  0.00000000000E+00 0.  1.
</event>
<event>
 4    1  0.3837333E+003  0.2141133E+02  0.7546771E-02  0.1513472E+00
          2   -1    0    0  502    0  0.00000000000E+00  0.00000000000E+00  0.11382289513E+04  0.11382289513E+04  0.00000000000E+00 0.  1.
          1   -1    0    0  501    0 -0.00000000000E+00 -0.00000000000E+00 -0.31102317128E+01  0.31102317128E+01  0.00000000000E+00 0. -1.
          2    1    1    2  501    0  0.14082010483E+01 -0.21364967861E+02  0.10999979099E+04  0.11002062746E+04  0.00000000000E+00 0.  1.
          1    1    1    2  502    0 -0.14082010483E+01  0.21364967861E+02  0.35120809718E+02  0.41132908445E+02  0.00000000000E+00 0. -1.
</event>
<event>
 4    1  0.3837333E+003  0.2056137E+02  0.7546771E-02  0.1525620E+00
          2   -1    0    0  502    0  0.00000000000E+00  0.00000000000E+00  0.88245536537E+03  0.88245536537E+03  0.00000000000E+00 0.  1.
          1   -1    0    0  501    0 -0.00000000000E+00 -0.00000000000E+00 -0.13146777617E+01  0.13146777617E+01  0.00000000000E+00 0. -1.
          2    1    1    2  501    0  0.20561313265E+02  0.49877440001E-01  0.79285786724E+03  0.79312443396E+03  0.00000000000E+00 0.  1.
          1    1    1    2  502    0 -0.20561313265E+02 -0.49877440001E-01  0.88282820364E+02  0.90645609173E+02  0.00000000000E+00 0. -1.
</event>
<event>
 4    1  0.3837333E+003  0.3034647E+02  0.7546771E-02  0.1416609E+00
          2   -1    0    0  502    0  0.00000000000E+00  0.00000000000E+00  0.89994247970E+03  0.89994247970E+03  0.00000000000E+00 0. -1.
          1   -1    0    0  501    0 -0.00000000000E+00 -0.00000000000E+00 -0.22055086742E+03  0.22055086742E+03  0.00000000000E+00 0.  1.
          2    1    1    2  501    0 -0.21471750669E+02 -0.21444623725E+02  0.89864127199E+03  0.89915351509E+03  0.00000000000E+00 0. -1.
          1    1    1    2  502    0  0.21471750669E+02  0.21444623725E+02 -0.21924965971E+03  0.22133983204E+03  0.00000000000E+00 0.  1.
</event>
<event>
 4    1  0.3837333E+003  0.2991760E+02  0.7546771E-02  0.1420314E+00
          2   -1    0    0  502    0  0.00000000000E+00  0.00000000000E+00  0.12032298789E+02  0.12032298789E+02  0.00000000000E+00 0.  1.
          1   -1    0    0  501    0 -0.00000000000E+00 -0.00000000000E+00 -0.56247446049E+03  0.56247446049E+03  0.00000000000E+00 0.  1.
          2    1    1    2  501    0 -0.39100279365E+01 -0.29660988475E+02 -0.76359489288E+01  0.30876694639E+02  0.00000000000E+00 0.  1.
          1    1    1    2  502    0  0.39100279365E+01  0.29660988475E+02 -0.54280621277E+03  0.54363006464E+03  0.00000000000E+00 0.  1.
</event>
<event>
 4    1  0.3837333E+003  0.2012063E+02  0.7546771E-02  0.1532200E+00
          2   -1    0    0  502    0  0.00000000000E+00  0.00000000000E+00  0.69469028435E+02  0.69469028435E+02  0.00000000000E+00 0.  1.
          1   -1    0    0  501    0 -0.00000000000E+00 -0.00000000000E+00 -0.35025158821E+03  0.35025158821E+03  0.00000000000E+00 0.  1.
          2    1    1    2  501    0  0.67077362081E+01 -0.18969606673E+02  0.67715834586E+02  0.70641871125E+02  0.00000000000E+00 0.  1.
          1    1    1    2  502    0 -0.67077362081E+01  0.18969606673E+02 -0.34849839436E+03  0.34907874552E+03  0.00000000000E+00 0.  1.
</event>
<event>
 4    1  0.3837333E+003  0.2077430E+02  0.7546771E-02  0.1522512E+00
          2   -1    0    0  502    0  0.00000000000E+00  0.00000000000E+00  0.71565091121E+03  0.71565091121E+03  0.00000000000E+00 0. -1.
          1   -1    0    0  501    0 -0.00000000000E+00 -0.00000000000E+00 -0.16870412783E+01  0.16870412783E+01  0.00000000000E+00 0. -1.
          2    1    1    2  501    0  0.69827567183E+01  0.19565601966E+02  0.64448620774E+03  0.64482093921E+03  0.00000000000E+00 0. -1.
          1    1    1    2  502    0 -0.69827567183E+01 -0.19565601966E+02  0.69477662187E+02  0.72517013278E+02  0.00000000000E+00 0. -1.
</event>
<event>
 4    1  0.3837333E+003  0.2231438E+02  0.7546771E-02  0.1501292E+00
          2   -1    0    0  502    0  0.00000000000E+00  0.00000000000E+00  0.19015994673E+03  0.19015994673E+03  0.00000000000E+00 0. -1.
          1   -1    0    0  501    0 -0.00000000000E+00 -0.00000000000E+00 -0.81623267907E+03  0.81623267907E+03  0.00000000000E+00 0. -1.
          2    1    1    2  501    0  0.11119100158E+02  0.19346757890E+02  0.18935216748E+03  0.19066246290E+03  0.00000000000E+00 0. -1.
          1    1    1    2  502    0 -0.11119100158E+02 -0.19346757890E+02 -0.81542489982E+03  0.81573016291E+03  0.00000000000E+00 0. -1.
</event>
<event>
 4    1  0.3837333E+003  0.6075368E+02  0.7546771E-02  0.1257293E+00
          2   -1    0    0  502    0  0.00000000000E+00  0.00000000000E+00  0.63259930921E+02  0.63259930921E+02  0.00000000000E+00 0.  1.
          1   -1    0    0  501    0 -0.00000000000E+00 -0.00000000000E+00 -0.64673764508E+02  0.64673764508E+02  0.00000000000E+00 0.  1.
          2    1    1    2  501    0  0.60367352886E+02 -0.68404826383E+01  0.19300513496E+02  0.63745739610E+02  0.00000000000E+00 0.  1.
          1    1    1    2  502    0 -0.60367352886E+02  0.68404826383E+01 -0.20714347083E+02  0.64187955819E+02  0.00000000000E+00 0.  1.
</event>
<event>
 4    1  0.3837333E+003  0.2280049E+02  0.7546771E-02  0.1495019E+00
          2   -1    0    0  502    0  0.00000000000E+00  0.00000000000E+00  0.96398502242E+02  0.96398502242E+02  0.00000000000E+00 0.  1.
          1   -1    0    0  501    0 -0.00000000000E+00 -0.00000000000E+00 -0.78489761002E+01  0.78489761002E+01  0.00000000000E+00 0. -1.
          2    1    1    2  501    0 -0.15758361386E+02  0.16478364227E+02  0.73432552345E+02  0.76890845912E+02  0.00000000000E+00 0.  1.
          1    1    1    2  502    0  0.15758361386E+02 -0.16478364227E+02  0.15116973797E+02  0.27356632431E+02  0.00000000000E+00 0. -1.
</event>
<event>
 4    1  0.3837333E+003  0.2538838E+02  0.7546771E-02  0.1464505E+00
          2   -1    0    0  502    0  0.00000000000E+00  0.00000000000E+00  0.15978798196E+01  0.15978798196E+01  0.00000000000E+00 0.  1.
          1   -1    0    0  501    0 -0.00000000000E+00 -0.00000000000E+00 -0.40437722753E+03  0.40437722753E+03  0.00000000000E+00 0.  1.
          2    1    1    2  501    0  0.21874649874E+02 -0.12886762283E+02 -0.21141863505E+03  0.21293756877E+03  0.00000000000E+00 0.  1.
          1    1    1    2  502    0 -0.21874649874E+02  0.12886762283E+02 -0.19136071266E+03  0.19303753858E+03  0.00000000000E+00 0.  1.
</event>
<event>
 4    1  0.3837333E+003  0.2389461E+02  0.7546771E-02  0.1481560E+00
          2   -1    0    0  502    0  0.00000000000E+00  0.00000000000E+00  0.15115013186E+04  0.15115013186E+04  0.00000000000E+00 0. -1.
          1   -1    0    0  501    0 -0.00000000000E+00 -0.00000000000E+00 -0.81321335798E+01  0.81321335798E+01  0.00000000000E+00 0. -1.
          2    1    1    2  501    0  0.23670258305E+02  0.32666650768E+01  0.14936447077E+04  0.14938358227E+04  0.00000000000E+00 0. -1.
          1    1    1    2  502    0 -0.23670258305E+02 -0.32666650768E+01  0.97244773006E+01  0.25797629498E+02  0.00000000000E+00 0. -1.
</event>
<event>
 4    1  0.3837333E+003  0.2199083E+02  0.7546771E-02  0.1505575E+00
          2   -1    0    0  502    0  0.00000000000E+00  0.00000000000E+00  0.39467816719E+03  0.39467816719E+03  0.00000000000E+00 0. -1.
          1   -1    0    0  501    0 -0.00000000000E+00 -0.00000000000E+00 -0.48211842114E+02  0.48211842114E+02  0.00000000000E+00 0. -1.
          2    1    1    2  501    0  0.17668715615E+02  0.13092485689E+02  0.39184606814E+03  0.39246265786E+03  0.00000000000E+00 0. -1.
          1    1    1    2  502    0 -0.17668715615E+02 -0.13092485689E+02 -0.45379743068E+02  0.50427351446E+02  0.00000000000E+00 0. -1.
</event>
<event>
 4    1  0.3837333E+003  0.4176323E+02  0.7546771E-02  0.1338452E+00
          2   -1    0    0  502    0  0.00000000000E+00  0.00000000000E+00  0.78802623488E+02  0.78802623488E+02  0.00000000000E+00 0.  1.
          1   -1    0    0  501    0 -0.00000000000E+00 -0.00000000000E+00 -0.63121284126E+03  0.63121284126E+03  0.00000000000E+00 0. -1.
          2    1    1    2  501    0  0.34652277407E+02  0.23310668264E+02  0.72522940786E+02  0.83688377477E+02  0.00000000000E+00 0.  1.
          1    1    1    2  502    0 -0.34652277407E+02 -0.23310668264E+02 -0.62493315856E+03  0.62632708727E+03  0.00000000000E+00 0. -1.
</event>
<event>
 4    1  0.3837333E+003  0.2643291E+02  0.7546771E-02  0.1453389E+00
          2   -1    0    0  502    0  0.00000000000E+00  0.00000000000E+00  0.12696160827E+02  0.12696160827E+02  0.00000000000E+00 0. -1.
          1   -1    0    0  501    0 -0.00000000000E+00 -0.00000000000E+00 -0.95328480481E+02  0.95328480481E+02  0.00000000000E+00 0. -1.
          2    1    1    2  501    0  0.92004164704E+01  0.24780055842E+02 -0.61994769048E+01  0.27150181301E+02  0.00000000000E+00 0. -1.
          1    1    1    2  502    0 -0.92004164704E+01 -0.24780055842E+02 -0.76432842749E+02  0.80874460007E+02  0.00000000000E+00 0. -1.
</event>
<event>
 4    1  0.3837333E+003  0.2035804E+02  0.7546771E-02  0.1528631E+00
          2   -1    0    0  502    0  0.00000000000E+00  0.00000000000E+00  0.12214623501E+04  0.12214623501E+04  0.00000000000E+00 0.  1.
          1   -1    0    0  501    0 -0.00000000000E+00 -0.00000000000E+00 -0.43915754647E+00  0.43915754647E+00  0.00000000000E+00 0.  1.
          2    1    1    2  501    0 -0.10207540262E+02  0.17614086142E+02  0.90183321021E+03  0.90206296285E+03  0.00000000000E+00 0.  1.
          1    1    1    2  502    0  0.10207540262E+02 -0.17614086142E+02  0.31918998238E+03  0.31983854484E+03  0.00000000000E+00 0.  1.
</event>
<event>
 4    1  0.3837333E+003  0.2138445E+02  0.7546771E-02  0.1513846E+00
          2   -1    0    0  502    0  0.00000000000E+00  0.00000000000E+00  0.44989024017E+03  0.44989024017E+03  0.00000000000E+00 0. -1.
          1   -1    0    0  501    0 -0.00000000000E+00 -0.00000000000E+00 -0.37112220931E+02  0.37112220931E+02  0.00000000000E+00 0. -1.
          2    1    1    2  501    0 -0.14815168108E+02  0.15420939288E+02  0.44653248977E+03  0.44704424724E+03  0.00000000000E+00 0. -1.
          1    1    1    2  502    0  0.14815168108E+02 -0.15420939288E+02 -0.33754470525E+02  0.39958213861E+02  0.00000000000E+00 0. -1.
</event>
<event>
 4    1  0.3837333E+003  0.5188311E+02  0.7546771E-02  0.1290208E+00
          2   -1    0    0  502    0  0.00000000000E+00  0.00000000000E+00  0.27070812441E+02  0.27070812441E+02  0.00000000000E+00 0. -1.
          1   -1    0    0  501    0 -0.00000000000E+00 -0.00000000000E+00 -0.27913529731E+03  0.27913529731E+03  0.00000000000E+00 0. -1.
          2    1    1    2  501    0 -0.48454300114E+02 -0.18548271400E+02 -0.31900126412E+01  0.51981090332E+02  0.00000000000E+00 0. -1.
          1    1    1    2  502    0  0.48454300114E+02  0.18548271400E+02 -0.24887447222E+03  0.25422501941E+03  0.00000000000E+00 0. -1.
</event>
<event>
 4    1  0.3837333E+003  0.3643701E+02  0.7546771E-02  0.1370733E+00
          2   -1    0    0  502    0  0.00000000000E+00  0.00000000000E+00  0.39878083761E+02  0.39878083761E+02  0.00000000000E+00 0. -1.
          1   -1    0    0  501    0 -0.00000000000E+00 -0.00000000000E+00 -0.24774215398E+03  0.24774215398E+03  0.00000000000E+00 0. -1.
          2    1    1    2  501    0  0.13327006645E+02 -0.33912336788E+02  0.29866634487E+02  0.47113390327E+02  0.00000000000E+00 0. -1.
          1    1    1    2  502    0 -0.13327006645E+02  0.33912336788E+02 -0.23773070471E+03  0.24050684741E+03  0.00000000000E+00 0. -1.
</event>
<event>
 4    1  0.3837333E+003  0.4332015E+02  0.7546771E-02  0.1330056E+00
          2   -1    0    0  502    0  0.00000000000E+00  0.00000000000E+00  0.13532082699E+04  0.13532082699E+04  0.00000000000E+00 0.  1.
          1   -1    0    0  501    0 -0.00000000000E+00 -0.00000000000E+00 -0.42396850647E+02  0.42396850647E+02  0.00000000000E+00 0. -1.
          2    1    1    2  501    0 -0.20511933545E+02 -0.38156206955E+02  0.13417007936E+04  0.13423999610E+04  0.00000000000E+00 0.  1.
          1    1    1    2  502    0  0.20511933545E+02  0.38156206955E+02 -0.30889374441E+02  0.53205159527E+02  0.00000000000E+00 0. -1.
</event>
<event>
 4    1  0.3837333E+003  0.2269845E+02  0.7546771E-02  0.1496320E+00
          2   -1    0    0  502    0  0.00000000000E+00  0.00000000000E+00  0.78070283787E+03  0.78070283787E+03  0.00000000000E+00 0.  1.
          1   -1    0    0  501    0 -0.00000000000E+00 -0.00000000000E+00 -0.11318403543E+01  0.11318403543E+01  0.00000000000E+00 0. -1.
          2    1    1    2  501    0 -0.79247968526E+01  0.21270106974E+02  0.64220089037E+03  0.64260190122E+03  0.00000000000E+00 0.  1.
          1    1    1    2  502    0  0.79247968526E+01 -0.21270106974E+02  0.13737010714E+03  0.13923277700E+03  0.00000000000E+00 0. -1.
</event>
<event>
 4    1  0.3837333E+003  0.2889631E+02  0.7546771E-02  0.1429436E+00
          2   -1    0    0  502    0  0.00000000000E+00  0.00000000000E+00  0.74240438961E+03  0.74240438961E+03  0.00000000000E+00 0.  1.
          1   -1    0    0  501    0 -0.00000000000E+00 -0.00000000000E+00 -0.43566083537E+01  0.43566083537E+01  0.00000000000E+00 0. -1.
          2    1    1    2  501    0 -0.12512810714E+02  0.26046623105E+02  0.69061612406E+03  0.69122039019E+03  0.00000000000E+00 0.  1.
          1    1    1    2  502    0  0.12512810714E+02 -0.26046623105E+02  0.47431657197E+02  0.55540607771E+02  0.00000000000E+00 0. -1.
</event>
<event>
 4    1  0.3837333E+003  0.2133545E+02  0.7546771E-02  0.1514529E+00
          2   -1    0    0  502    0  0.00000000000E+00  0.00000000000E+00  0.49046206865E+01  0.49046206865E+01  0.00000000000E+00 0.  1.
          1   -1    0    0  501    0 -0.00000000000E+00 -0.00000000000E+00 -0.18956396414E+03  0.18956396414E+03  0.00000000000E+00 0. -1.
          2    1    1    2  501    0 -0.12675362696E+02  0.17162067314E+02 -0.22863344699E+02  0.31271934778E+02  0.00000000000E+00 0.  1.
          1    1    1    2  502    0  0.12675362696E+02 -0.17162067314E+02 -0.16179599875E+03  0.16319665005E+03  0.00000000000E+00 0. -1.
</event>
<event>
 4    1  0.3837333E+003  0.2050170E+02  0.7546771E-02  0.1526500E+00
          2   -1    0    0  502    0  0.00000000000E+00  0.00000000000E+00  0.18313915502E+01  0.18313915502E+01  0.00000000000E+00 0.  1.
          1   -1    0    0  501    0 -0.00000000000E+00 -0.00000000000E+00 -0.36613039099E+03  0.36613039099E+03  0.00000000000E+00 0.  1.
          2    1    1    2  501    0  0.20374793389E+02 -0.22776059876E+01 -0.69762733040E+02  0.72712850417E+02  0.00000000000E+00 0.  1.
          1    1    1    2  502    0 -0.20374793389E+02  0.22776059876E+01 -0.29453626640E+03  0.29524893212E+03  0.00000000000E+00 0.  1.
</event>
<event>
 4    1  0.3837333E+003  0.2823225E+02  0.7546771E-02  0.1435608E+00
          2   -1    0    0  502    0  0.00000000000E+00  0.00000000000E+00  0.86769129520E+03  0.86769129520E+03  0.00000000000E+00 0. -1.
          1   -1    0    0  501    0 -0.00000000000E+00 -0.00000000000E+00 -0.60776856852E+02  0.60776856852E+02  0.00000000000E+00 0. -1.
          2    1    1    2  501    0  0.16957564525E+02 -0.22572122563E+02  0.86416965654E+03  0.86463070440E+03  0.00000000000E+00 0. -1.
          1    1    1    2  502    0 -0.16957564525E+02  0.22572122563E+02 -0.57255218194E+02  0.63837447647E+02  0.00000000000E+00 0. -1.
</event>
<event>
 4    1  0.3837333E+003  0.2081346E+02  0.7546771E-02  0.1521945E+00
          2   -1    0    0  502    0  0.00000000000E+00  0.00000000000E+00  0.45239856295E+03  0.45239856295E+03  0.00000000000E+00 0. -1.
          1   -1    0    0  501    0 -0.00000000000E+00 -0.00000000000E+00 -0.13172285512E+02  0.13172285512E+02  0.00000000000E+00 0. -1.
          2    1    1    2  501    0  0.82543947316E+00  0.20797084862E+02  0.44377773352E+03  0.44426554768E+03  0.00000000000E+00 0. -1.
          1    1    1    2  502    0 -0.82543947316E+00 -0.20797084862E+02 -0.45514560780E+01  0.21305300784E+02  0.00000000000E+00 0. -1.
</event>
<event>
 4    1  0.3837333E+003  0.3565153E+02  0.7546771E-02  0.1376040E+00
          2   -1    0    0  502    0  0.00000000000E+00  0.00000000000E+00  0.20766288311E+04  0.20766288311E+04  0.00000000000E+00 0. -1.
          1   -1    0    0  501    0 -0.00000000000E+00 -0.00000000000E+00 -0.10218520714E+02  0.10218520714E+02  0.00000000000E+00 0. -1.
          2    1    1    2  501    0 -0.22871291294E+02 -0.27348405305E+02  0.20448970507E+04  0.20452078083E+04  0.00000000000E+00 0. -1.
          1    1    1    2  502    0  0.22871291294E+02  0.27348405305E+02  0.21513259633E+02  0.41639543444E+02  0.00000000000E+00 0. -1.
</event>
<event>
 4    1  0.3837333E+003  0.2364629E+02  0.7546771E-02  0.1484538E+00
          2   -1    0    0  502    0  0.00000000000E+00  0.00000000000E+00  0.15769854533E+04  0.15769854533E+04  0.00000000000E+00 0. -1.
          1   -1    0    0  501    0 -0.00000000000E+00 -0.00000000000E+00 -0.13397914184E+01  0.13397914184E+01  0.00000000000E+00 0. -1.
          2    1    1    2  501    0 -0.28778308465E+01 -0.23470517616E+02  0.14645529097E+04  0.14647437907E+04  0.00000000000E+00 0. -1.
          1    1    1    2  502    0  0.28778308465E+01  0.23470517616E+02  0.11109275213E+03  0.11358145395E+03  0.00000000000E+00 0. -1.
</event>
<event>
 4    1  0.3837333E+003  0.2147784E+02  0.7546771E-02  0.1512551E+00
          2   -1    0    0  502    0  0.00000000000E+00  0.00000000000E+00  0.15037730679E+03  0.15037730679E+03  0.00000000000E+00 0.  1.
          1   -1    0    0  501    0 -0.00000000000E+00 -0.00000000000E+00 -0.42511443706E+02  0.42511443706E+02  0.00000000000E+00 0.  1.
          2    1    1    2  501    0  0.21477524420E+02  0.11590680138E+00  0.14683247708E+03  0.14839499256E+03  0.00000000000E+00 0.  1.
          1    1    1    2  502    0 -0.21477524420E+02 -0.11590680138E+00 -0.38966613995E+02  0.44493757943E+02  0.00000000000E+00 0.  1.
</event>
<event>
 4    1  0.3837333E+003  0.2610345E+02  0.7546771E-02  0.1456828E+00
          2   -1    0    0  502    0  0.00000000000E+00  0.00000000000E+00  0.81712403935E+02  0.81712403935E+02  0.00000000000E+00 0. -1.
          1   -1    0    0  501    0 -0.00000000000E+00 -0.00000000000E+00 -0.51588899885E+02  0.51588899885E+02  0.00000000000E+00 0.  1.
          2    1    1    2  501    0 -0.26097792383E+02  0.54329982283E+00  0.76088386966E+02  0.80441485398E+02  0.00000000000E+00 0. -1.
          1    1    1    2  502    0  0.26097792383E+02 -0.54329982283E+00 -0.45964882917E+02  0.52859818421E+02  0.00000000000E+00 0.  1.
</event>
<event>
 4    1  0.3837333E+003  0.3423105E+02  0.7546771E-02  0.1386051E+00
          2   -1    0    0  502    0  0.00000000000E+00  0.00000000000E+00  0.22290483284E+03  0.22290483284E+03  0.00000000000E+00 0.  1.
          1   -1    0    0  501    0 -0.00000000000E+00 -0.00000000000E+00 -0.44924356503E+02  0.44924356503E+02  0.00000000000E+00 0. -1.
          2    1    1    2  501    0 -0.20728370167E+02 -0.27241500500E+02  0.21482619005E+03  0.21753633400E+03  0.00000000000E+00 0.  1.
          1    1    1    2  502    0  0.20728370167E+02  0.27241500500E+02 -0.36845713714E+02  0.50292855341E+02  0.00000000000E+00 0. -1.
</event>
<event>
 4    1  0.3837333E+003  0.2039880E+02  0.7546771E-02  0.1528024E+00
          2   -1    0    0  502    0  0.00000000000E+00  0.00000000000E+00  0.57427925999E+03  0.57427925999E+03  0.00000000000E+00 0. -1.
          1   -1    0    0  501    0 -0.00000000000E+00 -0.00000000000E+00 -0.36317947869E+01  0.36317947869E+01  0.00000000000E+00 0.  1.
          2    1    1    2  501    0  0.19140201240E+02 -0.70543304827E+01  0.54385255347E+03  0.54423497756E+03  0.00000000000E+00 0. -1.
          1    1    1    2  502    0 -0.19140201240E+02  0.70543304827E+01  0.26794911734E+02  0.33676077219E+02  0.00000000000E+00 0.  1.
</event>
<event>
 4    1  0.3837333E+003  0.2208002E+02  0.7546771E-02  0.1504385E+00
          2   -1    0    0  502    0  0.00000000000E+00  0.00000000000E+00  0.47262484378E+03  0.47262484378E+03  0.00000000000E+00 0. -1.
          1   -1    0    0  501    0 -0.00000000000E+00 -0.00000000000E+00 -0.14071493557E+01  0.14071493557E+01  0.00000000000E+00 0.  1.
          2    1    1    2  501    0 -0.13918230847E+02  0.17140894887E+02  0.35806501332E+03  0.35874514797E+03  0.00000000000E+00 0. -1.
          1    1    1    2  502    0  0.13918230847E+02 -0.17140894887E+02  0.11315268111E+03  0.11528684517E+03  0.00000000000E+00 0.  1.
</event>
<event>
 4    1  0.3837333E+003  0.2026996E+02  0.7546771E-02  0.1529948E+00
          2   -1    0    0  502    0  0.00000000000E+00  0.00000000000E+00  0.88318236665E+03  0.88318236665E+03  0.00000000000E+00 0.  1.
          1   -1    0    0  501    0 -0.00000000000E+00 -0.00000000000E+00 -0.14657913584E+01  0.14657913584E+01  0.00000000000E+00 0.  1.
          2    1    1    2  501    0 -0.20054610336E+02  0.29468532972E+01  0.80630933867E+03  0.80656408361E+03  0.00000000000E+00 0.  1.
          1    1    1    2  502    0  0.20054610336E+02 -0.29468532972E+01  0.75407236628E+02  0.78084074407E+02  0.00000000000E+00 0.  1.
</event>
<event>
 4    1  0.3837333E+003  0.7368168E+02  0.7546771E-02  0.1219328E+00
          2   -1    0    0  502    0  0.00000000000E+00  0.00000000000E+00  0.40777342847E+02  0.40777342847E+02  0.00000000000E+00 0.  1.
          1   -1    0    0  501    0 -0.00000000000E+00 -0.00000000000E+00 -0.34474576202E+03  0.34474576202E+03  0.00000000000E+00 0. -1.
          2    1    1    2  501    0  0.52831702125E+02 -0.51359524807E+02 -0.96320436411E+00  0.73687972563E+02  0.00000000000E+00 0.  1.
          1    1    1    2  502    0 -0.52831702125E+02  0.51359524807E+02 -0.30300521481E+03  0.31183513231E+03  0.00000000000E+00 0. -1.
</event>
<event>
 4    1  0.3837333E+003  0.4688785E+02  0.7546771E-02  0.1312260E+00
          2   -1    0    0  502    0  0.00000000000E+00  0.00000000000E+00  0.73925160302E+02  0.73925160302E+02  0.00000000000E+00 0.  1.
          1   -1    0    0  501    0 -0.00000000000E+00 -0.00000000000E+00 -0.34511278064E+03  0.34511278064E+03  0.00000000000E+00 0. -1.
          2    1    1    2  501    0  0.45772970616E+02  0.10163947647E+02  0.64694464719E+02  0.79898963924E+02  0.00000000000E+00 0.  1.
          1    1    1    2  502    0 -0.45772970616E+02 -0.10163947647E+02 -0.33588208506E+03  0.33913897702E+03  0.00000000000E+00 0. -1.
</event>
<event>
 4    1  0.3837333E+003  0.2066330E+02  0.7546771E-02  0.1524127E+00
          2   -1    0    0  502    0  0.00000000000E+00  0.00000000000E+00  0.30506874361E+03  0.30506874361E+03  0.00000000000E+00 0.  1.
          1   -1    0    0  501    0 -0.00000000000E+00 -0.00000000000E+00 -0.14007843754E+01  0.14007843754E+01  0.00000000000E+00 0.  1.
          2    1    1    2  501    0  0.17949573002E+02  0.10236451274E+02  0.15630266220E+03  0.15766259644E+03  0.00000000000E+00 0.  1.
          1    1    1    2  502    0 -0.17949573002E+02 -0.10236451274E+02  0.14736529704E+03  0.14880693155E+03  0.00000000000E+00 0.  1.
</event>
<event>
 4    1  0.3837333E+003  0.2354285E+02  0.7546771E-02  0.1485792E+00
          2   -1    0    0  502    0  0.00000000000E+00  0.00000000000E+00  0.85974655440E+02  0.85974655440E+02  0.00000000000E+00 0.  1.
          1   -1    0    0  501    0 -0.00000000000E+00 -0.00000000000E+00 -0.31330156190E+02  0.31330156190E+02  0.00000000000E+00 0. -1.
          2    1    1    2  501    0 -0.12653997260E+02  0.19853018401E+02  0.79592979493E+02  0.83001857635E+02  0.00000000000E+00 0.  1.
          1    1    1    2  502    0  0.12653997260E+02 -0.19853018401E+02 -0.24948480244E+02  0.34302953995E+02  0.00000000000E+00 0. -1.
</event>
<event>
 4    1  0.3837333E+003  0.4139728E+02  0.7546771E-02  0.1340487E+00
          2   -1    0    0  502    0  0.00000000000E+00  0.00000000000E+00  0.46886989099E+02  0.46886989099E+02  0.00000000000E+00 0.  1.
          1   -1    0    0  501    0 -0.00000000000E+00 -0.00000000000E+00 -0.53256220721E+03  0.53256220721E+03  0.00000000000E+00 0.  1.
          2    1    1    2  501    0 -0.39270113845E+02 -0.13099360372E+02  0.36768228146E+02  0.55368201023E+02  0.00000000000E+00 0.  1.
          1    1    1    2  502    0  0.39270113845E+02  0.13099360372E+02 -0.52244344626E+03  0.52408099529E+03  0.00000000000E+00 0.  1.
</event>
<event>
 4    1  0.3837333E+003  0.2196529E+02  0.7546771E-02  0.1505916E+00
          2   -1    0    0  502    0  0.00000000000E+00  0.00000000000E+00  0.50168692617E+00  0.50168692617E+00  0.00000000000E+00 0.  1.
          1   -1    0    0  501    0 -0.00000000000E+00 -0.00000000000E+00 -0.98453078191E+03  0.98453078191E+03  0.00000000000E+00 0.  1.
          2    1    1    2  501    0  0.10508837698E+02 -0.19288289840E+02 -0.41701851736E+03  0.41759659675E+03  0.00000000000E+00 0.  1.
          1    1    1    2  502    0 -0.10508837698E+02  0.19288289840E+02 -0.56701057762E+03  0.56743587209E+03  0.00000000000E+00 0.  1.
</event>
<event>
 4    1  0.3837333E+003  0.3260654E+02  0.7546771E-02  0.1398219E+00
          2   -1    0    0  502    0  0.00000000000E+00  0.00000000000E+00  0.37609273904E+03  0.37609273904E+03  0.00000000000E+00 0. -1.
          1   -1    0    0  501    0 -0.00000000000E+00 -0.00000000000E+00 -0.41295627607E+02  0.41295627607E+02  0.00000000000E+00 0. -1.
          2    1    1    2  501    0 -0.74701177659E+01 -0.31739304992E+02  0.36882295468E+03  0.37026147253E+03  0.00000000000E+00 0. -1.
          1    1    1    2  502    0  0.74701177659E+01  0.31739304992E+02 -0.34025843244E+02  0.47126894119E+02  0.00000000000E+00 0. -1.
</event>
<event>
 4    1  0.3837333E+003  0.2687964E+02  0.7546771E-02  0.1448821E+00
          2   -1    0    0  502    0  0.00000000000E+00  0.00000000000E+00  0.20310849277E+02  0.20310849277E+02  0.00000000000E+00 0. -1.
          1   -1    0    0  501    0 -0.00000000000E+00 -0.00000000000E+00 -0.88212099805E+02  0.88212099805E+02  0.00000000000E+00 0.  1.
          2    1    1    2  501    0  0.26737158173E+02 -0.27639276981E+01  0.79656159393E+01  0.28035084462E+02  0.00000000000E+00 0. -1.
          1    1    1    2  502    0 -0.26737158173E+02  0.27639276981E+01 -0.75866866468E+02  0.80487864621E+02  0.00000000000E+00 0.  1.
</event>
<event>
 4    1  0.3837333E+003  0.2422405E+02  0.7546771E-02  0.1477674E+00
          2   -1    0    0  502    0  0.00000000000E+00  0.00000000000E+00  0.47649033857E+00  0.47649033857E+00  0.00000000000E+00 0.  1.
          1   -1    0    0  501    0 -0.00000000000E+00 -0.00000000000E+00 -0.13006463290E+04  0.13006463290E+04  0.00000000000E+00 0.  1.
          2    1    1    2  501    0 -0.20970145226E+02  0.12126729477E+02 -0.50009949845E+03  0.50068584253E+03  0.00000000000E+00 0.  1.
          1    1    1    2  502    0  0.20970145226E+02 -0.12126729477E+02 -0.80007034018E+03  0.80043697678E+03  0.00000000000E+00 0.  1.
</event>
<event>
 4    1  0.3837333E+003  0.3225198E+02  0.7546771E-02  0.1400985E+00
          2   -1    0    0  502    0  0.00000000000E+00  0.00000000000E+00  0.44635395229E+02  0.44635395229E+02  0.00000000000E+00 0.  1.
          1   -1    0    0  501    0 -0.00000000000E+00 -0.00000000000E+00 -0.11995164315E+03  0.11995164315E+03  0.00000000000E+00 0. -1.
          2    1    1    2  501    0  0.23052247503E+02 -0.22556237035E+02  0.36210129559E+02  0.48490859209E+02  0.00000000000E+00 0.  1.
          1    1    1    2  502    0 -0.23052247503E+02  0.22556237035E+02 -0.11152637748E+03  0.11609617917E+03  0.00000000000E+00 0. -1.
</event>
<event>
 4    1  0.3837333E+003  0.3202346E+02  0.7546771E-02  0.1402791E+00
          2   -1    0    0  502    0  0.00000000000E+00  0.00000000000E+00  0.75797357733E+02  0.75797357733E+02  0.00000000000E+00 0.  1.
          1   -1    0    0  501    0 -0.00000000000E+00 -0.00000000000E+00 -0.22853299142E+02  0.22853299142E+02  0.00000000000E+00 0. -1.
          2    1    1    2  501    0 -0.99480926160E+01 -0.30439080041E+02  0.57977896518E+02  0.66233968816E+02  0.00000000000E+00 0.  1.
          1    1    1    2  502    0  0.99480926160E+01  0.30439080041E+02 -0.50338379280E+01  0.32416688059E+02  0.00000000000E+00 0. -1.
</event>
<event>
 4    1  0.3837333E+003  0.2979190E+02  0.7546771E-02  0.1421414E+00
          2   -1    0    0  502    0  0.00000000000E+00  0.00000000000E+00  0.37940136637E+03  0.37940136637E+03  0.00000000000E+00 0.  1.
          1   -1    0    0  501    0 -0.00000000000E+00 -0.00000000000E+00 -0.46642508840E+01  0.46642508840E+01  0.00000000000E+00 0. -1.
          2    1    1    2  501    0  0.18216156025E+02 -0.23573908603E+02  0.32294539315E+03  0.32431664229E+03  0.00000000000E+00 0.  1.
          1    1    1    2  502    0 -0.18216156025E+02  0.23573908603E+02  0.51791722336E+02  0.59748974967E+02  0.00000000000E+00 0. -1.
</event>
<event>
 4    1  0.3837333E+003  0.2577584E+02  0.7546771E-02  0.1460308E+00
          2   -1    0    0  502    0  0.00000000000E+00  0.00000000000E+00  0.23758473613E+01  0.23758473613E+01  0.00000000000E+00 0. -1.
          1   -1    0    0  501    0 -0.00000000000E+00 -0.00000000000E+00 -0.55081453229E+03  0.55081453229E+03  0.00000000000E+00 0. -1.
          2    1    1    2  501    0  0.25139404543E+02 -0.56924729416E+01 -0.80147580210E+02  0.84190430112E+02  0.00000000000E+00 0. -1.
          1    1    1    2  502    0 -0.25139404543E+02  0.56924729416E+01 -0.46829110472E+03  0.46899994954E+03  0.00000000000E+00 0. -1.
</event>
<event>
 4    1  0.3837333E+003  0.2106602E+02  0.7546771E-02  0.1518324E+00
          2   -1    0    0  502    0  0.00000000000E+00  0.00000000000E+00  0.36114426640E+01  0.36114426640E+01  0.00000000000E+00 0.  1.
          1   -1    0    0  501    0 -0.00000000000E+00 -0.00000000000E+00 -0.60827394976E+03  0.60827394976E+03  0.00000000000E+00 0.  1.
          2    1    1    2  501    0 -0.21058416915E+02 -0.56577741555E+00 -0.29032724288E+02  0.35870267725E+02  0.00000000000E+00 0.  1.
          1    1    1    2  502    0  0.21058416915E+02  0.56577741555E+00 -0.57562978281E+03  0.57601512470E+03  0.00000000000E+00 0.  1.
</event>
<event>
 4    1  0.3837333E+003  0.2537655E+02  0.7546771E-02  0.1464635E+00
          2   -1    0    0  502    0  0.00000000000E+00  0.00000000000E+00  0.15911217213E+04  0.15911217213E+04  0.00000000000E+00 0.  1.
          1   -1    0    0  501    0 -0.00000000000E+00 -0.00000000000E+00 -0.70736238361E+01  0.70736238361E+01  0.00000000000E+00 0.  1.
          2    1    1    2  501    0  0.23981812947E+02  0.82970948590E+01  0.15679243150E+04  0.15681296588E+04  0.00000000000E+00 0.  1.
          1    1    1    2  502    0 -0.23981812947E+02 -0.82970948590E+01  0.16123782442E+02  0.30065686347E+02  0.00000000000E+00 0.  1.
</event>
<event>
 4    1  0.3837333E+003  0.2169652E+02  0.7546771E-02  0.1509548E+00
          2   -1    0    0  502    0  0.00000000000E+00  0.00000000000E+00  0.37698208351E+03  0.37698208351E+03  0.00000000000E+00 0. -1.
          1   -1    0    0  501    0 -0.00000000000E+00 -0.00000000000E+00 -0.13085571926E+02  0.13085571926E+02  0.00000000000E+00 0.  1.
          2    1    1    2  501    0 -0.17297296564E+02  0.13097421360E+02  0.36744316562E+03  0.36808316842E+03  0.00000000000E+00 0. -1.
          1    1    1    2  502    0  0.17297296564E+02 -0.13097421360E+02 -0.35466540302E+01  0.21984487020E+02  0.00000000000E+00 0.  1.
</event>
<event>
 4    1  0.3837333E+003  0.3416823E+02  0.7546771E-02  0.1386507E+00
          2   -1    0    0  502    0  0.00000000000E+00  0.00000000000E+00  0.19311246006E+01  0.19311246006E+01  0.00000000000E+00 0. -1.
          1   -1    0    0  501    0 -0.00000000000E+00 -0.00000000000E+00 -0.78773940461E+03  0.78773940461E+03  0.00000000000E+00 0. -1.
          2    1    1    2  501    0  0.22124623451E+02 -0.26037839131E+02 -0.20250247508E+03  0.20536484714E+03  0.00000000000E+00 0. -1.
          1    1    1    2  502    0 -0.22124623451E+02  0.26037839131E+02 -0.58330580493E+03  0.58430568206E+03  0.00000000000E+00 0. -1.
</event>
<event>
 4    1  0.3837333E+003  0.2252142E+02  0.7546771E-02  0.1498597E+00
          2   -1    0    0  502    0  0.00000000000E+00  0.00000000000E+00  0.15120211232E+03  0.15120211232E+03  0.00000000000E+00 0.  1.
          1   -1    0    0  501    0 -0.00000000000E+00 -0.00000000000E+00 -0.47211653499E+01  0.47211653499E+01  0.00000000000E+00 0.  1.
          2    1    1    2  501    0  0.54133615007E+01 -0.21861154206E+02  0.11518545690E+03  0.11736653708E+03  0.00000000000E+00 0.  1.
          1    1    1    2  502    0 -0.54133615007E+01  0.21861154206E+02  0.31295490079E+02  0.38556740594E+02  0.00000000000E+00 0.  1.
</event>
<event>
 4    1  0.3837333E+003  0.3117330E+02  0.7546771E-02  0.1409667E+00
          2   -1    0    0  502    0  0.00000000000E+00  0.00000000000E+00  0.97597627154E+03  0.97597627154E+03  0.00000000000E+00 0. -1.
          1   -1    0    0  501    0 -0.00000000000E+00 -0.00000000000E+00 -0.61895960792E+01  0.61895960792E+01  0.00000000000E+00 0. -1.
          2    1    1    2  501    0  0.30417487025E+02  0.68228407951E+01  0.93474623844E+03  0.93526590067E+03  0.00000000000E+00 0. -1.
          1    1    1    2  502    0 -0.30417487025E+02 -0.68228407951E+01  0.35040437020E+02  0.46899966951E+02  0.00000000000E+00 0. -1.
</event>
<event>
 4    1  0.3837333E+003  0.2839787E+02  0.7546771E-02  0.1434050E+00
          2   -1    0    0  502    0  0.00000000000E+00  0.00000000000E+00  0.38374112046E+03  0.38374112046E+03  0.00000000000E+00 0.  1.
          1   -1    0    0  501    0 -0.00000000000E+00 -0.00000000000E+00 -0.21797512533E+01  0.21797512533E+01  0.00000000000E+00 0.  1.
          2    1    1    2  501    0  0.27100386254E+02 -0.84857580886E+01  0.22733674522E+03  0.22910354592E+03  0.00000000000E+00 0.  1.
          1    1    1    2  502    0 -0.27100386254E+02  0.84857580886E+01  0.15422462399E+03  0.15681732580E+03  0.00000000000E+00 0.  1.
</event>
<event>
 4    1  0.3837333E+003  0.2567501E+02  0.7546771E-02  0.1461392E+00
          2   -1    0    0  502    0  0.00000000000E+00  0.00000000000E+00  0.10164482847E+04  0.10164482847E+04  0.00000000000E+00 0. -1.
          1   -1    0    0  501    0 -0.00000000000E+00 -0.00000000000E+00 -0.91021432734E+02  0.91021432734E+02  0.00000000000E+00 0.  1.
          2    1    1    2  501    0  0.20988981054E+02 -0.14787454162E+02  0.10144720441E+04  0.10147968931E+04  0.00000000000E+00 0. -1.
          1    1    1    2  502    0 -0.20988981054E+02  0.14787454162E+02 -0.89045192103E+02  0.92672824295E+02  0.00000000000E+00 0.  1.
</event>
<event>
 4    1  0.3837333E+003  0.2744584E+02  0.7546771E-02  0.1443180E+00
          2   -1    0    0  502    0  0.00000000000E+00  0.00000000000E+00  0.13708354373E+04  0.13708354373E+04  0.00000000000E+00 0.  1.
          1   -1    0    0  501    0 -0.00000000000E+00 -0.00000000000E+00 -0.23607162889E+01  0.23607162889E+01  0.00000000000E+00 0.  1.
          2    1    1    2  501    0  0.26103890922E+02  0.84770849559E+01  0.12856407069E+04  0.12859336302E+04  0.00000000000E+00 0.  1.
          1    1    1    2  502    0 -0.26103890922E+02 -0.84770849559E+01  0.82834014057E+02  0.87262523316E+02  0.00000000000E+00 0.  1.
</event>
<event>
 4    1  0.3837333E+003  0.3044298E+02  0.7546771E-02  0.1415785E+00
          2   -1    0    0  502    0  0.00000000000E+00  0.00000000000E+00  0.16175792711E+02  0.16175792711E+02  0.00000000000E+00 0. -1.
          1   -1    0    0  501    0 -0.00000000000E+00 -0.00000000000E+00 -0.84077188583E+02  0.84077188583E+02  0.00000000000E+00 0. -1.
          2    1    1    2  501    0 -0.28617646404E+02  0.10382938839E+02 -0.56589531200E+01  0.30964477310E+02  0.00000000000E+00 0. -1.
          1    1    1    2  502    0  0.28617646404E+02 -0.10382938839E+02 -0.62242442753E+02  0.69288503985E+02  0.00000000000E+00 0. -1.
</event>
<event>
 4    1  0.3837333E+003  0.3660242E+02  0.7546771E-02  0.1369635E+00
          2   -1    0    0  502    0  0.00000000000E+00  0.00000000000E+00  0.54433010096E+03  0.54433010096E+03  0.00000000000E+00 0. -1.
          1   -1    0    0  501    0 -0.00000000000E+00 -0.00000000000E+00 -0.12608899486E+03  0.12608899486E+03  0.00000000000E+00 0.  1.
          2    1    1    2  501    0 -0.27246689699E+02  0.24440854058E+02  0.54104232973E+03  0.54227902413E+03  0.00000000000E+00 0. -1.
          1    1    1    2  502    0  0.27246689699E+02 -0.24440854058E+02 -0.12280122364E+03  0.12814007169E+03  0.00000000000E+00 0.  1.
</event>
<event>
 4    1  0.3837333E+003  0.2036523E+02  0.7546771E-02  0.1528524E+00
          2   -1    0    0  502    0  0.00000000000E+00  0.00000000000E+00  0.38293109837E+02  0.38293109837E+02  0.00000000000E+00 0. -1.
          1   -1    0    0  501    0 -0.00000000000E+00 -0.00000000000E+00 -0.19339312138E+03  0.19339312138E+03  0.00000000000E+00 0. -1.
          2    1    1    2  501    0 -0.20159343270E+02  0.28884747223E+01  0.35002553221E+02  0.40495939787E+02  0.00000000000E+00 0. -1.
          1    1    1    2  502    0  0.20159343270E+02 -0.28884747223E+01 -0.19010256476E+03  0.19119029143E+03  0.00000000000E+00 0. -1.
</event>
<event>
 4    1  0.3837333E+003  0.3375518E+02  0.7546771E-02  0.1389532E+00
          2   -1    0    0  502    0  0.00000000000E+00  0.00000000000E+00  0.18850142485E+04  0.18850142485E+04  0.00000000000E+00 0. -1.
          1   -1    0    0  501    0 -0.00000000000E+00 -0.00000000000E+00 -0.53962372716E+01  0.53962372716E+01  0.00000000000E+00 0. -1.
          2    1    1    2  501    0  0.19399485355E+02  0.27623758000E+02  0.18305039828E+04  0.18308151854E+04  0.00000000000E+00 0. -1.
          1    1    1    2  502    0 -0.19399485355E+02 -0.27623758000E+02  0.49114028427E+02  0.59595300372E+02  0.00000000000E+00 0. -1.
</event>
<event>
 4    1  0.3837333E+003  0.2974122E+02  0.7546771E-02  0.1421859E+00
          2   -1    0    0  502    0  0.00000000000E+00  0.00000000000E+00  0.18518736936E+03  0.18518736936E+03  0.00000000000E+00 0. -1.
          1   -1    0    0  501    0 -0.00000000000E+00 -0.00000000000E+00 -0.28105379950E+03  0.28105379950E+03  0.00000000000E+00 0.  1.
          2    1    1    2  501    0  0.28050949290E+02  0.98835504626E+01  0.18319795841E+03  0.18559642317E+03  0.00000000000E+00 0. -1.
          1    1    1    2  502    0 -0.28050949290E+02 -0.98835504626E+01 -0.27906438856E+03  0.28064474570E+03  0.00000000000E+00 0.  1.
</event>
<event>
 4    1  0.3837333E+003  0.5125974E+02  0.7546771E-02  0.1292801E+00
          2   -1    0    0  502    0  0.00000000000E+00  0.00000000000E+00  0.76616751518E+02  0.76616751518E+02  0.00000000000E+00 0. -1.
          1   -1    0    0  501    0 -0.00000000000E+00 -0.00000000000E+00 -0.39857515100E+02  0.39857515100E+02  0.00000000000E+00 0. -1.
          2    1    1    2  501    0 -0.32672955283E+02 -0.39497331588E+02  0.40135952362E+02  0.65103424499E+02  0.00000000000E+00 0. -1.
          1    1    1    2  502    0  0.32672955283E+02  0.39497331588E+02 -0.33767159434E+01  0.51370842119E+02  0.00000000000E+00 0. -1.
</event>
<event>
 4    1  0.3837333E+003  0.5145801E+02  0.7546771E-02  0.1291972E+00
          2   -1    0    0  502    0  0.00000000000E+00  0.00000000000E+00  0.82220984597E+02  0.82220984597E+02  0.00000000000E+00 0. -1.
          1   -1    0    0  501    0 -0.00000000000E+00 -0.00000000000E+00 -0.39345192880E+03  0.39345192880E+03  0.00000000000E+00 0.  1.
          2    1    1    2  501    0 -0.51341267561E+02  0.34642643496E+01  0.72279460264E+02  0.88725685449E+02  0.00000000000E+00 0. -1.
          1    1    1    2  502    0  0.51341267561E+02 -0.34642643496E+01 -0.38351040447E+03  0.38694722795E+03  0.00000000000E+00 0.  1.
</event>
<event>
 4    1  0.3837333E+003  0.2337872E+02  0.7546771E-02  0.1487797E+00
          2   -1    0    0  502    0  0.00000000000E+00  0.00000000000E+00  0.13454139204E+01  0.13454139204E+01  0.00000000000E+00 0. -1.
          1   -1    0    0  501    0 -0.00000000000E+00 -0.00000000000E+00 -0.11132925321E+04  0.11132925321E+04  0.00000000000E+00 0. -1.
          2    1    1    2  501    0 -0.18906964029E+02  0.13751038818E+02 -0.11182910495E+03  0.11424672018E+03  0.00000000000E+00 0. -1.
          1    1    1    2  502    0  0.18906964029E+02 -0.13751038818E+02 -0.10001180132E+04  0.10003912258E+04  0.00000000000E+00 0. -1.
</event>
<event>
 4    1  0.3837333E+003  0.2378798E+02  0.7546771E-02  0.1482834E+00
          2   -1    0    0  502    0  0.00000000000E+00  0.00000000000E+00  0.20943458506E+03  0.20943458506E+03  0.00000000000E+00 0. -1.
          1   -1    0    0  501    0 -0.00000000000E+00 -0.00000000000E+00 -0.97242164113E+03  0.97242164113E+03  0.00000000000E+00 0. -1.
          2    1    1    2  501    0 -0.17420186731E+02  0.16198920321E+02  0.20861306399E+03  0.20996494563E+03  0.00000000000E+00 0. -1.
          1    1    1    2  502    0  0.17420186731E+02 -0.16198920321E+02 -0.97160012006E+03  0.97189128056E+03  0.00000000000E+00 0. -1.
</event>
<event>
 4    1  0.3837333E+003  0.2272773E+02  0.7546771E-02  0.1495946E+00
          2   -1    0    0  502    0  0.00000000000E+00  0.00000000000E+00  0.60812502837E+03  0.60812502837E+03  0.00000000000E+00 0. -1.
          1   -1    0    0  501    0 -0.00000000000E+00 -0.00000000000E+00 -0.50341320609E+03  0.50341320609E+03  0.00000000000E+00 0.  1.
          2    1    1    2  501    0  0.21196258535E+02 -0.82017328883E+01  0.60765595321E+03  0.60808083942E+03  0.00000000000E+00 0. -1.
          1    1    1    2  502    0 -0.21196258535E+02  0.82017328883E+01 -0.50294413092E+03  0.50345739505E+03  0.00000000000E+00 0.  1.
</event>
<event>
 4    1  0.3837333E+003  0.2232884E+02  0.7546771E-02  0.1501102E+00
          2   -1    0    0  502    0  0.00000000000E+00  0.00000000000E+00  0.12744574006E+03  0.12744574006E+03  0.00000000000E+00 0. -1.
          1   -1    0    0  501    0 -0.00000000000E+00 -0.00000000000E+00 -0.15670180063E+03  0.15670180063E+03  0.00000000000E+00 0. -1.
          2    1    1    2  501    0 -0.14626277521E+02  0.16871546998E+02  0.12566108946E+03  0.12762948913E+03  0.00000000000E+00 0. -1.
          1    1    1    2  502    0  0.14626277521E+02 -0.16871546998E+02 -0.15491715003E+03  0.15651805156E+03  0.00000000000E+00 0. -1.
</event>
<event>
 4    1  0.3837333E+003  0.2113065E+02  0.7546771E-02  0.1517408E+00
          2   -1    0    0  502    0  0.00000000000E+00  0.00000000000E+00  0.14537973783E+02  0.14537973783E+02  0.00000000000E+00 0.  1.
          1   -1    0    0  501    0 -0.00000000000E+00 -0.00000000000E+00 -0.13357387993E+03  0.13357387993E+03  0.00000000000E+00 0. -1.
          2    1    1    2  501    0  0.21127188981E+02  0.38250815094E+00  0.54687075981E+01  0.21826845615E+02  0.00000000000E+00 0.  1.
          1    1    1    2  502    0 -0.21127188981E+02 -0.38250815094E+00 -0.12450461375E+03  0.12628500810E+03  0.00000000000E+00 0. -1.
</event>
<event>
 4    1  0.3837333E+003  0.3049345E+02  0.7546771E-02  0.1415356E+00
          2   -1    0    0  502    0  0.00000000000E+00  0.00000000000E+00  0.46236350474E+01  0.46236350474E+01  0.00000000000E+00 0. -1.
          1   -1    0    0  501    0 -0.00000000000E+00 -0.00000000000E+00 -0.25072994008E+03  0.25072994008E+03  0.00000000000E+00 0.  1.
          2    1    1    2  501    0 -0.29321348456E+02  0.83731014101E+01 -0.66253532610E+02  0.72934085898E+02  0.00000000000E+00 0. -1.
          1    1    1    2  502    0  0.29321348456E+02 -0.83731014101E+01 -0.17985277242E+03  0.18241948923E+03  0.00000000000E+00 0.  1.
</event>
<event>
 4    1  0.3837333E+003  0.2155943E+02  0.7546771E-02  0.1511425E+00
          2   -1    0    0  502    0  0.00000000000E+00  0.00000000000E+00  0.97245539267E+01  0.97245539267E+01  0.00000000000E+00 0.  1.
          1   -1    0    0  501    0 -0.00000000000E+00 -0.00000000000E+00 -0.14857232270E+03  0.14857232270E+03  0.00000000000E+00 0. -1.
          2    1    1    2  501    0  0.11402979531E+02  0.18297026051E+02 -0.42386137330E+01  0.21972140334E+02  0.00000000000E+00 0.  1.
          1    1    1    2  502    0 -0.11402979531E+02 -0.18297026051E+02 -0.13460915504E+03  0.13632473629E+03  0.00000000000E+00 0. -1.
</event>
<event>
 4    1  0.3837333E+003  0.5288757E+02  0.7546771E-02  0.1286116E+00
          2   -1    0    0  502    0  0.00000000000E+00  0.00000000000E+00  0.66930662163E+03  0.66930662163E+03  0.00000000000E+00 0.  1.
          1   -1    0    0  501    0 -0.00000000000E+00 -0.00000000000E+00 -0.58581453144E+03  0.58581453144E+03  0.00000000000E+00 0.  1.
          2    1    1    2  501    0  0.29397734798E+02 -0.43964396736E+02  0.66706416406E+03  0.66915745080E+03  0.00000000000E+00 0.  1.
          1    1    1    2  502    0 -0.29397734798E+02  0.43964396736E+02 -0.58357207386E+03  0.58596370228E+03  0.00000000000E+00 0.  1.
</event>
<event>
 4    1  0.3837333E+003  0.5707943E+02  0.7546771E-02  0.1270092E+00
          2   -1    0    0  502    0  0.00000000000E+00  0.00000000000E+00  0.31532713746E+03  0.31532713746E+03  0.00000000000E+00 0.  1.
          1   -1    0    0  501    0 -0.00000000000E+00 -0.00000000000E+00 -0.26445794433E+02  0.26445794433E+02  0.00000000000E+00 0. -1.
          2    1    1    2  501    0 -0.37577752351E+02  0.42964791755E+02  0.27783088276E+03  0.28363367257E+03  0.00000000000E+00 0.  1.
          1    1    1    2  502    0  0.37577752351E+02 -0.42964791755E+02  0.11050460269E+02  0.58139259322E+02  0.00000000000E+00 0. -1.
</event>
<event>
 4    1  0.3837333E+003  0.3921607E+02  0.7546771E-02  0.1353142E+00
          2   -1    0    0  502    0  0.00000000000E+00  0.00000000000E+00  0.26809137053E+02  0.26809137053E+02  0.00000000000E+00 0.  1.
          1   -1    0    0  501    0 -0.00000000000E+00 -0.00000000000E+00 -0.33848964428E+03  0.33848964428E+03  0.00000000000E+00 0. -1.
          2    1    1    2  501    0 -0.19444250373E+02 -0.34056153975E+02  0.10614099285E+02  0.40627079637E+02  0.00000000000E+00 0.  1.
          1    1    1    2  502    0  0.19444250373E+02  0.34056153975E+02 -0.32229460651E+03  0.32467170170E+03  0.00000000000E+00 0. -1.
</event>
<event>
 4    1  0.3837333E+003  0.2506748E+02  0.7546771E-02  0.1468050E+00
          2   -1    0    0  502    0  0.00000000000E+00  0.00000000000E+00  0.49988446277E+02  0.49988446277E+02  0.00000000000E+00 0. -1.
          1   -1    0    0  501    0 -0.00000000000E+00 -0.00000000000E+00 -0.76779844341E+03  0.76779844341E+03  0.00000000000E+00 0.  1.
          2    1    1    2  501    0 -0.76098961065E+01 -0.23884476743E+02  0.46627408696E+02  0.52938586964E+02  0.00000000000E+00 0. -1.
          1    1    1    2  502    0  0.76098961065E+01  0.23884476743E+02 -0.76443740583E+03  0.76484830272E+03  0.00000000000E+00 0.  1.
</event>
<event>
 4    1  0.3837333E+003  0.2109247E+02  0.7546771E-02  0.1517949E+00
          2   -1    0    0  502    0  0.00000000000E+00  0.00000000000E+00  0.23079226813E+03  0.23079226813E+03  0.00000000000E+00 0. -1.
          1   -1    0    0  501    0 -0.00000000000E+00 -0.00000000000E+00 -0.37106263501E+01  0.37106263501E+01  0.00000000000E+00 0. -1.
          2    1    1    2  501    0  0.88643757303E+01  0.19139364966E+02  0.19481720347E+03  0.19595569707E+03  0.00000000000E+00 0. -1.
          1    1    1    2  502    0 -0.88643757303E+01 -0.19139364966E+02  0.32264438315E+02  0.38547197410E+02  0.00000000000E+00 0. -1.
</event>
<event>
 4    1  0.3837333E+003  0.2065786E+02  0.7546771E-02  0.1524206E+00
          2   -1    0    0  502    0  0.00000000000E+00  0.00000000000E+00  0.19365379625E+04  0.19365379625E+04  0.00000000000E+00 0.  1.
          1   -1    0    0  501    0 -0.00000000000E+00 -0.00000000000E+00 -0.22143853080E+00  0.22143853080E+00  0.00000000000E+00 0.  1.
          2    1    1    2  501    0 -0.17798664541E+02 -0.10485906481E+02  0.90075685394E+03  0.90099370509E+03  0.00000000000E+00 0.  1.
          1    1    1    2  502    0  0.17798664541E+02  0.10485906481E+02  0.10355596700E+04  0.10357656959E+04  0.00000000000E+00 0.  1.
</event>
<event>
 4    1  0.3837333E+003  0.2955359E+02  0.7546771E-02  0.1423516E+00
          2   -1    0    0  502    0  0.00000000000E+00  0.00000000000E+00  0.30417333425E+02  0.30417333425E+02  0.00000000000E+00 0.  1.
          1   -1    0    0  501    0 -0.00000000000E+00 -0.00000000000E+00 -0.92375486018E+02  0.92375486018E+02  0.00000000000E+00 0.  1.
          2    1    1    2  501    0  0.29075712289E+02  0.52931531357E+01  0.19989410157E+02  0.35678999897E+02  0.00000000000E+00 0.  1.
          1    1    1    2  502    0 -0.29075712289E+02 -0.52931531357E+01 -0.81947562750E+02  0.87113819546E+02  0.00000000000E+00 0.  1.
</event>
<event>
 4    1  0.3837333E+003  0.2091714E+02  0.7546771E-02  0.1520451E+00
          2   -1    0    0  502    0  0.00000000000E+00  0.00000000000E+00  0.55044752120E+01  0.55044752120E+01  0.00000000000E+00 0.  1.
          1   -1    0    0  501    0 -0.00000000000E+00 -0.00000000000E+00 -0.81010894245E+03  0.81010894245E+03  0.00000000000E+00 0. -1.
          2    1    1    2  501    0  0.19812783914E+02  0.67067403801E+01 -0.15018362501E+02  0.25750300681E+02  0.00000000000E+00 0.  1.
          1    1    1    2  502    0 -0.19812783914E+02 -0.67067403801E+01 -0.78958610474E+03  0.78986311698E+03  0.00000000000E+00 0. -1.
</event>
<event>
 4    1  0.3837333E+003  0.2136622E+02  0.7546771E-02  0.1514100E+00
          2   -1    0    0  502    0  0.00000000000E+00  0.00000000000E+00  0.57783580902E+03  0.57783580902E+03  0.00000000000E+00 0. -1.
          1   -1    0    0  501    0 -0.00000000000E+00 -0.00000000000E+00 -0.32647254879E+01  0.32647254879E+01  0.00000000000E+00 0.  1.
          2    1    1    2  501    0 -0.42272717238E+01 -0.20943866218E+02  0.54024892037E+03  0.54067125994E+03  0.00000000000E+00 0. -1.
          1    1    1    2  502    0  0.42272717238E+01  0.20943866218E+02  0.34322163161E+02  0.40429274572E+02  0.00000000000E+00 0.  1.
</event>
<event>
 4    1  0.3837333E+003  0.7346193E+02  0.7546771E-02  0.1219898E+00
          2   -1    0    0  502    0  0.00000000000E+00  0.00000000000E+00  0.16381830318E+04  0.16381830318E+04  0.00000000000E+00 0. -1.
          1   -1    0    0  501    0 -0.00000000000E+00 -0.00000000000E+00 -0.97669321280E+02  0.97669321280E+02  0.00000000000E+00 0.  1.
          2    1    1    2  501    0  0.22120022492E+02 -0.70052553988E+02  0.16234203179E+04  0.16250815931E+04  0.00000000000E+00 0. -1.
          1    1    1    2  502    0 -0.22120022492E+02  0.70052553988E+02 -0.82906607381E+02  0.11077075996E+03  0.00000000000E+00 0.  1.
</event>
<event>
 4    1  0.3837333E+003  0.2030879E+02  0.7546771E-02  0.1529366E+00
          2   -1    0    0  502    0  0.00000000000E+00  0.00000000000E+00  0.30246533506E+01  0.30246533506E+01  0.00000000000E+00 0.  1.
          1   -1    0    0  501    0 -0.00000000000E+00 -0.00000000000E+00 -0.60078920853E+03  0.60078920853E+03  0.00000000000E+00 0. -1.
          2    1    1    2  501    0  0.39360174415E+01  0.19923726754E+02 -0.33439476797E+02  0.39123467760E+02  0.00000000000E+00 0.  1.
          1    1    1    2  502    0 -0.39360174415E+01 -0.19923726754E+02 -0.56432507838E+03  0.56469039412E+03  0.00000000000E+00 0. -1.
</event>
<event>
 4    1  0.3837333E+003  0.2358969E+02  0.7546771E-02  0.1485223E+00
          2   -1    0    0  502    0  0.00000000000E+00  0.00000000000E+00  0.50236705114E+03  0.50236705114E+03  0.00000000000E+00 0.  1.
          1   -1    0    0  501    0 -0.00000000000E+00 -0.00000000000E+00 -0.22991182520E+01  0.22991182520E+01  0.00000000000E+00 0. -1.
          2    1    1    2  501    0  0.23583329236E+02 -0.54782354742E+00  0.43167965992E+03  0.43232372398E+03  0.00000000000E+00 0.  1.
          1    1    1    2  502    0 -0.23583329236E+02  0.54782354742E+00  0.68388272974E+02  0.72342445417E+02  0.00000000000E+00 0. -1.
</event>
<event>
 4    1  0.3837333E+003  0.3172953E+02  0.7546771E-02  0.1405139E+00
          2   -1    0    0  502    0  0.00000000000E+00  0.00000000000E+00  0.27981580963E+03  0.27981580963E+03  0.00000000000E+00 0. -1.
          1   -1    0    0  501    0 -0.00000000000E+00 -0.00000000000E+00 -0.16474058823E+02  0.16474058823E+02  0.00000000000E+00 0. -1.
          2    1    1    2  501    0  0.20937450182E+02 -0.23840850244E+02  0.26264298974E+03  0.26455264697E+03  0.00000000000E+00 0. -1.
          1    1    1    2  502    0 -0.20937450182E+02  0.23840850244E+02  0.69876107081E+00  0.31737221484E+02  0.00000000000E+00 0. -1.
</event>
<event>
 4    1  0.3837333E+003  0.7029240E+02  0.7546771E-02  0.1228376E+00
          2   -1    0    0  502    0  0.00000000000E+00  0.00000000000E+00  0.73098934959E+02  0.73098934959E+02  0.00000000000E+00 0.  1.
          1   -1    0    0  501    0 -0.00000000000E+00 -0.00000000000E+00 -0.16901808625E+03  0.16901808625E+03  0.00000000000E+00 0.  1.
          2    1    1    2  501    0  0.19185438068E+02 -0.67623521024E+02  0.45818237713E+02  0.83906689463E+02  0.00000000000E+00 0.  1.
          1    1    1    2  502    0 -0.19185438068E+02  0.67623521024E+02 -0.14173738901E+03  0.15821033175E+03  0.00000000000E+00 0.  1.
</event>
<event>
 4    1  0.3837333E+003  0.2194963E+02  0.7546771E-02  0.1506126E+00
          2   -1    0    0  502    0  0.00000000000E+00  0.00000000000E+00  0.14807419514E+03  0.14807419514E+03  0.00000000000E+00 0.  1.
          1   -1    0    0  501    0 -0.00000000000E+00 -0.00000000000E+00 -0.78170596062E+01  0.78170596062E+01  0.00000000000E+00 0. -1.
          2    1    1    2  501    0 -0.71295169606E+01  0.20759485070E+02  0.12968288970E+03  0.13152732839E+03  0.00000000000E+00 0.  1.
          1    1    1    2  502    0  0.71295169606E+01 -0.20759485070E+02  0.10574245830E+02  0.24363926353E+02  0.00000000000E+00 0. -1.
</event>
<event>
 4    1  0.3837333E+003  0.3078658E+02  0.7546771E-02  0.1412882E+00
          2   -1    0    0  502    0  0.00000000000E+00  0.00000000000E+00  0.17902026297E+04  0.17902026297E+04  0.00000000000E+00 0. -1.
          1   -1    0    0  501    0 -0.00000000000E+00 -0.00000000000E+00 -0.11269866968E+01  0.11269866968E+01  0.00000000000E+00 0. -1.
          2    1    1    2  501    0  0.17029961462E+02 -0.25647498552E+02  0.15467219660E+04  0.15470283301E+04  0.00000000000E+00 0. -1.
          1    1    1    2  502    0 -0.17029961462E+02  0.25647498552E+02  0.24235367694E+03  0.24430128631E+03  0.00000000000E+00 0. -1.
</event>
<event>
 4    1  0.3837333E+003  0.5685948E+02  0.7546771E-02  0.1270893E+00
          2   -1    0    0  502    0  0.00000000000E+00  0.00000000000E+00  0.64328722902E+03  0.64328722902E+03  0.00000000000E+00 0. -1.
          1   -1    0    0  501    0 -0.00000000000E+00 -0.00000000000E+00 -0.18292721804E+02  0.18292721804E+02  0.00000000000E+00 0.  1.
          2    1    1    2  501    0 -0.37719962667E+02  0.42546500926E+02  0.59420519494E+03  0.59691943679E+03  0.00000000000E+00 0. -1.
          1    1    1    2  502    0  0.37719962667E+02 -0.42546500926E+02  0.30789312275E+02  0.64660514033E+02  0.00000000000E+00 0.  1.
</event>
<event>
 4    1  0.3837333E+003  0.2078509E+02  0.7546771E-02  0.1522355E+00
          2   -1    0    0  502    0  0.00000000000E+00  0.00000000000E+00  0.14010042953E+04  0.14010042953E+04  0.00000000000E+00 0. -1.
          1   -1    0    0  501    0 -0.00000000000E+00 -0.00000000000E+00 -0.11961338075E+02  0.11961338075E+02  0.00000000000E+00 0. -1.
          2    1    1    2  501    0  0.11548557873E+02  0.17281514870E+02  0.13918382360E+04  0.13919934249E+04  0.00000000000E+00 0. -1.
          1    1    1    2  502    0 -0.11548557873E+02 -0.17281514870E+02 -0.27952787154E+01  0.20972208473E+02  0.00000000000E+00 0. -1.
</event>
<event>
 4    1  0.3837333E+003  0.2499934E+02  0.7546771E-02  0.1468811E+00
          2   -1    0    0  502    0  0.00000000000E+00  0.00000000000E+00  0.68888931194E+03  0.68888931194E+03  0.00000000000E+00 0.  1.
          1   -1    0    0  501    0 -0.00000000000E+00 -0.00000000000E+00 -0.80876749040E+01  0.80876749040E+01  0.00000000000E+00 0. -1.
          2    1    1    2  501    0  0.20459740326E+02 -0.14365443411E+02  0.66876282181E+03  0.66922991473E+03  0.00000000000E+00 0.  1.
          1    1    1    2  502    0 -0.20459740326E+02  0.14365443411E+02  0.12038815224E+02  0.27747072109E+02  0.00000000000E+00 0. -1.
</event>
<event>
 4    1  0.3837333E+003  0.2388340E+02  0.7546771E-02  0.1481693E+00
          2   -1    0    0  502    0  0.00000000000E+00  0.00000000000E+00  0.48711352965E+02  0.48711352965E+02  0.00000000000E+00 0.  1.
          1   -1    0    0  501    0 -0.00000000000E+00 -0.00000000000E+00 -0.85921728518E+03  0.85921728518E+03  0.00000000000E+00 0.  1.
          2    1    1    2  501    0  0.23205260943E+02 -0.56509139578E+01  0.45607234317E+02  0.51482392971E+02  0.00000000000E+00 0.  1.
          1    1    1    2  502    0 -0.23205260943E+02  0.56509139578E+01 -0.85611316653E+03  0.85644624517E+03  0.00000000000E+00 0.  1.
</event>
<event>
 4    1  0.3837333E+003  0.2135426E+02  0.7546771E-02  0.1514267E+00
          2   -1    0    0  502    0  0.00000000000E+00  0.00000000000E+00  0.98369318426E+01  0.98369318426E+01  0.00000000000E+00 0.  1.
          1   -1    0    0  501    0 -0.00000000000E+00 -0.00000000000E+00 -0.91699506434E+02  0.91699506434E+02  0.00000000000E+00 0. -1.
          2    1    1    2  501    0  0.22381409559E+01 -0.21236648110E+02 -0.52316185154E+01  0.21985775633E+02  0.00000000000E+00 0.  1.
          1    1    1    2  502    0 -0.22381409559E+01  0.21236648110E+02 -0.76630956076E+02  0.79550662643E+02  0.00000000000E+00 0. -1.
</event>
<event>
 4    1  0.3837333E+003  0.3075383E+02  0.7546771E-02  0.1413157E+00
          2   -1    0    0  502    0  0.00000000000E+00  0.00000000000E+00  0.52337691552E+03  0.52337691552E+03  0.00000000000E+00 0.  1.
          1   -1    0    0  501    0 -0.00000000000E+00 -0.00000000000E+00 -0.73610732477E+03  0.73610732477E+03  0.00000000000E+00 0. -1.
          2    1    1    2  501    0  0.15129346811E+02 -0.26775005417E+02  0.52260344771E+03  0.52350755640E+03  0.00000000000E+00 0.  1.
          1    1    1    2  502    0 -0.15129346811E+02  0.26775005417E+02 -0.73533385695E+03  0.73597668389E+03  0.00000000000E+00 0. -1.
</event>
<event>
 4    1  0.3837333E+003  0.2242066E+02  0.7546771E-02  0.1499904E+00
          2   -1    0    0  502    0  0.00000000000E+00  0.00000000000E+00  0.91260880563E+03  0.91260880563E+03  0.00000000000E+00 0.  1.
          1   -1    0    0  501    0 -0.00000000000E+00 -0.00000000000E+00 -0.15517880397E+03  0.15517880397E+03  0.00000000000E+00 0. -1.
          2    1    1    2  501    0  0.19194665235E+02  0.11586671649E+02  0.91166040760E+03  0.91193606406E+03  0.00000000000E+00 0.  1.
          1    1    1    2  502    0 -0.19194665235E+02 -0.11586671649E+02 -0.15423040594E+03  0.15585154555E+03  0.00000000000E+00 0. -1.
</event>
<event>
 4    1  0.3837333E+003  0.2645749E+02  0.7546771E-02  0.1453135E+00
          2   -1    0    0  502    0  0.00000000000E+00  0.00000000000E+00  0.69133908524E+00  0.69133908524E+00  0.00000000000E+00 0. -1.
          1   -1    0    0  501    0 -0.00000000000E+00 -0.00000000000E+00 -0.10272879384E+04  0.10272879384E+04  0.00000000000E+00 0. -1.
          2    1    1    2  501    0  0.26302368322E+02  0.28607668403E+01 -0.45168351881E+03  0.45245773254E+03  0.00000000000E+00 0. -1.
          1    1    1    2  502    0 -0.26302368322E+02 -0.28607668403E+01 -0.57491308054E+03  0.57552154498E+03  0.00000000000E+00 0. -1.
</event>
<event>
 4    1  0.3837333E+003  0.2171398E+02  0.7546771E-02  0.1509310E+00
          2   -1    0    0  502    0  0.00000000000E+00  0.00000000000E+00  0.11032359340E+04  0.11032359340E+04  0.00000000000E+00 0.  1.
          1   -1    0    0  501    0 -0.00000000000E+00 -0.00000000000E+00 -0.13192527323E+03  0.13192527323E+03  0.00000000000E+00 0. -1.
          2    1    1    2  501    0 -0.21610689034E+02 -0.21154342357E+01  0.11022347860E+04  0.11024486475E+04  0.00000000000E+00 0.  1.
          1    1    1    2  502    0  0.21610689034E+02  0.21154342357E+01 -0.13092412522E+03  0.13271255972E+03  0.00000000000E+00 0. -1.
</event>
<event>
 4    1  0.3837333E+003  0.2560465E+02  0.7546771E-02  0.1462152E+00
          2   -1    0    0  502    0  0.00000000000E+00  0.00000000000E+00  0.52166553705E+02  0.52166553705E+02  0.00000000000E+00 0.  1.
          1   -1    0    0  501    0 -0.00000000000E+00 -0.00000000000E+00 -0.38823333213E+03  0.38823333213E+03  0.00000000000E+00 0.  1.
          2    1    1    2  501    0  0.28522622035E+01 -0.25445289487E+02  0.48573216107E+02  0.54908610252E+02  0.00000000000E+00 0.  1.
          1    1    1    2  502    0 -0.28522622035E+01  0.25445289487E+02 -0.38463999453E+03  0.38549127558E+03  0.00000000000E+00 0.  1.
</event>
<event>
 4    1  0.3837333E+003  0.2836548E+02  0.7546771E-02  0.1434354E+00
          2   -1    0    0  502    0  0.00000000000E+00  0.00000000000E+00  0.41423890878E+03  0.41423890878E+03  0.00000000000E+00 0.  1.
          1   -1    0    0  501    0 -0.00000000000E+00 -0.00000000000E+00 -0.22053056640E+01  0.22053056640E+01  0.00000000000E+00 0.  1.
          2    1    1    2  501    0 -0.15917017448E+02 -0.23478688398E+02  0.27791650669E+03  0.27936031383E+03  0.00000000000E+00 0.  1.
          1    1    1    2  502    0  0.15917017448E+02  0.23478688398E+02  0.13411709643E+03  0.13708390061E+03  0.00000000000E+00 0.  1.
</event>
<event>
 4    1  0.3837333E+003  0.1717257E+03  0.7546771E-02  0.1077220E+00
          2   -1    0    0  502    0  0.00000000000E+00  0.00000000000E+00  0.52197323304E+03  0.52197323304E+03  0.00000000000E+00 0.  1.
          1   -1    0    0  501    0 -0.00000000000E+00 -0.00000000000E+00 -0.45484177673E+03  0.45484177673E+03  0.00000000000E+00 0. -1.
          2    1    1    2  501    0  0.15271303645E+03  0.78539454267E+02  0.49063490179E+03  0.51981951121E+03  0.00000000000E+00 0.  1.
          1    1    1    2  502    0 -0.15271303645E+03 -0.78539454267E+02 -0.42350344548E+03  0.45699549857E+03  0.00000000000E+00 0. -1.
</event>
<event>
 4    1  0.3837333E+003  0.2958174E+02  0.7546771E-02  0.1423266E+00
          2   -1    0    0  502    0  0.00000000000E+00  0.00000000000E+00  0.12743388754E+02  0.12743388754E+02  0.00000000000E+00 0. -1.
          1   -1    0    0  501    0 -0.00000000000E+00 -0.00000000000E+00 -0.87722564093E+02  0.87722564093E+02  0.00000000000E+00 0. -1.
          2    1    1    2  501    0 -0.29423575428E+02  0.30549080871E+01 -0.14078680506E+02  0.32761082082E+02  0.00000000000E+00 0. -1.
          1    1    1    2  502    0  0.29423575428E+02 -0.30549080871E+01 -0.60900494832E+02  0.67704870764E+02  0.00000000000E+00 0. -1.
</event>
<event>
 4    1  0.3837333E+003  0.2539967E+02  0.7546771E-02  0.1464382E+00
          2   -1    0    0  502    0  0.00000000000E+00  0.00000000000E+00  0.34425928466E+02  0.34425928466E+02  0.00000000000E+00 0. -1.
          1   -1    0    0  501    0 -0.00000000000E+00 -0.00000000000E+00 -0.17968088074E+03  0.17968088074E+03  0.00000000000E+00 0.  1.
          2    1    1    2  501    0  0.14537858375E+02 -0.20827715686E+02  0.28689609956E+02  0.38317578032E+02  0.00000000000E+00 0. -1.
          1    1    1    2  502    0 -0.14537858375E+02  0.20827715686E+02 -0.17394456223E+03  0.17578923117E+03  0.00000000000E+00 0.  1.
</event>
<event>
 4    1  0.3837333E+003  0.4613185E+02  0.7546771E-02  0.1315875E+00
          2   -1    0    0  502    0  0.00000000000E+00  0.00000000000E+00  0.28656025780E+04  0.28656025780E+04  0.00000000000E+00 0. -1.
          1   -1    0    0  501    0 -0.00000000000E+00 -0.00000000000E+00 -0.22786814365E+02  0.22786814365E+02  0.00000000000E+00 0. -1.
          2    1    1    2  501    0  0.64279276557E+00  0.46127371915E+02  0.28418735181E+04  0.28422479203E+04  0.00000000000E+00 0. -1.
          1    1    1    2  502    0 -0.64279276557E+00 -0.46127371915E+02  0.94224559558E+00  0.46141472117E+02  0.00000000000E+00 0. -1.
</event>
<event>
 4    1  0.3837333E+003  0.2945839E+02  0.7546771E-02  0.1424362E+00
          2   -1    0    0  502    0  0.00000000000E+00  0.00000000000E+00  0.57090974459E+02  0.57090974459E+02  0.00000000000E+00 0.  1.
          1   -1    0    0  501    0 -0.00000000000E+00 -0.00000000000E+00 -0.24483623730E+03  0.24483623730E+03  0.00000000000E+00 0. -1.
          2    1    1    2  501    0 -0.29306681804E+02  0.29857779210E+01  0.52329733383E+02  0.60051623326E+02  0.00000000000E+00 0.  1.
          1    1    1    2  502    0  0.29306681804E+02 -0.29857779210E+01 -0.24007499623E+03  0.24187558844E+03  0.00000000000E+00 0. -1.
</event>
<event>
 4    1  0.3837333E+003  0.2671100E+02  0.7546771E-02  0.1450533E+00
          2   -1    0    0  502    0  0.00000000000E+00  0.00000000000E+00  0.47328476214E+02  0.47328476214E+02  0.00000000000E+00 0. -1.
          1   -1    0    0  501    0 -0.00000000000E+00 -0.00000000000E+00 -0.27301832687E+02  0.27301832687E+02  0.00000000000E+00 0. -1.
          2    1    1    2  501    0  0.20742570351E+02  0.16829232189E+02  0.34984908523E+02  0.44016145960E+02  0.00000000000E+00 0. -1.
          1    1    1    2  502    0 -0.20742570351E+02 -0.16829232189E+02 -0.14958264996E+02  0.30614162940E+02  0.00000000000E+00 0. -1.
</event>
<event>
 4    1  0.3837333E+003  0.2186280E+02  0.7546771E-02  0.1507294E+00
          2   -1    0    0  502    0  0.00000000000E+00  0.00000000000E+00  0.45516702693E+01  0.45516702693E+01  0.00000000000E+00 0. -1.
          1   -1    0    0  501    0 -0.00000000000E+00 -0.00000000000E+00 -0.13590793523E+03  0.13590793523E+03  0.00000000000E+00 0.  1.
          2    1    1    2  501    0 -0.69270797619E+01  0.20736380987E+02 -0.32193407921E+02  0.38915259784E+02  0.00000000000E+00 0. -1.
          1    1    1    2  502    0  0.69270797619E+01 -0.20736380987E+02 -0.99162857044E+02  0.10154434572E+03  0.00000000000E+00 0.  1.
</event>
<event>
 4    1  0.3837333E+003  0.2125491E+02  0.7546771E-02  0.1515656E+00
          2   -1    0    0  502    0  0.00000000000E+00  0.00000000000E+00  0.11962884216E+02  0.11962884216E+02  0.00000000000E+00 0.  1.
          1   -1    0    0  501    0 -0.00000000000E+00 -0.00000000000E+00 -0.11071003068E+03  0.11071003068E+03  0.00000000000E+00 0.  1.
          2    1    1    2  501    0  0.81809449218E+01  0.19617425137E+02  0.41444323182E+00  0.21258950868E+02  0.00000000000E+00 0.  1.
          1    1    1    2  502    0 -0.81809449218E+01 -0.19617425137E+02 -0.99161589694E+02  0.10141396403E+03  0.00000000000E+00 0.  1.
</event>
<event>
 4    1  0.3837333E+003  0.5511740E+02  0.7546771E-02  0.1277390E+00
          2   -1    0    0  502    0  0.00000000000E+00  0.00000000000E+00  0.10639672989E+04  0.10639672989E+04  0.00000000000E+00 0. -1.
          1   -1    0    0  501    0 -0.00000000000E+00 -0.00000000000E+00 -0.12435150575E+02  0.12435150575E+02  0.00000000000E+00 0. -1.
          2    1    1    2  501    0  0.48527355749E+02  0.26134726032E+02  0.99815412278E+03  0.99967473760E+03  0.00000000000E+00 0. -1.
          1    1    1    2  502    0 -0.48527355749E+02 -0.26134726032E+02  0.53378025578E+02  0.76727711913E+02  0.00000000000E+00 0. -1.
</event>
<event>
 4    1  0.3837333E+003  0.2284992E+02  0.7546771E-02  0.1494391E+00
          2   -1    0    0  502    0  0.00000000000E+00  0.00000000000E+00  0.10677956714E+03  0.10677956714E+03  0.00000000000E+00 0.  1.
          1   -1    0    0  501    0 -0.00000000000E+00 -0.00000000000E+00 -0.18910049687E+02  0.18910049687E+02  0.00000000000E+00 0. -1.
          2    1    1    2  501    0  0.19612643225E+02  0.11724463797E+02  0.98047890840E+02  0.10067525875E+03  0.00000000000E+00 0.  1.
          1    1    1    2  502    0 -0.19612643225E+02 -0.11724463797E+02 -0.10178373383E+02  0.25014358083E+02  0.00000000000E+00 0. -1.
</event>
<event>
 4    1  0.3837333E+003  0.2287675E+02  0.7546771E-02  0.1494052E+00
          2   -1    0    0  502    0  0.00000000000E+00  0.00000000000E+00  0.17606845148E+04  0.17606845148E+04  0.00000000000E+00 0. -1.
          1   -1    0    0  501    0 -0.00000000000E+00 -0.00000000000E+00 -0.83535231143E+00  0.83535231143E+00  0.00000000000E+00 0. -1.
          2    1    1    2  501    0 -0.15186654312E+02  0.17108808714E+02  0.15868265459E+04  0.15869914406E+04  0.00000000000E+00 0. -1.
          1    1    1    2  502    0  0.15186654312E+02 -0.17108808714E+02  0.17302261653E+03  0.17452842644E+03  0.00000000000E+00 0. -1.
</event>
<event>
 4    1  0.3837333E+003  0.2166637E+02  0.7546771E-02  0.1509960E+00
          2   -1    0    0  502    0  0.00000000000E+00  0.00000000000E+00  0.13778140543E+02  0.13778140543E+02  0.00000000000E+00 0.  1.
          1   -1    0    0  501    0 -0.00000000000E+00 -0.00000000000E+00 -0.54512588972E+03  0.54512588972E+03  0.00000000000E+00 0.  1.
          2    1    1    2  501    0 -0.58274294006E+01 -0.20867982819E+02  0.49042733590E+01  0.22214489360E+02  0.00000000000E+00 0.  1.
          1    1    1    2  502    0  0.58274294006E+01  0.20867982819E+02 -0.53625202254E+03  0.53668954091E+03  0.00000000000E+00 0.  1.
</event>
<event>
 4    1  0.3837333E+003  0.2123425E+02  0.7546771E-02  0.1515947E+00
          2   -1    0    0  502    0  0.00000000000E+00  0.00000000000E+00  0.13048912949E+02  0.13048912949E+02  0.00000000000E+00 0.  1.
          1   -1    0    0  501    0 -0.00000000000E+00 -0.00000000000E+00 -0.59801542481E+02  0.59801542481E+02  0.00000000000E+00 0.  1.
          2    1    1    2  501    0 -0.20678164853E+02 -0.48277011601E+01  0.29132433144E+00  0.21236244254E+02  0.00000000000E+00 0.  1.
          1    1    1    2  502    0  0.20678164853E+02  0.48277011601E+01 -0.47043953864E+02  0.51614211176E+02  0.00000000000E+00 0.  1.
</event>
<event>
 4    1  0.3837333E+003  0.2215884E+02  0.7546771E-02  0.1503340E+00
          2   -1    0    0  502    0  0.00000000000E+00  0.00000000000E+00  0.34010734771E+02  0.34010734771E+02  0.00000000000E+00 0.  1.
          1   -1    0    0  501    0 -0.00000000000E+00 -0.00000000000E+00 -0.40523940820E+03  0.40523940820E+03  0.00000000000E+00 0.  1.
          2    1    1    2  501    0 -0.90852718241E+01  0.20210694368E+02  0.30063080027E+02  0.37347062959E+02  0.00000000000E+00 0.  1.
          1    1    1    2  502    0  0.90852718241E+01 -0.20210694368E+02 -0.40129175345E+03  0.40190308001E+03  0.00000000000E+00 0.  1.
</event>
<event>
 4    1  0.3837333E+003  0.2760793E+02  0.7546771E-02  0.1441595E+00
          2   -1    0    0  502    0  0.00000000000E+00  0.00000000000E+00  0.91630485835E+02  0.91630485835E+02  0.00000000000E+00 0.  1.
          1   -1    0    0  501    0 -0.00000000000E+00 -0.00000000000E+00 -0.53029359173E+02  0.53029359173E+02  0.00000000000E+00 0.  1.
          2    1    1    2  501    0 -0.27498281131E+02 -0.24581603578E+01  0.85715829516E+02  0.90052215115E+02  0.00000000000E+00 0.  1.
          1    1    1    2  502    0  0.27498281131E+02  0.24581603578E+01 -0.47114702854E+02  0.54607629893E+02  0.00000000000E+00 0.  1.
</event>
<event>
 4    1  0.3837333E+003  0.2572877E+02  0.7546771E-02  0.1460813E+00
          2   -1    0    0  502    0  0.00000000000E+00  0.00000000000E+00  0.30062065748E+02  0.30062065748E+02  0.00000000000E+00 0.  1.
          1   -1    0    0  501    0 -0.00000000000E+00 -0.00000000000E+00 -0.41415875089E+02  0.41415875089E+02  0.00000000000E+00 0.  1.
          2    1    1    2  501    0  0.61079211734E+01 -0.24993255128E+02  0.18780606290E+02  0.31854052734E+02  0.00000000000E+00 0.  1.
          1    1    1    2  502    0 -0.61079211734E+01  0.24993255128E+02 -0.30134415631E+02  0.39623888103E+02  0.00000000000E+00 0.  1.
</event>
<event>
 4    1  0.3837333E+003  0.2572376E+02  0.7546771E-02  0.1460867E+00
          2   -1    0    0  502    0  0.00000000000E+00  0.00000000000E+00  0.48135058894E+02  0.48135058894E+02  0.00000000000E+00 0.  1.
          1   -1    0    0  501    0 -0.00000000000E+00 -0.00000000000E+00 -0.10099067975E+03  0.10099067975E+03  0.00000000000E+00 0.  1.
          2    1    1    2  501    0 -0.71094236699E+01 -0.24721810382E+02  0.42874704554E+02  0.49999521039E+02  0.00000000000E+00 0.  1.
          1    1    1    2  502    0  0.71094236699E+01  0.24721810382E+02 -0.95730325415E+02  0.99126217610E+02  0.00000000000E+00 0.  1.
</event>
<event>
 4    1  0.3837333E+003  0.2619892E+02  0.7546771E-02  0.1455825E+00
          2   -1    0    0  502    0  0.00000000000E+00  0.00000000000E+00  0.45093959995E+02  0.45093959995E+02  0.00000000000E+00 0.  1.
          1   -1    0    0  501    0 -0.00000000000E+00 -0.00000000000E+00 -0.13013727414E+04  0.13013727414E+04  0.00000000000E+00 0.  1.
          2    1    1    2  501    0 -0.12474618497E+02  0.23038384020E+02  0.41145227358E+02  0.48778201886E+02  0.00000000000E+00 0.  1.
          1    1    1    2  502    0  0.12474618497E+02 -0.23038384020E+02 -0.12974240088E+04  0.12976884995E+04  0.00000000000E+00 0.  1.
</event>
<event>
 4    1  0.3837333E+003  0.7182560E+02  0.7546771E-02  0.1224213E+00
          2   -1    0    0  502    0  0.00000000000E+00  0.00000000000E+00  0.98635763703E+03  0.98635763703E+03  0.00000000000E+00 0. -1.
          1   -1    0    0  501    0 -0.00000000000E+00 -0.00000000000E+00 -0.20292248877E+02  0.20292248877E+02  0.00000000000E+00 0. -1.
          2    1    1    2  501    0 -0.46722113196E+02 -0.54552374499E+02  0.91666773611E+03  0.91947738191E+03  0.00000000000E+00 0. -1.
          1    1    1    2  502    0  0.46722113196E+02  0.54552374499E+02  0.49397652041E+02  0.87172503991E+02  0.00000000000E+00 0. -1.
</event>
<event>
 4    1  0.3837333E+003  0.4833371E+02  0.7546771E-02  0.1305563E+00
          2   -1    0    0  502    0  0.00000000000E+00  0.00000000000E+00  0.10171933486E+03  0.10171933486E+03  0.00000000000E+00 0. -1.
          1   -1    0    0  501    0 -0.00000000000E+00 -0.00000000000E+00 -0.90783025513E+03  0.90783025513E+03  0.00000000000E+00 0. -1.
          2    1    1    2  501    0 -0.48158903089E+02  0.41069641159E+01  0.95293451329E+02  0.10685031103E+03  0.00000000000E+00 0. -1.
          1    1    1    2  502    0  0.48158903089E+02 -0.41069641159E+01 -0.90140437160E+03  0.90269927896E+03  0.00000000000E+00 0. -1.
</event>
<event>
 4    1  0.3837333E+003  0.2324593E+02  0.7546771E-02  0.1489433E+00
          2   -1    0    0  502    0  0.00000000000E+00  0.00000000000E+00  0.84230726564E+03  0.84230726564E+03  0.00000000000E+00 0.  1.
          1   -1    0    0  501    0 -0.00000000000E+00 -0.00000000000E+00 -0.20009731093E+01  0.20009731093E+01  0.00000000000E+00 0.  1.
          2    1    1    2  501    0 -0.20446993595E+02 -0.11058649984E+02  0.76811322853E+03  0.76846490169E+03  0.00000000000E+00 0.  1.
          1    1    1    2  502    0  0.20446993595E+02  0.11058649984E+02  0.72193064006E+02  0.75843337064E+02  0.00000000000E+00 0.  1.
</event>
<event>
 4    1  0.3837333E+003  0.2630337E+02  0.7546771E-02  0.1454734E+00
          2   -1    0    0  502    0  0.00000000000E+00  0.00000000000E+00  0.13440734246E+03  0.13440734246E+03  0.00000000000E+00 0.  1.
          1   -1    0    0  501    0 -0.00000000000E+00 -0.00000000000E+00 -0.62728108995E+01  0.62728108995E+01  0.00000000000E+00 0. -1.
          2    1    1    2  501    0 -0.26277622298E+02 -0.11635020607E+01  0.93859308695E+02  0.97475314820E+02  0.00000000000E+00 0.  1.
          1    1    1    2  502    0  0.26277622298E+02  0.11635020607E+01  0.34275222865E+02  0.43204838538E+02  0.00000000000E+00 0. -1.
</event>
<event>
 4    1  0.3837333E+003  0.2451595E+02  0.7546771E-02  0.1474292E+00
          2   -1    0    0  502    0  0.00000000000E+00  0.00000000000E+00  0.30990902805E+03  0.30990902805E+03  0.00000000000E+00 0. -1.
          1   -1    0    0  501    0 -0.00000000000E+00 -0.00000000000E+00 -0.23354604305E+01  0.23354604305E+01  0.00000000000E+00 0.  1.
          2    1    1    2  501    0 -0.24497814851E+02  0.94277137279E+00  0.21808065121E+03  0.21945432823E+03  0.00000000000E+00 0. -1.
          1    1    1    2  502    0  0.24497814851E+02 -0.94277137279E+00  0.89492916413E+02  0.92790160246E+02  0.00000000000E+00 0.  1.
</event>
<event>
 4    1  0.3837333E+003  0.2063093E+02  0.7546771E-02  0.1524600E+00
          2   -1    0    0  502    0  0.00000000000E+00  0.00000000000E+00  0.41900114546E+03  0.41900114546E+03  0.00000000000E+00 0. -1.
          1   -1    0    0  501    0 -0.00000000000E+00 -0.00000000000E+00 -0.10928428222E+01  0.10928428222E+01  0.00000000000E+00 0. -1.
          2    1    1    2  501    0  0.16436469296E+02  0.12469074357E+02  0.26471247205E+03  0.26551521274E+03  0.00000000000E+00 0. -1.
          1    1    1    2  502    0 -0.16436469296E+02 -0.12469074357E+02  0.15319583059E+03  0.15457877554E+03  0.00000000000E+00 0. -1.
</event>
<event>
 4    1  0.3837333E+003  0.2444205E+02  0.7546771E-02  0.1475143E+00
          2   -1    0    0  502    0  0.00000000000E+00  0.00000000000E+00  0.41854566072E+02  0.41854566072E+02  0.00000000000E+00 0.  1.
          1   -1    0    0  501    0 -0.00000000000E+00 -0.00000000000E+00 -0.13900763810E+04  0.13900763810E+04  0.00000000000E+00 0.  1.
          2    1    1    2  501    0  0.23801123155E+02 -0.55606103375E+01  0.38169247507E+02  0.45324444906E+02  0.00000000000E+00 0.  1.
          1    1    1    2  502    0 -0.23801123155E+02  0.55606103375E+01 -0.13863910624E+04  0.13866065021E+04  0.00000000000E+00 0.  1.
</event>
<event>
 4    1  0.3837333E+003  0.3715720E+02  0.7546771E-02  0.1366001E+00
          2   -1    0    0  502    0  0.00000000000E+00  0.00000000000E+00  0.24888613297E+03  0.24888613297E+03  0.00000000000E+00 0.  1.
          1   -1    0    0  501    0 -0.00000000000E+00 -0.00000000000E+00 -0.56728649478E+02  0.56728649478E+02  0.00000000000E+00 0. -1.
          2    1    1    2  501    0 -0.36993771702E+02  0.34811224709E+01  0.24122264983E+03  0.24406766306E+03  0.00000000000E+00 0.  1.
          1    1    1    2  502    0  0.36993771702E+02 -0.34811224709E+01 -0.49065166335E+02  0.61547119395E+02  0.00000000000E+00 0. -1.
</event>
<event>
 4    1  0.3837333E+003  0.2864054E+02  0.7546771E-02  0.1431790E+00
          2   -1    0    0  502    0  0.00000000000E+00  0.00000000000E+00  0.17336756218E+04  0.17336756218E+04  0.00000000000E+00 0.  1.
          1   -1    0    0  501    0 -0.00000000000E+00 -0.00000000000E+00 -0.76632052870E+00  0.76632052870E+00  0.00000000000E+00 0.  1.
          2    1    1    2  501    0 -0.25937237500E+02 -0.12146626083E+02  0.14028537396E+04  0.14031460707E+04  0.00000000000E+00 0.  1.
          1    1    1    2  502    0  0.25937237500E+02  0.12146626083E+02  0.33005556159E+03  0.33129587161E+03  0.00000000000E+00 0.  1.
</event>
<event>
 4    1  0.3837333E+003  0.6170066E+02  0.7546771E-02  0.1254161E+00
          2   -1    0    0  502    0  0.00000000000E+00  0.00000000000E+00  0.37433491190E+04  0.37433491190E+04  0.00000000000E+00 0.  1.
          1   -1    0    0  501    0 -0.00000000000E+00 -0.00000000000E+00 -0.10388381552E+01  0.10388381552E+01  0.00000000000E+00 0.  1.
          2    1    1    2  501    0  0.61037575273E+02  0.90211713752E+01  0.15996768293E+04  0.16008663047E+04  0.00000000000E+00 0.  1.
          1    1    1    2  502    0 -0.61037575273E+02 -0.90211713752E+01  0.21426334514E+04  0.21435216524E+04  0.00000000000E+00 0.  1.
</event>
<event>
 4    1  0.3837333E+003  0.2092421E+02  0.7546771E-02  0.1520350E+00
          2   -1    0    0  502    0  0.00000000000E+00  0.00000000000E+00  0.45260747144E+01  0.45260747144E+01  0.00000000000E+00 0.  1.
          1   -1    0    0  501    0 -0.00000000000E+00 -0.00000000000E+00 -0.27286236224E+03  0.27286236224E+03  0.00000000000E+00 0. -1.
          2    1    1    2  501    0  0.79313377764E+01  0.19362756707E+02 -0.22738186535E+02  0.30900608296E+02  0.00000000000E+00 0.  1.
          1    1    1    2  502    0 -0.79313377764E+01 -0.19362756707E+02 -0.24559810099E+03  0.24648782866E+03  0.00000000000E+00 0. -1.
</event>
<event>
 4    1  0.3837333E+003  0.2580974E+02  0.7546771E-02  0.1459945E+00
          2   -1    0    0  502    0  0.00000000000E+00  0.00000000000E+00  0.77922939431E+03  0.77922939431E+03  0.00000000000E+00 0. -1.
          1   -1    0    0  501    0 -0.00000000000E+00 -0.00000000000E+00 -0.25312029431E+02  0.25312029431E+02  0.00000000000E+00 0.  1.
          2    1    1    2  501    0  0.19377398722E+02  0.17048725248E+02  0.77237802188E+03  0.77280912992E+03  0.00000000000E+00 0. -1.
          1    1    1    2  502    0 -0.19377398722E+02 -0.17048725248E+02 -0.18460657002E+02  0.31732293815E+02  0.00000000000E+00 0.  1.
</event>
<event>
 4    1  0.3837333E+003  0.2514200E+02  0.7546771E-02  0.1467221E+00
          2   -1    0    0  502    0  0.00000000000E+00  0.00000000000E+00  0.17909716854E+04  0.17909716854E+04  0.00000000000E+00 0.  1.
          1   -1    0    0  501    0 -0.00000000000E+00 -0.00000000000E+00 -0.79704488120E+01  0.79704488120E+01  0.00000000000E+00 0.  1.
          2    1    1    2  501    0 -0.13514610147E+02  0.21200832082E+02  0.17708309677E+04  0.17710094398E+04  0.00000000000E+00 0.  1.
          1    1    1    2  502    0  0.13514610147E+02 -0.21200832082E+02  0.12170268900E+02  0.27932694347E+02  0.00000000000E+00 0.  1.
</event>
<event>
 4    1  0.3837333E+003  0.2849402E+02  0.7546771E-02  0.1433151E+00
          2   -1    0    0  502    0  0.00000000000E+00  0.00000000000E+00  0.31294509198E+02  0.31294509198E+02  0.00000000000E+00 0. -1.
          1   -1    0    0  501    0 -0.00000000000E+00 -0.00000000000E+00 -0.35617557094E+02  0.35617557094E+02  0.00000000000E+00 0. -1.
          2    1    1    2  501    0  0.24574618108E+02 -0.14422117086E+02  0.15273887596E+02  0.32329567871E+02  0.00000000000E+00 0. -1.
          1    1    1    2  502    0 -0.24574618108E+02  0.14422117086E+02 -0.19596935493E+02  0.34582498422E+02  0.00000000000E+00 0. -1.
</event>
<event>
 4    1  0.3837333E+003  0.5168739E+02  0.7546771E-02  0.1291018E+00
          2   -1    0    0  502    0  0.00000000000E+00  0.00000000000E+00  0.35023773998E+03  0.35023773998E+03  0.00000000000E+00 0. -1.
          1   -1    0    0  501    0 -0.00000000000E+00 -0.00000000000E+00 -0.18796321967E+02  0.18796321967E+02  0.00000000000E+00 0. -1.
          2    1    1    2  501    0  0.45542444569E+02  0.24443191437E+02  0.23489262483E+02  0.56774372008E+02  0.00000000000E+00 0. -1.
          1    1    1    2  502    0 -0.45542444569E+02 -0.24443191437E+02  0.30795215553E+03  0.31225968994E+03  0.00000000000E+00 0. -1.
</event>
<event>
 4    1  0.3837333E+003  0.2037500E+02  0.7546771E-02  0.1528378E+00
          2   -1    0    0  502    0  0.00000000000E+00  0.00000000000E+00  0.20730520126E+04  0.20730520126E+04  0.00000000000E+00 0. -1.
          1   -1    0    0  501    0 -0.00000000000E+00 -0.00000000000E+00 -0.22047198135E+00  0.22047198135E+00  0.00000000000E+00 0. -1.
          2    1    1    2  501    0 -0.20353255473E+02 -0.94112656781E+00  0.13503213603E+04  0.13504750708E+04  0.00000000000E+00 0. -1.
          1    1    1    2  502    0  0.20353255473E+02  0.94112656781E+00  0.72251018030E+03  0.72279741378E+03  0.00000000000E+00 0. -1.
</event>
<event>
 4    1  0.3837333E+003  0.3331079E+02  0.7546771E-02  0.1392844E+00
          2   -1    0    0  502    0  0.00000000000E+00  0.00000000000E+00  0.23072969784E+03  0.23072969784E+03  0.00000000000E+00 0.  1.
          1   -1    0    0  501    0 -0.00000000000E+00 -0.00000000000E+00 -0.20331252838E+02  0.20331252838E+02  0.00000000000E+00 0.  1.
          2    1    1    2  501    0  0.28763006340E+02 -0.16801727303E+02  0.21488307431E+03  0.21744963601E+03  0.00000000000E+00 0.  1.
          1    1    1    2  502    0 -0.28763006340E+02  0.16801727303E+02 -0.44846293062E+01  0.33611314674E+02  0.00000000000E+00 0.  1.
</event>
<event>
 4    1  0.3837333E+003  0.2370107E+02  0.7546771E-02  0.1483877E+00
          2   -1    0    0  502    0  0.00000000000E+00  0.00000000000E+00  0.26963618481E+03  0.26963618481E+03  0.00000000000E+00 0.  1.
          1   -1    0    0  501    0 -0.00000000000E+00 -0.00000000000E+00 -0.31305655398E+01  0.31305655398E+01  0.00000000000E+00 0. -1.
          2    1    1    2  501    0  0.22220054388E+02  0.82468225499E+01  0.21213381100E+03  0.21345372957E+03  0.00000000000E+00 0.  1.
          1    1    1    2  502    0 -0.22220054388E+02 -0.82468225499E+01  0.54371808277E+02  0.59313020783E+02  0.00000000000E+00 0. -1.
</event>
<event>
 4    1  0.3837333E+003  0.3096931E+02  0.7546771E-02  0.1411356E+00
          2   -1    0    0  502    0  0.00000000000E+00  0.00000000000E+00  0.52869149909E+03  0.52869149909E+03  0.00000000000E+00 0.  1.
          1   -1    0    0  501    0 -0.00000000000E+00 -0.00000000000E+00 -0.11546558217E+02  0.11546558217E+02  0.00000000000E+00 0. -1.
          2    1    1    2  501    0  0.22241450634E+02 -0.21550320706E+02  0.50656592149E+03  0.50751170554E+03  0.00000000000E+00 0.  1.
          1    1    1    2  502    0 -0.22241450634E+02  0.21550320706E+02  0.10579019386E+02  0.32726351768E+02  0.00000000000E+00 0. -1.
</event>
<event>
 4    1  0.3837333E+003  0.2045429E+02  0.7546771E-02  0.1527201E+00
          2   -1    0    0  502    0  0.00000000000E+00  0.00000000000E+00  0.41466983223E+03  0.41466983223E+03  0.00000000000E+00 0.  1.
          1   -1    0    0  501    0 -0.00000000000E+00 -0.00000000000E+00 -0.65825723676E+02  0.65825723676E+02  0.00000000000E+00 0.  1.
          2    1    1    2  501    0 -0.95457708557E+01  0.18090226645E+02  0.41282152573E+03  0.41332794504E+03  0.00000000000E+00 0.  1.
          1    1    1    2  502    0  0.95457708557E+01 -0.18090226645E+02 -0.63977417177E+02  0.67167610869E+02  0.00000000000E+00 0.  1.
</event>
<event>
 4    1  0.3837333E+003  0.2073522E+02  0.7546771E-02  0.1523079E+00
          2   -1    0    0  502    0  0.00000000000E+00  0.00000000000E+00  0.10141063107E+04  0.10141063107E+04  0.00000000000E+00 0. -1.
          1   -1    0    0  501    0 -0.00000000000E+00 -0.00000000000E+00 -0.38504530521E+03  0.38504530521E+03  0.00000000000E+00 0.  1.
          2    1    1    2  501    0 -0.19702294469E+02 -0.64628943889E+01  0.10137210574E+04  0.10139331001E+04  0.00000000000E+00 0. -1.
          1    1    1    2  502    0  0.19702294469E+02  0.64628943889E+01 -0.38466005186E+03  0.38521851579E+03  0.00000000000E+00 0.  1.
</event>
<event>
 4    1  0.3837333E+003  0.2177531E+02  0.7546771E-02  0.1508477E+00
          2   -1    0    0  502    0  0.00000000000E+00  0.00000000000E+00  0.73535323074E+03  0.73535323074E+03  0.00000000000E+00 0. -1.
          1   -1    0    0  501    0 -0.00000000000E+00 -0.00000000000E+00 -0.11829267931E+01  0.11829267931E+01  0.00000000000E+00 0.  1.
          2    1    1    2  501    0  0.20496326942E+02  0.73528697468E+01  0.61546872406E+03  0.61585380929E+03  0.00000000000E+00 0. -1.
          1    1    1    2  502    0 -0.20496326942E+02 -0.73528697468E+01  0.11870157988E+03  0.12068234824E+03  0.00000000000E+00 0.  1.
</event>
<event>
 4    1  0.3837333E+003  0.4042086E+02  0.7546771E-02  0.1346037E+00
          2   -1    0    0  502    0  0.00000000000E+00  0.00000000000E+00  0.21937656682E+03  0.21937656682E+03  0.00000000000E+00 0. -1.
          1   -1    0    0  501    0 -0.00000000000E+00 -0.00000000000E+00 -0.11818000690E+03  0.11818000690E+03  0.00000000000E+00 0. -1.
          2    1    1    2  501    0 -0.38454142095E+02 -0.12454923942E+02  0.21397184445E+03  0.21775627750E+03  0.00000000000E+00 0. -1.
          1    1    1    2  502    0  0.38454142095E+02  0.12454923942E+02 -0.11277528453E+03  0.11980029622E+03  0.00000000000E+00 0. -1.
</event>
<event>
 4    1  0.3837333E+003  0.2078102E+02  0.7546771E-02  0.1522414E+00
          2   -1    0    0  502    0  0.00000000000E+00  0.00000000000E+00  0.58109853485E+02  0.58109853485E+02  0.00000000000E+00 0. -1.
          1   -1    0    0  501    0 -0.00000000000E+00 -0.00000000000E+00 -0.10738589286E+03  0.10738589286E+03  0.00000000000E+00 0.  1.
          2    1    1    2  501    0 -0.20281735098E+02  0.45279204690E+01  0.55195244626E+02  0.58977672654E+02  0.00000000000E+00 0. -1.
          1    1    1    2  502    0  0.20281735098E+02 -0.45279204690E+01 -0.10447128400E+03  0.10651807369E+03  0.00000000000E+00 0.  1.
</event>
<event>
 4    1  0.3837333E+003  0.2606980E+02  0.7546771E-02  0.1457183E+00
          2   -1    0    0  502    0  0.00000000000E+00  0.00000000000E+00  0.30333344609E+02  0.30333344609E+02  0.00000000000E+00 0.  1.
          1   -1    0    0  501    0 -0.00000000000E+00 -0.00000000000E+00 -0.15748646277E+03  0.15748646277E+03  0.00000000000E+00 0.  1.
          2    1    1    2  501    0 -0.13416396037E+02 -0.22352514918E+02  0.23396913270E+02  0.35029275704E+02  0.00000000000E+00 0.  1.
          1    1    1    2  502    0  0.13416396037E+02  0.22352514918E+02 -0.15055003143E+03  0.15279053168E+03  0.00000000000E+00 0.  1.
</event>
<event>
 4    1  0.3837333E+003  0.2543921E+02  0.7546771E-02  0.1463949E+00
          2   -1    0    0  502    0  0.00000000000E+00  0.00000000000E+00  0.14328672626E+01  0.14328672626E+01  0.00000000000E+00 0. -1.
          1   -1    0    0  501    0 -0.00000000000E+00 -0.00000000000E+00 -0.48665217368E+03  0.48665217368E+03  0.00000000000E+00 0. -1.
          2    1    1    2  501    0  0.86656440792E+01  0.23917773763E+02 -0.17715976414E+03  0.17897691281E+03  0.00000000000E+00 0. -1.
          1    1    1    2  502    0 -0.86656440792E+01 -0.23917773763E+02 -0.30805954228E+03  0.30910812813E+03  0.00000000000E+00 0. -1.
</event>
<event>
 4    1  0.3837333E+003  0.2092960E+02  0.7546771E-02  0.1520272E+00
          2   -1    0    0  502    0  0.00000000000E+00  0.00000000000E+00  0.55525166659E+02  0.55525166659E+02  0.00000000000E+00 0. -1.
          1   -1    0    0  501    0 -0.00000000000E+00 -0.00000000000E+00 -0.13428960084E+02  0.13428960084E+02  0.00000000000E+00 0. -1.
          2    1    1    2  501    0  0.19633855173E+02  0.72498312016E+01  0.43192055487E+02  0.47995853764E+02  0.00000000000E+00 0. -1.
          1    1    1    2  502    0 -0.19633855173E+02 -0.72498312016E+01 -0.10958489113E+01  0.20958272979E+02  0.00000000000E+00 0. -1.
</event>
<event>
 4    1  0.3837333E+003  0.6439674E+02  0.7546771E-02  0.1245584E+00
          2   -1    0    0  502    0  0.00000000000E+00  0.00000000000E+00  0.60383160849E+02  0.60383160849E+02  0.00000000000E+00 0. -1.
          1   -1    0    0  501    0 -0.00000000000E+00 -0.00000000000E+00 -0.13858254253E+03  0.13858254253E+03  0.00000000000E+00 0. -1.
          2    1    1    2  501    0 -0.51472986264E+02 -0.38697186996E+02  0.31556374133E+02  0.71712937081E+02  0.00000000000E+00 0. -1.
          1    1    1    2  502    0  0.51472986264E+02  0.38697186996E+02 -0.10975575581E+03  0.12725276630E+03  0.00000000000E+00 0. -1.
</event>
<event>
 4    1  0.3837333E+003  0.2768290E+02  0.7546771E-02  0.1440866E+00
          2   -1    0    0  502    0  0.00000000000E+00  0.00000000000E+00  0.81944046250E+03  0.81944046250E+03  0.00000000000E+00 0.  1.
          1   -1    0    0  501    0 -0.00000000000E+00 -0.00000000000E+00 -0.21592418494E+02  0.21592418494E+02  0.00000000000E+00 0. -1.
          2    1    1    2  501    0  0.79364835918E+01 -0.26520842048E+02  0.81023303815E+03  0.81070581529E+03  0.00000000000E+00 0.  1.
          1    1    1    2  502    0 -0.79364835918E+01  0.26520842048E+02 -0.12384994139E+02  0.30327065710E+02  0.00000000000E+00 0. -1.
</event>
<event>
 4    1  0.3837333E+003  0.2585968E+02  0.7546771E-02  0.1459412E+00
          2   -1    0    0  502    0  0.00000000000E+00  0.00000000000E+00  0.26207518329E+01  0.26207518329E+01  0.00000000000E+00 0. -1.
          1   -1    0    0  501    0 -0.00000000000E+00 -0.00000000000E+00 -0.53074656727E+03  0.53074656727E+03  0.00000000000E+00 0. -1.
          2    1    1    2  501    0  0.25693512530E+02  0.29268087174E+01 -0.71896134971E+02  0.76405346797E+02  0.00000000000E+00 0. -1.
          1    1    1    2  502    0 -0.25693512530E+02 -0.29268087174E+01 -0.45622968047E+03  0.45696197231E+03  0.00000000000E+00 0. -1.
</event>
<event>
 4    1  0.3837333E+003  0.2291027E+02  0.7546771E-02  0.1493628E+00
          2   -1    0    0  502    0  0.00000000000E+00  0.00000000000E+00  0.27846816626E+03  0.27846816626E+03  0.00000000000E+00 0. -1.
          1   -1    0    0  501    0 -0.00000000000E+00 -0.00000000000E+00 -0.13759569450E+04  0.13759569450E+04  0.00000000000E+00 0. -1.
          2    1    1    2  501    0 -0.19521094129E+02 -0.11991968868E+02  0.27790138443E+03  0.27884414985E+03  0.00000000000E+00 0. -1.
          1    1    1    2  502    0  0.19521094129E+02  0.11991968868E+02 -0.13753901632E+04  0.13755809614E+04  0.00000000000E+00 0. -1.
</event>
<event>
 4    1  0.3837333E+003  0.2112723E+02  0.7546771E-02  0.1517456E+00
          2   -1    0    0  502    0  0.00000000000E+00  0.00000000000E+00  0.88858664524E+00  0.88858664524E+00  0.00000000000E+00 0.  1.
          1   -1    0    0  501    0 -0.00000000000E+00 -0.00000000000E+00 -0.67322662897E+03  0.67322662897E+03  0.00000000000E+00 0.  1.
          2    1    1    2  501    0 -0.13574942793E+01  0.21083577448E+02 -0.16634640339E+03  0.16768269425E+03  0.00000000000E+00 0.  1.
          1    1    1    2  502    0  0.13574942793E+01 -0.21083577448E+02 -0.50599163893E+03  0.50643252136E+03  0.00000000000E+00 0.  1.
</event>
<event>
 4    1  0.3837333E+003  0.2180479E+02  0.7546771E-02  0.1508078E+00
          2   -1    0    0  502    0  0.00000000000E+00  0.00000000000E+00  0.53667641239E+00  0.53667641239E+00  0.00000000000E+00 0.  1.
          1   -1    0    0  501    0 -0.00000000000E+00 -0.00000000000E+00 -0.88914312128E+03  0.88914312128E+03  0.00000000000E+00 0.  1.
          2    1    1    2  501    0 -0.21724241995E+02  0.18723846414E+01 -0.47111584788E+03  0.47162017624E+03  0.00000000000E+00 0.  1.
          1    1    1    2  502    0  0.21724241995E+02 -0.18723846414E+01 -0.41749059699E+03  0.41805962145E+03  0.00000000000E+00 0.  1.
</event>
<event>
 4    1  0.3837333E+003  0.2701735E+02  0.7546771E-02  0.1447434E+00
          2   -1    0    0  502    0  0.00000000000E+00  0.00000000000E+00  0.90844288366E+02  0.90844288366E+02  0.00000000000E+00 0. -1.
          1   -1    0    0  501    0 -0.00000000000E+00 -0.00000000000E+00 -0.28079306366E+03  0.28079306366E+03  0.00000000000E+00 0. -1.
          2    1    1    2  501    0  0.12050121244E+02  0.24181225885E+02  0.88166343854E+02  0.92213021292E+02  0.00000000000E+00 0. -1.
          1    1    1    2  502    0 -0.12050121244E+02 -0.24181225885E+02 -0.27811511915E+03  0.27942433073E+03  0.00000000000E+00 0. -1.
</event>
<event>
 4    1  0.3837333E+003  0.2355510E+02  0.7546771E-02  0.1485643E+00
          2   -1    0    0  502    0  0.00000000000E+00  0.00000000000E+00  0.10686117835E+03  0.10686117835E+03  0.00000000000E+00 0. -1.
          1   -1    0    0  501    0 -0.00000000000E+00 -0.00000000000E+00 -0.29424192805E+02  0.29424192805E+02  0.00000000000E+00 0. -1.
          2    1    1    2  501    0 -0.10793662293E+02 -0.20936558023E+02  0.10055738490E+03  0.10327937967E+03  0.00000000000E+00 0. -1.
          1    1    1    2  502    0  0.10793662293E+02  0.20936558023E+02 -0.23120399354E+02  0.33005991484E+02  0.00000000000E+00 0. -1.
</event>
<event>
 4    1  0.3837333E+003  0.3002776E+02  0.7546771E-02  0.1419355E+00
          2   -1    0    0  502    0  0.00000000000E+00  0.00000000000E+00  0.12359245355E+02  0.12359245355E+02  0.00000000000E+00 0.  1.
          1   -1    0    0  501    0 -0.00000000000E+00 -0.00000000000E+00 -0.79284484749E+02  0.79284484749E+02  0.00000000000E+00 0.  1.
          2    1    1    2  501    0 -0.25833927442E+02  0.15305993589E+02 -0.46409721010E+02  0.55276825624E+02  0.00000000000E+00 0.  1.
          1    1    1    2  502    0  0.25833927442E+02 -0.15305993589E+02 -0.20515518384E+02  0.36366904479E+02  0.00000000000E+00 0.  1.
</event>
<event>
 4    1  0.3837333E+003  0.2188205E+02  0.7546771E-02  0.1507035E+00
          2   -1    0    0  502    0  0.00000000000E+00  0.00000000000E+00  0.12228018355E+03  0.12228018355E+03  0.00000000000E+00 0.  1.
          1   -1    0    0  501    0 -0.00000000000E+00 -0.00000000000E+00 -0.74900526631E+01  0.74900526631E+01  0.00000000000E+00 0.  1.
          2    1    1    2  501    0  0.31600077541E+01 -0.21652677064E+02  0.10221751853E+03  0.10453346434E+03  0.00000000000E+00 0.  1.
          1    1    1    2  502    0 -0.31600077541E+01  0.21652677064E+02  0.12572612361E+02  0.25236771875E+02  0.00000000000E+00 0.  1.
</event>
<event>
 4    1  0.3837333E+003  0.2848867E+02  0.7546771E-02  0.1433201E+00
          2   -1    0    0  502    0  0.00000000000E+00  0.00000000000E+00  0.99951001017E+02  0.99951001017E+02  0.00000000000E+00 0. -1.
          1   -1    0    0  501    0 -0.00000000000E+00 -0.00000000000E+00 -0.15304621117E+02  0.15304621117E+02  0.00000000000E+00 0. -1.
          2    1    1    2  501    0 -0.22846484530E+01  0.28396913508E+02  0.81807277500E+02  0.86625833141E+02  0.00000000000E+00 0. -1.
          1    1    1    2  502    0  0.22846484530E+01 -0.28396913508E+02  0.28391024003E+01  0.28629788993E+02  0.00000000000E+00 0. -1.
</event>
<event>
 4    1  0.3837333E+003  0.2234386E+02  0.7546771E-02  0.1500906E+00
          2   -1    0    0  502    0  0.00000000000E+00  0.00000000000E+00  0.15528543387E+04  0.15528543387E+04  0.00000000000E+00 0. -1.
          1   -1    0    0  501    0 -0.00000000000E+00 -0.00000000000E+00 -0.69204216756E+01  0.69204216756E+01  0.00000000000E+00 0.  1.
          2    1    1    2  501    0 -0.22295424781E+02  0.14703632227E+01  0.15345232130E+04  0.15346858764E+04  0.00000000000E+00 0. -1.
          1    1    1    2  502    0  0.22295424781E+02 -0.14703632227E+01  0.11410704044E+02  0.25088884012E+02  0.00000000000E+00 0.  1.
</event>
<event>
 4    1  0.3837333E+003  0.3263693E+02  0.7546771E-02  0.1397984E+00
          2   -1    0    0  502    0  0.00000000000E+00  0.00000000000E+00  0.14767171046E+04  0.14767171046E+04  0.00000000000E+00 0. -1.
          1   -1    0    0  501    0 -0.00000000000E+00 -0.00000000000E+00 -0.83381035123E+00  0.83381035123E+00  0.00000000000E+00 0. -1.
          2    1    1    2  501    0 -0.31923723499E+02  0.67856403281E+01  0.10093093020E+04  0.10098368364E+04  0.00000000000E+00 0. -1.
          1    1    1    2  502    0  0.31923723499E+02 -0.67856403281E+01  0.46657399226E+03  0.46771407856E+03  0.00000000000E+00 0. -1.
</event>
<event>
 4    1  0.3837333E+003  0.4049321E+02  0.7546771E-02  0.1345620E+00
          2   -1    0    0  502    0  0.00000000000E+00  0.00000000000E+00  0.15501466215E+03  0.15501466215E+03  0.00000000000E+00 0. -1.
          1   -1    0    0  501    0 -0.00000000000E+00 -0.00000000000E+00 -0.54031488239E+02  0.54031488239E+02  0.00000000000E+00 0. -1.
          2    1    1    2  501    0  0.27791156999E+02 -0.29450832783E+02  0.14422673972E+03  0.14980337916E+03  0.00000000000E+00 0. -1.
          1    1    1    2  502    0 -0.27791156999E+02  0.29450832783E+02 -0.43243565806E+02  0.59242771227E+02  0.00000000000E+00 0. -1.
</event>
<event>
 4    1  0.3837333E+003  0.2230207E+02  0.7546771E-02  0.1501453E+00
          2   -1    0    0  502    0  0.00000000000E+00  0.00000000000E+00  0.99899110567E+00  0.99899110567E+00  0.00000000000E+00 0. -1.
          1   -1    0    0  501    0 -0.00000000000E+00 -0.00000000000E+00 -0.11868659366E+04  0.11868659366E+04  0.00000000000E+00 0.  1.
          2    1    1    2  501    0 -0.54862906432E+00 -0.22295320711E+02 -0.14041121014E+03  0.14217134118E+03  0.00000000000E+00 0. -1.
          1    1    1    2  502    0  0.54862906432E+00  0.22295320711E+02 -0.10454557354E+04  0.10456935866E+04  0.00000000000E+00 0.  1.
</event>
<event>
 4    1  0.3837333E+003  0.3392338E+02  0.7546771E-02  0.1388294E+00
          2   -1    0    0  502    0  0.00000000000E+00  0.00000000000E+00  0.13308715499E+03  0.13308715499E+03  0.00000000000E+00 0.  1.
          1   -1    0    0  501    0 -0.00000000000E+00 -0.00000000000E+00 -0.37026463500E+02  0.37026463500E+02  0.00000000000E+00 0. -1.
          2    1    1    2  501    0 -0.32893037715E+02  0.82972142637E+01  0.12249592539E+03  0.12710644134E+03  0.00000000000E+00 0.  1.
          1    1    1    2  502    0  0.32893037715E+02 -0.82972142637E+01 -0.26435233899E+02  0.43007177145E+02  0.00000000000E+00 0. -1.
</event>
<event>
 4    1  0.3837333E+003  0.2465279E+02  0.7546771E-02  0.1472725E+00
          2   -1    0    0  502    0  0.00000000000E+00  0.00000000000E+00  0.67838523240E+01  0.67838523240E+01  0.00000000000E+00 0. -1.
          1   -1    0    0  501    0 -0.00000000000E+00 -0.00000000000E+00 -0.58173057015E+03  0.58173057015E+03  0.00000000000E+00 0. -1.
          2    1    1    2  501    0  0.57075219954E+01 -0.23983001332E+02 -0.16821451817E+02  0.29844956047E+02  0.00000000000E+00 0. -1.
          1    1    1    2  502    0 -0.57075219954E+01  0.23983001332E+02 -0.55812526601E+03  0.55866946642E+03  0.00000000000E+00 0. -1.
</event>
<event>
 4    1  0.3837333E+003  0.2032167E+02  0.7546771E-02  0.1529174E+00
          2   -1    0    0  502    0  0.00000000000E+00  0.00000000000E+00  0.56783413605E+03  0.56783413605E+03  0.00000000000E+00 0. -1.
          1   -1    0    0  501    0 -0.00000000000E+00 -0.00000000000E+00 -0.82436783585E+01  0.82436783585E+01  0.00000000000E+00 0. -1.
          2    1    1    2  501    0 -0.26344649952E+00  0.20319965332E+02  0.55483514949E+03  0.55520718070E+03  0.00000000000E+00 0. -1.
          1    1    1    2  502    0  0.26344649952E+00 -0.20319965332E+02  0.47553082017E+01  0.20870633705E+02  0.00000000000E+00 0. -1.
</event>
<event>
 4    1  0.3837333E+003  0.2561807E+02  0.7546771E-02  0.1462006E+00
          2   -1    0    0  502    0  0.00000000000E+00  0.00000000000E+00  0.60176904582E+02  0.60176904582E+02  0.00000000000E+00 0.  1.
          1   -1    0    0  501    0 -0.00000000000E+00 -0.00000000000E+00 -0.15721486635E+02  0.15721486635E+02  0.00000000000E+00 0.  1.
          2    1    1    2  501    0 -0.24547693381E+02  0.73277625489E+01  0.43230588100E+02  0.50251060703E+02  0.00000000000E+00 0.  1.
          1    1    1    2  502    0  0.24547693381E+02 -0.73277625489E+01  0.12248298464E+01  0.25647330513E+02  0.00000000000E+00 0.  1.
</event>
<event>
 4    1  0.3837333E+003  0.4120966E+02  0.7546771E-02  0.1341539E+00
          2   -1    0    0  502    0  0.00000000000E+00  0.00000000000E+00  0.85471181820E+03  0.85471181820E+03  0.00000000000E+00 0.  1.
          1   -1    0    0  501    0 -0.00000000000E+00 -0.00000000000E+00 -0.46155917842E+01  0.46155917842E+01  0.00000000000E+00 0.  1.
          2    1    1    2  501    0 -0.37893189195E+02  0.16196993476E+02  0.74930103007E+03  0.75043338815E+03  0.00000000000E+00 0.  1.
          1    1    1    2  502    0  0.37893189195E+02 -0.16196993476E+02  0.10079519634E+03  0.10889402183E+03  0.00000000000E+00 0.  1.
</event>
<event>
 4    1  0.3837333E+003  0.6806504E+02  0.7546771E-02  0.1234646E+00
          2   -1    0    0  502    0  0.00000000000E+00  0.00000000000E+00  0.33051861564E+02  0.33051861564E+02  0.00000000000E+00 0.  1.
          1   -1    0    0  501    0 -0.00000000000E+00 -0.00000000000E+00 -0.88873519178E+03  0.88873519178E+03  0.00000000000E+00 0. -1.
          2    1    1    2  501    0  0.68021689794E+02  0.24289372872E+01 -0.48522573843E+01  0.68237778543E+02  0.00000000000E+00 0.  1.
          1    1    1    2  502    0 -0.68021689794E+02 -0.24289372872E+01 -0.85083107284E+03  0.85354927481E+03  0.00000000000E+00 0. -1.
</event>
<event>
 4    1  0.3837333E+003  0.2068472E+02  0.7546771E-02  0.1523814E+00
          2   -1    0    0  502    0  0.00000000000E+00  0.00000000000E+00  0.22291245635E+03  0.22291245635E+03  0.00000000000E+00 0.  1.
          1   -1    0    0  501    0 -0.00000000000E+00 -0.00000000000E+00 -0.79566977188E+01  0.79566977188E+01  0.00000000000E+00 0. -1.
          2    1    1    2  501    0 -0.20093467678E+02  0.49102166871E+01  0.20802991401E+03  0.20905574088E+03  0.00000000000E+00 0.  1.
          1    1    1    2  502    0  0.20093467678E+02 -0.49102166871E+01  0.69258446191E+01  0.21813413188E+02  0.00000000000E+00 0. -1.
</event>
<event>
 4    1  0.3837333E+003  0.2415453E+02  0.7546771E-02  0.1478488E+00
          2   -1    0    0  502    0  0.00000000000E+00  0.00000000000E+00  0.28696550265E+01  0.28696550265E+01  0.00000000000E+00 0.  1.
          1   -1    0    0  501    0 -0.00000000000E+00 -0.00000000000E+00 -0.85380469654E+03  0.85380469654E+03  0.00000000000E+00 0. -1.
          2    1    1    2  501    0 -0.23807581761E+02  0.40792774398E+01 -0.51592030050E+02  0.56966472757E+02  0.00000000000E+00 0.  1.
          1    1    1    2  502    0  0.23807581761E+02 -0.40792774398E+01 -0.79934301146E+03  0.79970787881E+03  0.00000000000E+00 0. -1.
</event>
<event>
 4    1  0.3837333E+003  0.3048546E+02  0.7546771E-02  0.1415424E+00
          2   -1    0    0  502    0  0.00000000000E+00  0.00000000000E+00  0.25244260916E+01  0.25244260916E+01  0.00000000000E+00 0.  1.
          1   -1    0    0  501    0 -0.00000000000E+00 -0.00000000000E+00 -0.62391861165E+03  0.62391861165E+03  0.00000000000E+00 0.  1.
          2    1    1    2  501    0 -0.20000294014E+02 -0.23007645307E+02 -0.11015175210E+03  0.11429248441E+03  0.00000000000E+00 0.  1.
          1    1    1    2  502    0  0.20000294014E+02  0.23007645307E+02 -0.51124243346E+03  0.51215055333E+03  0.00000000000E+00 0.  1.
</event>
<event>
 4    1  0.3837333E+003  0.2017225E+02  0.7546771E-02  0.1531419E+00
          2   -1    0    0  502    0  0.00000000000E+00  0.00000000000E+00  0.25026048974E+03  0.25026048974E+03  0.00000000000E+00 0.  1.
          1   -1    0    0  501    0 -0.00000000000E+00 -0.00000000000E+00 -0.59976842035E+01  0.59976842035E+01  0.00000000000E+00 0. -1.
          2    1    1    2  501    0  0.15845386193E+02  0.12483721191E+02  0.23152228340E+03  0.23239941323E+03  0.00000000000E+00 0.  1.
          1    1    1    2  502    0 -0.15845386193E+02 -0.12483721191E+02  0.12740522130E+02  0.23858760708E+02  0.00000000000E+00 0. -1.
</event>
<event>
 4    1  0.3837333E+003  0.2184866E+02  0.7546771E-02  0.1507485E+00
          2   -1    0    0  502    0  0.00000000000E+00  0.00000000000E+00  0.59806637186E+03  0.59806637186E+03  0.00000000000E+00 0.  1.
          1   -1    0    0  501    0 -0.00000000000E+00 -0.00000000000E+00 -0.14880874787E+02  0.14880874787E+02  0.00000000000E+00 0.  1.
          2    1    1    2  501    0  0.47041159125E+01 -0.21336244033E+02  0.58973379442E+03  0.59013838402E+03  0.00000000000E+00 0.  1.
          1    1    1    2  502    0 -0.47041159125E+01  0.21336244033E+02 -0.65482973490E+01  0.22808862623E+02  0.00000000000E+00 0.  1.
</event>
<event>
 4    1  0.3837333E+003  0.2551173E+02  0.7546771E-02  0.1463159E+00
          2   -1    0    0  502    0  0.00000000000E+00  0.00000000000E+00  0.61492886969E+02  0.61492886969E+02  0.00000000000E+00 0.  1.
          1   -1    0    0  501    0 -0.00000000000E+00 -0.00000000000E+00 -0.11749038120E+02  0.11749038120E+02  0.00000000000E+00 0.  1.
          2    1    1    2  501    0  0.15395054962E+01 -0.25465232853E+02  0.36403166704E+02  0.44452656923E+02  0.00000000000E+00 0.  1.
          1    1    1    2  502    0 -0.15395054962E+01  0.25465232853E+02  0.13340682145E+02  0.28789268166E+02  0.00000000000E+00 0.  1.
</event>
<event>
 4    1  0.3837333E+003  0.2146327E+02  0.7546771E-02  0.1512752E+00
          2   -1    0    0  502    0  0.00000000000E+00  0.00000000000E+00  0.39962433424E+02  0.39962433424E+02  0.00000000000E+00 0. -1.
          1   -1    0    0  501    0 -0.00000000000E+00 -0.00000000000E+00 -0.78260557042E+02  0.78260557042E+02  0.00000000000E+00 0. -1.
          2    1    1    2  501    0  0.13883277987E+02  0.16368461153E+02  0.35435594804E+02  0.41428894595E+02  0.00000000000E+00 0. -1.
          1    1    1    2  502    0 -0.13883277987E+02 -0.16368461153E+02 -0.73733718423E+02  0.76794095871E+02  0.00000000000E+00 0. -1.
</event>
<event>
 4    1  0.3837333E+003  0.2001364E+02  0.7546771E-02  0.1533827E+00
          2   -1    0    0  502    0  0.00000000000E+00  0.00000000000E+00  0.62729664681E+03  0.62729664681E+03  0.00000000000E+00 0. -1.
          1   -1    0    0  501    0 -0.00000000000E+00 -0.00000000000E+00 -0.22610403695E+01  0.22610403695E+01  0.00000000000E+00 0.  1.
          2    1    1    2  501    0  0.18979696551E+02  0.63495469871E+01  0.57917024556E+03  0.57951593504E+03  0.00000000000E+00 0. -1.
          1    1    1    2  502    0 -0.18979696551E+02 -0.63495469871E+01  0.45865360885E+02  0.50041752140E+02  0.00000000000E+00 0.  1.
</event>
<event>
 4    1  0.3837333E+003  0.2350163E+02  0.7546771E-02  0.1486293E+00
          2   -1    0    0  502    0  0.00000000000E+00  0.00000000000E+00  0.12190383304E+03  0.12190383304E+03  0.00000000000E+00 0.  1.
          1   -1    0    0  501    0 -0.00000000000E+00 -0.00000000000E+00 -0.39033108342E+02  0.39033108342E+02  0.00000000000E+00 0.  1.
          2    1    1    2  501    0 -0.23486914166E+02 -0.83150233146E+00  0.11708955748E+03  0.11942483412E+03  0.00000000000E+00 0.  1.
          1    1    1    2  502    0  0.23486914166E+02  0.83150233146E+00 -0.34218832778E+02  0.41512107268E+02  0.00000000000E+00 0.  1.
</event>
<event>
 4    1  0.3837333E+003  0.2076108E+02  0.7546771E-02  0.1522704E+00
          2   -1    0    0  502    0  0.00000000000E+00  0.00000000000E+00  0.15333419763E+04  0.15333419763E+04  0.00000000000E+00 0. -1.
          1   -1    0    0  501    0 -0.00000000000E+00 -0.00000000000E+00 -0.11689277859E+03  0.11689277859E+03  0.00000000000E+00 0. -1.
          2    1    1    2  501    0 -0.70203918240E+01 -0.19538079256E+02  0.15323492712E+04  0.15324899058E+04  0.00000000000E+00 0. -1.
          1    1    1    2  502    0  0.70203918240E+01  0.19538079256E+02 -0.11590007351E+03  0.11774484907E+03  0.00000000000E+00 0. -1.
</event>
<event>
 4    1  0.3837333E+003  0.3557664E+02  0.7546771E-02  0.1376554E+00
          2   -1    0    0  502    0  0.00000000000E+00  0.00000000000E+00  0.23866293342E+04  0.23866293342E+04  0.00000000000E+00 0.  1.
          1   -1    0    0  501    0 -0.00000000000E+00 -0.00000000000E+00 -0.21696158949E+03  0.21696158949E+03  0.00000000000E+00 0. -1.
          2    1    1    2  501    0  0.14307265507E+02 -0.32572985094E+02  0.23850373440E+04  0.23853026704E+04  0.00000000000E+00 0.  1.
          1    1    1    2  502    0 -0.14307265507E+02  0.32572985094E+02 -0.21536959931E+03  0.21828825326E+03  0.00000000000E+00 0. -1.
</event>
<event>
 4    1  0.3837333E+003  0.2250000E+02  0.7546771E-02  0.1498874E+00
          2   -1    0    0  502    0  0.00000000000E+00  0.00000000000E+00  0.75066588903E+03  0.75066588903E+03  0.00000000000E+00 0.  1.
          1   -1    0    0  501    0 -0.00000000000E+00 -0.00000000000E+00 -0.92646445205E+00  0.92646445205E+00  0.00000000000E+00 0. -1.
          2    1    1    2  501    0 -0.20548921907E+02  0.91646955062E+01  0.57088633703E+03  0.57132955432E+03  0.00000000000E+00 0.  1.
          1    1    1    2  502    0  0.20548921907E+02 -0.91646955062E+01  0.17885308755E+03  0.18026279916E+03  0.00000000000E+00 0. -1.
</event>
<event>
 4    1  0.3837333E+003  0.2070405E+02  0.7546771E-02  0.1523532E+00
          2   -1    0    0  502    0  0.00000000000E+00  0.00000000000E+00  0.18091359166E+02  0.18091359166E+02  0.00000000000E+00 0. -1.
          1   -1    0    0  501    0 -0.00000000000E+00 -0.00000000000E+00 -0.15642018807E+03  0.15642018807E+03  0.00000000000E+00 0. -1.
          2    1    1    2  501    0  0.70206135147E+01 -0.19477389697E+02  0.11211511002E+02  0.23544759555E+02  0.00000000000E+00 0. -1.
          1    1    1    2  502    0 -0.70206135147E+01  0.19477389697E+02 -0.14954033991E+03  0.15096678768E+03  0.00000000000E+00 0. -1.
</event>
<event>
 4    1  0.3837333E+003  0.3791523E+02  0.7546771E-02  0.1361155E+00
          2   -1    0    0  502    0  0.00000000000E+00  0.00000000000E+00  0.34769031503E+02  0.34769031503E+02  0.00000000000E+00 0. -1.
          1   -1    0    0  501    0 -0.00000000000E+00 -0.00000000000E+00 -0.12941247622E+04  0.12941247622E+04  0.00000000000E+00 0. -1.
          2    1    1    2  501    0  0.37709481656E+02 -0.39446177522E+01  0.24068627375E+02  0.44909507230E+02  0.00000000000E+00 0. -1.
          1    1    1    2  502    0 -0.37709481656E+02  0.39446177522E+01 -0.12834243581E+04  0.12839842865E+04  0.00000000000E+00 0. -1.
</event>
<event>
 4    1  0.3837333E+003  0.3496630E+02  0.7546771E-02  0.1380800E+00
          2   -1    0    0  502    0  0.00000000000E+00  0.00000000000E+00  0.93884511031E+02  0.93884511031E+02  0.00000000000E+00 0.  1.
          1   -1    0    0  501    0 -0.00000000000E+00 -0.00000000000E+00 -0.24175916903E+02  0.24175916903E+02  0.00000000000E+00 0.  1.
          2    1    1    2  501    0  0.31082923613E+02  0.16015432454E+02  0.74948389189E+02  0.82703707650E+02  0.00000000000E+00 0.  1.
          1    1    1    2  502    0 -0.31082923613E+02 -0.16015432454E+02 -0.52397950605E+01  0.35356720285E+02  0.00000000000E+00 0.  1.
</event>
<event>
 4    1  0.3837333E+003  0.2219932E+02  0.7546771E-02  0.1502805E+00
          2   -1    0    0  502    0  0.00000000000E+00  0.00000000000E+00  0.28448535684E+01  0.28448535684E+01  0.00000000000E+00 0. -1.
          1   -1    0    0  501    0 -0.00000000000E+00 -0.00000000000E+00 -0.70237569336E+03  0.70237569336E+03  0.00000000000E+00 0. -1.
          2    1    1    2  501    0 -0.21465109754E+02 -0.56620731734E+01 -0.43711158524E+02  0.49025252563E+02  0.00000000000E+00 0. -1.
          1    1    1    2  502    0  0.21465109754E+02  0.56620731734E+01 -0.65581968127E+03  0.65619529436E+03  0.00000000000E+00 0. -1.
</event>
<event>
 4    1  0.3837333E+003  0.2812958E+02  0.7546771E-02  0.1436580E+00
          2   -1    0    0  502    0  0.00000000000E+00  0.00000000000E+00  0.60982883951E+03  0.60982883951E+03  0.00000000000E+00 0. -1.
          1   -1    0    0  501    0 -0.00000000000E+00 -0.00000000000E+00 -0.39633812002E+01  0.39633812002E+01  0.00000000000E+00 0.  1.
          2    1    1    2  501    0 -0.27496693946E+02  0.59333929739E+01  0.55462862348E+03  0.55534150153E+03  0.00000000000E+00 0. -1.
          1    1    1    2  502    0  0.27496693946E+02 -0.59333929739E+01  0.51236834829E+02  0.58450719187E+02  0.00000000000E+00 0.  1.
</event>
<event>
 4    1  0.3837333E+003  0.2636140E+02  0.7546771E-02  0.1454131E+00
          2   -1    0    0  502    0  0.00000000000E+00  0.00000000000E+00  0.20394646786E+02  0.20394646786E+02  0.00000000000E+00 0.  1.
          1   -1    0    0  501    0 -0.00000000000E+00 -0.00000000000E+00 -0.63780343503E+02  0.63780343503E+02  0.00000000000E+00 0. -1.
          2    1    1    2  501    0  0.23424462131E+02  0.12092068042E+02  0.70305329138E+01  0.27282813798E+02  0.00000000000E+00 0.  1.
          1    1    1    2  502    0 -0.23424462131E+02 -0.12092068042E+02 -0.50416229631E+02  0.56892176491E+02  0.00000000000E+00 0. -1.
</event>
<event>
 4    1  0.3837333E+003  0.2906705E+02  0.7546771E-02  0.1427881E+00
          2   -1    0    0  502    0  0.00000000000E+00  0.00000000000E+00  0.40499030706E+01  0.40499030706E+01  0.00000000000E+00 0. -1.
          1   -1    0    0  501    0 -0.00000000000E+00 -0.00000000000E+00 -0.50087232199E+03  0.50087232199E+03  0.00000000000E+00 0.  1.
          2    1    1    2  501    0  0.19824133008E+02 -0.21257874330E+02 -0.55565728491E+02  0.62709199112E+02  0.00000000000E+00 0. -1.
          1    1    1    2  502    0 -0.19824133008E+02  0.21257874330E+02 -0.44125669043E+03  0.44221302595E+03  0.00000000000E+00 0.  1.
</event>
<event>
 4    1  0.3837333E+003  0.2217731E+02  0.7546771E-02  0.1503095E+00
          2   -1    0    0  502    0  0.00000000000E+00  0.00000000000E+00  0.21411908314E+02  0.21411908314E+02  0.00000000000E+00 0. -1.
          1   -1    0    0  501    0 -0.00000000000E+00 -0.00000000000E+00 -0.68156176679E+02  0.68156176679E+02  0.00000000000E+00 0. -1.
          2    1    1    2  501    0  0.21528589539E+02  0.53247251213E+01  0.13092610954E+02  0.25753627448E+02  0.00000000000E+00 0. -1.
          1    1    1    2  502    0 -0.21528589539E+02 -0.53247251213E+01 -0.59836879319E+02  0.63814457545E+02  0.00000000000E+00 0. -1.
</event>
<event>
 4    1  0.4007849E+003  0.3957326E+02  0.7546771E-02  0.1351005E+00
          2   -1    0    0  502    0  0.00000000000E+00  0.00000000000E+00  0.18985547093E+04  0.18985547093E+04  0.00000000000E+00 0. -1.
          1   -1    0    0  501    0 -0.00000000000E+00 -0.00000000000E+00 -0.74894016959E+03  0.74894016959E+03  0.00000000000E+00 0.  1.
          2    1    1    2  501    0 -0.39530984278E+02 -0.18287917453E+01  0.18978255402E+04  0.18982380841E+04  0.00000000000E+00 0. -1.
          1    1    1    2  502    0  0.39530984278E+02  0.18287917453E+01 -0.74821100048E+03  0.74925679472E+03  0.00000000000E+00 0.  1.
</event>
<event>
 4    1  0.3837333E+003  0.2543674E+02  0.7546771E-02  0.1463976E+00
          2   -1    0    0  502    0  0.00000000000E+00  0.00000000000E+00  0.29685860523E+01  0.29685860523E+01  0.00000000000E+00 0.  1.
          1   -1    0    0  501    0 -0.00000000000E+00 -0.00000000000E+00 -0.47964595647E+03  0.47964595647E+03  0.00000000000E+00 0.  1.
          2    1    1    2  501    0 -0.68355656609E+01 -0.24501080801E+02 -0.60100132099E+02  0.65261426560E+02  0.00000000000E+00 0.  1.
          1    1    1    2  502    0  0.68355656609E+01  0.24501080801E+02 -0.41657723832E+03  0.41735311596E+03  0.00000000000E+00 0.  1.
</event>
<event>
 4    1  0.3837333E+003  0.2304714E+02  0.7546771E-02  0.1491907E+00
          2   -1    0    0  502    0  0.00000000000E+00  0.00000000000E+00  0.19413151164E+01  0.19413151164E+01  0.00000000000E+00 0. -1.
          1   -1    0    0  501    0 -0.00000000000E+00 -0.00000000000E+00 -0.75140452275E+03  0.75140452275E+03  0.00000000000E+00 0. -1.
          2    1    1    2  501    0  0.12360517261E+02 -0.19452206421E+02 -0.74368679130E+02  0.77858019222E+02  0.00000000000E+00 0. -1.
          1    1    1    2  502    0 -0.12360517261E+02  0.19452206421E+02 -0.67509452850E+03  0.67548781864E+03  0.00000000000E+00 0. -1.
</event>
<event>
 4    1  0.3837333E+003  0.2131216E+02  0.7546771E-02  0.1514854E+00
          2   -1    0    0  502    0  0.00000000000E+00  0.00000000000E+00  0.69816347122E+03  0.69816347122E+03  0.00000000000E+00 0.  1.
          1   -1    0    0  501    0 -0.00000000000E+00 -0.00000000000E+00 -0.84876287848E+00  0.84876287848E+00  0.00000000000E+00 0. -1.
          2    1    1    2  501    0 -0.20731699570E+02 -0.49401006444E+01  0.51754571758E+03  0.51798434122E+03  0.00000000000E+00 0.  1.
          1    1    1    2  502    0  0.20731699570E+02  0.49401006444E+01  0.17976899077E+03  0.18102789289E+03  0.00000000000E+00 0. -1.
</event>
<event>
 4    1  0.3837333E+003  0.2032192E+02  0.7546771E-02  0.1529170E+00
          2   -1    0    0  502    0  0.00000000000E+00  0.00000000000E+00  0.34467921731E+02  0.34467921731E+02  0.00000000000E+00 0.  1.
          1   -1    0    0  501    0 -0.00000000000E+00 -0.00000000000E+00 -0.48263655253E+02  0.48263655253E+02  0.00000000000E+00 0. -1.
          2    1    1    2  501    0  0.14540243916E+02  0.14197250650E+02  0.28967657409E+02  0.35385106966E+02  0.00000000000E+00 0.  1.
          1    1    1    2  502    0 -0.14540243916E+02 -0.14197250650E+02 -0.42763390932E+02  0.47346470018E+02  0.00000000000E+00 0. -1.
</event>
<event>
 4    1  0.3837333E+003  0.2510433E+02  0.7546771E-02  0.1467640E+00
          2   -1    0    0  502    0  0.00000000000E+00  0.00000000000E+00  0.30042651256E+03  0.30042651256E+03  0.00000000000E+00 0.  1.
          1   -1    0    0  501    0 -0.00000000000E+00 -0.00000000000E+00 -0.54452075442E+01  0.54452075442E+01  0.00000000000E+00 0.  1.
          2    1    1    2  501    0  0.23710865626E+02  0.82475486107E+01  0.26740137851E+03  0.26857722248E+03  0.00000000000E+00 0.  1.
          1    1    1    2  502    0 -0.23710865626E+02 -0.82475486107E+01  0.27579926502E+02  0.37294497619E+02  0.00000000000E+00 0.  1.
</event>
<event>
 4    1  0.3837333E+003  0.2106109E+02  0.7546771E-02  0.1518394E+00
          2   -1    0    0  502    0  0.00000000000E+00  0.00000000000E+00  0.10622808393E+02  0.10622808393E+02  0.00000000000E+00 0. -1.
          1   -1    0    0  501    0 -0.00000000000E+00 -0.00000000000E+00 -0.71112932848E+02  0.71112932848E+02  0.00000000000E+00 0. -1.
          2    1    1    2  501    0 -0.21059720440E+02  0.23986911131E+00 -0.39871190364E+01  0.21435169242E+02  0.00000000000E+00 0. -1.
          1    1    1    2  502    0  0.21059720440E+02 -0.23986911131E+00 -0.56503005418E+02  0.60300572000E+02  0.00000000000E+00 0. -1.
</event>
<event>
 4    1  0.3837333E+003  0.2334133E+02  0.7546771E-02  0.1488256E+00
          2   -1    0    0  502    0  0.00000000000E+00  0.00000000000E+00  0.12367904077E+03  0.12367904077E+03  0.00000000000E+00 0. -1.
          1   -1    0    0  501    0 -0.00000000000E+00 -0.00000000000E+00 -0.79826069710E+02  0.79826069710E+02  0.00000000000E+00 0. -1.
          2    1    1    2  501    0  0.18890010069E+02 -0.13710777046E+02  0.12083166193E+03  0.12306546393E+03  0.00000000000E+00 0. -1.
          1    1    1    2  502    0 -0.18890010069E+02  0.13710777046E+02 -0.76978690875E+02  0.80439646546E+02  0.00000000000E+00 0. -1.
</event>
<event>
 4    1  0.3837333E+003  0.2252182E+02  0.7546771E-02  0.1498592E+00
          2   -1    0    0  502    0  0.00000000000E+00  0.00000000000E+00  0.69861471602E+01  0.69861471602E+01  0.00000000000E+00 0. -1.
          1   -1    0    0  501    0 -0.00000000000E+00 -0.00000000000E+00 -0.78712600111E+03  0.78712600111E+03  0.00000000000E+00 0. -1.
          2    1    1    2  501    0 -0.85524020602E+01 -0.20834798146E+02 -0.11769287380E+02  0.25411582403E+02  0.00000000000E+00 0. -1.
          1    1    1    2  502    0  0.85524020602E+01  0.20834798146E+02 -0.76837056657E+03  0.76870056587E+03  0.00000000000E+00 0. -1.
</event>
<event>
 4    1  0.3837333E+003  0.4149503E+02  0.7546771E-02  0.1339941E+00
          2   -1    0    0  502    0  0.00000000000E+00  0.00000000000E+00  0.25570132368E+03  0.25570132368E+03  0.00000000000E+00 0.  1.
          1   -1    0    0  501    0 -0.00000000000E+00 -0.00000000000E+00 -0.39937965927E+03  0.39937965927E+03  0.00000000000E+00 0. -1.
          2    1    1    2  501    0 -0.17270637541E+02 -0.37730131701E+02  0.25292831894E+03  0.25630952437E+03  0.00000000000E+00 0.  1.
          1    1    1    2  502    0  0.17270637541E+02  0.37730131701E+02 -0.39660665453E+03  0.39877145858E+03  0.00000000000E+00 0. -1.
</event>
<event>
 4    1  0.3837333E+003  0.2380224E+02  0.7546771E-02  0.1482663E+00
          2   -1    0    0  502    0  0.00000000000E+00  0.00000000000E+00  0.13931023944E+04  0.13931023944E+04  0.00000000000E+00 0. -1.
          1   -1    0    0  501    0 -0.00000000000E+00 -0.00000000000E+00 -0.10864738965E+01  0.10864738965E+01  0.00000000000E+00 0.  1.
          2    1    1    2  501    0  0.20774093187E+02 -0.11618239680E+02  0.12474129585E+04  0.12476400264E+04  0.00000000000E+00 0. -1.
          1    1    1    2  502    0 -0.20774093187E+02  0.11618239680E+02  0.14460296198E+03  0.14654884187E+03  0.00000000000E+00 0.  1.
</event>
<event>
 4    1  0.3837333E+003  0.3734542E+02  0.7546771E-02  0.1364785E+00
          2   -1    0    0  502    0  0.00000000000E+00  0.00000000000E+00  0.15442959933E+04  0.15442959933E+04  0.00000000000E+00 0.  1.
          1   -1    0    0  501    0 -0.00000000000E+00 -0.00000000000E+00 -0.22856724417E+03  0.22856724417E+03  0.00000000000E+00 0.  1.
          2    1    1    2  501    0 -0.28854207670E+02  0.23708968147E+02  0.15425430210E+04  0.15429950266E+04  0.00000000000E+00 0.  1.
          1    1    1    2  502    0  0.28854207670E+02 -0.23708968147E+02 -0.22681427185E+03  0.22986821090E+03  0.00000000000E+00 0.  1.
</event>
<event>
 4    1  0.5272089E+003  0.2074093E+02  0.7546771E-02  0.1522996E+00
          2   -1    0    0  502    0  0.00000000000E+00  0.00000000000E+00  0.11484626331E+04  0.11484626331E+04  0.00000000000E+00 0.  1.
          1   -1    0    0  501    0 -0.00000000000E+00 -0.00000000000E+00 -0.10148728592E+04  0.10148728592E+04  0.00000000000E+00 0.  1.
          2    1    1    2  501    0  0.19880995494E+02  0.59103536044E+01  0.11482630003E+04  0.11484503055E+04  0.00000000000E+00 0.  1.
          1    1    1    2  502    0 -0.19880995494E+02 -0.59103536044E+01 -0.10146732264E+04  0.10148851869E+04  0.00000000000E+00 0.  1.
</event>
<event>
 4    1  0.3837333E+003  0.2715085E+02  0.7546771E-02  0.1446099E+00
          2   -1    0    0  502    0  0.00000000000E+00  0.00000000000E+00  0.90162806045E+02  0.90162806045E+02  0.00000000000E+00 0.  1.
          1   -1    0    0  501    0 -0.00000000000E+00 -0.00000000000E+00 -0.11809651586E+02  0.11809651586E+02  0.00000000000E+00 0. -1.
          2    1    1    2  501    0  0.10290431661E+02  0.25125201050E+02  0.67458411557E+02  0.72717301940E+02  0.00000000000E+00 0.  1.
          1    1    1    2  502    0 -0.10290431661E+02 -0.25125201050E+02  0.10894742902E+02  0.29255155691E+02  0.00000000000E+00 0. -1.
</event>
<event>
 4    1  0.3837333E+003  0.2757900E+02  0.7546771E-02  0.1441877E+00
          2   -1    0    0  502    0  0.00000000000E+00  0.00000000000E+00  0.46731868574E+01  0.46731868574E+01  0.00000000000E+00 0. -1.
          1   -1    0    0  501    0 -0.00000000000E+00 -0.00000000000E+00 -0.44216990129E+03  0.44216990129E+03  0.00000000000E+00 0.  1.
          2    1    1    2  501    0 -0.26464240196E+02  0.77617811976E+01 -0.41144472760E+02  0.49532503421E+02  0.00000000000E+00 0. -1.
          1    1    1    2  502    0  0.26464240196E+02 -0.77617811976E+01 -0.39635224167E+03  0.39731058472E+03  0.00000000000E+00 0.  1.
</event>
<event>
 4    1  0.3837333E+003  0.3027575E+02  0.7546771E-02  0.1417215E+00
          2   -1    0    0  502    0  0.00000000000E+00  0.00000000000E+00  0.16591864942E+04  0.16591864942E+04  0.00000000000E+00 0.  1.
          1   -1    0    0  501    0 -0.00000000000E+00 -0.00000000000E+00 -0.20362799775E+01  0.20362799775E+01  0.00000000000E+00 0. -1.
          2    1    1    2  501    0 -0.11445099438E+02 -0.28029109210E+02  0.15376153426E+04  0.15379133796E+04  0.00000000000E+00 0.  1.
          1    1    1    2  502    0  0.11445099438E+02  0.28029109210E+02  0.11953487160E+03  0.12330939458E+03  0.00000000000E+00 0. -1.
</event>
<event>
 4    1  0.3837333E+003  0.2020129E+02  0.7546771E-02  0.1530981E+00
          2   -1    0    0  502    0  0.00000000000E+00  0.00000000000E+00  0.18165785290E+01  0.18165785290E+01  0.00000000000E+00 0.  1.
          1   -1    0    0  501    0 -0.00000000000E+00 -0.00000000000E+00 -0.22829306603E+03  0.22829306603E+03  0.00000000000E+00 0. -1.
          2    1    1    2  501    0 -0.19724904135E+02 -0.43612092783E+01 -0.98701405166E+02  0.10074750305E+03  0.00000000000E+00 0.  1.
          1    1    1    2  502    0  0.19724904135E+02  0.43612092783E+01 -0.12777508234E+03  0.12936214151E+03  0.00000000000E+00 0. -1.
</event>
<event>
 4    1  0.3837333E+003  0.2274248E+02  0.7546771E-02  0.1495757E+00
          2   -1    0    0  502    0  0.00000000000E+00  0.00000000000E+00  0.93777087204E+03  0.93777087204E+03  0.00000000000E+00 0. -1.
          1   -1    0    0  501    0 -0.00000000000E+00 -0.00000000000E+00 -0.38480284425E+01  0.38480284425E+01  0.00000000000E+00 0. -1.
          2    1    1    2  501    0 -0.19610351706E+02 -0.11517580306E+02  0.90272571875E+03  0.90301215044E+03  0.00000000000E+00 0. -1.
          1    1    1    2  502    0  0.19610351706E+02  0.11517580306E+02  0.31197124851E+02  0.38606750045E+02  0.00000000000E+00 0. -1.
</event>
<event>
 4    1  0.3837333E+003  0.2299366E+02  0.7546771E-02  0.1492578E+00
          2   -1    0    0  502    0  0.00000000000E+00  0.00000000000E+00  0.35633262284E+01  0.35633262284E+01  0.00000000000E+00 0. -1.
          1   -1    0    0  501    0 -0.00000000000E+00 -0.00000000000E+00 -0.41005629379E+03  0.41005629379E+03  0.00000000000E+00 0.  1.
          2    1    1    2  501    0 -0.90804997988E+01 -0.21124701041E+02 -0.38036705873E+02  0.44446591144E+02  0.00000000000E+00 0. -1.
          1    1    1    2  502    0  0.90804997988E+01  0.21124701041E+02 -0.36845626169E+03  0.36917302887E+03  0.00000000000E+00 0.  1.
</event>
<event>
 4    1  0.3837333E+003  0.2443666E+02  0.7546771E-02  0.1475205E+00
          2   -1    0    0  502    0  0.00000000000E+00  0.00000000000E+00  0.14285992937E+04  0.14285992937E+04  0.00000000000E+00 0. -1.
          1   -1    0    0  501    0 -0.00000000000E+00 -0.00000000000E+00 -0.43350987075E+00  0.43350987075E+00  0.00000000000E+00 0. -1.
          2    1    1    2  501    0  0.24389204912E+02 -0.15219672423E+01  0.57891800853E+03  0.57943352535E+03  0.00000000000E+00 0. -1.
          1    1    1    2  502    0 -0.24389204912E+02  0.15219672423E+01  0.84924777525E+03  0.84959927817E+03  0.00000000000E+00 0. -1.
</event>
<event>
 4    1  0.3837333E+003  0.2059982E+02  0.7546771E-02  0.1525056E+00
          2   -1    0    0  502    0  0.00000000000E+00  0.00000000000E+00  0.43893359631E+02  0.43893359631E+02  0.00000000000E+00 0. -1.
          1   -1    0    0  501    0 -0.00000000000E+00 -0.00000000000E+00 -0.13671358944E+02  0.13671358944E+02  0.00000000000E+00 0. -1.
          2    1    1    2  501    0  0.20596557191E+02  0.36602101668E+00 -0.46456298337E+00  0.20605046913E+02  0.00000000000E+00 0. -1.
          1    1    1    2  502    0 -0.20596557191E+02 -0.36602101668E+00  0.30686563671E+02  0.36959671663E+02  0.00000000000E+00 0. -1.
</event>
<event>
 4    1  0.3837333E+003  0.2423837E+02  0.7546771E-02  0.1477507E+00
          2   -1    0    0  502    0  0.00000000000E+00  0.00000000000E+00  0.55572494611E+03  0.55572494611E+03  0.00000000000E+00 0.  1.
          1   -1    0    0  501    0 -0.00000000000E+00 -0.00000000000E+00 -0.19247478212E+01  0.19247478212E+01  0.00000000000E+00 0. -1.
          2    1    1    2  501    0 -0.21096242737E+02 -0.11935131143E+02  0.46409645550E+03  0.46472897351E+03  0.00000000000E+00 0.  1.
          1    1    1    2  502    0  0.21096242737E+02  0.11935131143E+02  0.89703742786E+02  0.92920720418E+02  0.00000000000E+00 0. -1.
</event>
<event>
 4    1  0.3837333E+003  0.2010945E+02  0.7546771E-02  0.1532369E+00
          2   -1    0    0  502    0  0.00000000000E+00  0.00000000000E+00  0.23476030522E+02  0.23476030522E+02  0.00000000000E+00 0. -1.
          1   -1    0    0  501    0 -0.00000000000E+00 -0.00000000000E+00 -0.29565038386E+02  0.29565038386E+02  0.00000000000E+00 0.  1.
          2    1    1    2  501    0 -0.10812447463E+02  0.16955260083E+02  0.14088751148E+02  0.24553671284E+02  0.00000000000E+00 0. -1.
          1    1    1    2  502    0  0.10812447463E+02 -0.16955260083E+02 -0.20177759012E+02  0.28487397624E+02  0.00000000000E+00 0.  1.
</event>
<event>
 4    1  0.3837333E+003  0.2426776E+02  0.7546771E-02  0.1477164E+00
          2   -1    0    0  502    0  0.00000000000E+00  0.00000000000E+00  0.31813054505E+03  0.31813054505E+03  0.00000000000E+00 0.  1.
          1   -1    0    0  501    0 -0.00000000000E+00 -0.00000000000E+00 -0.32507679275E+01  0.32507679275E+01  0.00000000000E+00 0.  1.
          2    1    1    2  501    0 -0.62475041837E+01  0.23449795945E+02  0.26287715988E+03  0.26399493447E+03  0.00000000000E+00 0.  1.
          1    1    1    2  502    0  0.62475041837E+01 -0.23449795945E+02  0.52002617248E+02  0.57386378515E+02  0.00000000000E+00 0.  1.
</event>
<event>
 4    1  0.3837333E+003  0.2732024E+02  0.7546771E-02  0.1444417E+00
          2   -1    0    0  502    0  0.00000000000E+00  0.00000000000E+00  0.85612194482E+02  0.85612194482E+02  0.00000000000E+00 0.  1.
          1   -1    0    0  501    0 -0.00000000000E+00 -0.00000000000E+00 -0.89859099446E+03  0.89859099446E+03  0.00000000000E+00 0.  1.
          2    1    1    2  501    0 -0.18055416643E+02 -0.20503598654E+02  0.83219135342E+02  0.87588926897E+02  0.00000000000E+00 0.  1.
          1    1    1    2  502    0  0.18055416643E+02  0.20503598654E+02 -0.89619793532E+03  0.89661426204E+03  0.00000000000E+00 0.  1.
</event>
<event>
 4    1  0.3837333E+003  0.4103239E+02  0.7546771E-02  0.1342540E+00
          2   -1    0    0  502    0  0.00000000000E+00  0.00000000000E+00  0.72624541964E+03  0.72624541964E+03  0.00000000000E+00 0.  1.
          1   -1    0    0  501    0 -0.00000000000E+00 -0.00000000000E+00 -0.30563346075E+01  0.30563346075E+01  0.00000000000E+00 0.  1.
          2    1    1    2  501    0 -0.36619651959E+02 -0.18511028739E+02  0.54078473221E+03  0.54233917772E+03  0.00000000000E+00 0.  1.
          1    1    1    2  502    0  0.36619651959E+02  0.18511028739E+02  0.18240435282E+03  0.18696257653E+03  0.00000000000E+00 0.  1.
</event>
<event>
 4    1  0.3837333E+003  0.3694694E+02  0.7546771E-02  0.1367369E+00
          2   -1    0    0  502    0  0.00000000000E+00  0.00000000000E+00  0.69479652915E+03  0.69479652915E+03  0.00000000000E+00 0. -1.
          1   -1    0    0  501    0 -0.00000000000E+00 -0.00000000000E+00 -0.26596457270E+04  0.26596457270E+04  0.00000000000E+00 0.  1.
          2    1    1    2  501    0  0.21840752597E+02  0.29800306374E+02  0.69417692233E+03  0.69515946101E+03  0.00000000000E+00 0. -1.
          1    1    1    2  502    0 -0.21840752597E+02 -0.29800306374E+02 -0.26590261201E+04  0.26592827951E+04  0.00000000000E+00 0.  1.
</event>
<event>
 4    1  0.3837333E+003  0.2006424E+02  0.7546771E-02  0.1533056E+00
          2   -1    0    0  502    0  0.00000000000E+00  0.00000000000E+00  0.31483515781E+01  0.31483515781E+01  0.00000000000E+00 0. -1.
          1   -1    0    0  501    0 -0.00000000000E+00 -0.00000000000E+00 -0.10305535968E+04  0.10305535968E+04  0.00000000000E+00 0. -1.
          2    1    1    2  501    0  0.18789990353E+02  0.70363272728E+01 -0.29977896705E+02  0.36072814276E+02  0.00000000000E+00 0. -1.
          1    1    1    2  502    0 -0.18789990353E+02 -0.70363272728E+01 -0.99742734850E+03  0.99762913408E+03  0.00000000000E+00 0. -1.
</event>
<event>
 4    1  0.3837333E+003  0.2482413E+02  0.7546771E-02  0.1470780E+00
          2   -1    0    0  502    0  0.00000000000E+00  0.00000000000E+00  0.78926300066E+02  0.78926300066E+02  0.00000000000E+00 0.  1.
          1   -1    0    0  501    0 -0.00000000000E+00 -0.00000000000E+00 -0.90701175710E+03  0.90701175710E+03  0.00000000000E+00 0.  1.
          2    1    1    2  501    0  0.13532396414E+02 -0.20811339921E+02  0.76799920232E+02  0.80712238041E+02  0.00000000000E+00 0.  1.
          1    1    1    2  502    0 -0.13532396414E+02  0.20811339921E+02 -0.90488537726E+03  0.90522581912E+03  0.00000000000E+00 0.  1.
</event>
<event>
 4    1  0.3837333E+003  0.2371692E+02  0.7546771E-02  0.1483687E+00
          2   -1    0    0  502    0  0.00000000000E+00  0.00000000000E+00  0.61039130319E+03  0.61039130319E+03  0.00000000000E+00 0.  1.
          1   -1    0    0  501    0 -0.00000000000E+00 -0.00000000000E+00 -0.20144724123E+02  0.20144724123E+02  0.00000000000E+00 0.  1.
          2    1    1    2  501    0 -0.16180442962E+02 -0.17340289152E+02  0.60309587048E+03  0.60356202776E+03  0.00000000000E+00 0.  1.
          1    1    1    2  502    0  0.16180442962E+02  0.17340289152E+02 -0.12849291410E+02  0.26973999556E+02  0.00000000000E+00 0.  1.
</event>
<event>
 4    1  0.3837333E+003  0.2152052E+02  0.7546771E-02  0.1511961E+00
          2   -1    0    0  502    0  0.00000000000E+00  0.00000000000E+00  0.17762334491E+03  0.17762334491E+03  0.00000000000E+00 0.  1.
          1   -1    0    0  501    0 -0.00000000000E+00 -0.00000000000E+00 -0.33652355156E+02  0.33652355156E+02  0.00000000000E+00 0. -1.
          2    1    1    2  501    0 -0.14084590806E+02  0.16271363339E+02  0.17344843080E+03  0.17477840574E+03  0.00000000000E+00 0.  1.
          1    1    1    2  502    0  0.14084590806E+02 -0.16271363339E+02 -0.29477441047E+02  0.36497294335E+02  0.00000000000E+00 0. -1.
</event>
<event>
 4    1  0.3837333E+003  0.2367273E+02  0.7546771E-02  0.1484219E+00
          2   -1    0    0  502    0  0.00000000000E+00  0.00000000000E+00  0.95673871935E+01  0.95673871935E+01  0.00000000000E+00 0.  1.
          1   -1    0    0  501    0 -0.00000000000E+00 -0.00000000000E+00 -0.64141740121E+02  0.64141740121E+02  0.00000000000E+00 0.  1.
          2    1    1    2  501    0 -0.11274605923E+02  0.20815407866E+02 -0.16428689186E+02  0.28814922726E+02  0.00000000000E+00 0.  1.
          1    1    1    2  502    0  0.11274605923E+02 -0.20815407866E+02 -0.38145663742E+02  0.44894204589E+02  0.00000000000E+00 0.  1.
</event>
<event>
 4    1  0.3837333E+003  0.3455567E+02  0.7546771E-02  0.1383714E+00
          2   -1    0    0  502    0  0.00000000000E+00  0.00000000000E+00  0.47395538108E+03  0.47395538108E+03  0.00000000000E+00 0. -1.
          1   -1    0    0  501    0 -0.00000000000E+00 -0.00000000000E+00 -0.36472793120E+01  0.36472793120E+01  0.00000000000E+00 0. -1.
          2    1    1    2  501    0  0.31903790224E+02 -0.13275646424E+02  0.36794818811E+03  0.36956726553E+03  0.00000000000E+00 0. -1.
          1    1    1    2  502    0 -0.31903790224E+02  0.13275646424E+02  0.10235991365E+03  0.10803539486E+03  0.00000000000E+00 0. -1.
</event>
<event>
 4    1  0.3837333E+003  0.4021526E+02  0.7546771E-02  0.1347229E+00
          2   -1    0    0  502    0  0.00000000000E+00  0.00000000000E+00  0.78803986656E+03  0.78803986656E+03  0.00000000000E+00 0. -1.
          1   -1    0    0  501    0 -0.00000000000E+00 -0.00000000000E+00 -0.42403467393E+03  0.42403467393E+03  0.00000000000E+00 0. -1.
          2    1    1    2  501    0 -0.38043468702E+02  0.13036927808E+02  0.78657152214E+03  0.78759889946E+03  0.00000000000E+00 0. -1.
          1    1    1    2  502    0  0.38043468702E+02 -0.13036927808E+02 -0.42256632950E+03  0.42447564103E+03  0.00000000000E+00 0. -1.
</event>
<event>
 4    1  0.3837333E+003  0.3661390E+02  0.7546771E-02  0.1369559E+00
          2   -1    0    0  502    0  0.00000000000E+00  0.00000000000E+00  0.14814485199E+03  0.14814485199E+03  0.00000000000E+00 0. -1.
          1   -1    0    0  501    0 -0.00000000000E+00 -0.00000000000E+00 -0.33883811481E+02  0.33883811481E+02  0.00000000000E+00 0. -1.
          2    1    1    2  501    0  0.23615640996E+02  0.27979972401E+02  0.13504949491E+03  0.13992477776E+03  0.00000000000E+00 0. -1.
          1    1    1    2  502    0 -0.23615640996E+02 -0.27979972401E+02 -0.20788454405E+02  0.42103885709E+02  0.00000000000E+00 0. -1.
</event>
<event>
 4    1  0.3837333E+003  0.4507061E+02  0.7546771E-02  0.1321087E+00
          2   -1    0    0  502    0  0.00000000000E+00  0.00000000000E+00  0.78473281168E+03  0.78473281168E+03  0.00000000000E+00 0.  1.
          1   -1    0    0  501    0 -0.00000000000E+00 -0.00000000000E+00 -0.39239047875E+01  0.39239047875E+01  0.00000000000E+00 0.  1.
          2    1    1    2  501    0  0.26346392369E+02  0.36568126397E+02  0.62043673988E+03  0.62207162646E+03  0.00000000000E+00 0.  1.
          1    1    1    2  502    0 -0.26346392369E+02 -0.36568126397E+02  0.16037216701E+03  0.16658509000E+03  0.00000000000E+00 0.  1.
</event>
<event>
 4    1  0.3837333E+003  0.2280008E+02  0.7546771E-02  0.1495024E+00
          2   -1    0    0  502    0  0.00000000000E+00  0.00000000000E+00  0.10082916472E+03  0.10082916472E+03  0.00000000000E+00 0.  1.
          1   -1    0    0  501    0 -0.00000000000E+00 -0.00000000000E+00 -0.75211899512E+02  0.75211899512E+02  0.00000000000E+00 0. -1.
          2    1    1    2  501    0  0.49735763875E+01 -0.22251005577E+02  0.97758760133E+02  0.10038236346E+03  0.00000000000E+00 0.  1.
          1    1    1    2  502    0 -0.49735763875E+01  0.22251005577E+02 -0.72141494929E+02  0.75658700768E+02  0.00000000000E+00 0. -1.
</event>
<event>
 4    1  0.3837333E+003  0.2515252E+02  0.7546771E-02  0.1467104E+00
          2   -1    0    0  502    0  0.00000000000E+00  0.00000000000E+00  0.87820351340E+03  0.87820351340E+03  0.00000000000E+00 0. -1.
          1   -1    0    0  501    0 -0.00000000000E+00 -0.00000000000E+00 -0.17579806296E+03  0.17579806296E+03  0.00000000000E+00 0.  1.
          2    1    1    2  501    0  0.20367729849E+02 -0.14758213421E+02  0.87712262555E+03  0.87748319046E+03  0.00000000000E+00 0. -1.
          1    1    1    2  502    0 -0.20367729849E+02  0.14758213421E+02 -0.17471717511E+03  0.17651838590E+03  0.00000000000E+00 0.  1.
</event>
<event>
 4    1  0.3837333E+003  0.2165716E+02  0.7546771E-02  0.1510086E+00
          2   -1    0    0  502    0  0.00000000000E+00  0.00000000000E+00  0.50835098317E+03  0.50835098317E+03  0.00000000000E+00 0. -1.
          1   -1    0    0  501    0 -0.00000000000E+00 -0.00000000000E+00 -0.36427459331E+01  0.36427459331E+01  0.00000000000E+00 0. -1.
          2    1    1    2  501    0 -0.20946949089E+02 -0.55007348598E+01  0.47356775132E+03  0.47406270455E+03  0.00000000000E+00 0. -1.
          1    1    1    2  502    0  0.20946949089E+02  0.55007348598E+01  0.31140485919E+02  0.37931024550E+02  0.00000000000E+00 0. -1.
</event>
<event>
 4    1  0.3837333E+003  0.4028732E+02  0.7546771E-02  0.1346810E+00
          2   -1    0    0  502    0  0.00000000000E+00  0.00000000000E+00  0.47830108357E+03  0.47830108357E+03  0.00000000000E+00 0. -1.
          1   -1    0    0  501    0 -0.00000000000E+00 -0.00000000000E+00 -0.70439648715E+02  0.70439648715E+02  0.00000000000E+00 0. -1.
          2    1    1    2  501    0  0.38287364298E+02  0.12535779027E+02  0.47161066982E+03  0.47332831302E+03  0.00000000000E+00 0. -1.
          1    1    1    2  502    0 -0.38287364298E+02 -0.12535779027E+02 -0.63749234964E+02  0.75412419263E+02  0.00000000000E+00 0. -1.
</event>
<event>
 4    1  0.3837333E+003  0.2255188E+02  0.7546771E-02  0.1498203E+00
          2   -1    0    0  502    0  0.00000000000E+00  0.00000000000E+00  0.49053964415E+03  0.49053964415E+03  0.00000000000E+00 0. -1.
          1   -1    0    0  501    0 -0.00000000000E+00 -0.00000000000E+00 -0.16077632973E+01  0.16077632973E+01  0.00000000000E+00 0.  1.
          2    1    1    2  501    0  0.32494578808E+01  0.22316547188E+02  0.39110900916E+03  0.39175865569E+03  0.00000000000E+00 0. -1.
          1    1    1    2  502    0 -0.32494578808E+01 -0.22316547188E+02  0.97822871687E+02  0.10038875176E+03  0.00000000000E+00 0.  1.
</event>
<event>
 4    1  0.3837333E+003  0.2618273E+02  0.7546771E-02  0.1455995E+00
          2   -1    0    0  502    0  0.00000000000E+00  0.00000000000E+00  0.26691943302E+03  0.26691943302E+03  0.00000000000E+00 0.  1.
          1   -1    0    0  501    0 -0.00000000000E+00 -0.00000000000E+00 -0.17689510100E+02  0.17689510100E+02  0.00000000000E+00 0.  1.
          2    1    1    2  501    0 -0.23765203798E+02 -0.10988661367E+02  0.25618396125E+03  0.25751846068E+03  0.00000000000E+00 0.  1.
          1    1    1    2  502    0  0.23765203798E+02  0.10988661367E+02 -0.69540383227E+01  0.27090482446E+02  0.00000000000E+00 0.  1.
</event>
<event>
 4    1  0.3837333E+003  0.2780592E+02  0.7546771E-02  0.1439676E+00
          2   -1    0    0  502    0  0.00000000000E+00  0.00000000000E+00  0.22819990951E+03  0.22819990951E+03  0.00000000000E+00 0. -1.
          1   -1    0    0  501    0 -0.00000000000E+00 -0.00000000000E+00 -0.39933879050E+01  0.39933879050E+01  0.00000000000E+00 0. -1.
          2    1    1    2  501    0  0.13955591759E+02  0.24050152487E+02  0.66904843146E+02  0.72452925492E+02  0.00000000000E+00 0. -1.
          1    1    1    2  502    0 -0.13955591759E+02 -0.24050152487E+02  0.15730167846E+03  0.15974037192E+03  0.00000000000E+00 0. -1.
</event>
<event>
 4    1  0.3837333E+003  0.2257878E+02  0.7546771E-02  0.1497856E+00
          2   -1    0    0  502    0  0.00000000000E+00  0.00000000000E+00  0.13687061820E+04  0.13687061820E+04  0.00000000000E+00 0. -1.
          1   -1    0    0  501    0 -0.00000000000E+00 -0.00000000000E+00 -0.69494551415E+00  0.69494551415E+00  0.00000000000E+00 0.  1.
          2    1    1    2  501    0  0.58113040651E+01 -0.21818116630E+02  0.11504221518E+04  0.11506437020E+04  0.00000000000E+00 0. -1.
          1    1    1    2  502    0 -0.58113040651E+01  0.21818116630E+02  0.21758908469E+03  0.21875742557E+03  0.00000000000E+00 0.  1.
</event>
<event>
 4    1  0.3837333E+003  0.3887372E+02  0.7546771E-02  0.1355215E+00
          2   -1    0    0  502    0  0.00000000000E+00  0.00000000000E+00  0.20451963579E+04  0.20451963579E+04  0.00000000000E+00 0. -1.
          1   -1    0    0  501    0 -0.00000000000E+00 -0.00000000000E+00 -0.77965548333E+00  0.77965548333E+00  0.00000000000E+00 0. -1.
          2    1    1    2  501    0 -0.30026979281E+02  0.24689000096E+02  0.12561398584E+04  0.12567412264E+04  0.00000000000E+00 0. -1.
          1    1    1    2  502    0  0.30026979281E+02 -0.24689000096E+02  0.78827684400E+03  0.78923478699E+03  0.00000000000E+00 0. -1.
</event>
<event>
 4    1  0.3837333E+003  0.5096510E+02  0.7546771E-02  0.1294041E+00
          2   -1    0    0  502    0  0.00000000000E+00  0.00000000000E+00  0.38724032138E+02  0.38724032138E+02  0.00000000000E+00 0.  1.
          1   -1    0    0  501    0 -0.00000000000E+00 -0.00000000000E+00 -0.92080707742E+02  0.92080707742E+02  0.00000000000E+00 0.  1.
          2    1    1    2  501    0  0.31937249443E+02  0.39717173606E+02  0.74034689097E+01  0.51500030419E+02  0.00000000000E+00 0.  1.
          1    1    1    2  502    0 -0.31937249443E+02 -0.39717173606E+02 -0.60760144514E+02  0.79304709461E+02  0.00000000000E+00 0.  1.
</event>
<event>
 4    1  0.3837333E+003  0.2135097E+02  0.7546771E-02  0.1514313E+00
          2   -1    0    0  502    0  0.00000000000E+00  0.00000000000E+00  0.14239002353E+03  0.14239002353E+03  0.00000000000E+00 0.  1.
          1   -1    0    0  501    0 -0.00000000000E+00 -0.00000000000E+00 -0.32028113309E+01  0.32028113309E+01  0.00000000000E+00 0.  1.
          2    1    1    2  501    0  0.81110124247E+01 -0.19750311926E+02  0.68127268766E+02  0.71394594285E+02  0.00000000000E+00 0.  1.
          1    1    1    2  502    0 -0.81110124247E+01  0.19750311926E+02  0.71059943435E+02  0.74198240577E+02  0.00000000000E+00 0.  1.
</event>
<event>
 4    1  0.3837333E+003  0.3162956E+02  0.7546771E-02  0.1405945E+00
          2   -1    0    0  502    0  0.00000000000E+00  0.00000000000E+00  0.51444334271E+03  0.51444334271E+03  0.00000000000E+00 0. -1.
          1   -1    0    0  501    0 -0.00000000000E+00 -0.00000000000E+00 -0.32909831577E+02  0.32909831577E+02  0.00000000000E+00 0.  1.
          2    1    1    2  501    0  0.31627450781E+02 -0.36485265630E+00  0.50623428368E+03  0.50722142968E+03  0.00000000000E+00 0. -1.
          1    1    1    2  502    0 -0.31627450781E+02  0.36485265630E+00 -0.24700772547E+02  0.40131744601E+02  0.00000000000E+00 0.  1.
</event>
<event>
 4    1  0.3837333E+003  0.2128510E+02  0.7546771E-02  0.1515233E+00
          2   -1    0    0  502    0  0.00000000000E+00  0.00000000000E+00  0.72898193137E+03  0.72898193137E+03  0.00000000000E+00 0. -1.
          1   -1    0    0  501    0 -0.00000000000E+00 -0.00000000000E+00 -0.15415266249E+01  0.15415266249E+01  0.00000000000E+00 0. -1.
          2    1    1    2  501    0  0.94167061719E+01  0.19088765592E+02  0.64590336810E+03  0.64625398741E+03  0.00000000000E+00 0. -1.
          1    1    1    2  502    0 -0.94167061719E+01 -0.19088765592E+02  0.81537036647E+02  0.84269470582E+02  0.00000000000E+00 0. -1.
</event>
<event>
 4    1  0.3837333E+003  0.4332566E+02  0.7546771E-02  0.1330027E+00
          2   -1    0    0  502    0  0.00000000000E+00  0.00000000000E+00  0.23979534175E+01  0.23979534175E+01  0.00000000000E+00 0. -1.
          1   -1    0    0  501    0 -0.00000000000E+00 -0.00000000000E+00 -0.18048219910E+04  0.18048219910E+04  0.00000000000E+00 0.  1.
          2    1    1    2  501    0 -0.10912600274E+02 -0.41928844632E+02 -0.22123474429E+03  0.22543718623E+03  0.00000000000E+00 0. -1.
          1    1    1    2  502    0  0.10912600274E+02  0.41928844632E+02 -0.15811892933E+04  0.15817827582E+04  0.00000000000E+00 0.  1.
</event>
<event>
 4    1  0.3837333E+003  0.2300861E+02  0.7546771E-02  0.1492390E+00
          2   -1    0    0  502    0  0.00000000000E+00  0.00000000000E+00  0.74775547575E+02  0.74775547575E+02  0.00000000000E+00 0. -1.
          1   -1    0    0  501    0 -0.00000000000E+00 -0.00000000000E+00 -0.15288447375E+02  0.15288447375E+02  0.00000000000E+00 0.  1.
          2    1    1    2  501    0 -0.22334759341E+02 -0.55276175825E+01  0.62740612738E+02  0.66826495626E+02  0.00000000000E+00 0. -1.
          1    1    1    2  502    0  0.22334759341E+02  0.55276175825E+01 -0.32535125375E+01  0.23237499323E+02  0.00000000000E+00 0.  1.
</event>
<event>
 4    1  0.3837333E+003  0.3959227E+02  0.7546771E-02  0.1350892E+00
          2   -1    0    0  502    0  0.00000000000E+00  0.00000000000E+00  0.50700083363E+02  0.50700083363E+02  0.00000000000E+00 0. -1.
          1   -1    0    0  501    0 -0.00000000000E+00 -0.00000000000E+00 -0.19129694061E+03  0.19129694061E+03  0.00000000000E+00 0. -1.
          2    1    1    2  501    0 -0.28198236448E+02 -0.27792221387E+02  0.40491328216E+02  0.56631226095E+02  0.00000000000E+00 0. -1.
          1    1    1    2  502    0  0.28198236448E+02  0.27792221387E+02 -0.18108818546E+03  0.18536579787E+03  0.00000000000E+00 0. -1.
</event>
<event>
 4    1  0.3837333E+003  0.2143087E+02  0.7546771E-02  0.1513201E+00
          2   -1    0    0  502    0  0.00000000000E+00  0.00000000000E+00  0.12415210828E+03  0.12415210828E+03  0.00000000000E+00 0. -1.
          1   -1    0    0  501    0 -0.00000000000E+00 -0.00000000000E+00 -0.34671158161E+03  0.34671158161E+03  0.00000000000E+00 0.  1.
          2    1    1    2  501    0 -0.38728380380E+01  0.21078027861E+02  0.12289273221E+03  0.12474736776E+03  0.00000000000E+00 0. -1.
          1    1    1    2  502    0  0.38728380380E+01 -0.21078027861E+02 -0.34545220554E+03  0.34611632213E+03  0.00000000000E+00 0.  1.
</event>
<event>
 4    1  0.3837333E+003  0.3385945E+02  0.7546771E-02  0.1388764E+00
          2   -1    0    0  502    0  0.00000000000E+00  0.00000000000E+00  0.66588052099E+02  0.66588052099E+02  0.00000000000E+00 0. -1.
          1   -1    0    0  501    0 -0.00000000000E+00 -0.00000000000E+00 -0.28897141759E+02  0.28897141759E+02  0.00000000000E+00 0.  1.
          2    1    1    2  501    0 -0.28927995272E+02  0.17596411056E+02  0.49198212949E+02  0.59723753649E+02  0.00000000000E+00 0. -1.
          1    1    1    2  502    0  0.28927995272E+02 -0.17596411056E+02 -0.11507302609E+02  0.35761440209E+02  0.00000000000E+00 0.  1.
</event>
<event>
 4    1  0.3837333E+003  0.3758308E+02  0.7546771E-02  0.1363262E+00
          2   -1    0    0  502    0  0.00000000000E+00  0.00000000000E+00  0.72963480551E+02  0.72963480551E+02  0.00000000000E+00 0. -1.
          1   -1    0    0  501    0 -0.00000000000E+00 -0.00000000000E+00 -0.13556474668E+03  0.13556474668E+03  0.00000000000E+00 0.  1.
          2    1    1    2  501    0  0.29863550707E+02  0.22817899645E+02  0.65232316763E+02  0.75284416417E+02  0.00000000000E+00 0. -1.
          1    1    1    2  502    0 -0.29863550707E+02 -0.22817899645E+02 -0.12783358289E+03  0.13324381081E+03  0.00000000000E+00 0.  1.
</event>
<event>
 4    1  0.3837333E+003  0.3484267E+02  0.7546771E-02  0.1381673E+00
          2   -1    0    0  502    0  0.00000000000E+00  0.00000000000E+00  0.42778072926E+03  0.42778072926E+03  0.00000000000E+00 0.  1.
          1   -1    0    0  501    0 -0.00000000000E+00 -0.00000000000E+00 -0.70585434853E+01  0.70585434853E+01  0.00000000000E+00 0. -1.
          2    1    1    2  501    0  0.32131535222E+02 -0.13475012757E+02  0.37848483105E+03  0.38008522578E+03  0.00000000000E+00 0.  1.
          1    1    1    2  502    0 -0.32131535222E+02  0.13475012757E+02  0.42237354726E+02  0.54754046962E+02  0.00000000000E+00 0. -1.
</event>
<event>
 4    1  0.3837333E+003  0.2597813E+02  0.7546771E-02  0.1458152E+00
          2   -1    0    0  502    0  0.00000000000E+00  0.00000000000E+00  0.43137876158E+03  0.43137876158E+03  0.00000000000E+00 0.  1.
          1   -1    0    0  501    0 -0.00000000000E+00 -0.00000000000E+00 -0.48869802445E+01  0.48869802445E+01  0.00000000000E+00 0.  1.
          2    1    1    2  501    0 -0.48355651646E+00  0.25973627781E+02  0.39310664338E+03  0.39396407988E+03  0.00000000000E+00 0.  1.
          1    1    1    2  502    0  0.48355651646E+00 -0.25973627781E+02  0.33385137963E+02  0.42301661951E+02  0.00000000000E+00 0.  1.
</event>
<event>
 4    1  0.3837333E+003  0.3205293E+02  0.7546771E-02  0.1402557E+00
          2   -1    0    0  502    0  0.00000000000E+00  0.00000000000E+00  0.10577306591E+03  0.10577306591E+03  0.00000000000E+00 0. -1.
          1   -1    0    0  501    0 -0.00000000000E+00 -0.00000000000E+00 -0.26783206577E+02  0.26783206577E+02  0.00000000000E+00 0.  1.
          2    1    1    2  501    0  0.22286170137E+02  0.23037295988E+02  0.92407199749E+02  0.97808388962E+02  0.00000000000E+00 0. -1.
          1    1    1    2  502    0 -0.22286170137E+02 -0.23037295988E+02 -0.13417340415E+02  0.34747883527E+02  0.00000000000E+00 0.  1.
</event>
<event>
 4    1  0.3837333E+003  0.3254095E+02  0.7546771E-02  0.1398727E+00
          2   -1    0    0  502    0  0.00000000000E+00  0.00000000000E+00  0.18350249014E+02  0.18350249014E+02  0.00000000000E+00 0.  1.
          1   -1    0    0  501    0 -0.00000000000E+00 -0.00000000000E+00 -0.57791720793E+02  0.57791720793E+02  0.00000000000E+00 0.  1.
          2    1    1    2  501    0  0.30625136317E+02  0.11000656385E+02 -0.18251679175E+02  0.37310014849E+02  0.00000000000E+00 0.  1.
          1    1    1    2  502    0 -0.30625136317E+02 -0.11000656385E+02 -0.21189792603E+02  0.38831954958E+02  0.00000000000E+00 0.  1.
</event>
<event>
 4    1  0.3837333E+003  0.6314631E+02  0.7546771E-02  0.1249502E+00
          2   -1    0    0  502    0  0.00000000000E+00  0.00000000000E+00  0.10596264504E+02  0.10596264504E+02  0.00000000000E+00 0. -1.
          1   -1    0    0  501    0 -0.00000000000E+00 -0.00000000000E+00 -0.13313746064E+04  0.13313746064E+04  0.00000000000E+00 0.  1.
          2    1    1    2  501    0 -0.33446615967E+02 -0.53561002008E+02 -0.92086322465E+02  0.11165727849E+03  0.00000000000E+00 0. -1.
          1    1    1    2  502    0  0.33446615967E+02  0.53561002008E+02 -0.12286920194E+04  0.12303135924E+04  0.00000000000E+00 0.  1.
</event>
<event>
 4    1  0.3837333E+003  0.2550195E+02  0.7546771E-02  0.1463266E+00
          2   -1    0    0  502    0  0.00000000000E+00  0.00000000000E+00  0.42708606436E+02  0.42708606436E+02  0.00000000000E+00 0.  1.
          1   -1    0    0  501    0 -0.00000000000E+00 -0.00000000000E+00 -0.14522772354E+03  0.14522772354E+03  0.00000000000E+00 0. -1.
          2    1    1    2  501    0 -0.10023659481E+02  0.23449430739E+02  0.37645785012E+02  0.45470371458E+02  0.00000000000E+00 0.  1.
          1    1    1    2  502    0  0.10023659481E+02 -0.23449430739E+02 -0.14016490211E+03  0.14246595852E+03  0.00000000000E+00 0. -1.
</event>
<event>
 4    1  0.3837333E+003  0.5839525E+02  0.7546771E-02  0.1265385E+00
          2   -1    0    0  502    0  0.00000000000E+00  0.00000000000E+00  0.27317302527E+02  0.27317302527E+02  0.00000000000E+00 0. -1.
          1   -1    0    0  501    0 -0.00000000000E+00 -0.00000000000E+00 -0.15342959833E+03  0.15342959833E+03  0.00000000000E+00 0. -1.
          2    1    1    2  501    0 -0.56851645110E+02 -0.13337746310E+02 -0.24037689647E+02  0.63149153216E+02  0.00000000000E+00 0. -1.
          1    1    1    2  502    0  0.56851645110E+02  0.13337746310E+02 -0.10207460616E+03  0.11759774764E+03  0.00000000000E+00 0. -1.
</event>
<event>
 4    1  0.3837333E+003  0.4038589E+02  0.7546771E-02  0.1346239E+00
          2   -1    0    0  502    0  0.00000000000E+00  0.00000000000E+00  0.58869694582E+03  0.58869694582E+03  0.00000000000E+00 0.  1.
          1   -1    0    0  501    0 -0.00000000000E+00 -0.00000000000E+00 -0.10765628816E+02  0.10765628816E+02  0.00000000000E+00 0.  1.
          2    1    1    2  501    0 -0.38756689830E+02  0.11355126469E+02  0.54726511673E+03  0.54875324864E+03  0.00000000000E+00 0.  1.
          1    1    1    2  502    0  0.38756689830E+02 -0.11355126469E+02  0.30666200272E+02  0.50709325994E+02  0.00000000000E+00 0.  1.
</event>
<event>
 4    1  0.3837333E+003  0.2145877E+02  0.7546771E-02  0.1512815E+00
          2   -1    0    0  502    0  0.00000000000E+00  0.00000000000E+00  0.24698054227E+03  0.24698054227E+03  0.00000000000E+00 0.  1.
          1   -1    0    0  501    0 -0.00000000000E+00 -0.00000000000E+00 -0.38887816268E+01  0.38887816268E+01  0.00000000000E+00 0. -1.
          2    1    1    2  501    0  0.73014771277E+01  0.20178386129E+02  0.21204687847E+03  0.21312990758E+03  0.00000000000E+00 0.  1.
          1    1    1    2  502    0 -0.73014771277E+01 -0.20178386129E+02  0.31044882176E+02  0.37739416322E+02  0.00000000000E+00 0. -1.
</event>
<event>
 4    1  0.3837333E+003  0.2003384E+02  0.7546771E-02  0.1533519E+00
          2   -1    0    0  502    0  0.00000000000E+00  0.00000000000E+00  0.65957842348E+02  0.65957842348E+02  0.00000000000E+00 0.  1.
          1   -1    0    0  501    0 -0.00000000000E+00 -0.00000000000E+00 -0.26208183314E+02  0.26208183314E+02  0.00000000000E+00 0. -1.
          2    1    1    2  501    0  0.10559910931E+02  0.17024776518E+02  0.60255222473E+02  0.63498398165E+02  0.00000000000E+00 0.  1.
          1    1    1    2  502    0 -0.10559910931E+02 -0.17024776518E+02 -0.20505563439E+02  0.28667627497E+02  0.00000000000E+00 0. -1.
</event>
<event>
 4    1  0.3837333E+003  0.2076008E+02  0.7546771E-02  0.1522718E+00
          2   -1    0    0  502    0  0.00000000000E+00  0.00000000000E+00  0.28772550001E+03  0.28772550001E+03  0.00000000000E+00 0. -1.
          1   -1    0    0  501    0 -0.00000000000E+00 -0.00000000000E+00 -0.18642045269E+01  0.18642045269E+01  0.00000000000E+00 0.  1.
          2    1    1    2  501    0  0.17487210281E+01 -0.20686296374E+02  0.20711570937E+03  0.20815354417E+03  0.00000000000E+00 0. -1.
          1    1    1    2  502    0 -0.17487210281E+01  0.20686296374E+02  0.78745586116E+02  0.81436160369E+02  0.00000000000E+00 0.  1.
</event>
<event>
 4    1  0.3837333E+003  0.2856656E+02  0.7546771E-02  0.1432476E+00
          2   -1    0    0  502    0  0.00000000000E+00  0.00000000000E+00  0.53271716185E+02  0.53271716185E+02  0.00000000000E+00 0. -1.
          1   -1    0    0  501    0 -0.00000000000E+00 -0.00000000000E+00 -0.15345386712E+02  0.15345386712E+02  0.00000000000E+00 0. -1.
          2    1    1    2  501    0 -0.15354511684E+02  0.24089151214E+02  0.20396521632E+02  0.35100802412E+02  0.00000000000E+00 0. -1.
          1    1    1    2  502    0  0.15354511684E+02 -0.24089151214E+02  0.17529807841E+02  0.33516300485E+02  0.00000000000E+00 0. -1.
</event>
<event>
 4    1  0.3837333E+003  0.2105217E+02  0.7546771E-02  0.1518521E+00
          2   -1    0    0  502    0  0.00000000000E+00  0.00000000000E+00  0.11844739867E+04  0.11844739867E+04  0.00000000000E+00 0.  1.
          1   -1    0    0  501    0 -0.00000000000E+00 -0.00000000000E+00 -0.85067570531E+01  0.85067570531E+01  0.00000000000E+00 0. -1.
          2    1    1    2  501    0 -0.48176958331E+01 -0.20493502192E+02  0.11712081715E+04  0.11713973599E+04  0.00000000000E+00 0.  1.
          1    1    1    2  502    0  0.48176958331E+01  0.20493502192E+02  0.47590581987E+01  0.21583383891E+02  0.00000000000E+00 0. -1.
</event>
<event>
 4    1  0.3837333E+003  0.2009609E+02  0.7546771E-02  0.1532572E+00
          2   -1    0    0  502    0  0.00000000000E+00  0.00000000000E+00  0.16222723246E+01  0.16222723246E+01  0.00000000000E+00 0. -1.
          1   -1    0    0  501    0 -0.00000000000E+00 -0.00000000000E+00 -0.12208428148E+04  0.12208428148E+04  0.00000000000E+00 0.  1.
          2    1    1    2  501    0 -0.16472416279E+02 -0.11511407204E+02 -0.64245110610E+02  0.67314836635E+02  0.00000000000E+00 0. -1.
          1    1    1    2  502    0  0.16472416279E+02  0.11511407204E+02 -0.11549754319E+04  0.11551502505E+04  0.00000000000E+00 0.  1.
</event>
<event>
 4    1  0.3837333E+003  0.7033409E+02  0.7546771E-02  0.1228261E+00
          2   -1    0    0  502    0  0.00000000000E+00  0.00000000000E+00  0.11793747856E+03  0.11793747856E+03  0.00000000000E+00 0. -1.
          1   -1    0    0  501    0 -0.00000000000E+00 -0.00000000000E+00 -0.53393774078E+03  0.53393774078E+03  0.00000000000E+00 0.  1.
          2    1    1    2  501    0  0.53970850546E+02 -0.45100237198E+02  0.10487318610E+03  0.12627457886E+03  0.00000000000E+00 0. -1.
          1    1    1    2  502    0 -0.53970850546E+02  0.45100237198E+02 -0.52087344832E+03  0.52560064047E+03  0.00000000000E+00 0.  1.
</event>
<event>
 4    1  0.3837333E+003  0.4651489E+02  0.7546771E-02  0.1314034E+00
          2   -1    0    0  502    0  0.00000000000E+00  0.00000000000E+00  0.18232997193E+03  0.18232997193E+03  0.00000000000E+00 0.  1.
          1   -1    0    0  501    0 -0.00000000000E+00 -0.00000000000E+00 -0.19083796026E+02  0.19083796026E+02  0.00000000000E+00 0. -1.
          2    1    1    2  501    0 -0.34047624992E+02  0.31692186044E+02  0.14355453972E+03  0.15090242310E+03  0.00000000000E+00 0.  1.
          1    1    1    2  502    0  0.34047624992E+02 -0.31692186044E+02  0.19691636192E+02  0.50511344862E+02  0.00000000000E+00 0. -1.
</event>
<event>
 4    1  0.3837333E+003  0.2192527E+02  0.7546771E-02  0.1506453E+00
          2   -1    0    0  502    0  0.00000000000E+00  0.00000000000E+00  0.13080178691E+04  0.13080178691E+04  0.00000000000E+00 0.  1.
          1   -1    0    0  501    0 -0.00000000000E+00 -0.00000000000E+00 -0.54066099684E+00  0.54066099684E+00  0.00000000000E+00 0.  1.
          2    1    1    2  501    0 -0.84302390885E+01  0.20239759116E+02  0.28347903124E+03  0.28432565473E+03  0.00000000000E+00 0.  1.
          1    1    1    2  502    0  0.84302390885E+01 -0.20239759116E+02  0.10239981768E+04  0.10242328753E+04  0.00000000000E+00 0.  1.
</event>
<event>
 4    1  0.3837333E+003  0.2056366E+02  0.7546771E-02  0.1525587E+00
          2   -1    0    0  502    0  0.00000000000E+00  0.00000000000E+00  0.63713308155E+03  0.63713308155E+03  0.00000000000E+00 0. -1.
          1   -1    0    0  501    0 -0.00000000000E+00 -0.00000000000E+00 -0.72393270157E+02  0.72393270157E+02  0.00000000000E+00 0. -1.
          2    1    1    2  501    0  0.19068487503E+02  0.76978433203E+01  0.63550311104E+03  0.63583572418E+03  0.00000000000E+00 0. -1.
          1    1    1    2  502    0 -0.19068487503E+02 -0.76978433203E+01 -0.70763299648E+02  0.73690627522E+02  0.00000000000E+00 0. -1.
</event>
<event>
 4    1  0.3837333E+003  0.2000127E+02  0.7546771E-02  0.1534016E+00
          2   -1    0    0  502    0  0.00000000000E+00  0.00000000000E+00  0.50671968117E+03  0.50671968117E+03  0.00000000000E+00 0. -1.
          1   -1    0    0  501    0 -0.00000000000E+00 -0.00000000000E+00 -0.13056453426E+01  0.13056453426E+01  0.00000000000E+00 0. -1.
          2    1    1    2  501    0  0.64966917187E+01  0.18916759391E+02  0.41241713014E+03  0.41290185277E+03  0.00000000000E+00 0. -1.
          1    1    1    2  502    0 -0.64966917187E+01 -0.18916759391E+02  0.92996905685E+02  0.95123473739E+02  0.00000000000E+00 0. -1.
</event>
<event>
 4    1  0.3837333E+003  0.4188794E+02  0.7546771E-02  0.1337764E+00
          2   -1    0    0  502    0  0.00000000000E+00  0.00000000000E+00  0.16495364526E+04  0.16495364526E+04  0.00000000000E+00 0. -1.
          1   -1    0    0  501    0 -0.00000000000E+00 -0.00000000000E+00 -0.99840530854E+02  0.99840530854E+02  0.00000000000E+00 0.  1.
          2    1    1    2  501    0  0.17575280110E+01 -0.41851054554E+02  0.16448645471E+04  0.16453978176E+04  0.00000000000E+00 0. -1.
          1    1    1    2  502    0 -0.17575280110E+01  0.41851054554E+02 -0.95168625404E+02  0.10397916586E+03  0.00000000000E+00 0.  1.
</event>
<event>
 4    1  0.3837333E+003  0.2266118E+02  0.7546771E-02  0.1496797E+00
          2   -1    0    0  502    0  0.00000000000E+00  0.00000000000E+00  0.55025025753E+01  0.55025025753E+01  0.00000000000E+00 0. -1.
          1   -1    0    0  501    0 -0.00000000000E+00 -0.00000000000E+00 -0.10960359424E+03  0.10960359424E+03  0.00000000000E+00 0. -1.
          2    1    1    2  501    0 -0.16965453484E+02 -0.15023403882E+02 -0.29871418894E+02  0.37494412155E+02  0.00000000000E+00 0. -1.
          1    1    1    2  502    0  0.16965453484E+02  0.15023403882E+02 -0.74229672771E+02  0.77611684660E+02  0.00000000000E+00 0. -1.
</event>
<event>
 4    1  0.3837333E+003  0.3594773E+02  0.7546771E-02  0.1374020E+00
          2   -1    0    0  502    0  0.00000000000E+00  0.00000000000E+00  0.56668383109E+03  0.56668383109E+03  0.00000000000E+00 0. -1.
          1   -1    0    0  501    0 -0.00000000000E+00 -0.00000000000E+00 -0.33834834021E+03  0.33834834021E+03  0.00000000000E+00 0. -1.
          2    1    1    2  501    0 -0.26505312139E+02  0.24283899977E+02  0.56515635040E+03  0.56629845467E+03  0.00000000000E+00 0. -1.
          1    1    1    2  502    0  0.26505312139E+02 -0.24283899977E+02 -0.33682085952E+03  0.33873371662E+03  0.00000000000E+00 0. -1.
</event>
<event>
 4    1  0.3837333E+003  0.2039036E+02  0.7546771E-02  0.1528150E+00
          2   -1    0    0  502    0  0.00000000000E+00  0.00000000000E+00  0.81396872205E+00  0.81396872205E+00  0.00000000000E+00 0. -1.
          1   -1    0    0  501    0 -0.00000000000E+00 -0.00000000000E+00 -0.98087327382E+03  0.98087327382E+03  0.00000000000E+00 0. -1.
          2    1    1    2  501    0  0.76970236424E+01 -0.18881802585E+02 -0.15022888862E+03  0.15160635085E+03  0.00000000000E+00 0. -1.
          1    1    1    2  502    0 -0.76970236424E+01  0.18881802585E+02 -0.82983041647E+03  0.83008089169E+03  0.00000000000E+00 0. -1.
</event>
<event>
 4    1  0.3837333E+003  0.2513875E+02  0.7546771E-02  0.1467257E+00
          2   -1    0    0  502    0  0.00000000000E+00  0.00000000000E+00  0.33170029602E+03  0.33170029602E+03  0.00000000000E+00 0. -1.
          1   -1    0    0  501    0 -0.00000000000E+00 -0.00000000000E+00 -0.55699990563E+01  0.55699990563E+01  0.00000000000E+00 0. -1.
          2    1    1    2  501    0 -0.39272922763E+01  0.24830089820E+02  0.29985230988E+03  0.30090424511E+03  0.00000000000E+00 0. -1.
          1    1    1    2  502    0  0.39272922763E+01 -0.24830089820E+02  0.26277987091E+02  0.36366049973E+02  0.00000000000E+00 0. -1.
</event>
<event>
 4    1  0.3837333E+003  0.2120211E+02  0.7546771E-02  0.1516399E+00
          2   -1    0    0  502    0  0.00000000000E+00  0.00000000000E+00  0.39046123429E+01  0.39046123429E+01  0.00000000000E+00 0. -1.
          1   -1    0    0  501    0 -0.00000000000E+00 -0.00000000000E+00 -0.13402278074E+03  0.13402278074E+03  0.00000000000E+00 0.  1.
          2    1    1    2  501    0 -0.10549114323E+02  0.18391458203E+02 -0.39164788889E+02  0.44535494120E+02  0.00000000000E+00 0. -1.
          1    1    1    2  502    0  0.10549114323E+02 -0.18391458203E+02 -0.90953379507E+02  0.93391898961E+02  0.00000000000E+00 0.  1.
</event>
<event>
 4    1  0.3837333E+003  0.2193433E+02  0.7546771E-02  0.1506332E+00
          2   -1    0    0  502    0  0.00000000000E+00  0.00000000000E+00  0.16051855919E+04  0.16051855919E+04  0.00000000000E+00 0.  1.
          1   -1    0    0  501    0 -0.00000000000E+00 -0.00000000000E+00 -0.11780244587E+02  0.11780244587E+02  0.00000000000E+00 0.  1.
          2    1    1    2  501    0 -0.20614234151E+02  0.74945505971E+01  0.15948341865E+04  0.15949850148E+04  0.00000000000E+00 0.  1.
          1    1    1    2  502    0  0.20614234151E+02 -0.74945505971E+01 -0.14288392577E+01  0.21980821639E+02  0.00000000000E+00 0.  1.
</event>
<event>
 4    1  0.3837333E+003  0.4199585E+02  0.7546771E-02  0.1337171E+00
          2   -1    0    0  502    0  0.00000000000E+00  0.00000000000E+00  0.21591922241E+04  0.21591922241E+04  0.00000000000E+00 0. -1.
          1   -1    0    0  501    0 -0.00000000000E+00 -0.00000000000E+00 -0.19218515521E+03  0.19218515521E+03  0.00000000000E+00 0. -1.
          2    1    1    2  501    0  0.41934732187E+02 -0.22648775340E+01  0.21566911524E+04  0.21570999927E+04  0.00000000000E+00 0. -1.
          1    1    1    2  502    0 -0.41934732187E+02  0.22648775340E+01 -0.18968408351E+03  0.19427738667E+03  0.00000000000E+00 0. -1.
</event>
<event>
 4    1  0.3837333E+003  0.2799242E+02  0.7546771E-02  0.1437886E+00
          2   -1    0    0  502    0  0.00000000000E+00  0.00000000000E+00  0.33481133111E+02  0.33481133111E+02  0.00000000000E+00 0.  1.
          1   -1    0    0  501    0 -0.00000000000E+00 -0.00000000000E+00 -0.25761546594E+02  0.25761546594E+02  0.00000000000E+00 0.  1.
          2    1    1    2  501    0 -0.27328761770E+02  0.60592196378E+01  0.12821605665E+02  0.30789104149E+02  0.00000000000E+00 0.  1.
          1    1    1    2  502    0  0.27328761770E+02 -0.60592196378E+01 -0.51020191482E+01  0.28453575556E+02  0.00000000000E+00 0.  1.
</event>
<event>
 4    1  0.3837333E+003  0.3217304E+02  0.7546771E-02  0.1401607E+00
          2   -1    0    0  502    0  0.00000000000E+00  0.00000000000E+00  0.31115861388E+02  0.31115861388E+02  0.00000000000E+00 0. -1.
          1   -1    0    0  501    0 -0.00000000000E+00 -0.00000000000E+00 -0.33632415400E+02  0.33632415400E+02  0.00000000000E+00 0. -1.
          2    1    1    2  501    0  0.30809857301E+02  0.92659091819E+01  0.21202491136E+01  0.32242826120E+02  0.00000000000E+00 0. -1.
          1    1    1    2  502    0 -0.30809857301E+02 -0.92659091819E+01 -0.46368031264E+01  0.32505450668E+02  0.00000000000E+00 0. -1.
</event>
<event>
 4    1  0.3837333E+003  0.2152487E+02  0.7546771E-02  0.1511901E+00
          2   -1    0    0  502    0  0.00000000000E+00  0.00000000000E+00  0.14987181603E+03  0.14987181603E+03  0.00000000000E+00 0. -1.
          1   -1    0    0  501    0 -0.00000000000E+00 -0.00000000000E+00 -0.63318136305E+01  0.63318136305E+01  0.00000000000E+00 0.  1.
          2    1    1    2  501    0  0.20818895352E+02  0.54674895497E+01  0.12764204465E+03  0.12944424053E+03  0.00000000000E+00 0. -1.
          1    1    1    2  502    0 -0.20818895352E+02 -0.54674895497E+01  0.15897957748E+02  0.26759389122E+02  0.00000000000E+00 0.  1.
</event>
<event>
 4    1  0.3837333E+003  0.2686907E+02  0.7546771E-02  0.1448928E+00
          2   -1    0    0  502    0  0.00000000000E+00  0.00000000000E+00  0.17008465501E+04  0.17008465501E+04  0.00000000000E+00 0. -1.
          1   -1    0    0  501    0 -0.00000000000E+00 -0.00000000000E+00 -0.11217376942E+01  0.11217376942E+01  0.00000000000E+00 0. -1.
          2    1    1    2  501    0 -0.26243832220E+02  0.57626442105E+01  0.15207931542E+04  0.15210304943E+04  0.00000000000E+00 0. -1.
          1    1    1    2  502    0  0.26243832220E+02 -0.57626442105E+01  0.17893165817E+03  0.18093779343E+03  0.00000000000E+00 0. -1.
</event>
<event>
 4    1  0.3837333E+003  0.3097138E+02  0.7546771E-02  0.1411339E+00
          2   -1    0    0  502    0  0.00000000000E+00  0.00000000000E+00  0.12126797110E+04  0.12126797110E+04  0.00000000000E+00 0. -1.
          1   -1    0    0  501    0 -0.00000000000E+00 -0.00000000000E+00 -0.21722906760E+01  0.21722906760E+01  0.00000000000E+00 0.  1.
          2    1    1    2  501    0  0.29625782591E+02 -0.90299189910E+01  0.10896238548E+04  0.10900639300E+04  0.00000000000E+00 0. -1.
          1    1    1    2  502    0 -0.29625782591E+02  0.90299189910E+01  0.12088356554E+03  0.12478807174E+03  0.00000000000E+00 0.  1.
</event>
<event>
 4    1  0.3837333E+003  0.2058977E+02  0.7546771E-02  0.1525203E+00
          2   -1    0    0  502    0  0.00000000000E+00  0.00000000000E+00  0.74267251412E+02  0.74267251412E+02  0.00000000000E+00 0.  1.
          1   -1    0    0  501    0 -0.00000000000E+00 -0.00000000000E+00 -0.70133879889E+03  0.70133879889E+03  0.00000000000E+00 0.  1.
          2    1    1    2  501    0  0.77205580332E+01 -0.19087471708E+02  0.72685838290E+02  0.75545811800E+02  0.00000000000E+00 0.  1.
          1    1    1    2  502    0 -0.77205580332E+01  0.19087471708E+02 -0.69975738577E+03  0.70006023850E+03  0.00000000000E+00 0.  1.
</event>
<event>
 4    1  0.3837333E+003  0.3837235E+02  0.7546771E-02  0.1358297E+00
          2   -1    0    0  502    0  0.00000000000E+00  0.00000000000E+00  0.23848680540E+04  0.23848680540E+04  0.00000000000E+00 0.  1.
          1   -1    0    0  501    0 -0.00000000000E+00 -0.00000000000E+00 -0.13145944193E+01  0.13145944193E+01  0.00000000000E+00 0. -1.
          2    1    1    2  501    0  0.18158590164E+02  0.33803890742E+02  0.20606414215E+04  0.20609986670E+04  0.00000000000E+00 0.  1.
          1    1    1    2  502    0 -0.18158590164E+02 -0.33803890742E+02  0.32291203808E+03  0.32518398140E+03  0.00000000000E+00 0. -1.
</event>
<event>
 4    1  0.3837333E+003  0.2175297E+02  0.7546771E-02  0.1508780E+00
          2   -1    0    0  502    0  0.00000000000E+00  0.00000000000E+00  0.76224881241E+00  0.76224881241E+00  0.00000000000E+00 0. -1.
          1   -1    0    0  501    0 -0.00000000000E+00 -0.00000000000E+00 -0.66203614001E+03  0.66203614001E+03  0.00000000000E+00 0. -1.
          2    1    1    2  501    0  0.13414309213E+02 -0.17124480857E+02 -0.24791206993E+03  0.24886459361E+03  0.00000000000E+00 0. -1.
          1    1    1    2  502    0 -0.13414309213E+02  0.17124480857E+02 -0.41336182127E+03  0.41393379521E+03  0.00000000000E+00 0. -1.
</event>
<event>
 4    1  0.3837333E+003  0.2430687E+02  0.7546771E-02  0.1476709E+00
          2   -1    0    0  502    0  0.00000000000E+00  0.00000000000E+00  0.13990368611E+04  0.13990368611E+04  0.00000000000E+00 0.  1.
          1   -1    0    0  501    0 -0.00000000000E+00 -0.00000000000E+00 -0.22879953585E+02  0.22879953585E+02  0.00000000000E+00 0. -1.
          2    1    1    2  501    0 -0.23562575399E+02  0.59689970880E+01  0.13924450316E+04  0.13926571688E+04  0.00000000000E+00 0.  1.
          1    1    1    2  502    0  0.23562575399E+02 -0.59689970880E+01 -0.16288124120E+02  0.29259645812E+02  0.00000000000E+00 0. -1.
</event>
<event>
 4    1  0.3837333E+003  0.2193023E+02  0.7546771E-02  0.1506387E+00
          2   -1    0    0  502    0  0.00000000000E+00  0.00000000000E+00  0.25222721988E+01  0.25222721988E+01  0.00000000000E+00 0. -1.
          1   -1    0    0  501    0 -0.00000000000E+00 -0.00000000000E+00 -0.34929499951E+03  0.34929499951E+03  0.00000000000E+00 0.  1.
          2    1    1    2  501    0 -0.21823071763E+02 -0.21652509248E+01 -0.54845069093E+02  0.59067049838E+02  0.00000000000E+00 0. -1.
          1    1    1    2  502    0  0.21823071763E+02  0.21652509248E+01 -0.29192765822E+03  0.29275022187E+03  0.00000000000E+00 0.  1.
</event>
<event>
 4    1  0.3837333E+003  0.4501646E+02  0.7546771E-02  0.1321357E+00
          2   -1    0    0  502    0  0.00000000000E+00  0.00000000000E+00  0.64167626899E+03  0.64167626899E+03  0.00000000000E+00 0. -1.
          1   -1    0    0  501    0 -0.00000000000E+00 -0.00000000000E+00 -0.17260176964E+02  0.17260176964E+02  0.00000000000E+00 0. -1.
          2    1    1    2  501    0  0.25712752546E+02  0.36950457992E+02  0.61001329748E+03  0.61167205682E+03  0.00000000000E+00 0. -1.
          1    1    1    2  502    0 -0.25712752546E+02 -0.36950457992E+02  0.14402794542E+02  0.47264389131E+02  0.00000000000E+00 0. -1.
</event>
<event>
 4    1  0.3837333E+003  0.4058549E+02  0.7546771E-02  0.1345089E+00
          2   -1    0    0  502    0  0.00000000000E+00  0.00000000000E+00  0.77041801900E+00  0.77041801900E+00  0.00000000000E+00 0.  1.
          1   -1    0    0  501    0 -0.00000000000E+00 -0.00000000000E+00 -0.22101019058E+04  0.22101019058E+04  0.00000000000E+00 0.  1.
          2    1    1    2  501    0 -0.37900765802E+02  0.14515920887E+02 -0.13042830186E+04  0.13049143162E+04  0.00000000000E+00 0.  1.
          1    1    1    2  502    0  0.37900765802E+02 -0.14515920887E+02 -0.90504846920E+03  0.90595800764E+03  0.00000000000E+00 0.  1.
</event>
<event>
 4    1  0.3837333E+003  0.3183119E+02  0.7546771E-02  0.1404324E+00
          2   -1    0    0  502    0  0.00000000000E+00  0.00000000000E+00  0.82772408242E+01  0.82772408242E+01  0.00000000000E+00 0. -1.
          1   -1    0    0  501    0 -0.00000000000E+00 -0.00000000000E+00 -0.63566835099E+03  0.63566835099E+03  0.00000000000E+00 0. -1.
          2    1    1    2  501    0 -0.22195764268E+01  0.31753709737E+02 -0.24380182327E+02  0.40095110573E+02  0.00000000000E+00 0. -1.
          1    1    1    2  502    0  0.22195764268E+01 -0.31753709737E+02 -0.60301092784E+03  0.60385048124E+03  0.00000000000E+00 0. -1.
</event>
<event>
 4    1  0.3837333E+003  0.2089550E+02  0.7546771E-02  0.1520762E+00
          2   -1    0    0  502    0  0.00000000000E+00  0.00000000000E+00  0.28223099682E+02  0.28223099682E+02  0.00000000000E+00 0.  1.
          1   -1    0    0  501    0 -0.00000000000E+00 -0.00000000000E+00 -0.66010844340E+02  0.66010844340E+02  0.00000000000E+00 0. -1.
          2    1    1    2  501    0  0.20377281794E+02  0.46247599169E+01  0.22333850869E+02  0.30584684275E+02  0.00000000000E+00 0.  1.
          1    1    1    2  502    0 -0.20377281794E+02 -0.46247599169E+01 -0.60121595527E+02  0.63649259747E+02  0.00000000000E+00 0. -1.
</event>
<event>
 4    1  0.3837333E+003  0.4665708E+02  0.7546771E-02  0.1313355E+00
          2   -1    0    0  502    0  0.00000000000E+00  0.00000000000E+00  0.21641680631E+01  0.21641680631E+01  0.00000000000E+00 0.  1.
          1   -1    0    0  501    0 -0.00000000000E+00 -0.00000000000E+00 -0.10115352082E+04  0.10115352082E+04  0.00000000000E+00 0.  1.
          2    1    1    2  501    0 -0.37194732354E+02 -0.28167934568E+02 -0.54260291772E+03  0.54460518449E+03  0.00000000000E+00 0.  1.
          1    1    1    2  502    0  0.37194732354E+02  0.28167934568E+02 -0.46676812243E+03  0.46909419179E+03  0.00000000000E+00 0.  1.
</event>
<event>
 4    1  0.3837333E+003  0.2369998E+02  0.7546771E-02  0.1483891E+00
          2   -1    0    0  502    0  0.00000000000E+00  0.00000000000E+00  0.80555476333E+01  0.80555476333E+01  0.00000000000E+00 0. -1.
          1   -1    0    0  501    0 -0.00000000000E+00 -0.00000000000E+00 -0.69728556334E+02  0.69728556334E+02  0.00000000000E+00 0. -1.
          2    1    1    2  501    0  0.16651232655E+02 -0.16864902787E+02 -0.31025126487E+02  0.39041605608E+02  0.00000000000E+00 0. -1.
          1    1    1    2  502    0 -0.16651232655E+02  0.16864902787E+02 -0.30647882213E+02  0.38742498359E+02  0.00000000000E+00 0. -1.
</event>
<event>
 4    1  0.3837333E+003  0.2881452E+02  0.7546771E-02  0.1430186E+00
          2   -1    0    0  502    0  0.00000000000E+00  0.00000000000E+00  0.59076699243E+03  0.59076699243E+03  0.00000000000E+00 0. -1.
          1   -1    0    0  501    0 -0.00000000000E+00 -0.00000000000E+00 -0.14070541809E+01  0.14070541809E+01  0.00000000000E+00 0. -1.
          2    1    1    2  501    0  0.20682131990E+00 -0.28813780803E+02  0.30476531104E+03  0.30612443802E+03  0.00000000000E+00 0. -1.
          1    1    1    2  502    0 -0.20682131990E+00  0.28813780803E+02  0.28459462721E+03  0.28604960859E+03  0.00000000000E+00 0. -1.
</event>
<event>
 4    1  0.3837333E+003  0.3262385E+02  0.7546771E-02  0.1398085E+00
          2   -1    0    0  502    0  0.00000000000E+00  0.00000000000E+00  0.41154773729E+03  0.41154773729E+03  0.00000000000E+00 0.  1.
          1   -1    0    0  501    0 -0.00000000000E+00 -0.00000000000E+00 -0.12602226949E+04  0.12602226949E+04  0.00000000000E+00 0.  1.
          2    1    1    2  501    0  0.30186173811E+02  0.12373776452E+02  0.41068962826E+03  0.41198335669E+03  0.00000000000E+00 0.  1.
          1    1    1    2  502    0 -0.30186173811E+02 -0.12373776452E+02 -0.12593645859E+04  0.12597870755E+04  0.00000000000E+00 0.  1.
</event>
<event>
 4    1  0.3837333E+003  0.2433531E+02  0.7546771E-02  0.1476378E+00
          2   -1    0    0  502    0  0.00000000000E+00  0.00000000000E+00  0.29908448358E+03  0.29908448358E+03  0.00000000000E+00 0.  1.
          1   -1    0    0  501    0 -0.00000000000E+00 -0.00000000000E+00 -0.41652247758E+03  0.41652247758E+03  0.00000000000E+00 0. -1.
          2    1    1    2  501    0  0.76542248730E+01 -0.23100222808E+02  0.29823300610E+03  0.29922421924E+03  0.00000000000E+00 0.  1.
          1    1    1    2  502    0 -0.76542248730E+01  0.23100222808E+02 -0.41567100010E+03  0.41638274193E+03  0.00000000000E+00 0. -1.
</event>
<event>
 4    1  0.3837333E+003  0.4957886E+02  0.7546771E-02  0.1300009E+00
          2   -1    0    0  502    0  0.00000000000E+00  0.00000000000E+00  0.15455046516E+02  0.15455046516E+02  0.00000000000E+00 0.  1.
          1   -1    0    0  501    0 -0.00000000000E+00 -0.00000000000E+00 -0.33858923958E+03  0.33858923958E+03  0.00000000000E+00 0.  1.
          2    1    1    2  501    0 -0.45095954907E+02 -0.20601408963E+02 -0.32660376959E+02  0.59369718067E+02  0.00000000000E+00 0.  1.
          1    1    1    2  502    0  0.45095954907E+02  0.20601408963E+02 -0.29047381611E+03  0.29467456803E+03  0.00000000000E+00 0.  1.
</event>
<event>
 4    1  0.3837333E+003  0.2678473E+02  0.7546771E-02  0.1449783E+00
          2   -1    0    0  502    0  0.00000000000E+00  0.00000000000E+00  0.22639907611E+03  0.22639907611E+03  0.00000000000E+00 0.  1.
          1   -1    0    0  501    0 -0.00000000000E+00 -0.00000000000E+00 -0.44012992660E+01  0.44012992660E+01  0.00000000000E+00 0.  1.
          2    1    1    2  501    0  0.14673723596E+02 -0.22407672759E+02  0.17206534642E+03  0.17413760479E+03  0.00000000000E+00 0.  1.
          1    1    1    2  502    0 -0.14673723596E+02  0.22407672759E+02  0.49932430423E+02  0.56662770587E+02  0.00000000000E+00 0.  1.
</event>
<event>
 4    1  0.3837333E+003  0.2100661E+02  0.7546771E-02  0.1519170E+00
          2   -1    0    0  502    0  0.00000000000E+00  0.00000000000E+00  0.84699384290E+03  0.84699384290E+03  0.00000000000E+00 0.  1.
          1   -1    0    0  501    0 -0.00000000000E+00 -0.00000000000E+00 -0.11437353867E+01  0.11437353867E+01  0.00000000000E+00 0.  1.
          2    1    1    2  501    0  0.24485879779E+01 -0.20863413453E+02  0.73584111223E+03  0.73614089687E+03  0.00000000000E+00 0.  1.
          1    1    1    2  502    0 -0.24485879779E+01  0.20863413453E+02  0.11000899528E+03  0.11199668141E+03  0.00000000000E+00 0.  1.
</event>
<event>
 4    1  0.3837333E+003  0.2700401E+02  0.7546771E-02  0.1447568E+00
          2   -1    0    0  502    0  0.00000000000E+00  0.00000000000E+00  0.35243120310E+02  0.35243120310E+02  0.00000000000E+00 0.  1.
          1   -1    0    0  501    0 -0.00000000000E+00 -0.00000000000E+00 -0.89413939369E+03  0.89413939369E+03  0.00000000000E+00 0.  1.
          2    1    1    2  501    0  0.26872034660E+02 -0.26665132949E+01  0.29835004363E+02  0.40241073858E+02  0.00000000000E+00 0.  1.
          1    1    1    2  502    0 -0.26872034660E+02  0.26665132949E+01 -0.88873127774E+03  0.88914144014E+03  0.00000000000E+00 0.  1.
</event>
<event>
 4    1  0.3837333E+003  0.2364392E+02  0.7546771E-02  0.1484567E+00
          2   -1    0    0  502    0  0.00000000000E+00  0.00000000000E+00  0.14437663965E+02  0.14437663965E+02  0.00000000000E+00 0.  1.
          1   -1    0    0  501    0 -0.00000000000E+00 -0.00000000000E+00 -0.38489340495E+03  0.38489340495E+03  0.00000000000E+00 0. -1.
          2    1    1    2  501    0  0.76362266097E+01 -0.22376838177E+02  0.41282516406E+01  0.24001610472E+02  0.00000000000E+00 0.  1.
          1    1    1    2  502    0 -0.76362266097E+01  0.22376838177E+02 -0.37458399262E+03  0.37532945844E+03  0.00000000000E+00 0. -1.
</event>
<event>
 4    1  0.3837333E+003  0.2061973E+02  0.7546771E-02  0.1524764E+00
          2   -1    0    0  502    0  0.00000000000E+00  0.00000000000E+00  0.43279395594E+03  0.43279395594E+03  0.00000000000E+00 0.  1.
          1   -1    0    0  501    0 -0.00000000000E+00 -0.00000000000E+00 -0.23457807431E+03  0.23457807431E+03  0.00000000000E+00 0.  1.
          2    1    1    2  501    0 -0.23413650755E+01 -0.20486364932E+02  0.43209449956E+03  0.43258621070E+03  0.00000000000E+00 0.  1.
          1    1    1    2  502    0  0.23413650755E+01  0.20486364932E+02 -0.23387861792E+03  0.23478581955E+03  0.00000000000E+00 0.  1.
</event>
<event>
 4    1  0.3837333E+003  0.4147548E+02  0.7546771E-02  0.1340050E+00
          2   -1    0    0  502    0  0.00000000000E+00  0.00000000000E+00  0.34100182313E+02  0.34100182313E+02  0.00000000000E+00 0. -1.
          1   -1    0    0  501    0 -0.00000000000E+00 -0.00000000000E+00 -0.41681755257E+03  0.41681755257E+03  0.00000000000E+00 0. -1.
          2    1    1    2  501    0  0.15364188645E+02 -0.38524755703E+02  0.20017103470E+02  0.46053224925E+02  0.00000000000E+00 0. -1.
          1    1    1    2  502    0 -0.15364188645E+02  0.38524755703E+02 -0.40273447373E+03  0.40486450996E+03  0.00000000000E+00 0. -1.
</event>
<event>
 4    1  0.3837333E+003  0.2283463E+02  0.7546771E-02  0.1494585E+00
          2   -1    0    0  502    0  0.00000000000E+00  0.00000000000E+00  0.72554786925E+02  0.72554786925E+02  0.00000000000E+00 0. -1.
          1   -1    0    0  501    0 -0.00000000000E+00 -0.00000000000E+00 -0.22667567374E+02  0.22667567374E+02  0.00000000000E+00 0.  1.
          2    1    1    2  501    0  0.85914741614E+01  0.21156719540E+02  0.64290091078E+02  0.68224892970E+02  0.00000000000E+00 0. -1.
          1    1    1    2  502    0 -0.85914741614E+01 -0.21156719540E+02 -0.14402871527E+02  0.26997461329E+02  0.00000000000E+00 0.  1.
</event>
<event>
 4    1  0.3837333E+003  0.3205335E+02  0.7546771E-02  0.1402554E+00
          2   -1    0    0  502    0  0.00000000000E+00  0.00000000000E+00  0.63991673817E+03  0.63991673817E+03  0.00000000000E+00 0.  1.
          1   -1    0    0  501    0 -0.00000000000E+00 -0.00000000000E+00 -0.16056130727E+01  0.16056130727E+01  0.00000000000E+00 0.  1.
          2    1    1    2  501    0 -0.10403537596E+02  0.30318024257E+02  0.31709280952E+03  0.31870874798E+03  0.00000000000E+00 0.  1.
          1    1    1    2  502    0  0.10403537596E+02 -0.30318024257E+02  0.32121831558E+03  0.32281360326E+03  0.00000000000E+00 0.  1.
</event>
<event>
 4    1  0.3837333E+003  0.2131443E+02  0.7546771E-02  0.1514823E+00
          2   -1    0    0  502    0  0.00000000000E+00  0.00000000000E+00  0.86846238169E+02  0.86846238169E+02  0.00000000000E+00 0.  1.
          1   -1    0    0  501    0 -0.00000000000E+00 -0.00000000000E+00 -0.74687433728E+02  0.74687433728E+02  0.00000000000E+00 0.  1.
          2    1    1    2  501    0  0.90084483234E+01 -0.19317159209E+02  0.83966425368E+02  0.86629471719E+02  0.00000000000E+00 0.  1.
          1    1    1    2  502    0 -0.90084483234E+01  0.19317159209E+02 -0.71807620928E+02  0.74904200179E+02  0.00000000000E+00 0.  1.
</event>
<event>
 4    1  0.3837333E+003  0.2192823E+02  0.7546771E-02  0.1506413E+00
          2   -1    0    0  502    0  0.00000000000E+00  0.00000000000E+00  0.23564863835E+04  0.23564863835E+04  0.00000000000E+00 0.  1.
          1   -1    0    0  501    0 -0.00000000000E+00 -0.00000000000E+00 -0.22179366325E+00  0.22179366325E+00  0.00000000000E+00 0.  1.
          2    1    1    2  501    0 -0.16727102376E+02  0.14179255231E+02  0.15113981037E+04  0.15115571690E+04  0.00000000000E+00 0.  1.
          1    1    1    2  502    0  0.16727102376E+02 -0.14179255231E+02  0.84486648616E+03  0.84515100821E+03  0.00000000000E+00 0.  1.
</event>
<event>
 4    1  0.3837333E+003  0.2512054E+02  0.7546771E-02  0.1467459E+00
          2   -1    0    0  502    0  0.00000000000E+00  0.00000000000E+00  0.96989996813E+03  0.96989996813E+03  0.00000000000E+00 0. -1.
          1   -1    0    0  501    0 -0.00000000000E+00 -0.00000000000E+00 -0.22169508071E+01  0.22169508071E+01  0.00000000000E+00 0.  1.
          2    1    1    2  501    0 -0.24956879581E+02  0.28628002641E+01  0.89239740920E+03  0.89275090446E+03  0.00000000000E+00 0. -1.
          1    1    1    2  502    0  0.24956879581E+02 -0.28628002641E+01  0.75285608115E+02  0.79366014471E+02  0.00000000000E+00 0.  1.
</event>
<event>
 4    1  0.3837333E+003  0.2989569E+02  0.7546771E-02  0.1420505E+00
          2   -1    0    0  502    0  0.00000000000E+00  0.00000000000E+00  0.19088940800E+02  0.19088940800E+02  0.00000000000E+00 0. -1.
          1   -1    0    0  501    0 -0.00000000000E+00 -0.00000000000E+00 -0.47835898195E+02  0.47835898195E+02  0.00000000000E+00 0. -1.
          2    1    1    2  501    0 -0.24743910591E+02  0.16777699384E+02 -0.94980281914E+01  0.31368213966E+02  0.00000000000E+00 0. -1.
          1    1    1    2  502    0  0.24743910591E+02 -0.16777699384E+02 -0.19248929203E+02  0.35556625028E+02  0.00000000000E+00 0. -1.
</event>
<event>
 4    1  0.3837333E+003  0.2144131E+02  0.7546771E-02  0.1513056E+00
          2   -1    0    0  502    0  0.00000000000E+00  0.00000000000E+00  0.32295314796E+03  0.32295314796E+03  0.00000000000E+00 0. -1.
          1   -1    0    0  501    0 -0.00000000000E+00 -0.00000000000E+00 -0.16744783070E+02  0.16744783070E+02  0.00000000000E+00 0. -1.
          2    1    1    2  501    0  0.20421628235E+02  0.65335246410E+01  0.31557315969E+03  0.31630072552E+03  0.00000000000E+00 0. -1.
          1    1    1    2  502    0 -0.20421628235E+02 -0.65335246410E+01 -0.93647948049E+01  0.23397205511E+02  0.00000000000E+00 0. -1.
</event>
<event>
 4    1  0.3837333E+003  0.2275884E+02  0.7546771E-02  0.1495549E+00
          2   -1    0    0  502    0  0.00000000000E+00  0.00000000000E+00  0.56719790090E+03  0.56719790090E+03  0.00000000000E+00 0.  1.
          1   -1    0    0  501    0 -0.00000000000E+00 -0.00000000000E+00 -0.57018303443E+02  0.57018303443E+02  0.00000000000E+00 0.  1.
          2    1    1    2  501    0 -0.21561835573E+02  0.72836930826E+01  0.56468846593E+03  0.56514690877E+03  0.00000000000E+00 0.  1.
          1    1    1    2  502    0  0.21561835573E+02 -0.72836930826E+01 -0.54508868469E+02  0.59069295577E+02  0.00000000000E+00 0.  1.
</event>
<event>
 4    1  0.3837333E+003  0.5004558E+02  0.7546771E-02  0.1297975E+00
          2   -1    0    0  502    0  0.00000000000E+00  0.00000000000E+00  0.34642932329E+01  0.34642932329E+01  0.00000000000E+00 0. -1.
          1   -1    0    0  501    0 -0.00000000000E+00 -0.00000000000E+00 -0.10213715896E+04  0.10213715896E+04  0.00000000000E+00 0.  1.
          2    1    1    2  501    0 -0.39472063152E+02  0.30765502169E+02 -0.23198076816E+03  0.23731758614E+03  0.00000000000E+00 0. -1.
          1    1    1    2  502    0  0.39472063152E+02 -0.30765502169E+02 -0.78592652819E+03  0.78751829668E+03  0.00000000000E+00 0.  1.
</event>
<event>
 4    1  0.3837333E+003  0.2177511E+02  0.7546771E-02  0.1508480E+00
          2   -1    0    0  502    0  0.00000000000E+00  0.00000000000E+00  0.66654245940E+03  0.66654245940E+03  0.00000000000E+00 0. -1.
          1   -1    0    0  501    0 -0.00000000000E+00 -0.00000000000E+00 -0.89858851257E+00  0.89858851257E+00  0.00000000000E+00 0. -1.
          2    1    1    2  501    0 -0.21658469878E+02  0.22508259816E+01  0.48515062584E+03  0.48563904835E+03  0.00000000000E+00 0. -1.
          1    1    1    2  502    0  0.21658469878E+02 -0.22508259816E+01  0.18049324505E+03  0.18180199956E+03  0.00000000000E+00 0. -1.
</event>
<event>
 4    1  0.3837333E+003  0.2714511E+02  0.7546771E-02  0.1446156E+00
          2   -1    0    0  502    0  0.00000000000E+00  0.00000000000E+00  0.27922403359E+02  0.27922403359E+02  0.00000000000E+00 0.  1.
          1   -1    0    0  501    0 -0.00000000000E+00 -0.00000000000E+00 -0.26744073609E+03  0.26744073609E+03  0.00000000000E+00 0. -1.
          2    1    1    2  501    0  0.62468103050E+01  0.26416555428E+02  0.20447040901E+02  0.33984386434E+02  0.00000000000E+00 0.  1.
          1    1    1    2  502    0 -0.62468103050E+01 -0.26416555428E+02 -0.25996537363E+03  0.26137875301E+03  0.00000000000E+00 0. -1.
</event>
<event>
 4    1  0.3837333E+003  0.2227311E+02  0.7546771E-02  0.1501833E+00
          2   -1    0    0  502    0  0.00000000000E+00  0.00000000000E+00  0.20009630799E+03  0.20009630799E+03  0.00000000000E+00 0. -1.
          1   -1    0    0  501    0 -0.00000000000E+00 -0.00000000000E+00 -0.10722441576E+02  0.10722441576E+02  0.00000000000E+00 0. -1.
          2    1    1    2  501    0 -0.18400123181E+02  0.12550974530E+02  0.18710986294E+03  0.18843086877E+03  0.00000000000E+00 0. -1.
          1    1    1    2  502    0  0.18400123181E+02 -0.12550974530E+02  0.22640034691E+01  0.22387880794E+02  0.00000000000E+00 0. -1.
</event>
<event>
 4    1  0.3837333E+003  0.2064930E+02  0.7546771E-02  0.1524331E+00
          2   -1    0    0  502    0  0.00000000000E+00  0.00000000000E+00  0.27572344599E+03  0.27572344599E+03  0.00000000000E+00 0. -1.
          1   -1    0    0  501    0 -0.00000000000E+00 -0.00000000000E+00 -0.37946893250E+02  0.37946893250E+02  0.00000000000E+00 0.  1.
          2    1    1    2  501    0  0.18589154501E+02  0.89909299037E+01  0.27249444628E+03  0.27327571561E+03  0.00000000000E+00 0. -1.
          1    1    1    2  502    0 -0.18589154501E+02 -0.89909299037E+01 -0.34717893548E+02  0.40394623628E+02  0.00000000000E+00 0.  1.
</event>
<event>
 4    1  0.3837333E+003  0.2301623E+02  0.7546771E-02  0.1492294E+00
          2   -1    0    0  502    0  0.00000000000E+00  0.00000000000E+00  0.17634021506E+04  0.17634021506E+04  0.00000000000E+00 0.  1.
          1   -1    0    0  501    0 -0.00000000000E+00 -0.00000000000E+00 -0.85197807249E+00  0.85197807249E+00  0.00000000000E+00 0. -1.
          2    1    1    2  501    0 -0.22886571644E+02 -0.24395966585E+01  0.15910420703E+04  0.15912085395E+04  0.00000000000E+00 0.  1.
          1    1    1    2  502    0  0.22886571644E+02  0.24395966585E+01  0.17150810217E+03  0.17304558909E+03  0.00000000000E+00 0. -1.
</event>
<event>
 4    1  0.3837333E+003  0.3227763E+02  0.7546771E-02  0.1400784E+00
          2   -1    0    0  502    0  0.00000000000E+00  0.00000000000E+00  0.17852802714E+02  0.17852802714E+02  0.00000000000E+00 0. -1.
          1   -1    0    0  501    0 -0.00000000000E+00 -0.00000000000E+00 -0.86389684840E+03  0.86389684840E+03  0.00000000000E+00 0. -1.
          2    1    1    2  501    0  0.19750043637E+02 -0.25530010515E+02  0.27015759440E+01  0.32390495105E+02  0.00000000000E+00 0. -1.
          1    1    1    2  502    0 -0.19750043637E+02  0.25530010515E+02 -0.84874562162E+03  0.84935915600E+03  0.00000000000E+00 0. -1.
</event>
<event>
 4    1  0.3837333E+003  0.2694813E+02  0.7546771E-02  0.1448130E+00
          2   -1    0    0  502    0  0.00000000000E+00  0.00000000000E+00  0.10581699873E+03  0.10581699873E+03  0.00000000000E+00 0.  1.
          1   -1    0    0  501    0 -0.00000000000E+00 -0.00000000000E+00 -0.85325041767E+01  0.85325041767E+01  0.00000000000E+00 0.  1.
          2    1    1    2  501    0 -0.80982008785E+00  0.26935956027E+02  0.73934354523E+02  0.78692377740E+02  0.00000000000E+00 0.  1.
          1    1    1    2  502    0  0.80982008785E+00 -0.26935956027E+02  0.23350140027E+02  0.35657125164E+02  0.00000000000E+00 0.  1.
</event>
<event>
 4    1  0.3837333E+003  0.2064412E+02  0.7546771E-02  0.1524407E+00
          2   -1    0    0  502    0  0.00000000000E+00  0.00000000000E+00  0.15308782158E+03  0.15308782158E+03  0.00000000000E+00 0.  1.
          1   -1    0    0  501    0 -0.00000000000E+00 -0.00000000000E+00 -0.24557876066E+02  0.24557876066E+02  0.00000000000E+00 0.  1.
          2    1    1    2  501    0  0.97694746031E+01  0.18186179927E+02  0.14790193666E+03  0.14933573800E+03  0.00000000000E+00 0.  1.
          1    1    1    2  502    0 -0.97694746031E+01 -0.18186179927E+02 -0.19371991147E+02  0.28309959650E+02  0.00000000000E+00 0.  1.
</event>
<event>
 4    1  0.3837333E+003  0.2468760E+02  0.7546771E-02  0.1472329E+00
          2   -1    0    0  502    0  0.00000000000E+00  0.00000000000E+00  0.27566301524E+03  0.27566301524E+03  0.00000000000E+00 0.  1.
          1   -1    0    0  501    0 -0.00000000000E+00 -0.00000000000E+00 -0.31097047681E+01  0.31097047681E+01  0.00000000000E+00 0.  1.
          2    1    1    2  501    0  0.71055878017E+01 -0.23642930383E+02  0.21121100750E+03  0.21264892952E+03  0.00000000000E+00 0.  1.
          1    1    1    2  502    0 -0.71055878017E+01  0.23642930383E+02  0.61342302967E+02  0.66123790488E+02  0.00000000000E+00 0.  1.
</event>
<event>
 4    1  0.3837333E+003  0.2128512E+02  0.7546771E-02  0.1515233E+00
          2   -1    0    0  502    0  0.00000000000E+00  0.00000000000E+00  0.51194211824E+00  0.51194211824E+00  0.00000000000E+00 0. -1.
          1   -1    0    0  501    0 -0.00000000000E+00 -0.00000000000E+00 -0.92190472250E+03  0.92190472250E+03  0.00000000000E+00 0. -1.
          2    1    1    2  501    0 -0.17383554377E+02 -0.12282853687E+02 -0.36838896905E+03  0.36900337258E+03  0.00000000000E+00 0. -1.
          1    1    1    2  502    0  0.17383554377E+02  0.12282853687E+02 -0.55300381132E+03  0.55341329203E+03  0.00000000000E+00 0. -1.
</event>
<event>
 4    1  0.3837333E+003  0.2022815E+02  0.7546771E-02  0.1530576E+00
          2   -1    0    0  502    0  0.00000000000E+00  0.00000000000E+00  0.31869181302E+02  0.31869181302E+02  0.00000000000E+00 0.  1.
          1   -1    0    0  501    0 -0.00000000000E+00 -0.00000000000E+00 -0.39786928804E+02  0.39786928804E+02  0.00000000000E+00 0.  1.
          2    1    1    2  501    0  0.85591330632E+01  0.18328100402E+02  0.25526951794E+02  0.32569975300E+02  0.00000000000E+00 0.  1.
          1    1    1    2  502    0 -0.85591330632E+01 -0.18328100402E+02 -0.33444699295E+02  0.39086134806E+02  0.00000000000E+00 0.  1.
</event>
<event>
 4    1  0.3837333E+003  0.2037335E+02  0.7546771E-02  0.1528403E+00
          2   -1    0    0  502    0  0.00000000000E+00  0.00000000000E+00  0.39129966914E+03  0.39129966914E+03  0.00000000000E+00 0. -1.
          1   -1    0    0  501    0 -0.00000000000E+00 -0.00000000000E+00 -0.19002269818E+01  0.19002269818E+01  0.00000000000E+00 0. -1.
          2    1    1    2  501    0  0.19567220562E+02  0.56742689003E+01  0.32537201600E+03  0.32600923644E+03  0.00000000000E+00 0. -1.
          1    1    1    2  502    0 -0.19567220562E+02 -0.56742689003E+01  0.64027426157E+02  0.67190659681E+02  0.00000000000E+00 0. -1.
</event>
<event>
 4    1  0.3837333E+003  0.3054587E+02  0.7546771E-02  0.1414911E+00
          2   -1    0    0  502    0  0.00000000000E+00  0.00000000000E+00  0.54319795062E+03  0.54319795062E+03  0.00000000000E+00 0.  1.
          1   -1    0    0  501    0 -0.00000000000E+00 -0.00000000000E+00 -0.58709465544E+01  0.58709465544E+01  0.00000000000E+00 0. -1.
          2    1    1    2  501    0  0.17343247409E+02  0.25144820901E+02  0.49957030305E+03  0.50050328465E+03  0.00000000000E+00 0.  1.
          1    1    1    2  502    0 -0.17343247409E+02 -0.25144820901E+02  0.37756701009E+02  0.48565612525E+02  0.00000000000E+00 0. -1.
</event>
<event>
 4    1  0.3837333E+003  0.2237358E+02  0.7546771E-02  0.1500518E+00
          2   -1    0    0  502    0  0.00000000000E+00  0.00000000000E+00  0.89953164128E+00  0.89953164128E+00  0.00000000000E+00 0. -1.
          1   -1    0    0  501    0 -0.00000000000E+00 -0.00000000000E+00 -0.58396137392E+03  0.58396137392E+03  0.00000000000E+00 0. -1.
          2    1    1    2  501    0 -0.17464960319E+02  0.13984007057E+02 -0.22810048350E+03  0.22919513054E+03  0.00000000000E+00 0. -1.
          1    1    1    2  502    0  0.17464960319E+02 -0.13984007057E+02 -0.35496135878E+03  0.35566577502E+03  0.00000000000E+00 0. -1.
</event>
<event>
 4    1  0.3837333E+003  0.2124317E+02  0.7546771E-02  0.1515821E+00
          2   -1    0    0  502    0  0.00000000000E+00  0.00000000000E+00  0.25702933319E+03  0.25702933319E+03  0.00000000000E+00 0. -1.
          1   -1    0    0  501    0 -0.00000000000E+00 -0.00000000000E+00 -0.22421492481E+02  0.22421492481E+02  0.00000000000E+00 0. -1.
          2    1    1    2  501    0 -0.10383194759E+02 -0.18532709657E+02  0.25144720710E+03  0.25234296110E+03  0.00000000000E+00 0. -1.
          1    1    1    2  502    0  0.10383194759E+02  0.18532709657E+02 -0.16839366394E+02  0.27107864563E+02  0.00000000000E+00 0. -1.
</event>
<event>
 4    1  0.3837333E+003  0.2846378E+02  0.7546771E-02  0.1433433E+00
          2   -1    0    0  502    0  0.00000000000E+00  0.00000000000E+00  0.23313177031E+01  0.23313177031E+01  0.00000000000E+00 0.  1.
          1   -1    0    0  501    0 -0.00000000000E+00 -0.00000000000E+00 -0.54374259295E+03  0.54374259295E+03  0.00000000000E+00 0. -1.
          2    1    1    2  501    0 -0.94582421735E+01 -0.26846384870E+02 -0.10668600148E+03  0.11041779584E+03  0.00000000000E+00 0.  1.
          1    1    1    2  502    0  0.94582421735E+01  0.26846384870E+02 -0.43472527377E+03  0.43565611482E+03  0.00000000000E+00 0. -1.
</event>
<event>
 4    1  0.3837333E+003  0.2126762E+02  0.7546771E-02  0.1515478E+00
          2   -1    0    0  502    0  0.00000000000E+00  0.00000000000E+00  0.45835956178E+00  0.45835956178E+00  0.00000000000E+00 0.  1.
          1   -1    0    0  501    0 -0.00000000000E+00 -0.00000000000E+00 -0.10000094017E+04  0.10000094017E+04  0.00000000000E+00 0. -1.
          2    1    1    2  501    0  0.20811908719E+02  0.43789950962E+01 -0.55725906212E+03  0.55766475006E+03  0.00000000000E+00 0.  1.
          1    1    1    2  502    0 -0.20811908719E+02 -0.43789950962E+01 -0.44229198002E+03  0.44280301121E+03  0.00000000000E+00 0. -1.
</event>
<event>
 4    1  0.3837333E+003  0.2170374E+02  0.7546771E-02  0.1509450E+00
          2   -1    0    0  502    0  0.00000000000E+00  0.00000000000E+00  0.71633881370E+03  0.71633881370E+03  0.00000000000E+00 0.  1.
          1   -1    0    0  501    0 -0.00000000000E+00 -0.00000000000E+00 -0.18943293199E+01  0.18943293199E+01  0.00000000000E+00 0.  1.
          2    1    1    2  501    0 -0.53851283709E+01 -0.21025053942E+02  0.64738919675E+03  0.64775290395E+03  0.00000000000E+00 0.  1.
          1    1    1    2  502    0  0.53851283709E+01  0.21025053942E+02  0.67055287628E+02  0.70480239073E+02  0.00000000000E+00 0.  1.
</event>
<event>
 4    1  0.3837333E+003  0.2152514E+02  0.7546771E-02  0.1511898E+00
          2   -1    0    0  502    0  0.00000000000E+00  0.00000000000E+00  0.99805032996E+01  0.99805032996E+01  0.00000000000E+00 0.  1.
          1   -1    0    0  501    0 -0.00000000000E+00 -0.00000000000E+00 -0.67002885517E+02  0.67002885517E+02  0.00000000000E+00 0. -1.
          2    1    1    2  501    0  0.11633446631E+02 -0.18110622647E+02 -0.71790457616E+01  0.22690756515E+02  0.00000000000E+00 0.  1.
          1    1    1    2  502    0 -0.11633446631E+02  0.18110622647E+02 -0.49843336456E+02  0.54292632302E+02  0.00000000000E+00 0. -1.
</event>
<event>
 4    1  0.3837333E+003  0.3633576E+02  0.7546771E-02  0.1371408E+00
          2   -1    0    0  502    0  0.00000000000E+00  0.00000000000E+00  0.70547001516E+03  0.70547001516E+03  0.00000000000E+00 0.  1.
          1   -1    0    0  501    0 -0.00000000000E+00 -0.00000000000E+00 -0.18947044746E+02  0.18947044746E+02  0.00000000000E+00 0. -1.
          2    1    1    2  501    0  0.79945435449E+01  0.35445373403E+02  0.68711638356E+03  0.68807645780E+03  0.00000000000E+00 0.  1.
          1    1    1    2  502    0 -0.79945435449E+01 -0.35445373403E+02 -0.59341314775E+00  0.36340602104E+02  0.00000000000E+00 0. -1.
</event>
<event>
 4    1  0.3837333E+003  0.2404835E+02  0.7546771E-02  0.1479738E+00
          2   -1    0    0  502    0  0.00000000000E+00  0.00000000000E+00  0.16019394240E+04  0.16019394240E+04  0.00000000000E+00 0.  1.
          1   -1    0    0  501    0 -0.00000000000E+00 -0.00000000000E+00 -0.16347902578E+02  0.16347902578E+02  0.00000000000E+00 0. -1.
          2    1    1    2  501    0  0.54263489597E+00  0.24042222254E+02  0.15929553016E+04  0.15931368164E+04  0.00000000000E+00 0.  1.
          1    1    1    2  502    0 -0.54263489597E+00 -0.24042222254E+02 -0.73637801740E+01  0.25150510173E+02  0.00000000000E+00 0. -1.
</event>
<event>
 4    1  0.3837333E+003  0.2058517E+02  0.7546771E-02  0.1525271E+00
          2   -1    0    0  502    0  0.00000000000E+00  0.00000000000E+00  0.99783256571E+03  0.99783256571E+03  0.00000000000E+00 0.  1.
          1   -1    0    0  501    0 -0.00000000000E+00 -0.00000000000E+00 -0.14962989470E+01  0.14962989470E+01  0.00000000000E+00 0.  1.
          2    1    1    2  501    0  0.14673562678E+02  0.14437299642E+02  0.92102322979E+03  0.92125324362E+03  0.00000000000E+00 0.  1.
          1    1    1    2  502    0 -0.14673562678E+02 -0.14437299642E+02  0.75313036972E+02  0.78075621039E+02  0.00000000000E+00 0.  1.
</event>
<event>
 4    1  0.3837333E+003  0.2828875E+02  0.7546771E-02  0.1435075E+00
          2   -1    0    0  502    0  0.00000000000E+00  0.00000000000E+00  0.15570704863E+02  0.15570704863E+02  0.00000000000E+00 0.  1.
          1   -1    0    0  501    0 -0.00000000000E+00 -0.00000000000E+00 -0.22408937288E+03  0.22408937288E+03  0.00000000000E+00 0. -1.
          2    1    1    2  501    0 -0.26354584911E+02  0.10280515573E+02  0.93550268490E+00  0.28304210138E+02  0.00000000000E+00 0.  1.
          1    1    1    2  502    0  0.26354584911E+02 -0.10280515573E+02 -0.20945417071E+03  0.21135586761E+03  0.00000000000E+00 0. -1.
</event>
<event>
 4    1  0.3837333E+003  0.2947953E+02  0.7546771E-02  0.1424174E+00
          2   -1    0    0  502    0  0.00000000000E+00  0.00000000000E+00  0.86636927818E+01  0.86636927818E+01  0.00000000000E+00 0.  1.
          1   -1    0    0  501    0 -0.00000000000E+00 -0.00000000000E+00 -0.14628335882E+03  0.14628335882E+03  0.00000000000E+00 0.  1.
          2    1    1    2  501    0  0.12719158459E+02 -0.26594462603E+02 -0.25377231823E+02  0.38897896191E+02  0.00000000000E+00 0.  1.
          1    1    1    2  502    0 -0.12719158459E+02  0.26594462603E+02 -0.11224243421E+03  0.11604915541E+03  0.00000000000E+00 0.  1.
</event>
<event>
 4    1  0.3837333E+003  0.2467867E+02  0.7546771E-02  0.1472430E+00
          2   -1    0    0  502    0  0.00000000000E+00  0.00000000000E+00  0.34400014094E+03  0.34400014094E+03  0.00000000000E+00 0.  1.
          1   -1    0    0  501    0 -0.00000000000E+00 -0.00000000000E+00 -0.11259360173E+02  0.11259360173E+02  0.00000000000E+00 0.  1.
          2    1    1    2  501    0 -0.16370833020E+02  0.18467065875E+02  0.32943770081E+03  0.33036076554E+03  0.00000000000E+00 0.  1.
          1    1    1    2  502    0  0.16370833020E+02 -0.18467065875E+02  0.33030799574E+01  0.24898735570E+02  0.00000000000E+00 0.  1.
</event>
<event>
 4    1  0.3837333E+003  0.2239764E+02  0.7546771E-02  0.1500204E+00
          2   -1    0    0  502    0  0.00000000000E+00  0.00000000000E+00  0.16485055013E+04  0.16485055013E+04  0.00000000000E+00 0. -1.
          1   -1    0    0  501    0 -0.00000000000E+00 -0.00000000000E+00 -0.20307837278E+01  0.20307837278E+01  0.00000000000E+00 0.  1.
          2    1    1    2  501    0 -0.17012113993E+02  0.14568531670E+02  0.15841651155E+04  0.15843234415E+04  0.00000000000E+00 0. -1.
          1    1    1    2  502    0  0.17012113993E+02 -0.14568531670E+02  0.62309602155E+02  0.66212843604E+02  0.00000000000E+00 0.  1.
</event>
<event>
 4    1  0.3837333E+003  0.5232780E+02  0.7546771E-02  0.1288384E+00
          2   -1    0    0  502    0  0.00000000000E+00  0.00000000000E+00  0.11126417861E+04  0.11126417861E+04  0.00000000000E+00 0. -1.
          1   -1    0    0  501    0 -0.00000000000E+00 -0.00000000000E+00 -0.15471929911E+02  0.15471929911E+02  0.00000000000E+00 0. -1.
          2    1    1    2  501    0  0.51736673635E+02 -0.78431892295E+01  0.10658402815E+04  0.10671240344E+04  0.00000000000E+00 0. -1.
          1    1    1    2  502    0 -0.51736673635E+02  0.78431892295E+01  0.31329574637E+02  0.60989681611E+02  0.00000000000E+00 0. -1.
</event>
<event>
 4    1  0.3837333E+003  0.2911043E+02  0.7546771E-02  0.1427487E+00
          2   -1    0    0  502    0  0.00000000000E+00  0.00000000000E+00  0.16653793468E+04  0.16653793468E+04  0.00000000000E+00 0. -1.
          1   -1    0    0  501    0 -0.00000000000E+00 -0.00000000000E+00 -0.83183828052E+00  0.83183828052E+00  0.00000000000E+00 0. -1.
          2    1    1    2  501    0  0.11945175250E+02 -0.26546754116E+02  0.13514064558E+04  0.13517199510E+04  0.00000000000E+00 0. -1.
          1    1    1    2  502    0 -0.11945175250E+02  0.26546754116E+02  0.31314105273E+03  0.31449123402E+03  0.00000000000E+00 0. -1.
</event>
<event>
 4    1  0.3837333E+003  0.3673807E+02  0.7546771E-02  0.1368739E+00
          2   -1    0    0  502    0  0.00000000000E+00  0.00000000000E+00  0.76227269778E+02  0.76227269778E+02  0.00000000000E+00 0.  1.
          1   -1    0    0  501    0 -0.00000000000E+00 -0.00000000000E+00 -0.11326163561E+04  0.11326163561E+04  0.00000000000E+00 0. -1.
          2    1    1    2  501    0  0.16471652467E+02 -0.32838550612E+02  0.71484227922E+02  0.80372138101E+02  0.00000000000E+00 0.  1.
          1    1    1    2  502    0 -0.16471652467E+02  0.32838550612E+02 -0.11278733143E+04  0.11284714878E+04  0.00000000000E+00 0. -1.
</event>
<event>
 4    1  0.3837333E+003  0.2089089E+02  0.7546771E-02  0.1520828E+00
          2   -1    0    0  502    0  0.00000000000E+00  0.00000000000E+00  0.51293541467E+02  0.51293541467E+02  0.00000000000E+00 0. -1.
          1   -1    0    0  501    0 -0.00000000000E+00 -0.00000000000E+00 -0.11026095634E+04  0.11026095634E+04  0.00000000000E+00 0. -1.
          2    1    1    2  501    0  0.19779319575E+01  0.20797045103E+02  0.49063160396E+02  0.53325631810E+02  0.00000000000E+00 0. -1.
          1    1    1    2  502    0 -0.19779319575E+01 -0.20797045103E+02 -0.11003791824E+04  0.11005774731E+04  0.00000000000E+00 0. -1.
</event>
<event>
 4    1  0.3837333E+003  0.3529232E+02  0.7546771E-02  0.1378520E+00
          2   -1    0    0  502    0  0.00000000000E+00  0.00000000000E+00  0.69006602253E+02  0.69006602253E+02  0.00000000000E+00 0.  1.
          1   -1    0    0  501    0 -0.00000000000E+00 -0.00000000000E+00 -0.18462696230E+02  0.18462696230E+02  0.00000000000E+00 0.  1.
          2    1    1    2  501    0  0.13278295090E+02  0.32699133748E+02  0.18730618336E+02  0.39954756058E+02  0.00000000000E+00 0.  1.
          1    1    1    2  502    0 -0.13278295090E+02 -0.32699133748E+02  0.31813287686E+02  0.47514542425E+02  0.00000000000E+00 0.  1.
</event>
<event>
 4    1  0.4250549E+003  0.2102588E+02  0.7546771E-02  0.1518896E+00
          2   -1    0    0  502    0  0.00000000000E+00  0.00000000000E+00  0.14891891843E+04  0.14891891843E+04  0.00000000000E+00 0. -1.
          1   -1    0    0  501    0 -0.00000000000E+00 -0.00000000000E+00 -0.83561785643E+03  0.83561785643E+03  0.00000000000E+00 0. -1.
          2    1    1    2  501    0  0.71093785964E+01  0.19787481594E+02  0.14889826861E+04  0.14891311316E+04  0.00000000000E+00 0. -1.
          1    1    1    2  502    0 -0.71093785964E+01 -0.19787481594E+02 -0.83541135820E+03  0.83567590913E+03  0.00000000000E+00 0. -1.
</event>
<event>
 4    1  0.3837333E+003  0.4519764E+02  0.7546771E-02  0.1320454E+00
          2   -1    0    0  502    0  0.00000000000E+00  0.00000000000E+00  0.11024783629E+04  0.11024783629E+04  0.00000000000E+00 0.  1.
          1   -1    0    0  501    0 -0.00000000000E+00 -0.00000000000E+00 -0.36997325136E+01  0.36997325136E+01  0.00000000000E+00 0. -1.
          2    1    1    2  501    0 -0.37945178185E+02 -0.24555849429E+02  0.94015727268E+03  0.94124307364E+03  0.00000000000E+00 0.  1.
          1    1    1    2  502    0  0.37945178185E+02  0.24555849429E+02  0.15862135767E+03  0.16493502174E+03  0.00000000000E+00 0. -1.
</event>
<event>
 4    1  0.3837333E+003  0.2484247E+02  0.7546771E-02  0.1470573E+00
          2   -1    0    0  502    0  0.00000000000E+00  0.00000000000E+00  0.21536697656E+02  0.21536697656E+02  0.00000000000E+00 0. -1.
          1   -1    0    0  501    0 -0.00000000000E+00 -0.00000000000E+00 -0.47366307344E+02  0.47366307344E+02  0.00000000000E+00 0.  1.
          2    1    1    2  501    0  0.13546302781E+02 -0.20824172965E+02  0.87381761458E+01  0.26334468308E+02  0.00000000000E+00 0. -1.
          1    1    1    2  502    0 -0.13546302781E+02  0.20824172965E+02 -0.34567785833E+02  0.42568536692E+02  0.00000000000E+00 0.  1.
</event>
<event>
 4    1  0.3837333E+003  0.2894824E+02  0.7546771E-02  0.1428962E+00
          2   -1    0    0  502    0  0.00000000000E+00  0.00000000000E+00  0.83003126026E+03  0.83003126026E+03  0.00000000000E+00 0. -1.
          1   -1    0    0  501    0 -0.00000000000E+00 -0.00000000000E+00 -0.23285614753E+02  0.23285614753E+02  0.00000000000E+00 0. -1.
          2    1    1    2  501    0 -0.26959097474E+02 -0.10545516005E+02  0.82067938859E+03  0.82118978300E+03  0.00000000000E+00 0. -1.
          1    1    1    2  502    0  0.26959097474E+02  0.10545516005E+02 -0.13933743089E+02  0.32127092008E+02  0.00000000000E+00 0. -1.
</event>
<event>
 4    1  0.3837333E+003  0.2711845E+02  0.7546771E-02  0.1446422E+00
          2   -1    0    0  502    0  0.00000000000E+00  0.00000000000E+00  0.57945156172E+01  0.57945156172E+01  0.00000000000E+00 0.  1.
          1   -1    0    0  501    0 -0.00000000000E+00 -0.00000000000E+00 -0.12901059968E+03  0.12901059968E+03  0.00000000000E+00 0.  1.
          2    1    1    2  501    0 -0.19353089218E+02 -0.18996528293E+02 -0.53017270901E+02  0.59550324627E+02  0.00000000000E+00 0.  1.
          1    1    1    2  502    0  0.19353089218E+02  0.18996528293E+02 -0.70198813166E+02  0.75254790674E+02  0.00000000000E+00 0.  1.
</event>
<event>
 4    1  0.3837333E+003  0.4995003E+02  0.7546771E-02  0.1298389E+00
          2   -1    0    0  502    0  0.00000000000E+00  0.00000000000E+00  0.20068395510E+04  0.20068395510E+04  0.00000000000E+00 0.  1.
          1   -1    0    0  501    0 -0.00000000000E+00 -0.00000000000E+00 -0.11127480853E+02  0.11127480853E+02  0.00000000000E+00 0. -1.
          2    1    1    2  501    0  0.98991408595E+01  0.48959292800E+02  0.19488046729E+04  0.19494447051E+04  0.00000000000E+00 0.  1.
          1    1    1    2  502    0 -0.98991408595E+01 -0.48959292800E+02  0.46907397287E+02  0.68522326737E+02  0.00000000000E+00 0. -1.
</event>
<event>
 4    1  0.3837333E+003  0.9329938E+02  0.7546771E-02  0.1175954E+00
          2   -1    0    0  502    0  0.00000000000E+00  0.00000000000E+00  0.19679825572E+04  0.19679825572E+04  0.00000000000E+00 0. -1.
          1   -1    0    0  501    0 -0.00000000000E+00 -0.00000000000E+00 -0.44533158878E+01  0.44533158878E+01  0.00000000000E+00 0. -1.
          2    1    1    2  501    0  0.43012076594E+02  0.82793282257E+02  0.90065343787E+03  0.90547301532E+03  0.00000000000E+00 0. -1.
          1    1    1    2  502    0 -0.43012076594E+02 -0.82793282257E+02  0.10628758035E+04  0.10669628578E+04  0.00000000000E+00 0. -1.
</event>
<event>
 4    1  0.3837333E+003  0.2124640E+02  0.7546771E-02  0.1515776E+00
          2   -1    0    0  502    0  0.00000000000E+00  0.00000000000E+00  0.21501039881E+03  0.21501039881E+03  0.00000000000E+00 0.  1.
          1   -1    0    0  501    0 -0.00000000000E+00 -0.00000000000E+00 -0.11342077081E+04  0.11342077081E+04  0.00000000000E+00 0. -1.
          2    1    1    2  501    0 -0.20285816894E+02  0.63162613340E+01  0.21438574134E+03  0.21543596639E+03  0.00000000000E+00 0.  1.
          1    1    1    2  502    0  0.20285816894E+02 -0.63162613340E+01 -0.11335830506E+04  0.11337821405E+04  0.00000000000E+00 0. -1.
</event>
<event>
 4    1  0.3837333E+003  0.2375967E+02  0.7546771E-02  0.1483173E+00
          2   -1    0    0  502    0  0.00000000000E+00  0.00000000000E+00  0.29503464281E+02  0.29503464281E+02  0.00000000000E+00 0. -1.
          1   -1    0    0  501    0 -0.00000000000E+00 -0.00000000000E+00 -0.45361352777E+02  0.45361352777E+02  0.00000000000E+00 0.  1.
          2    1    1    2  501    0 -0.15396676317E+02 -0.18095974365E+02  0.20534094238E+02  0.31403358993E+02  0.00000000000E+00 0. -1.
          1    1    1    2  502    0  0.15396676317E+02  0.18095974365E+02 -0.36391982734E+02  0.43461458066E+02  0.00000000000E+00 0.  1.
</event>
<event>
 4    1  0.3837333E+003  0.2637559E+02  0.7546771E-02  0.1453983E+00
          2   -1    0    0  502    0  0.00000000000E+00  0.00000000000E+00  0.11049999630E+04  0.11049999630E+04  0.00000000000E+00 0.  1.
          1   -1    0    0  501    0 -0.00000000000E+00 -0.00000000000E+00 -0.31001238775E+03  0.31001238775E+03  0.00000000000E+00 0.  1.
          2    1    1    2  501    0 -0.21272907035E+02  0.15592786942E+02  0.11042812031E+04  0.11045961466E+04  0.00000000000E+00 0.  1.
          1    1    1    2  502    0  0.21272907035E+02 -0.15592786942E+02 -0.30929362784E+03  0.31041620415E+03  0.00000000000E+00 0.  1.
</event>
<event>
 4    1  0.3837333E+003  0.2181801E+02  0.7546771E-02  0.1507899E+00
          2   -1    0    0  502    0  0.00000000000E+00  0.00000000000E+00  0.60745737946E+03  0.60745737946E+03  0.00000000000E+00 0.  1.
          1   -1    0    0  501    0 -0.00000000000E+00 -0.00000000000E+00 -0.33896586387E+02  0.33896586387E+02  0.00000000000E+00 0. -1.
          2    1    1    2  501    0 -0.21712788517E+02  0.21401876460E+01  0.60372892869E+03  0.60412303790E+03  0.00000000000E+00 0.  1.
          1    1    1    2  502    0  0.21712788517E+02 -0.21401876460E+01 -0.30168135621E+02  0.37230927939E+02  0.00000000000E+00 0. -1.
</event>
<event>
 4    1  0.3897073E+003  0.3448929E+02  0.7546771E-02  0.1384190E+00
          2   -1    0    0  502    0  0.00000000000E+00  0.00000000000E+00  0.74736206739E+03  0.74736206739E+03  0.00000000000E+00 0.  1.
          1   -1    0    0  501    0 -0.00000000000E+00 -0.00000000000E+00 -0.51819836521E+03  0.51819836521E+03  0.00000000000E+00 0. -1.
          2    1    1    2  501    0  0.34216613794E+02 -0.43283174830E+01  0.74638954832E+03  0.74718596670E+03  0.00000000000E+00 0.  1.
          1    1    1    2  502    0 -0.34216613794E+02  0.43283174830E+01 -0.51722584613E+03  0.51837446590E+03  0.00000000000E+00 0. -1.
</event>
<event>
 4    1  0.3837333E+003  0.3752064E+02  0.7546771E-02  0.1363661E+00
          2   -1    0    0  502    0  0.00000000000E+00  0.00000000000E+00  0.29596658067E+04  0.29596658067E+04  0.00000000000E+00 0. -1.
          1   -1    0    0  501    0 -0.00000000000E+00 -0.00000000000E+00 -0.55770427812E+00  0.55770427812E+00  0.00000000000E+00 0. -1.
          2    1    1    2  501    0 -0.55105338901E+00  0.37516592340E+02  0.20472467905E+04  0.20475905889E+04  0.00000000000E+00 0. -1.
          1    1    1    2  502    0  0.55105338901E+00 -0.37516592340E+02  0.91186131192E+03  0.91263292212E+03  0.00000000000E+00 0. -1.
</event>
<event>
 4    1  0.3837333E+003  0.3990790E+02  0.7546771E-02  0.1349026E+00
          2   -1    0    0  502    0  0.00000000000E+00  0.00000000000E+00  0.96345032278E+03  0.96345032278E+03  0.00000000000E+00 0.  1.
          1   -1    0    0  501    0 -0.00000000000E+00 -0.00000000000E+00 -0.51100403350E+02  0.51100403350E+02  0.00000000000E+00 0. -1.
          2    1    1    2  501    0  0.36262335012E+02 -0.16663848114E+02  0.95517788299E+03  0.95601120753E+03  0.00000000000E+00 0.  1.
          1    1    1    2  502    0 -0.36262335012E+02  0.16663848114E+02 -0.42827963563E+02  0.58539518596E+02  0.00000000000E+00 0. -1.
</event>
<event>
 4    1  0.3837333E+003  0.2117306E+02  0.7546771E-02  0.1516808E+00
          2   -1    0    0  502    0  0.00000000000E+00  0.00000000000E+00  0.42395782825E+01  0.42395782825E+01  0.00000000000E+00 0. -1.
          1   -1    0    0  501    0 -0.00000000000E+00 -0.00000000000E+00 -0.12081126802E+04  0.12081126802E+04  0.00000000000E+00 0.  1.
          2    1    1    2  501    0  0.11924938091E+01 -0.21139456843E+02 -0.22895883624E+02  0.31185255555E+02  0.00000000000E+00 0. -1.
          1    1    1    2  502    0 -0.11924938091E+01  0.21139456843E+02 -0.11809772183E+04  0.11811670030E+04  0.00000000000E+00 0.  1.
</event>
<event>
 4    1  0.3837333E+003  0.3201502E+02  0.7546771E-02  0.1402858E+00
          2   -1    0    0  502    0  0.00000000000E+00  0.00000000000E+00  0.36949149113E+02  0.36949149113E+02  0.00000000000E+00 0.  1.
          1   -1    0    0  501    0 -0.00000000000E+00 -0.00000000000E+00 -0.46416176099E+02  0.46416176099E+02  0.00000000000E+00 0. -1.
          2    1    1    2  501    0 -0.28165270586E+02 -0.15220996800E+02  0.21706844401E+02  0.38680076326E+02  0.00000000000E+00 0.  1.
          1    1    1    2  502    0  0.28165270586E+02  0.15220996800E+02 -0.31173871387E+02  0.44685248886E+02  0.00000000000E+00 0. -1.
</event>
<event>
 4    1  0.3837333E+003  0.2456580E+02  0.7546771E-02  0.1473720E+00
          2   -1    0    0  502    0  0.00000000000E+00  0.00000000000E+00  0.52879061513E+02  0.52879061513E+02  0.00000000000E+00 0. -1.
          1   -1    0    0  501    0 -0.00000000000E+00 -0.00000000000E+00 -0.11921211002E+02  0.11921211002E+02  0.00000000000E+00 0.  1.
          2    1    1    2  501    0 -0.76890938791E+01  0.23331446991E+02  0.27172407717E+02  0.36630838435E+02  0.00000000000E+00 0. -1.
          1    1    1    2  502    0  0.76890938791E+01 -0.23331446991E+02  0.13785442794E+02  0.28169434080E+02  0.00000000000E+00 0.  1.
</event>
<event>
 4    1  0.3837333E+003  0.2315789E+02  0.7546771E-02  0.1490525E+00
          2   -1    0    0  502    0  0.00000000000E+00  0.00000000000E+00  0.63049989807E+03  0.63049989807E+03  0.00000000000E+00 0. -1.
          1   -1    0    0  501    0 -0.00000000000E+00 -0.00000000000E+00 -0.23599602357E+01  0.23599602357E+01  0.00000000000E+00 0.  1.
          2    1    1    2  501    0  0.15959292441E+02  0.16780615732E+02  0.56713090876E+03  0.56760351986E+03  0.00000000000E+00 0. -1.
          1    1    1    2  502    0 -0.15959292441E+02 -0.16780615732E+02  0.61009029074E+02  0.65256338452E+02  0.00000000000E+00 0.  1.
</event>
<event>
 4    1  0.3837333E+003  0.2189930E+02  0.7546771E-02  0.1506802E+00
          2   -1    0    0  502    0  0.00000000000E+00  0.00000000000E+00  0.10027933060E+04  0.10027933060E+04  0.00000000000E+00 0. -1.
          1   -1    0    0  501    0 -0.00000000000E+00 -0.00000000000E+00 -0.16747277153E+03  0.16747277153E+03  0.00000000000E+00 0.  1.
          2    1    1    2  501    0  0.16709723200E+02  0.14155008903E+02  0.10019572418E+04  0.10021965344E+04  0.00000000000E+00 0. -1.
          1    1    1    2  502    0 -0.16709723200E+02 -0.14155008903E+02 -0.16663670730E+03  0.16806954319E+03  0.00000000000E+00 0.  1.
</event>
<event>
 4    1  0.3837333E+003  0.2324692E+02  0.7546771E-02  0.1489421E+00
          2   -1    0    0  502    0  0.00000000000E+00  0.00000000000E+00  0.16190876568E+04  0.16190876568E+04  0.00000000000E+00 0.  1.
          1   -1    0    0  501    0 -0.00000000000E+00 -0.00000000000E+00 -0.12038184085E+01  0.12038184085E+01  0.00000000000E+00 0. -1.
          2    1    1    2  501    0  0.20404538049E+02 -0.11138852874E+02  0.14976764422E+04  0.14978568505E+04  0.00000000000E+00 0.  1.
          1    1    1    2  502    0 -0.20404538049E+02  0.11138852874E+02  0.12020739620E+03  0.12243462466E+03  0.00000000000E+00 0. -1.
</event>
<event>
 4    1  0.3837333E+003  0.2827941E+02  0.7546771E-02  0.1435163E+00
          2   -1    0    0  502    0  0.00000000000E+00  0.00000000000E+00  0.33992474973E+03  0.33992474973E+03  0.00000000000E+00 0.  1.
          1   -1    0    0  501    0 -0.00000000000E+00 -0.00000000000E+00 -0.10767408167E+02  0.10767408167E+02  0.00000000000E+00 0.  1.
          2    1    1    2  501    0  0.22738028055E+02 -0.16813903755E+02  0.31958919684E+03  0.32083793420E+03  0.00000000000E+00 0.  1.
          1    1    1    2  502    0 -0.22738028055E+02  0.16813903755E+02  0.95681447166E+01  0.29854223698E+02  0.00000000000E+00 0.  1.
</event>
<event>
 4    1  0.3837333E+003  0.4127171E+02  0.7546771E-02  0.1341191E+00
          2   -1    0    0  502    0  0.00000000000E+00  0.00000000000E+00  0.18881107415E+04  0.18881107415E+04  0.00000000000E+00 0.  1.
          1   -1    0    0  501    0 -0.00000000000E+00 -0.00000000000E+00 -0.49302965484E+02  0.49302965484E+02  0.00000000000E+00 0.  1.
          2    1    1    2  501    0 -0.31784247780E+02  0.26327095596E+02  0.18792071068E+04  0.18796602630E+04  0.00000000000E+00 0.  1.
          1    1    1    2  502    0  0.31784247780E+02 -0.26327095596E+02 -0.40399330709E+02  0.57753443976E+02  0.00000000000E+00 0.  1.
</event>
<event>
 4    1  0.3837333E+003  0.2450337E+02  0.7546771E-02  0.1474436E+00
          2   -1    0    0  502    0  0.00000000000E+00  0.00000000000E+00  0.12192842751E+04  0.12192842751E+04  0.00000000000E+00 0. -1.
          1   -1    0    0  501    0 -0.00000000000E+00 -0.00000000000E+00 -0.11563242718E+01  0.11563242718E+01  0.00000000000E+00 0.  1.
          2    1    1    2  501    0  0.19129778033E+01  0.24428586127E+02  0.10714401484E+04  0.10717203026E+04  0.00000000000E+00 0. -1.
          1    1    1    2  502    0 -0.19129778033E+01 -0.24428586127E+02  0.14668780244E+03  0.14872029683E+03  0.00000000000E+00 0.  1.
</event>
<event>
 4    1  0.3837333E+003  0.2449781E+02  0.7546771E-02  0.1474500E+00
          2   -1    0    0  502    0  0.00000000000E+00  0.00000000000E+00  0.80283743113E+03  0.80283743113E+03  0.00000000000E+00 0. -1.
          1   -1    0    0  501    0 -0.00000000000E+00 -0.00000000000E+00 -0.79472279293E+00  0.79472279293E+00  0.00000000000E+00 0. -1.
          2    1    1    2  501    0  0.81572765726E+01 -0.23099820600E+02  0.49894100986E+03  0.49954206449E+03  0.00000000000E+00 0. -1.
          1    1    1    2  502    0 -0.81572765726E+01  0.23099820600E+02  0.30310169848E+03  0.30409008944E+03  0.00000000000E+00 0. -1.
</event>
<event>
 4    1  0.3837333E+003  0.2186445E+02  0.7546771E-02  0.1507272E+00
          2   -1    0    0  502    0  0.00000000000E+00  0.00000000000E+00  0.53110645231E+00  0.53110645231E+00  0.00000000000E+00 0.  1.
          1   -1    0    0  501    0 -0.00000000000E+00 -0.00000000000E+00 -0.13954486746E+04  0.13954486746E+04  0.00000000000E+00 0.  1.
          2    1    1    2  501    0 -0.15923310038E+02  0.14983405849E+02 -0.28160247251E+03  0.28245000758E+03  0.00000000000E+00 0.  1.
          1    1    1    2  502    0  0.15923310038E+02 -0.14983405849E+02 -0.11133150956E+04  0.11135297734E+04  0.00000000000E+00 0.  1.
</event>
<event>
 4    1  0.3837333E+003  0.2073421E+02  0.7546771E-02  0.1523094E+00
          2   -1    0    0  502    0  0.00000000000E+00  0.00000000000E+00  0.20633636788E+02  0.20633636788E+02  0.00000000000E+00 0.  1.
          1   -1    0    0  501    0 -0.00000000000E+00 -0.00000000000E+00 -0.22976683251E+02  0.22976683251E+02  0.00000000000E+00 0. -1.
          2    1    1    2  501    0  0.14403850192E+02  0.14914303314E+02  0.54852857896E+01  0.21447510435E+02  0.00000000000E+00 0.  1.
          1    1    1    2  502    0 -0.14403850192E+02 -0.14914303314E+02 -0.78283322525E+01  0.22162809604E+02  0.00000000000E+00 0. -1.
</event>
<event>
 4    1  0.3837333E+003  0.2490688E+02  0.7546771E-02  0.1469848E+00
          2   -1    0    0  502    0  0.00000000000E+00  0.00000000000E+00  0.42935052824E+01  0.42935052824E+01  0.00000000000E+00 0. -1.
          1   -1    0    0  501    0 -0.00000000000E+00 -0.00000000000E+00 -0.23500576297E+03  0.23500576297E+03  0.00000000000E+00 0.  1.
          2    1    1    2  501    0  0.21068953389E+02  0.13283525924E+02 -0.41098169471E+02  0.48056346009E+02  0.00000000000E+00 0. -1.
          1    1    1    2  502    0 -0.21068953389E+02 -0.13283525924E+02 -0.18961408822E+03  0.19124292225E+03  0.00000000000E+00 0.  1.
</event>
<event>
 4    1  0.3837333E+003  0.3311697E+02  0.7546771E-02  0.1394308E+00
          2   -1    0    0  502    0  0.00000000000E+00  0.00000000000E+00  0.30490048443E+01  0.30490048443E+01  0.00000000000E+00 0. -1.
          1   -1    0    0  501    0 -0.00000000000E+00 -0.00000000000E+00 -0.77234425968E+03  0.77234425968E+03  0.00000000000E+00 0. -1.
          2    1    1    2  501    0 -0.75214266737E+01  0.32251538534E+02 -0.10126492358E+03  0.10654256588E+03  0.00000000000E+00 0. -1.
          1    1    1    2  502    0  0.75214266737E+01 -0.32251538534E+02 -0.66803033125E+03  0.66885069864E+03  0.00000000000E+00 0. -1.
</event>
<event>
 4    1  0.3837333E+003  0.4557477E+02  0.7546771E-02  0.1318590E+00
          2   -1    0    0  502    0  0.00000000000E+00  0.00000000000E+00  0.24782609660E+04  0.24782609660E+04  0.00000000000E+00 0.  1.
          1   -1    0    0  501    0 -0.00000000000E+00 -0.00000000000E+00 -0.53352033038E+02  0.53352033038E+02  0.00000000000E+00 0. -1.
          2    1    1    2  501    0 -0.57795261749E+01  0.45206817188E+02  0.24682792794E+04  0.24686999940E+04  0.00000000000E+00 0.  1.
          1    1    1    2  502    0  0.57795261749E+01 -0.45206817188E+02 -0.43370346485E+02  0.62913004994E+02  0.00000000000E+00 0. -1.
</event>
<event>
 4    1  0.3837333E+003  0.3926307E+02  0.7546771E-02  0.1352859E+00
          2   -1    0    0  502    0  0.00000000000E+00  0.00000000000E+00  0.16284931665E+03  0.16284931665E+03  0.00000000000E+00 0.  1.
          1   -1    0    0  501    0 -0.00000000000E+00 -0.00000000000E+00 -0.38782359998E+02  0.38782359998E+02  0.00000000000E+00 0. -1.
          2    1    1    2  501    0 -0.14626099223E+02 -0.36437152646E+02  0.14968593014E+03  0.15474968999E+03  0.00000000000E+00 0.  1.
          1    1    1    2  502    0  0.14626099223E+02  0.36437152646E+02 -0.25618973478E+02  0.46881986663E+02  0.00000000000E+00 0. -1.
</event>
<event>
 4    1  0.3837333E+003  0.4699496E+02  0.7546771E-02  0.1311755E+00
          2   -1    0    0  502    0  0.00000000000E+00  0.00000000000E+00  0.35249177944E+01  0.35249177944E+01  0.00000000000E+00 0. -1.
          1   -1    0    0  501    0 -0.00000000000E+00 -0.00000000000E+00 -0.62730888678E+03  0.62730888678E+03  0.00000000000E+00 0. -1.
          2    1    1    2  501    0 -0.27437818505E+01 -0.46914772173E+02 -0.32288938621E+03  0.32629140337E+03  0.00000000000E+00 0. -1.
          1    1    1    2  502    0  0.27437818505E+01  0.46914772173E+02 -0.30089458277E+03  0.30454240120E+03  0.00000000000E+00 0. -1.
</event>
<event>
 4    1  0.3837333E+003  0.2054969E+02  0.7546771E-02  0.1525792E+00
          2   -1    0    0  502    0  0.00000000000E+00  0.00000000000E+00  0.16208803621E+03  0.16208803621E+03  0.00000000000E+00 0.  1.
          1   -1    0    0  501    0 -0.00000000000E+00 -0.00000000000E+00 -0.30334271358E+01  0.30334271358E+01  0.00000000000E+00 0.  1.
          2    1    1    2  501    0  0.19502008674E+02  0.64777710294E+01  0.11054340427E+03  0.11243724510E+03  0.00000000000E+00 0.  1.
          1    1    1    2  502    0 -0.19502008674E+02 -0.64777710294E+01  0.48511204809E+02  0.52684218243E+02  0.00000000000E+00 0.  1.
</event>
<event>
 4    1  0.3837333E+003  0.2580163E+02  0.7546771E-02  0.1460032E+00
          2   -1    0    0  502    0  0.00000000000E+00  0.00000000000E+00  0.18427190717E+03  0.18427190717E+03  0.00000000000E+00 0.  1.
          1   -1    0    0  501    0 -0.00000000000E+00 -0.00000000000E+00 -0.24990546266E+03  0.24990546266E+03  0.00000000000E+00 0. -1.
          2    1    1    2  501    0 -0.24818927155E+02  0.70530097397E+01  0.18269703705E+03  0.18450997653E+03  0.00000000000E+00 0.  1.
          1    1    1    2  502    0  0.24818927155E+02 -0.70530097397E+01 -0.24833059254E+03  0.24966739331E+03  0.00000000000E+00 0. -1.
</event>
<event>
 4    1  0.3837333E+003  0.3793621E+02  0.7546771E-02  0.1361023E+00
          2   -1    0    0  502    0  0.00000000000E+00  0.00000000000E+00  0.76225433495E+01  0.76225433495E+01  0.00000000000E+00 0.  1.
          1   -1    0    0  501    0 -0.00000000000E+00 -0.00000000000E+00 -0.10562572750E+04  0.10562572750E+04  0.00000000000E+00 0. -1.
          2    1    1    2  501    0 -0.36419036826E+02  0.10621179174E+02 -0.42257334738E+02  0.56787657369E+02  0.00000000000E+00 0.  1.
          1    1    1    2  502    0  0.36419036826E+02 -0.10621179174E+02 -0.10063773969E+04  0.10070921610E+04  0.00000000000E+00 0. -1.
</event>
<event>
 4    1  0.3837333E+003  0.3818460E+02  0.7546771E-02  0.1359465E+00
          2   -1    0    0  502    0  0.00000000000E+00  0.00000000000E+00  0.47615908563E+02  0.47615908563E+02  0.00000000000E+00 0.  1.
          1   -1    0    0  501    0 -0.00000000000E+00 -0.00000000000E+00 -0.43311085341E+02  0.43311085341E+02  0.00000000000E+00 0.  1.
          2    1    1    2  501    0  0.33516610232E+02 -0.18294829469E+02  0.26761152331E+02  0.46628566575E+02  0.00000000000E+00 0.  1.
          1    1    1    2  502    0 -0.33516610232E+02  0.18294829469E+02 -0.22456329109E+02  0.44298427329E+02  0.00000000000E+00 0.  1.
</event>
<event>
 4    1  0.3837333E+003  0.2167271E+02  0.7546771E-02  0.1509873E+00
          2   -1    0    0  502    0  0.00000000000E+00  0.00000000000E+00  0.28563231397E+01  0.28563231397E+01  0.00000000000E+00 0. -1.
          1   -1    0    0  501    0 -0.00000000000E+00 -0.00000000000E+00 -0.33591531253E+03  0.33591531253E+03  0.00000000000E+00 0. -1.
          2    1    1    2  501    0 -0.11127165768E+02  0.18598183485E+02 -0.45509419731E+02  0.50406483028E+02  0.00000000000E+00 0. -1.
          1    1    1    2  502    0  0.11127165768E+02 -0.18598183485E+02 -0.28754956966E+03  0.28836515265E+03  0.00000000000E+00 0. -1.
</event>
<event>
 4    1  0.3837333E+003  0.2113765E+02  0.7546771E-02  0.1517309E+00
          2   -1    0    0  502    0  0.00000000000E+00  0.00000000000E+00  0.52396557537E+00  0.52396557537E+00  0.00000000000E+00 0.  1.
          1   -1    0    0  501    0 -0.00000000000E+00 -0.00000000000E+00 -0.10027097874E+04  0.10027097874E+04  0.00000000000E+00 0. -1.
          2    1    1    2  501    0  0.16849451791E+02 -0.12763073420E+02 -0.30709193765E+03  0.30781854759E+03  0.00000000000E+00 0.  1.
          1    1    1    2  502    0 -0.16849451791E+02  0.12763073420E+02 -0.69509388418E+03  0.69541520539E+03  0.00000000000E+00 0. -1.
</event>
<event>
 4    1  0.3837333E+003  0.2313159E+02  0.7546771E-02  0.1490852E+00
          2   -1    0    0  502    0  0.00000000000E+00  0.00000000000E+00  0.12373405440E+04  0.12373405440E+04  0.00000000000E+00 0. -1.
          1   -1    0    0  501    0 -0.00000000000E+00 -0.00000000000E+00 -0.45230811024E+01  0.45230811024E+01  0.00000000000E+00 0. -1.
          2    1    1    2  501    0  0.22062239439E+02  0.69518295917E+01  0.12069124480E+04  0.12071340967E+04  0.00000000000E+00 0. -1.
          1    1    1    2  502    0 -0.22062239439E+02 -0.69518295917E+01  0.25905014863E+02  0.34729528341E+02  0.00000000000E+00 0. -1.
</event>
<event>
 4    1  0.3837333E+003  0.2082092E+02  0.7546771E-02  0.1521837E+00
          2   -1    0    0  502    0  0.00000000000E+00  0.00000000000E+00  0.74610036108E+02  0.74610036108E+02  0.00000000000E+00 0.  1.
          1   -1    0    0  501    0 -0.00000000000E+00 -0.00000000000E+00 -0.29077196100E+02  0.29077196100E+02  0.00000000000E+00 0. -1.
          2    1    1    2  501    0 -0.47548060602E+01 -0.20270726806E+02  0.69141830476E+02  0.72208747860E+02  0.00000000000E+00 0.  1.
          1    1    1    2  502    0  0.47548060602E+01  0.20270726806E+02 -0.23608990468E+02  0.31478484348E+02  0.00000000000E+00 0. -1.
</event>
<event>
 4    1  0.3837333E+003  0.2027460E+02  0.7546771E-02  0.1529879E+00
          2   -1    0    0  502    0  0.00000000000E+00  0.00000000000E+00  0.10573459347E+02  0.10573459347E+02  0.00000000000E+00 0. -1.
          1   -1    0    0  501    0 -0.00000000000E+00 -0.00000000000E+00 -0.25092226071E+03  0.25092226071E+03  0.00000000000E+00 0.  1.
          2    1    1    2  501    0 -0.19924959290E+02 -0.37490571631E+01  0.18760547913E-01  0.20274609350E+02  0.00000000000E+00 0. -1.
          1    1    1    2  502    0  0.19924959290E+02  0.37490571631E+01 -0.24036756192E+03  0.24122111071E+03  0.00000000000E+00 0.  1.
</event>
<event>
 4    1  0.3837333E+003  0.2526462E+02  0.7546771E-02  0.1465865E+00
          2   -1    0    0  502    0  0.00000000000E+00  0.00000000000E+00  0.11677441242E+04  0.11677441242E+04  0.00000000000E+00 0. -1.
          1   -1    0    0  501    0 -0.00000000000E+00 -0.00000000000E+00 -0.28395891406E+02  0.28395891406E+02  0.00000000000E+00 0.  1.
          2    1    1    2  501    0 -0.20970302791E+02 -0.14090678692E+02  0.11619598418E+04  0.11622344749E+04  0.00000000000E+00 0. -1.
          1    1    1    2  502    0  0.20970302791E+02  0.14090678692E+02 -0.22611609003E+02  0.33905540651E+02  0.00000000000E+00 0.  1.
</event>
<event>
 4    1  0.3837333E+003  0.2302426E+02  0.7546771E-02  0.1492194E+00
          2   -1    0    0  502    0  0.00000000000E+00  0.00000000000E+00  0.97037241166E+03  0.97037241166E+03  0.00000000000E+00 0. -1.
          1   -1    0    0  501    0 -0.00000000000E+00 -0.00000000000E+00 -0.14807881395E+03  0.14807881395E+03  0.00000000000E+00 0.  1.
          2    1    1    2  501    0  0.22154435149E+02 -0.62687640476E+01  0.96933989268E+03  0.96961329608E+03  0.00000000000E+00 0. -1.
          1    1    1    2  502    0 -0.22154435149E+02  0.62687640476E+01 -0.14704629497E+03  0.14883792952E+03  0.00000000000E+00 0.  1.
</event>
<event>
 4    1  0.3837333E+003  0.2992744E+02  0.7546771E-02  0.1420228E+00
          2   -1    0    0  502    0  0.00000000000E+00  0.00000000000E+00  0.44239528263E+03  0.44239528263E+03  0.00000000000E+00 0. -1.
          1   -1    0    0  501    0 -0.00000000000E+00 -0.00000000000E+00 -0.16127786834E+04  0.16127786834E+04  0.00000000000E+00 0.  1.
          2    1    1    2  501    0 -0.18626095758E+02 -0.23424771774E+02  0.44175010590E+03  0.44276269879E+03  0.00000000000E+00 0. -1.
          1    1    1    2  502    0  0.18626095758E+02  0.23424771774E+02 -0.16121335066E+04  0.16124112672E+04  0.00000000000E+00 0.  1.
</event>
<event>
 4    1  0.3837333E+003  0.5088326E+02  0.7546771E-02  0.1294388E+00
          2   -1    0    0  502    0  0.00000000000E+00  0.00000000000E+00  0.15458843509E+04  0.15458843509E+04  0.00000000000E+00 0. -1.
          1   -1    0    0  501    0 -0.00000000000E+00 -0.00000000000E+00 -0.27783346630E+02  0.27783346630E+02  0.00000000000E+00 0. -1.
          2    1    1    2  501    0 -0.48256481166E+02  0.16137469260E+02  0.15217997501E+04  0.15226501848E+04  0.00000000000E+00 0. -1.
          1    1    1    2  502    0  0.48256481166E+02 -0.16137469260E+02 -0.36987457842E+01  0.51017512768E+02  0.00000000000E+00 0. -1.
</event>
<event>
 4    1  0.3837333E+003  0.2599871E+02  0.7546771E-02  0.1457934E+00
          2   -1    0    0  502    0  0.00000000000E+00  0.00000000000E+00  0.38516151570E+00  0.38516151570E+00  0.00000000000E+00 0.  1.
          1   -1    0    0  501    0 -0.00000000000E+00 -0.00000000000E+00 -0.18405584290E+04  0.18405584290E+04  0.00000000000E+00 0. -1.
          2    1    1    2  501    0 -0.12950235968E+02 -0.22543819887E+02 -0.11186223101E+04  0.11189243965E+04  0.00000000000E+00 0.  1.
          1    1    1    2  502    0  0.12950235968E+02  0.22543819887E+02 -0.72155095744E+03  0.72201919408E+03  0.00000000000E+00 0. -1.
</event>
<event>
 4    1  0.3837333E+003  0.2889975E+02  0.7546771E-02  0.1429405E+00
          2   -1    0    0  502    0  0.00000000000E+00  0.00000000000E+00  0.80184126805E+01  0.80184126805E+01  0.00000000000E+00 0. -1.
          1   -1    0    0  501    0 -0.00000000000E+00 -0.00000000000E+00 -0.10792879411E+03  0.10792879411E+03  0.00000000000E+00 0.  1.
          2    1    1    2  501    0  0.24586423355E+02  0.15188920718E+02 -0.39121419901E+02  0.48638267044E+02  0.00000000000E+00 0. -1.
          1    1    1    2  502    0 -0.24586423355E+02 -0.15188920718E+02 -0.60788961524E+02  0.67308939742E+02  0.00000000000E+00 0.  1.
</event>
<event>
 4    1  0.3837333E+003  0.3647218E+02  0.7546771E-02  0.1370499E+00
          2   -1    0    0  502    0  0.00000000000E+00  0.00000000000E+00  0.11100542691E+04  0.11100542691E+04  0.00000000000E+00 0.  1.
          1   -1    0    0  501    0 -0.00000000000E+00 -0.00000000000E+00 -0.25696943286E+04  0.25696943286E+04  0.00000000000E+00 0. -1.
          2    1    1    2  501    0  0.10377409336E+02  0.34964688525E+02  0.11096252204E+04  0.11102244592E+04  0.00000000000E+00 0.  1.
          1    1    1    2  502    0 -0.10377409336E+02 -0.34964688525E+02 -0.25692652798E+04  0.25695241385E+04  0.00000000000E+00 0. -1.
</event>
<event>
 4    1  0.3837333E+003  0.3151070E+02  0.7546771E-02  0.1406907E+00
          2   -1    0    0  502    0  0.00000000000E+00  0.00000000000E+00  0.12212932189E+03  0.12212932189E+03  0.00000000000E+00 0.  1.
          1   -1    0    0  501    0 -0.00000000000E+00 -0.00000000000E+00 -0.17938872333E+02  0.17938872333E+02  0.00000000000E+00 0.  1.
          2    1    1    2  501    0  0.20458361693E+01  0.31444215152E+02  0.10388203943E+03  0.10855598660E+03  0.00000000000E+00 0.  1.
          1    1    1    2  502    0 -0.20458361693E+01 -0.31444215152E+02  0.30841012952E+00  0.31512207618E+02  0.00000000000E+00 0.  1.
</event>
<event>
 4    1  0.3837333E+003  0.2150020E+02  0.7546771E-02  0.1512242E+00
          2   -1    0    0  502    0  0.00000000000E+00  0.00000000000E+00  0.97919153980E+01  0.97919153980E+01  0.00000000000E+00 0. -1.
          1   -1    0    0  501    0 -0.00000000000E+00 -0.00000000000E+00 -0.56769944360E+02  0.56769944360E+02  0.00000000000E+00 0. -1.
          2    1    1    2  501    0  0.80917185774E+01 -0.19919405148E+02 -0.98304521277E+01  0.23640989827E+02  0.00000000000E+00 0. -1.
          1    1    1    2  502    0 -0.80917185774E+01  0.19919405148E+02 -0.37147576835E+02  0.42920869931E+02  0.00000000000E+00 0. -1.
</event>
<event>
 4    1  0.3837333E+003  0.2081525E+02  0.7546771E-02  0.1521919E+00
          2   -1    0    0  502    0  0.00000000000E+00  0.00000000000E+00  0.35761150171E+03  0.35761150171E+03  0.00000000000E+00 0.  1.
          1   -1    0    0  501    0 -0.00000000000E+00 -0.00000000000E+00 -0.67683315774E+02  0.67683315774E+02  0.00000000000E+00 0. -1.
          2    1    1    2  501    0 -0.90475980978E+01  0.18746081106E+02  0.35569963798E+03  0.35630816303E+03  0.00000000000E+00 0.  1.
          1    1    1    2  502    0  0.90475980978E+01 -0.18746081106E+02 -0.65771452042E+02  0.68986654448E+02  0.00000000000E+00 0. -1.
</event>
<event>
 4    1  0.3837333E+003  0.2274391E+02  0.7546771E-02  0.1495739E+00
          2   -1    0    0  502    0  0.00000000000E+00  0.00000000000E+00  0.12946146238E+04  0.12946146238E+04  0.00000000000E+00 0. -1.
          1   -1    0    0  501    0 -0.00000000000E+00 -0.00000000000E+00 -0.33922038114E+02  0.33922038114E+02  0.00000000000E+00 0.  1.
          2    1    1    2  501    0  0.12492827403E+02 -0.19005654962E+02  0.12906908305E+04  0.12908912060E+04  0.00000000000E+00 0. -1.
          1    1    1    2  502    0 -0.12492827403E+02  0.19005654962E+02 -0.29998244857E+02  0.37645455922E+02  0.00000000000E+00 0.  1.
</event>
<event>
 4    1  0.3837333E+003  0.3315239E+02  0.7546771E-02  0.1394039E+00
          2   -1    0    0  502    0  0.00000000000E+00  0.00000000000E+00  0.12058548515E+01  0.12058548515E+01  0.00000000000E+00 0.  1.
          1   -1    0    0  501    0 -0.00000000000E+00 -0.00000000000E+00 -0.12458354344E+04  0.12458354344E+04  0.00000000000E+00 0.  1.
          2    1    1    2  501    0 -0.29289946247E+01 -0.33022747628E+02 -0.29928559960E+03  0.30111617525E+03  0.00000000000E+00 0.  1.
          1    1    1    2  502    0  0.29289946247E+01  0.33022747628E+02 -0.94534397992E+03  0.94592511397E+03  0.00000000000E+00 0.  1.
</event>
<event>
 4    1  0.3837333E+003  0.2558259E+02  0.7546771E-02  0.1462390E+00
          2   -1    0    0  502    0  0.00000000000E+00  0.00000000000E+00  0.61714295553E+01  0.61714295553E+01  0.00000000000E+00 0.  1.
          1   -1    0    0  501    0 -0.00000000000E+00 -0.00000000000E+00 -0.45433455603E+03  0.45433455603E+03  0.00000000000E+00 0. -1.
          2    1    1    2  501    0 -0.24116645564E+02  0.85355955898E+01 -0.22483836472E+02  0.34058653641E+02  0.00000000000E+00 0.  1.
          1    1    1    2  502    0  0.24116645564E+02 -0.85355955898E+01 -0.42567929001E+03  0.42644733195E+03  0.00000000000E+00 0. -1.
</event>
<event>
 4    1  0.3837333E+003  0.2016383E+02  0.7546771E-02  0.1531546E+00
          2   -1    0    0  502    0  0.00000000000E+00  0.00000000000E+00  0.13782026670E+03  0.13782026670E+03  0.00000000000E+00 0. -1.
          1   -1    0    0  501    0 -0.00000000000E+00 -0.00000000000E+00 -0.72777954753E+02  0.72777954753E+02  0.00000000000E+00 0.  1.
          2    1    1    2  501    0  0.60745699138E+00 -0.20154680835E+02  0.13566402484E+03  0.13715432112E+03  0.00000000000E+00 0. -1.
          1    1    1    2  502    0 -0.60745699138E+00  0.20154680835E+02 -0.70621712900E+02  0.73443900336E+02  0.00000000000E+00 0.  1.
</event>
<event>
 4    1  0.3837333E+003  0.2180767E+02  0.7546771E-02  0.1508039E+00
          2   -1    0    0  502    0  0.00000000000E+00  0.00000000000E+00  0.69700536424E+02  0.69700536424E+02  0.00000000000E+00 0.  1.
          1   -1    0    0  501    0 -0.00000000000E+00 -0.00000000000E+00 -0.12225817686E+02  0.12225817686E+02  0.00000000000E+00 0. -1.
          2    1    1    2  501    0 -0.21617252407E+02 -0.28755550468E+01  0.55968160302E+02  0.60066707800E+02  0.00000000000E+00 0.  1.
          1    1    1    2  502    0  0.21617252407E+02  0.28755550468E+01  0.15065584368E+01  0.21859646309E+02  0.00000000000E+00 0. -1.
</event>
<event>
 4    1  0.3837333E+003  0.2026007E+02  0.7546771E-02  0.1530097E+00
          2   -1    0    0  502    0  0.00000000000E+00  0.00000000000E+00  0.52211193116E+03  0.52211193116E+03  0.00000000000E+00 0.  1.
          1   -1    0    0  501    0 -0.00000000000E+00 -0.00000000000E+00 -0.36527497847E+02  0.36527497847E+02  0.00000000000E+00 0. -1.
          2    1    1    2  501    0 -0.96654234228E+01 -0.17805900098E+02  0.51908971248E+03  0.51948493730E+03  0.00000000000E+00 0.  1.
          1    1    1    2  502    0  0.96654234228E+01  0.17805900098E+02 -0.33505279166E+02  0.39154491699E+02  0.00000000000E+00 0. -1.
</event>
<event>
 4    1  0.3837333E+003  0.2506939E+02  0.7546771E-02  0.1468029E+00
          2   -1    0    0  502    0  0.00000000000E+00  0.00000000000E+00  0.21881355341E+02  0.21881355341E+02  0.00000000000E+00 0. -1.
          1   -1    0    0  501    0 -0.00000000000E+00 -0.00000000000E+00 -0.96366469986E+02  0.96366469986E+02  0.00000000000E+00 0.  1.
          2    1    1    2  501    0 -0.10867576948E+02  0.22591374217E+02  0.12292949981E+02  0.27921157515E+02  0.00000000000E+00 0. -1.
          1    1    1    2  502    0  0.10867576948E+02 -0.22591374217E+02 -0.86778064626E+02  0.90326667812E+02  0.00000000000E+00 0.  1.
</event>
<event>
 4    1  0.3837333E+003  0.2162514E+02  0.7546771E-02  0.1510524E+00
          2   -1    0    0  502    0  0.00000000000E+00  0.00000000000E+00  0.37951210459E+03  0.37951210459E+03  0.00000000000E+00 0.  1.
          1   -1    0    0  501    0 -0.00000000000E+00 -0.00000000000E+00 -0.71977128268E+01  0.71977128268E+01  0.00000000000E+00 0.  1.
          2    1    1    2  501    0  0.21397917839E+02  0.31266607508E+01  0.36218475936E+03  0.36282977663E+03  0.00000000000E+00 0.  1.
          1    1    1    2  502    0 -0.21397917839E+02 -0.31266607508E+01  0.10129632398E+02  0.23880040784E+02  0.00000000000E+00 0.  1.
</event>
<event>
 4    1  0.3837333E+003  0.2168299E+02  0.7546771E-02  0.1509733E+00
          2   -1    0    0  502    0  0.00000000000E+00  0.00000000000E+00  0.38495220170E+03  0.38495220170E+03  0.00000000000E+00 0.  1.
          1   -1    0    0  501    0 -0.00000000000E+00 -0.00000000000E+00 -0.23078852896E+01  0.23078852896E+01  0.00000000000E+00 0.  1.
          2    1    1    2  501    0 -0.29932940566E+01 -0.21475382752E+02  0.32418161810E+03  0.32490594545E+03  0.00000000000E+00 0.  1.
          1    1    1    2  502    0  0.29932940566E+01  0.21475382752E+02  0.58462698309E+02  0.62354141540E+02  0.00000000000E+00 0.  1.
</event>
<event>
 4    1  0.3837333E+003  0.2575312E+02  0.7546771E-02  0.1460552E+00
          2   -1    0    0  502    0  0.00000000000E+00  0.00000000000E+00  0.29234254288E+01  0.29234254288E+01  0.00000000000E+00 0.  1.
          1   -1    0    0  501    0 -0.00000000000E+00 -0.00000000000E+00 -0.23703954977E+03  0.23703954977E+03  0.00000000000E+00 0.  1.
          2    1    1    2  501    0  0.21697914608E+02  0.13871685674E+02 -0.92200439168E+02  0.95729536427E+02  0.00000000000E+00 0.  1.
          1    1    1    2  502    0 -0.21697914608E+02 -0.13871685674E+02 -0.14191568517E+03  0.14423343877E+03  0.00000000000E+00 0.  1.
</event>
<event>
 4    1  0.3837333E+003  0.2107352E+02  0.7546771E-02  0.1518218E+00
          2   -1    0    0  502    0  0.00000000000E+00  0.00000000000E+00  0.91530492203E+02  0.91530492203E+02  0.00000000000E+00 0. -1.
          1   -1    0    0  501    0 -0.00000000000E+00 -0.00000000000E+00 -0.22328477823E+03  0.22328477823E+03  0.00000000000E+00 0.  1.
          2    1    1    2  501    0 -0.31336436332E+01 -0.20839235283E+02  0.89810905968E+02  0.92250161411E+02  0.00000000000E+00 0. -1.
          1    1    1    2  502    0  0.31336436332E+01  0.20839235283E+02 -0.22156519200E+03  0.22256510902E+03  0.00000000000E+00 0.  1.
</event>
<event>
 4    1  0.3837333E+003  0.2907747E+02  0.7546771E-02  0.1427786E+00
          2   -1    0    0  502    0  0.00000000000E+00  0.00000000000E+00  0.11490240982E+04  0.11490240982E+04  0.00000000000E+00 0. -1.
          1   -1    0    0  501    0 -0.00000000000E+00 -0.00000000000E+00 -0.29699472360E+02  0.29699472360E+02  0.00000000000E+00 0.  1.
          2    1    1    2  501    0  0.15016841368E+02 -0.24899674519E+02  0.11416772214E+04  0.11420474496E+04  0.00000000000E+00 0. -1.
          1    1    1    2  502    0 -0.15016841368E+02  0.24899674519E+02 -0.22352595588E+02  0.36676120914E+02  0.00000000000E+00 0.  1.
</event>
<event>
 4    1  0.3837333E+003  0.3299846E+02  0.7546771E-02  0.1395208E+00
          2   -1    0    0  502    0  0.00000000000E+00  0.00000000000E+00  0.71664654960E+03  0.71664654960E+03  0.00000000000E+00 0.  1.
          1   -1    0    0  501    0 -0.00000000000E+00 -0.00000000000E+00 -0.17122393087E+01  0.17122393087E+01  0.00000000000E+00 0. -1.
          2    1    1    2  501    0 -0.32907498202E+02  0.24484248251E+01  0.47799488186E+03  0.47913255505E+03  0.00000000000E+00 0.  1.
          1    1    1    2  502    0  0.32907498202E+02 -0.24484248251E+01  0.23693942842E+03  0.23922623385E+03  0.00000000000E+00 0. -1.
</event>
<event>
 4    1  0.3837333E+003  0.3063069E+02  0.7546771E-02  0.1414193E+00
          2   -1    0    0  502    0  0.00000000000E+00  0.00000000000E+00  0.39075973750E+03  0.39075973750E+03  0.00000000000E+00 0.  1.
          1   -1    0    0  501    0 -0.00000000000E+00 -0.00000000000E+00 -0.12898695450E+03  0.12898695450E+03  0.00000000000E+00 0. -1.
          2    1    1    2  501    0 -0.25759613024E+02  0.16573514570E+02  0.38832963284E+03  0.38953580424E+03  0.00000000000E+00 0.  1.
          1    1    1    2  502    0  0.25759613024E+02 -0.16573514570E+02 -0.12655684984E+03  0.13021088775E+03  0.00000000000E+00 0. -1.
</event>
<event>
 4    1  0.3837333E+003  0.2069276E+02  0.7546771E-02  0.1523697E+00
          2   -1    0    0  502    0  0.00000000000E+00  0.00000000000E+00  0.13556752934E+02  0.13556752934E+02  0.00000000000E+00 0. -1.
          1   -1    0    0  501    0 -0.00000000000E+00 -0.00000000000E+00 -0.29726006086E+03  0.29726006086E+03  0.00000000000E+00 0.  1.
          2    1    1    2  501    0  0.11472647928E+02  0.17221163624E+02  0.50685817717E+01  0.21304474840E+02  0.00000000000E+00 0. -1.
          1    1    1    2  502    0 -0.11472647928E+02 -0.17221163624E+02 -0.28877188970E+03  0.28951233895E+03  0.00000000000E+00 0.  1.
</event>
<event>
 4    1  0.3837333E+003  0.2450208E+02  0.7546771E-02  0.1474451E+00
          2   -1    0    0  502    0  0.00000000000E+00  0.00000000000E+00  0.11061276821E+04  0.11061276821E+04  0.00000000000E+00 0.  1.
          1   -1    0    0  501    0 -0.00000000000E+00 -0.00000000000E+00 -0.70474478827E+00  0.70474478827E+00  0.00000000000E+00 0.  1.
          2    1    1    2  501    0  0.54805147631E+00  0.24495954034E+02  0.81804055261E+03  0.81840741556E+03  0.00000000000E+00 0.  1.
          1    1    1    2  502    0 -0.54805147631E+00 -0.24495954034E+02  0.28738238469E+03  0.28842501132E+03  0.00000000000E+00 0.  1.
</event>
<event>
 4    1  0.3837333E+003  0.6900257E+02  0.7546771E-02  0.1231974E+00
          2   -1    0    0  502    0  0.00000000000E+00  0.00000000000E+00  0.20121870542E+04  0.20121870542E+04  0.00000000000E+00 0. -1.
          1   -1    0    0  501    0 -0.00000000000E+00 -0.00000000000E+00 -0.11439646732E+03  0.11439646732E+03  0.00000000000E+00 0. -1.
          2    1    1    2  501    0 -0.34763163504E+02 -0.59606014021E+02  0.20011326475E+04  0.20023219589E+04  0.00000000000E+00 0. -1.
          1    1    1    2  502    0  0.34763163504E+02  0.59606014021E+02 -0.10334206061E+03  0.12426156258E+03  0.00000000000E+00 0. -1.
</event>
<event>
 4    1  0.3837333E+003  0.2311658E+02  0.7546771E-02  0.1491039E+00
          2   -1    0    0  502    0  0.00000000000E+00  0.00000000000E+00  0.10340930528E+04  0.10340930528E+04  0.00000000000E+00 0.  1.
          1   -1    0    0  501    0 -0.00000000000E+00 -0.00000000000E+00 -0.13341977394E+01  0.13341977394E+01  0.00000000000E+00 0. -1.
          2    1    1    2  501    0  0.13841200404E+02  0.18514790439E+02  0.92161471499E+03  0.92190458247E+03  0.00000000000E+00 0.  1.
          1    1    1    2  502    0 -0.13841200404E+02 -0.18514790439E+02  0.11114414010E+03  0.11352266810E+03  0.00000000000E+00 0. -1.
</event>
<event>
 4    1  0.3837333E+003  0.2596916E+02  0.7546771E-02  0.1458247E+00
          2   -1    0    0  502    0  0.00000000000E+00  0.00000000000E+00  0.23175342719E+03  0.23175342719E+03  0.00000000000E+00 0. -1.
          1   -1    0    0  501    0 -0.00000000000E+00 -0.00000000000E+00 -0.17589683371E+03  0.17589683371E+03  0.00000000000E+00 0.  1.
          2    1    1    2  501    0 -0.20471277604E+02 -0.15978857144E+02  0.23006038929E+03  0.23152144566E+03  0.00000000000E+00 0. -1.
          1    1    1    2  502    0  0.20471277604E+02  0.15978857144E+02 -0.17420379581E+03  0.17612881524E+03  0.00000000000E+00 0.  1.
</event>
<event>
 4    1  0.3837333E+003  0.2136938E+02  0.7546771E-02  0.1514056E+00
          2   -1    0    0  502    0  0.00000000000E+00  0.00000000000E+00  0.54505347208E+03  0.54505347208E+03  0.00000000000E+00 0.  1.
          1   -1    0    0  501    0 -0.00000000000E+00 -0.00000000000E+00 -0.23358360237E+01  0.23358360237E+01  0.00000000000E+00 0. -1.
          2    1    1    2  501    0 -0.46776477727E+01 -0.20851136812E+02  0.49054091190E+03  0.49100614716E+03  0.00000000000E+00 0.  1.
          1    1    1    2  502    0  0.46776477727E+01  0.20851136812E+02  0.52176724157E+02  0.56383160951E+02  0.00000000000E+00 0. -1.
</event>
<event>
 4    1  0.3837333E+003  0.2281993E+02  0.7546771E-02  0.1494772E+00
          2   -1    0    0  502    0  0.00000000000E+00  0.00000000000E+00  0.26834272480E+03  0.26834272480E+03  0.00000000000E+00 0.  1.
          1   -1    0    0  501    0 -0.00000000000E+00 -0.00000000000E+00 -0.27415421820E+01  0.27415421820E+01  0.00000000000E+00 0.  1.
          2    1    1    2  501    0 -0.13897673511E+02 -0.18099836207E+02  0.20606176805E+03  0.20732149346E+03  0.00000000000E+00 0.  1.
          1    1    1    2  502    0  0.13897673511E+02  0.18099836207E+02  0.59539414564E+02  0.63762773515E+02  0.00000000000E+00 0.  1.
</event>
<event>
 4    1  0.3837333E+003  0.2517507E+02  0.7546771E-02  0.1466854E+00
          2   -1    0    0  502    0  0.00000000000E+00  0.00000000000E+00  0.42775917631E+03  0.42775917631E+03  0.00000000000E+00 0. -1.
          1   -1    0    0  501    0 -0.00000000000E+00 -0.00000000000E+00 -0.25166562852E+02  0.25166562852E+02  0.00000000000E+00 0. -1.
          2    1    1    2  501    0 -0.64096998516E+01 -0.24345433435E+02  0.42099175349E+03  0.42174380954E+03  0.00000000000E+00 0. -1.
          1    1    1    2  502    0  0.64096998516E+01  0.24345433435E+02 -0.18399140027E+02  0.31181929624E+02  0.00000000000E+00 0. -1.
</event>
<event>
 4    1  0.3837333E+003  0.2119100E+02  0.7546771E-02  0.1516555E+00
          2   -1    0    0  502    0  0.00000000000E+00  0.00000000000E+00  0.28338700793E+02  0.28338700793E+02  0.00000000000E+00 0. -1.
          1   -1    0    0  501    0 -0.00000000000E+00 -0.00000000000E+00 -0.22185642775E+03  0.22185642775E+03  0.00000000000E+00 0. -1.
          2    1    1    2  501    0  0.20542089805E+02  0.52039356805E+01  0.23788390923E+02  0.31858216253E+02  0.00000000000E+00 0. -1.
          1    1    1    2  502    0 -0.20542089805E+02 -0.52039356805E+01 -0.21730611788E+03  0.21833691229E+03  0.00000000000E+00 0. -1.
</event>
<event>
 4    1  0.3837333E+003  0.2416098E+02  0.7546771E-02  0.1478412E+00
          2   -1    0    0  502    0  0.00000000000E+00  0.00000000000E+00  0.12835687688E+04  0.12835687688E+04  0.00000000000E+00 0.  1.
          1   -1    0    0  501    0 -0.00000000000E+00 -0.00000000000E+00 -0.73072394726E+01  0.73072394726E+01  0.00000000000E+00 0.  1.
          2    1    1    2  501    0  0.12991268726E+02 -0.20371056136E+02  0.12631606960E+04  0.12633917432E+04  0.00000000000E+00 0.  1.
          1    1    1    2  502    0 -0.12991268726E+02  0.20371056136E+02  0.13100833369E+02  0.27484265065E+02  0.00000000000E+00 0.  1.
</event>
<event>
 4    1  0.3837333E+003  0.2623536E+02  0.7546771E-02  0.1455444E+00
          2   -1    0    0  502    0  0.00000000000E+00  0.00000000000E+00  0.21730412678E+02  0.21730412678E+02  0.00000000000E+00 0.  1.
          1   -1    0    0  501    0 -0.00000000000E+00 -0.00000000000E+00 -0.83930807349E+02  0.83930807349E+02  0.00000000000E+00 0.  1.
          2    1    1    2  501    0  0.25583813194E+02  0.58105648228E+01  0.10586298691E+02  0.28290703086E+02  0.00000000000E+00 0.  1.
          1    1    1    2  502    0 -0.25583813194E+02 -0.58105648228E+01 -0.72786693362E+02  0.77370516941E+02  0.00000000000E+00 0.  1.
</event>
<event>
 4    1  0.3837333E+003  0.5203640E+02  0.7546771E-02  0.1289577E+00
          2   -1    0    0  502    0  0.00000000000E+00  0.00000000000E+00  0.81998324091E+02  0.81998324091E+02  0.00000000000E+00 0. -1.
          1   -1    0    0  501    0 -0.00000000000E+00 -0.00000000000E+00 -0.45174556568E+02  0.45174556568E+02  0.00000000000E+00 0.  1.
          2    1    1    2  501    0 -0.48563417659E+02  0.18691752749E+02  0.51391302768E+02  0.73135854106E+02  0.00000000000E+00 0. -1.
          1    1    1    2  502    0  0.48563417659E+02 -0.18691752749E+02 -0.14567535245E+02  0.54037026553E+02  0.00000000000E+00 0.  1.
</event>
<event>
 4    1  0.3837333E+003  0.2322206E+02  0.7546771E-02  0.1489728E+00
          2   -1    0    0  502    0  0.00000000000E+00  0.00000000000E+00  0.90903387682E+03  0.90903387682E+03  0.00000000000E+00 0. -1.
          1   -1    0    0  501    0 -0.00000000000E+00 -0.00000000000E+00 -0.11340283713E+03  0.11340283713E+03  0.00000000000E+00 0. -1.
          2    1    1    2  501    0  0.22362943657E+02 -0.62580204733E+01  0.90769499260E+03  0.90799199537E+03  0.00000000000E+00 0. -1.
          1    1    1    2  502    0 -0.22362943657E+02  0.62580204733E+01 -0.11206395291E+03  0.11444471858E+03  0.00000000000E+00 0. -1.
</event>
<event>
 4    1  0.3837333E+003  0.4452199E+02  0.7546771E-02  0.1323847E+00
          2   -1    0    0  502    0  0.00000000000E+00  0.00000000000E+00  0.65826040155E+03  0.65826040155E+03  0.00000000000E+00 0. -1.
          1   -1    0    0  501    0 -0.00000000000E+00 -0.00000000000E+00 -0.10805849070E+02  0.10805849070E+02  0.00000000000E+00 0.  1.
          2    1    1    2  501    0  0.42921644235E+02  0.11829630769E+02  0.60784980937E+03  0.60947813616E+03  0.00000000000E+00 0. -1.
          1    1    1    2  502    0 -0.42921644235E+02 -0.11829630769E+02  0.39604743112E+02  0.59588114460E+02  0.00000000000E+00 0.  1.
</event>
<event>
 4    1  0.3837333E+003  0.3319144E+02  0.7546771E-02  0.1393744E+00
          2   -1    0    0  502    0  0.00000000000E+00  0.00000000000E+00  0.52471338025E+03  0.52471338025E+03  0.00000000000E+00 0.  1.
          1   -1    0    0  501    0 -0.00000000000E+00 -0.00000000000E+00 -0.49121979034E+03  0.49121979034E+03  0.00000000000E+00 0.  1.
          2    1    1    2  501    0  0.27908411977E+02  0.17966425629E+02  0.52362664378E+03  0.52467755239E+03  0.00000000000E+00 0.  1.
          1    1    1    2  502    0 -0.27908411977E+02 -0.17966425629E+02 -0.49013305388E+03  0.49125561820E+03  0.00000000000E+00 0.  1.
</event>
<event>
 4    1  0.3837333E+003  0.2271041E+02  0.7546771E-02  0.1496167E+00
          2   -1    0    0  502    0  0.00000000000E+00  0.00000000000E+00  0.72715739594E+02  0.72715739594E+02  0.00000000000E+00 0.  1.
          1   -1    0    0  501    0 -0.00000000000E+00 -0.00000000000E+00 -0.33426756998E+02  0.33426756998E+02  0.00000000000E+00 0. -1.
          2    1    1    2  501    0  0.22106653806E+02 -0.52017998990E+01  0.66749784630E+02  0.70507422395E+02  0.00000000000E+00 0.  1.
          1    1    1    2  502    0 -0.22106653806E+02  0.52017998990E+01 -0.27460802034E+02  0.35635074197E+02  0.00000000000E+00 0. -1.
</event>
<event>
 4    1  0.3837333E+003  0.2855272E+02  0.7546771E-02  0.1432605E+00
          2   -1    0    0  502    0  0.00000000000E+00  0.00000000000E+00  0.85781088458E+03  0.85781088458E+03  0.00000000000E+00 0. -1.
          1   -1    0    0  501    0 -0.00000000000E+00 -0.00000000000E+00 -0.37198297250E+03  0.37198297250E+03  0.00000000000E+00 0.  1.
          2    1    1    2  501    0  0.23994086466E+02 -0.15477138611E+02  0.85702487027E+03  0.85750037100E+03  0.00000000000E+00 0. -1.
          1    1    1    2  502    0 -0.23994086466E+02  0.15477138611E+02 -0.37119695820E+03  0.37229348608E+03  0.00000000000E+00 0.  1.
</event>
<event>
 4    1  0.3837333E+003  0.3692165E+02  0.7546771E-02  0.1367535E+00
          2   -1    0    0  502    0  0.00000000000E+00  0.00000000000E+00  0.48540431046E+02  0.48540431046E+02  0.00000000000E+00 0.  1.
          1   -1    0    0  501    0 -0.00000000000E+00 -0.00000000000E+00 -0.22421436554E+03  0.22421436554E+03  0.00000000000E+00 0.  1.
          2    1    1    2  501    0 -0.35174267249E+02  0.11224056423E+02  0.39713814346E+02  0.54225414420E+02  0.00000000000E+00 0.  1.
          1    1    1    2  502    0  0.35174267249E+02 -0.11224056423E+02 -0.21538774884E+03  0.21852938216E+03  0.00000000000E+00 0.  1.
</event>
<event>
 4    1  0.3837333E+003  0.2581623E+02  0.7546771E-02  0.1459876E+00
          2   -1    0    0  502    0  0.00000000000E+00  0.00000000000E+00  0.85506698682E+02  0.85506698682E+02  0.00000000000E+00 0. -1.
          1   -1    0    0  501    0 -0.00000000000E+00 -0.00000000000E+00 -0.31976263215E+02  0.31976263215E+02  0.00000000000E+00 0. -1.
          2    1    1    2  501    0  0.25816070310E+02  0.90529292284E-01  0.77848108758E+02  0.82017106259E+02  0.00000000000E+00 0. -1.
          1    1    1    2  502    0 -0.25816070310E+02 -0.90529292284E-01 -0.24317673291E+02  0.35465855638E+02  0.00000000000E+00 0. -1.
</event>
<event>
 4    1  0.3837333E+003  0.2534400E+02  0.7546771E-02  0.1464992E+00
          2   -1    0    0  502    0  0.00000000000E+00  0.00000000000E+00  0.14662080963E+03  0.14662080963E+03  0.00000000000E+00 0. -1.
          1   -1    0    0  501    0 -0.00000000000E+00 -0.00000000000E+00 -0.17318985006E+02  0.17318985006E+02  0.00000000000E+00 0. -1.
          2    1    1    2  501    0  0.24956784012E+02 -0.44132820632E+01  0.13549924898E+03  0.13784906456E+03  0.00000000000E+00 0. -1.
          1    1    1    2  502    0 -0.24956784012E+02  0.44132820632E+01 -0.61974243606E+01  0.26090730068E+02  0.00000000000E+00 0. -1.
</event>
<event>
 4    1  0.3837333E+003  0.2431541E+02  0.7546771E-02  0.1476610E+00
          2   -1    0    0  502    0  0.00000000000E+00  0.00000000000E+00  0.11291332468E+04  0.11291332468E+04  0.00000000000E+00 0.  1.
          1   -1    0    0  501    0 -0.00000000000E+00 -0.00000000000E+00 -0.36435634703E+02  0.36435634703E+02  0.00000000000E+00 0. -1.
          2    1    1    2  501    0 -0.22003625169E+02  0.10347936880E+02  0.11249304487E+04  0.11251932072E+04  0.00000000000E+00 0.  1.
          1    1    1    2  502    0  0.22003625169E+02 -0.10347936880E+02 -0.32232836565E+02  0.40375674252E+02  0.00000000000E+00 0. -1.
</event>
<event>
 4    1  0.3837333E+003  0.2736476E+02  0.7546771E-02  0.1443978E+00
          2   -1    0    0  502    0  0.00000000000E+00  0.00000000000E+00  0.17427821844E+03  0.17427821844E+03  0.00000000000E+00 0. -1.
          1   -1    0    0  501    0 -0.00000000000E+00 -0.00000000000E+00 -0.86390755500E+02  0.86390755500E+02  0.00000000000E+00 0. -1.
          2    1    1    2  501    0 -0.73016114764E+01  0.26372643100E+02  0.17099571083E+03  0.17317148425E+03  0.00000000000E+00 0. -1.
          1    1    1    2  502    0  0.73016114764E+01 -0.26372643100E+02 -0.83108247893E+02  0.87497489690E+02  0.00000000000E+00 0. -1.
</event>
<event>
 4    1  0.3837333E+003  0.2041454E+02  0.7546771E-02  0.1527790E+00
          2   -1    0    0  502    0  0.00000000000E+00  0.00000000000E+00  0.11386055425E+04  0.11386055425E+04  0.00000000000E+00 0. -1.
          1   -1    0    0  501    0 -0.00000000000E+00 -0.00000000000E+00 -0.44371339741E+01  0.44371339741E+01  0.00000000000E+00 0.  1.
          2    1    1    2  501    0  0.78560936482E+01 -0.18842381750E+02  0.11145257524E+04  0.11147127012E+04  0.00000000000E+00 0. -1.
          1    1    1    2  502    0 -0.78560936482E+01  0.18842381750E+02  0.19642656166E+02  0.28329975268E+02  0.00000000000E+00 0.  1.
</event>
<event>
 4    1  0.3837333E+003  0.2339419E+02  0.7546771E-02  0.1487607E+00
          2   -1    0    0  502    0  0.00000000000E+00  0.00000000000E+00  0.67760522290E+03  0.67760522290E+03  0.00000000000E+00 0. -1.
          1   -1    0    0  501    0 -0.00000000000E+00 -0.00000000000E+00 -0.25923325309E+02  0.25923325309E+02  0.00000000000E+00 0.  1.
          2    1    1    2  501    0  0.17829561362E+02 -0.15145784924E+02  0.67208199140E+03  0.67248902684E+03  0.00000000000E+00 0. -1.
          1    1    1    2  502    0 -0.17829561362E+02  0.15145784924E+02 -0.20400093808E+02  0.31039521367E+02  0.00000000000E+00 0.  1.
</event>
<event>
 4    1  0.3837333E+003  0.8020263E+02  0.7546771E-02  0.1203378E+00
          2   -1    0    0  502    0  0.00000000000E+00  0.00000000000E+00  0.10709465978E+04  0.10709465978E+04  0.00000000000E+00 0. -1.
          1   -1    0    0  501    0 -0.00000000000E+00 -0.00000000000E+00 -0.75646495976E+01  0.75646495976E+01  0.00000000000E+00 0. -1.
          2    1    1    2  501    0  0.58904935920E+02 -0.54430418223E+02  0.77644402927E+03  0.78057529585E+03  0.00000000000E+00 0. -1.
          1    1    1    2  502    0 -0.58904935920E+02  0.54430418223E+02  0.28693791898E+03  0.29793595159E+03  0.00000000000E+00 0. -1.
</event>
<event>
 4    1  0.3837333E+003  0.3374510E+02  0.7546771E-02  0.1389607E+00
          2   -1    0    0  502    0  0.00000000000E+00  0.00000000000E+00  0.23084919454E+02  0.23084919454E+02  0.00000000000E+00 0.  1.
          1   -1    0    0  501    0 -0.00000000000E+00 -0.00000000000E+00 -0.39809706514E+03  0.39809706514E+03  0.00000000000E+00 0. -1.
          2    1    1    2  501    0 -0.33167004867E+02  0.62194660225E+01  0.96064910399E+01  0.35085846713E+02  0.00000000000E+00 0.  1.
          1    1    1    2  502    0  0.33167004867E+02 -0.62194660225E+01 -0.38461863672E+03  0.38609613788E+03  0.00000000000E+00 0. -1.
</event>
<event>
 4    1  0.3837333E+003  0.2336797E+02  0.7546771E-02  0.1487929E+00
          2   -1    0    0  502    0  0.00000000000E+00  0.00000000000E+00  0.80310463076E+03  0.80310463076E+03  0.00000000000E+00 0. -1.
          1   -1    0    0  501    0 -0.00000000000E+00 -0.00000000000E+00 -0.18357603222E+01  0.18357603222E+01  0.00000000000E+00 0.  1.
          2    1    1    2  501    0  0.12703889199E+02  0.19613082245E+02  0.71998756100E+03  0.72036667732E+03  0.00000000000E+00 0. -1.
          1    1    1    2  502    0 -0.12703889199E+02 -0.19613082245E+02  0.81281309440E+02  0.84573713766E+02  0.00000000000E+00 0.  1.
</event>
<event>
 4    1  0.3837333E+003  0.2132247E+02  0.7546771E-02  0.1514710E+00
          2   -1    0    0  502    0  0.00000000000E+00  0.00000000000E+00  0.17479114921E+02  0.17479114921E+02  0.00000000000E+00 0.  1.
          1   -1    0    0  501    0 -0.00000000000E+00 -0.00000000000E+00 -0.32692586813E+02  0.32692586813E+02  0.00000000000E+00 0.  1.
          2    1    1    2  501    0 -0.13556479568E+02  0.16458108591E+02 -0.18947630526E+02  0.28524729258E+02  0.00000000000E+00 0.  1.
          1    1    1    2  502    0  0.13556479568E+02 -0.16458108591E+02  0.37341586340E+01  0.21646972476E+02  0.00000000000E+00 0.  1.
</event>
<event>
 4    1  0.3837333E+003  0.2420374E+02  0.7546771E-02  0.1477912E+00
          2   -1    0    0  502    0  0.00000000000E+00  0.00000000000E+00  0.52908849226E+03  0.52908849226E+03  0.00000000000E+00 0.  1.
          1   -1    0    0  501    0 -0.00000000000E+00 -0.00000000000E+00 -0.45049149589E+01  0.45049149589E+01  0.00000000000E+00 0. -1.
          2    1    1    2  501    0 -0.93893405341E+01  0.22308325397E+02  0.49399331905E+03  0.49458590798E+03  0.00000000000E+00 0.  1.
          1    1    1    2  502    0  0.93893405341E+01 -0.22308325397E+02  0.30590258250E+02  0.39007499247E+02  0.00000000000E+00 0. -1.
</event>
<event>
 4    1  0.3837333E+003  0.2915480E+02  0.7546771E-02  0.1427086E+00
          2   -1    0    0  502    0  0.00000000000E+00  0.00000000000E+00  0.38184996717E+03  0.38184996717E+03  0.00000000000E+00 0.  1.
          1   -1    0    0  501    0 -0.00000000000E+00 -0.00000000000E+00 -0.23439383899E+01  0.23439383899E+01  0.00000000000E+00 0.  1.
          2    1    1    2  501    0 -0.29016974882E+02  0.28314976418E+01  0.23284086252E+03  0.23465904940E+03  0.00000000000E+00 0.  1.
          1    1    1    2  502    0  0.29016974882E+02 -0.28314976418E+01  0.14666516626E+03  0.14953485615E+03  0.00000000000E+00 0.  1.
</event>
<event>
 4    1  0.3837333E+003  0.2125028E+02  0.7546771E-02  0.1515721E+00
          2   -1    0    0  502    0  0.00000000000E+00  0.00000000000E+00  0.60926086598E+03  0.60926086598E+03  0.00000000000E+00 0. -1.
          1   -1    0    0  501    0 -0.00000000000E+00 -0.00000000000E+00 -0.76144439935E+01  0.76144439935E+01  0.00000000000E+00 0.  1.
          2    1    1    2  501    0 -0.19271986296E+02  0.89534876737E+01  0.59386508351E+03  0.59424516137E+03  0.00000000000E+00 0. -1.
          1    1    1    2  502    0  0.19271986296E+02 -0.89534876737E+01  0.77813384737E+01  0.22630148602E+02  0.00000000000E+00 0.  1.
</event>
<event>
 4    1  0.3837333E+003  0.3115304E+02  0.7546771E-02  0.1409834E+00
          2   -1    0    0  502    0  0.00000000000E+00  0.00000000000E+00  0.26100279056E+02  0.26100279056E+02  0.00000000000E+00 0.  1.
          1   -1    0    0  501    0 -0.00000000000E+00 -0.00000000000E+00 -0.37067930084E+03  0.37067930084E+03  0.00000000000E+00 0.  1.
          2    1    1    2  501    0 -0.26227265649E+02 -0.16811964096E+02  0.15886838393E+02  0.34970033376E+02  0.00000000000E+00 0.  1.
          1    1    1    2  502    0  0.26227265649E+02  0.16811964096E+02 -0.36046586018E+03  0.36180954652E+03  0.00000000000E+00 0.  1.
</event>
<event>
 4    1  0.3837333E+003  0.3816845E+02  0.7546771E-02  0.1359566E+00
          2   -1    0    0  502    0  0.00000000000E+00  0.00000000000E+00  0.14321871646E+01  0.14321871646E+01  0.00000000000E+00 0. -1.
          1   -1    0    0  501    0 -0.00000000000E+00 -0.00000000000E+00 -0.18621464099E+04  0.18621464099E+04  0.00000000000E+00 0. -1.
          2    1    1    2  501    0 -0.82889339505E+01  0.37257541595E+02 -0.30269836397E+03  0.30509528083E+03  0.00000000000E+00 0. -1.
          1    1    1    2  502    0  0.82889339505E+01 -0.37257541595E+02 -0.15580158587E+04  0.15584833162E+04  0.00000000000E+00 0. -1.
</event>
<event>
 4    1  0.3837333E+003  0.1269923E+03  0.7546771E-02  0.1123847E+00
          2   -1    0    0  502    0  0.00000000000E+00  0.00000000000E+00  0.31650008821E+03  0.31650008821E+03  0.00000000000E+00 0. -1.
          1   -1    0    0  501    0 -0.00000000000E+00 -0.00000000000E+00 -0.51354821567E+02  0.51354821567E+02  0.00000000000E+00 0.  1.
          2    1    1    2  501    0  0.89256196599E+02  0.90334734880E+02  0.11632905419E+03  0.17221928407E+03  0.00000000000E+00 0. -1.
          1    1    1    2  502    0 -0.89256196599E+02 -0.90334734880E+02  0.14881621245E+03  0.19563562571E+03  0.00000000000E+00 0.  1.
</event>
<event>
 4    1  0.3837333E+003  0.2679780E+02  0.7546771E-02  0.1449650E+00
          2   -1    0    0  502    0  0.00000000000E+00  0.00000000000E+00  0.94259719693E+03  0.94259719693E+03  0.00000000000E+00 0.  1.
          1   -1    0    0  501    0 -0.00000000000E+00 -0.00000000000E+00 -0.55290447206E+01  0.55290447206E+01  0.00000000000E+00 0. -1.
          2    1    1    2  501    0 -0.33411508558E+01 -0.26588694953E+02  0.90872629066E+03  0.90912133037E+03  0.00000000000E+00 0.  1.
          1    1    1    2  502    0  0.33411508558E+01  0.26588694953E+02  0.28341861553E+02  0.39004911289E+02  0.00000000000E+00 0. -1.
</event>
<event>
 4    1  0.3837333E+003  0.4289038E+02  0.7546771E-02  0.1332333E+00
          2   -1    0    0  502    0  0.00000000000E+00  0.00000000000E+00  0.22218940498E+02  0.22218940498E+02  0.00000000000E+00 0. -1.
          1   -1    0    0  501    0 -0.00000000000E+00 -0.00000000000E+00 -0.43172760760E+03  0.43172760760E+03  0.00000000000E+00 0. -1.
          2    1    1    2  501    0 -0.30422645797E+02  0.30233219324E+02 -0.70203420422E+00  0.42896127797E+02  0.00000000000E+00 0. -1.
          1    1    1    2  502    0  0.30422645797E+02 -0.30233219324E+02 -0.40880663289E+03  0.41105042030E+03  0.00000000000E+00 0. -1.
</event>
<event>
 4    1  0.3837333E+003  0.2385556E+02  0.7546771E-02  0.1482025E+00
          2   -1    0    0  502    0  0.00000000000E+00  0.00000000000E+00  0.15058979168E+04  0.15058979168E+04  0.00000000000E+00 0.  1.
          1   -1    0    0  501    0 -0.00000000000E+00 -0.00000000000E+00 -0.43065053616E+00  0.43065053616E+00  0.00000000000E+00 0.  1.
          2    1    1    2  501    0 -0.19827632364E+02  0.13264722702E+02  0.10163157353E+04  0.10165956727E+04  0.00000000000E+00 0.  1.
          1    1    1    2  502    0  0.19827632364E+02 -0.13264722702E+02  0.48915153091E+03  0.48973289461E+03  0.00000000000E+00 0.  1.
</event>
<event>
 4    1  0.3837333E+003  0.4609201E+02  0.7546771E-02  0.1316067E+00
          2   -1    0    0  502    0  0.00000000000E+00  0.00000000000E+00  0.14161428203E+03  0.14161428203E+03  0.00000000000E+00 0. -1.
          1   -1    0    0  501    0 -0.00000000000E+00 -0.00000000000E+00 -0.36608934798E+03  0.36608934798E+03  0.00000000000E+00 0. -1.
          2    1    1    2  501    0 -0.34132358721E+02  0.30975080444E+02  0.13635862982E+03  0.14393800557E+03  0.00000000000E+00 0. -1.
          1    1    1    2  502    0  0.34132358721E+02 -0.30975080444E+02 -0.36083369577E+03  0.36376562444E+03  0.00000000000E+00 0. -1.
</event>
<event>
 4    1  0.3837333E+003  0.2307051E+02  0.7546771E-02  0.1491615E+00
          2   -1    0    0  502    0  0.00000000000E+00  0.00000000000E+00  0.24254523543E+01  0.24254523543E+01  0.00000000000E+00 0.  1.
          1   -1    0    0  501    0 -0.00000000000E+00 -0.00000000000E+00 -0.27955810766E+03  0.27955810766E+03  0.00000000000E+00 0.  1.
          2    1    1    2  501    0  0.37026994486E+01  0.22771434266E+02 -0.73185552197E+02  0.76735736473E+02  0.00000000000E+00 0.  1.
          1    1    1    2  502    0 -0.37026994486E+01 -0.22771434266E+02 -0.20394710311E+03  0.20524782354E+03  0.00000000000E+00 0.  1.
</event>
<event>
 4    1  0.3837333E+003  0.3499884E+02  0.7546771E-02  0.1380571E+00
          2   -1    0    0  502    0  0.00000000000E+00  0.00000000000E+00  0.10607718935E+03  0.10607718935E+03  0.00000000000E+00 0.  1.
          1   -1    0    0  501    0 -0.00000000000E+00 -0.00000000000E+00 -0.91315340540E+02  0.91315340540E+02  0.00000000000E+00 0. -1.
          2    1    1    2  501    0  0.14297467463E+02  0.31945288542E+02  0.99625949031E+02  0.10559473830E+03  0.00000000000E+00 0.  1.
          1    1    1    2  502    0 -0.14297467463E+02 -0.31945288542E+02 -0.84864100218E+02  0.91797791595E+02  0.00000000000E+00 0. -1.
</event>
<event>
 4    1  0.3837333E+003  0.2091428E+02  0.7546771E-02  0.1520492E+00
          2   -1    0    0  502    0  0.00000000000E+00  0.00000000000E+00  0.14561647437E+04  0.14561647437E+04  0.00000000000E+00 0.  1.
          1   -1    0    0  501    0 -0.00000000000E+00 -0.00000000000E+00 -0.20697985882E+01  0.20697985882E+01  0.00000000000E+00 0.  1.
          2    1    1    2  501    0 -0.10789385483E+02  0.17916365293E+02  0.14011846522E+04  0.14013407282E+04  0.00000000000E+00 0.  1.
          1    1    1    2  502    0  0.10789385483E+02 -0.17916365293E+02  0.52910292947E+02  0.56893814111E+02  0.00000000000E+00 0.  1.
</event>
<event>
 4    1  0.3837333E+003  0.2444004E+02  0.7546771E-02  0.1475166E+00
          2   -1    0    0  502    0  0.00000000000E+00  0.00000000000E+00  0.29275523249E+01  0.29275523249E+01  0.00000000000E+00 0. -1.
          1   -1    0    0  501    0 -0.00000000000E+00 -0.00000000000E+00 -0.12832538120E+04  0.12832538120E+04  0.00000000000E+00 0. -1.
          2    1    1    2  501    0  0.22816426974E+02 -0.87593551294E+01 -0.50408710097E+02  0.56021011199E+02  0.00000000000E+00 0. -1.
          1    1    1    2  502    0 -0.22816426974E+02  0.87593551294E+01 -0.12299175495E+04  0.12301603531E+04  0.00000000000E+00 0. -1.
</event>
<event>
 4    1  0.3837333E+003  0.2858297E+02  0.7546771E-02  0.1432324E+00
          2   -1    0    0  502    0  0.00000000000E+00  0.00000000000E+00  0.50158080903E+01  0.50158080903E+01  0.00000000000E+00 0.  1.
          1   -1    0    0  501    0 -0.00000000000E+00 -0.00000000000E+00 -0.17443273050E+03  0.17443273050E+03  0.00000000000E+00 0.  1.
          2    1    1    2  501    0  0.14094206415E+02 -0.24866415449E+02 -0.10779714085E+03  0.11152223477E+03  0.00000000000E+00 0.  1.
          1    1    1    2  502    0 -0.14094206415E+02  0.24866415449E+02 -0.61619781562E+02  0.67926303826E+02  0.00000000000E+00 0.  1.
</event>
<event>
 4    1  0.3837333E+003  0.2310199E+02  0.7546771E-02  0.1491221E+00
          2   -1    0    0  502    0  0.00000000000E+00  0.00000000000E+00  0.83553072112E+00  0.83553072112E+00  0.00000000000E+00 0. -1.
          1   -1    0    0  501    0 -0.00000000000E+00 -0.00000000000E+00 -0.13104655645E+04  0.13104655645E+04  0.00000000000E+00 0. -1.
          2    1    1    2  501    0  0.23098907660E+02  0.37747251710E+00 -0.18540785978E+03  0.18684158126E+03  0.00000000000E+00 0. -1.
          1    1    1    2  502    0 -0.23098907660E+02 -0.37747251710E+00 -0.11242221740E+04  0.11244595139E+04  0.00000000000E+00 0. -1.
</event>
<event>
 4    1  0.3837333E+003  0.2459716E+02  0.7546771E-02  0.1473361E+00
          2   -1    0    0  502    0  0.00000000000E+00  0.00000000000E+00  0.13096318526E+04  0.13096318526E+04  0.00000000000E+00 0.  1.
          1   -1    0    0  501    0 -0.00000000000E+00 -0.00000000000E+00 -0.18057121439E+01  0.18057121439E+01  0.00000000000E+00 0. -1.
          2    1    1    2  501    0  0.24508368007E+02  0.20881119356E+01  0.12195661267E+04  0.12198141488E+04  0.00000000000E+00 0.  1.
          1    1    1    2  502    0 -0.24508368007E+02 -0.20881119356E+01  0.88260013754E+02  0.91623415903E+02  0.00000000000E+00 0. -1.
</event>
<event>
 4    1  0.3837333E+003  0.2093668E+02  0.7546771E-02  0.1520171E+00
          2   -1    0    0  502    0  0.00000000000E+00  0.00000000000E+00  0.26580221033E+03  0.26580221033E+03  0.00000000000E+00 0.  1.
          1   -1    0    0  501    0 -0.00000000000E+00 -0.00000000000E+00 -0.13383949670E+03  0.13383949670E+03  0.00000000000E+00 0. -1.
          2    1    1    2  501    0  0.17145799559E+02 -0.12015240881E+02  0.26456732256E+03  0.26539444723E+03  0.00000000000E+00 0.  1.
          1    1    1    2  502    0 -0.17145799559E+02  0.12015240881E+02 -0.13260460892E+03  0.13424725980E+03  0.00000000000E+00 0. -1.
</event>
<event>
 4    1  0.3837333E+003  0.2031752E+02  0.7546771E-02  0.1529236E+00
          2   -1    0    0  502    0  0.00000000000E+00  0.00000000000E+00  0.20280603034E+02  0.20280603034E+02  0.00000000000E+00 0. -1.
          1   -1    0    0  501    0 -0.00000000000E+00 -0.00000000000E+00 -0.42146994625E+02  0.42146994625E+02  0.00000000000E+00 0.  1.
          2    1    1    2  501    0  0.18177710197E+02  0.90759188710E+01  0.11511660840E+02  0.23352083134E+02  0.00000000000E+00 0. -1.
          1    1    1    2  502    0 -0.18177710197E+02 -0.90759188710E+01 -0.33378052431E+02  0.39075514526E+02  0.00000000000E+00 0.  1.
</event>
<event>
 4    1  0.3837333E+003  0.2222375E+02  0.7546771E-02  0.1502482E+00
          2   -1    0    0  502    0  0.00000000000E+00  0.00000000000E+00  0.40107753709E+02  0.40107753709E+02  0.00000000000E+00 0. -1.
          1   -1    0    0  501    0 -0.00000000000E+00 -0.00000000000E+00 -0.87246235632E+02  0.87246235632E+02  0.00000000000E+00 0. -1.
          2    1    1    2  501    0  0.21412625004E+02 -0.59493489169E+01  0.35443114339E+02  0.41834311470E+02  0.00000000000E+00 0. -1.
          1    1    1    2  502    0 -0.21412625004E+02  0.59493489169E+01 -0.82581596262E+02  0.85519677871E+02  0.00000000000E+00 0. -1.
</event>
<event>
 4    1  0.3837333E+003  0.2408855E+02  0.7546771E-02  0.1479264E+00
          2   -1    0    0  502    0  0.00000000000E+00  0.00000000000E+00  0.12130960637E+03  0.12130960637E+03  0.00000000000E+00 0.  1.
          1   -1    0    0  501    0 -0.00000000000E+00 -0.00000000000E+00 -0.15540339890E+03  0.15540339890E+03  0.00000000000E+00 0.  1.
          2    1    1    2  501    0  0.59617539369E+01  0.23339141960E+02  0.11916367331E+03  0.12157400666E+03  0.00000000000E+00 0.  1.
          1    1    1    2  502    0 -0.59617539369E+01 -0.23339141960E+02 -0.15325746584E+03  0.15513899862E+03  0.00000000000E+00 0.  1.
</event>
<event>
 4    1  0.3837333E+003  0.7845604E+02  0.7546771E-02  0.1207478E+00
          2   -1    0    0  502    0  0.00000000000E+00  0.00000000000E+00  0.36401048252E+03  0.36401048252E+03  0.00000000000E+00 0.  1.
          1   -1    0    0  501    0 -0.00000000000E+00 -0.00000000000E+00 -0.23820091565E+02  0.23820091565E+02  0.00000000000E+00 0.  1.
          2    1    1    2  501    0  0.15341881089E+01 -0.78441039175E+02  0.27454028116E+03  0.28553058740E+03  0.00000000000E+00 0.  1.
          1    1    1    2  502    0 -0.15341881089E+01  0.78441039175E+02  0.65650109791E+02  0.10229998668E+03  0.00000000000E+00 0.  1.
</event>
<event>
 4    1  0.3837333E+003  0.2027501E+02  0.7546771E-02  0.1529872E+00
          2   -1    0    0  502    0  0.00000000000E+00  0.00000000000E+00  0.44394704268E+01  0.44394704268E+01  0.00000000000E+00 0. -1.
          1   -1    0    0  501    0 -0.00000000000E+00 -0.00000000000E+00 -0.14999307050E+03  0.14999307050E+03  0.00000000000E+00 0. -1.
          2    1    1    2  501    0 -0.20107841740E+02  0.25981814113E+01 -0.25010759381E+02  0.32196489419E+02  0.00000000000E+00 0. -1.
          1    1    1    2  502    0  0.20107841740E+02 -0.25981814113E+01 -0.12054284069E+03  0.12223605150E+03  0.00000000000E+00 0. -1.
</event>
<event>
 4    1  0.3837333E+003  0.2240095E+02  0.7546771E-02  0.1500161E+00
          2   -1    0    0  502    0  0.00000000000E+00  0.00000000000E+00  0.81930057926E+02  0.81930057926E+02  0.00000000000E+00 0. -1.
          1   -1    0    0  501    0 -0.00000000000E+00 -0.00000000000E+00 -0.15097131428E+04  0.15097131428E+04  0.00000000000E+00 0. -1.
          2    1    1    2  501    0  0.13125012286E+02 -0.18153147623E+02  0.80314129273E+02  0.83379626270E+02  0.00000000000E+00 0. -1.
          1    1    1    2  502    0 -0.13125012286E+02  0.18153147623E+02 -0.15080972141E+04  0.15082635744E+04  0.00000000000E+00 0. -1.
</event>
<event>
 4    1  0.3837333E+003  0.2863497E+02  0.7546771E-02  0.1431841E+00
          2   -1    0    0  502    0  0.00000000000E+00  0.00000000000E+00  0.16015176016E+04  0.16015176016E+04  0.00000000000E+00 0. -1.
          1   -1    0    0  501    0 -0.00000000000E+00 -0.00000000000E+00 -0.53061864336E+01  0.53061864336E+01  0.00000000000E+00 0. -1.
          2    1    1    2  501    0 -0.53714266008E+01 -0.28126662097E+02  0.15617742600E+04  0.15620367475E+04  0.00000000000E+00 0. -1.
          1    1    1    2  502    0  0.53714266008E+01  0.28126662097E+02  0.34437155202E+02  0.44787040569E+02  0.00000000000E+00 0. -1.
</event>
<event>
 4    1  0.3837333E+003  0.2749368E+02  0.7546771E-02  0.1442711E+00
          2   -1    0    0  502    0  0.00000000000E+00  0.00000000000E+00  0.19780068997E+03  0.19780068997E+03  0.00000000000E+00 0.  1.
          1   -1    0    0  501    0 -0.00000000000E+00 -0.00000000000E+00 -0.10851309701E+02  0.10851309701E+02  0.00000000000E+00 0. -1.
          2    1    1    2  501    0  0.27361286693E+02  0.26948849366E+01  0.17744430386E+03  0.17956164230E+03  0.00000000000E+00 0.  1.
          1    1    1    2  502    0 -0.27361286693E+02 -0.26948849366E+01  0.95050764121E+01  0.29090357370E+02  0.00000000000E+00 0. -1.
</event>
<event>
 4    1  0.3837333E+003  0.4860965E+02  0.7546771E-02  0.1304316E+00
          2   -1    0    0  502    0  0.00000000000E+00  0.00000000000E+00  0.74858605267E+01  0.74858605267E+01  0.00000000000E+00 0.  1.
          1   -1    0    0  501    0 -0.00000000000E+00 -0.00000000000E+00 -0.19064234747E+04  0.19064234747E+04  0.00000000000E+00 0. -1.
          2    1    1    2  501    0 -0.42278464370E+02  0.23988108343E+02 -0.75318525257E+02  0.89642501852E+02  0.00000000000E+00 0.  1.
          1    1    1    2  502    0  0.42278464370E+02 -0.23988108343E+02 -0.18236190890E+04  0.18242668334E+04  0.00000000000E+00 0. -1.
</event>
<event>
 4    1  0.3837333E+003  0.3757361E+02  0.7546771E-02  0.1363323E+00
          2   -1    0    0  502    0  0.00000000000E+00  0.00000000000E+00  0.26265948696E+01  0.26265948696E+01  0.00000000000E+00 0. -1.
          1   -1    0    0  501    0 -0.00000000000E+00 -0.00000000000E+00 -0.53963751264E+03  0.53963751264E+03  0.00000000000E+00 0. -1.
          2    1    1    2  501    0 -0.34622688613E+02  0.14596084790E+02 -0.25141326189E+03  0.25420543761E+03  0.00000000000E+00 0. -1.
          1    1    1    2  502    0  0.34622688613E+02 -0.14596084790E+02 -0.28559765588E+03  0.28805866990E+03  0.00000000000E+00 0. -1.
</event>
<event>
 4    1  0.3837333E+003  0.2765939E+02  0.7546771E-02  0.1441095E+00
          2   -1    0    0  502    0  0.00000000000E+00  0.00000000000E+00  0.14368022629E+03  0.14368022629E+03  0.00000000000E+00 0.  1.
          1   -1    0    0  501    0 -0.00000000000E+00 -0.00000000000E+00 -0.37073328392E+02  0.37073328392E+02  0.00000000000E+00 0. -1.
          2    1    1    2  501    0  0.24750224974E+02 -0.12347798766E+02  0.13693865532E+03  0.13970410549E+03  0.00000000000E+00 0.  1.
          1    1    1    2  502    0 -0.24750224974E+02  0.12347798766E+02 -0.30331757421E+02  0.41049449191E+02  0.00000000000E+00 0. -1.
</event>
<event>
 4    1  0.3837333E+003  0.2060172E+02  0.7546771E-02  0.1525028E+00
          2   -1    0    0  502    0  0.00000000000E+00  0.00000000000E+00  0.65803127001E+02  0.65803127001E+02  0.00000000000E+00 0.  1.
          1   -1    0    0  501    0 -0.00000000000E+00 -0.00000000000E+00 -0.31168904241E+03  0.31168904241E+03  0.00000000000E+00 0. -1.
          2    1    1    2  501    0 -0.14559638534E+01  0.20550210791E+02  0.63839986364E+02  0.67081851891E+02  0.00000000000E+00 0.  1.
          1    1    1    2  502    0  0.14559638534E+01 -0.20550210791E+02 -0.30972590177E+03  0.31041031752E+03  0.00000000000E+00 0. -1.
</event>
<event>
 4    1  0.3837333E+003  0.2643365E+02  0.7546771E-02  0.1453382E+00
          2   -1    0    0  502    0  0.00000000000E+00  0.00000000000E+00  0.34012837775E+01  0.34012837775E+01  0.00000000000E+00 0. -1.
          1   -1    0    0  501    0 -0.00000000000E+00 -0.00000000000E+00 -0.52781633244E+03  0.52781633244E+03  0.00000000000E+00 0. -1.
          2    1    1    2  501    0 -0.15982058776E+02  0.21054962244E+02 -0.54626804978E+02  0.60686287247E+02  0.00000000000E+00 0. -1.
          1    1    1    2  502    0  0.15982058776E+02 -0.21054962244E+02 -0.46978824368E+03  0.47053132897E+03  0.00000000000E+00 0. -1.
</event>
<event>
 4    1  0.3837333E+003  0.2228326E+02  0.7546771E-02  0.1501700E+00
          2   -1    0    0  502    0  0.00000000000E+00  0.00000000000E+00  0.45335048112E+02  0.45335048112E+02  0.00000000000E+00 0.  1.
          1   -1    0    0  501    0 -0.00000000000E+00 -0.00000000000E+00 -0.40751648227E+02  0.40751648227E+02  0.00000000000E+00 0. -1.
          2    1    1    2  501    0  0.16195667058E+02  0.15305034638E+02  0.39098962311E+02  0.45003028460E+02  0.00000000000E+00 0.  1.
          1    1    1    2  502    0 -0.16195667058E+02 -0.15305034638E+02 -0.34515562427E+02  0.41083667879E+02  0.00000000000E+00 0. -1.
</event>
<event>
 4    1  0.3837333E+003  0.3202185E+02  0.7546771E-02  0.1402804E+00
          2   -1    0    0  502    0  0.00000000000E+00  0.00000000000E+00  0.73065111678E+03  0.73065111678E+03  0.00000000000E+00 0.  1.
          1   -1    0    0  501    0 -0.00000000000E+00 -0.00000000000E+00 -0.80593526833E+01  0.80593526833E+01  0.00000000000E+00 0.  1.
          2    1    1    2  501    0  0.15792032959E+02 -0.27856965616E+02  0.69695554500E+03  0.69769078434E+03  0.00000000000E+00 0.  1.
          1    1    1    2  502    0 -0.15792032959E+02  0.27856965616E+02  0.25636219089E+02  0.41019685121E+02  0.00000000000E+00 0.  1.
</event>
<event>
 4    1  0.3837333E+003  0.2391346E+02  0.7546771E-02  0.1481336E+00
          2   -1    0    0  502    0  0.00000000000E+00  0.00000000000E+00  0.10295522395E+03  0.10295522395E+03  0.00000000000E+00 0. -1.
          1   -1    0    0  501    0 -0.00000000000E+00 -0.00000000000E+00 -0.15533165743E+02  0.15533165743E+02  0.00000000000E+00 0.  1.
          2    1    1    2  501    0 -0.61904176347E-01  0.23913384783E+02  0.91195802898E+02  0.94278991669E+02  0.00000000000E+00 0. -1.
          1    1    1    2  502    0  0.61904176347E-01 -0.23913384783E+02 -0.37737446878E+01  0.24209398027E+02  0.00000000000E+00 0.  1.
</event>
<event>
 4    1  0.3837333E+003  0.2271127E+02  0.7546771E-02  0.1496156E+00
          2   -1    0    0  502    0  0.00000000000E+00  0.00000000000E+00  0.17321964503E+03  0.17321964503E+03  0.00000000000E+00 0. -1.
          1   -1    0    0  501    0 -0.00000000000E+00 -0.00000000000E+00 -0.26999734402E+02  0.26999734402E+02  0.00000000000E+00 0.  1.
          2    1    1    2  501    0 -0.22640169801E+02 -0.17956408501E+01  0.16753799540E+03  0.16907034488E+03  0.00000000000E+00 0. -1.
          1    1    1    2  502    0  0.22640169801E+02  0.17956408501E+01 -0.21318084778E+02  0.31149034548E+02  0.00000000000E+00 0.  1.
</event>
<event>
 4    1  0.3837333E+003  0.2679672E+02  0.7546771E-02  0.1449661E+00
          2   -1    0    0  502    0  0.00000000000E+00  0.00000000000E+00  0.15864904047E+03  0.15864904047E+03  0.00000000000E+00 0.  1.
          1   -1    0    0  501    0 -0.00000000000E+00 -0.00000000000E+00 -0.19620817213E+02  0.19620817213E+02  0.00000000000E+00 0. -1.
          2    1    1    2  501    0 -0.23886035932E+01  0.26690048979E+02  0.14769518347E+03  0.15010640014E+03  0.00000000000E+00 0.  1.
          1    1    1    2  502    0  0.23886035932E+01 -0.26690048979E+02 -0.86669602133E+01  0.28163457546E+02  0.00000000000E+00 0. -1.
</event>
<event>
 4    1  0.3837333E+003  0.2500623E+02  0.7546771E-02  0.1468734E+00
          2   -1    0    0  502    0  0.00000000000E+00  0.00000000000E+00  0.82899973385E+03  0.82899973385E+03  0.00000000000E+00 0.  1.
          1   -1    0    0  501    0 -0.00000000000E+00 -0.00000000000E+00 -0.13298217822E+02  0.13298217822E+02  0.00000000000E+00 0. -1.
          2    1    1    2  501    0 -0.20714152273E+02 -0.14008406513E+02  0.81688125443E+03  0.81726390805E+03  0.00000000000E+00 0.  1.
          1    1    1    2  502    0  0.20714152273E+02  0.14008406513E+02 -0.11797384029E+01  0.25034043623E+02  0.00000000000E+00 0. -1.
</event>
<event>
 4    1  0.3837333E+003  0.3698071E+02  0.7546771E-02  0.1367149E+00
          2   -1    0    0  502    0  0.00000000000E+00  0.00000000000E+00  0.84697110705E+00  0.84697110705E+00  0.00000000000E+00 0.  1.
          1   -1    0    0  501    0 -0.00000000000E+00 -0.00000000000E+00 -0.19774091692E+04  0.19774091692E+04  0.00000000000E+00 0.  1.
          2    1    1    2  501    0 -0.17580282324E+02  0.32534697523E+02 -0.56463257280E+03  0.56584230589E+03  0.00000000000E+00 0.  1.
          1    1    1    2  502    0  0.17580282324E+02 -0.32534697523E+02 -0.14119296253E+04  0.14124138345E+04  0.00000000000E+00 0.  1.
</event>
<event>
 4    1  0.3837333E+003  0.4787138E+02  0.7546771E-02  0.1307675E+00
          2   -1    0    0  502    0  0.00000000000E+00  0.00000000000E+00  0.96157470286E+03  0.96157470286E+03  0.00000000000E+00 0. -1.
          1   -1    0    0  501    0 -0.00000000000E+00 -0.00000000000E+00 -0.61829428909E+02  0.61829428909E+02  0.00000000000E+00 0. -1.
          2    1    1    2  501    0  0.47619222782E+02 -0.49070467823E+01  0.95161588615E+03  0.95281921909E+03  0.00000000000E+00 0. -1.
          1    1    1    2  502    0 -0.47619222782E+02  0.49070467823E+01 -0.51870612207E+02  0.70584912674E+02  0.00000000000E+00 0. -1.
</event>
<event>
 4    1  0.3837333E+003  0.2510818E+02  0.7546771E-02  0.1467597E+00
          2   -1    0    0  502    0  0.00000000000E+00  0.00000000000E+00  0.10524529428E+03  0.10524529428E+03  0.00000000000E+00 0. -1.
          1   -1    0    0  501    0 -0.00000000000E+00 -0.00000000000E+00 -0.10309696721E+02  0.10309696721E+02  0.00000000000E+00 0.  1.
          2    1    1    2  501    0  0.71243817635E+01  0.24076208939E+02  0.84866950868E+02  0.88503220292E+02  0.00000000000E+00 0. -1.
          1    1    1    2  502    0 -0.71243817635E+01 -0.24076208939E+02  0.10068646693E+02  0.27051770712E+02  0.00000000000E+00 0.  1.
</event>
<event>
 4    1  0.3837333E+003  0.1587686E+03  0.7546771E-02  0.1088955E+00
          2   -1    0    0  502    0  0.00000000000E+00  0.00000000000E+00  0.16706142246E+03  0.16706142246E+03  0.00000000000E+00 0.  1.
          1   -1    0    0  501    0 -0.00000000000E+00 -0.00000000000E+00 -0.21161292049E+03  0.21161292049E+03  0.00000000000E+00 0.  1.
          2    1    1    2  501    0  0.98336408293E+02 -0.12464922483E+03  0.79150438498E+02  0.17740425689E+03  0.00000000000E+00 0.  1.
          1    1    1    2  502    0 -0.98336408293E+02  0.12464922483E+03 -0.12370193653E+03  0.20127008607E+03  0.00000000000E+00 0.  1.
</event>
<event>
 4    1  0.3837333E+003  0.3133542E+02  0.7546771E-02  0.1408336E+00
          2   -1    0    0  502    0  0.00000000000E+00  0.00000000000E+00  0.40068285542E+02  0.40068285542E+02  0.00000000000E+00 0. -1.
          1   -1    0    0  501    0 -0.00000000000E+00 -0.00000000000E+00 -0.23480422496E+03  0.23480422496E+03  0.00000000000E+00 0.  1.
          2    1    1    2  501    0  0.31289384878E+02  0.16979272055E+01  0.32698780138E+02  0.45289278923E+02  0.00000000000E+00 0. -1.
          1    1    1    2  502    0 -0.31289384878E+02 -0.16979272055E+01 -0.22743471956E+03  0.22958323158E+03  0.00000000000E+00 0.  1.
</event>
<event>
 4    1  0.3837333E+003  0.2113654E+02  0.7546771E-02  0.1517324E+00
          2   -1    0    0  502    0  0.00000000000E+00  0.00000000000E+00  0.71186796063E+03  0.71186796063E+03  0.00000000000E+00 0.  1.
          1   -1    0    0  501    0 -0.00000000000E+00 -0.00000000000E+00 -0.10375756173E+01  0.10375756173E+01  0.00000000000E+00 0.  1.
          2    1    1    2  501    0 -0.27079421212E+00 -0.21134807773E+02  0.57948441922E+03  0.57986976602E+03  0.00000000000E+00 0.  1.
          1    1    1    2  502    0  0.27079421212E+00  0.21134807773E+02  0.13134596579E+03  0.13303577022E+03  0.00000000000E+00 0.  1.
</event>
<event>
 4    1  0.3837333E+003  0.2094114E+02  0.7546771E-02  0.1520107E+00
          2   -1    0    0  502    0  0.00000000000E+00  0.00000000000E+00  0.27489390086E+03  0.27489390086E+03  0.00000000000E+00 0. -1.
          1   -1    0    0  501    0 -0.00000000000E+00 -0.00000000000E+00 -0.36371005227E+01  0.36371005227E+01  0.00000000000E+00 0. -1.
          2    1    1    2  501    0 -0.14372504589E+02  0.15230307709E+02  0.23997427554E+03  0.24088624718E+03  0.00000000000E+00 0. -1.
          1    1    1    2  502    0  0.14372504589E+02 -0.15230307709E+02  0.31282524799E+02  0.37644754201E+02  0.00000000000E+00 0. -1.
</event>
<event>
 4    1  0.3837333E+003  0.2116216E+02  0.7546771E-02  0.1516962E+00
          2   -1    0    0  502    0  0.00000000000E+00  0.00000000000E+00  0.81433065769E+02  0.81433065769E+02  0.00000000000E+00 0.  1.
          1   -1    0    0  501    0 -0.00000000000E+00 -0.00000000000E+00 -0.83028697942E+01  0.83028697942E+01  0.00000000000E+00 0.  1.
          2    1    1    2  501    0  0.29898499601E+01 -0.20949884805E+02  0.62636629358E+02  0.66114931849E+02  0.00000000000E+00 0.  1.
          1    1    1    2  502    0 -0.29898499601E+01  0.20949884805E+02  0.10493566617E+02  0.23621003714E+02  0.00000000000E+00 0.  1.
</event>
<event>
 4    1  0.3837333E+003  0.2310673E+02  0.7546771E-02  0.1491162E+00
          2   -1    0    0  502    0  0.00000000000E+00  0.00000000000E+00  0.37731303479E+02  0.37731303479E+02  0.00000000000E+00 0.  1.
          1   -1    0    0  501    0 -0.00000000000E+00 -0.00000000000E+00 -0.63093876049E+02  0.63093876049E+02  0.00000000000E+00 0.  1.
          2    1    1    2  501    0 -0.14165067491E+02 -0.18255736447E+02  0.31719623308E+02  0.39243541546E+02  0.00000000000E+00 0.  1.
          1    1    1    2  502    0  0.14165067491E+02  0.18255736447E+02 -0.57082195878E+02  0.61581637982E+02  0.00000000000E+00 0.  1.
</event>
<event>
 4    1  0.3837333E+003  0.2601558E+02  0.7546771E-02  0.1457755E+00
          2   -1    0    0  502    0  0.00000000000E+00  0.00000000000E+00  0.46805653364E+03  0.46805653364E+03  0.00000000000E+00 0.  1.
          1   -1    0    0  501    0 -0.00000000000E+00 -0.00000000000E+00 -0.42079234484E+03  0.42079234484E+03  0.00000000000E+00 0.  1.
          2    1    1    2  501    0  0.17558641054E+02 -0.19196477052E+02  0.46729227117E+03  0.46801589428E+03  0.00000000000E+00 0.  1.
          1    1    1    2  502    0 -0.17558641054E+02  0.19196477052E+02 -0.42002808237E+03  0.42083298419E+03  0.00000000000E+00 0.  1.
</event>
<event>
 4    1  0.3837333E+003  0.2322243E+02  0.7546771E-02  0.1489724E+00
          2   -1    0    0  502    0  0.00000000000E+00  0.00000000000E+00  0.14351971622E+01  0.14351971622E+01  0.00000000000E+00 0. -1.
          1   -1    0    0  501    0 -0.00000000000E+00 -0.00000000000E+00 -0.66371527222E+03  0.66371527222E+03  0.00000000000E+00 0. -1.
          2    1    1    2  501    0 -0.17921491859E+02 -0.14768258762E+02 -0.11207861453E+03  0.11445915067E+03  0.00000000000E+00 0. -1.
          1    1    1    2  502    0  0.17921491859E+02  0.14768258762E+02 -0.55020146052E+03  0.55069131871E+03  0.00000000000E+00 0. -1.
</event>
<event>
 4    1  0.3837333E+003  0.2568280E+02  0.7546771E-02  0.1461308E+00
          2   -1    0    0  502    0  0.00000000000E+00  0.00000000000E+00  0.79929638107E+03  0.79929638107E+03  0.00000000000E+00 0.  1.
          1   -1    0    0  501    0 -0.00000000000E+00 -0.00000000000E+00 -0.63449968112E+01  0.63449968112E+01  0.00000000000E+00 0. -1.
          2    1    1    2  501    0  0.25487366516E+02 -0.31623572560E+01  0.77218874330E+03  0.77261572702E+03  0.00000000000E+00 0.  1.
          1    1    1    2  502    0 -0.25487366516E+02  0.31623572560E+01  0.20762640957E+02  0.33025650862E+02  0.00000000000E+00 0. -1.
</event>
<event>
 4    1  0.3837333E+003  0.3031190E+02  0.7546771E-02  0.1416905E+00
          2   -1    0    0  502    0  0.00000000000E+00  0.00000000000E+00  0.24824232164E+04  0.24824232164E+04  0.00000000000E+00 0.  1.
          1   -1    0    0  501    0 -0.00000000000E+00 -0.00000000000E+00 -0.87952609730E+00  0.87952609730E+00  0.00000000000E+00 0. -1.
          2    1    1    2  501    0 -0.18665415296E+02  0.23883334094E+02  0.21857123722E+04  0.21859225479E+04  0.00000000000E+00 0.  1.
          1    1    1    2  502    0  0.18665415296E+02 -0.23883334094E+02  0.29583131808E+03  0.29738019459E+03  0.00000000000E+00 0. -1.
</event>
<event>
 4    1  0.3837333E+003  0.2251637E+02  0.7546771E-02  0.1498662E+00
          2   -1    0    0  502    0  0.00000000000E+00  0.00000000000E+00  0.33125020092E+01  0.33125020092E+01  0.00000000000E+00 0. -1.
          1   -1    0    0  501    0 -0.00000000000E+00 -0.00000000000E+00 -0.35555388813E+03  0.35555388813E+03  0.00000000000E+00 0. -1.
          2    1    1    2  501    0 -0.18266764654E+02  0.13164807768E+02 -0.40706548328E+02  0.46518920143E+02  0.00000000000E+00 0. -1.
          1    1    1    2  502    0  0.18266764654E+02 -0.13164807768E+02 -0.31153483779E+03  0.31234747000E+03  0.00000000000E+00 0. -1.
</event>
<event>
 4    1  0.3837333E+003  0.2115077E+02  0.7546771E-02  0.1517123E+00
          2   -1    0    0  502    0  0.00000000000E+00  0.00000000000E+00  0.14716743094E+03  0.14716743094E+03  0.00000000000E+00 0. -1.
          1   -1    0    0  501    0 -0.00000000000E+00 -0.00000000000E+00 -0.67220681034E+02  0.67220681034E+02  0.00000000000E+00 0.  1.
          2    1    1    2  501    0 -0.71015088386E+01  0.19922942616E+02  0.14471569524E+03  0.14625316242E+03  0.00000000000E+00 0. -1.
          1    1    1    2  502    0  0.71015088386E+01 -0.19922942616E+02 -0.64768945335E+02  0.68134949549E+02  0.00000000000E+00 0.  1.
</event>
<event>
 4    1  0.3837333E+003  0.2185945E+02  0.7546771E-02  0.1507339E+00
          2   -1    0    0  502    0  0.00000000000E+00  0.00000000000E+00  0.22535541247E+01  0.22535541247E+01  0.00000000000E+00 0. -1.
          1   -1    0    0  501    0 -0.00000000000E+00 -0.00000000000E+00 -0.23476567723E+03  0.23476567723E+03  0.00000000000E+00 0. -1.
          2    1    1    2  501    0  0.92057755408E+01 -0.19826481986E+02 -0.79381377631E+02  0.82336133052E+02  0.00000000000E+00 0. -1.
          1    1    1    2  502    0 -0.92057755408E+01  0.19826481986E+02 -0.15313074547E+03  0.15468309830E+03  0.00000000000E+00 0. -1.
</event>
<event>
 4    1  0.3837333E+003  0.3552237E+02  0.7546771E-02  0.1376928E+00
          2   -1    0    0  502    0  0.00000000000E+00  0.00000000000E+00  0.51880554529E+03  0.51880554529E+03  0.00000000000E+00 0. -1.
          1   -1    0    0  501    0 -0.00000000000E+00 -0.00000000000E+00 -0.44985199273E+01  0.44985199273E+01  0.00000000000E+00 0.  1.
          2    1    1    2  501    0  0.12092771386E+02  0.33400651473E+02  0.43448592125E+03  0.43593560810E+03  0.00000000000E+00 0. -1.
          1    1    1    2  502    0 -0.12092771386E+02 -0.33400651473E+02  0.79821104113E+02  0.87368457125E+02  0.00000000000E+00 0.  1.
</event>
<event>
 4    1  0.3837333E+003  0.3522491E+02  0.7546771E-02  0.1378989E+00
          2   -1    0    0  502    0  0.00000000000E+00  0.00000000000E+00  0.25773653192E+02  0.25773653192E+02  0.00000000000E+00 0. -1.
          1   -1    0    0  501    0 -0.00000000000E+00 -0.00000000000E+00 -0.53607388774E+02  0.53607388774E+02  0.00000000000E+00 0.  1.
          2    1    1    2  501    0 -0.70124963776E+00  0.35217927674E+02 -0.12436589103E+01  0.35246856146E+02  0.00000000000E+00 0. -1.
          1    1    1    2  502    0  0.70124963776E+00 -0.35217927674E+02 -0.26590076671E+02  0.44134185821E+02  0.00000000000E+00 0.  1.
</event>
<event>
 4    1  0.3837333E+003  0.2961785E+02  0.7546771E-02  0.1422947E+00
          2   -1    0    0  502    0  0.00000000000E+00  0.00000000000E+00  0.86141593778E+03  0.86141593778E+03  0.00000000000E+00 0. -1.
          1   -1    0    0  501    0 -0.00000000000E+00 -0.00000000000E+00 -0.73941511744E+01  0.73941511744E+01  0.00000000000E+00 0.  1.
          2    1    1    2  501    0 -0.10950038406E+02 -0.27519333714E+02  0.83039456161E+03  0.83092258666E+03  0.00000000000E+00 0. -1.
          1    1    1    2  502    0  0.10950038406E+02  0.27519333714E+02  0.23627224995E+02  0.37887502295E+02  0.00000000000E+00 0.  1.
</event>
<event>
 4    1  0.3837333E+003  0.3352156E+02  0.7546771E-02  0.1391266E+00
          2   -1    0    0  502    0  0.00000000000E+00  0.00000000000E+00  0.14622247743E+03  0.14622247743E+03  0.00000000000E+00 0. -1.
          1   -1    0    0  501    0 -0.00000000000E+00 -0.00000000000E+00 -0.42520941698E+03  0.42520941698E+03  0.00000000000E+00 0.  1.
          2    1    1    2  501    0 -0.17690217966E+01 -0.33474852415E+02  0.14362882555E+03  0.14748876131E+03  0.00000000000E+00 0. -1.
          1    1    1    2  502    0  0.17690217966E+01  0.33474852415E+02 -0.42261576511E+03  0.42394313310E+03  0.00000000000E+00 0.  1.
</event>
<event>
 4    1  0.3837333E+003  0.2507206E+02  0.7546771E-02  0.1467999E+00
          2   -1    0    0  502    0  0.00000000000E+00  0.00000000000E+00  0.57703256271E+03  0.57703256271E+03  0.00000000000E+00 0. -1.
          1   -1    0    0  501    0 -0.00000000000E+00 -0.00000000000E+00 -0.90214336749E+01  0.90214336749E+01  0.00000000000E+00 0.  1.
          2    1    1    2  501    0 -0.24739593403E+02 -0.40695083762E+01  0.55877134684E+03  0.55933355561E+03  0.00000000000E+00 0. -1.
          1    1    1    2  502    0  0.24739593403E+02  0.40695083762E+01  0.92397821927E+01  0.26720440774E+02  0.00000000000E+00 0.  1.
</event>
<event>
 4    1  0.3837333E+003  0.2920837E+02  0.7546771E-02  0.1426603E+00
          2   -1    0    0  502    0  0.00000000000E+00  0.00000000000E+00  0.45001951318E+03  0.45001951318E+03  0.00000000000E+00 0. -1.
          1   -1    0    0  501    0 -0.00000000000E+00 -0.00000000000E+00 -0.21629818273E+01  0.21629818273E+01  0.00000000000E+00 0. -1.
          2    1    1    2  501    0  0.28655296679E+02  0.56571226307E+01  0.30339642426E+03  0.30479914586E+03  0.00000000000E+00 0. -1.
          1    1    1    2  502    0 -0.28655296679E+02 -0.56571226307E+01  0.14446010710E+03  0.14738334915E+03  0.00000000000E+00 0. -1.
</event>
<event>
 4    1  0.3837333E+003  0.4997646E+02  0.7546771E-02  0.1298275E+00
          2   -1    0    0  502    0  0.00000000000E+00  0.00000000000E+00  0.80515992901E+03  0.80515992901E+03  0.00000000000E+00 0.  1.
          1   -1    0    0  501    0 -0.00000000000E+00 -0.00000000000E+00 -0.32282286307E+01  0.32282286307E+01  0.00000000000E+00 0.  1.
          2    1    1    2  501    0 -0.16124625834E+02 -0.47303736118E+02  0.48087551659E+03  0.48346552045E+03  0.00000000000E+00 0.  1.
          1    1    1    2  502    0  0.16124625834E+02  0.47303736118E+02  0.32105618379E+03  0.32492263719E+03  0.00000000000E+00 0.  1.
</event>
<event>
 4    1  0.3837333E+003  0.5315187E+02  0.7546771E-02  0.1285056E+00
          2   -1    0    0  502    0  0.00000000000E+00  0.00000000000E+00  0.20649905929E+04  0.20649905929E+04  0.00000000000E+00 0. -1.
          1   -1    0    0  501    0 -0.00000000000E+00 -0.00000000000E+00 -0.14455482865E+01  0.14455482865E+01  0.00000000000E+00 0. -1.
          2    1    1    2  501    0  0.18162421405E+02 -0.49952425298E+02  0.79261987242E+03  0.79440001290E+03  0.00000000000E+00 0. -1.
          1    1    1    2  502    0 -0.18162421405E+02  0.49952425298E+02  0.12709251722E+04  0.12720361283E+04  0.00000000000E+00 0. -1.
</event>
<event>
 4    1  0.3837333E+003  0.2210152E+02  0.7546771E-02  0.1504099E+00
          2   -1    0    0  502    0  0.00000000000E+00  0.00000000000E+00  0.33693285550E+02  0.33693285550E+02  0.00000000000E+00 0.  1.
          1   -1    0    0  501    0 -0.00000000000E+00 -0.00000000000E+00 -0.25342192166E+02  0.25342192166E+02  0.00000000000E+00 0.  1.
          2    1    1    2  501    0 -0.86021692520E+01 -0.20358774622E+02  0.23484756092E+02  0.32249198264E+02  0.00000000000E+00 0.  1.
          1    1    1    2  502    0  0.86021692520E+01  0.20358774622E+02 -0.15133662708E+02  0.26786279453E+02  0.00000000000E+00 0.  1.
</event>
<event>
 4    1  0.3837333E+003  0.3703744E+02  0.7546771E-02  0.1366779E+00
          2   -1    0    0  502    0  0.00000000000E+00  0.00000000000E+00  0.24225295983E+03  0.24225295983E+03  0.00000000000E+00 0.  1.
          1   -1    0    0  501    0 -0.00000000000E+00 -0.00000000000E+00 -0.25005628222E+02  0.25005628222E+02  0.00000000000E+00 0. -1.
          2    1    1    2  501    0 -0.18303726674E+02  0.32198528563E+02  0.22615278550E+03  0.22916556033E+03  0.00000000000E+00 0.  1.
          1    1    1    2  502    0  0.18303726674E+02 -0.32198528563E+02 -0.89054538946E+01  0.38093027720E+02  0.00000000000E+00 0. -1.
</event>
<event>
 4    1  0.3837333E+003  0.3189358E+02  0.7546771E-02  0.1403825E+00
          2   -1    0    0  502    0  0.00000000000E+00  0.00000000000E+00  0.50731168339E+02  0.50731168339E+02  0.00000000000E+00 0.  1.
          1   -1    0    0  501    0 -0.00000000000E+00 -0.00000000000E+00 -0.20470564432E+04  0.20470564432E+04  0.00000000000E+00 0. -1.
          2    1    1    2  501    0  0.61936341266E+00  0.31887564843E+02  0.45581600704E+02  0.55631670165E+02  0.00000000000E+00 0.  1.
          1    1    1    2  502    0 -0.61936341266E+00 -0.31887564843E+02 -0.20419068755E+04  0.20421559413E+04  0.00000000000E+00 0. -1.
</event>
<event>
 4    1  0.3837333E+003  0.2468062E+02  0.7546771E-02  0.1472408E+00
          2   -1    0    0  502    0  0.00000000000E+00  0.00000000000E+00  0.72072568528E+03  0.72072568528E+03  0.00000000000E+00 0.  1.
          1   -1    0    0  501    0 -0.00000000000E+00 -0.00000000000E+00 -0.46596986660E+02  0.46596986660E+02  0.00000000000E+00 0. -1.
          2    1    1    2  501    0 -0.23917551585E+02  0.60896213530E+01  0.71723038106E+03  0.71765489776E+03  0.00000000000E+00 0.  1.
          1    1    1    2  502    0  0.23917551585E+02 -0.60896213530E+01 -0.43101682444E+02  0.49667774176E+02  0.00000000000E+00 0. -1.
</event>
<event>
 4    1  0.3837333E+003  0.4263079E+02  0.7546771E-02  0.1333723E+00
          2   -1    0    0  502    0  0.00000000000E+00  0.00000000000E+00  0.17276847938E+04  0.17276847938E+04  0.00000000000E+00 0. -1.
          1   -1    0    0  501    0 -0.00000000000E+00 -0.00000000000E+00 -0.51012633143E+02  0.51012633143E+02  0.00000000000E+00 0.  1.
          2    1    1    2  501    0  0.16148284851E+02  0.39453992055E+02  0.17184675079E+04  0.17189962072E+04  0.00000000000E+00 0. -1.
          1    1    1    2  502    0 -0.16148284851E+02 -0.39453992055E+02 -0.41795347230E+02  0.59701219776E+02  0.00000000000E+00 0.  1.
</event>
<event>
 4    1  0.3837333E+003  0.2882220E+02  0.7546771E-02  0.1430115E+00
          2   -1    0    0  502    0  0.00000000000E+00  0.00000000000E+00  0.10700329802E+04  0.10700329802E+04  0.00000000000E+00 0. -1.
          1   -1    0    0  501    0 -0.00000000000E+00 -0.00000000000E+00 -0.10617883857E+01  0.10617883857E+01  0.00000000000E+00 0. -1.
          2    1    1    2  501    0 -0.28321921674E+02  0.53467898745E+01  0.81215984081E+03  0.81267110594E+03  0.00000000000E+00 0. -1.
          1    1    1    2  502    0  0.28321921674E+02 -0.53467898745E+01  0.25681135101E+03  0.25842366265E+03  0.00000000000E+00 0. -1.
</event>
<event>
 4    1  0.3837333E+003  0.2126578E+02  0.7546771E-02  0.1515504E+00
          2   -1    0    0  502    0  0.00000000000E+00  0.00000000000E+00  0.29678371702E+03  0.29678371702E+03  0.00000000000E+00 0.  1.
          1   -1    0    0  501    0 -0.00000000000E+00 -0.00000000000E+00 -0.38808882359E+01  0.38808882359E+01  0.00000000000E+00 0. -1.
          2    1    1    2  501    0  0.80430615014E+00 -0.21250563791E+02  0.26361061997E+03  0.26446699667E+03  0.00000000000E+00 0.  1.
          1    1    1    2  502    0 -0.80430615014E+00  0.21250563791E+02  0.29292208821E+02  0.36197608587E+02  0.00000000000E+00 0. -1.
</event>
<event>
 4    1  0.3837333E+003  0.2257309E+02  0.7546771E-02  0.1497930E+00
          2   -1    0    0  502    0  0.00000000000E+00  0.00000000000E+00  0.39611862583E+02  0.39611862583E+02  0.00000000000E+00 0. -1.
          1   -1    0    0  501    0 -0.00000000000E+00 -0.00000000000E+00 -0.16321824820E+02  0.16321824820E+02  0.00000000000E+00 0. -1.
          2    1    1    2  501    0 -0.22271134527E+02  0.36797517470E+01 -0.12284931637E+01  0.22606485828E+02  0.00000000000E+00 0. -1.
          1    1    1    2  502    0  0.22271134527E+02 -0.36797517470E+01  0.24518530927E+02  0.33327201575E+02  0.00000000000E+00 0. -1.
</event>
<event>
 4    1  0.3837333E+003  0.4222140E+02  0.7546771E-02  0.1335938E+00
          2   -1    0    0  502    0  0.00000000000E+00  0.00000000000E+00  0.70751845149E+03  0.70751845149E+03  0.00000000000E+00 0.  1.
          1   -1    0    0  501    0 -0.00000000000E+00 -0.00000000000E+00 -0.16949083852E+02  0.16949083852E+02  0.00000000000E+00 0. -1.
          2    1    1    2  501    0 -0.36664471263E+01 -0.42061907899E+02  0.67951171356E+03  0.68082216165E+03  0.00000000000E+00 0.  1.
          1    1    1    2  502    0  0.36664471263E+01  0.42061907899E+02  0.11057654074E+02  0.43645373687E+02  0.00000000000E+00 0. -1.
</event>
<event>
 4    1  0.3837333E+003  0.2034442E+02  0.7546771E-02  0.1528834E+00
          2   -1    0    0  502    0  0.00000000000E+00  0.00000000000E+00  0.20462795810E+03  0.20462795810E+03  0.00000000000E+00 0. -1.
          1   -1    0    0  501    0 -0.00000000000E+00 -0.00000000000E+00 -0.53039835524E+02  0.53039835524E+02  0.00000000000E+00 0.  1.
          2    1    1    2  501    0  0.17817451994E+02  0.98200824380E+01  0.20214754061E+03  0.20316870770E+03  0.00000000000E+00 0. -1.
          1    1    1    2  502    0 -0.17817451994E+02 -0.98200824380E+01 -0.50559418033E+02  0.54499085923E+02  0.00000000000E+00 0.  1.
</event>
<event>
 4    1  0.3837333E+003  0.2380259E+02  0.7546771E-02  0.1482659E+00
          2   -1    0    0  502    0  0.00000000000E+00  0.00000000000E+00  0.82212464719E+03  0.82212464719E+03  0.00000000000E+00 0.  1.
          1   -1    0    0  501    0 -0.00000000000E+00 -0.00000000000E+00 -0.25499565946E+01  0.25499565946E+01  0.00000000000E+00 0. -1.
          2    1    1    2  501    0  0.60412103191E+01 -0.23023188253E+02  0.76202630176E+03  0.76239795907E+03  0.00000000000E+00 0.  1.
          1    1    1    2  502    0 -0.60412103191E+01  0.23023188253E+02  0.57548388842E+02  0.62276644722E+02  0.00000000000E+00 0. -1.
</event>
<event>
 4    1  0.3837333E+003  0.2755047E+02  0.7546771E-02  0.1442156E+00
          2   -1    0    0  502    0  0.00000000000E+00  0.00000000000E+00  0.40906404057E+03  0.40906404057E+03  0.00000000000E+00 0.  1.
          1   -1    0    0  501    0 -0.00000000000E+00 -0.00000000000E+00 -0.39037136448E+03  0.39037136448E+03  0.00000000000E+00 0. -1.
          2    1    1    2  501    0 -0.27333669505E+02 -0.34494832111E+01  0.40811293404E+03  0.40904180147E+03  0.00000000000E+00 0.  1.
          1    1    1    2  502    0  0.27333669505E+02  0.34494832111E+01 -0.38942025794E+03  0.39039360358E+03  0.00000000000E+00 0. -1.
</event>
<event>
 4    1  0.3837333E+003  0.4770539E+02  0.7546771E-02  0.1308440E+00
          2   -1    0    0  502    0  0.00000000000E+00  0.00000000000E+00  0.13060822613E+03  0.13060822613E+03  0.00000000000E+00 0. -1.
          1   -1    0    0  501    0 -0.00000000000E+00 -0.00000000000E+00 -0.15065952701E+03  0.15065952701E+03  0.00000000000E+00 0. -1.
          2    1    1    2  501    0 -0.37939964504E+02 -0.28919945922E+02  0.12222584506E+03  0.13120579781E+03  0.00000000000E+00 0. -1.
          1    1    1    2  502    0  0.37939964504E+02  0.28919945922E+02 -0.14227714595E+03  0.15006195533E+03  0.00000000000E+00 0. -1.
</event>
<event>
 4    1  0.3837333E+003  0.3772113E+02  0.7546771E-02  0.1362383E+00
          2   -1    0    0  502    0  0.00000000000E+00  0.00000000000E+00  0.62923477314E+02  0.62923477314E+02  0.00000000000E+00 0. -1.
          1   -1    0    0  501    0 -0.00000000000E+00 -0.00000000000E+00 -0.17033667095E+04  0.17033667095E+04  0.00000000000E+00 0. -1.
          2    1    1    2  501    0  0.36273042421E+02 -0.10351342211E+02  0.57041826356E+02  0.68386064707E+02  0.00000000000E+00 0. -1.
          1    1    1    2  502    0 -0.36273042421E+02  0.10351342211E+02 -0.16974850585E+04  0.16979041221E+04  0.00000000000E+00 0. -1.
</event>
<event>
 4    1  0.3837333E+003  0.2146940E+02  0.7546771E-02  0.1512667E+00
          2   -1    0    0  502    0  0.00000000000E+00  0.00000000000E+00  0.14382547087E+01  0.14382547087E+01  0.00000000000E+00 0. -1.
          1   -1    0    0  501    0 -0.00000000000E+00 -0.00000000000E+00 -0.68315959615E+03  0.68315959615E+03  0.00000000000E+00 0.  1.
          2    1    1    2  501    0  0.20096433435E+02 -0.75543836830E+01 -0.91456011749E+02  0.93942202628E+02  0.00000000000E+00 0. -1.
          1    1    1    2  502    0 -0.20096433435E+02  0.75543836830E+01 -0.59026532969E+03  0.59065564823E+03  0.00000000000E+00 0.  1.
</event>
<event>
 4    1  0.3837333E+003  0.3739698E+02  0.7546771E-02  0.1364454E+00
          2   -1    0    0  502    0  0.00000000000E+00  0.00000000000E+00  0.27158824229E+03  0.27158824229E+03  0.00000000000E+00 0.  1.
          1   -1    0    0  501    0 -0.00000000000E+00 -0.00000000000E+00 -0.18349544783E+03  0.18349544783E+03  0.00000000000E+00 0.  1.
          2    1    1    2  501    0  0.35953475595E+02 -0.10289882307E+02  0.26837274927E+03  0.27096580344E+03  0.00000000000E+00 0.  1.
          1    1    1    2  502    0 -0.35953475595E+02  0.10289882307E+02 -0.18027995482E+03  0.18411788668E+03  0.00000000000E+00 0.  1.
</event>
<event>
 4    1  0.3837333E+003  0.3937666E+02  0.7546771E-02  0.1352178E+00
          2   -1    0    0  502    0  0.00000000000E+00  0.00000000000E+00  0.34915599954E+01  0.34915599954E+01  0.00000000000E+00 0.  1.
          1   -1    0    0  501    0 -0.00000000000E+00 -0.00000000000E+00 -0.57043218647E+03  0.57043218647E+03  0.00000000000E+00 0.  1.
          2    1    1    2  501    0  0.37658266894E+02 -0.11505500847E+02 -0.14841282725E+03  0.15354767633E+03  0.00000000000E+00 0.  1.
          1    1    1    2  502    0 -0.37658266894E+02  0.11505500847E+02 -0.41852779922E+03  0.42037607013E+03  0.00000000000E+00 0.  1.
</event>
<event>
 4    1  0.3837333E+003  0.2160318E+02  0.7546771E-02  0.1510825E+00
          2   -1    0    0  502    0  0.00000000000E+00  0.00000000000E+00  0.26966104772E+03  0.26966104772E+03  0.00000000000E+00 0. -1.
          1   -1    0    0  501    0 -0.00000000000E+00 -0.00000000000E+00 -0.24940362912E+02  0.24940362912E+02  0.00000000000E+00 0. -1.
          2    1    1    2  501    0  0.19541222517E+02 -0.92107667528E+01  0.26445836163E+03  0.26533925951E+03  0.00000000000E+00 0. -1.
          1    1    1    2  502    0 -0.19541222517E+02  0.92107667528E+01 -0.19737676824E+02  0.29262151118E+02  0.00000000000E+00 0. -1.
</event>
<event>
 4    1  0.3837333E+003  0.2718721E+02  0.7546771E-02  0.1445737E+00
          2   -1    0    0  502    0  0.00000000000E+00  0.00000000000E+00  0.15280596472E+04  0.15280596472E+04  0.00000000000E+00 0.  1.
          1   -1    0    0  501    0 -0.00000000000E+00 -0.00000000000E+00 -0.43035605522E+02  0.43035605522E+02  0.00000000000E+00 0. -1.
          2    1    1    2  501    0  0.27048829339E+02  0.27395848428E+01  0.15236324469E+04  0.15238749875E+04  0.00000000000E+00 0.  1.
          1    1    1    2  502    0 -0.27048829339E+02 -0.27395848428E+01 -0.38608405184E+02  0.47220265190E+02  0.00000000000E+00 0. -1.
</event>
<event>
 4    1  0.3837333E+003  0.3491572E+02  0.7546771E-02  0.1381157E+00
          2   -1    0    0  502    0  0.00000000000E+00  0.00000000000E+00  0.23617761133E+04  0.23617761133E+04  0.00000000000E+00 0. -1.
          1   -1    0    0  501    0 -0.00000000000E+00 -0.00000000000E+00 -0.53314678013E+01  0.53314678013E+01  0.00000000000E+00 0.  1.
          2    1    1    2  501    0  0.74004428268E+00 -0.34907877420E+02  0.23030231208E+04  0.23032877811E+04  0.00000000000E+00 0. -1.
          1    1    1    2  502    0 -0.74004428268E+00  0.34907877420E+02  0.53421524649E+02  0.63819799963E+02  0.00000000000E+00 0.  1.
</event>
<event>
 4    1  0.3837333E+003  0.2125665E+02  0.7546771E-02  0.1515632E+00
          2   -1    0    0  502    0  0.00000000000E+00  0.00000000000E+00  0.25415799334E+03  0.25415799334E+03  0.00000000000E+00 0.  1.
          1   -1    0    0  501    0 -0.00000000000E+00 -0.00000000000E+00 -0.15287037873E+03  0.15287037873E+03  0.00000000000E+00 0. -1.
          2    1    1    2  501    0  0.20915352827E+02  0.37938490077E+01  0.25297114419E+03  0.25386265000E+03  0.00000000000E+00 0.  1.
          1    1    1    2  502    0 -0.20915352827E+02 -0.37938490077E+01 -0.15168352957E+03  0.15316572207E+03  0.00000000000E+00 0. -1.
</event>
<event>
 4    1  0.3837333E+003  0.2626634E+02  0.7546771E-02  0.1455120E+00
          2   -1    0    0  502    0  0.00000000000E+00  0.00000000000E+00  0.10534379213E+04  0.10534379213E+04  0.00000000000E+00 0. -1.
          1   -1    0    0  501    0 -0.00000000000E+00 -0.00000000000E+00 -0.12557397016E+01  0.12557397016E+01  0.00000000000E+00 0. -1.
          2    1    1    2  501    0 -0.26000519264E+02 -0.37273822113E+01  0.89085985665E+03  0.89124699415E+03  0.00000000000E+00 0. -1.
          1    1    1    2  502    0  0.26000519264E+02  0.37273822113E+01  0.16132232495E+03  0.16344666686E+03  0.00000000000E+00 0. -1.
</event>
<event>
 4    1  0.3837333E+003  0.2346095E+02  0.7546771E-02  0.1486790E+00
          2   -1    0    0  502    0  0.00000000000E+00  0.00000000000E+00  0.51502515496E+03  0.51502515496E+03  0.00000000000E+00 0. -1.
          1   -1    0    0  501    0 -0.00000000000E+00 -0.00000000000E+00 -0.36886602378E+01  0.36886602378E+01  0.00000000000E+00 0. -1.
          2    1    1    2  501    0 -0.17099453611E+02 -0.16063134373E+02  0.37088701141E+02  0.43886072415E+02  0.00000000000E+00 0. -1.
          1    1    1    2  502    0  0.17099453611E+02  0.16063134373E+02  0.47424779358E+03  0.47482774278E+03  0.00000000000E+00 0. -1.
</event>
<event>
 4    1  0.3837333E+003  0.2527932E+02  0.7546771E-02  0.1465703E+00
          2   -1    0    0  502    0  0.00000000000E+00  0.00000000000E+00  0.24528175388E+01  0.24528175388E+01  0.00000000000E+00 0. -1.
          1   -1    0    0  501    0 -0.00000000000E+00 -0.00000000000E+00 -0.75891749237E+03  0.75891749237E+03  0.00000000000E+00 0. -1.
          2    1    1    2  501    0 -0.62442247546E+01  0.24495994826E+02 -0.69735884162E+02  0.74176395471E+02  0.00000000000E+00 0. -1.
          1    1    1    2  502    0  0.62442247546E+01 -0.24495994826E+02 -0.68672879067E+03  0.68719391444E+03  0.00000000000E+00 0. -1.
</event>
<event>
 4    1  0.3837333E+003  0.2821605E+02  0.7546771E-02  0.1435761E+00
          2   -1    0    0  502    0  0.00000000000E+00  0.00000000000E+00  0.35850929027E+03  0.35850929027E+03  0.00000000000E+00 0.  1.
          1   -1    0    0  501    0 -0.00000000000E+00 -0.00000000000E+00 -0.27176879454E+01  0.27176879454E+01  0.00000000000E+00 0. -1.
          2    1    1    2  501    0 -0.61463280617E+01 -0.27538480634E+02  0.25513163274E+03  0.25668715450E+03  0.00000000000E+00 0.  1.
          1    1    1    2  502    0  0.61463280617E+01  0.27538480634E+02  0.10065996959E+03  0.10453982371E+03  0.00000000000E+00 0. -1.
</event>
<event>
 4    1  0.3837333E+003  0.2149790E+02  0.7546771E-02  0.1512273E+00
          2   -1    0    0  502    0  0.00000000000E+00  0.00000000000E+00  0.12096772243E+04  0.12096772243E+04  0.00000000000E+00 0.  1.
          1   -1    0    0  501    0 -0.00000000000E+00 -0.00000000000E+00 -0.45881964400E+00  0.45881964400E+00  0.00000000000E+00 0.  1.
          2    1    1    2  501    0 -0.19721948852E+02  0.85559615409E+01  0.85210736222E+03  0.85237850541E+03  0.00000000000E+00 0.  1.
          1    1    1    2  502    0  0.19721948852E+02 -0.85559615409E+01  0.35711104241E+03  0.35775753851E+03  0.00000000000E+00 0.  1.
</event>
<event>
 4    1  0.3837333E+003  0.2188213E+02  0.7546771E-02  0.1507033E+00
          2   -1    0    0  502    0  0.00000000000E+00  0.00000000000E+00  0.31851997009E+03  0.31851997009E+03  0.00000000000E+00 0. -1.
          1   -1    0    0  501    0 -0.00000000000E+00 -0.00000000000E+00 -0.24258962673E+03  0.24258962673E+03  0.00000000000E+00 0. -1.
          2    1    1    2  501    0 -0.20544308930E+02  0.75338509171E+01  0.31764934272E+03  0.31840215525E+03  0.00000000000E+00 0. -1.
          1    1    1    2  502    0  0.20544308930E+02 -0.75338509171E+01 -0.24171899936E+03  0.24270744156E+03  0.00000000000E+00 0. -1.
</event>
<event>
 4    1  0.3837333E+003  0.2141807E+02  0.7546771E-02  0.1513379E+00
          2   -1    0    0  502    0  0.00000000000E+00  0.00000000000E+00  0.61427589691E+03  0.61427589691E+03  0.00000000000E+00 0. -1.
          1   -1    0    0  501    0 -0.00000000000E+00 -0.00000000000E+00 -0.63638466883E+01  0.63638466883E+01  0.00000000000E+00 0. -1.
          2    1    1    2  501    0 -0.19314490769E+02  0.92565783330E+01  0.59550009910E+03  0.59588514147E+03  0.00000000000E+00 0. -1.
          1    1    1    2  502    0  0.19314490769E+02 -0.92565783330E+01  0.12411951129E+02  0.24754602136E+02  0.00000000000E+00 0. -1.
</event>
<event>
 4    1  0.3837333E+003  0.2060395E+02  0.7546771E-02  0.1524995E+00
          2   -1    0    0  502    0  0.00000000000E+00  0.00000000000E+00  0.93205170865E+03  0.93205170865E+03  0.00000000000E+00 0.  1.
          1   -1    0    0  501    0 -0.00000000000E+00 -0.00000000000E+00 -0.16427374636E+01  0.16427374636E+01  0.00000000000E+00 0. -1.
          2    1    1    2  501    0 -0.74682278078E+01 -0.19202820872E+02  0.86208954811E+03  0.86233573028E+03  0.00000000000E+00 0.  1.
          1    1    1    2  502    0  0.74682278078E+01  0.19202820872E+02  0.68319423083E+02  0.71358715840E+02  0.00000000000E+00 0. -1.
</event>
<event>
 4    1  0.3837333E+003  0.7419153E+02  0.7546771E-02  0.1218015E+00
          2   -1    0    0  502    0  0.00000000000E+00  0.00000000000E+00  0.21421168495E+04  0.21421168495E+04  0.00000000000E+00 0. -1.
          1   -1    0    0  501    0 -0.00000000000E+00 -0.00000000000E+00 -0.65979812909E+01  0.65979812909E+01  0.00000000000E+00 0.  1.
          2    1    1    2  501    0  0.57962742264E+02 -0.46310938178E+02  0.19072359578E+04  0.19086784384E+04  0.00000000000E+00 0. -1.
          1    1    1    2  502    0 -0.57962742264E+02  0.46310938178E+02  0.22828291033E+03  0.24003639232E+03  0.00000000000E+00 0.  1.
</event>
<event>
 4    1  0.3837333E+003  0.2474604E+02  0.7546771E-02  0.1471665E+00
          2   -1    0    0  502    0  0.00000000000E+00  0.00000000000E+00  0.21951336192E+02  0.21951336192E+02  0.00000000000E+00 0. -1.
          1   -1    0    0  501    0 -0.00000000000E+00 -0.00000000000E+00 -0.40306724078E+02  0.40306724078E+02  0.00000000000E+00 0. -1.
          2    1    1    2  501    0 -0.82827612231E+01 -0.23318714330E+02  0.80952258527E+01  0.26036498479E+02  0.00000000000E+00 0. -1.
          1    1    1    2  502    0  0.82827612231E+01  0.23318714330E+02 -0.26450613739E+02  0.36221561792E+02  0.00000000000E+00 0. -1.
</event>
<event>
 4    1  0.3837333E+003  0.3282482E+02  0.7546771E-02  0.1396536E+00
          2   -1    0    0  502    0  0.00000000000E+00  0.00000000000E+00  0.19874390532E+04  0.19874390532E+04  0.00000000000E+00 0. -1.
          1   -1    0    0  501    0 -0.00000000000E+00 -0.00000000000E+00 -0.26011084346E+02  0.26011084346E+02  0.00000000000E+00 0.  1.
          2    1    1    2  501    0  0.30683639541E+02 -0.11661187854E+02  0.19768924097E+04  0.19771649068E+04  0.00000000000E+00 0. -1.
          1    1    1    2  502    0 -0.30683639541E+02  0.11661187854E+02 -0.15464440885E+02  0.36285230736E+02  0.00000000000E+00 0.  1.
</event>
<event>
 4    1  0.3837333E+003  0.4876311E+02  0.7546771E-02  0.1303626E+00
          2   -1    0    0  502    0  0.00000000000E+00  0.00000000000E+00  0.90934434288E+03  0.90934434288E+03  0.00000000000E+00 0. -1.
          1   -1    0    0  501    0 -0.00000000000E+00 -0.00000000000E+00 -0.18228882021E+02  0.18228882021E+02  0.00000000000E+00 0.  1.
          2    1    1    2  501    0 -0.42840620174E+02 -0.23292109581E+02  0.87479268457E+03  0.87615071882E+03  0.00000000000E+00 0. -1.
          1    1    1    2  502    0  0.42840620174E+02  0.23292109581E+02  0.16322776281E+02  0.51422506077E+02  0.00000000000E+00 0.  1.
</event>
<event>
 4    1  0.3837333E+003  0.3364228E+02  0.7546771E-02  0.1390368E+00
          2   -1    0    0  502    0  0.00000000000E+00  0.00000000000E+00  0.19381356752E+04  0.19381356752E+04  0.00000000000E+00 0.  1.
          1   -1    0    0  501    0 -0.00000000000E+00 -0.00000000000E+00 -0.26697587061E+02  0.26697587061E+02  0.00000000000E+00 0. -1.
          2    1    1    2  501    0 -0.33642276096E+02  0.38242741840E-02  0.19273319170E+04  0.19276255137E+04  0.00000000000E+00 0.  1.
          1    1    1    2  502    0  0.33642276096E+02 -0.38242741840E-02 -0.15893828881E+02  0.37207748548E+02  0.00000000000E+00 0. -1.
</event>
<event>
 4    1  0.3837333E+003  0.2478147E+02  0.7546771E-02  0.1471263E+00
          2   -1    0    0  502    0  0.00000000000E+00  0.00000000000E+00  0.12628610343E+03  0.12628610343E+03  0.00000000000E+00 0.  1.
          1   -1    0    0  501    0 -0.00000000000E+00 -0.00000000000E+00 -0.78617906030E+01  0.78617906030E+01  0.00000000000E+00 0.  1.
          2    1    1    2  501    0 -0.16218438268E+01  0.24728338568E+02  0.10063795683E+03  0.10364419646E+03  0.00000000000E+00 0.  1.
          1    1    1    2  502    0  0.16218438268E+01 -0.24728338568E+02  0.17786355997E+02  0.30503697569E+02  0.00000000000E+00 0.  1.
</event>
<event>
 4    1  0.3837333E+003  0.2766308E+02  0.7546771E-02  0.1441059E+00
          2   -1    0    0  502    0  0.00000000000E+00  0.00000000000E+00  0.12426431907E+04  0.12426431907E+04  0.00000000000E+00 0. -1.
          1   -1    0    0  501    0 -0.00000000000E+00 -0.00000000000E+00 -0.80938546385E+01  0.80938546385E+01  0.00000000000E+00 0.  1.
          2    1    1    2  501    0 -0.27546267191E+02 -0.25395729480E+01  0.12183819832E+04  0.12186959847E+04  0.00000000000E+00 0. -1.
          1    1    1    2  502    0  0.27546267191E+02  0.25395729480E+01  0.16167352926E+02  0.32041060650E+02  0.00000000000E+00 0.  1.
</event>
<event>
 4    1  0.3837333E+003  0.2805426E+02  0.7546771E-02  0.1437296E+00
          2   -1    0    0  502    0  0.00000000000E+00  0.00000000000E+00  0.28317062385E+01  0.28317062385E+01  0.00000000000E+00 0. -1.
          1   -1    0    0  501    0 -0.00000000000E+00 -0.00000000000E+00 -0.34618254996E+03  0.34618254996E+03  0.00000000000E+00 0. -1.
          2    1    1    2  501    0 -0.81756395603E+01  0.26836549949E+02 -0.94195083619E+02  0.98284054014E+02  0.00000000000E+00 0. -1.
          1    1    1    2  502    0  0.81756395603E+01 -0.26836549949E+02 -0.24915576011E+03  0.25073020219E+03  0.00000000000E+00 0. -1.
</event>
<event>
 4    1  0.3837333E+003  0.2384318E+02  0.7546771E-02  0.1482173E+00
          2   -1    0    0  502    0  0.00000000000E+00  0.00000000000E+00  0.85355586099E+02  0.85355586099E+02  0.00000000000E+00 0. -1.
          1   -1    0    0  501    0 -0.00000000000E+00 -0.00000000000E+00 -0.29914921748E+03  0.29914921748E+03  0.00000000000E+00 0.  1.
          2    1    1    2  501    0  0.94231836716E+01 -0.21902078282E+02  0.83203358438E+02  0.86552274835E+02  0.00000000000E+00 0. -1.
          1    1    1    2  502    0 -0.94231836716E+01  0.21902078282E+02 -0.29699698982E+03  0.29795252875E+03  0.00000000000E+00 0.  1.
</event>
<event>
 4    1  0.3837333E+003  0.2178814E+02  0.7546771E-02  0.1508303E+00
          2   -1    0    0  502    0  0.00000000000E+00  0.00000000000E+00  0.50443119135E+01  0.50443119135E+01  0.00000000000E+00 0. -1.
          1   -1    0    0  501    0 -0.00000000000E+00 -0.00000000000E+00 -0.51659965095E+03  0.51659965095E+03  0.00000000000E+00 0.  1.
          2    1    1    2  501    0  0.17302535076E+02 -0.13241809519E+02 -0.19906498599E+02  0.29512572335E+02  0.00000000000E+00 0. -1.
          1    1    1    2  502    0 -0.17302535076E+02  0.13241809519E+02 -0.49164884044E+03  0.49213139053E+03  0.00000000000E+00 0.  1.
</event>
<event>
 4    1  0.3837333E+003  0.2860092E+02  0.7546771E-02  0.1432157E+00
          2   -1    0    0  502    0  0.00000000000E+00  0.00000000000E+00  0.19465486560E+03  0.19465486560E+03  0.00000000000E+00 0. -1.
          1   -1    0    0  501    0 -0.00000000000E+00 -0.00000000000E+00 -0.63001593808E+01  0.63001593808E+01  0.00000000000E+00 0. -1.
          2    1    1    2  501    0 -0.24939451383E+02  0.14001290111E+02  0.15215675525E+03  0.15482147955E+03  0.00000000000E+00 0. -1.
          1    1    1    2  502    0  0.24939451383E+02 -0.14001290111E+02  0.36197950964E+02  0.46133545432E+02  0.00000000000E+00 0. -1.
</event>
<event>
 4    1  0.3837333E+003  0.2188287E+02  0.7546771E-02  0.1507024E+00
          2   -1    0    0  502    0  0.00000000000E+00  0.00000000000E+00  0.45208592117E+03  0.45208592117E+03  0.00000000000E+00 0. -1.
          1   -1    0    0  501    0 -0.00000000000E+00 -0.00000000000E+00 -0.56243404133E+02  0.56243404133E+02  0.00000000000E+00 0. -1.
          2    1    1    2  501    0 -0.18557154705E+02 -0.11597059702E+02  0.44968122450E+03  0.45021335326E+03  0.00000000000E+00 0. -1.
          1    1    1    2  502    0  0.18557154705E+02  0.11597059702E+02 -0.53838707467E+02  0.58115972040E+02  0.00000000000E+00 0. -1.
</event>
<event>
 4    1  0.3837333E+003  0.3005144E+02  0.7546771E-02  0.1419150E+00
          2   -1    0    0  502    0  0.00000000000E+00  0.00000000000E+00  0.17768570872E+02  0.17768570872E+02  0.00000000000E+00 0.  1.
          1   -1    0    0  501    0 -0.00000000000E+00 -0.00000000000E+00 -0.81516873986E+02  0.81516873986E+02  0.00000000000E+00 0.  1.
          2    1    1    2  501    0  0.21813316904E+02  0.20670464729E+02 -0.14132312306E+01  0.30084649391E+02  0.00000000000E+00 0.  1.
          1    1    1    2  502    0 -0.21813316904E+02 -0.20670464729E+02 -0.62335071883E+02  0.69200795466E+02  0.00000000000E+00 0.  1.
</event>
<event>
 4    1  0.3837333E+003  0.2460153E+02  0.7546771E-02  0.1473311E+00
          2   -1    0    0  502    0  0.00000000000E+00  0.00000000000E+00  0.84320221379E+01  0.84320221379E+01  0.00000000000E+00 0. -1.
          1   -1    0    0  501    0 -0.00000000000E+00 -0.00000000000E+00 -0.18543660928E+03  0.18543660928E+03  0.00000000000E+00 0.  1.
          2    1    1    2  501    0 -0.23804305853E+02 -0.62121204835E+01 -0.12612986703E+02  0.27646389485E+02  0.00000000000E+00 0. -1.
          1    1    1    2  502    0  0.23804305853E+02  0.62121204835E+01 -0.16439160044E+03  0.16622224193E+03  0.00000000000E+00 0.  1.
</event>
<event>
 4    1  0.3837333E+003  0.2501817E+02  0.7546771E-02  0.1468600E+00
          2   -1    0    0  502    0  0.00000000000E+00  0.00000000000E+00  0.24785755995E+03  0.24785755995E+03  0.00000000000E+00 0.  1.
          1   -1    0    0  501    0 -0.00000000000E+00 -0.00000000000E+00 -0.35783613128E+02  0.35783613128E+02  0.00000000000E+00 0.  1.
          2    1    1    2  501    0 -0.39031539987E+01  0.24711820780E+02  0.24276182141E+03  0.24404755814E+03  0.00000000000E+00 0.  1.
          1    1    1    2  502    0  0.39031539987E+01 -0.24711820780E+02 -0.30687874589E+02  0.39593614942E+02  0.00000000000E+00 0.  1.
</event>
<event>
 4    1  0.3837333E+003  0.2608853E+02  0.7546771E-02  0.1456985E+00
          2   -1    0    0  502    0  0.00000000000E+00  0.00000000000E+00  0.61810745990E+03  0.61810745990E+03  0.00000000000E+00 0. -1.
          1   -1    0    0  501    0 -0.00000000000E+00 -0.00000000000E+00 -0.27229954806E+02  0.27229954806E+02  0.00000000000E+00 0.  1.
          2    1    1    2  501    0  0.23557329377E+02 -0.11209981155E+02  0.61151611865E+03  0.61207236076E+03  0.00000000000E+00 0. -1.
          1    1    1    2  502    0 -0.23557329377E+02  0.11209981155E+02 -0.20638613549E+02  0.33265053947E+02  0.00000000000E+00 0.  1.
</event>
<event>
 4    1  0.3837333E+003  0.2200353E+02  0.7546771E-02  0.1505405E+00
          2   -1    0    0  502    0  0.00000000000E+00  0.00000000000E+00  0.70182816085E+02  0.70182816085E+02  0.00000000000E+00 0.  1.
          1   -1    0    0  501    0 -0.00000000000E+00 -0.00000000000E+00 -0.17165919727E+03  0.17165919727E+03  0.00000000000E+00 0. -1.
          2    1    1    2  501    0  0.21860566565E+02  0.25041945916E+01  0.67728168438E+02  0.71212780883E+02  0.00000000000E+00 0.  1.
          1    1    1    2  502    0 -0.21860566565E+02 -0.25041945916E+01 -0.16920454962E+03  0.17062923247E+03  0.00000000000E+00 0. -1.
</event>
<event>
 4    1  0.3837333E+003  0.2405510E+02  0.7546771E-02  0.1479658E+00
          2   -1    0    0  502    0  0.00000000000E+00  0.00000000000E+00  0.56217047630E+02  0.56217047630E+02  0.00000000000E+00 0. -1.
          1   -1    0    0  501    0 -0.00000000000E+00 -0.00000000000E+00 -0.25512189830E+02  0.25512189830E+02  0.00000000000E+00 0.  1.
          2    1    1    2  501    0  0.19407914188E+02 -0.14211999350E+02  0.46914669767E+02  0.52722237225E+02  0.00000000000E+00 0. -1.
          1    1    1    2  502    0 -0.19407914188E+02  0.14211999350E+02 -0.16209811967E+02  0.29007000235E+02  0.00000000000E+00 0.  1.
</event>
<event>
 4    1  0.3837333E+003  0.5062682E+02  0.7546771E-02  0.1295477E+00
          2   -1    0    0  502    0  0.00000000000E+00  0.00000000000E+00  0.20258288925E+03  0.20258288925E+03  0.00000000000E+00 0.  1.
          1   -1    0    0  501    0 -0.00000000000E+00 -0.00000000000E+00 -0.38107340098E+03  0.38107340098E+03  0.00000000000E+00 0.  1.
          2    1    1    2  501    0 -0.10544337196E+02 -0.49516583912E+02  0.19769751782E+03  0.20407690630E+03  0.00000000000E+00 0.  1.
          1    1    1    2  502    0  0.10544337196E+02  0.49516583912E+02 -0.37618802955E+03  0.37957938393E+03  0.00000000000E+00 0.  1.
</event>
<event>
 4    1  0.3837333E+003  0.2497351E+02  0.7546771E-02  0.1469100E+00
          2   -1    0    0  502    0  0.00000000000E+00  0.00000000000E+00  0.15038113710E+03  0.15038113710E+03  0.00000000000E+00 0.  1.
          1   -1    0    0  501    0 -0.00000000000E+00 -0.00000000000E+00 -0.23910324830E+02  0.23910324830E+02  0.00000000000E+00 0. -1.
          2    1    1    2  501    0 -0.24915618472E+02  0.16994325257E+01  0.14246365482E+03  0.14463598812E+03  0.00000000000E+00 0.  1.
          1    1    1    2  502    0  0.24915618472E+02 -0.16994325257E+01 -0.15992842543E+02  0.29655473818E+02  0.00000000000E+00 0. -1.
</event>
<event>
 4    1  0.3837333E+003  0.2143522E+02  0.7546771E-02  0.1513141E+00
          2   -1    0    0  502    0  0.00000000000E+00  0.00000000000E+00  0.31827299888E+02  0.31827299888E+02  0.00000000000E+00 0. -1.
          1   -1    0    0  501    0 -0.00000000000E+00 -0.00000000000E+00 -0.43121978670E+02  0.43121978670E+02  0.00000000000E+00 0.  1.
          2    1    1    2  501    0 -0.10533683789E+02 -0.18668431855E+02  0.24917392610E+02  0.32868606550E+02  0.00000000000E+00 0. -1.
          1    1    1    2  502    0  0.10533683789E+02  0.18668431855E+02 -0.36212071392E+02  0.42080672008E+02  0.00000000000E+00 0.  1.
</event>
<event>
 4    1  0.3837333E+003  0.2160637E+02  0.7546771E-02  0.1510781E+00
          2   -1    0    0  502    0  0.00000000000E+00  0.00000000000E+00  0.10595754875E+04  0.10595754875E+04  0.00000000000E+00 0.  1.
          1   -1    0    0  501    0 -0.00000000000E+00 -0.00000000000E+00 -0.65545444865E+01  0.65545444865E+01  0.00000000000E+00 0. -1.
          2    1    1    2  501    0  0.24183131180E+01  0.21470604350E+02  0.10413479260E+04  0.10415720513E+04  0.00000000000E+00 0.  1.
          1    1    1    2  502    0 -0.24183131180E+01 -0.21470604350E+02  0.11673017046E+02  0.24557980708E+02  0.00000000000E+00 0. -1.
</event>
<event>
 4    1  0.3837333E+003  0.2050850E+02  0.7546771E-02  0.1526399E+00
          2   -1    0    0  502    0  0.00000000000E+00  0.00000000000E+00  0.13842415071E+04  0.13842415071E+04  0.00000000000E+00 0.  1.
          1   -1    0    0  501    0 -0.00000000000E+00 -0.00000000000E+00 -0.55803051268E+00  0.55803051268E+00  0.00000000000E+00 0.  1.
          2    1    1    2  501    0  0.11698107834E+02  0.16844961555E+02  0.11591474818E+04  0.11593288934E+04  0.00000000000E+00 0.  1.
          1    1    1    2  502    0 -0.11698107834E+02 -0.16844961555E+02  0.22453599480E+03  0.22547064425E+03  0.00000000000E+00 0.  1.
</event>
<event>
 4    1  0.3837333E+003  0.3094687E+02  0.7546771E-02  0.1411543E+00
          2   -1    0    0  502    0  0.00000000000E+00  0.00000000000E+00  0.87924172523E+03  0.87924172523E+03  0.00000000000E+00 0. -1.
          1   -1    0    0  501    0 -0.00000000000E+00 -0.00000000000E+00 -0.26298038034E+02  0.26298038034E+02  0.00000000000E+00 0. -1.
          2    1    1    2  501    0 -0.11205577652E+02 -0.28846900423E+02  0.86976588276E+03  0.87031626404E+03  0.00000000000E+00 0. -1.
          1    1    1    2  502    0  0.11205577652E+02  0.28846900423E+02 -0.16822195560E+02  0.35223499230E+02  0.00000000000E+00 0. -1.
</event>
<event>
 4    1  0.3837333E+003  0.8329097E+02  0.7546771E-02  0.1196407E+00
          2   -1    0    0  502    0  0.00000000000E+00  0.00000000000E+00  0.82698647249E+01  0.82698647249E+01  0.00000000000E+00 0. -1.
          1   -1    0    0  501    0 -0.00000000000E+00 -0.00000000000E+00 -0.85960822672E+03  0.85960822672E+03  0.00000000000E+00 0. -1.
          2    1    1    2  501    0 -0.61064435823E+02 -0.56643797508E+02 -0.35827709127E+03  0.36783129183E+03  0.00000000000E+00 0. -1.
          1    1    1    2  502    0  0.61064435823E+02  0.56643797508E+02 -0.49306127073E+03  0.50004679962E+03  0.00000000000E+00 0. -1.
</event>
<event>
 4    1  0.3837333E+003  0.5294314E+02  0.7546771E-02  0.1285893E+00
          2   -1    0    0  502    0  0.00000000000E+00  0.00000000000E+00  0.32023701363E+04  0.32023701363E+04  0.00000000000E+00 0. -1.
          1   -1    0    0  501    0 -0.00000000000E+00 -0.00000000000E+00 -0.40280000776E+01  0.40280000776E+01  0.00000000000E+00 0. -1.
          2    1    1    2  501    0 -0.47121246631E+02  0.24136371031E+02  0.30175272277E+04  0.30179916412E+04  0.00000000000E+00 0. -1.
          1    1    1    2  502    0  0.47121246631E+02 -0.24136371031E+02  0.18081490852E+03  0.18840649520E+03  0.00000000000E+00 0. -1.
</event>
<event>
 4    1  0.3837333E+003  0.2138436E+02  0.7546771E-02  0.1513847E+00
          2   -1    0    0  502    0  0.00000000000E+00  0.00000000000E+00  0.90144069787E+02  0.90144069787E+02  0.00000000000E+00 0. -1.
          1   -1    0    0  501    0 -0.00000000000E+00 -0.00000000000E+00 -0.59590360200E+02  0.59590360200E+02  0.00000000000E+00 0.  1.
          2    1    1    2  501    0 -0.25594992379E+01 -0.21230632621E+02  0.86886500802E+02  0.89479354152E+02  0.00000000000E+00 0. -1.
          1    1    1    2  502    0  0.25594992379E+01  0.21230632621E+02 -0.56332791214E+02  0.60255075835E+02  0.00000000000E+00 0.  1.
</event>
<event>
 4    1  0.3837333E+003  0.2177871E+02  0.7546771E-02  0.1508431E+00
          2   -1    0    0  502    0  0.00000000000E+00  0.00000000000E+00  0.19789706510E+02  0.19789706510E+02  0.00000000000E+00 0.  1.
          1   -1    0    0  501    0 -0.00000000000E+00 -0.00000000000E+00 -0.56012988319E+02  0.56012988319E+02  0.00000000000E+00 0.  1.
          2    1    1    2  501    0  0.19344068125E+02 -0.10005958712E+02  0.10556062755E+02  0.24202120615E+02  0.00000000000E+00 0.  1.
          1    1    1    2  502    0 -0.19344068125E+02  0.10005958712E+02 -0.46779344564E+02  0.51600574214E+02  0.00000000000E+00 0.  1.
</event>
<event>
 4    1  0.3837333E+003  0.2497689E+02  0.7546771E-02  0.1469062E+00
          2   -1    0    0  502    0  0.00000000000E+00  0.00000000000E+00  0.31176083829E+02  0.31176083829E+02  0.00000000000E+00 0.  1.
          1   -1    0    0  501    0 -0.00000000000E+00 -0.00000000000E+00 -0.95815169002E+03  0.95815169002E+03  0.00000000000E+00 0. -1.
          2    1    1    2  501    0  0.21000214049E+02 -0.13521696983E+02  0.25983461581E+02  0.36041442190E+02  0.00000000000E+00 0.  1.
          1    1    1    2  502    0 -0.21000214049E+02  0.13521696983E+02 -0.95295906777E+03  0.95328633166E+03  0.00000000000E+00 0. -1.
</event>
<event>
 4    1  0.3837333E+003  0.2138418E+02  0.7546771E-02  0.1513850E+00
          2   -1    0    0  502    0  0.00000000000E+00  0.00000000000E+00  0.14766772804E+03  0.14766772804E+03  0.00000000000E+00 0. -1.
          1   -1    0    0  501    0 -0.00000000000E+00 -0.00000000000E+00 -0.64305037612E+02  0.64305037612E+02  0.00000000000E+00 0. -1.
          2    1    1    2  501    0 -0.13300855542E+02  0.16744268243E+02  0.14508427627E+03  0.14665173200E+03  0.00000000000E+00 0. -1.
          1    1    1    2  502    0  0.13300855542E+02 -0.16744268243E+02 -0.61721585849E+02  0.65321033648E+02  0.00000000000E+00 0. -1.
</event>
<event>
 4    1  0.3837333E+003  0.2737631E+02  0.7546771E-02  0.1443864E+00
          2   -1    0    0  502    0  0.00000000000E+00  0.00000000000E+00  0.46843127434E+01  0.46843127434E+01  0.00000000000E+00 0. -1.
          1   -1    0    0  501    0 -0.00000000000E+00 -0.00000000000E+00 -0.23385560967E+03  0.23385560967E+03  0.00000000000E+00 0.  1.
          2    1    1    2  501    0 -0.46507431799E+01 -0.26978376660E+02 -0.47556085730E+02  0.54872976129E+02  0.00000000000E+00 0. -1.
          1    1    1    2  502    0  0.46507431799E+01  0.26978376660E+02 -0.18161521119E+03  0.18366694628E+03  0.00000000000E+00 0.  1.
</event>
<event>
 4    1  0.3837333E+003  0.2074907E+02  0.7546771E-02  0.1522878E+00
          2   -1    0    0  502    0  0.00000000000E+00  0.00000000000E+00  0.38017886478E+01  0.38017886478E+01  0.00000000000E+00 0. -1.
          1   -1    0    0  501    0 -0.00000000000E+00 -0.00000000000E+00 -0.98169716852E+03  0.98169716852E+03  0.00000000000E+00 0.  1.
          2    1    1    2  501    0 -0.15891307528E+02 -0.13341304353E+02 -0.25489052063E+02  0.32866637063E+02  0.00000000000E+00 0. -1.
          1    1    1    2  502    0  0.15891307528E+02  0.13341304353E+02 -0.95240632781E+03  0.95263232010E+03  0.00000000000E+00 0.  1.
</event>
<event>
 4    1  0.3837333E+003  0.4283433E+02  0.7546771E-02  0.1332632E+00
          2   -1    0    0  502    0  0.00000000000E+00  0.00000000000E+00  0.29811038857E+01  0.29811038857E+01  0.00000000000E+00 0. -1.
          1   -1    0    0  501    0 -0.00000000000E+00 -0.00000000000E+00 -0.22236904178E+04  0.22236904178E+04  0.00000000000E+00 0. -1.
          2    1    1    2  501    0  0.57129213345E+01  0.42451651475E+02 -0.16354697140E+03  0.16906327820E+03  0.00000000000E+00 0. -1.
          1    1    1    2  502    0 -0.57129213345E+01 -0.42451651475E+02 -0.20571623425E+04  0.20576082435E+04  0.00000000000E+00 0. -1.
</event>
<event>
 4    1  0.3837333E+003  0.2160912E+02  0.7546771E-02  0.1510743E+00
          2   -1    0    0  502    0  0.00000000000E+00  0.00000000000E+00  0.65142667741E+03  0.65142667741E+03  0.00000000000E+00 0. -1.
          1   -1    0    0  501    0 -0.00000000000E+00 -0.00000000000E+00 -0.19992364709E+03  0.19992364709E+03  0.00000000000E+00 0.  1.
          2    1    1    2  501    0 -0.13832061453E+02 -0.16602056145E+02  0.65066287206E+03  0.65102160277E+03  0.00000000000E+00 0. -1.
          1    1    1    2  502    0  0.13832061453E+02  0.16602056145E+02 -0.19915984173E+03  0.20032872173E+03  0.00000000000E+00 0.  1.
</event>
<event>
 4    1  0.3837333E+003  0.3338946E+02  0.7546771E-02  0.1392253E+00
          2   -1    0    0  502    0  0.00000000000E+00  0.00000000000E+00  0.26599084920E+04  0.26599084920E+04  0.00000000000E+00 0.  1.
          1   -1    0    0  501    0 -0.00000000000E+00 -0.00000000000E+00 -0.48990594992E+00  0.48990594992E+00  0.00000000000E+00 0. -1.
          2    1    1    2  501    0  0.12571394442E+02  0.30932441538E+02  0.18352934190E+04  0.18355971208E+04  0.00000000000E+00 0.  1.
          1    1    1    2  502    0 -0.12571394442E+02 -0.30932441538E+02  0.82412516705E+03  0.82480127719E+03  0.00000000000E+00 0. -1.
</event>
<event>
 4    1  0.3837333E+003  0.2169737E+02  0.7546771E-02  0.1509537E+00
          2   -1    0    0  502    0  0.00000000000E+00  0.00000000000E+00  0.31742292663E+03  0.31742292663E+03  0.00000000000E+00 0.  1.
          1   -1    0    0  501    0 -0.00000000000E+00 -0.00000000000E+00 -0.72205824214E+02  0.72205824214E+02  0.00000000000E+00 0. -1.
          2    1    1    2  501    0  0.15885343742E+02 -0.14779429402E+02  0.31541178806E+03  0.31615719464E+03  0.00000000000E+00 0.  1.
          1    1    1    2  502    0 -0.15885343742E+02  0.14779429402E+02 -0.70194685638E+02  0.73471556204E+02  0.00000000000E+00 0. -1.
</event>
<event>
 4    1  0.3837333E+003  0.2977206E+02  0.7546771E-02  0.1421588E+00
          2   -1    0    0  502    0  0.00000000000E+00  0.00000000000E+00  0.37909389281E+01  0.37909389281E+01  0.00000000000E+00 0.  1.
          1   -1    0    0  501    0 -0.00000000000E+00 -0.00000000000E+00 -0.91726583658E+03  0.91726583658E+03  0.00000000000E+00 0. -1.
          2    1    1    2  501    0  0.27551135956E+02 -0.11283196289E+02 -0.59214075625E+02  0.66277314091E+02  0.00000000000E+00 0.  1.
          1    1    1    2  502    0 -0.27551135956E+02  0.11283196289E+02 -0.85426082202E+03  0.85477946141E+03  0.00000000000E+00 0. -1.
</event>
<event>
 4    1  0.3837333E+003  0.2398341E+02  0.7546771E-02  0.1480505E+00
          2   -1    0    0  502    0  0.00000000000E+00  0.00000000000E+00  0.63734268140E+01  0.63734268140E+01  0.00000000000E+00 0.  1.
          1   -1    0    0  501    0 -0.00000000000E+00 -0.00000000000E+00 -0.10495033978E+03  0.10495033978E+03  0.00000000000E+00 0.  1.
          2    1    1    2  501    0  0.19046598249E+02  0.14575008680E+02 -0.28456743029E+02  0.37215453870E+02  0.00000000000E+00 0.  1.
          1    1    1    2  502    0 -0.19046598249E+02 -0.14575008680E+02 -0.70120169936E+02  0.74108312724E+02  0.00000000000E+00 0.  1.
</event>
<event>
 4    1  0.3837333E+003  0.3561526E+02  0.7546771E-02  0.1376289E+00
          2   -1    0    0  502    0  0.00000000000E+00  0.00000000000E+00  0.10511777326E+02  0.10511777326E+02  0.00000000000E+00 0.  1.
          1   -1    0    0  501    0 -0.00000000000E+00 -0.00000000000E+00 -0.54476301456E+03  0.54476301456E+03  0.00000000000E+00 0.  1.
          2    1    1    2  501    0 -0.14952594986E+02  0.32324391735E+02 -0.22159968395E+02  0.41946520679E+02  0.00000000000E+00 0.  1.
          1    1    1    2  502    0  0.14952594986E+02 -0.32324391735E+02 -0.51209126884E+03  0.51332827121E+03  0.00000000000E+00 0.  1.
</event>
<event>
 4    1  0.3837333E+003  0.2505562E+02  0.7546771E-02  0.1468182E+00
          2   -1    0    0  502    0  0.00000000000E+00  0.00000000000E+00  0.97708803603E+03  0.97708803603E+03  0.00000000000E+00 0. -1.
          1   -1    0    0  501    0 -0.00000000000E+00 -0.00000000000E+00 -0.10479332038E+01  0.10479332038E+01  0.00000000000E+00 0.  1.
          2    1    1    2  501    0  0.19857126968E+02 -0.15280010361E+02  0.79222009349E+03  0.79261621277E+03  0.00000000000E+00 0. -1.
          1    1    1    2  502    0 -0.19857126968E+02  0.15280010361E+02  0.18382000933E+03  0.18551975647E+03  0.00000000000E+00 0.  1.
</event>
<event>
 4    1  0.3837333E+003  0.2176218E+02  0.7546771E-02  0.1508655E+00
          2   -1    0    0  502    0  0.00000000000E+00  0.00000000000E+00  0.22983471084E+02  0.22983471084E+02  0.00000000000E+00 0.  1.
          1   -1    0    0  501    0 -0.00000000000E+00 -0.00000000000E+00 -0.96354596757E+02  0.96354596757E+02  0.00000000000E+00 0.  1.
          2    1    1    2  501    0 -0.28162691652E+01 -0.21579180285E+02  0.16219923171E+02  0.27141818315E+02  0.00000000000E+00 0.  1.
          1    1    1    2  502    0  0.28162691652E+01  0.21579180285E+02 -0.89591048844E+02  0.92196249526E+02  0.00000000000E+00 0.  1.
</event>
<event>
 4    1  0.3837333E+003  0.2480955E+02  0.7546771E-02  0.1470945E+00
          2   -1    0    0  502    0  0.00000000000E+00  0.00000000000E+00  0.69063190308E+02  0.69063190308E+02  0.00000000000E+00 0. -1.
          1   -1    0    0  501    0 -0.00000000000E+00 -0.00000000000E+00 -0.31765865366E+02  0.31765865366E+02  0.00000000000E+00 0. -1.
          2    1    1    2  501    0  0.16814054297E+02  0.18242843555E+02  0.61410078688E+02  0.66232254434E+02  0.00000000000E+00 0. -1.
          1    1    1    2  502    0 -0.16814054297E+02 -0.18242843555E+02 -0.24112753746E+02  0.34596801241E+02  0.00000000000E+00 0. -1.
</event>
<event>
 4    1  0.3837333E+003  0.3613563E+02  0.7546771E-02  0.1372750E+00
          2   -1    0    0  502    0  0.00000000000E+00  0.00000000000E+00  0.43464962455E+03  0.43464962455E+03  0.00000000000E+00 0. -1.
          1   -1    0    0  501    0 -0.00000000000E+00 -0.00000000000E+00 -0.11990213915E+03  0.11990213915E+03  0.00000000000E+00 0.  1.
          2    1    1    2  501    0 -0.17942535291E+02  0.31366365803E+02  0.43115393121E+03  0.43266557047E+03  0.00000000000E+00 0. -1.
          1    1    1    2  502    0  0.17942535291E+02 -0.31366365803E+02 -0.11640644580E+03  0.12188619323E+03  0.00000000000E+00 0.  1.
</event>
<event>
 4    1  0.3837333E+003  0.3879296E+02  0.7546771E-02  0.1355708E+00
          2   -1    0    0  502    0  0.00000000000E+00  0.00000000000E+00  0.41306722915E+02  0.41306722915E+02  0.00000000000E+00 0.  1.
          1   -1    0    0  501    0 -0.00000000000E+00 -0.00000000000E+00 -0.13047448522E+03  0.13047448522E+03  0.00000000000E+00 0.  1.
          2    1    1    2  501    0 -0.33564741976E+02 -0.19449983966E+02  0.28335756941E+02  0.48039659674E+02  0.00000000000E+00 0.  1.
          1    1    1    2  502    0  0.33564741976E+02  0.19449983966E+02 -0.11750351925E+03  0.12374154846E+03  0.00000000000E+00 0.  1.
</event>
<event>
 4    1  0.3837333E+003  0.3414052E+02  0.7546771E-02  0.1386708E+00
          2   -1    0    0  502    0  0.00000000000E+00  0.00000000000E+00  0.45677163032E+02  0.45677163032E+02  0.00000000000E+00 0.  1.
          1   -1    0    0  501    0 -0.00000000000E+00 -0.00000000000E+00 -0.48934693966E+03  0.48934693966E+03  0.00000000000E+00 0. -1.
          2    1    1    2  501    0  0.29826902049E+02  0.16611174068E+02  0.38608888481E+02  0.51538543436E+02  0.00000000000E+00 0.  1.
          1    1    1    2  502    0 -0.29826902049E+02 -0.16611174068E+02 -0.48227866511E+03  0.48348555925E+03  0.00000000000E+00 0. -1.
</event>
<event>
 4    1  0.3837333E+003  0.2106433E+02  0.7546771E-02  0.1518348E+00
          2   -1    0    0  502    0  0.00000000000E+00  0.00000000000E+00  0.10236095145E+03  0.10236095145E+03  0.00000000000E+00 0. -1.
          1   -1    0    0  501    0 -0.00000000000E+00 -0.00000000000E+00 -0.16610602690E+02  0.16610602690E+02  0.00000000000E+00 0.  1.
          2    1    1    2  501    0 -0.20202409393E+02  0.59639533842E+01  0.94013535420E+02  0.96344439006E+02  0.00000000000E+00 0. -1.
          1    1    1    2  502    0  0.20202409393E+02 -0.59639533842E+01 -0.82631866640E+01  0.22627115129E+02  0.00000000000E+00 0.  1.
</event>
<event>
 4    1  0.3837333E+003  0.2649021E+02  0.7546771E-02  0.1452797E+00
          2   -1    0    0  502    0  0.00000000000E+00  0.00000000000E+00  0.56970237428E+03  0.56970237428E+03  0.00000000000E+00 0. -1.
          1   -1    0    0  501    0 -0.00000000000E+00 -0.00000000000E+00 -0.12703443603E+02  0.12703443603E+02  0.00000000000E+00 0. -1.
          2    1    1    2  501    0  0.20764388242E+02 -0.16449056742E+02  0.55522468041E+03  0.55585625572E+03  0.00000000000E+00 0. -1.
          1    1    1    2  502    0 -0.20764388242E+02  0.16449056742E+02  0.17742502611E+01  0.26549562157E+02  0.00000000000E+00 0. -1.
</event>
<event>
 4    1  0.3837333E+003  0.3841358E+02  0.7546771E-02  0.1358042E+00
          2   -1    0    0  502    0  0.00000000000E+00  0.00000000000E+00  0.10055491694E+03  0.10055491694E+03  0.00000000000E+00 0. -1.
          1   -1    0    0  501    0 -0.00000000000E+00 -0.00000000000E+00 -0.25579813277E+02  0.25579813277E+02  0.00000000000E+00 0. -1.
          2    1    1    2  501    0 -0.24511915469E+02 -0.29576499728E+02  0.78666291825E+02  0.87544210577E+02  0.00000000000E+00 0. -1.
          1    1    1    2  502    0  0.24511915469E+02  0.29576499728E+02 -0.36911881614E+01  0.38590519641E+02  0.00000000000E+00 0. -1.
</event>
<event>
 4    1  0.3837333E+003  0.2663198E+02  0.7546771E-02  0.1451340E+00
          2   -1    0    0  502    0  0.00000000000E+00  0.00000000000E+00  0.10792827809E+02  0.10792827809E+02  0.00000000000E+00 0. -1.
          1   -1    0    0  501    0 -0.00000000000E+00 -0.00000000000E+00 -0.99758641062E+02  0.99758641062E+02  0.00000000000E+00 0. -1.
          2    1    1    2  501    0  0.22032361952E+02 -0.14961193745E+02 -0.12192731669E+02  0.29290356724E+02  0.00000000000E+00 0. -1.
          1    1    1    2  502    0 -0.22032361952E+02  0.14961193745E+02 -0.76773081584E+02  0.81261112147E+02  0.00000000000E+00 0. -1.
</event>
<event>
 4    1  0.3837333E+003  0.3590951E+02  0.7546771E-02  0.1374279E+00
          2   -1    0    0  502    0  0.00000000000E+00  0.00000000000E+00  0.14654813102E+02  0.14654813102E+02  0.00000000000E+00 0. -1.
          1   -1    0    0  501    0 -0.00000000000E+00 -0.00000000000E+00 -0.92810488850E+02  0.92810488850E+02  0.00000000000E+00 0. -1.
          2    1    1    2  501    0  0.26789510694E+02  0.23912621411E+02 -0.51322341716E+02  0.62637641280E+02  0.00000000000E+00 0. -1.
          1    1    1    2  502    0 -0.26789510694E+02 -0.23912621411E+02 -0.26833334032E+02  0.44827660671E+02  0.00000000000E+00 0. -1.
</event>
<event>
 4    1  0.3837333E+003  0.2330814E+02  0.7546771E-02  0.1488665E+00
          2   -1    0    0  502    0  0.00000000000E+00  0.00000000000E+00  0.55828766748E+03  0.55828766748E+03  0.00000000000E+00 0. -1.
          1   -1    0    0  501    0 -0.00000000000E+00 -0.00000000000E+00 -0.76132781223E+01  0.76132781223E+01  0.00000000000E+00 0. -1.
          2    1    1    2  501    0  0.33621494964E+01 -0.23064376217E+02  0.53958686518E+03  0.54009004303E+03  0.00000000000E+00 0. -1.
          1    1    1    2  502    0 -0.33621494964E+01  0.23064376217E+02  0.11087524179E+02  0.25810902579E+02  0.00000000000E+00 0. -1.
</event>
<event>
 4    1  0.3837333E+003  0.2507825E+02  0.7546771E-02  0.1467930E+00
          2   -1    0    0  502    0  0.00000000000E+00  0.00000000000E+00  0.59240023401E+03  0.59240023401E+03  0.00000000000E+00 0.  1.
          1   -1    0    0  501    0 -0.00000000000E+00 -0.00000000000E+00 -0.39330426482E+01  0.39330426482E+01  0.00000000000E+00 0.  1.
          2    1    1    2  501    0 -0.46828941683E+00  0.25073872610E+02  0.54899957764E+03  0.54957206500E+03  0.00000000000E+00 0.  1.
          1    1    1    2  502    0  0.46828941683E+00 -0.25073872610E+02  0.39467613725E+02  0.46761211658E+02  0.00000000000E+00 0.  1.
</event>
<event>
 4    1  0.3837333E+003  0.2126817E+02  0.7546771E-02  0.1515470E+00
          2   -1    0    0  502    0  0.00000000000E+00  0.00000000000E+00  0.22468687620E+02  0.22468687620E+02  0.00000000000E+00 0.  1.
          1   -1    0    0  501    0 -0.00000000000E+00 -0.00000000000E+00 -0.76676406739E+03  0.76676406739E+03  0.00000000000E+00 0. -1.
          2    1    1    2  501    0 -0.41380608246E+01  0.20861724365E+02  0.17253798567E+02  0.27386651052E+02  0.00000000000E+00 0.  1.
          1    1    1    2  502    0  0.41380608246E+01 -0.20861724365E+02 -0.76154917833E+03  0.76184610396E+03  0.00000000000E+00 0. -1.
</event>
<event>
 4    1  0.3837333E+003  0.2047802E+02  0.7546771E-02  0.1526849E+00
          2   -1    0    0  502    0  0.00000000000E+00  0.00000000000E+00  0.10566200861E+04  0.10566200861E+04  0.00000000000E+00 0. -1.
          1   -1    0    0  501    0 -0.00000000000E+00 -0.00000000000E+00 -0.87815546385E+00  0.87815546385E+00  0.00000000000E+00 0. -1.
          2    1    1    2  501    0 -0.12082889109E+02 -0.16533384418E+02  0.13643400790E+03  0.13796226847E+03  0.00000000000E+00 0. -1.
          1    1    1    2  502    0  0.12082889109E+02  0.16533384418E+02  0.91930792275E+03  0.91953597311E+03  0.00000000000E+00 0. -1.
</event>
<event>
 4    1  0.3837333E+003  0.3133333E+02  0.7546771E-02  0.1408353E+00
          2   -1    0    0  502    0  0.00000000000E+00  0.00000000000E+00  0.18533466161E+03  0.18533466161E+03  0.00000000000E+00 0. -1.
          1   -1    0    0  501    0 -0.00000000000E+00 -0.00000000000E+00 -0.77884031635E+03  0.77884031635E+03  0.00000000000E+00 0. -1.
          2    1    1    2  501    0  0.49126885161E+01 -0.30945809241E+02  0.18369239267E+03  0.18634557345E+03  0.00000000000E+00 0. -1.
          1    1    1    2  502    0 -0.49126885161E+01  0.30945809241E+02 -0.77719804741E+03  0.77782940451E+03  0.00000000000E+00 0. -1.
</event>
<event>
 4    1  0.3837333E+003  0.2221000E+02  0.7546771E-02  0.1502664E+00
          2   -1    0    0  502    0  0.00000000000E+00  0.00000000000E+00  0.75000975152E+01  0.75000975152E+01  0.00000000000E+00 0.  1.
          1   -1    0    0  501    0 -0.00000000000E+00 -0.00000000000E+00 -0.26135675281E+03  0.26135675281E+03  0.00000000000E+00 0. -1.
          2    1    1    2  501    0  0.48511564053E+01 -0.21673725578E+02 -0.10638006795E+02  0.24626231695E+02  0.00000000000E+00 0.  1.
          1    1    1    2  502    0 -0.48511564053E+01  0.21673725578E+02 -0.24321864850E+03  0.24423061864E+03  0.00000000000E+00 0. -1.
</event>
<event>
 4    1  0.3837333E+003  0.2020061E+02  0.7546771E-02  0.1530991E+00
          2   -1    0    0  502    0  0.00000000000E+00  0.00000000000E+00  0.10095007311E+04  0.10095007311E+04  0.00000000000E+00 0. -1.
          1   -1    0    0  501    0 -0.00000000000E+00 -0.00000000000E+00 -0.39212937738E+02  0.39212937738E+02  0.00000000000E+00 0. -1.
          2    1    1    2  501    0  0.20179469340E+02  0.92395986349E+00  0.10067910792E+04  0.10069937149E+04  0.00000000000E+00 0. -1.
          1    1    1    2  502    0 -0.20179469340E+02 -0.92395986349E+00 -0.36503285808E+02  0.41719953972E+02  0.00000000000E+00 0. -1.
</event>
<event>
 4    1  0.3837333E+003  0.5790358E+02  0.7546771E-02  0.1267127E+00
          2   -1    0    0  502    0  0.00000000000E+00  0.00000000000E+00  0.32618011024E+02  0.32618011024E+02  0.00000000000E+00 0. -1.
          1   -1    0    0  501    0 -0.00000000000E+00 -0.00000000000E+00 -0.20863379690E+03  0.20863379690E+03  0.00000000000E+00 0. -1.
          2    1    1    2  501    0  0.20842745596E+02 -0.54022262069E+02 -0.20907692189E+01  0.57941316511E+02  0.00000000000E+00 0. -1.
          1    1    1    2  502    0 -0.20842745596E+02  0.54022262069E+02 -0.17392501666E+03  0.18331049141E+03  0.00000000000E+00 0. -1.
</event>
<event>
 4    1  0.3837333E+003  0.3365479E+02  0.7546771E-02  0.1390275E+00
          2   -1    0    0  502    0  0.00000000000E+00  0.00000000000E+00  0.15565612277E+03  0.15565612277E+03  0.00000000000E+00 0.  1.
          1   -1    0    0  501    0 -0.00000000000E+00 -0.00000000000E+00 -0.11180785937E+03  0.11180785937E+03  0.00000000000E+00 0.  1.
          2    1    1    2  501    0  0.29268156915E+02  0.16613839617E+02  0.15123120176E+03  0.15493069761E+03  0.00000000000E+00 0.  1.
          1    1    1    2  502    0 -0.29268156915E+02 -0.16613839617E+02 -0.10738293836E+03  0.11253328453E+03  0.00000000000E+00 0.  1.
</event>
<event>
 4    1  0.3837333E+003  0.3829040E+02  0.7546771E-02  0.1358806E+00
          2   -1    0    0  502    0  0.00000000000E+00  0.00000000000E+00  0.17692157307E+04  0.17692157307E+04  0.00000000000E+00 0. -1.
          1   -1    0    0  501    0 -0.00000000000E+00 -0.00000000000E+00 -0.93159103620E+00  0.93159103620E+00  0.00000000000E+00 0. -1.
          2    1    1    2  501    0 -0.30398849555E+02  0.23282275243E+02  0.11782787538E+04  0.11789007490E+04  0.00000000000E+00 0. -1.
          1    1    1    2  502    0  0.30398849555E+02 -0.23282275243E+02  0.59000538590E+03  0.59124657275E+03  0.00000000000E+00 0. -1.
</event>
<event>
 4    1  0.3837333E+003  0.2114969E+02  0.7546771E-02  0.1517138E+00
          2   -1    0    0  502    0  0.00000000000E+00  0.00000000000E+00  0.74306524070E+02  0.74306524070E+02  0.00000000000E+00 0.  1.
          1   -1    0    0  501    0 -0.00000000000E+00 -0.00000000000E+00 -0.11436404546E+03  0.11436404546E+03  0.00000000000E+00 0. -1.
          2    1    1    2  501    0  0.10156781788E+02  0.18551255241E+02  0.71790198402E+02  0.74840776812E+02  0.00000000000E+00 0.  1.
          1    1    1    2  502    0 -0.10156781788E+02 -0.18551255241E+02 -0.11184771980E+03  0.11382979272E+03  0.00000000000E+00 0. -1.
</event>
<event>
 4    1  0.3837333E+003  0.2857146E+02  0.7546771E-02  0.1432431E+00
          2   -1    0    0  502    0  0.00000000000E+00  0.00000000000E+00  0.47552954637E+03  0.47552954637E+03  0.00000000000E+00 0. -1.
          1   -1    0    0  501    0 -0.00000000000E+00 -0.00000000000E+00 -0.38791207580E+02  0.38791207580E+02  0.00000000000E+00 0.  1.
          2    1    1    2  501    0 -0.16361465074E+02 -0.23422865308E+02  0.46977495329E+03  0.47064300154E+03  0.00000000000E+00 0. -1.
          1    1    1    2  502    0  0.16361465074E+02  0.23422865308E+02 -0.33036614497E+02  0.43677752415E+02  0.00000000000E+00 0.  1.
</event>
<event>
 4    1  0.3837333E+003  0.2279301E+02  0.7546771E-02  0.1495114E+00
          2   -1    0    0  502    0  0.00000000000E+00  0.00000000000E+00  0.58053566653E+03  0.58053566653E+03  0.00000000000E+00 0. -1.
          1   -1    0    0  501    0 -0.00000000000E+00 -0.00000000000E+00 -0.28766604623E+01  0.28766604623E+01  0.00000000000E+00 0. -1.
          2    1    1    2  501    0 -0.21726080515E+01  0.22689224007E+02  0.53094742147E+03  0.53143643597E+03  0.00000000000E+00 0. -1.
          1    1    1    2  502    0  0.21726080515E+01 -0.22689224007E+02  0.46711584590E+02  0.51975891014E+02  0.00000000000E+00 0. -1.
</event>
<event>
 4    1  0.3837333E+003  0.2402387E+02  0.7546771E-02  0.1480027E+00
          2   -1    0    0  502    0  0.00000000000E+00  0.00000000000E+00  0.17272601891E+02  0.17272601891E+02  0.00000000000E+00 0. -1.
          1   -1    0    0  501    0 -0.00000000000E+00 -0.00000000000E+00 -0.61431954102E+03  0.61431954102E+03  0.00000000000E+00 0. -1.
          2    1    1    2  501    0 -0.21668021898E+02  0.10375125433E+02  0.85641616446E+01  0.25504730255E+02  0.00000000000E+00 0. -1.
          1    1    1    2  502    0  0.21668021898E+02 -0.10375125433E+02 -0.60561110078E+03  0.60608741266E+03  0.00000000000E+00 0. -1.
</event>
<event>
 4    1  0.3837333E+003  0.3163765E+02  0.7546771E-02  0.1405880E+00
          2   -1    0    0  502    0  0.00000000000E+00  0.00000000000E+00  0.10395683460E+03  0.10395683460E+03  0.00000000000E+00 0. -1.
          1   -1    0    0  501    0 -0.00000000000E+00 -0.00000000000E+00 -0.11328161856E+02  0.11328161856E+02  0.00000000000E+00 0.  1.
          2    1    1    2  501    0  0.31375039682E+02 -0.40678724730E+01  0.68642539530E+02  0.75582662924E+02  0.00000000000E+00 0. -1.
          1    1    1    2  502    0 -0.31375039682E+02  0.40678724730E+01  0.23986133217E+02  0.39702333536E+02  0.00000000000E+00 0.  1.
</event>
<event>
 4    1  0.3837333E+003  0.2166301E+02  0.7546771E-02  0.1510006E+00
          2   -1    0    0  502    0  0.00000000000E+00  0.00000000000E+00  0.51816462830E+03  0.51816462830E+03  0.00000000000E+00 0. -1.
          1   -1    0    0  501    0 -0.00000000000E+00 -0.00000000000E+00 -0.13181553199E+02  0.13181553199E+02  0.00000000000E+00 0. -1.
          2    1    1    2  501    0 -0.20958939696E+02  0.54780215303E+01  0.50887538375E+03  0.50933627601E+03  0.00000000000E+00 0. -1.
          1    1    1    2  502    0  0.20958939696E+02 -0.54780215303E+01 -0.38923086474E+01  0.22009905490E+02  0.00000000000E+00 0. -1.
</event>
<event>
 4    1  0.3837333E+003  0.2198348E+02  0.7546771E-02  0.1505673E+00
          2   -1    0    0  502    0  0.00000000000E+00  0.00000000000E+00  0.26931611475E+01  0.26931611475E+01  0.00000000000E+00 0. -1.
          1   -1    0    0  501    0 -0.00000000000E+00 -0.00000000000E+00 -0.54591909606E+03  0.54591909606E+03  0.00000000000E+00 0. -1.
          2    1    1    2  501    0  0.19599065223E+02 -0.99574025891E+01 -0.46866307549E+02  0.51766050721E+02  0.00000000000E+00 0. -1.
          1    1    1    2  502    0 -0.19599065223E+02  0.99574025891E+01 -0.49635962737E+03  0.49684620649E+03  0.00000000000E+00 0. -1.
</event>
<event>
 4    1  0.3837333E+003  0.2541880E+02  0.7546771E-02  0.1464172E+00
          2   -1    0    0  502    0  0.00000000000E+00  0.00000000000E+00  0.45315026787E+03  0.45315026787E+03  0.00000000000E+00 0.  1.
          1   -1    0    0  501    0 -0.00000000000E+00 -0.00000000000E+00 -0.67645608209E+02  0.67645608209E+02  0.00000000000E+00 0.  1.
          2    1    1    2  501    0 -0.20234173757E+02 -0.15384854191E+02  0.45039132513E+03  0.45110803725E+03  0.00000000000E+00 0.  1.
          1    1    1    2  502    0  0.20234173757E+02  0.15384854191E+02 -0.64886665460E+02  0.69687838829E+02  0.00000000000E+00 0.  1.
</event>
<event>
 4    1  0.3837333E+003  0.3933271E+02  0.7546771E-02  0.1352441E+00
          2   -1    0    0  502    0  0.00000000000E+00  0.00000000000E+00  0.23458684351E+04  0.23458684351E+04  0.00000000000E+00 0. -1.
          1   -1    0    0  501    0 -0.00000000000E+00 -0.00000000000E+00 -0.33830982817E+02  0.33830982817E+02  0.00000000000E+00 0. -1.
          2    1    1    2  501    0  0.39311586199E+02 -0.12887815386E+01  0.23342142042E+04  0.23345455688E+04  0.00000000000E+00 0. -1.
          1    1    1    2  502    0 -0.39311586199E+02  0.12887815386E+01 -0.22176751888E+02  0.45153849134E+02  0.00000000000E+00 0. -1.
</event>
<event>
 4    1  0.3837333E+003  0.2072985E+02  0.7546771E-02  0.1523157E+00
          2   -1    0    0  502    0  0.00000000000E+00  0.00000000000E+00  0.75822773449E+02  0.75822773449E+02  0.00000000000E+00 0. -1.
          1   -1    0    0  501    0 -0.00000000000E+00 -0.00000000000E+00 -0.17576987089E+02  0.17576987089E+02  0.00000000000E+00 0. -1.
          2    1    1    2  501    0  0.14915434449E+02 -0.14396410058E+02  0.67563459861E+02  0.70672115546E+02  0.00000000000E+00 0. -1.
          1    1    1    2  502    0 -0.14915434449E+02  0.14396410058E+02 -0.93176735010E+01  0.22727644991E+02  0.00000000000E+00 0. -1.
</event>
<event>
 4    1  0.3837333E+003  0.2056701E+02  0.7546771E-02  0.1525538E+00
          2   -1    0    0  502    0  0.00000000000E+00  0.00000000000E+00  0.17128178946E+03  0.17128178946E+03  0.00000000000E+00 0.  1.
          1   -1    0    0  501    0 -0.00000000000E+00 -0.00000000000E+00 -0.44414329126E+01  0.44414329126E+01  0.00000000000E+00 0. -1.
          2    1    1    2  501    0 -0.71595435719E+01 -0.19280629978E+02  0.14196249882E+03  0.14344459846E+03  0.00000000000E+00 0.  1.
          1    1    1    2  502    0  0.71595435719E+01  0.19280629978E+02  0.24877857726E+02  0.32278623910E+02  0.00000000000E+00 0. -1.
</event>
<event>
 4    1  0.3837333E+003  0.2448558E+02  0.7546771E-02  0.1474641E+00
          2   -1    0    0  502    0  0.00000000000E+00  0.00000000000E+00  0.32456688227E+01  0.32456688227E+01  0.00000000000E+00 0. -1.
          1   -1    0    0  501    0 -0.00000000000E+00 -0.00000000000E+00 -0.62907596149E+03  0.62907596149E+03  0.00000000000E+00 0.  1.
          2    1    1    2  501    0  0.20322739214E+02 -0.13657597489E+02 -0.47196863008E+02  0.53170363701E+02  0.00000000000E+00 0. -1.
          1    1    1    2  502    0 -0.20322739214E+02  0.13657597489E+02 -0.57863342966E+03  0.57915126661E+03  0.00000000000E+00 0.  1.
</event>
<event>
 4    1  0.3837333E+003  0.2448504E+02  0.7546771E-02  0.1474647E+00
          2   -1    0    0  502    0  0.00000000000E+00  0.00000000000E+00  0.19522500916E+03  0.19522500916E+03  0.00000000000E+00 0. -1.
          1   -1    0    0  501    0 -0.00000000000E+00 -0.00000000000E+00 -0.13336033999E+03  0.13336033999E+03  0.00000000000E+00 0.  1.
          2    1    1    2  501    0 -0.24459055941E+02 -0.11276845998E+01  0.19332239978E+03  0.19486679386E+03  0.00000000000E+00 0. -1.
          1    1    1    2  502    0  0.24459055941E+02  0.11276845998E+01 -0.13145773062E+03  0.13371855529E+03  0.00000000000E+00 0.  1.
</event>
<event>
 4    1  0.3837333E+003  0.2172172E+02  0.7546771E-02  0.1509205E+00
          2   -1    0    0  502    0  0.00000000000E+00  0.00000000000E+00  0.82182684142E+03  0.82182684142E+03  0.00000000000E+00 0.  1.
          1   -1    0    0  501    0 -0.00000000000E+00 -0.00000000000E+00 -0.22557498096E+01  0.22557498096E+01  0.00000000000E+00 0.  1.
          2    1    1    2  501    0  0.16210423161E+02 -0.14458743904E+02  0.76554754424E+03  0.76585564931E+03  0.00000000000E+00 0.  1.
          1    1    1    2  502    0 -0.16210423161E+02  0.14458743904E+02  0.54023547368E+02  0.58226941913E+02  0.00000000000E+00 0.  1.
</event>
<event>
 4    1  0.3837333E+003  0.3598584E+02  0.7546771E-02  0.1373762E+00
          2   -1    0    0  502    0  0.00000000000E+00  0.00000000000E+00  0.83293749312E+02  0.83293749312E+02  0.00000000000E+00 0. -1.
          1   -1    0    0  501    0 -0.00000000000E+00 -0.00000000000E+00 -0.73055505642E+03  0.73055505642E+03  0.00000000000E+00 0.  1.
          2    1    1    2  501    0 -0.31959138276E+02 -0.16540677024E+02  0.78940526886E+02  0.86755906432E+02  0.00000000000E+00 0. -1.
          1    1    1    2  502    0  0.31959138276E+02  0.16540677024E+02 -0.72620183400E+03  0.72709289930E+03  0.00000000000E+00 0.  1.
</event>
<event>
 4    1  0.3837333E+003  0.2155842E+02  0.7546771E-02  0.1511439E+00
          2   -1    0    0  502    0  0.00000000000E+00  0.00000000000E+00  0.21000738381E+03  0.21000738381E+03  0.00000000000E+00 0.  1.
          1   -1    0    0  501    0 -0.00000000000E+00 -0.00000000000E+00 -0.26386174532E+01  0.26386174532E+01  0.00000000000E+00 0.  1.
          2    1    1    2  501    0  0.18863747040E+02 -0.10436699552E+02  0.14638182031E+03  0.14796081565E+03  0.00000000000E+00 0.  1.
          1    1    1    2  502    0 -0.18863747040E+02  0.10436699552E+02  0.60986946041E+02  0.64685185610E+02  0.00000000000E+00 0.  1.
</event>
<event>
 4    1  0.3837333E+003  0.2563415E+02  0.7546771E-02  0.1461833E+00
          2   -1    0    0  502    0  0.00000000000E+00  0.00000000000E+00  0.53582869329E+03  0.53582869329E+03  0.00000000000E+00 0.  1.
          1   -1    0    0  501    0 -0.00000000000E+00 -0.00000000000E+00 -0.62955977441E+01  0.62955977441E+01  0.00000000000E+00 0. -1.
          2    1    1    2  501    0  0.21684295523E+02  0.13671169156E+02  0.50799952876E+03  0.50864587953E+03  0.00000000000E+00 0.  1.
          1    1    1    2  502    0 -0.21684295523E+02 -0.13671169156E+02  0.21533566780E+02  0.33478411503E+02  0.00000000000E+00 0. -1.
</event>
<event>
 4    1  0.3837333E+003  0.2088466E+02  0.7546771E-02  0.1520918E+00
          2   -1    0    0  502    0  0.00000000000E+00  0.00000000000E+00  0.38217115943E+02  0.38217115943E+02  0.00000000000E+00 0. -1.
          1   -1    0    0  501    0 -0.00000000000E+00 -0.00000000000E+00 -0.46095663948E+03  0.46095663948E+03  0.00000000000E+00 0.  1.
          2    1    1    2  501    0 -0.11491736794E+02  0.17438721647E+02  0.35107962929E+02  0.40850190798E+02  0.00000000000E+00 0. -1.
          1    1    1    2  502    0  0.11491736794E+02 -0.17438721647E+02 -0.45784748647E+03  0.45832356462E+03  0.00000000000E+00 0.  1.
</event>
<event>
 4    1  0.3837333E+003  0.2536991E+02  0.7546771E-02  0.1464707E+00
          2   -1    0    0  502    0  0.00000000000E+00  0.00000000000E+00  0.21666561868E+03  0.21666561868E+03  0.00000000000E+00 0.  1.
          1   -1    0    0  501    0 -0.00000000000E+00 -0.00000000000E+00 -0.82739756749E+01  0.82739756749E+01  0.00000000000E+00 0. -1.
          2    1    1    2  501    0 -0.14355725474E+02  0.20917586411E+02  0.19423965370E+03  0.19588944674E+03  0.00000000000E+00 0.  1.
          1    1    1    2  502    0  0.14355725474E+02 -0.20917586411E+02  0.14151989308E+02  0.29050147617E+02  0.00000000000E+00 0. -1.
</event>
<event>
 4    1  0.3837333E+003  0.2537002E+02  0.7546771E-02  0.1464706E+00
          2   -1    0    0  502    0  0.00000000000E+00  0.00000000000E+00  0.37891174797E+03  0.37891174797E+03  0.00000000000E+00 0. -1.
          1   -1    0    0  501    0 -0.00000000000E+00 -0.00000000000E+00 -0.58245294372E+01  0.58245294372E+01  0.00000000000E+00 0. -1.
          2    1    1    2  501    0  0.18405463488E+02  0.17460720813E+02  0.34844891022E+03  0.34937126512E+03  0.00000000000E+00 0. -1.
          1    1    1    2  502    0 -0.18405463488E+02 -0.17460720813E+02  0.24638308309E+02  0.35365012284E+02  0.00000000000E+00 0. -1.
</event>
<event>
 4    1  0.3837333E+003  0.2202346E+02  0.7546771E-02  0.1505139E+00
          2   -1    0    0  502    0  0.00000000000E+00  0.00000000000E+00  0.12128454217E+02  0.12128454217E+02  0.00000000000E+00 0.  1.
          1   -1    0    0  501    0 -0.00000000000E+00 -0.00000000000E+00 -0.47524233342E+02  0.47524233342E+02  0.00000000000E+00 0.  1.
          2    1    1    2  501    0  0.21631634035E+02 -0.41358238037E+01 -0.58231368874E+01  0.22780288689E+02  0.00000000000E+00 0.  1.
          1    1    1    2  502    0 -0.21631634035E+02  0.41358238037E+01 -0.29572642237E+02  0.36872398870E+02  0.00000000000E+00 0.  1.
</event>
<event>
 4    1  0.3837333E+003  0.2001138E+02  0.7546771E-02  0.1533862E+00
          2   -1    0    0  502    0  0.00000000000E+00  0.00000000000E+00  0.14403611798E+02  0.14403611798E+02  0.00000000000E+00 0.  1.
          1   -1    0    0  501    0 -0.00000000000E+00 -0.00000000000E+00 -0.10380075824E+03  0.10380075824E+03  0.00000000000E+00 0. -1.
          2    1    1    2  501    0  0.95702417651E+01 -0.17574576211E+02  0.58728672158E+01  0.20855354846E+02  0.00000000000E+00 0.  1.
          1    1    1    2  502    0 -0.95702417651E+01  0.17574576211E+02 -0.95270013654E+02  0.97349015188E+02  0.00000000000E+00 0. -1.
</event>
<event>
 4    1  0.3837333E+003  0.2507974E+02  0.7546771E-02  0.1467913E+00
          2   -1    0    0  502    0  0.00000000000E+00  0.00000000000E+00  0.48834792724E+03  0.48834792724E+03  0.00000000000E+00 0.  1.
          1   -1    0    0  501    0 -0.00000000000E+00 -0.00000000000E+00 -0.16328250283E+01  0.16328250283E+01  0.00000000000E+00 0.  1.
          2    1    1    2  501    0  0.85707926849E+01  0.23569786209E+02  0.35594165363E+03  0.35682412208E+03  0.00000000000E+00 0.  1.
          1    1    1    2  502    0 -0.85707926849E+01 -0.23569786209E+02  0.13077344858E+03  0.13315663018E+03  0.00000000000E+00 0.  1.
</event>
<event>
 4    1  0.3837333E+003  0.5346319E+02  0.7546771E-02  0.1283817E+00
          2   -1    0    0  502    0  0.00000000000E+00  0.00000000000E+00  0.25870242715E+03  0.25870242715E+03  0.00000000000E+00 0. -1.
          1   -1    0    0  501    0 -0.00000000000E+00 -0.00000000000E+00 -0.17761073882E+02  0.17761073882E+02  0.00000000000E+00 0. -1.
          2    1    1    2  501    0 -0.49502843469E+02 -0.20193595364E+02  0.20544991906E+03  0.21229220910E+03  0.00000000000E+00 0. -1.
          1    1    1    2  502    0  0.49502843469E+02  0.20193595364E+02  0.35491434209E+02  0.64171291926E+02  0.00000000000E+00 0. -1.
</event>
<event>
 4    1  0.3837333E+003  0.2969130E+02  0.7546771E-02  0.1422298E+00
          2   -1    0    0  502    0  0.00000000000E+00  0.00000000000E+00  0.17750614262E+03  0.17750614262E+03  0.00000000000E+00 0. -1.
          1   -1    0    0  501    0 -0.00000000000E+00 -0.00000000000E+00 -0.12119025426E+03  0.12119025426E+03  0.00000000000E+00 0. -1.
          2    1    1    2  501    0 -0.52619039675E+01 -0.29221320635E+02  0.17441394905E+03  0.17692314387E+03  0.00000000000E+00 0. -1.
          1    1    1    2  502    0  0.52619039675E+01  0.29221320635E+02 -0.11809806069E+03  0.12177325302E+03  0.00000000000E+00 0. -1.
</event>
<event>
 4    1  0.3837333E+003  0.2455472E+02  0.7546771E-02  0.1473847E+00
          2   -1    0    0  502    0  0.00000000000E+00  0.00000000000E+00  0.55909704184E+03  0.55909704184E+03  0.00000000000E+00 0.  1.
          1   -1    0    0  501    0 -0.00000000000E+00 -0.00000000000E+00 -0.42711485075E+01  0.42711485075E+01  0.00000000000E+00 0.  1.
          2    1    1    2  501    0  0.20645381249E+02  0.13292943325E+02  0.52095382934E+03  0.52153219116E+03  0.00000000000E+00 0.  1.
          1    1    1    2  502    0 -0.20645381249E+02 -0.13292943325E+02  0.33872063994E+02  0.41835999192E+02  0.00000000000E+00 0.  1.
</event>
<event>
 4    1  0.3837333E+003  0.2544715E+02  0.7546771E-02  0.1463863E+00
          2   -1    0    0  502    0  0.00000000000E+00  0.00000000000E+00  0.11465850689E+04  0.11465850689E+04  0.00000000000E+00 0.  1.
          1   -1    0    0  501    0 -0.00000000000E+00 -0.00000000000E+00 -0.12827781945E+01  0.12827781945E+01  0.00000000000E+00 0. -1.
          2    1    1    2  501    0  0.59110278085E+01  0.24751100986E+02  0.10020399388E+04  0.10023630062E+04  0.00000000000E+00 0.  1.
          1    1    1    2  502    0 -0.59110278085E+01 -0.24751100986E+02  0.14326235186E+03  0.14550484085E+03  0.00000000000E+00 0. -1.
</event>
<event>
 4    1  0.3837333E+003  0.2104823E+02  0.7546771E-02  0.1518577E+00
          2   -1    0    0  502    0  0.00000000000E+00  0.00000000000E+00  0.56450553934E+00  0.56450553934E+00  0.00000000000E+00 0.  1.
          1   -1    0    0  501    0 -0.00000000000E+00 -0.00000000000E+00 -0.12223950895E+04  0.12223950895E+04  0.00000000000E+00 0. -1.
          2    1    1    2  501    0  0.12104186506E+02 -0.17219656183E+02 -0.24506022959E+03  0.24596248497E+03  0.00000000000E+00 0.  1.
          1    1    1    2  502    0 -0.12104186506E+02  0.17219656183E+02 -0.97677035433E+03  0.97699711002E+03  0.00000000000E+00 0. -1.
</event>
<event>
 4    1  0.3837333E+003  0.3051585E+02  0.7546771E-02  0.1415166E+00
          2   -1    0    0  502    0  0.00000000000E+00  0.00000000000E+00  0.14124315903E+04  0.14124315903E+04  0.00000000000E+00 0.  1.
          1   -1    0    0  501    0 -0.00000000000E+00 -0.00000000000E+00 -0.14667629015E+02  0.14667629015E+02  0.00000000000E+00 0. -1.
          2    1    1    2  501    0 -0.93568903906E+01  0.29045928594E+02  0.13962104044E+04  0.13965438449E+04  0.00000000000E+00 0.  1.
          1    1    1    2  502    0  0.93568903906E+01 -0.29045928594E+02  0.15535568646E+01  0.30555374398E+02  0.00000000000E+00 0. -1.
</event>
<event>
 4    1  0.3837333E+003  0.2173896E+02  0.7546771E-02  0.1508971E+00
          2   -1    0    0  502    0  0.00000000000E+00  0.00000000000E+00  0.61673187371E+01  0.61673187371E+01  0.00000000000E+00 0.  1.
          1   -1    0    0  501    0 -0.00000000000E+00 -0.00000000000E+00 -0.16878972189E+03  0.16878972189E+03  0.00000000000E+00 0. -1.
          2    1    1    2  501    0  0.10004774632E+01  0.21715920933E+02 -0.16670443501E+02  0.27394997055E+02  0.00000000000E+00 0.  1.
          1    1    1    2  502    0 -0.10004774632E+01 -0.21715920933E+02 -0.14595195966E+03  0.14756204358E+03  0.00000000000E+00 0. -1.
</event>
<event>
 4    1  0.3837333E+003  0.2056362E+02  0.7546771E-02  0.1525587E+00
          2   -1    0    0  502    0  0.00000000000E+00  0.00000000000E+00  0.12688623446E+04  0.12688623446E+04  0.00000000000E+00 0. -1.
          1   -1    0    0  501    0 -0.00000000000E+00 -0.00000000000E+00 -0.17422851196E+02  0.17422851196E+02  0.00000000000E+00 0.  1.
          2    1    1    2  501    0 -0.16258151570E+02  0.12591074599E+02  0.12626816867E+04  0.12628491218E+04  0.00000000000E+00 0. -1.
          1    1    1    2  502    0  0.16258151570E+02 -0.12591074599E+02 -0.11242193289E+02  0.23436073945E+02  0.00000000000E+00 0.  1.
</event>
<event>
 4    1  0.3837333E+003  0.2098425E+02  0.7546771E-02  0.1519490E+00
          2   -1    0    0  502    0  0.00000000000E+00  0.00000000000E+00  0.23726775210E+02  0.23726775210E+02  0.00000000000E+00 0.  1.
          1   -1    0    0  501    0 -0.00000000000E+00 -0.00000000000E+00 -0.50403035493E+03  0.50403035493E+03  0.00000000000E+00 0. -1.
          2    1    1    2  501    0 -0.17672705359E+02 -0.11314333423E+02  0.18823123342E+02  0.28189512729E+02  0.00000000000E+00 0.  1.
          1    1    1    2  502    0  0.17672705359E+02  0.11314333423E+02 -0.49912670306E+03  0.49956761741E+03  0.00000000000E+00 0. -1.
</event>
<event>
 4    1  0.3837333E+003  0.3260209E+02  0.7546771E-02  0.1398253E+00
          2   -1    0    0  502    0  0.00000000000E+00  0.00000000000E+00  0.34840844967E+02  0.34840844967E+02  0.00000000000E+00 0.  1.
          1   -1    0    0  501    0 -0.00000000000E+00 -0.00000000000E+00 -0.44823151355E+03  0.44823151355E+03  0.00000000000E+00 0.  1.
          2    1    1    2  501    0 -0.98647006404E+01 -0.31073847217E+02  0.26476387970E+02  0.41998754976E+02  0.00000000000E+00 0.  1.
          1    1    1    2  502    0  0.98647006404E+01  0.31073847217E+02 -0.43986705655E+03  0.44107360354E+03  0.00000000000E+00 0.  1.
</event>
<event>
 4    1  0.4315515E+003  0.2087398E+02  0.7546771E-02  0.1521072E+00
          2   -1    0    0  502    0  0.00000000000E+00  0.00000000000E+00  0.87077413608E+03  0.87077413608E+03  0.00000000000E+00 0. -1.
          1   -1    0    0  501    0 -0.00000000000E+00 -0.00000000000E+00 -0.11070634624E+04  0.11070634624E+04  0.00000000000E+00 0.  1.
          2    1    1    2  501    0 -0.14868465052E+02  0.14650995937E+02  0.87055061829E+03  0.87080083942E+03  0.00000000000E+00 0. -1.
          1    1    1    2  502    0  0.14868465052E+02 -0.14650995937E+02 -0.11068399446E+04  0.11070367591E+04  0.00000000000E+00 0.  1.
</event>
<event>
 4    1  0.3837333E+003  0.2437576E+02  0.7546771E-02  0.1475909E+00
          2   -1    0    0  502    0  0.00000000000E+00  0.00000000000E+00  0.76520134138E+03  0.76520134138E+03  0.00000000000E+00 0. -1.
          1   -1    0    0  501    0 -0.00000000000E+00 -0.00000000000E+00 -0.30304970570E+02  0.30304970570E+02  0.00000000000E+00 0.  1.
          2    1    1    2  501    0 -0.99472256384E+01  0.22253770499E+02  0.76007249841E+03  0.76046326698E+03  0.00000000000E+00 0. -1.
          1    1    1    2  502    0  0.99472256384E+01 -0.22253770499E+02 -0.25176127600E+02  0.35043044962E+02  0.00000000000E+00 0.  1.
</event>
<event>
 4    1  0.3837333E+003  0.2112294E+02  0.7546771E-02  0.1517517E+00
          2   -1    0    0  502    0  0.00000000000E+00  0.00000000000E+00  0.10604250728E+01  0.10604250728E+01  0.00000000000E+00 0. -1.
          1   -1    0    0  501    0 -0.00000000000E+00 -0.00000000000E+00 -0.13045280308E+04  0.13045280308E+04  0.00000000000E+00 0. -1.
          2    1    1    2  501    0 -0.16184819845E+02 -0.13573141699E+02 -0.11442976387E+03  0.11636300713E+03  0.00000000000E+00 0. -1.
          1    1    1    2  502    0  0.16184819845E+02  0.13573141699E+02 -0.11890378418E+04  0.11892254487E+04  0.00000000000E+00 0. -1.
</event>
<event>
 4    1  0.3837333E+003  0.2046067E+02  0.7546771E-02  0.1527106E+00
          2   -1    0    0  502    0  0.00000000000E+00  0.00000000000E+00  0.41152475787E+01  0.41152475787E+01  0.00000000000E+00 0.  1.
          1   -1    0    0  501    0 -0.00000000000E+00 -0.00000000000E+00 -0.15986734190E+03  0.15986734190E+03  0.00000000000E+00 0.  1.
          2    1    1    2  501    0  0.14193672362E+02  0.14736979576E+02 -0.28431295080E+02  0.35028237781E+02  0.00000000000E+00 0.  1.
          1    1    1    2  502    0 -0.14193672362E+02 -0.14736979576E+02 -0.12732079924E+03  0.12895435170E+03  0.00000000000E+00 0.  1.
</event>
<event>
 4    1  0.3837333E+003  0.2373314E+02  0.7546771E-02  0.1483492E+00
          2   -1    0    0  502    0  0.00000000000E+00  0.00000000000E+00  0.10930088749E+03  0.10930088749E+03  0.00000000000E+00 0. -1.
          1   -1    0    0  501    0 -0.00000000000E+00 -0.00000000000E+00 -0.77376908522E+01  0.77376908522E+01  0.00000000000E+00 0. -1.
          2    1    1    2  501    0  0.21116882517E+02 -0.10832324571E+02  0.84601405787E+02  0.87867285402E+02  0.00000000000E+00 0. -1.
          1    1    1    2  502    0 -0.21116882517E+02  0.10832324571E+02  0.16961790848E+02  0.29171292937E+02  0.00000000000E+00 0. -1.
</event>
<event>
 4    1  0.3837333E+003  0.2111771E+02  0.7546771E-02  0.1517591E+00
          2   -1    0    0  502    0  0.00000000000E+00  0.00000000000E+00  0.53088245260E+02  0.53088245260E+02  0.00000000000E+00 0. -1.
          1   -1    0    0  501    0 -0.00000000000E+00 -0.00000000000E+00 -0.40607929854E+03  0.40607929854E+03  0.00000000000E+00 0.  1.
          2    1    1    2  501    0  0.20780244369E+02  0.37602112718E+01  0.50701207429E+02  0.54923311805E+02  0.00000000000E+00 0. -1.
          1    1    1    2  502    0 -0.20780244369E+02 -0.37602112718E+01 -0.40369226071E+03  0.40424423199E+03  0.00000000000E+00 0.  1.
</event>
<event>
 4    1  0.3837333E+003  0.3893670E+02  0.7546771E-02  0.1354832E+00
          2   -1    0    0  502    0  0.00000000000E+00  0.00000000000E+00  0.10921590806E+03  0.10921590806E+03  0.00000000000E+00 0. -1.
          1   -1    0    0  501    0 -0.00000000000E+00 -0.00000000000E+00 -0.14783175550E+02  0.14783175550E+02  0.00000000000E+00 0.  1.
          2    1    1    2  501    0  0.37761975194E+02  0.94920837340E+01  0.62529394260E+02  0.73661330226E+02  0.00000000000E+00 0. -1.
          1    1    1    2  502    0 -0.37761975194E+02 -0.94920837340E+01  0.31903338250E+02  0.50337753383E+02  0.00000000000E+00 0.  1.
</event>
<event>
 4    1  0.3837333E+003  0.2088815E+02  0.7546771E-02  0.1520868E+00
          2   -1    0    0  502    0  0.00000000000E+00  0.00000000000E+00  0.98853851607E+00  0.98853851607E+00  0.00000000000E+00 0. -1.
          1   -1    0    0  501    0 -0.00000000000E+00 -0.00000000000E+00 -0.16649350409E+04  0.16649350409E+04  0.00000000000E+00 0. -1.
          2    1    1    2  501    0  0.20888150616E+02 -0.11425617819E-02 -0.11790566792E+03  0.11974164424E+03  0.00000000000E+00 0. -1.
          1    1    1    2  502    0 -0.20888150616E+02  0.11425617819E-02 -0.15460408344E+04  0.15461819351E+04  0.00000000000E+00 0. -1.
</event>
<event>
 4    1  0.3837333E+003  0.2851122E+02  0.7546771E-02  0.1432991E+00
          2   -1    0    0  502    0  0.00000000000E+00  0.00000000000E+00  0.20416163835E+04  0.20416163835E+04  0.00000000000E+00 0.  1.
          1   -1    0    0  501    0 -0.00000000000E+00 -0.00000000000E+00 -0.80997771489E+00  0.80997771489E+00  0.00000000000E+00 0.  1.
          2    1    1    2  501    0  0.28132073075E+02 -0.46342575850E+01  0.17485725862E+04  0.17488050146E+04  0.00000000000E+00 0.  1.
          1    1    1    2  502    0 -0.28132073075E+02  0.46342575850E+01  0.29223381960E+03  0.29362134663E+03  0.00000000000E+00 0.  1.
</event>
<event>
 4    1  0.3837333E+003  0.2000991E+02  0.7546771E-02  0.1533884E+00
          2   -1    0    0  502    0  0.00000000000E+00  0.00000000000E+00  0.27015432749E+04  0.27015432749E+04  0.00000000000E+00 0.  1.
          1   -1    0    0  501    0 -0.00000000000E+00 -0.00000000000E+00 -0.14836824635E+00  0.14836824635E+00  0.00000000000E+00 0.  1.
          2    1    1    2  501    0  0.93981949107E+01  0.17665504877E+02  0.13066015549E+04  0.13067547664E+04  0.00000000000E+00 0.  1.
          1    1    1    2  502    0 -0.93981949107E+01 -0.17665504877E+02  0.13947933517E+04  0.13949368767E+04  0.00000000000E+00 0.  1.
</event>
<event>
 4    1  0.3837333E+003  0.2476406E+02  0.7546771E-02  0.1471460E+00
          2   -1    0    0  502    0  0.00000000000E+00  0.00000000000E+00  0.20914978651E+03  0.20914978651E+03  0.00000000000E+00 0. -1.
          1   -1    0    0  501    0 -0.00000000000E+00 -0.00000000000E+00 -0.11234077337E+04  0.11234077337E+04  0.00000000000E+00 0.  1.
          2    1    1    2  501    0 -0.22376617537E+02 -0.10608745342E+02  0.20827970815E+03  0.20974674090E+03  0.00000000000E+00 0. -1.
          1    1    1    2  502    0  0.22376617537E+02  0.10608745342E+02 -0.11225376553E+04  0.11228107793E+04  0.00000000000E+00 0.  1.
</event>
<event>
 4    1  0.3837333E+003  0.3476641E+02  0.7546771E-02  0.1382213E+00
          2   -1    0    0  502    0  0.00000000000E+00  0.00000000000E+00  0.10158685868E+03  0.10158685868E+03  0.00000000000E+00 0.  1.
          1   -1    0    0  501    0 -0.00000000000E+00 -0.00000000000E+00 -0.87686876644E+02  0.87686876644E+02  0.00000000000E+00 0.  1.
          2    1    1    2  501    0 -0.13076279733E+02  0.32213573807E+02  0.94932257104E+02  0.10109815462E+03  0.00000000000E+00 0.  1.
          1    1    1    2  502    0  0.13076279733E+02 -0.32213573807E+02 -0.81032275069E+02  0.88175580701E+02  0.00000000000E+00 0.  1.
</event>
<event>
 4    1  0.3837333E+003  0.2577503E+02  0.7546771E-02  0.1460317E+00
          2   -1    0    0  502    0  0.00000000000E+00  0.00000000000E+00  0.58240481226E+03  0.58240481226E+03  0.00000000000E+00 0. -1.
          1   -1    0    0  501    0 -0.00000000000E+00 -0.00000000000E+00 -0.16251582261E+01  0.16251582261E+01  0.00000000000E+00 0. -1.
          2    1    1    2  501    0  0.22859801746E+02 -0.11907208017E+02  0.44982465422E+03  0.45056250586E+03  0.00000000000E+00 0. -1.
          1    1    1    2  502    0 -0.22859801746E+02  0.11907208017E+02  0.13095499981E+03  0.13346746463E+03  0.00000000000E+00 0. -1.
</event>
<event>
 4    1  0.3837333E+003  0.2408314E+02  0.7546771E-02  0.1479327E+00
          2   -1    0    0  502    0  0.00000000000E+00  0.00000000000E+00  0.15654296744E+01  0.15654296744E+01  0.00000000000E+00 0. -1.
          1   -1    0    0  501    0 -0.00000000000E+00 -0.00000000000E+00 -0.10343653447E+04  0.10343653447E+04  0.00000000000E+00 0.  1.
          2    1    1    2  501    0  0.13950933618E+02  0.19630825044E+02 -0.10144355185E+03  0.10426309056E+03  0.00000000000E+00 0. -1.
          1    1    1    2  502    0 -0.13950933618E+02 -0.19630825044E+02 -0.93135636319E+03  0.93166768384E+03  0.00000000000E+00 0.  1.
</event>
<event>
 4    1  0.3837333E+003  0.2052836E+02  0.7546771E-02  0.1526106E+00
          2   -1    0    0  502    0  0.00000000000E+00  0.00000000000E+00  0.71085512468E+03  0.71085512468E+03  0.00000000000E+00 0.  1.
          1   -1    0    0  501    0 -0.00000000000E+00 -0.00000000000E+00 -0.18834701166E+01  0.18834701166E+01  0.00000000000E+00 0. -1.
          2    1    1    2  501    0 -0.12323756544E+01 -0.20491333581E+02  0.64948727195E+03  0.64981161110E+03  0.00000000000E+00 0.  1.
          1    1    1    2  502    0  0.12323756544E+01  0.20491333581E+02  0.59484382620E+02  0.62926983698E+02  0.00000000000E+00 0. -1.
</event>
<event>
 4    1  0.3837333E+003  0.2388758E+02  0.7546771E-02  0.1481644E+00
          2   -1    0    0  502    0  0.00000000000E+00  0.00000000000E+00  0.20153052939E+01  0.20153052939E+01  0.00000000000E+00 0. -1.
          1   -1    0    0  501    0 -0.00000000000E+00 -0.00000000000E+00 -0.12494170319E+04  0.12494170319E+04  0.00000000000E+00 0.  1.
          2    1    1    2  501    0 -0.15102909309E+02  0.18507259062E+02 -0.73432982290E+02  0.77220589195E+02  0.00000000000E+00 0. -1.
          1    1    1    2  502    0  0.15102909309E+02 -0.18507259062E+02 -0.11739687443E+04  0.11742117480E+04  0.00000000000E+00 0.  1.
</event>
<event>
 4    1  0.3837333E+003  0.2055919E+02  0.7546771E-02  0.1525652E+00
          2   -1    0    0  502    0  0.00000000000E+00  0.00000000000E+00  0.10247717086E+04  0.10247717086E+04  0.00000000000E+00 0.  1.
          1   -1    0    0  501    0 -0.00000000000E+00 -0.00000000000E+00 -0.10507235371E+02  0.10507235371E+02  0.00000000000E+00 0.  1.
          2    1    1    2  501    0 -0.11077861256E+01  0.20529327801E+02  0.10145099871E+04  0.10147182833E+04  0.00000000000E+00 0.  1.
          1    1    1    2  502    0  0.11077861256E+01 -0.20529327801E+02 -0.24551389726E+00  0.20560660669E+02  0.00000000000E+00 0.  1.
</event>
<event>
 4    1  0.3837333E+003  0.2771879E+02  0.7546771E-02  0.1440518E+00
          2   -1    0    0  502    0  0.00000000000E+00  0.00000000000E+00  0.88845745616E+02  0.88845745616E+02  0.00000000000E+00 0.  1.
          1   -1    0    0  501    0 -0.00000000000E+00 -0.00000000000E+00 -0.27373844318E+02  0.27373844318E+02  0.00000000000E+00 0.  1.
          2    1    1    2  501    0 -0.23266213650E+02  0.15067007373E+02  0.78798080468E+02  0.83531245018E+02  0.00000000000E+00 0.  1.
          1    1    1    2  502    0  0.23266213650E+02 -0.15067007373E+02 -0.17326179170E+02  0.32688344917E+02  0.00000000000E+00 0.  1.
</event>
<event>
 4    1  0.3837333E+003  0.4389818E+02  0.7546771E-02  0.1327042E+00
          2   -1    0    0  502    0  0.00000000000E+00  0.00000000000E+00  0.10152984566E+04  0.10152984566E+04  0.00000000000E+00 0. -1.
          1   -1    0    0  501    0 -0.00000000000E+00 -0.00000000000E+00 -0.37306940988E+01  0.37306940988E+01  0.00000000000E+00 0. -1.
          2    1    1    2  501    0 -0.77791678716E+01 -0.43203409813E+02  0.86289649909E+03  0.86401239471E+03  0.00000000000E+00 0. -1.
          1    1    1    2  502    0  0.77791678716E+01  0.43203409813E+02  0.14867126337E+03  0.15501675595E+03  0.00000000000E+00 0. -1.
</event>
<event>
 4    1  0.3837333E+003  0.2051562E+02  0.7546771E-02  0.1526294E+00
          2   -1    0    0  502    0  0.00000000000E+00  0.00000000000E+00  0.11529259897E+02  0.11529259897E+02  0.00000000000E+00 0.  1.
          1   -1    0    0  501    0 -0.00000000000E+00 -0.00000000000E+00 -0.20732987362E+03  0.20732987362E+03  0.00000000000E+00 0. -1.
          2    1    1    2  501    0  0.13631623274E+02  0.15331983003E+02  0.14290478045E+01  0.20565335726E+02  0.00000000000E+00 0.  1.
          1    1    1    2  502    0 -0.13631623274E+02 -0.15331983003E+02 -0.19722966153E+03  0.19829379779E+03  0.00000000000E+00 0. -1.
</event>
<event>
 4    1  0.3837333E+003  0.3670001E+02  0.7546771E-02  0.1368990E+00
          2   -1    0    0  502    0  0.00000000000E+00  0.00000000000E+00  0.13371104389E+02  0.13371104389E+02  0.00000000000E+00 0. -1.
          1   -1    0    0  501    0 -0.00000000000E+00 -0.00000000000E+00 -0.21222773421E+03  0.21222773421E+03  0.00000000000E+00 0. -1.
          2    1    1    2  501    0 -0.13463320303E+02 -0.34141321058E+02 -0.17669237363E+02  0.40731962218E+02  0.00000000000E+00 0. -1.
          1    1    1    2  502    0  0.13463320303E+02  0.34141321058E+02 -0.18118739246E+03  0.18486687638E+03  0.00000000000E+00 0. -1.
</event>
<event>
 4    1  0.3837333E+003  0.2203469E+02  0.7546771E-02  0.1504989E+00
          2   -1    0    0  502    0  0.00000000000E+00  0.00000000000E+00  0.11899989491E+03  0.11899989491E+03  0.00000000000E+00 0. -1.
          1   -1    0    0  501    0 -0.00000000000E+00 -0.00000000000E+00 -0.11672707357E+03  0.11672707357E+03  0.00000000000E+00 0. -1.
          2    1    1    2  501    0  0.18803131849E+02  0.11487818566E+02  0.11692167758E+03  0.11897985725E+03  0.00000000000E+00 0. -1.
          1    1    1    2  502    0 -0.18803131849E+02 -0.11487818566E+02 -0.11464885625E+03  0.11674711123E+03  0.00000000000E+00 0. -1.
</event>
<event>
 4    1  0.3837333E+003  0.2184988E+02  0.7546771E-02  0.1507468E+00
          2   -1    0    0  502    0  0.00000000000E+00  0.00000000000E+00  0.88563148475E+02  0.88563148475E+02  0.00000000000E+00 0. -1.
          1   -1    0    0  501    0 -0.00000000000E+00 -0.00000000000E+00 -0.11702258667E+04  0.11702258667E+04  0.00000000000E+00 0.  1.
          2    1    1    2  501    0  0.20645080730E+02  0.71552626379E+01  0.87111808238E+02  0.89810268212E+02  0.00000000000E+00 0. -1.
          1    1    1    2  502    0 -0.20645080730E+02 -0.71552626379E+01 -0.11687745265E+04  0.11689787470E+04  0.00000000000E+00 0.  1.
</event>
<event>
 4    1  0.3837333E+003  0.2622083E+02  0.7546771E-02  0.1455596E+00
          2   -1    0    0  502    0  0.00000000000E+00  0.00000000000E+00  0.12203367142E+04  0.12203367142E+04  0.00000000000E+00 0.  1.
          1   -1    0    0  501    0 -0.00000000000E+00 -0.00000000000E+00 -0.89323105017E+00  0.89323105017E+00  0.00000000000E+00 0.  1.
          2    1    1    2  501    0  0.40192863743E+01  0.25910953493E+02  0.98077333089E+03  0.98112377341E+03  0.00000000000E+00 0.  1.
          1    1    1    2  502    0 -0.40192863743E+01 -0.25910953493E+02  0.23867015225E+03  0.24010617182E+03  0.00000000000E+00 0.  1.
</event>
<event>
 4    1  0.3837333E+003  0.2378122E+02  0.7546771E-02  0.1482915E+00
          2   -1    0    0  502    0  0.00000000000E+00  0.00000000000E+00  0.58974970702E+03  0.58974970702E+03  0.00000000000E+00 0. -1.
          1   -1    0    0  501    0 -0.00000000000E+00 -0.00000000000E+00 -0.11839753773E+03  0.11839753773E+03  0.00000000000E+00 0.  1.
          2    1    1    2  501    0 -0.23366404431E+02  0.44224045520E+01  0.58831288299E+03  0.58879333795E+03  0.00000000000E+00 0. -1.
          1    1    1    2  502    0  0.23366404431E+02 -0.44224045520E+01 -0.11696071370E+03  0.11935390680E+03  0.00000000000E+00 0.  1.
</event>
<event>
 4    1  0.3837333E+003  0.2900850E+02  0.7546771E-02  0.1428413E+00
          2   -1    0    0  502    0  0.00000000000E+00  0.00000000000E+00  0.89410347810E+00  0.89410347810E+00  0.00000000000E+00 0.  1.
          1   -1    0    0  501    0 -0.00000000000E+00 -0.00000000000E+00 -0.13697012103E+04  0.13697012103E+04  0.00000000000E+00 0. -1.
          2    1    1    2  501    0 -0.10144213949E+02 -0.27176978972E+02 -0.30108196041E+03  0.30247618112E+03  0.00000000000E+00 0.  1.
          1    1    1    2  502    0  0.10144213949E+02  0.27176978972E+02 -0.10677251464E+04  0.10681191327E+04  0.00000000000E+00 0. -1.
</event>
<event>
 4    1  0.3837333E+003  0.2768709E+02  0.7546771E-02  0.1440826E+00
          2   -1    0    0  502    0  0.00000000000E+00  0.00000000000E+00  0.24635902308E+01  0.24635902308E+01  0.00000000000E+00 0.  1.
          1   -1    0    0  501    0 -0.00000000000E+00 -0.00000000000E+00 -0.19722552011E+04  0.19722552011E+04  0.00000000000E+00 0.  1.
          2    1    1    2  501    0  0.27638212821E+02 -0.16444171499E+01 -0.78765306670E+02  0.83489810459E+02  0.00000000000E+00 0.  1.
          1    1    1    2  502    0 -0.27638212821E+02  0.16444171499E+01 -0.18910263042E+04  0.18912289809E+04  0.00000000000E+00 0.  1.
</event>
<event>
 4    1  0.3837333E+003  0.2641161E+02  0.7546771E-02  0.1453610E+00
          2   -1    0    0  502    0  0.00000000000E+00  0.00000000000E+00  0.53848209600E+01  0.53848209600E+01  0.00000000000E+00 0. -1.
          1   -1    0    0  501    0 -0.00000000000E+00 -0.00000000000E+00 -0.11182387005E+04  0.11182387005E+04  0.00000000000E+00 0. -1.
          2    1    1    2  501    0 -0.25872371248E+02  0.53097820716E+01 -0.28158600079E+02  0.38606736952E+02  0.00000000000E+00 0. -1.
          1    1    1    2  502    0  0.25872371248E+02 -0.53097820716E+01 -0.10846952794E+04  0.10850167845E+04  0.00000000000E+00 0. -1.
</event>
<event>
 4    1  0.3837333E+003  0.2420153E+02  0.7546771E-02  0.1477938E+00
          2   -1    0    0  502    0  0.00000000000E+00  0.00000000000E+00  0.11704752936E+03  0.11704752936E+03  0.00000000000E+00 0. -1.
          1   -1    0    0  501    0 -0.00000000000E+00 -0.00000000000E+00 -0.19583112255E+02  0.19583112255E+02  0.00000000000E+00 0. -1.
          2    1    1    2  501    0  0.23277672443E+02 -0.66229771547E+01  0.10767650310E+03  0.11036277987E+03  0.00000000000E+00 0. -1.
          1    1    1    2  502    0 -0.23277672443E+02  0.66229771547E+01 -0.10212085988E+02  0.26267861751E+02  0.00000000000E+00 0. -1.
</event>
<event>
 4    1  0.3837333E+003  0.2634039E+02  0.7546771E-02  0.1454349E+00
          2   -1    0    0  502    0  0.00000000000E+00  0.00000000000E+00  0.17789179813E+04  0.17789179813E+04  0.00000000000E+00 0. -1.
          1   -1    0    0  501    0 -0.00000000000E+00 -0.00000000000E+00 -0.11486259123E+02  0.11486259123E+02  0.00000000000E+00 0.  1.
          2    1    1    2  501    0 -0.17397615921E+02 -0.19777238327E+02  0.17635882154E+04  0.17637849102E+04  0.00000000000E+00 0. -1.
          1    1    1    2  502    0  0.17397615921E+02  0.19777238327E+02  0.38435068225E+01  0.26619330200E+02  0.00000000000E+00 0.  1.
</event>
<event>
 4    1  0.3837333E+003  0.2500919E+02  0.7546771E-02  0.1468701E+00
          2   -1    0    0  502    0  0.00000000000E+00  0.00000000000E+00  0.14914763198E+04  0.14914763198E+04  0.00000000000E+00 0.  1.
          1   -1    0    0  501    0 -0.00000000000E+00 -0.00000000000E+00 -0.56231757738E+02  0.56231757738E+02  0.00000000000E+00 0.  1.
          2    1    1    2  501    0  0.24797020406E+02  0.32507536873E+01  0.14885853584E+04  0.14887954289E+04  0.00000000000E+00 0.  1.
          1    1    1    2  502    0 -0.24797020406E+02 -0.32507536873E+01 -0.53340796360E+02  0.58912648700E+02  0.00000000000E+00 0.  1.
</event>
<event>
 4    1  0.3837333E+003  0.3164532E+02  0.7546771E-02  0.1405818E+00
          2   -1    0    0  502    0  0.00000000000E+00  0.00000000000E+00  0.79945374322E+03  0.79945374322E+03  0.00000000000E+00 0.  1.
          1   -1    0    0  501    0 -0.00000000000E+00 -0.00000000000E+00 -0.16352467104E+01  0.16352467104E+01  0.00000000000E+00 0. -1.
          2    1    1    2  501    0  0.98016712982E+01  0.30089095387E+02  0.59265685667E+03  0.59350111725E+03  0.00000000000E+00 0.  1.
          1    1    1    2  502    0 -0.98016712982E+01 -0.30089095387E+02  0.20516163984E+03  0.20758787268E+03  0.00000000000E+00 0. -1.
</event>
<event>
 4    1  0.3837333E+003  0.2101813E+02  0.7546771E-02  0.1519006E+00
          2   -1    0    0  502    0  0.00000000000E+00  0.00000000000E+00  0.53420335133E+03  0.53420335133E+03  0.00000000000E+00 0. -1.
          1   -1    0    0  501    0 -0.00000000000E+00 -0.00000000000E+00 -0.26034633023E+02  0.26034633023E+02  0.00000000000E+00 0. -1.
          2    1    1    2  501    0  0.20766394295E+02  0.32432512228E+01  0.52971865366E+03  0.53013546745E+03  0.00000000000E+00 0. -1.
          1    1    1    2  502    0 -0.20766394295E+02 -0.32432512228E+01 -0.21549935351E+02  0.30102516907E+02  0.00000000000E+00 0. -1.
</event>
<event>
 4    1  0.3837333E+003  0.2217854E+02  0.7546771E-02  0.1503079E+00
          2   -1    0    0  502    0  0.00000000000E+00  0.00000000000E+00  0.12220231556E+03  0.12220231556E+03  0.00000000000E+00 0. -1.
          1   -1    0    0  501    0 -0.00000000000E+00 -0.00000000000E+00 -0.32314483872E+02  0.32314483872E+02  0.00000000000E+00 0. -1.
          2    1    1    2  501    0 -0.12400762800E+02  0.18387737066E+02  0.11723057173E+03  0.11931007812E+03  0.00000000000E+00 0. -1.
          1    1    1    2  502    0  0.12400762800E+02 -0.18387737066E+02 -0.27342740045E+02  0.35206721312E+02  0.00000000000E+00 0. -1.
</event>
<event>
 4    1  0.3837333E+003  0.2298332E+02  0.7546771E-02  0.1492708E+00
          2   -1    0    0  502    0  0.00000000000E+00  0.00000000000E+00  0.16740322573E+02  0.16740322573E+02  0.00000000000E+00 0.  1.
          1   -1    0    0  501    0 -0.00000000000E+00 -0.00000000000E+00 -0.38771618937E+02  0.38771618937E+02  0.00000000000E+00 0.  1.
          2    1    1    2  501    0  0.15534324764E+02  0.16938652807E+02  0.95947896768E+00  0.23003343337E+02  0.00000000000E+00 0.  1.
          1    1    1    2  502    0 -0.15534324764E+02 -0.16938652807E+02 -0.22990775331E+02  0.32508598172E+02  0.00000000000E+00 0.  1.
</event>
<event>
 4    1  0.3837333E+003  0.2620025E+02  0.7546771E-02  0.1455811E+00
          2   -1    0    0  502    0  0.00000000000E+00  0.00000000000E+00  0.19400470504E+04  0.19400470504E+04  0.00000000000E+00 0.  1.
          1   -1    0    0  501    0 -0.00000000000E+00 -0.00000000000E+00 -0.20206470209E+01  0.20206470209E+01  0.00000000000E+00 0. -1.
          2    1    1    2  501    0 -0.22391471155E+02 -0.13604238918E+02  0.18509402690E+04  0.18511256934E+04  0.00000000000E+00 0.  1.
          1    1    1    2  502    0  0.22391471155E+02  0.13604238918E+02  0.87086134341E+02  0.90942004000E+02  0.00000000000E+00 0. -1.
</event>
<event>
 4    1  0.3837333E+003  0.2040778E+02  0.7546771E-02  0.1527891E+00
          2   -1    0    0  502    0  0.00000000000E+00  0.00000000000E+00  0.12616222530E+04  0.12616222530E+04  0.00000000000E+00 0. -1.
          1   -1    0    0  501    0 -0.00000000000E+00 -0.00000000000E+00 -0.16202929398E+02  0.16202929398E+02  0.00000000000E+00 0.  1.
          2    1    1    2  501    0 -0.15860718612E+02  0.12841921617E+02  0.12550802749E+04  0.12552461805E+04  0.00000000000E+00 0. -1.
          1    1    1    2  502    0  0.15860718612E+02 -0.12841921617E+02 -0.96609512776E+01  0.22579001867E+02  0.00000000000E+00 0.  1.
</event>
<event>
 4    1  0.3837333E+003  0.3654543E+02  0.7546771E-02  0.1370012E+00
          2   -1    0    0  502    0  0.00000000000E+00  0.00000000000E+00  0.10062490823E+04  0.10062490823E+04  0.00000000000E+00 0. -1.
          1   -1    0    0  501    0 -0.00000000000E+00 -0.00000000000E+00 -0.47684635138E+03  0.47684635138E+03  0.00000000000E+00 0. -1.
          2    1    1    2  501    0 -0.25006821598E+02 -0.26650089692E+02  0.10052163356E+04  0.10058804351E+04  0.00000000000E+00 0. -1.
          1    1    1    2  502    0  0.25006821598E+02  0.26650089692E+02 -0.47581360470E+03  0.47721499854E+03  0.00000000000E+00 0. -1.
</event>
<event>
 4    1  0.3837333E+003  0.2086104E+02  0.7546771E-02  0.1521258E+00
          2   -1    0    0  502    0  0.00000000000E+00  0.00000000000E+00  0.20789390449E+03  0.20789390449E+03  0.00000000000E+00 0.  1.
          1   -1    0    0  501    0 -0.00000000000E+00 -0.00000000000E+00 -0.43465889567E+01  0.43465889567E+01  0.00000000000E+00 0.  1.
          2    1    1    2  501    0  0.16284182704E+02  0.13038733459E+02  0.17818062019E+03  0.17939764934E+03  0.00000000000E+00 0.  1.
          1    1    1    2  502    0 -0.16284182704E+02 -0.13038733459E+02  0.25366695343E+02  0.32842844109E+02  0.00000000000E+00 0.  1.
</event>
<event>
 4    1  0.3837333E+003  0.5315943E+02  0.7546771E-02  0.1285026E+00
          2   -1    0    0  502    0  0.00000000000E+00  0.00000000000E+00  0.17014642906E+03  0.17014642906E+03  0.00000000000E+00 0. -1.
          1   -1    0    0  501    0 -0.00000000000E+00 -0.00000000000E+00 -0.43179131551E+02  0.43179131551E+02  0.00000000000E+00 0. -1.
          2    1    1    2  501    0 -0.28864022080E+02 -0.44640708444E+02  0.14715457910E+03  0.15646211929E+03  0.00000000000E+00 0. -1.
          1    1    1    2  502    0  0.28864022080E+02  0.44640708444E+02 -0.20187281594E+02  0.56863441323E+02  0.00000000000E+00 0. -1.
</event>
<event>
 4    1  0.3837333E+003  0.3579193E+02  0.7546771E-02  0.1375080E+00
          2   -1    0    0  502    0  0.00000000000E+00  0.00000000000E+00  0.29607057706E+03  0.29607057706E+03  0.00000000000E+00 0.  1.
          1   -1    0    0  501    0 -0.00000000000E+00 -0.00000000000E+00 -0.13034663090E+02  0.13034663090E+02  0.00000000000E+00 0. -1.
          2    1    1    2  501    0 -0.19480869596E+02 -0.30025952017E+02  0.26784032249E+03  0.27022120647E+03  0.00000000000E+00 0.  1.
          1    1    1    2  502    0  0.19480869596E+02  0.30025952017E+02  0.15195591479E+02  0.38884033679E+02  0.00000000000E+00 0. -1.
</event>
<event>
 4    1  0.3837333E+003  0.2103541E+02  0.7546771E-02  0.1518760E+00
          2   -1    0    0  502    0  0.00000000000E+00  0.00000000000E+00  0.14817282150E+04  0.14817282150E+04  0.00000000000E+00 0. -1.
          1   -1    0    0  501    0 -0.00000000000E+00 -0.00000000000E+00 -0.36724368796E+03  0.36724368796E+03  0.00000000000E+00 0.  1.
          2    1    1    2  501    0 -0.21182118417E+00  0.21034347212E+02  0.14813522583E+04  0.14815016037E+04  0.00000000000E+00 0. -1.
          1    1    1    2  502    0  0.21182118417E+00 -0.21034347212E+02 -0.36686773123E+03  0.36747029928E+03  0.00000000000E+00 0.  1.
</event>
<event>
 4    1  0.3837333E+003  0.3834380E+02  0.7546771E-02  0.1358474E+00
          2   -1    0    0  502    0  0.00000000000E+00  0.00000000000E+00  0.72904207253E+03  0.72904207253E+03  0.00000000000E+00 0. -1.
          1   -1    0    0  501    0 -0.00000000000E+00 -0.00000000000E+00 -0.17727580782E+03  0.17727580782E+03  0.00000000000E+00 0.  1.
          2    1    1    2  501    0  0.34427911077E+02  0.16880930471E+02  0.72645714014E+03  0.72746836586E+03  0.00000000000E+00 0. -1.
          1    1    1    2  502    0 -0.34427911077E+02 -0.16880930471E+02 -0.17469087543E+03  0.17884951449E+03  0.00000000000E+00 0.  1.
</event>
<event>
 4    1  0.3837333E+003  0.2707586E+02  0.7546771E-02  0.1446848E+00
          2   -1    0    0  502    0  0.00000000000E+00  0.00000000000E+00  0.28976393798E+03  0.28976393798E+03  0.00000000000E+00 0.  1.
          1   -1    0    0  501    0 -0.00000000000E+00 -0.00000000000E+00 -0.54960737540E+01  0.54960737540E+01  0.00000000000E+00 0.  1.
          2    1    1    2  501    0 -0.21915189329E+02  0.15900528858E+02  0.25058640037E+03  0.25204492931E+03  0.00000000000E+00 0.  1.
          1    1    1    2  502    0  0.21915189329E+02 -0.15900528858E+02  0.33681463854E+02  0.43215082421E+02  0.00000000000E+00 0.  1.
</event>
<event>
 4    1  0.3837333E+003  0.2533390E+02  0.7546771E-02  0.1465103E+00
          2   -1    0    0  502    0  0.00000000000E+00  0.00000000000E+00  0.15122529999E+01  0.15122529999E+01  0.00000000000E+00 0. -1.
          1   -1    0    0  501    0 -0.00000000000E+00 -0.00000000000E+00 -0.92104365990E+03  0.92104365990E+03  0.00000000000E+00 0.  1.
          2    1    1    2  501    0 -0.10193977442E+01  0.25313381423E+02 -0.12104384372E+03  0.12366656198E+03  0.00000000000E+00 0. -1.
          1    1    1    2  502    0  0.10193977442E+01 -0.25313381423E+02 -0.79848756319E+03  0.79888935092E+03  0.00000000000E+00 0.  1.
</event>
<event>
 4    1  0.3837333E+003  0.2388212E+02  0.7546771E-02  0.1481709E+00
          2   -1    0    0  502    0  0.00000000000E+00  0.00000000000E+00  0.88627177781E+02  0.88627177781E+02  0.00000000000E+00 0.  1.
          1   -1    0    0  501    0 -0.00000000000E+00 -0.00000000000E+00 -0.10061499160E+03  0.10061499160E+03  0.00000000000E+00 0. -1.
          2    1    1    2  501    0  0.11916174827E+02  0.20696864873E+02  0.85551143772E+02  0.88822033521E+02  0.00000000000E+00 0.  1.
          1    1    1    2  502    0 -0.11916174827E+02 -0.20696864873E+02 -0.97538957594E+02  0.10042013586E+03  0.00000000000E+00 0. -1.
</event>
<event>
 4    1  0.3837333E+003  0.4739808E+02  0.7546771E-02  0.1309865E+00
          2   -1    0    0  502    0  0.00000000000E+00  0.00000000000E+00  0.35978302117E+01  0.35978302117E+01  0.00000000000E+00 0. -1.
          1   -1    0    0  501    0 -0.00000000000E+00 -0.00000000000E+00 -0.85818066701E+03  0.85818066701E+03  0.00000000000E+00 0. -1.
          2    1    1    2  501    0 -0.46211697890E+02  0.10538344995E+02 -0.20240838248E+03  0.20788393645E+03  0.00000000000E+00 0. -1.
          1    1    1    2  502    0  0.46211697890E+02 -0.10538344995E+02 -0.65217445432E+03  0.65389456077E+03  0.00000000000E+00 0. -1.
</event>
<event>
 4    1  0.3837333E+003  0.2222282E+02  0.7546771E-02  0.1502495E+00
          2   -1    0    0  502    0  0.00000000000E+00  0.00000000000E+00  0.60865938393E+01  0.60865938393E+01  0.00000000000E+00 0.  1.
          1   -1    0    0  501    0 -0.00000000000E+00 -0.00000000000E+00 -0.11172567355E+03  0.11172567355E+03  0.00000000000E+00 0.  1.
          2    1    1    2  501    0 -0.65610138341E+01 -0.21232216751E+02 -0.21997782903E+02  0.31269096299E+02  0.00000000000E+00 0.  1.
          1    1    1    2  502    0  0.65610138341E+01  0.21232216751E+02 -0.83641296805E+02  0.86543171088E+02  0.00000000000E+00 0.  1.
</event>
<event>
 4    1  0.3837333E+003  0.2223540E+02  0.7546771E-02  0.1502329E+00
          2   -1    0    0  502    0  0.00000000000E+00  0.00000000000E+00  0.94043277054E+02  0.94043277054E+02  0.00000000000E+00 0. -1.
          1   -1    0    0  501    0 -0.00000000000E+00 -0.00000000000E+00 -0.54982095365E+01  0.54982095365E+01  0.00000000000E+00 0.  1.
          2    1    1    2  501    0  0.22235330087E+02  0.53836413673E-01  0.54690891791E+02  0.59038177879E+02  0.00000000000E+00 0. -1.
          1    1    1    2  502    0 -0.22235330087E+02 -0.53836413673E-01  0.33854175727E+02  0.40503308712E+02  0.00000000000E+00 0.  1.
</event>
<event>
 4    1  0.3837333E+003  0.2012231E+02  0.7546771E-02  0.1532174E+00
          2   -1    0    0  502    0  0.00000000000E+00  0.00000000000E+00  0.85440518807E+03  0.85440518807E+03  0.00000000000E+00 0. -1.
          1   -1    0    0  501    0 -0.00000000000E+00 -0.00000000000E+00 -0.12562939694E+01  0.12562939694E+01  0.00000000000E+00 0. -1.
          2    1    1    2  501    0  0.75794118205E+01  0.18640279925E+02  0.76420170726E+03  0.76446658325E+03  0.00000000000E+00 0. -1.
          1    1    1    2  502    0 -0.75794118205E+01 -0.18640279925E+02  0.88947186834E+02  0.91194898788E+02  0.00000000000E+00 0. -1.
</event>
<event>
 4    1  0.3837333E+003  0.2434579E+02  0.7546771E-02  0.1476257E+00
          2   -1    0    0  502    0  0.00000000000E+00  0.00000000000E+00  0.17322966129E+03  0.17322966129E+03  0.00000000000E+00 0.  1.
          1   -1    0    0  501    0 -0.00000000000E+00 -0.00000000000E+00 -0.36472181739E+01  0.36472181739E+01  0.00000000000E+00 0.  1.
          2    1    1    2  501    0  0.24322737275E+02 -0.10589121192E+01  0.62793420434E+02  0.67347832135E+02  0.00000000000E+00 0.  1.
          1    1    1    2  502    0 -0.24322737275E+02  0.10589121192E+01  0.10678902268E+03  0.10952904733E+03  0.00000000000E+00 0.  1.
</event>
<event>
 4    1  0.3837333E+003  0.2272281E+02  0.7546771E-02  0.1496009E+00
          2   -1    0    0  502    0  0.00000000000E+00  0.00000000000E+00  0.19670174649E+01  0.19670174649E+01  0.00000000000E+00 0. -1.
          1   -1    0    0  501    0 -0.00000000000E+00 -0.00000000000E+00 -0.31117042817E+03  0.31117042817E+03  0.00000000000E+00 0. -1.
          2    1    1    2  501    0 -0.12458103116E+02  0.19003200977E+02 -0.92675430294E+02  0.95420445193E+02  0.00000000000E+00 0. -1.
          1    1    1    2  502    0  0.12458103116E+02 -0.19003200977E+02 -0.21652798041E+03  0.21771700044E+03  0.00000000000E+00 0. -1.
</event>
<event>
 4    1  0.3837333E+003  0.2761500E+02  0.7546771E-02  0.1441526E+00
          2   -1    0    0  502    0  0.00000000000E+00  0.00000000000E+00  0.36052289825E+01  0.36052289825E+01  0.00000000000E+00 0.  1.
          1   -1    0    0  501    0 -0.00000000000E+00 -0.00000000000E+00 -0.14939982155E+04  0.14939982155E+04  0.00000000000E+00 0. -1.
          2    1    1    2  501    0 -0.52163066323E+01 -0.27117861819E+02 -0.51425221520E+02  0.58370726335E+02  0.00000000000E+00 0.  1.
          1    1    1    2  502    0  0.52163066323E+01  0.27117861819E+02 -0.14389677650E+04  0.14392327182E+04  0.00000000000E+00 0. -1.
</event>
<event>
 4    1  0.3837333E+003  0.2364300E+02  0.7546771E-02  0.1484578E+00
          2   -1    0    0  502    0  0.00000000000E+00  0.00000000000E+00  0.15443940470E+03  0.15443940470E+03  0.00000000000E+00 0.  1.
          1   -1    0    0  501    0 -0.00000000000E+00 -0.00000000000E+00 -0.36998035076E+01  0.36998035076E+01  0.00000000000E+00 0.  1.
          2    1    1    2  501    0 -0.20081792517E+02 -0.12478505367E+02  0.87019679994E+02  0.90174365499E+02  0.00000000000E+00 0.  1.
          1    1    1    2  502    0  0.20081792517E+02  0.12478505367E+02  0.63719921195E+02  0.67964842705E+02  0.00000000000E+00 0.  1.
</event>
<event>
 4    1  0.3837333E+003  0.3378626E+02  0.7546771E-02  0.1389303E+00
          2   -1    0    0  502    0  0.00000000000E+00  0.00000000000E+00  0.12415411259E+01  0.12415411259E+01  0.00000000000E+00 0. -1.
          1   -1    0    0  501    0 -0.00000000000E+00 -0.00000000000E+00 -0.10490499117E+04  0.10490499117E+04  0.00000000000E+00 0. -1.
          2    1    1    2  501    0  0.33320205571E+02  0.55924428062E+01 -0.33931094749E+03  0.34098890100E+03  0.00000000000E+00 0. -1.
          1    1    1    2  502    0 -0.33320205571E+02 -0.55924428062E+01 -0.70849742312E+03  0.70930255187E+03  0.00000000000E+00 0. -1.
</event>
<event>
 4    1  0.3837333E+003  0.2250786E+02  0.7546771E-02  0.1498772E+00
          2   -1    0    0  502    0  0.00000000000E+00  0.00000000000E+00  0.16816145536E+03  0.16816145536E+03  0.00000000000E+00 0.  1.
          1   -1    0    0  501    0 -0.00000000000E+00 -0.00000000000E+00 -0.10314035668E+04  0.10314035668E+04  0.00000000000E+00 0. -1.
          2    1    1    2  501    0 -0.49976469484E+00  0.22502311875E+02  0.16728486914E+03  0.16879227247E+03  0.00000000000E+00 0.  1.
          1    1    1    2  502    0  0.49976469484E+00 -0.22502311875E+02 -0.10305269805E+04  0.10307727497E+04  0.00000000000E+00 0. -1.
</event>
<event>
 4    1  0.3837333E+003  0.1215683E+03  0.7546771E-02  0.1130933E+00
          2   -1    0    0  502    0  0.00000000000E+00  0.00000000000E+00  0.29357280729E+03  0.29357280729E+03  0.00000000000E+00 0.  1.
          1   -1    0    0  501    0 -0.00000000000E+00 -0.00000000000E+00 -0.12366938802E+03  0.12366938802E+03  0.00000000000E+00 0.  1.
          2    1    1    2  501    0 -0.81257623549E+01 -0.12129646807E+03  0.24559480159E+03  0.27403588770E+03  0.00000000000E+00 0.  1.
          1    1    1    2  502    0  0.81257623549E+01  0.12129646807E+03 -0.75691382326E+02  0.14320630761E+03  0.00000000000E+00 0.  1.
</event>
<event>
 4    1  0.3837333E+003  0.2100097E+02  0.7546771E-02  0.1519251E+00
          2   -1    0    0  502    0  0.00000000000E+00  0.00000000000E+00  0.16172707802E+03  0.16172707802E+03  0.00000000000E+00 0. -1.
          1   -1    0    0  501    0 -0.00000000000E+00 -0.00000000000E+00 -0.14546847871E+03  0.14546847871E+03  0.00000000000E+00 0.  1.
          2    1    1    2  501    0  0.19615085252E+02  0.75026186556E+01  0.16028053287E+03  0.16165051832E+03  0.00000000000E+00 0. -1.
          1    1    1    2  502    0 -0.19615085252E+02 -0.75026186556E+01 -0.14402193356E+03  0.14554503840E+03  0.00000000000E+00 0.  1.
</event>
<event>
 4    1  0.3837333E+003  0.3078102E+02  0.7546771E-02  0.1412928E+00
          2   -1    0    0  502    0  0.00000000000E+00  0.00000000000E+00  0.14835812573E+04  0.14835812573E+04  0.00000000000E+00 0.  1.
          1   -1    0    0  501    0 -0.00000000000E+00 -0.00000000000E+00 -0.74578830686E+00  0.74578830686E+00  0.00000000000E+00 0.  1.
          2    1    1    2  501    0  0.17246468692E+02 -0.25495692346E+02  0.10227302256E+04  0.10231933275E+04  0.00000000000E+00 0.  1.
          1    1    1    2  502    0 -0.17246468692E+02  0.25495692346E+02  0.46010524337E+03  0.46113371812E+03  0.00000000000E+00 0.  1.
</event>
<event>
 4    1  0.3837333E+003  0.3024765E+02  0.7546771E-02  0.1417456E+00
          2   -1    0    0  502    0  0.00000000000E+00  0.00000000000E+00  0.69258743904E+03  0.69258743904E+03  0.00000000000E+00 0.  1.
          1   -1    0    0  501    0 -0.00000000000E+00 -0.00000000000E+00 -0.40718030753E+01  0.40718030753E+01  0.00000000000E+00 0. -1.
          2    1    1    2  501    0  0.30233869824E+02  0.91295980629E+00  0.63056046586E+03  0.63128553087E+03  0.00000000000E+00 0.  1.
          1    1    1    2  502    0 -0.30233869824E+02 -0.91295980629E+00  0.57955170104E+02  0.65373711245E+02  0.00000000000E+00 0. -1.
</event>
<event>
 4    1  0.3837333E+003  0.2992619E+02  0.7546771E-02  0.1420239E+00
          2   -1    0    0  502    0  0.00000000000E+00  0.00000000000E+00  0.30682508147E+03  0.30682508147E+03  0.00000000000E+00 0.  1.
          1   -1    0    0  501    0 -0.00000000000E+00 -0.00000000000E+00 -0.61035273324E+02  0.61035273324E+02  0.00000000000E+00 0. -1.
          2    1    1    2  501    0  0.29264656476E+02  0.62575360017E+01  0.30237321602E+03  0.30385052022E+03  0.00000000000E+00 0.  1.
          1    1    1    2  502    0 -0.29264656476E+02 -0.62575360017E+01 -0.56583407871E+02  0.64009834571E+02  0.00000000000E+00 0. -1.
</event>
<event>
 4    1  0.3837333E+003  0.2279601E+02  0.7546771E-02  0.1495076E+00
          2   -1    0    0  502    0  0.00000000000E+00  0.00000000000E+00  0.20535109065E+03  0.20535109065E+03  0.00000000000E+00 0.  1.
          1   -1    0    0  501    0 -0.00000000000E+00 -0.00000000000E+00 -0.29689227713E+02  0.29689227713E+02  0.00000000000E+00 0.  1.
          2    1    1    2  501    0  0.57348413251E+01  0.22062862107E+02  0.20023109820E+03  0.20152456668E+03  0.00000000000E+00 0.  1.
          1    1    1    2  502    0 -0.57348413251E+01 -0.22062862107E+02 -0.24569235264E+02  0.33515751682E+02  0.00000000000E+00 0.  1.
</event>
<event>
 4    1  0.3837333E+003  0.2734436E+02  0.7546771E-02  0.1444179E+00
          2   -1    0    0  502    0  0.00000000000E+00  0.00000000000E+00  0.41483017303E+02  0.41483017303E+02  0.00000000000E+00 0. -1.
          1   -1    0    0  501    0 -0.00000000000E+00 -0.00000000000E+00 -0.28083953088E+02  0.28083953088E+02  0.00000000000E+00 0. -1.
          2    1    1    2  501    0 -0.16485805729E+02 -0.21815868167E+02  0.27517075062E+02  0.38793083332E+02  0.00000000000E+00 0. -1.
          1    1    1    2  502    0  0.16485805729E+02  0.21815868167E+02 -0.14118010848E+02  0.30773887059E+02  0.00000000000E+00 0. -1.
</event>
<event>
 4    1  0.3837333E+003  0.2390120E+02  0.7546771E-02  0.1481482E+00
          2   -1    0    0  502    0  0.00000000000E+00  0.00000000000E+00  0.77992074411E+03  0.77992074411E+03  0.00000000000E+00 0.  1.
          1   -1    0    0  501    0 -0.00000000000E+00 -0.00000000000E+00 -0.16696460544E+02  0.16696460544E+02  0.00000000000E+00 0.  1.
          2    1    1    2  501    0  0.21444268208E+02 -0.10555119020E+02  0.77108592854E+03  0.77145626990E+03  0.00000000000E+00 0.  1.
          1    1    1    2  502    0 -0.21444268208E+02  0.10555119020E+02 -0.78616449666E+01  0.25160934762E+02  0.00000000000E+00 0.  1.
</event>
<event>
 4    1  0.3837333E+003  0.2407592E+02  0.7546771E-02  0.1479412E+00
          2   -1    0    0  502    0  0.00000000000E+00  0.00000000000E+00  0.31635714832E+03  0.31635714832E+03  0.00000000000E+00 0.  1.
          1   -1    0    0  501    0 -0.00000000000E+00 -0.00000000000E+00 -0.61684036803E+01  0.61684036803E+01  0.00000000000E+00 0.  1.
          2    1    1    2  501    0 -0.22775907018E+02  0.78043683139E+01  0.29030141802E+03  0.29129806626E+03  0.00000000000E+00 0.  1.
          1    1    1    2  502    0  0.22775907018E+02 -0.78043683139E+01  0.19887326621E+02  0.31227485736E+02  0.00000000000E+00 0.  1.
</event>
<event>
 4    1  0.3837333E+003  0.2051338E+02  0.7546771E-02  0.1526327E+00
          2   -1    0    0  502    0  0.00000000000E+00  0.00000000000E+00  0.10343609063E+01  0.10343609063E+01  0.00000000000E+00 0. -1.
          1   -1    0    0  501    0 -0.00000000000E+00 -0.00000000000E+00 -0.78353102870E+03  0.78353102870E+03  0.00000000000E+00 0. -1.
          2    1    1    2  501    0  0.19104856310E+02  0.74701452681E+01 -0.11924434509E+03  0.12099591911E+03  0.00000000000E+00 0. -1.
          1    1    1    2  502    0 -0.19104856310E+02 -0.74701452681E+01 -0.66325232270E+03  0.66356947050E+03  0.00000000000E+00 0. -1.
</event>
<event>
 4    1  0.3837333E+003  0.2417565E+02  0.7546771E-02  0.1478241E+00
          2   -1    0    0  502    0  0.00000000000E+00  0.00000000000E+00  0.71845286501E+02  0.71845286501E+02  0.00000000000E+00 0. -1.
          1   -1    0    0  501    0 -0.00000000000E+00 -0.00000000000E+00 -0.18092046901E+03  0.18092046901E+03  0.00000000000E+00 0.  1.
          2    1    1    2  501    0 -0.16639890660E+02 -0.17537845742E+02  0.68971232420E+02  0.73085517689E+02  0.00000000000E+00 0. -1.
          1    1    1    2  502    0  0.16639890660E+02  0.17537845742E+02 -0.17804641493E+03  0.17968023782E+03  0.00000000000E+00 0.  1.
</event>
<event>
 4    1  0.3837333E+003  0.6867232E+02  0.7546771E-02  0.1232910E+00
          2   -1    0    0  502    0  0.00000000000E+00  0.00000000000E+00  0.93113135387E+01  0.93113135387E+01  0.00000000000E+00 0.  1.
          1   -1    0    0  501    0 -0.00000000000E+00 -0.00000000000E+00 -0.10435071282E+04  0.10435071282E+04  0.00000000000E+00 0. -1.
          2    1    1    2  501    0  0.23926035314E+02  0.64369498720E+02 -0.13945744786E+03  0.15544860017E+03  0.00000000000E+00 0.  1.
          1    1    1    2  502    0 -0.23926035314E+02 -0.64369498720E+02 -0.89473836680E+03  0.89736984156E+03  0.00000000000E+00 0. -1.
</event>
<event>
 4    1  0.3837333E+003  0.2209516E+02  0.7546771E-02  0.1504184E+00
          2   -1    0    0  502    0  0.00000000000E+00  0.00000000000E+00  0.15469741411E+04  0.15469741411E+04  0.00000000000E+00 0. -1.
          1   -1    0    0  501    0 -0.00000000000E+00 -0.00000000000E+00 -0.73441885766E+00  0.73441885766E+00  0.00000000000E+00 0. -1.
          2    1    1    2  501    0 -0.34874864740E+01 -0.21818194630E+02  0.13575196703E+04  0.13576994702E+04  0.00000000000E+00 0. -1.
          1    1    1    2  502    0  0.34874864740E+01  0.21818194630E+02  0.18872005204E+03  0.19000908983E+03  0.00000000000E+00 0. -1.
</event>
<event>
 4    1  0.3837333E+003  0.2086775E+02  0.7546771E-02  0.1521161E+00
          2   -1    0    0  502    0  0.00000000000E+00  0.00000000000E+00  0.60628444912E+02  0.60628444912E+02  0.00000000000E+00 0.  1.
          1   -1    0    0  501    0 -0.00000000000E+00 -0.00000000000E+00 -0.45501299109E+02  0.45501299109E+02  0.00000000000E+00 0.  1.
          2    1    1    2  501    0 -0.19352521431E+02 -0.78065896369E+01  0.56260465577E+02  0.60005857335E+02  0.00000000000E+00 0.  1.
          1    1    1    2  502    0  0.19352521431E+02  0.78065896369E+01 -0.41133319774E+02  0.46123886687E+02  0.00000000000E+00 0.  1.
</event>
<event>
 4    1  0.3837333E+003  0.2281008E+02  0.7546771E-02  0.1494897E+00
          2   -1    0    0  502    0  0.00000000000E+00  0.00000000000E+00  0.68853356649E+02  0.68853356649E+02  0.00000000000E+00 0. -1.
          1   -1    0    0  501    0 -0.00000000000E+00 -0.00000000000E+00 -0.30363004692E+02  0.30363004692E+02  0.00000000000E+00 0. -1.
          2    1    1    2  501    0 -0.20022268054E+02  0.10927417432E+02  0.62239290479E+02  0.66287472038E+02  0.00000000000E+00 0. -1.
          1    1    1    2  502    0  0.20022268054E+02 -0.10927417432E+02 -0.23748938523E+02  0.32928889303E+02  0.00000000000E+00 0. -1.
</event>
<event>
 4    1  0.3837333E+003  0.6472145E+02  0.7546771E-02  0.1244583E+00
          2   -1    0    0  502    0  0.00000000000E+00  0.00000000000E+00  0.33626283645E+04  0.33626283645E+04  0.00000000000E+00 0.  1.
          1   -1    0    0  501    0 -0.00000000000E+00 -0.00000000000E+00 -0.18504476197E+01  0.18504476197E+01  0.00000000000E+00 0.  1.
          2    1    1    2  501    0  0.55801803568E+02 -0.32787573864E+02  0.26420725427E+04  0.26428651474E+04  0.00000000000E+00 0.  1.
          1    1    1    2  502    0 -0.55801803568E+02  0.32787573864E+02  0.71870537418E+03  0.72161366475E+03  0.00000000000E+00 0.  1.
</event>
<event>
 4    1  0.3837333E+003  0.3302826E+02  0.7546771E-02  0.1394981E+00
          2   -1    0    0  502    0  0.00000000000E+00  0.00000000000E+00  0.28426923675E+01  0.28426923675E+01  0.00000000000E+00 0. -1.
          1   -1    0    0  501    0 -0.00000000000E+00 -0.00000000000E+00 -0.51693740559E+03  0.51693740559E+03  0.00000000000E+00 0. -1.
          2    1    1    2  501    0 -0.69590566910E+01  0.32286800474E+02 -0.12512690197E+03  0.12941254789E+03  0.00000000000E+00 0. -1.
          1    1    1    2  502    0  0.69590566910E+01 -0.32286800474E+02 -0.38896781125E+03  0.39036755007E+03  0.00000000000E+00 0. -1.
</event>
<event>
 4    1  0.3837333E+003  0.2455344E+02  0.7546771E-02  0.1473861E+00
          2   -1    0    0  502    0  0.00000000000E+00  0.00000000000E+00  0.12198230486E+03  0.12198230486E+03  0.00000000000E+00 0.  1.
          1   -1    0    0  501    0 -0.00000000000E+00 -0.00000000000E+00 -0.43516453823E+02  0.43516453823E+02  0.00000000000E+00 0. -1.
          2    1    1    2  501    0 -0.19649849484E+02  0.14722600828E+02  0.11714168219E+03  0.11968728114E+03  0.00000000000E+00 0.  1.
          1    1    1    2  502    0  0.19649849484E+02 -0.14722600828E+02 -0.38675831150E+02  0.45811477547E+02  0.00000000000E+00 0. -1.
</event>
<event>
 4    1  0.3837333E+003  0.2549480E+02  0.7546771E-02  0.1463344E+00
          2   -1    0    0  502    0  0.00000000000E+00  0.00000000000E+00  0.20250876180E+04  0.20250876180E+04  0.00000000000E+00 0.  1.
          1   -1    0    0  501    0 -0.00000000000E+00 -0.00000000000E+00 -0.12214373863E+01  0.12214373863E+01  0.00000000000E+00 0. -1.
          2    1    1    2  501    0  0.22073543436E+02 -0.12757086492E+02  0.18818444610E+04  0.18820171519E+04  0.00000000000E+00 0.  1.
          1    1    1    2  502    0 -0.22073543436E+02  0.12757086492E+02  0.14202171966E+03  0.14429190355E+03  0.00000000000E+00 0. -1.
</event>
<event>
 4    1  0.3837333E+003  0.2147857E+02  0.7546771E-02  0.1512541E+00
          2   -1    0    0  502    0  0.00000000000E+00  0.00000000000E+00  0.82693578412E+02  0.82693578412E+02  0.00000000000E+00 0. -1.
          1   -1    0    0  501    0 -0.00000000000E+00 -0.00000000000E+00 -0.77663470956E+02  0.77663470956E+02  0.00000000000E+00 0. -1.
          2    1    1    2  501    0 -0.18799690846E+02  0.10387513502E+02  0.79760200052E+02  0.82601563695E+02  0.00000000000E+00 0. -1.
          1    1    1    2  502    0  0.18799690846E+02 -0.10387513502E+02 -0.74730092596E+02  0.77755485672E+02  0.00000000000E+00 0. -1.
</event>
<event>
 4    1  0.3837333E+003  0.2408330E+02  0.7546771E-02  0.1479325E+00
          2   -1    0    0  502    0  0.00000000000E+00  0.00000000000E+00  0.26544008307E+01  0.26544008307E+01  0.00000000000E+00 0. -1.
          1   -1    0    0  501    0 -0.00000000000E+00 -0.00000000000E+00 -0.24231276804E+03  0.24231276804E+03  0.00000000000E+00 0.  1.
          2    1    1    2  501    0  0.19495304113E+02 -0.14139957227E+02 -0.81438092351E+02  0.84924485036E+02  0.00000000000E+00 0. -1.
          1    1    1    2  502    0 -0.19495304113E+02  0.14139957227E+02 -0.15822027486E+03  0.16004268384E+03  0.00000000000E+00 0.  1.
</event>
<event>
 4    1  0.3837333E+003  0.4544524E+02  0.7546771E-02  0.1319228E+00
          2   -1    0    0  502    0  0.00000000000E+00  0.00000000000E+00  0.65045073782E+02  0.65045073782E+02  0.00000000000E+00 0.  1.
          1   -1    0    0  501    0 -0.00000000000E+00 -0.00000000000E+00 -0.30220130256E+03  0.30220130256E+03  0.00000000000E+00 0.  1.
          2    1    1    2  501    0  0.15287320972E+02  0.42796813627E+02  0.55131079861E+02  0.71447221119E+02  0.00000000000E+00 0.  1.
          1    1    1    2  502    0 -0.15287320972E+02 -0.42796813627E+02 -0.29228730864E+03  0.29579915522E+03  0.00000000000E+00 0.  1.
</event>
<event>
 4    1  0.3837333E+003  0.2326424E+02  0.7546771E-02  0.1489206E+00
          2   -1    0    0  502    0  0.00000000000E+00  0.00000000000E+00  0.14847345436E+03  0.14847345436E+03  0.00000000000E+00 0. -1.
          1   -1    0    0  501    0 -0.00000000000E+00 -0.00000000000E+00 -0.35241610420E+02  0.35241610420E+02  0.00000000000E+00 0.  1.
          2    1    1    2  501    0 -0.62871039842E+01 -0.22398598961E+02  0.14359310467E+03  0.14546547570E+03  0.00000000000E+00 0. -1.
          1    1    1    2  502    0  0.62871039842E+01  0.22398598961E+02 -0.30361260729E+02  0.38249589082E+02  0.00000000000E+00 0.  1.
</event>
<event>
 4    1  0.3837333E+003  0.2663175E+02  0.7546771E-02  0.1451343E+00
          2   -1    0    0  502    0  0.00000000000E+00  0.00000000000E+00  0.28071672885E+01  0.28071672885E+01  0.00000000000E+00 0.  1.
          1   -1    0    0  501    0 -0.00000000000E+00 -0.00000000000E+00 -0.53549841115E+03  0.53549841115E+03  0.00000000000E+00 0.  1.
          2    1    1    2  501    0 -0.26442206770E+02  0.31717150996E+01 -0.70735467562E+02  0.75582778771E+02  0.00000000000E+00 0.  1.
          1    1    1    2  502    0  0.26442206770E+02 -0.31717150996E+01 -0.46195577630E+03  0.46272279967E+03  0.00000000000E+00 0.  1.
</event>
<event>
 4    1  0.3837333E+003  0.3232932E+02  0.7546771E-02  0.1400378E+00
          2   -1    0    0  502    0  0.00000000000E+00  0.00000000000E+00  0.32249359480E+02  0.32249359480E+02  0.00000000000E+00 0. -1.
          1   -1    0    0  501    0 -0.00000000000E+00 -0.00000000000E+00 -0.64338259375E+02  0.64338259375E+02  0.00000000000E+00 0.  1.
          2    1    1    2  501    0  0.13883130933E+02 -0.29196633162E+02  0.17976624313E+02  0.36991130480E+02  0.00000000000E+00 0. -1.
          1    1    1    2  502    0 -0.13883130933E+02  0.29196633162E+02 -0.50065524208E+02  0.59596488376E+02  0.00000000000E+00 0.  1.
</event>
<event>
 4    1  0.3837333E+003  0.3072213E+02  0.7546771E-02  0.1413423E+00
          2   -1    0    0  502    0  0.00000000000E+00  0.00000000000E+00  0.13343039593E+03  0.13343039593E+03  0.00000000000E+00 0. -1.
          1   -1    0    0  501    0 -0.00000000000E+00 -0.00000000000E+00 -0.11149773051E+04  0.11149773051E+04  0.00000000000E+00 0.  1.
          2    1    1    2  501    0 -0.30697138923E+02 -0.12388365463E+01  0.13144718615E+03  0.13498967295E+03  0.00000000000E+00 0. -1.
          1    1    1    2  502    0  0.30697138923E+02  0.12388365463E+01 -0.11129940953E+04  0.11134180281E+04  0.00000000000E+00 0.  1.
</event>
<event>
 4    1  0.3837333E+003  0.2646779E+02  0.7546771E-02  0.1453029E+00
          2   -1    0    0  502    0  0.00000000000E+00  0.00000000000E+00  0.73758753659E+02  0.73758753659E+02  0.00000000000E+00 0. -1.
          1   -1    0    0  501    0 -0.00000000000E+00 -0.00000000000E+00 -0.10231781022E+04  0.10231781022E+04  0.00000000000E+00 0.  1.
          2    1    1    2  501    0 -0.16359883255E+02  0.20806206669E+02  0.71207206305E+02  0.75967165577E+02  0.00000000000E+00 0. -1.
          1    1    1    2  502    0  0.16359883255E+02 -0.20806206669E+02 -0.10206265548E+04  0.10209696902E+04  0.00000000000E+00 0.  1.
</event>
<event>
 4    1  0.3837333E+003  0.2221368E+02  0.7546771E-02  0.1502615E+00
          2   -1    0    0  502    0  0.00000000000E+00  0.00000000000E+00  0.32843909057E+01  0.32843909057E+01  0.00000000000E+00 0. -1.
          1   -1    0    0  501    0 -0.00000000000E+00 -0.00000000000E+00 -0.15885574890E+03  0.15885574890E+03  0.00000000000E+00 0. -1.
          2    1    1    2  501    0  0.13346909652E+02  0.17756900859E+02 -0.58905734306E+02  0.62955008216E+02  0.00000000000E+00 0. -1.
          1    1    1    2  502    0 -0.13346909652E+02 -0.17756900859E+02 -0.96665623687E+02  0.99185131588E+02  0.00000000000E+00 0. -1.
</event>
<event>
 4    1  0.3837333E+003  0.5559004E+02  0.7546771E-02  0.1275600E+00
          2   -1    0    0  502    0  0.00000000000E+00  0.00000000000E+00  0.51316109910E+02  0.51316109910E+02  0.00000000000E+00 0.  1.
          1   -1    0    0  501    0 -0.00000000000E+00 -0.00000000000E+00 -0.10610430384E+04  0.10610430384E+04  0.00000000000E+00 0. -1.
          2    1    1    2  501    0 -0.37076656861E+02 -0.41419483128E+02  0.35302479397E+02  0.65852237002E+02  0.00000000000E+00 0.  1.
          1    1    1    2  502    0  0.37076656861E+02  0.41419483128E+02 -0.10450294079E+04  0.10465069113E+04  0.00000000000E+00 0. -1.
</event>
<event>
 4    1  0.3837333E+003  0.2324523E+02  0.7546771E-02  0.1489441E+00
          2   -1    0    0  502    0  0.00000000000E+00  0.00000000000E+00  0.35452217971E+02  0.35452217971E+02  0.00000000000E+00 0.  1.
          1   -1    0    0  501    0 -0.00000000000E+00 -0.00000000000E+00 -0.50202943658E+02  0.50202943658E+02  0.00000000000E+00 0. -1.
          2    1    1    2  501    0 -0.23200126781E+02  0.14474084665E+01  0.28364620852E+02  0.36672777233E+02  0.00000000000E+00 0.  1.
          1    1    1    2  502    0  0.23200126781E+02 -0.14474084665E+01 -0.43115346539E+02  0.48982384396E+02  0.00000000000E+00 0. -1.
</event>
<event>
 4    1  0.3837333E+003  0.3581213E+02  0.7546771E-02  0.1374942E+00
          2   -1    0    0  502    0  0.00000000000E+00  0.00000000000E+00  0.84095753556E+01  0.84095753556E+01  0.00000000000E+00 0. -1.
          1   -1    0    0  501    0 -0.00000000000E+00 -0.00000000000E+00 -0.28221897670E+03  0.28221897670E+03  0.00000000000E+00 0. -1.
          2    1    1    2  501    0  0.19096831014E+02 -0.30295537037E+02 -0.38388575244E+02  0.52499440268E+02  0.00000000000E+00 0. -1.
          1    1    1    2  502    0 -0.19096831014E+02  0.30295537037E+02 -0.23542082610E+03  0.23812911179E+03  0.00000000000E+00 0. -1.
</event>
<event>
 4    1  0.3837333E+003  0.2488634E+02  0.7546771E-02  0.1470079E+00
          2   -1    0    0  502    0  0.00000000000E+00  0.00000000000E+00  0.77138998247E+01  0.77138998247E+01  0.00000000000E+00 0.  1.
          1   -1    0    0  501    0 -0.00000000000E+00 -0.00000000000E+00 -0.10555228958E+04  0.10555228958E+04  0.00000000000E+00 0. -1.
          2    1    1    2  501    0  0.23522782841E+02 -0.81245744576E+01 -0.12904507007E+02  0.28033129040E+02  0.00000000000E+00 0.  1.
          1    1    1    2  502    0 -0.23522782841E+02  0.81245744576E+01 -0.10349044890E+04  0.10352036666E+04  0.00000000000E+00 0. -1.
</event>
<event>
 4    1  0.3837333E+003  0.5968294E+02  0.7546771E-02  0.1260914E+00
          2   -1    0    0  502    0  0.00000000000E+00  0.00000000000E+00  0.23263222442E+04  0.23263222442E+04  0.00000000000E+00 0. -1.
          1   -1    0    0  501    0 -0.00000000000E+00 -0.00000000000E+00 -0.15423365186E+01  0.15423365186E+01  0.00000000000E+00 0. -1.
          2    1    1    2  501    0  0.59673937306E+02 -0.10346004220E+01  0.10634567323E+04  0.10651301661E+04  0.00000000000E+00 0. -1.
          1    1    1    2  502    0 -0.59673937306E+02  0.10346004220E+01  0.12613231753E+04  0.12627344146E+04  0.00000000000E+00 0. -1.
</event>
<event>
 4    1  0.3837333E+003  0.2799943E+02  0.7546771E-02  0.1437819E+00
          2   -1    0    0  502    0  0.00000000000E+00  0.00000000000E+00  0.14626763900E+04  0.14626763900E+04  0.00000000000E+00 0.  1.
          1   -1    0    0  501    0 -0.00000000000E+00 -0.00000000000E+00 -0.56037280642E+01  0.56037280642E+01  0.00000000000E+00 0.  1.
          2    1    1    2  501    0 -0.26179830812E+02 -0.99289878457E+01  0.14266848407E+04  0.14269595660E+04  0.00000000000E+00 0.  1.
          1    1    1    2  502    0  0.26179830812E+02  0.99289878457E+01  0.30387821159E+02  0.41320551978E+02  0.00000000000E+00 0.  1.
</event>
<event>
 4    1  0.3837333E+003  0.2632924E+02  0.7546771E-02  0.1454465E+00
          2   -1    0    0  502    0  0.00000000000E+00  0.00000000000E+00  0.52649020712E+03  0.52649020712E+03  0.00000000000E+00 0. -1.
          1   -1    0    0  501    0 -0.00000000000E+00 -0.00000000000E+00 -0.13104979179E+03  0.13104979179E+03  0.00000000000E+00 0. -1.
          2    1    1    2  501    0 -0.18621991410E+02 -0.18613172504E+02  0.52483440998E+03  0.52549442114E+03  0.00000000000E+00 0. -1.
          1    1    1    2  502    0  0.18621991410E+02  0.18613172504E+02 -0.12939399465E+03  0.13204557777E+03  0.00000000000E+00 0. -1.
</event>
<event>
 4    1  0.3837333E+003  0.2608508E+02  0.7546771E-02  0.1457022E+00
          2   -1    0    0  502    0  0.00000000000E+00  0.00000000000E+00  0.69326011959E+02  0.69326011959E+02  0.00000000000E+00 0.  1.
          1   -1    0    0  501    0 -0.00000000000E+00 -0.00000000000E+00 -0.68158342404E+02  0.68158342404E+02  0.00000000000E+00 0.  1.
          2    1    1    2  501    0 -0.63008517090E+01  0.25312653505E+02  0.64184201749E+02  0.69282342006E+02  0.00000000000E+00 0.  1.
          1    1    1    2  502    0  0.63008517090E+01 -0.25312653505E+02 -0.63016532194E+02  0.68202012356E+02  0.00000000000E+00 0.  1.
</event>
<event>
 4    1  0.3837333E+003  0.3053764E+02  0.7546771E-02  0.1414981E+00
          2   -1    0    0  502    0  0.00000000000E+00  0.00000000000E+00  0.11369901721E+04  0.11369901721E+04  0.00000000000E+00 0. -1.
          1   -1    0    0  501    0 -0.00000000000E+00 -0.00000000000E+00 -0.12708992310E+01  0.12708992310E+01  0.00000000000E+00 0. -1.
          2    1    1    2  501    0 -0.16991240477E+02  0.25374100828E+02  0.90678561775E+03  0.90729967695E+03  0.00000000000E+00 0. -1.
          1    1    1    2  502    0  0.16991240477E+02 -0.25374100828E+02  0.22893365516E+03  0.23096139442E+03  0.00000000000E+00 0. -1.
</event>
<event>
 4    1  0.3837333E+003  0.2965992E+02  0.7546771E-02  0.1422575E+00
          2   -1    0    0  502    0  0.00000000000E+00  0.00000000000E+00  0.31712778062E+01  0.31712778062E+01  0.00000000000E+00 0.  1.
          1   -1    0    0  501    0 -0.00000000000E+00 -0.00000000000E+00 -0.11303070914E+04  0.11303070914E+04  0.00000000000E+00 0.  1.
          2    1    1    2  501    0 -0.29453513604E+02  0.34930390833E+01 -0.71260905388E+02  0.77186964070E+02  0.00000000000E+00 0.  1.
          1    1    1    2  502    0  0.29453513604E+02 -0.34930390833E+01 -0.10558749082E+04  0.10562914051E+04  0.00000000000E+00 0.  1.
</event>
<event>
 4    1  0.3837333E+003  0.5616474E+02  0.7546771E-02  0.1273451E+00
          2   -1    0    0  502    0  0.00000000000E+00  0.00000000000E+00  0.82415127271E+03  0.82415127271E+03  0.00000000000E+00 0.  1.
          1   -1    0    0  501    0 -0.00000000000E+00 -0.00000000000E+00 -0.94001830619E+01  0.94001830619E+01  0.00000000000E+00 0.  1.
          2    1    1    2  501    0 -0.28632159205E+02  0.48318504587E+02  0.72827174218E+03  0.73043426048E+03  0.00000000000E+00 0.  1.
          1    1    1    2  502    0  0.28632159205E+02 -0.48318504587E+02  0.86479347472E+02  0.10311719529E+03  0.00000000000E+00 0.  1.
</event>
<event>
 4    1  0.3837333E+003  0.2783606E+02  0.7546771E-02  0.1439386E+00
          2   -1    0    0  502    0  0.00000000000E+00  0.00000000000E+00  0.10785390133E+02  0.10785390133E+02  0.00000000000E+00 0.  1.
          1   -1    0    0  501    0 -0.00000000000E+00 -0.00000000000E+00 -0.32958496385E+03  0.32958496385E+03  0.00000000000E+00 0. -1.
          2    1    1    2  501    0 -0.17186886258E+02  0.21896512245E+02 -0.89016012335E+01  0.29224729464E+02  0.00000000000E+00 0.  1.
          1    1    1    2  502    0  0.17186886258E+02 -0.21896512245E+02 -0.30989797248E+03  0.31114562452E+03  0.00000000000E+00 0. -1.
</event>
<event>
 4    1  0.3837333E+003  0.2063655E+02  0.7546771E-02  0.1524518E+00
          2   -1    0    0  502    0  0.00000000000E+00  0.00000000000E+00  0.23027682029E+03  0.23027682029E+03  0.00000000000E+00 0.  1.
          1   -1    0    0  501    0 -0.00000000000E+00 -0.00000000000E+00 -0.53176774027E+03  0.53176774027E+03  0.00000000000E+00 0. -1.
          2    1    1    2  501    0 -0.17784730965E+02 -0.10467587784E+02  0.22961368782E+03  0.23053917820E+03  0.00000000000E+00 0.  1.
          1    1    1    2  502    0  0.17784730965E+02  0.10467587784E+02 -0.53110460781E+03  0.53150538236E+03  0.00000000000E+00 0. -1.
</event>
<event>
 4    1  0.3837333E+003  0.2624503E+02  0.7546771E-02  0.1455343E+00
          2   -1    0    0  502    0  0.00000000000E+00  0.00000000000E+00  0.16200197675E+04  0.16200197675E+04  0.00000000000E+00 0. -1.
          1   -1    0    0  501    0 -0.00000000000E+00 -0.00000000000E+00 -0.86709541289E+00  0.86709541289E+00  0.00000000000E+00 0. -1.
          2    1    1    2  501    0  0.13010473552E+02 -0.22793168453E+02  0.23100282012E+03  0.23248893275E+03  0.00000000000E+00 0. -1.
          1    1    1    2  502    0 -0.13010473552E+02  0.22793168453E+02  0.13881498519E+04  0.13883979301E+04  0.00000000000E+00 0. -1.
</event>
<event>
 4    1  0.3837333E+003  0.3161472E+02  0.7546771E-02  0.1406065E+00
          2   -1    0    0  502    0  0.00000000000E+00  0.00000000000E+00  0.12783827198E+02  0.12783827198E+02  0.00000000000E+00 0. -1.
          1   -1    0    0  501    0 -0.00000000000E+00 -0.00000000000E+00 -0.81628329792E+02  0.81628329792E+02  0.00000000000E+00 0.  1.
          2    1    1    2  501    0  0.30470212401E+00 -0.31613247156E+02 -0.24725364381E+02  0.40135195065E+02  0.00000000000E+00 0. -1.
          1    1    1    2  502    0 -0.30470212401E+00  0.31613247156E+02 -0.44119138212E+02  0.54276961925E+02  0.00000000000E+00 0.  1.
</event>
<event>
 4    1  0.3837333E+003  0.2532621E+02  0.7546771E-02  0.1465187E+00
          2   -1    0    0  502    0  0.00000000000E+00  0.00000000000E+00  0.19018752572E+03  0.19018752572E+03  0.00000000000E+00 0. -1.
          1   -1    0    0  501    0 -0.00000000000E+00 -0.00000000000E+00 -0.44216193112E+01  0.44216193112E+01  0.00000000000E+00 0.  1.
          2    1    1    2  501    0  0.24465055313E+02 -0.65481350451E+01  0.14027927030E+03  0.14254715248E+03  0.00000000000E+00 0. -1.
          1    1    1    2  502    0 -0.24465055313E+02  0.65481350451E+01  0.45486636113E+02  0.52061992556E+02  0.00000000000E+00 0.  1.
</event>
<event>
 4    1  0.3837333E+003  0.2085471E+02  0.7546771E-02  0.1521349E+00
          2   -1    0    0  502    0  0.00000000000E+00  0.00000000000E+00  0.18171200880E+03  0.18171200880E+03  0.00000000000E+00 0. -1.
          1   -1    0    0  501    0 -0.00000000000E+00 -0.00000000000E+00 -0.58206971341E+01  0.58206971341E+01  0.00000000000E+00 0.  1.
          2    1    1    2  501    0  0.20591511745E+02 -0.33027853962E+01  0.15989588565E+03  0.16125015657E+03  0.00000000000E+00 0. -1.
          1    1    1    2  502    0 -0.20591511745E+02  0.33027853962E+01  0.15995426011E+02  0.26282549355E+02  0.00000000000E+00 0.  1.
</event>
<event>
 4    1  0.3837333E+003  0.2554802E+02  0.7546771E-02  0.1462765E+00
          2   -1    0    0  502    0  0.00000000000E+00  0.00000000000E+00  0.88439019663E+02  0.88439019663E+02  0.00000000000E+00 0.  1.
          1   -1    0    0  501    0 -0.00000000000E+00 -0.00000000000E+00 -0.72474919242E+02  0.72474919242E+02  0.00000000000E+00 0. -1.
          2    1    1    2  501    0 -0.21358268446E+02  0.14018765995E+02  0.84232522261E+02  0.88021697538E+02  0.00000000000E+00 0.  1.
          1    1    1    2  502    0  0.21358268446E+02 -0.14018765995E+02 -0.68268421840E+02  0.72892241368E+02  0.00000000000E+00 0. -1.
</event>
<event>
 4    1  0.3837333E+003  0.2226623E+02  0.7546771E-02  0.1501924E+00
          2   -1    0    0  502    0  0.00000000000E+00  0.00000000000E+00  0.16662413385E+04  0.16662413385E+04  0.00000000000E+00 0.  1.
          1   -1    0    0  501    0 -0.00000000000E+00 -0.00000000000E+00 -0.11287820039E+01  0.11287820039E+01  0.00000000000E+00 0. -1.
          2    1    1    2  501    0  0.16684100928E+02 -0.14745367189E+02  0.15479726881E+04  0.15481328199E+04  0.00000000000E+00 0.  1.
          1    1    1    2  502    0 -0.16684100928E+02  0.14745367189E+02  0.11713986836E+03  0.11923730052E+03  0.00000000000E+00 0. -1.
</event>
<event>
 4    1  0.3837333E+003  0.3440133E+02  0.7546771E-02  0.1384821E+00
          2   -1    0    0  502    0  0.00000000000E+00  0.00000000000E+00  0.56388342716E+03  0.56388342716E+03  0.00000000000E+00 0.  1.
          1   -1    0    0  501    0 -0.00000000000E+00 -0.00000000000E+00 -0.10587978133E+03  0.10587978133E+03  0.00000000000E+00 0.  1.
          2    1    1    2  501    0 -0.21375703126E+02 -0.26954240022E+02  0.56054779765E+03  0.56160242627E+03  0.00000000000E+00 0.  1.
          1    1    1    2  502    0  0.21375703126E+02  0.26954240022E+02 -0.10254415182E+03  0.10816078222E+03  0.00000000000E+00 0.  1.
</event>
<event>
 4    1  0.3837333E+003  0.2896808E+02  0.7546771E-02  0.1428781E+00
          2   -1    0    0  502    0  0.00000000000E+00  0.00000000000E+00  0.74286743162E+02  0.74286743162E+02  0.00000000000E+00 0. -1.
          1   -1    0    0  501    0 -0.00000000000E+00 -0.00000000000E+00 -0.14543836120E+02  0.14543836120E+02  0.00000000000E+00 0. -1.
          2    1    1    2  501    0  0.10161566971E+02 -0.27127335150E+02  0.50860080619E+02  0.58531167392E+02  0.00000000000E+00 0. -1.
          1    1    1    2  502    0 -0.10161566971E+02  0.27127335150E+02  0.88828264226E+01  0.30299411891E+02  0.00000000000E+00 0. -1.
</event>
<event>
 4    1  0.3837333E+003  0.4340703E+02  0.7546771E-02  0.1329600E+00
          2   -1    0    0  502    0  0.00000000000E+00  0.00000000000E+00  0.31567487645E+01  0.31567487645E+01  0.00000000000E+00 0. -1.
          1   -1    0    0  501    0 -0.00000000000E+00 -0.00000000000E+00 -0.13497963487E+04  0.13497963487E+04  0.00000000000E+00 0. -1.
          2    1    1    2  501    0 -0.17381345862E+02  0.39775101338E+02 -0.16808325565E+03  0.17359766906E+03  0.00000000000E+00 0. -1.
          1    1    1    2  502    0  0.17381345862E+02 -0.39775101338E+02 -0.11785563443E+04  0.11793554285E+04  0.00000000000E+00 0. -1.
</event>
<event>
 4    1  0.3837333E+003  0.9439512E+02  0.7546771E-02  0.1173891E+00
          2   -1    0    0  502    0  0.00000000000E+00  0.00000000000E+00  0.11449389637E+04  0.11449389637E+04  0.00000000000E+00 0. -1.
          1   -1    0    0  501    0 -0.00000000000E+00 -0.00000000000E+00 -0.12910556204E+02  0.12910556204E+02  0.00000000000E+00 0. -1.
          2    1    1    2  501    0  0.34009145023E+02 -0.88055761653E+02  0.93087552412E+03  0.93564933630E+03  0.00000000000E+00 0. -1.
          1    1    1    2  502    0 -0.34009145023E+02  0.88055761653E+02  0.20115288339E+03  0.22220018362E+03  0.00000000000E+00 0. -1.
</event>
<event>
 4    1  0.3837333E+003  0.2290397E+02  0.7546771E-02  0.1493708E+00
          2   -1    0    0  502    0  0.00000000000E+00  0.00000000000E+00  0.73866664552E+02  0.73866664552E+02  0.00000000000E+00 0.  1.
          1   -1    0    0  501    0 -0.00000000000E+00 -0.00000000000E+00 -0.11558934029E+04  0.11558934029E+04  0.00000000000E+00 0.  1.
          2    1    1    2  501    0 -0.16856692944E+02  0.15506243333E+02  0.71974825685E+02  0.75531233352E+02  0.00000000000E+00 0.  1.
          1    1    1    2  502    0  0.16856692944E+02 -0.15506243333E+02 -0.11540015640E+04  0.11542288341E+04  0.00000000000E+00 0.  1.
</event>
<event>
 4    1  0.3837333E+003  0.2270951E+02  0.7546771E-02  0.1496178E+00
          2   -1    0    0  502    0  0.00000000000E+00  0.00000000000E+00  0.25257130834E+02  0.25257130834E+02  0.00000000000E+00 0.  1.
          1   -1    0    0  501    0 -0.00000000000E+00 -0.00000000000E+00 -0.12532226848E+04  0.12532226848E+04  0.00000000000E+00 0. -1.
          2    1    1    2  501    0 -0.20590970424E+02 -0.95777700833E+01  0.20028150955E+02  0.30279507483E+02  0.00000000000E+00 0.  1.
          1    1    1    2  502    0  0.20590970424E+02  0.95777700833E+01 -0.12479937049E+04  0.12482003081E+04  0.00000000000E+00 0. -1.
</event>
<event>
 4    1  0.3837333E+003  0.2962674E+02  0.7546771E-02  0.1422868E+00
          2   -1    0    0  502    0  0.00000000000E+00  0.00000000000E+00  0.20211400585E+04  0.20211400585E+04  0.00000000000E+00 0.  1.
          1   -1    0    0  501    0 -0.00000000000E+00 -0.00000000000E+00 -0.11587650330E+01  0.11587650330E+01  0.00000000000E+00 0. -1.
          2    1    1    2  501    0  0.28960397505E+02  0.62481103988E+01  0.18095154407E+04  0.18097579600E+04  0.00000000000E+00 0.  1.
          1    1    1    2  502    0 -0.28960397505E+02 -0.62481103988E+01  0.21046585273E+03  0.21254086354E+03  0.00000000000E+00 0. -1.
</event>
<event>
 4    1  0.3837333E+003  0.2827695E+02  0.7546771E-02  0.1435186E+00
          2   -1    0    0  502    0  0.00000000000E+00  0.00000000000E+00  0.58874354421E+03  0.58874354421E+03  0.00000000000E+00 0.  1.
          1   -1    0    0  501    0 -0.00000000000E+00 -0.00000000000E+00 -0.12773131059E+03  0.12773131059E+03  0.00000000000E+00 0.  1.
          2    1    1    2  501    0  0.11166506735E+02  0.25978746294E+02  0.58683394711E+03  0.58751482332E+03  0.00000000000E+00 0.  1.
          1    1    1    2  502    0 -0.11166506735E+02 -0.25978746294E+02 -0.12582171349E+03  0.12896003147E+03  0.00000000000E+00 0.  1.
</event>
<event>
 4    1  0.3837333E+003  0.2249790E+02  0.7546771E-02  0.1498901E+00
          2   -1    0    0  502    0  0.00000000000E+00  0.00000000000E+00  0.62134692438E+03  0.62134692438E+03  0.00000000000E+00 0.  1.
          1   -1    0    0  501    0 -0.00000000000E+00 -0.00000000000E+00 -0.91642364062E+00  0.91642364062E+00  0.00000000000E+00 0. -1.
          2    1    1    2  501    0 -0.13948219945E+02  0.17652267498E+02  0.41392012536E+03  0.41453109119E+03  0.00000000000E+00 0.  1.
          1    1    1    2  502    0  0.13948219945E+02 -0.17652267498E+02  0.20651037538E+03  0.20773225683E+03  0.00000000000E+00 0. -1.
</event>
<event>
 4    1  0.3837333E+003  0.2505383E+02  0.7546771E-02  0.1468202E+00
          2   -1    0    0  502    0  0.00000000000E+00  0.00000000000E+00  0.36300546305E+03  0.36300546305E+03  0.00000000000E+00 0.  1.
          1   -1    0    0  501    0 -0.00000000000E+00 -0.00000000000E+00 -0.91401062870E+02  0.91401062870E+02  0.00000000000E+00 0. -1.
          2    1    1    2  501    0  0.11838021744E+02  0.22080664045E+02  0.36084604246E+03  0.36171475066E+03  0.00000000000E+00 0.  1.
          1    1    1    2  502    0 -0.11838021744E+02 -0.22080664045E+02 -0.89241642283E+02  0.92691775260E+02  0.00000000000E+00 0. -1.
</event>
<event>
 4    1  0.3837333E+003  0.2212913E+02  0.7546771E-02  0.1503733E+00
          2   -1    0    0  502    0  0.00000000000E+00  0.00000000000E+00  0.27727839956E+03  0.27727839956E+03  0.00000000000E+00 0.  1.
          1   -1    0    0  501    0 -0.00000000000E+00 -0.00000000000E+00 -0.26649456441E+03  0.26649456441E+03  0.00000000000E+00 0.  1.
          2    1    1    2  501    0  0.15820332639E+02  0.15473060329E+02  0.27637599071E+03  0.27726050343E+03  0.00000000000E+00 0.  1.
          1    1    1    2  502    0 -0.15820332639E+02 -0.15473060329E+02 -0.26559215557E+03  0.26651246053E+03  0.00000000000E+00 0.  1.
</event>
<event>
 4    1  0.3837333E+003  0.2810643E+02  0.7546771E-02  0.1436800E+00
          2   -1    0    0  502    0  0.00000000000E+00  0.00000000000E+00  0.21397169605E+03  0.21397169605E+03  0.00000000000E+00 0.  1.
          1   -1    0    0  501    0 -0.00000000000E+00 -0.00000000000E+00 -0.22946727518E+02  0.22946727518E+02  0.00000000000E+00 0. -1.
          2    1    1    2  501    0 -0.17419238790E+02 -0.22057684188E+02  0.20402448982E+03  0.20595136260E+03  0.00000000000E+00 0.  1.
          1    1    1    2  502    0  0.17419238790E+02  0.22057684188E+02 -0.12999521280E+02  0.30967060972E+02  0.00000000000E+00 0. -1.
</event>
<event>
 4    1  0.3837333E+003  0.2261323E+02  0.7546771E-02  0.1497413E+00
          2   -1    0    0  502    0  0.00000000000E+00  0.00000000000E+00  0.17090458843E+03  0.17090458843E+03  0.00000000000E+00 0.  1.
          1   -1    0    0  501    0 -0.00000000000E+00 -0.00000000000E+00 -0.56502332661E+02  0.56502332661E+02  0.00000000000E+00 0.  1.
          2    1    1    2  501    0 -0.60114495958E+01  0.21799558554E+02  0.16785306981E+03  0.16936945216E+03  0.00000000000E+00 0.  1.
          1    1    1    2  502    0  0.60114495958E+01 -0.21799558554E+02 -0.53450814037E+02  0.58037468937E+02  0.00000000000E+00 0.  1.
</event>
<event>
 4    1  0.3837333E+003  0.2055947E+02  0.7546771E-02  0.1525648E+00
          2   -1    0    0  502    0  0.00000000000E+00  0.00000000000E+00  0.38413638245E+03  0.38413638245E+03  0.00000000000E+00 0.  1.
          1   -1    0    0  501    0 -0.00000000000E+00 -0.00000000000E+00 -0.33396290598E+01  0.33396290598E+01  0.00000000000E+00 0.  1.
          2    1    1    2  501    0 -0.17676792060E+02 -0.10498699204E+02  0.34904031323E+03  0.34964529444E+03  0.00000000000E+00 0.  1.
          1    1    1    2  502    0  0.17676792060E+02  0.10498699204E+02  0.31756440156E+02  0.37830717069E+02  0.00000000000E+00 0.  1.
</event>
<event>
 4    1  0.3837333E+003  0.2170704E+02  0.7546771E-02  0.1509405E+00
          2   -1    0    0  502    0  0.00000000000E+00  0.00000000000E+00  0.40883301851E+01  0.40883301851E+01  0.00000000000E+00 0. -1.
          1   -1    0    0  501    0 -0.00000000000E+00 -0.00000000000E+00 -0.34496644968E+03  0.34496644968E+03  0.00000000000E+00 0. -1.
          2    1    1    2  501    0 -0.20378021931E+02 -0.74787499340E+01 -0.28020153660E+02  0.35444667999E+02  0.00000000000E+00 0. -1.
          1    1    1    2  502    0  0.20378021931E+02  0.74787499340E+01 -0.31285796583E+03  0.31361011186E+03  0.00000000000E+00 0. -1.
</event>
<event>
 4    1  0.3837333E+003  0.3000961E+02  0.7546771E-02  0.1419513E+00
          2   -1    0    0  502    0  0.00000000000E+00  0.00000000000E+00  0.14261900298E+03  0.14261900298E+03  0.00000000000E+00 0.  1.
          1   -1    0    0  501    0 -0.00000000000E+00 -0.00000000000E+00 -0.64153421650E+02  0.64153421650E+02  0.00000000000E+00 0.  1.
          2    1    1    2  501    0 -0.29095900443E+02  0.73488418328E+01  0.13739912265E+03  0.14063817335E+03  0.00000000000E+00 0.  1.
          1    1    1    2  502    0  0.29095900443E+02 -0.73488418328E+01 -0.58933541323E+02  0.66134251275E+02  0.00000000000E+00 0.  1.
</event>
<event>
 4    1  0.3837333E+003  0.2273331E+02  0.7546771E-02  0.1495874E+00
          2   -1    0    0  502    0  0.00000000000E+00  0.00000000000E+00  0.19874917322E+03  0.19874917322E+03  0.00000000000E+00 0. -1.
          1   -1    0    0  501    0 -0.00000000000E+00 -0.00000000000E+00 -0.66886254831E+02  0.66886254831E+02  0.00000000000E+00 0.  1.
          2    1    1    2  501    0  0.17978430917E+02  0.13913274434E+02  0.19614186246E+03  0.19745488952E+03  0.00000000000E+00 0. -1.
          1    1    1    2  502    0 -0.17978430917E+02 -0.13913274434E+02 -0.64278944073E+02  0.68180538535E+02  0.00000000000E+00 0.  1.
</event>
<event>
 4    1  0.3837333E+003  0.2775121E+02  0.7546771E-02  0.1440205E+00
          2   -1    0    0  502    0  0.00000000000E+00  0.00000000000E+00  0.41823777217E+01  0.41823777217E+01  0.00000000000E+00 0.  1.
          1   -1    0    0  501    0 -0.00000000000E+00 -0.00000000000E+00 -0.12763132104E+04  0.12763132104E+04  0.00000000000E+00 0.  1.
          2    1    1    2  501    0  0.27629483483E+02  0.25963750346E+01 -0.43800699853E+02  0.51852008914E+02  0.00000000000E+00 0.  1.
          1    1    1    2  502    0 -0.27629483483E+02 -0.25963750346E+01 -0.12283301328E+04  0.12286435792E+04  0.00000000000E+00 0.  1.
</event>
<event>
 4    1  0.3837333E+003  0.3943439E+02  0.7546771E-02  0.1351832E+00
          2   -1    0    0  502    0  0.00000000000E+00  0.00000000000E+00  0.33797420620E+03  0.33797420620E+03  0.00000000000E+00 0. -1.
          1   -1    0    0  501    0 -0.00000000000E+00 -0.00000000000E+00 -0.18320446804E+02  0.18320446804E+02  0.00000000000E+00 0.  1.
          2    1    1    2  501    0  0.33816211209E+02 -0.20286324615E+02  0.31398881494E+03  0.31645544239E+03  0.00000000000E+00 0. -1.
          1    1    1    2  502    0 -0.33816211209E+02  0.20286324615E+02  0.56649444513E+01  0.39839210617E+02  0.00000000000E+00 0.  1.
</event>
<event>
 4    1  0.3837333E+003  0.4402637E+02  0.7546771E-02  0.1326380E+00
          2   -1    0    0  502    0  0.00000000000E+00  0.00000000000E+00  0.98377679322E+01  0.98377679322E+01  0.00000000000E+00 0.  1.
          1   -1    0    0  501    0 -0.00000000000E+00 -0.00000000000E+00 -0.91738053182E+03  0.91738053182E+03  0.00000000000E+00 0.  1.
          2    1    1    2  501    0 -0.43863387237E+02  0.37847675357E+01 -0.42953239134E+02  0.61508551904E+02  0.00000000000E+00 0.  1.
          1    1    1    2  502    0  0.43863387237E+02 -0.37847675357E+01 -0.86458952475E+03  0.86570974784E+03  0.00000000000E+00 0.  1.
</event>
<event>
 4    1  0.3837333E+003  0.2484672E+02  0.7546771E-02  0.1470526E+00
          2   -1    0    0  502    0  0.00000000000E+00  0.00000000000E+00  0.71741471768E+03  0.71741471768E+03  0.00000000000E+00 0. -1.
          1   -1    0    0  501    0 -0.00000000000E+00 -0.00000000000E+00 -0.17384897396E+01  0.17384897396E+01  0.00000000000E+00 0.  1.
          2    1    1    2  501    0  0.44558460062E+01  0.24443909649E+02  0.61336807857E+03  0.61387112580E+03  0.00000000000E+00 0. -1.
          1    1    1    2  502    0 -0.44558460062E+01 -0.24443909649E+02  0.10230814937E+03  0.10528208162E+03  0.00000000000E+00 0.  1.
</event>
<event>
 4    1  0.3837333E+003  0.2369277E+02  0.7546771E-02  0.1483978E+00
          2   -1    0    0  502    0  0.00000000000E+00  0.00000000000E+00  0.61427421853E+03  0.61427421853E+03  0.00000000000E+00 0.  1.
          1   -1    0    0  501    0 -0.00000000000E+00 -0.00000000000E+00 -0.10099186299E+02  0.10099186299E+02  0.00000000000E+00 0.  1.
          2    1    1    2  501    0  0.85648640007E+01 -0.22090500940E+02  0.59981506558E+03  0.60028281670E+03  0.00000000000E+00 0.  1.
          1    1    1    2  502    0 -0.85648640007E+01  0.22090500940E+02  0.43599666475E+01  0.24090588127E+02  0.00000000000E+00 0.  1.
</event>
<event>
 4    1  0.3837333E+003  0.2972495E+02  0.7546771E-02  0.1422002E+00
          2   -1    0    0  502    0  0.00000000000E+00  0.00000000000E+00  0.37881426818E+03  0.37881426818E+03  0.00000000000E+00 0. -1.
          1   -1    0    0  501    0 -0.00000000000E+00 -0.00000000000E+00 -0.50570330784E+01  0.50570330784E+01  0.00000000000E+00 0.  1.
          2    1    1    2  501    0  0.29669571466E+02  0.18136152084E+01  0.32776085394E+03  0.32910598604E+03  0.00000000000E+00 0. -1.
          1    1    1    2  502    0 -0.29669571466E+02 -0.18136152084E+01  0.45996381157E+02  0.54765315215E+02  0.00000000000E+00 0.  1.
</event>
<event>
 4    1  0.3837333E+003  0.2919396E+02  0.7546771E-02  0.1426733E+00
          2   -1    0    0  502    0  0.00000000000E+00  0.00000000000E+00  0.34138866946E+03  0.34138866946E+03  0.00000000000E+00 0. -1.
          1   -1    0    0  501    0 -0.00000000000E+00 -0.00000000000E+00 -0.71624128949E+01  0.71624128949E+01  0.00000000000E+00 0. -1.
          2    1    1    2  501    0  0.26019655963E+02  0.13238761088E+02  0.30777411137E+03  0.30915560956E+03  0.00000000000E+00 0. -1.
          1    1    1    2  502    0 -0.26019655963E+02 -0.13238761088E+02  0.26452145198E+02  0.39395472800E+02  0.00000000000E+00 0. -1.
</event>
<event>
 4    1  0.3837333E+003  0.2781934E+02  0.7546771E-02  0.1439547E+00
          2   -1    0    0  502    0  0.00000000000E+00  0.00000000000E+00  0.39336006752E+02  0.39336006752E+02  0.00000000000E+00 0. -1.
          1   -1    0    0  501    0 -0.00000000000E+00 -0.00000000000E+00 -0.35073918026E+02  0.35073918026E+02  0.00000000000E+00 0. -1.
          2    1    1    2  501    0  0.26000685504E+02 -0.98934458164E+01  0.26783546633E+02  0.38617020691E+02  0.00000000000E+00 0. -1.
          1    1    1    2  502    0 -0.26000685504E+02  0.98934458164E+01 -0.22521457907E+02  0.35792904088E+02  0.00000000000E+00 0. -1.
</event>
<event>
 4    1  0.3837333E+003  0.2633728E+02  0.7546771E-02  0.1454381E+00
          2   -1    0    0  502    0  0.00000000000E+00  0.00000000000E+00  0.72141313176E+02  0.72141313176E+02  0.00000000000E+00 0. -1.
          1   -1    0    0  501    0 -0.00000000000E+00 -0.00000000000E+00 -0.18925137938E+03  0.18925137938E+03  0.00000000000E+00 0. -1.
          2    1    1    2  501    0 -0.24112813845E+02 -0.10593595451E+02  0.68777929318E+02  0.73648188147E+02  0.00000000000E+00 0. -1.
          1    1    1    2  502    0  0.24112813845E+02  0.10593595451E+02 -0.18588799552E+03  0.18774450441E+03  0.00000000000E+00 0. -1.
</event>
<event>
 4    1  0.3837333E+003  0.2437136E+02  0.7546771E-02  0.1475960E+00
          2   -1    0    0  502    0  0.00000000000E+00  0.00000000000E+00  0.51461200396E+02  0.51461200396E+02  0.00000000000E+00 0.  1.
          1   -1    0    0  501    0 -0.00000000000E+00 -0.00000000000E+00 -0.34516633276E+02  0.34516633276E+02  0.00000000000E+00 0.  1.
          2    1    1    2  501    0  0.93586787155E+01  0.22502855644E+02  0.43544798761E+02  0.49901030837E+02  0.00000000000E+00 0.  1.
          1    1    1    2  502    0 -0.93586787155E+01 -0.22502855644E+02 -0.26600231641E+02  0.36076802835E+02  0.00000000000E+00 0.  1.
</event>
<event>
 4    1  0.3837333E+003  0.3466631E+02  0.7546771E-02  0.1382924E+00
          2   -1    0    0  502    0  0.00000000000E+00  0.00000000000E+00  0.11347408402E+04  0.11347408402E+04  0.00000000000E+00 0.  1.
          1   -1    0    0  501    0 -0.00000000000E+00 -0.00000000000E+00 -0.24048153881E+01  0.24048153881E+01  0.00000000000E+00 0.  1.
          2    1    1    2  501    0 -0.23824360270E+02 -0.25182390360E+02  0.99150103760E+03  0.99210687957E+03  0.00000000000E+00 0.  1.
          1    1    1    2  502    0  0.23824360270E+02  0.25182390360E+02  0.14083498726E+03  0.14503877607E+03  0.00000000000E+00 0.  1.
</event>
<event>
 4    1  0.3837333E+003  0.2161545E+02  0.7546771E-02  0.1510656E+00
          2   -1    0    0  502    0  0.00000000000E+00  0.00000000000E+00  0.51760697479E+02  0.51760697479E+02  0.00000000000E+00 0.  1.
          1   -1    0    0  501    0 -0.00000000000E+00 -0.00000000000E+00 -0.96136048216E+01  0.96136048216E+01  0.00000000000E+00 0.  1.
          2    1    1    2  501    0 -0.13758169085E+02 -0.16671550705E+02  0.28655840443E+02  0.35894080445E+02  0.00000000000E+00 0.  1.
          1    1    1    2  502    0  0.13758169085E+02  0.16671550705E+02  0.13491252214E+02  0.25480221856E+02  0.00000000000E+00 0.  1.
</event>
<event>
 4    1  0.3837333E+003  0.4242346E+02  0.7546771E-02  0.1334841E+00
          2   -1    0    0  502    0  0.00000000000E+00  0.00000000000E+00  0.17750912089E+01  0.17750912089E+01  0.00000000000E+00 0. -1.
          1   -1    0    0  501    0 -0.00000000000E+00 -0.00000000000E+00 -0.10229112522E+04  0.10229112522E+04  0.00000000000E+00 0. -1.
          2    1    1    2  501    0  0.30862821998E+02  0.29107293051E+02 -0.55868091569E+03  0.56028931263E+03  0.00000000000E+00 0. -1.
          1    1    1    2  502    0 -0.30862821998E+02 -0.29107293051E+02 -0.46245524531E+03  0.46439703079E+03  0.00000000000E+00 0. -1.
</event>
<event>
 4    1  0.3837333E+003  0.2482663E+02  0.7546771E-02  0.1470752E+00
          2   -1    0    0  502    0  0.00000000000E+00  0.00000000000E+00  0.38244867323E+02  0.38244867323E+02  0.00000000000E+00 0.  1.
          1   -1    0    0  501    0 -0.00000000000E+00 -0.00000000000E+00 -0.81313479964E+02  0.81313479964E+02  0.00000000000E+00 0.  1.
          2    1    1    2  501    0  0.14353005381E+01  0.24785103771E+02  0.31993989043E+02  0.40496626915E+02  0.00000000000E+00 0.  1.
          1    1    1    2  502    0 -0.14353005381E+01 -0.24785103771E+02 -0.75062601685E+02  0.79061720373E+02  0.00000000000E+00 0.  1.
</event>
<event>
 4    1  0.3837333E+003  0.2218484E+02  0.7546771E-02  0.1502996E+00
          2   -1    0    0  502    0  0.00000000000E+00  0.00000000000E+00  0.31154096440E+02  0.31154096440E+02  0.00000000000E+00 0. -1.
          1   -1    0    0  501    0 -0.00000000000E+00 -0.00000000000E+00 -0.29646978145E+03  0.29646978145E+03  0.00000000000E+00 0. -1.
          2    1    1    2  501    0  0.20789473913E+02 -0.77436986219E+01  0.26729871533E+02  0.34736913019E+02  0.00000000000E+00 0. -1.
          1    1    1    2  502    0 -0.20789473913E+02  0.77436986219E+01 -0.29204555655E+03  0.29288696487E+03  0.00000000000E+00 0. -1.
</event>
<event>
 4    1  0.3837333E+003  0.2490971E+02  0.7546771E-02  0.1469816E+00
          2   -1    0    0  502    0  0.00000000000E+00  0.00000000000E+00  0.83617281154E+03  0.83617281154E+03  0.00000000000E+00 0. -1.
          1   -1    0    0  501    0 -0.00000000000E+00 -0.00000000000E+00 -0.65037061415E+01  0.65037061415E+01  0.00000000000E+00 0.  1.
          2    1    1    2  501    0  0.21827591049E+02 -0.12002072627E+02  0.81140796413E+03  0.81179023013E+03  0.00000000000E+00 0. -1.
          1    1    1    2  502    0 -0.21827591049E+02  0.12002072627E+02  0.18261141266E+02  0.30886287551E+02  0.00000000000E+00 0.  1.
</event>
<event>
 4    1  0.3837333E+003  0.2147760E+02  0.7546771E-02  0.1512554E+00
          2   -1    0    0  502    0  0.00000000000E+00  0.00000000000E+00  0.25294990593E+03  0.25294990593E+03  0.00000000000E+00 0. -1.
          1   -1    0    0  501    0 -0.00000000000E+00 -0.00000000000E+00 -0.96175125116E+02  0.96175125116E+02  0.00000000000E+00 0.  1.
          2    1    1    2  501    0  0.16684230951E+02 -0.13524934809E+02  0.25128699553E+03  0.25220317513E+03  0.00000000000E+00 0. -1.
          1    1    1    2  502    0 -0.16684230951E+02  0.13524934809E+02 -0.94512214714E+02  0.96921855916E+02  0.00000000000E+00 0.  1.
</event>
<event>
 4    1  0.3837333E+003  0.2106741E+02  0.7546771E-02  0.1518305E+00
          2   -1    0    0  502    0  0.00000000000E+00  0.00000000000E+00  0.15078453875E+02  0.15078453875E+02  0.00000000000E+00 0. -1.
          1   -1    0    0  501    0 -0.00000000000E+00 -0.00000000000E+00 -0.18513319506E+03  0.18513319506E+03  0.00000000000E+00 0.  1.
          2    1    1    2  501    0 -0.33091288023E+01  0.20805894199E+02  0.67760513188E+01  0.22130305880E+02  0.00000000000E+00 0. -1.
          1    1    1    2  502    0  0.33091288023E+01 -0.20805894199E+02 -0.17683079251E+03  0.17808134306E+03  0.00000000000E+00 0.  1.
</event>
<event>
 4    1  0.3837333E+003  0.2659808E+02  0.7546771E-02  0.1451688E+00
          2   -1    0    0  502    0  0.00000000000E+00  0.00000000000E+00  0.37850409311E+02  0.37850409311E+02  0.00000000000E+00 0.  1.
          1   -1    0    0  501    0 -0.00000000000E+00 -0.00000000000E+00 -0.66448728977E+02  0.66448728977E+02  0.00000000000E+00 0. -1.
          2    1    1    2  501    0  0.59590369855E+01 -0.25921958540E+02  0.29911774447E+02  0.40027144625E+02  0.00000000000E+00 0.  1.
          1    1    1    2  502    0 -0.59590369855E+01  0.25921958540E+02 -0.58510094113E+02  0.64271993663E+02  0.00000000000E+00 0. -1.
</event>
<event>
 4    1  0.3837333E+003  0.2551565E+02  0.7546771E-02  0.1463117E+00
          2   -1    0    0  502    0  0.00000000000E+00  0.00000000000E+00  0.17940296354E+03  0.17940296354E+03  0.00000000000E+00 0. -1.
          1   -1    0    0  501    0 -0.00000000000E+00 -0.00000000000E+00 -0.50566050398E+02  0.50566050398E+02  0.00000000000E+00 0. -1.
          2    1    1    2  501    0  0.24339409018E+02  0.76577881784E+01  0.17520010721E+03  0.17704837226E+03  0.00000000000E+00 0. -1.
          1    1    1    2  502    0 -0.24339409018E+02 -0.76577881784E+01 -0.46363194073E+02  0.52920641680E+02  0.00000000000E+00 0. -1.
</event>
<event>
 4    1  0.6279305E+003  0.2856940E+02  0.7546771E-02  0.1432450E+00
          2   -1    0    0  502    0  0.00000000000E+00  0.00000000000E+00  0.13131915022E+04  0.13131915022E+04  0.00000000000E+00 0. -1.
          1   -1    0    0  501    0 -0.00000000000E+00 -0.00000000000E+00 -0.93862726584E+03  0.93862726584E+03  0.00000000000E+00 0.  1.
          2    1    1    2  501    0  0.98222038903E+01 -0.26827876278E+02  0.13128186589E+04  0.13131294840E+04  0.00000000000E+00 0. -1.
          1    1    1    2  502    0 -0.98222038903E+01  0.26827876278E+02 -0.93825442251E+03  0.93868928406E+03  0.00000000000E+00 0.  1.
</event>
<event>
 4    1  0.3837333E+003  0.4838871E+02  0.7546771E-02  0.1305314E+00
          2   -1    0    0  502    0  0.00000000000E+00  0.00000000000E+00  0.25880096634E+03  0.25880096634E+03  0.00000000000E+00 0.  1.
          1   -1    0    0  501    0 -0.00000000000E+00 -0.00000000000E+00 -0.39421654200E+02  0.39421654200E+02  0.00000000000E+00 0.  1.
          2    1    1    2  501    0  0.32539098160E+02 -0.35814436511E+02  0.24057656975E+03  0.24539468757E+03  0.00000000000E+00 0.  1.
          1    1    1    2  502    0 -0.32539098160E+02  0.35814436511E+02 -0.21197257614E+02  0.52827932971E+02  0.00000000000E+00 0.  1.
</event>
<event>
 4    1  0.3837333E+003  0.2016393E+02  0.7546771E-02  0.1531544E+00
          2   -1    0    0  502    0  0.00000000000E+00  0.00000000000E+00  0.24122997138E+02  0.24122997138E+02  0.00000000000E+00 0.  1.
          1   -1    0    0  501    0 -0.00000000000E+00 -0.00000000000E+00 -0.52183651285E+03  0.52183651285E+03  0.00000000000E+00 0. -1.
          2    1    1    2  501    0 -0.18651836722E+02  0.76611336793E+01  0.19678373249E+02  0.28174853258E+02  0.00000000000E+00 0.  1.
          1    1    1    2  502    0  0.18651836722E+02 -0.76611336793E+01 -0.51739188896E+03  0.51778465673E+03  0.00000000000E+00 0. -1.
</event>
<event>
 4    1  0.3837333E+003  0.3670424E+02  0.7546771E-02  0.1368962E+00
          2   -1    0    0  502    0  0.00000000000E+00  0.00000000000E+00  0.13122696972E+02  0.13122696972E+02  0.00000000000E+00 0.  1.
          1   -1    0    0  501    0 -0.00000000000E+00 -0.00000000000E+00 -0.38948584112E+03  0.38948584112E+03  0.00000000000E+00 0.  1.
          2    1    1    2  501    0  0.32179192887E+02 -0.17655049798E+02 -0.15432853798E+02  0.39816757962E+02  0.00000000000E+00 0.  1.
          1    1    1    2  502    0 -0.32179192887E+02  0.17655049798E+02 -0.36093029035E+03  0.36279178013E+03  0.00000000000E+00 0.  1.
</event>
<event>
 4    1  0.3837333E+003  0.2201104E+02  0.7546771E-02  0.1505305E+00
          2   -1    0    0  502    0  0.00000000000E+00  0.00000000000E+00  0.99108142781E+02  0.99108142781E+02  0.00000000000E+00 0. -1.
          1   -1    0    0  501    0 -0.00000000000E+00 -0.00000000000E+00 -0.74303746051E+02  0.74303746051E+02  0.00000000000E+00 0. -1.
          2    1    1    2  501    0  0.56063976799E+00  0.22003895620E+02  0.96207422398E+02  0.98693231095E+02  0.00000000000E+00 0. -1.
          1    1    1    2  502    0 -0.56063976799E+00 -0.22003895620E+02 -0.71403025669E+02  0.74718657737E+02  0.00000000000E+00 0. -1.
</event>
<event>
 4    1  0.3837333E+003  0.2092142E+02  0.7546771E-02  0.1520390E+00
          2   -1    0    0  502    0  0.00000000000E+00  0.00000000000E+00  0.61877026271E+03  0.61877026271E+03  0.00000000000E+00 0.  1.
          1   -1    0    0  501    0 -0.00000000000E+00 -0.00000000000E+00 -0.18092725284E+01  0.18092725284E+01  0.00000000000E+00 0. -1.
          2    1    1    2  501    0 -0.20686449448E+02 -0.31267824327E+01  0.55063078812E+03  0.55102810344E+03  0.00000000000E+00 0.  1.
          1    1    1    2  502    0  0.20686449448E+02  0.31267824327E+01  0.66330202064E+02  0.69551431797E+02  0.00000000000E+00 0. -1.
</event>
<event>
 4    1  0.3837333E+003  0.3185152E+02  0.7546771E-02  0.1404161E+00
          2   -1    0    0  502    0  0.00000000000E+00  0.00000000000E+00  0.13745730459E+04  0.13745730459E+04  0.00000000000E+00 0. -1.
          1   -1    0    0  501    0 -0.00000000000E+00 -0.00000000000E+00 -0.24236910810E+01  0.24236910810E+01  0.00000000000E+00 0. -1.
          2    1    1    2  501    0 -0.30653905413E+02 -0.86520187845E+01  0.12602511123E+04  0.12606535548E+04  0.00000000000E+00 0. -1.
          1    1    1    2  502    0  0.30653905413E+02  0.86520187845E+01  0.11189824259E+03  0.11634318218E+03  0.00000000000E+00 0. -1.
</event>
<event>
 4    1  0.3837333E+003  0.2144556E+02  0.7546771E-02  0.1512998E+00
          2   -1    0    0  502    0  0.00000000000E+00  0.00000000000E+00  0.43003996475E+02  0.43003996475E+02  0.00000000000E+00 0. -1.
          1   -1    0    0  501    0 -0.00000000000E+00 -0.00000000000E+00 -0.74197535369E+02  0.74197535369E+02  0.00000000000E+00 0. -1.
          2    1    1    2  501    0  0.17330091819E+02 -0.12632487967E+02  0.38616468907E+02  0.44171750084E+02  0.00000000000E+00 0. -1.
          1    1    1    2  502    0 -0.17330091819E+02  0.12632487967E+02 -0.69810007801E+02  0.73029781760E+02  0.00000000000E+00 0. -1.
</event>
<event>
 4    1  0.3837333E+003  0.2269409E+02  0.7546771E-02  0.1496376E+00
          2   -1    0    0  502    0  0.00000000000E+00  0.00000000000E+00  0.11785884458E+03  0.11785884458E+03  0.00000000000E+00 0.  1.
          1   -1    0    0  501    0 -0.00000000000E+00 -0.00000000000E+00 -0.17875887920E+02  0.17875887920E+02  0.00000000000E+00 0. -1.
          2    1    1    2  501    0  0.14849259564E+02  0.17161625225E+02  0.10898327932E+03  0.11132105399E+03  0.00000000000E+00 0.  1.
          1    1    1    2  502    0 -0.14849259564E+02 -0.17161625225E+02 -0.90003226668E+01  0.24413678504E+02  0.00000000000E+00 0. -1.
</event>
<event>
 4    1  0.3837333E+003  0.3815053E+02  0.7546771E-02  0.1359678E+00
          2   -1    0    0  502    0  0.00000000000E+00  0.00000000000E+00  0.10287707257E+04  0.10287707257E+04  0.00000000000E+00 0. -1.
          1   -1    0    0  501    0 -0.00000000000E+00 -0.00000000000E+00 -0.40707664423E+01  0.40707664423E+01  0.00000000000E+00 0. -1.
          2    1    1    2  501    0  0.15371093625E+02 -0.34916931907E+02  0.92948843724E+03  0.93027104524E+03  0.00000000000E+00 0. -1.
          1    1    1    2  502    0 -0.15371093625E+02  0.34916931907E+02  0.95211522063E+02  0.10257044695E+03  0.00000000000E+00 0. -1.
</event>
<event>
 4    1  0.3837333E+003  0.2317853E+02  0.7546771E-02  0.1490268E+00
          2   -1    0    0  502    0  0.00000000000E+00  0.00000000000E+00  0.11966982002E+04  0.11966982002E+04  0.00000000000E+00 0.  1.
          1   -1    0    0  501    0 -0.00000000000E+00 -0.00000000000E+00 -0.20212484070E+02  0.20212484070E+02  0.00000000000E+00 0. -1.
          2    1    1    2  501    0 -0.21412546639E+01  0.23079413477E+02  0.11899030656E+04  0.11901287955E+04  0.00000000000E+00 0.  1.
          1    1    1    2  502    0  0.21412546639E+01 -0.23079413477E+02 -0.13417349502E+02  0.26781888762E+02  0.00000000000E+00 0. -1.
</event>
<event>
 4    1  0.3837333E+003  0.2733071E+02  0.7546771E-02  0.1444314E+00
          2   -1    0    0  502    0  0.00000000000E+00  0.00000000000E+00  0.50994249151E+03  0.50994249151E+03  0.00000000000E+00 0.  1.
          1   -1    0    0  501    0 -0.00000000000E+00 -0.00000000000E+00 -0.35236195950E+01  0.35236195950E+01  0.00000000000E+00 0.  1.
          2    1    1    2  501    0 -0.24742884277E+02 -0.11608503448E+02  0.44945308856E+03  0.45028329581E+03  0.00000000000E+00 0.  1.
          1    1    1    2  502    0  0.24742884277E+02  0.11608503448E+02  0.56965783357E+02  0.63182815291E+02  0.00000000000E+00 0.  1.
</event>
<event>
 4    1  0.3837333E+003  0.3014129E+02  0.7546771E-02  0.1418372E+00
          2   -1    0    0  502    0  0.00000000000E+00  0.00000000000E+00  0.13410597320E+04  0.13410597320E+04  0.00000000000E+00 0.  1.
          1   -1    0    0  501    0 -0.00000000000E+00 -0.00000000000E+00 -0.41176515250E+01  0.41176515250E+01  0.00000000000E+00 0. -1.
          2    1    1    2  501    0  0.21233021198E+02  0.21392903071E+02  0.12832469902E+04  0.12836009253E+04  0.00000000000E+00 0.  1.
          1    1    1    2  502    0 -0.21233021198E+02 -0.21392903071E+02  0.53695090221E+02  0.61576458203E+02  0.00000000000E+00 0. -1.
</event>
<event>
 4    1  0.3837333E+003  0.4725529E+02  0.7546771E-02  0.1310532E+00
          2   -1    0    0  502    0  0.00000000000E+00  0.00000000000E+00  0.18693847869E+02  0.18693847869E+02  0.00000000000E+00 0.  1.
          1   -1    0    0  501    0 -0.00000000000E+00 -0.00000000000E+00 -0.12987228330E+03  0.12987228330E+03  0.00000000000E+00 0.  1.
          2    1    1    2  501    0  0.65407987941E+01 -0.46800436145E+02 -0.34550426855E+02  0.58538832138E+02  0.00000000000E+00 0.  1.
          1    1    1    2  502    0 -0.65407987941E+01  0.46800436145E+02 -0.76628008573E+02  0.90027299027E+02  0.00000000000E+00 0.  1.
</event>
<event>
 4    1  0.3837333E+003  0.2559130E+02  0.7546771E-02  0.1462296E+00
          2   -1    0    0  502    0  0.00000000000E+00  0.00000000000E+00  0.78226742099E+03  0.78226742099E+03  0.00000000000E+00 0. -1.
          1   -1    0    0  501    0 -0.00000000000E+00 -0.00000000000E+00 -0.35811880559E+02  0.35811880559E+02  0.00000000000E+00 0. -1.
          2    1    1    2  501    0 -0.11538596414E+02  0.22842409426E+02  0.77745793518E+03  0.77787901106E+03  0.00000000000E+00 0. -1.
          1    1    1    2  502    0  0.11538596414E+02 -0.22842409426E+02 -0.31002394746E+02  0.40200290491E+02  0.00000000000E+00 0. -1.
</event>
<event>
 4    1  0.3837333E+003  0.2008940E+02  0.7546771E-02  0.1532674E+00
          2   -1    0    0  502    0  0.00000000000E+00  0.00000000000E+00  0.69374515292E+03  0.69374515292E+03  0.00000000000E+00 0. -1.
          1   -1    0    0  501    0 -0.00000000000E+00 -0.00000000000E+00 -0.18243875842E+01  0.18243875842E+01  0.00000000000E+00 0. -1.
          2    1    1    2  501    0 -0.16732864165E+02  0.11117333619E+02  0.63298877017E+03  0.63330748220E+03  0.00000000000E+00 0. -1.
          1    1    1    2  502    0  0.16732864165E+02 -0.11117333619E+02  0.58931995167E+02  0.62262058304E+02  0.00000000000E+00 0. -1.
</event>
<event>
 4    1  0.3837333E+003  0.3279024E+02  0.7546771E-02  0.1396802E+00
          2   -1    0    0  502    0  0.00000000000E+00  0.00000000000E+00  0.47366380949E+01  0.47366380949E+01  0.00000000000E+00 0. -1.
          1   -1    0    0  501    0 -0.00000000000E+00 -0.00000000000E+00 -0.22513863333E+04  0.22513863333E+04  0.00000000000E+00 0. -1.
          2    1    1    2  501    0  0.20170328030E+02 -0.25852611394E+02 -0.53642455740E+02  0.62870602881E+02  0.00000000000E+00 0. -1.
          1    1    1    2  502    0 -0.20170328030E+02  0.25852611394E+02 -0.21930072394E+04  0.21932523685E+04  0.00000000000E+00 0. -1.
</event>
<event>
 4    1  0.3837333E+003  0.2474743E+02  0.7546771E-02  0.1471649E+00
          2   -1    0    0  502    0  0.00000000000E+00  0.00000000000E+00  0.81134754866E+03  0.81134754866E+03  0.00000000000E+00 0. -1.
          1   -1    0    0  501    0 -0.00000000000E+00 -0.00000000000E+00 -0.32390144560E+02  0.32390144560E+02  0.00000000000E+00 0. -1.
          2    1    1    2  501    0 -0.24522789125E+02 -0.33268650083E+01  0.80640284281E+03  0.80678248624E+03  0.00000000000E+00 0. -1.
          1    1    1    2  502    0  0.24522789125E+02  0.33268650083E+01 -0.27445438706E+02  0.36955206981E+02  0.00000000000E+00 0. -1.
</event>
<event>
 4    1  0.3837333E+003  0.2144259E+02  0.7546771E-02  0.1513039E+00
          2   -1    0    0  502    0  0.00000000000E+00  0.00000000000E+00  0.99972078267E+03  0.99972078267E+03  0.00000000000E+00 0. -1.
          1   -1    0    0  501    0 -0.00000000000E+00 -0.00000000000E+00 -0.10504080044E+01  0.10504080044E+01  0.00000000000E+00 0.  1.
          2    1    1    2  501    0  0.15827594532E+02 -0.14466237222E+02  0.87451013807E+03  0.87477297990E+03  0.00000000000E+00 0. -1.
          1    1    1    2  502    0 -0.15827594532E+02  0.14466237222E+02  0.12416023659E+03  0.12599821078E+03  0.00000000000E+00 0.  1.
</event>
<event>
 4    1  0.3837333E+003  0.2831291E+02  0.7546771E-02  0.1434847E+00
          2   -1    0    0  502    0  0.00000000000E+00  0.00000000000E+00  0.14158232660E+02  0.14158232660E+02  0.00000000000E+00 0. -1.
          1   -1    0    0  501    0 -0.00000000000E+00 -0.00000000000E+00 -0.24219339343E+03  0.24219339343E+03  0.00000000000E+00 0. -1.
          2    1    1    2  501    0 -0.61800760005E+01 -0.27630192156E+02 -0.18197910654E+01  0.28371332318E+02  0.00000000000E+00 0. -1.
          1    1    1    2  502    0  0.61800760005E+01  0.27630192156E+02 -0.22621536970E+03  0.22798029377E+03  0.00000000000E+00 0. -1.
</event>
<event>
 4    1  0.3837333E+003  0.2866493E+02  0.7546771E-02  0.1431564E+00
          2   -1    0    0  502    0  0.00000000000E+00  0.00000000000E+00  0.20033988141E+04  0.20033988141E+04  0.00000000000E+00 0.  1.
          1   -1    0    0  501    0 -0.00000000000E+00 -0.00000000000E+00 -0.14922632916E+01  0.14922632916E+01  0.00000000000E+00 0. -1.
          2    1    1    2  501    0 -0.22623255217E+02  0.17603022818E+02  0.18545957602E+04  0.18548172718E+04  0.00000000000E+00 0.  1.
          1    1    1    2  502    0  0.22623255217E+02 -0.17603022818E+02  0.14731079057E+03  0.15007380554E+03  0.00000000000E+00 0. -1.
</event>
<event>
 4    1  0.3837333E+003  0.2278501E+02  0.7546771E-02  0.1495216E+00
          2   -1    0    0  502    0  0.00000000000E+00  0.00000000000E+00  0.12031013024E+04  0.12031013024E+04  0.00000000000E+00 0.  1.
          1   -1    0    0  501    0 -0.00000000000E+00 -0.00000000000E+00 -0.43543145129E+00  0.43543145129E+00  0.00000000000E+00 0.  1.
          2    1    1    2  501    0  0.22681432500E+02 -0.21700211622E+01  0.54426257862E+03  0.54473930541E+03  0.00000000000E+00 0.  1.
          1    1    1    2  502    0 -0.22681432500E+02  0.21700211622E+01  0.65840329237E+03  0.65879742848E+03  0.00000000000E+00 0.  1.
</event>
<event>
 4    1  0.3837333E+003  0.3919302E+02  0.7546771E-02  0.1353281E+00
          2   -1    0    0  502    0  0.00000000000E+00  0.00000000000E+00  0.54224271252E+02  0.54224271252E+02  0.00000000000E+00 0. -1.
          1   -1    0    0  501    0 -0.00000000000E+00 -0.00000000000E+00 -0.10640622404E+03  0.10640622404E+03  0.00000000000E+00 0. -1.
          2    1    1    2  501    0  0.20644765409E+02  0.33314956631E+02  0.42707376138E+02  0.57965616107E+02  0.00000000000E+00 0. -1.
          1    1    1    2  502    0 -0.20644765409E+02 -0.33314956631E+02 -0.94889328923E+02  0.10266487918E+03  0.00000000000E+00 0. -1.
</event>
<event>
 4    1  0.3837333E+003  0.2086138E+02  0.7546771E-02  0.1521253E+00
          2   -1    0    0  502    0  0.00000000000E+00  0.00000000000E+00  0.15053575933E+04  0.15053575933E+04  0.00000000000E+00 0.  1.
          1   -1    0    0  501    0 -0.00000000000E+00 -0.00000000000E+00 -0.13242377141E+01  0.13242377141E+01  0.00000000000E+00 0. -1.
          2    1    1    2  501    0  0.19133094421E+02 -0.83139639214E+01  0.14180682622E+04  0.14182217011E+04  0.00000000000E+00 0.  1.
          1    1    1    2  502    0 -0.19133094421E+02  0.83139639214E+01  0.85965093390E+02  0.88460129888E+02  0.00000000000E+00 0. -1.
</event>
<event>
 4    1  0.3837333E+003  0.2656772E+02  0.7546771E-02  0.1451999E+00
          2   -1    0    0  502    0  0.00000000000E+00  0.00000000000E+00  0.25429489634E+03  0.25429489634E+03  0.00000000000E+00 0.  1.
          1   -1    0    0  501    0 -0.00000000000E+00 -0.00000000000E+00 -0.10478602640E+04  0.10478602640E+04  0.00000000000E+00 0.  1.
          2    1    1    2  501    0  0.19274324121E+01  0.26497709113E+02  0.25343200107E+03  0.25482076594E+03  0.00000000000E+00 0.  1.
          1    1    1    2  502    0 -0.19274324121E+01 -0.26497709113E+02 -0.10469973687E+04  0.10473343944E+04  0.00000000000E+00 0.  1.
</event>
<event>
 4    1  0.3837333E+003  0.2450207E+02  0.7546771E-02  0.1474451E+00
          2   -1    0    0  502    0  0.00000000000E+00  0.00000000000E+00  0.15705156064E+04  0.15705156064E+04  0.00000000000E+00 0. -1.
          1   -1    0    0  501    0 -0.00000000000E+00 -0.00000000000E+00 -0.66773983461E+01  0.66773983461E+01  0.00000000000E+00 0.  1.
          2    1    1    2  501    0  0.11424391565E+02  0.21675670487E+02  0.15476103977E+04  0.15478043463E+04  0.00000000000E+00 0. -1.
          1    1    1    2  502    0 -0.11424391565E+02 -0.21675670487E+02  0.16227810294E+02  0.29388658368E+02  0.00000000000E+00 0.  1.
</event>
<event>
 4    1  0.3837333E+003  0.3303951E+02  0.7546771E-02  0.1394896E+00
          2   -1    0    0  502    0  0.00000000000E+00  0.00000000000E+00  0.66218747515E+03  0.66218747515E+03  0.00000000000E+00 0.  1.
          1   -1    0    0  501    0 -0.00000000000E+00 -0.00000000000E+00 -0.16571961849E+01  0.16571961849E+01  0.00000000000E+00 0.  1.
          2    1    1    2  501    0  0.31945940760E+02  0.84300202237E+01  0.30620471195E+03  0.30798203518E+03  0.00000000000E+00 0.  1.
          1    1    1    2  502    0 -0.31945940760E+02 -0.84300202237E+01  0.35432556701E+03  0.35586263616E+03  0.00000000000E+00 0.  1.
</event>
<event>
 4    1  0.3837333E+003  0.2090246E+02  0.7546771E-02  0.1520662E+00
          2   -1    0    0  502    0  0.00000000000E+00  0.00000000000E+00  0.37194843204E+02  0.37194843204E+02  0.00000000000E+00 0. -1.
          1   -1    0    0  501    0 -0.00000000000E+00 -0.00000000000E+00 -0.23692422419E+03  0.23692422419E+03  0.00000000000E+00 0. -1.
          2    1    1    2  501    0  0.32673410568E+01 -0.20645517550E+02  0.33753976092E+02  0.39701937164E+02  0.00000000000E+00 0. -1.
          1    1    1    2  502    0 -0.32673410568E+01  0.20645517550E+02 -0.23348335708E+03  0.23441713023E+03  0.00000000000E+00 0. -1.
</event>
<event>
 4    1  0.3837333E+003  0.2088650E+02  0.7546771E-02  0.1520892E+00
          2   -1    0    0  502    0  0.00000000000E+00  0.00000000000E+00  0.13105045032E+04  0.13105045032E+04  0.00000000000E+00 0. -1.
          1   -1    0    0  501    0 -0.00000000000E+00 -0.00000000000E+00 -0.19971598160E+02  0.19971598160E+02  0.00000000000E+00 0. -1.
          2    1    1    2  501    0  0.20886459099E+02 -0.41379508987E-01  0.13049371573E+04  0.13051042987E+04  0.00000000000E+00 0. -1.
          1    1    1    2  502    0 -0.20886459099E+02  0.41379508987E-01 -0.14404252298E+02  0.25371802660E+02  0.00000000000E+00 0. -1.
</event>
<event>
 4    1  0.3837333E+003  0.3413375E+02  0.7546771E-02  0.1386758E+00
          2   -1    0    0  502    0  0.00000000000E+00  0.00000000000E+00  0.35177287867E+03  0.35177287867E+03  0.00000000000E+00 0.  1.
          1   -1    0    0  501    0 -0.00000000000E+00 -0.00000000000E+00 -0.56935893968E+01  0.56935893968E+01  0.00000000000E+00 0.  1.
          2    1    1    2  501    0  0.10187963341E+02 -0.32577876553E+02  0.28863359182E+03  0.29064490872E+03  0.00000000000E+00 0.  1.
          1    1    1    2  502    0 -0.10187963341E+02  0.32577876553E+02  0.57445697457E+02  0.66821559351E+02  0.00000000000E+00 0.  1.
</event>
<event>
 4    1  0.3837333E+003  0.2280247E+02  0.7546771E-02  0.1494993E+00
          2   -1    0    0  502    0  0.00000000000E+00  0.00000000000E+00  0.33976725261E+03  0.33976725261E+03  0.00000000000E+00 0.  1.
          1   -1    0    0  501    0 -0.00000000000E+00 -0.00000000000E+00 -0.71448674728E+01  0.71448674728E+01  0.00000000000E+00 0. -1.
          2    1    1    2  501    0 -0.10026067242E+02  0.20480009395E+02  0.32007345001E+03  0.32088466185E+03  0.00000000000E+00 0.  1.
          1    1    1    2  502    0  0.10026067242E+02 -0.20480009395E+02  0.12548935125E+02  0.26027458230E+02  0.00000000000E+00 0. -1.
</event>
<event>
 4    1  0.3837333E+003  0.4681334E+02  0.7546771E-02  0.1312613E+00
          2   -1    0    0  502    0  0.00000000000E+00  0.00000000000E+00  0.13563422481E+03  0.13563422481E+03  0.00000000000E+00 0.  1.
          1   -1    0    0  501    0 -0.00000000000E+00 -0.00000000000E+00 -0.51568286530E+03  0.51568286530E+03  0.00000000000E+00 0. -1.
          2    1    1    2  501    0  0.40329066816E+02  0.23770883937E+02  0.13049186809E+03  0.13863483037E+03  0.00000000000E+00 0.  1.
          1    1    1    2  502    0 -0.40329066816E+02 -0.23770883937E+02 -0.51054050858E+03  0.51268225975E+03  0.00000000000E+00 0. -1.
</event>
<event>
 4    1  0.3837333E+003  0.3156962E+02  0.7546771E-02  0.1406430E+00
          2   -1    0    0  502    0  0.00000000000E+00  0.00000000000E+00  0.20551110656E+04  0.20551110656E+04  0.00000000000E+00 0. -1.
          1   -1    0    0  501    0 -0.00000000000E+00 -0.00000000000E+00 -0.50009459484E+00  0.50009459484E+00  0.00000000000E+00 0.  1.
          2    1    1    2  501    0 -0.79526104208E+01 -0.30551541325E+02  0.12061237946E+04  0.12065368824E+04  0.00000000000E+00 0. -1.
          1    1    1    2  502    0  0.79526104208E+01  0.30551541325E+02  0.84848717644E+03  0.84907427783E+03  0.00000000000E+00 0.  1.
</event>
<event>
 4    1  0.3837333E+003  0.2001154E+02  0.7546771E-02  0.1533859E+00
          2   -1    0    0  502    0  0.00000000000E+00  0.00000000000E+00  0.18187642151E+03  0.18187642151E+03  0.00000000000E+00 0.  1.
          1   -1    0    0  501    0 -0.00000000000E+00 -0.00000000000E+00 -0.45600597327E+02  0.45600597327E+02  0.00000000000E+00 0. -1.
          2    1    1    2  501    0 -0.60378088237E+01 -0.19078957396E+02  0.17909650533E+03  0.18021104287E+03  0.00000000000E+00 0.  1.
          1    1    1    2  502    0  0.60378088237E+01  0.19078957396E+02 -0.42820681145E+02  0.47265975970E+02  0.00000000000E+00 0. -1.
</event>
<event>
 4    1  0.3837333E+003  0.3139656E+02  0.7546771E-02  0.1407836E+00
          2   -1    0    0  502    0  0.00000000000E+00  0.00000000000E+00  0.55346105337E+03  0.55346105337E+03  0.00000000000E+00 0.  1.
          1   -1    0    0  501    0 -0.00000000000E+00 -0.00000000000E+00 -0.15564976890E+02  0.15564976890E+02  0.00000000000E+00 0. -1.
          2    1    1    2  501    0  0.23948284037E+02 -0.20303298366E+02  0.53668868583E+03  0.53760625902E+03  0.00000000000E+00 0.  1.
          1    1    1    2  502    0 -0.23948284037E+02  0.20303298366E+02  0.12073906476E+01  0.31419771244E+02  0.00000000000E+00 0. -1.
</event>
<event>
 4    1  0.3837333E+003  0.2353351E+02  0.7546771E-02  0.1485905E+00
          2   -1    0    0  502    0  0.00000000000E+00  0.00000000000E+00  0.14533148048E+04  0.14533148048E+04  0.00000000000E+00 0.  1.
          1   -1    0    0  501    0 -0.00000000000E+00 -0.00000000000E+00 -0.22222325520E+01  0.22222325520E+01  0.00000000000E+00 0.  1.
          2    1    1    2  501    0  0.16959050486E+02  0.16316148458E+02  0.13879818687E+04  0.13881813620E+04  0.00000000000E+00 0.  1.
          1    1    1    2  502    0 -0.16959050486E+02 -0.16316148458E+02  0.63110703591E+02  0.67355675348E+02  0.00000000000E+00 0.  1.
</event>
<event>
 4    1  0.3837333E+003  0.2116511E+02  0.7546771E-02  0.1516920E+00
          2   -1    0    0  502    0  0.00000000000E+00  0.00000000000E+00  0.90522523307E+02  0.90522523307E+02  0.00000000000E+00 0.  1.
          1   -1    0    0  501    0 -0.00000000000E+00 -0.00000000000E+00 -0.14579816273E+04  0.14579816273E+04  0.00000000000E+00 0.  1.
          2    1    1    2  501    0 -0.15356708202E+02 -0.14564798349E+02  0.89207438733E+02  0.91683853339E+02  0.00000000000E+00 0.  1.
          1    1    1    2  502    0  0.15356708202E+02  0.14564798349E+02 -0.14566665427E+04  0.14568202973E+04  0.00000000000E+00 0.  1.
</event>
<event>
 4    1  0.3837333E+003  0.2175601E+02  0.7546771E-02  0.1508739E+00
          2   -1    0    0  502    0  0.00000000000E+00  0.00000000000E+00  0.28048162695E+02  0.28048162695E+02  0.00000000000E+00 0. -1.
          1   -1    0    0  501    0 -0.00000000000E+00 -0.00000000000E+00 -0.21944971270E+02  0.21944971270E+02  0.00000000000E+00 0. -1.
          2    1    1    2  501    0  0.45519232373E+01  0.21274490435E+02  0.15065896482E+02  0.26463279941E+02  0.00000000000E+00 0. -1.
          1    1    1    2  502    0 -0.45519232373E+01 -0.21274490435E+02 -0.89627050565E+01  0.23529854024E+02  0.00000000000E+00 0. -1.
</event>
<event>
 4    1  0.3837333E+003  0.4273019E+02  0.7546771E-02  0.1333189E+00
          2   -1    0    0  502    0  0.00000000000E+00  0.00000000000E+00  0.19906359558E+04  0.19906359558E+04  0.00000000000E+00 0. -1.
          1   -1    0    0  501    0 -0.00000000000E+00 -0.00000000000E+00 -0.11230588344E+01  0.11230588344E+01  0.00000000000E+00 0.  1.
          2    1    1    2  501    0 -0.62554346024E+01 -0.42269835358E+02  0.14210997887E+04  0.14217420577E+04  0.00000000000E+00 0. -1.
          1    1    1    2  502    0  0.62554346024E+01  0.42269835358E+02  0.56841310834E+03  0.57001695692E+03  0.00000000000E+00 0.  1.
</event>
<event>
 4    1  0.3837333E+003  0.5000540E+02  0.7546771E-02  0.1298149E+00
          2   -1    0    0  502    0  0.00000000000E+00  0.00000000000E+00  0.25090307804E+03  0.25090307804E+03  0.00000000000E+00 0. -1.
          1   -1    0    0  501    0 -0.00000000000E+00 -0.00000000000E+00 -0.14110680641E+04  0.14110680641E+04  0.00000000000E+00 0. -1.
          2    1    1    2  501    0  0.46875400351E+02  0.17413690896E+02  0.24796331597E+03  0.25295522500E+03  0.00000000000E+00 0. -1.
          1    1    1    2  502    0 -0.46875400351E+02 -0.17413690896E+02 -0.14081283020E+04  0.14090159171E+04  0.00000000000E+00 0. -1.
</event>
<event>
 4    1  0.3837333E+003  0.2255262E+02  0.7546771E-02  0.1498194E+00
          2   -1    0    0  502    0  0.00000000000E+00  0.00000000000E+00  0.11720725220E+04  0.11720725220E+04  0.00000000000E+00 0.  1.
          1   -1    0    0  501    0 -0.00000000000E+00 -0.00000000000E+00 -0.59548587117E+02  0.59548587117E+02  0.00000000000E+00 0. -1.
          2    1    1    2  501    0  0.21643929512E+02 -0.63372589985E+01  0.11698246144E+04  0.11700419860E+04  0.00000000000E+00 0.  1.
          1    1    1    2  502    0 -0.21643929512E+02  0.63372589985E+01 -0.57300679496E+02  0.61579123142E+02  0.00000000000E+00 0. -1.
</event>
<event>
 4    1  0.4086829E+003  0.3056741E+02  0.7546771E-02  0.1414728E+00
          2   -1    0    0  502    0  0.00000000000E+00  0.00000000000E+00  0.10016136485E+04  0.10016136485E+04  0.00000000000E+00 0. -1.
          1   -1    0    0  501    0 -0.00000000000E+00 -0.00000000000E+00 -0.37758648020E+03  0.37758648020E+03  0.00000000000E+00 0.  1.
          2    1    1    2  501    0 -0.18046267287E+00  0.30566881461E+02  0.10007612621E+04  0.10012279813E+04  0.00000000000E+00 0. -1.
          1    1    1    2  502    0  0.18046267287E+00 -0.30566881461E+02 -0.37673409378E+03  0.37797214742E+03  0.00000000000E+00 0.  1.
</event>
<event>
 4    1  0.3837333E+003  0.2586559E+02  0.7546771E-02  0.1459349E+00
          2   -1    0    0  502    0  0.00000000000E+00  0.00000000000E+00  0.30528431122E+03  0.30528431122E+03  0.00000000000E+00 0.  1.
          1   -1    0    0  501    0 -0.00000000000E+00 -0.00000000000E+00 -0.28657866315E+02  0.28657866315E+02  0.00000000000E+00 0.  1.
          2    1    1    2  501    0 -0.46591651857E+01  0.25442505941E+02  0.29877313697E+03  0.29989067392E+03  0.00000000000E+00 0.  1.
          1    1    1    2  502    0  0.46591651857E+01 -0.25442505941E+02 -0.22146692067E+02  0.34051503613E+02  0.00000000000E+00 0.  1.
</event>
<event>
 4    1  0.3837333E+003  0.2572753E+02  0.7546771E-02  0.1460827E+00
          2   -1    0    0  502    0  0.00000000000E+00  0.00000000000E+00  0.44481482804E+03  0.44481482804E+03  0.00000000000E+00 0. -1.
          1   -1    0    0  501    0 -0.00000000000E+00 -0.00000000000E+00 -0.42239272778E+02  0.42239272778E+02  0.00000000000E+00 0.  1.
          2    1    1    2  501    0  0.17509221897E+02  0.18850272573E+02  0.44048675997E+03  0.44123745460E+03  0.00000000000E+00 0. -1.
          1    1    1    2  502    0 -0.17509221897E+02 -0.18850272573E+02 -0.37911204716E+02  0.45816646217E+02  0.00000000000E+00 0.  1.
</event>
<event>
 4    1  0.3837333E+003  0.2453646E+02  0.7546771E-02  0.1474056E+00
          2   -1    0    0  502    0  0.00000000000E+00  0.00000000000E+00  0.55452074731E+00  0.55452074731E+00  0.00000000000E+00 0.  1.
          1   -1    0    0  501    0 -0.00000000000E+00 -0.00000000000E+00 -0.10859910362E+04  0.10859910362E+04  0.00000000000E+00 0.  1.
          2    1    1    2  501    0  0.32569754017E+01  0.24319316119E+02 -0.55177974894E+03  0.55232502059E+03  0.00000000000E+00 0.  1.
          1    1    1    2  502    0 -0.32569754017E+01 -0.24319316119E+02 -0.53365676655E+03  0.53422053640E+03  0.00000000000E+00 0.  1.
</event>
<event>
 4    1  0.3837333E+003  0.2285387E+02  0.7546771E-02  0.1494341E+00
          2   -1    0    0  502    0  0.00000000000E+00  0.00000000000E+00  0.34497753760E+00  0.34497753760E+00  0.00000000000E+00 0. -1.
          1   -1    0    0  501    0 -0.00000000000E+00 -0.00000000000E+00 -0.20039888799E+04  0.20039888799E+04  0.00000000000E+00 0. -1.
          2    1    1    2  501    0  0.12784224263E+02  0.18943683893E+02 -0.50627939675E+03  0.50679495570E+03  0.00000000000E+00 0. -1.
          1    1    1    2  502    0 -0.12784224263E+02 -0.18943683893E+02 -0.14973645056E+04  0.14975389017E+04  0.00000000000E+00 0. -1.
</event>
<event>
 4    1  0.3837333E+003  0.2005918E+02  0.7546771E-02  0.1533133E+00
          2   -1    0    0  502    0  0.00000000000E+00  0.00000000000E+00  0.39435219981E+03  0.39435219981E+03  0.00000000000E+00 0.  1.
          1   -1    0    0  501    0 -0.00000000000E+00 -0.00000000000E+00 -0.10215383490E+01  0.10215383490E+01  0.00000000000E+00 0.  1.
          2    1    1    2  501    0  0.12299280103E+02  0.15846088421E+02  0.20345415195E+03  0.20444060936E+03  0.00000000000E+00 0.  1.
          1    1    1    2  502    0 -0.12299280103E+02 -0.15846088421E+02  0.18987650951E+03  0.19093312880E+03  0.00000000000E+00 0.  1.
</event>
<event>
 4    1  0.3837333E+003  0.2200096E+02  0.7546771E-02  0.1505439E+00
          2   -1    0    0  502    0  0.00000000000E+00  0.00000000000E+00  0.27960143420E+03  0.27960143420E+03  0.00000000000E+00 0.  1.
          1   -1    0    0  501    0 -0.00000000000E+00 -0.00000000000E+00 -0.14029932140E+03  0.14029932140E+03  0.00000000000E+00 0. -1.
          2    1    1    2  501    0  0.11522340674E+02 -0.18742408943E+02  0.27830209989E+03  0.27917037993E+03  0.00000000000E+00 0.  1.
          1    1    1    2  502    0 -0.11522340674E+02  0.18742408943E+02 -0.13899998708E+03  0.14073037567E+03  0.00000000000E+00 0. -1.
</event>
<event>
 4    1  0.3837333E+003  0.2143913E+02  0.7546771E-02  0.1513087E+00
          2   -1    0    0  502    0  0.00000000000E+00  0.00000000000E+00  0.81360315163E+03  0.81360315163E+03  0.00000000000E+00 0.  1.
          1   -1    0    0  501    0 -0.00000000000E+00 -0.00000000000E+00 -0.17477248543E+01  0.17477248543E+01  0.00000000000E+00 0.  1.
          2    1    1    2  501    0  0.10718330763E+02  0.18567544329E+02  0.74130298628E+03  0.74161294068E+03  0.00000000000E+00 0.  1.
          1    1    1    2  502    0 -0.10718330763E+02 -0.18567544329E+02  0.70552440499E+02  0.73737935807E+02  0.00000000000E+00 0.  1.
</event>
<event>
 4    1  0.3837333E+003  0.2718919E+02  0.7546771E-02  0.1445717E+00
          2   -1    0    0  502    0  0.00000000000E+00  0.00000000000E+00  0.91331891308E+01  0.91331891308E+01  0.00000000000E+00 0. -1.
          1   -1    0    0  501    0 -0.00000000000E+00 -0.00000000000E+00 -0.22494378544E+03  0.22494378544E+03  0.00000000000E+00 0. -1.
          2    1    1    2  501    0  0.26059893972E+02  0.77546129269E+01 -0.14261997757E+02  0.30702714465E+02  0.00000000000E+00 0. -1.
          1    1    1    2  502    0 -0.26059893972E+02 -0.77546129269E+01 -0.20154859855E+03  0.20337426010E+03  0.00000000000E+00 0. -1.
</event>
<event>
 4    1  0.3837333E+003  0.2387637E+02  0.7546771E-02  0.1481777E+00
          2   -1    0    0  502    0  0.00000000000E+00  0.00000000000E+00  0.93591774619E+03  0.93591774619E+03  0.00000000000E+00 0.  1.
          1   -1    0    0  501    0 -0.00000000000E+00 -0.00000000000E+00 -0.22094174606E+01  0.22094174606E+01  0.00000000000E+00 0. -1.
          2    1    1    2  501    0 -0.17925917422E+02  0.15771575798E+02  0.86605727982E+03  0.86638634168E+03  0.00000000000E+00 0.  1.
          1    1    1    2  502    0  0.17925917422E+02 -0.15771575798E+02  0.67651048903E+02  0.71740821966E+02  0.00000000000E+00 0. -1.
</event>
<event>
 4    1  0.3837333E+003  0.2852376E+02  0.7546771E-02  0.1432874E+00
          2   -1    0    0  502    0  0.00000000000E+00  0.00000000000E+00  0.45251544816E+02  0.45251544816E+02  0.00000000000E+00 0.  1.
          1   -1    0    0  501    0 -0.00000000000E+00 -0.00000000000E+00 -0.33552036286E+02  0.33552036286E+02  0.00000000000E+00 0.  1.
          2    1    1    2  501    0 -0.21287387599E+02  0.18985572824E+02  0.32692982580E+02  0.43387048254E+02  0.00000000000E+00 0.  1.
          1    1    1    2  502    0  0.21287387599E+02 -0.18985572824E+02 -0.20993474050E+02  0.35416532848E+02  0.00000000000E+00 0.  1.
</event>
<event>
 4    1  0.3837333E+003  0.2275559E+02  0.7546771E-02  0.1495590E+00
          2   -1    0    0  502    0  0.00000000000E+00  0.00000000000E+00  0.14754908026E+03  0.14754908026E+03  0.00000000000E+00 0. -1.
          1   -1    0    0  501    0 -0.00000000000E+00 -0.00000000000E+00 -0.62579463636E+02  0.62579463636E+02  0.00000000000E+00 0.  1.
          2    1    1    2  501    0 -0.22609100866E+02  0.25778438321E+01  0.14456057667E+03  0.14634061996E+03  0.00000000000E+00 0. -1.
          1    1    1    2  502    0  0.22609100866E+02 -0.25778438321E+01 -0.59590960050E+02  0.63787923939E+02  0.00000000000E+00 0.  1.
</event>
<event>
 4    1  0.3837333E+003  0.2605433E+02  0.7546771E-02  0.1457346E+00
          2   -1    0    0  502    0  0.00000000000E+00  0.00000000000E+00  0.77868578121E+03  0.77868578121E+03  0.00000000000E+00 0. -1.
          1   -1    0    0  501    0 -0.00000000000E+00 -0.00000000000E+00 -0.49681630580E+01  0.49681630580E+01  0.00000000000E+00 0. -1.
          2    1    1    2  501    0  0.22043188850E+02 -0.13889772492E+02  0.74265204828E+03  0.74310893735E+03  0.00000000000E+00 0. -1.
          1    1    1    2  502    0 -0.22043188850E+02  0.13889772492E+02  0.31065569872E+02  0.40545006918E+02  0.00000000000E+00 0. -1.
</event>
<event>
 4    1  0.3837333E+003  0.4721363E+02  0.7546771E-02  0.1310727E+00
          2   -1    0    0  502    0  0.00000000000E+00  0.00000000000E+00  0.27887836892E+03  0.27887836892E+03  0.00000000000E+00 0.  1.
          1   -1    0    0  501    0 -0.00000000000E+00 -0.00000000000E+00 -0.12968753059E+03  0.12968753059E+03  0.00000000000E+00 0.  1.
          2    1    1    2  501    0 -0.32521609326E+02  0.34226769392E+02  0.27248284856E+03  0.27654299770E+03  0.00000000000E+00 0.  1.
          1    1    1    2  502    0  0.32521609326E+02 -0.34226769392E+02 -0.12329201023E+03  0.13202290181E+03  0.00000000000E+00 0.  1.
</event>
<event>
 4    1  0.3837333E+003  0.3128264E+02  0.7546771E-02  0.1408768E+00
          2   -1    0    0  502    0  0.00000000000E+00  0.00000000000E+00  0.15479358830E+02  0.15479358830E+02  0.00000000000E+00 0. -1.
          1   -1    0    0  501    0 -0.00000000000E+00 -0.00000000000E+00 -0.60188139041E+03  0.60188139041E+03  0.00000000000E+00 0.  1.
          2    1    1    2  501    0 -0.67992994884E+01 -0.30534784742E+02 -0.11817369333E+01  0.31304952563E+02  0.00000000000E+00 0. -1.
          1    1    1    2  502    0  0.67992994884E+01  0.30534784742E+02 -0.58522029465E+03  0.58605579668E+03  0.00000000000E+00 0.  1.
</event>
<event>
 4    1  0.3837333E+003  0.2072990E+02  0.7546771E-02  0.1523156E+00
          2   -1    0    0  502    0  0.00000000000E+00  0.00000000000E+00  0.59816261530E+03  0.59816261530E+03  0.00000000000E+00 0. -1.
          1   -1    0    0  501    0 -0.00000000000E+00 -0.00000000000E+00 -0.62006550180E+02  0.62006550180E+02  0.00000000000E+00 0.  1.
          2    1    1    2  501    0  0.12893605382E+02  0.16232185080E+02  0.59624484579E+03  0.59660509973E+03  0.00000000000E+00 0. -1.
          1    1    1    2  502    0 -0.12893605382E+02 -0.16232185080E+02 -0.60088780670E+02  0.63564065750E+02  0.00000000000E+00 0.  1.
</event>
<event>
 4    1  0.3837333E+003  0.2868858E+02  0.7546771E-02  0.1431346E+00
          2   -1    0    0  502    0  0.00000000000E+00  0.00000000000E+00  0.34881095781E+03  0.34881095781E+03  0.00000000000E+00 0. -1.
          1   -1    0    0  501    0 -0.00000000000E+00 -0.00000000000E+00 -0.16370733726E+03  0.16370733726E+03  0.00000000000E+00 0. -1.
          2    1    1    2  501    0 -0.19012641637E+02 -0.21483813505E+02  0.34695749991E+03  0.34814155387E+03  0.00000000000E+00 0. -1.
          1    1    1    2  502    0  0.19012641637E+02  0.21483813505E+02 -0.16185387936E+03  0.16437674120E+03  0.00000000000E+00 0. -1.
</event>
<event>
 4    1  0.3837333E+003  0.3096670E+02  0.7546771E-02  0.1411378E+00
          2   -1    0    0  502    0  0.00000000000E+00  0.00000000000E+00  0.75967820935E+01  0.75967820935E+01  0.00000000000E+00 0. -1.
          1   -1    0    0  501    0 -0.00000000000E+00 -0.00000000000E+00 -0.14845492766E+03  0.14845492766E+03  0.00000000000E+00 0. -1.
          2    1    1    2  501    0  0.97170857125E+01 -0.29402615972E+02 -0.10061951039E+03  0.10527687995E+03  0.00000000000E+00 0. -1.
          1    1    1    2  502    0 -0.97170857125E+01  0.29402615972E+02 -0.40238635174E+02  0.50774829801E+02  0.00000000000E+00 0. -1.
</event>
<event>
 4    1  0.3837333E+003  0.2344168E+02  0.7546771E-02  0.1487025E+00
          2   -1    0    0  502    0  0.00000000000E+00  0.00000000000E+00  0.16070732656E+03  0.16070732656E+03  0.00000000000E+00 0. -1.
          1   -1    0    0  501    0 -0.00000000000E+00 -0.00000000000E+00 -0.23715417796E+02  0.23715417796E+02  0.00000000000E+00 0.  1.
          2    1    1    2  501    0  0.19091619898E+02 -0.13602287928E+02  0.15380109586E+03  0.15557727751E+03  0.00000000000E+00 0. -1.
          1    1    1    2  502    0 -0.19091619898E+02  0.13602287928E+02 -0.16809187096E+02  0.28845466855E+02  0.00000000000E+00 0.  1.
</event>
<event>
 4    1  0.3837333E+003  0.3031749E+02  0.7546771E-02  0.1416857E+00
          2   -1    0    0  502    0  0.00000000000E+00  0.00000000000E+00  0.49525551421E+03  0.49525551421E+03  0.00000000000E+00 0.  1.
          1   -1    0    0  501    0 -0.00000000000E+00 -0.00000000000E+00 -0.12036066794E+03  0.12036066794E+03  0.00000000000E+00 0.  1.
          2    1    1    2  501    0  0.23049443901E+02  0.19694497891E+02  0.49287315911E+03  0.49380471958E+03  0.00000000000E+00 0.  1.
          1    1    1    2  502    0 -0.23049443901E+02 -0.19694497891E+02 -0.11797831284E+03  0.12181146256E+03  0.00000000000E+00 0.  1.
</event>
<event>
 4    1  0.3837333E+003  0.2292574E+02  0.7546771E-02  0.1493433E+00
          2   -1    0    0  502    0  0.00000000000E+00  0.00000000000E+00  0.26988780295E+03  0.26988780295E+03  0.00000000000E+00 0. -1.
          1   -1    0    0  501    0 -0.00000000000E+00 -0.00000000000E+00 -0.79334585542E+01  0.79334585542E+01  0.00000000000E+00 0. -1.
          2    1    1    2  501    0  0.22921529165E+02  0.43918733677E+00  0.25163996066E+03  0.25268213072E+03  0.00000000000E+00 0. -1.
          1    1    1    2  502    0 -0.22921529165E+02 -0.43918733677E+00  0.10314383740E+02  0.25139130787E+02  0.00000000000E+00 0. -1.
</event>
<event>
 4    1  0.3837333E+003  0.3598084E+02  0.7546771E-02  0.1373796E+00
          2   -1    0    0  502    0  0.00000000000E+00  0.00000000000E+00  0.66782619276E+03  0.66782619276E+03  0.00000000000E+00 0. -1.
          1   -1    0    0  501    0 -0.00000000000E+00 -0.00000000000E+00 -0.24840468698E+03  0.24840468698E+03  0.00000000000E+00 0. -1.
          2    1    1    2  501    0  0.34280951055E+02 -0.10928737307E+02  0.66603511634E+03  0.66700629465E+03  0.00000000000E+00 0. -1.
          1    1    1    2  502    0 -0.34280951055E+02  0.10928737307E+02 -0.24661361056E+03  0.24922458510E+03  0.00000000000E+00 0. -1.
</event>
<event>
 4    1  0.3837333E+003  0.3671596E+02  0.7546771E-02  0.1368885E+00
          2   -1    0    0  502    0  0.00000000000E+00  0.00000000000E+00  0.17664923653E+03  0.17664923653E+03  0.00000000000E+00 0. -1.
          1   -1    0    0  501    0 -0.00000000000E+00 -0.00000000000E+00 -0.21543136259E+02  0.21543136259E+02  0.00000000000E+00 0.  1.
          2    1    1    2  501    0  0.31783305494E+02  0.18381603366E+02  0.15718637260E+03  0.16141752563E+03  0.00000000000E+00 0. -1.
          1    1    1    2  502    0 -0.31783305494E+02 -0.18381603366E+02 -0.20802723286E+01  0.36774847157E+02  0.00000000000E+00 0.  1.
</event>
<event>
 4    1  0.3837333E+003  0.2065538E+02  0.7546771E-02  0.1524243E+00
          2   -1    0    0  502    0  0.00000000000E+00  0.00000000000E+00  0.13752883276E+03  0.13752883276E+03  0.00000000000E+00 0. -1.
          1   -1    0    0  501    0 -0.00000000000E+00 -0.00000000000E+00 -0.69184710475E+01  0.69184710475E+01  0.00000000000E+00 0.  1.
          2    1    1    2  501    0  0.20175361599E+02  0.44271132637E+01  0.11894569227E+03  0.12072581438E+03  0.00000000000E+00 0. -1.
          1    1    1    2  502    0 -0.20175361599E+02 -0.44271132637E+01  0.11664669439E+02  0.23721489427E+02  0.00000000000E+00 0.  1.
</event>
<event>
 4    1  0.3837333E+003  0.2014370E+02  0.7546771E-02  0.1531850E+00
          2   -1    0    0  502    0  0.00000000000E+00  0.00000000000E+00  0.99222692464E+03  0.99222692464E+03  0.00000000000E+00 0. -1.
          1   -1    0    0  501    0 -0.00000000000E+00 -0.00000000000E+00 -0.23456665086E+02  0.23456665086E+02  0.00000000000E+00 0. -1.
          2    1    1    2  501    0 -0.19127813204E+02  0.63162727076E+01  0.98778056152E+03  0.98798593424E+03  0.00000000000E+00 0. -1.
          1    1    1    2  502    0  0.19127813204E+02 -0.63162727076E+01 -0.19010301962E+02  0.27697655489E+02  0.00000000000E+00 0. -1.
</event>
<event>
 4    1  0.3837333E+003  0.2695903E+02  0.7546771E-02  0.1448020E+00
          2   -1    0    0  502    0  0.00000000000E+00  0.00000000000E+00  0.39540870235E+01  0.39540870235E+01  0.00000000000E+00 0.  1.
          1   -1    0    0  501    0 -0.00000000000E+00 -0.00000000000E+00 -0.11671920836E+04  0.11671920836E+04  0.00000000000E+00 0.  1.
          2    1    1    2  501    0 -0.16672870532E+02  0.21185005600E+02 -0.44127329008E+02  0.51710832902E+02  0.00000000000E+00 0.  1.
          1    1    1    2  502    0  0.16672870532E+02 -0.21185005600E+02 -0.11191106676E+04  0.11194353378E+04  0.00000000000E+00 0.  1.
</event>
<event>
 4    1  0.3837333E+003  0.2582925E+02  0.7546771E-02  0.1459737E+00
          2   -1    0    0  502    0  0.00000000000E+00  0.00000000000E+00  0.46505453652E+03  0.46505453652E+03  0.00000000000E+00 0. -1.
          1   -1    0    0  501    0 -0.00000000000E+00 -0.00000000000E+00 -0.71950463208E+01  0.71950463208E+01  0.00000000000E+00 0.  1.
          2    1    1    2  501    0 -0.22606034521E+02  0.12494684458E+02  0.44020773658E+03  0.44096485266E+03  0.00000000000E+00 0. -1.
          1    1    1    2  502    0  0.22606034521E+02 -0.12494684458E+02  0.17651753612E+02  0.31284730174E+02  0.00000000000E+00 0.  1.
</event>
<event>
 4    1  0.3837333E+003  0.2490239E+02  0.7546771E-02  0.1469898E+00
          2   -1    0    0  502    0  0.00000000000E+00  0.00000000000E+00  0.38534212032E+02  0.38534212032E+02  0.00000000000E+00 0. -1.
          1   -1    0    0  501    0 -0.00000000000E+00 -0.00000000000E+00 -0.90895463788E+02  0.90895463788E+02  0.00000000000E+00 0. -1.
          2    1    1    2  501    0 -0.23086066275E+02  0.93360939243E+01  0.32526505836E+02  0.40964651686E+02  0.00000000000E+00 0. -1.
          1    1    1    2  502    0  0.23086066275E+02 -0.93360939243E+01 -0.84887757593E+02  0.88465024133E+02  0.00000000000E+00 0. -1.
</event>
<event>
 4    1  0.3837333E+003  0.4756064E+02  0.7546771E-02  0.1309110E+00
          2   -1    0    0  502    0  0.00000000000E+00  0.00000000000E+00  0.22286091078E+01  0.22286091078E+01  0.00000000000E+00 0. -1.
          1   -1    0    0  501    0 -0.00000000000E+00 -0.00000000000E+00 -0.15260422121E+04  0.15260422121E+04  0.00000000000E+00 0. -1.
          2    1    1    2  501    0 -0.43656543239E+02 -0.18871163050E+02 -0.31970556296E+03  0.32322385672E+03  0.00000000000E+00 0. -1.
          1    1    1    2  502    0  0.43656543239E+02  0.18871163050E+02 -0.12041080400E+04  0.12050469645E+04  0.00000000000E+00 0. -1.
</event>
<event>
 4    1  0.3837333E+003  0.3034903E+02  0.7546771E-02  0.1416587E+00
          2   -1    0    0  502    0  0.00000000000E+00  0.00000000000E+00  0.27932002135E+03  0.27932002135E+03  0.00000000000E+00 0. -1.
          1   -1    0    0  501    0 -0.00000000000E+00 -0.00000000000E+00 -0.21185329520E+03  0.21185329520E+03  0.00000000000E+00 0.  1.
          2    1    1    2  501    0 -0.28539086996E+02 -0.10323963835E+02  0.27740123302E+03  0.27905645987E+03  0.00000000000E+00 0. -1.
          1    1    1    2  502    0  0.28539086996E+02  0.10323963835E+02 -0.20993450687E+03  0.21211685668E+03  0.00000000000E+00 0.  1.
</event>
<event>
 4    1  0.3837333E+003  0.3118755E+02  0.7546771E-02  0.1409550E+00
          2   -1    0    0  502    0  0.00000000000E+00  0.00000000000E+00  0.10342639919E+02  0.10342639919E+02  0.00000000000E+00 0. -1.
          1   -1    0    0  501    0 -0.00000000000E+00 -0.00000000000E+00 -0.13107822180E+03  0.13107822180E+03  0.00000000000E+00 0. -1.
          2    1    1    2  501    0  0.28372217817E+02 -0.12949141696E+02 -0.22782324357E+02  0.38622497558E+02  0.00000000000E+00 0. -1.
          1    1    1    2  502    0 -0.28372217817E+02  0.12949141696E+02 -0.97953257523E+02  0.10279836416E+03  0.00000000000E+00 0. -1.
</event>
<event>
 4    1  0.3837333E+003  0.3848830E+02  0.7546771E-02  0.1357579E+00
          2   -1    0    0  502    0  0.00000000000E+00  0.00000000000E+00  0.28018765654E+04  0.28018765654E+04  0.00000000000E+00 0.  1.
          1   -1    0    0  501    0 -0.00000000000E+00 -0.00000000000E+00 -0.45264707029E+01  0.45264707029E+01  0.00000000000E+00 0.  1.
          2    1    1    2  501    0  0.34028099232E+02 -0.17984371184E+02  0.27173847073E+04  0.27176572626E+04  0.00000000000E+00 0.  1.
          1    1    1    2  502    0 -0.34028099232E+02  0.17984371184E+02  0.79965387381E+02  0.88745773551E+02  0.00000000000E+00 0.  1.
</event>
<event>
 4    1  0.3837333E+003  0.2852244E+02  0.7546771E-02  0.1432886E+00
          2   -1    0    0  502    0  0.00000000000E+00  0.00000000000E+00  0.48364367460E+02  0.48364367460E+02  0.00000000000E+00 0.  1.
          1   -1    0    0  501    0 -0.00000000000E+00 -0.00000000000E+00 -0.17283431202E+02  0.17283431202E+02  0.00000000000E+00 0.  1.
          2    1    1    2  501    0 -0.20058231491E+02  0.20277991145E+02  0.20910428393E+02  0.35366305871E+02  0.00000000000E+00 0.  1.
          1    1    1    2  502    0  0.20058231491E+02 -0.20277991145E+02  0.10170507865E+02  0.30281492791E+02  0.00000000000E+00 0.  1.
</event>
<event>
 4    1  0.3837333E+003  0.2051074E+02  0.7546771E-02  0.1526366E+00
          2   -1    0    0  502    0  0.00000000000E+00  0.00000000000E+00  0.12577923099E+03  0.12577923099E+03  0.00000000000E+00 0.  1.
          1   -1    0    0  501    0 -0.00000000000E+00 -0.00000000000E+00 -0.52594676054E+01  0.52594676054E+01  0.00000000000E+00 0.  1.
          2    1    1    2  501    0 -0.19402418855E+02  0.66510625479E+01  0.99792874872E+02  0.10187889068E+03  0.00000000000E+00 0.  1.
          1    1    1    2  502    0  0.19402418855E+02 -0.66510625479E+01  0.20726888514E+02  0.29159807920E+02  0.00000000000E+00 0.  1.
</event>
<event>
 4    1  0.3837333E+003  0.9581575E+02  0.7546771E-02  0.1171263E+00
          2   -1    0    0  502    0  0.00000000000E+00  0.00000000000E+00  0.13992969562E+03  0.13992969562E+03  0.00000000000E+00 0. -1.
          1   -1    0    0  501    0 -0.00000000000E+00 -0.00000000000E+00 -0.95844932480E+02  0.95844932480E+02  0.00000000000E+00 0. -1.
          2    1    1    2  501    0 -0.80747354117E+02  0.51580248123E+02  0.88255444114E+02  0.13026772666E+03  0.00000000000E+00 0. -1.
          1    1    1    2  502    0  0.80747354117E+02 -0.51580248123E+02 -0.44170680976E+02  0.10550690144E+03  0.00000000000E+00 0. -1.
</event>
<event>
 4    1  0.3837333E+003  0.3083472E+02  0.7546771E-02  0.1412479E+00
          2   -1    0    0  502    0  0.00000000000E+00  0.00000000000E+00  0.15590281613E+04  0.15590281613E+04  0.00000000000E+00 0.  1.
          1   -1    0    0  501    0 -0.00000000000E+00 -0.00000000000E+00 -0.57741188385E+01  0.57741188385E+01  0.00000000000E+00 0.  1.
          2    1    1    2  501    0 -0.19950043569E+02  0.23511180383E+02  0.15165574049E+04  0.15168708390E+04  0.00000000000E+00 0.  1.
          1    1    1    2  502    0  0.19950043569E+02 -0.23511180383E+02  0.36696637553E+02  0.47931441133E+02  0.00000000000E+00 0.  1.
</event>
<event>
 4    1  0.3837333E+003  0.2886889E+02  0.7546771E-02  0.1429687E+00
          2   -1    0    0  502    0  0.00000000000E+00  0.00000000000E+00  0.22529185198E+03  0.22529185198E+03  0.00000000000E+00 0. -1.
          1   -1    0    0  501    0 -0.00000000000E+00 -0.00000000000E+00 -0.18832234492E+03  0.18832234492E+03  0.00000000000E+00 0.  1.
          2    1    1    2  501    0 -0.13841597052E+02  0.25334227636E+02  0.22325059847E+03  0.22510940144E+03  0.00000000000E+00 0. -1.
          1    1    1    2  502    0  0.13841597052E+02 -0.25334227636E+02 -0.18628109141E+03  0.18850479547E+03  0.00000000000E+00 0.  1.
</event>
<event>
 4    1  0.3837333E+003  0.2856538E+02  0.7546771E-02  0.1432487E+00
          2   -1    0    0  502    0  0.00000000000E+00  0.00000000000E+00  0.37465291200E+02  0.37465291200E+02  0.00000000000E+00 0. -1.
          1   -1    0    0  501    0 -0.00000000000E+00 -0.00000000000E+00 -0.34536349484E+03  0.34536349484E+03  0.00000000000E+00 0. -1.
          2    1    1    2  501    0 -0.28031107599E+02  0.54989083139E+01  0.31331430521E+02  0.42398579273E+02  0.00000000000E+00 0. -1.
          1    1    1    2  502    0  0.28031107599E+02 -0.54989083139E+01 -0.33922963416E+03  0.34043020677E+03  0.00000000000E+00 0. -1.
</event>
<event>
 4    1  0.3837333E+003  0.7752798E+02  0.7546771E-02  0.1209706E+00
          2   -1    0    0  502    0  0.00000000000E+00  0.00000000000E+00  0.73855788213E+03  0.73855788213E+03  0.00000000000E+00 0. -1.
          1   -1    0    0  501    0 -0.00000000000E+00 -0.00000000000E+00 -0.42178958454E+02  0.42178958454E+02  0.00000000000E+00 0.  1.
          2    1    1    2  501    0  0.11703449130E+02  0.76639524361E+02  0.69888148279E+03  0.70316848223E+03  0.00000000000E+00 0. -1.
          1    1    1    2  502    0 -0.11703449130E+02 -0.76639524361E+02 -0.25025591123E+01  0.77568358355E+02  0.00000000000E+00 0.  1.
</event>
<event>
 4    1  0.3837333E+003  0.2283930E+02  0.7546771E-02  0.1494526E+00
          2   -1    0    0  502    0  0.00000000000E+00  0.00000000000E+00  0.14618277086E+04  0.14618277086E+04  0.00000000000E+00 0. -1.
          1   -1    0    0  501    0 -0.00000000000E+00 -0.00000000000E+00 -0.15862500635E+03  0.15862500635E+03  0.00000000000E+00 0.  1.
          2    1    1    2  501    0 -0.18270478574E+02  0.13704861922E+02  0.14609158688E+04  0.14610943875E+04  0.00000000000E+00 0. -1.
          1    1    1    2  502    0  0.18270478574E+02 -0.13704861922E+02 -0.15771316652E+03  0.15935832743E+03  0.00000000000E+00 0.  1.
</event>
<event>
 4    1  0.3837333E+003  0.3639337E+02  0.7546771E-02  0.1371023E+00
          2   -1    0    0  502    0  0.00000000000E+00  0.00000000000E+00  0.16683072074E+02  0.16683072074E+02  0.00000000000E+00 0. -1.
          1   -1    0    0  501    0 -0.00000000000E+00 -0.00000000000E+00 -0.37113985628E+03  0.37113985628E+03  0.00000000000E+00 0. -1.
          2    1    1    2  501    0 -0.31211420650E+02  0.18716969002E+02 -0.53031561626E+01  0.36777726587E+02  0.00000000000E+00 0. -1.
          1    1    1    2  502    0  0.31211420650E+02 -0.18716969002E+02 -0.34915362804E+03  0.35104520176E+03  0.00000000000E+00 0. -1.
</event>
<event>
 4    1  0.3837333E+003  0.2121733E+02  0.7546771E-02  0.1516184E+00
          2   -1    0    0  502    0  0.00000000000E+00  0.00000000000E+00  0.58185626700E+01  0.58185626700E+01  0.00000000000E+00 0.  1.
          1   -1    0    0  501    0 -0.00000000000E+00 -0.00000000000E+00 -0.79038955095E+02  0.79038955095E+02  0.00000000000E+00 0.  1.
          2    1    1    2  501    0  0.20810096764E+02  0.41370375406E+01 -0.30442567283E+02  0.37106941530E+02  0.00000000000E+00 0.  1.
          1    1    1    2  502    0 -0.20810096764E+02 -0.41370375406E+01 -0.42777825142E+02  0.47750576235E+02  0.00000000000E+00 0.  1.
</event>
<event>
 4    1  0.3837333E+003  0.2125639E+02  0.7546771E-02  0.1515636E+00
          2   -1    0    0  502    0  0.00000000000E+00  0.00000000000E+00  0.84834978116E+02  0.84834978116E+02  0.00000000000E+00 0. -1.
          1   -1    0    0  501    0 -0.00000000000E+00 -0.00000000000E+00 -0.54528060203E+03  0.54528060203E+03  0.00000000000E+00 0. -1.
          2    1    1    2  501    0 -0.11009904072E+02 -0.18182855563E+02  0.83292536445E+02  0.85962089618E+02  0.00000000000E+00 0. -1.
          1    1    1    2  502    0  0.11009904072E+02  0.18182855563E+02 -0.54373816036E+03  0.54415349053E+03  0.00000000000E+00 0. -1.
</event>
<event>
 4    1  0.3837333E+003  0.3290795E+02  0.7546771E-02  0.1395899E+00
          2   -1    0    0  502    0  0.00000000000E+00  0.00000000000E+00  0.13632319627E+03  0.13632319627E+03  0.00000000000E+00 0.  1.
          1   -1    0    0  501    0 -0.00000000000E+00 -0.00000000000E+00 -0.82771652988E+01  0.82771652988E+01  0.00000000000E+00 0. -1.
          2    1    1    2  501    0  0.18694197519E+02  0.27082466714E+02  0.78531318849E+02  0.85147525298E+02  0.00000000000E+00 0.  1.
          1    1    1    2  502    0 -0.18694197519E+02 -0.27082466714E+02  0.49514712126E+02  0.59452836275E+02  0.00000000000E+00 0. -1.
</event>
<event>
 4    1  0.3837333E+003  0.5209077E+02  0.7546771E-02  0.1289353E+00
          2   -1    0    0  502    0  0.00000000000E+00  0.00000000000E+00  0.63132275718E+01  0.63132275718E+01  0.00000000000E+00 0. -1.
          1   -1    0    0  501    0 -0.00000000000E+00 -0.00000000000E+00 -0.47137738863E+03  0.47137738863E+03  0.00000000000E+00 0. -1.
          2    1    1    2  501    0 -0.50229578884E+02  0.13799910829E+02 -0.16160011716E+03  0.16978823869E+03  0.00000000000E+00 0. -1.
          1    1    1    2  502    0  0.50229578884E+02 -0.13799910829E+02 -0.30346404390E+03  0.30790237751E+03  0.00000000000E+00 0. -1.
</event>
<event>
 4    1  0.3837333E+003  0.2640569E+02  0.7546771E-02  0.1453671E+00
          2   -1    0    0  502    0  0.00000000000E+00  0.00000000000E+00  0.12702195221E+03  0.12702195221E+03  0.00000000000E+00 0. -1.
          1   -1    0    0  501    0 -0.00000000000E+00 -0.00000000000E+00 -0.29367152767E+03  0.29367152767E+03  0.00000000000E+00 0. -1.
          2    1    1    2  501    0 -0.26379982004E+02 -0.11649085862E+01  0.12504678425E+03  0.12780437674E+03  0.00000000000E+00 0. -1.
          1    1    1    2  502    0  0.26379982004E+02  0.11649085862E+01 -0.29169635971E+03  0.29288910313E+03  0.00000000000E+00 0. -1.
</event>
<event>
 4    1  0.3837333E+003  0.3033064E+02  0.7546771E-02  0.1416744E+00
          2   -1    0    0  502    0  0.00000000000E+00  0.00000000000E+00  0.12489181938E+03  0.12489181938E+03  0.00000000000E+00 0.  1.
          1   -1    0    0  501    0 -0.00000000000E+00 -0.00000000000E+00 -0.10981536747E+02  0.10981536747E+02  0.00000000000E+00 0.  1.
          2    1    1    2  501    0 -0.12380964470E+02 -0.27688612321E+02  0.95936936416E+02  0.10061731115E+03  0.00000000000E+00 0.  1.
          1    1    1    2  502    0  0.12380964470E+02  0.27688612321E+02  0.17973346219E+02  0.35256044982E+02  0.00000000000E+00 0.  1.
</event>
<event>
 4    1  0.3837333E+003  0.2605703E+02  0.7546771E-02  0.1457317E+00
          2   -1    0    0  502    0  0.00000000000E+00  0.00000000000E+00  0.91340867212E+01  0.91340867212E+01  0.00000000000E+00 0. -1.
          1   -1    0    0  501    0 -0.00000000000E+00 -0.00000000000E+00 -0.78185655930E+02  0.78185655930E+02  0.00000000000E+00 0. -1.
          2    1    1    2  501    0 -0.26056690452E+02  0.13228351569E+00 -0.24834731887E+02  0.35996284866E+02  0.00000000000E+00 0. -1.
          1    1    1    2  502    0  0.26056690452E+02 -0.13228351569E+00 -0.44216837322E+02  0.51323457785E+02  0.00000000000E+00 0. -1.
</event>
<event>
 4    1  0.3837333E+003  0.3610192E+02  0.7546771E-02  0.1372978E+00
          2   -1    0    0  502    0  0.00000000000E+00  0.00000000000E+00  0.46145153592E+03  0.46145153592E+03  0.00000000000E+00 0.  1.
          1   -1    0    0  501    0 -0.00000000000E+00 -0.00000000000E+00 -0.16427289751E+02  0.16427289751E+02  0.00000000000E+00 0.  1.
          2    1    1    2  501    0  0.32759408074E+02  0.15171339381E+02  0.43994217532E+03  0.44142096232E+03  0.00000000000E+00 0.  1.
          1    1    1    2  502    0 -0.32759408074E+02 -0.15171339381E+02  0.50820708562E+01  0.36457863352E+02  0.00000000000E+00 0.  1.
</event>
<event>
 4    1  0.4795316E+003  0.2087698E+02  0.7546771E-02  0.1521029E+00
          2   -1    0    0  502    0  0.00000000000E+00  0.00000000000E+00  0.97572060102E+03  0.97572060102E+03  0.00000000000E+00 0.  1.
          1   -1    0    0  501    0 -0.00000000000E+00 -0.00000000000E+00 -0.97264804359E+03  0.97264804359E+03  0.00000000000E+00 0.  1.
          2    1    1    2  501    0 -0.23115647745E+01 -0.20748613451E+02  0.97549687568E+03  0.97572024821E+03  0.00000000000E+00 0.  1.
          1    1    1    2  502    0  0.23115647745E+01  0.20748613451E+02 -0.97242431825E+03  0.97264839640E+03  0.00000000000E+00 0.  1.
</event>
<event>
 4    1  0.3837333E+003  0.3277913E+02  0.7546771E-02  0.1396887E+00
          2   -1    0    0  502    0  0.00000000000E+00  0.00000000000E+00  0.50753778661E+02  0.50753778661E+02  0.00000000000E+00 0.  1.
          1   -1    0    0  501    0 -0.00000000000E+00 -0.00000000000E+00 -0.29727044706E+02  0.29727044706E+02  0.00000000000E+00 0. -1.
          2    1    1    2  501    0  0.29093193125E+02  0.15101574740E+02  0.32102811662E+02  0.45880954246E+02  0.00000000000E+00 0.  1.
          1    1    1    2  502    0 -0.29093193125E+02 -0.15101574740E+02 -0.11076077707E+02  0.34599869122E+02  0.00000000000E+00 0. -1.
</event>
<event>
 4    1  0.3837333E+003  0.2337505E+02  0.7546771E-02  0.1487842E+00
          2   -1    0    0  502    0  0.00000000000E+00  0.00000000000E+00  0.49635490255E+03  0.49635490255E+03  0.00000000000E+00 0.  1.
          1   -1    0    0  501    0 -0.00000000000E+00 -0.00000000000E+00 -0.11655862297E+01  0.11655862297E+01  0.00000000000E+00 0.  1.
          2    1    1    2  501    0 -0.23027142375E+02  0.40178418780E+01  0.18895150878E+03  0.19039187223E+03  0.00000000000E+00 0.  1.
          1    1    1    2  502    0  0.23027142375E+02 -0.40178418780E+01  0.30623780754E+03  0.30712861656E+03  0.00000000000E+00 0.  1.
</event>
<event>
 4    1  0.3837333E+003  0.3718657E+02  0.7546771E-02  0.1365811E+00
          2   -1    0    0  502    0  0.00000000000E+00  0.00000000000E+00  0.12429391984E+03  0.12429391984E+03  0.00000000000E+00 0.  1.
          1   -1    0    0  501    0 -0.00000000000E+00 -0.00000000000E+00 -0.27766790156E+02  0.27766790156E+02  0.00000000000E+00 0.  1.
          2    1    1    2  501    0 -0.13625566973E+02  0.34600358479E+02  0.10712308858E+03  0.11339399010E+03  0.00000000000E+00 0.  1.
          1    1    1    2  502    0  0.13625566973E+02 -0.34600358479E+02 -0.10595958906E+02  0.38666719894E+02  0.00000000000E+00 0.  1.
</event>
<event>
 4    1  0.3837333E+003  0.2907289E+02  0.7546771E-02  0.1427828E+00
          2   -1    0    0  502    0  0.00000000000E+00  0.00000000000E+00  0.50947501974E+01  0.50947501974E+01  0.00000000000E+00 0.  1.
          1   -1    0    0  501    0 -0.00000000000E+00 -0.00000000000E+00 -0.28213279392E+03  0.28213279392E+03  0.00000000000E+00 0.  1.
          2    1    1    2  501    0  0.24530352516E+02 -0.15604317888E+02 -0.46340751314E+02  0.54705558800E+02  0.00000000000E+00 0.  1.
          1    1    1    2  502    0 -0.24530352516E+02  0.15604317888E+02 -0.23069729241E+03  0.23252198532E+03  0.00000000000E+00 0.  1.
</event>
<event>
 4    1  0.3837333E+003  0.2008084E+02  0.7546771E-02  0.1532803E+00
          2   -1    0    0  502    0  0.00000000000E+00  0.00000000000E+00  0.30291551190E+03  0.30291551190E+03  0.00000000000E+00 0.  1.
          1   -1    0    0  501    0 -0.00000000000E+00 -0.00000000000E+00 -0.15921290892E+01  0.15921290892E+01  0.00000000000E+00 0.  1.
          2    1    1    2  501    0 -0.38705098506E+01 -0.19704288288E+02  0.89024350049E+02  0.91261025225E+02  0.00000000000E+00 0.  1.
          1    1    1    2  502    0  0.38705098506E+01  0.19704288288E+02  0.21229903276E+03  0.21324661576E+03  0.00000000000E+00 0.  1.
</event>
<event>
 4    1  0.3837333E+003  0.2563661E+02  0.7546771E-02  0.1461806E+00
          2   -1    0    0  502    0  0.00000000000E+00  0.00000000000E+00  0.59092641969E+02  0.59092641969E+02  0.00000000000E+00 0. -1.
          1   -1    0    0  501    0 -0.00000000000E+00 -0.00000000000E+00 -0.32497271182E+03  0.32497271182E+03  0.00000000000E+00 0. -1.
          2    1    1    2  501    0  0.23603405557E+02  0.10005758268E+02  0.55777892720E+02  0.61387370596E+02  0.00000000000E+00 0. -1.
          1    1    1    2  502    0 -0.23603405557E+02 -0.10005758268E+02 -0.32165796257E+03  0.32267798319E+03  0.00000000000E+00 0. -1.
</event>
<event>
 4    1  0.3837333E+003  0.2035706E+02  0.7546771E-02  0.1528646E+00
          2   -1    0    0  502    0  0.00000000000E+00  0.00000000000E+00  0.37371688617E+00  0.37371688617E+00  0.00000000000E+00 0.  1.
          1   -1    0    0  501    0 -0.00000000000E+00 -0.00000000000E+00 -0.12332860158E+04  0.12332860158E+04  0.00000000000E+00 0.  1.
          2    1    1    2  501    0 -0.50254185150E+01  0.19727002014E+02 -0.81236029674E+03  0.81261532176E+03  0.00000000000E+00 0.  1.
          1    1    1    2  502    0  0.50254185150E+01 -0.19727002014E+02 -0.42055200220E+03  0.42104441096E+03  0.00000000000E+00 0.  1.
</event>
<event>
 4    1  0.3837333E+003  0.2920890E+02  0.7546771E-02  0.1426598E+00
          2   -1    0    0  502    0  0.00000000000E+00  0.00000000000E+00  0.15164618040E+04  0.15164618040E+04  0.00000000000E+00 0.  1.
          1   -1    0    0  501    0 -0.00000000000E+00 -0.00000000000E+00 -0.76920531889E+02  0.76920531889E+02  0.00000000000E+00 0. -1.
          2    1    1    2  501    0  0.28708900762E+02 -0.53813419369E+01  0.15135429462E+04  0.15138247619E+04  0.00000000000E+00 0.  1.
          1    1    1    2  502    0 -0.28708900762E+02  0.53813419369E+01 -0.74001674034E+02  0.79557574020E+02  0.00000000000E+00 0. -1.
</event>
<event>
 4    1  0.3837333E+003  0.2312667E+02  0.7546771E-02  0.1490914E+00
          2   -1    0    0  502    0  0.00000000000E+00  0.00000000000E+00  0.17507062387E+03  0.17507062387E+03  0.00000000000E+00 0. -1.
          1   -1    0    0  501    0 -0.00000000000E+00 -0.00000000000E+00 -0.30710125306E+01  0.30710125306E+01  0.00000000000E+00 0. -1.
          2    1    1    2  501    0 -0.22607035357E+02 -0.48748788282E+01  0.79570113548E+02  0.82862811087E+02  0.00000000000E+00 0. -1.
          1    1    1    2  502    0  0.22607035357E+02  0.48748788282E+01  0.92429497796E+02  0.95278825318E+02  0.00000000000E+00 0. -1.
</event>
<event>
 4    1  0.3837333E+003  0.2043012E+02  0.7546771E-02  0.1527559E+00
          2   -1    0    0  502    0  0.00000000000E+00  0.00000000000E+00  0.42152640231E+03  0.42152640231E+03  0.00000000000E+00 0.  1.
          1   -1    0    0  501    0 -0.00000000000E+00 -0.00000000000E+00 -0.13254992373E+02  0.13254992373E+02  0.00000000000E+00 0.  1.
          2    1    1    2  501    0 -0.17390002046E+02  0.10722763044E+02  0.41324895464E+03  0.41375365658E+03  0.00000000000E+00 0.  1.
          1    1    1    2  502    0  0.17390002046E+02 -0.10722763044E+02 -0.49775447070E+01  0.21027738104E+02  0.00000000000E+00 0.  1.
</event>
<event>
 4    1  0.3837333E+003  0.2491562E+02  0.7546771E-02  0.1469750E+00
          2   -1    0    0  502    0  0.00000000000E+00  0.00000000000E+00  0.82496235546E+02  0.82496235546E+02  0.00000000000E+00 0.  1.
          1   -1    0    0  501    0 -0.00000000000E+00 -0.00000000000E+00 -0.13998000649E+02  0.13998000649E+02  0.00000000000E+00 0.  1.
          2    1    1    2  501    0  0.19630840069E+02 -0.15343349564E+02  0.67057856289E+02  0.71537013830E+02  0.00000000000E+00 0.  1.
          1    1    1    2  502    0 -0.19630840069E+02  0.15343349564E+02  0.14403786075E+01  0.24957222365E+02  0.00000000000E+00 0.  1.
</event>
<event>
 4    1  0.3837333E+003  0.2256451E+02  0.7546771E-02  0.1498040E+00
          2   -1    0    0  502    0  0.00000000000E+00  0.00000000000E+00  0.28017258246E+03  0.28017258246E+03  0.00000000000E+00 0.  1.
          1   -1    0    0  501    0 -0.00000000000E+00 -0.00000000000E+00 -0.61780001764E+02  0.61780001764E+02  0.00000000000E+00 0.  1.
          2    1    1    2  501    0 -0.20628749730E+02 -0.91439399141E+01  0.27763912506E+03  0.27855455608E+03  0.00000000000E+00 0.  1.
          1    1    1    2  502    0  0.20628749730E+02  0.91439399141E+01 -0.59246544365E+02  0.63398028138E+02  0.00000000000E+00 0.  1.
</event>
<event>
 4    1  0.3837333E+003  0.4659657E+02  0.7546771E-02  0.1313644E+00
          2   -1    0    0  502    0  0.00000000000E+00  0.00000000000E+00  0.12400157152E+04  0.12400157152E+04  0.00000000000E+00 0. -1.
          1   -1    0    0  501    0 -0.00000000000E+00 -0.00000000000E+00 -0.22449283475E+01  0.22449283475E+01  0.00000000000E+00 0. -1.
          2    1    1    2  501    0  0.43031495253E+02 -0.17875415495E+02  0.91024087826E+03  0.91143277126E+03  0.00000000000E+00 0. -1.
          1    1    1    2  502    0 -0.43031495253E+02  0.17875415495E+02  0.32752990862E+03  0.33082787232E+03  0.00000000000E+00 0. -1.
</event>
<event>
 4    1  0.3837333E+003  0.2158092E+02  0.7546771E-02  0.1511130E+00
          2   -1    0    0  502    0  0.00000000000E+00  0.00000000000E+00  0.69126812314E+02  0.69126812314E+02  0.00000000000E+00 0. -1.
          1   -1    0    0  501    0 -0.00000000000E+00 -0.00000000000E+00 -0.84664009702E+01  0.84664009702E+01  0.00000000000E+00 0.  1.
          2    1    1    2  501    0 -0.60511387373E+01  0.20715202962E+02  0.47862560707E+02  0.52502958310E+02  0.00000000000E+00 0. -1.
          1    1    1    2  502    0  0.60511387373E+01 -0.20715202962E+02  0.12797850636E+02  0.25090254974E+02  0.00000000000E+00 0.  1.
</event>
<event>
 4    1  0.3837333E+003  0.2759397E+02  0.7546771E-02  0.1441731E+00
          2   -1    0    0  502    0  0.00000000000E+00  0.00000000000E+00  0.34760038898E+03  0.34760038898E+03  0.00000000000E+00 0.  1.
          1   -1    0    0  501    0 -0.00000000000E+00 -0.00000000000E+00 -0.13442554535E+02  0.13442554535E+02  0.00000000000E+00 0.  1.
          2    1    1    2  501    0  0.45145035178E+00  0.27590275563E+02  0.33223835906E+03  0.33338229459E+03  0.00000000000E+00 0.  1.
          1    1    1    2  502    0 -0.45145035178E+00 -0.27590275563E+02  0.19194753798E+01  0.27660648923E+02  0.00000000000E+00 0.  1.
</event>
<event>
 4    1  0.3837333E+003  0.2260935E+02  0.7546771E-02  0.1497463E+00
          2   -1    0    0  502    0  0.00000000000E+00  0.00000000000E+00  0.17769009606E+01  0.17769009606E+01  0.00000000000E+00 0.  1.
          1   -1    0    0  501    0 -0.00000000000E+00 -0.00000000000E+00 -0.32472414216E+03  0.32472414216E+03  0.00000000000E+00 0.  1.
          2    1    1    2  501    0  0.11361952504E+02  0.19547095475E+02 -0.10633654366E+03  0.10871358436E+03  0.00000000000E+00 0.  1.
          1    1    1    2  502    0 -0.11361952504E+02 -0.19547095475E+02 -0.21661069754E+03  0.21778745876E+03  0.00000000000E+00 0.  1.
</event>
<event>
 4    1  0.3837333E+003  0.5066459E+02  0.7546771E-02  0.1295316E+00
          2   -1    0    0  502    0  0.00000000000E+00  0.00000000000E+00  0.81863313523E+01  0.81863313523E+01  0.00000000000E+00 0. -1.
          1   -1    0    0  501    0 -0.00000000000E+00 -0.00000000000E+00 -0.11824866793E+04  0.11824866793E+04  0.00000000000E+00 0. -1.
          2    1    1    2  501    0 -0.15797786200E+02  0.48138656117E+02 -0.76814264643E+02  0.92018104274E+02  0.00000000000E+00 0. -1.
          1    1    1    2  502    0  0.15797786200E+02 -0.48138656117E+02 -0.10974860833E+04  0.10986549063E+04  0.00000000000E+00 0. -1.
</event>
<event>
 4    1  0.3837333E+003  0.2388982E+02  0.7546771E-02  0.1481617E+00
          2   -1    0    0  502    0  0.00000000000E+00  0.00000000000E+00  0.68761454239E+03  0.68761454239E+03  0.00000000000E+00 0. -1.
          1   -1    0    0  501    0 -0.00000000000E+00 -0.00000000000E+00 -0.10822444080E+02  0.10822444080E+02  0.00000000000E+00 0.  1.
          2    1    1    2  501    0 -0.21099903634E+02  0.11203463458E+02  0.67395614746E+03  0.67437942749E+03  0.00000000000E+00 0. -1.
          1    1    1    2  502    0  0.21099903634E+02 -0.11203463458E+02  0.28359508518E+01  0.24057558979E+02  0.00000000000E+00 0.  1.
</event>
<event>
 4    1  0.3837333E+003  0.2692706E+02  0.7546771E-02  0.1448342E+00
          2   -1    0    0  502    0  0.00000000000E+00  0.00000000000E+00  0.30448482752E+02  0.30448482752E+02  0.00000000000E+00 0.  1.
          1   -1    0    0  501    0 -0.00000000000E+00 -0.00000000000E+00 -0.74635908117E+02  0.74635908117E+02  0.00000000000E+00 0.  1.
          2    1    1    2  501    0 -0.26316804852E+02  0.57002105183E+01  0.21263813609E+02  0.34310587094E+02  0.00000000000E+00 0.  1.
          1    1    1    2  502    0  0.26316804852E+02 -0.57002105183E+01 -0.65451238974E+02  0.70773803775E+02  0.00000000000E+00 0.  1.
</event>
<event>
 4    1  0.3837333E+003  0.2060031E+02  0.7546771E-02  0.1525049E+00
          2   -1    0    0  502    0  0.00000000000E+00  0.00000000000E+00  0.23515494806E+03  0.23515494806E+03  0.00000000000E+00 0. -1.
          1   -1    0    0  501    0 -0.00000000000E+00 -0.00000000000E+00 -0.68098279838E+03  0.68098279838E+03  0.00000000000E+00 0.  1.
          2    1    1    2  501    0 -0.11157437118E+01 -0.20570070750E+02  0.23454758836E+03  0.23545051264E+03  0.00000000000E+00 0. -1.
          1    1    1    2  502    0  0.11157437118E+01  0.20570070750E+02 -0.68037543868E+03  0.68068723380E+03  0.00000000000E+00 0.  1.
</event>
<event>
 4    1  0.3837333E+003  0.2590152E+02  0.7546771E-02  0.1458966E+00
          2   -1    0    0  502    0  0.00000000000E+00  0.00000000000E+00  0.28698247638E+03  0.28698247638E+03  0.00000000000E+00 0. -1.
          1   -1    0    0  501    0 -0.00000000000E+00 -0.00000000000E+00 -0.67519946508E+03  0.67519946508E+03  0.00000000000E+00 0. -1.
          2    1    1    2  501    0 -0.25176165195E+02  0.60868448058E+01  0.28614891651E+03  0.28731879750E+03  0.00000000000E+00 0. -1.
          1    1    1    2  502    0  0.25176165195E+02 -0.60868448058E+01 -0.67436590521E+03  0.67486314396E+03  0.00000000000E+00 0. -1.
</event>
<event>
 4    1  0.3837333E+003  0.4789698E+02  0.7546771E-02  0.1307557E+00
          2   -1    0    0  502    0  0.00000000000E+00  0.00000000000E+00  0.66340730585E+02  0.66340730585E+02  0.00000000000E+00 0. -1.
          1   -1    0    0  501    0 -0.00000000000E+00 -0.00000000000E+00 -0.11259557370E+03  0.11259557370E+03  0.00000000000E+00 0.  1.
          2    1    1    2  501    0 -0.47472938698E+02 -0.63593204671E+01  0.51345091883E+02  0.70217087137E+02  0.00000000000E+00 0. -1.
          1    1    1    2  502    0  0.47472938698E+02  0.63593204671E+01 -0.97599934997E+02  0.10871921715E+03  0.00000000000E+00 0.  1.
</event>
<event>
 4    1  0.3837333E+003  0.2234937E+02  0.7546771E-02  0.1500834E+00
          2   -1    0    0  502    0  0.00000000000E+00  0.00000000000E+00  0.15386370801E+03  0.15386370801E+03  0.00000000000E+00 0. -1.
          1   -1    0    0  501    0 -0.00000000000E+00 -0.00000000000E+00 -0.76202436326E+01  0.76202436326E+01  0.00000000000E+00 0. -1.
          2    1    1    2  501    0 -0.22325043152E+02  0.10425009200E+01  0.13429327081E+03  0.13614028407E+03  0.00000000000E+00 0. -1.
          1    1    1    2  502    0  0.22325043152E+02 -0.10425009200E+01  0.11950193560E+02  0.25343667573E+02  0.00000000000E+00 0. -1.
</event>
<event>
 4    1  0.3837333E+003  0.2130254E+02  0.7546771E-02  0.1514989E+00
          2   -1    0    0  502    0  0.00000000000E+00  0.00000000000E+00  0.57458798128E+03  0.57458798128E+03  0.00000000000E+00 0.  1.
          1   -1    0    0  501    0 -0.00000000000E+00 -0.00000000000E+00 -0.80332530343E+00  0.80332530343E+00  0.00000000000E+00 0.  1.
          2    1    1    2  501    0  0.12202785116E+02 -0.17461108264E+02  0.32424977493E+03  0.32494878798E+03  0.00000000000E+00 0.  1.
          1    1    1    2  502    0 -0.12202785116E+02  0.17461108264E+02  0.24953488104E+03  0.25044251860E+03  0.00000000000E+00 0.  1.
</event>
<event>
 4    1  0.3837333E+003  0.6002454E+02  0.7546771E-02  0.1259749E+00
          2   -1    0    0  502    0  0.00000000000E+00  0.00000000000E+00  0.15347220312E+04  0.15347220312E+04  0.00000000000E+00 0.  1.
          1   -1    0    0  501    0 -0.00000000000E+00 -0.00000000000E+00 -0.11698343982E+03  0.11698343982E+03  0.00000000000E+00 0. -1.
          2    1    1    2  501    0  0.33314178591E+02 -0.49931063124E+02  0.15263934383E+04  0.15275731976E+04  0.00000000000E+00 0.  1.
          1    1    1    2  502    0 -0.33314178591E+02  0.49931063124E+02 -0.10865484689E+03  0.12413227345E+03  0.00000000000E+00 0. -1.
</event>
<event>
 4    1  0.3837333E+003  0.2058059E+02  0.7546771E-02  0.1525338E+00
          2   -1    0    0  502    0  0.00000000000E+00  0.00000000000E+00  0.70445996172E+02  0.70445996172E+02  0.00000000000E+00 0.  1.
          1   -1    0    0  501    0 -0.00000000000E+00 -0.00000000000E+00 -0.30618760093E+02  0.30618760093E+02  0.00000000000E+00 0. -1.
          2    1    1    2  501    0 -0.20399862875E+02  0.27214583300E+01  0.65213619677E+02  0.68384040040E+02  0.00000000000E+00 0.  1.
          1    1    1    2  502    0  0.20399862875E+02 -0.27214583300E+01 -0.25386383598E+02  0.32680716225E+02  0.00000000000E+00 0. -1.
</event>
<event>
 4    1  0.3837333E+003  0.2164280E+02  0.7546771E-02  0.1510282E+00
          2   -1    0    0  502    0  0.00000000000E+00  0.00000000000E+00  0.77118262515E+01  0.77118262515E+01  0.00000000000E+00 0. -1.
          1   -1    0    0  501    0 -0.00000000000E+00 -0.00000000000E+00 -0.45203357711E+03  0.45203357711E+03  0.00000000000E+00 0.  1.
          2    1    1    2  501    0  0.25877018155E+01 -0.21487549740E+02 -0.82889419275E+01  0.23175796702E+02  0.00000000000E+00 0. -1.
          1    1    1    2  502    0 -0.25877018155E+01  0.21487549740E+02 -0.43603280893E+03  0.43656960666E+03  0.00000000000E+00 0.  1.
</event>
<event>
 4    1  0.3837333E+003  0.2849638E+02  0.7546771E-02  0.1433129E+00
          2   -1    0    0  502    0  0.00000000000E+00  0.00000000000E+00  0.43994806920E+02  0.43994806920E+02  0.00000000000E+00 0. -1.
          1   -1    0    0  501    0 -0.00000000000E+00 -0.00000000000E+00 -0.12970495671E+04  0.12970495671E+04  0.00000000000E+00 0.  1.
          2    1    1    2  501    0 -0.15932376845E+02  0.23626320988E+02  0.39206765172E+02  0.48468692066E+02  0.00000000000E+00 0. -1.
          1    1    1    2  502    0  0.15932376845E+02 -0.23626320988E+02 -0.12922615254E+04  0.12925756820E+04  0.00000000000E+00 0.  1.
</event>
<event>
 4    1  0.3837333E+003  0.2504341E+02  0.7546771E-02  0.1468318E+00
          2   -1    0    0  502    0  0.00000000000E+00  0.00000000000E+00  0.36464012262E+03  0.36464012262E+03  0.00000000000E+00 0. -1.
          1   -1    0    0  501    0 -0.00000000000E+00 -0.00000000000E+00 -0.24672134794E+01  0.24672134794E+01  0.00000000000E+00 0. -1.
          2    1    1    2  501    0  0.10054754708E+02 -0.22936309324E+02  0.28210216729E+03  0.28321159081E+03  0.00000000000E+00 0. -1.
          1    1    1    2  502    0 -0.10054754708E+02  0.22936309324E+02  0.80070741847E+02  0.83895745289E+02  0.00000000000E+00 0. -1.
</event>
<event>
 4    1  0.3837333E+003  0.2262888E+02  0.7546771E-02  0.1497212E+00
          2   -1    0    0  502    0  0.00000000000E+00  0.00000000000E+00  0.68001097350E+02  0.68001097350E+02  0.00000000000E+00 0. -1.
          1   -1    0    0  501    0 -0.00000000000E+00 -0.00000000000E+00 -0.15927995514E+02  0.15927995514E+02  0.00000000000E+00 0.  1.
          2    1    1    2  501    0 -0.12327168931E+02 -0.18976484988E+02  0.56507291992E+02  0.60869862203E+02  0.00000000000E+00 0. -1.
          1    1    1    2  502    0  0.12327168931E+02  0.18976484988E+02 -0.44341901560E+01  0.23059230661E+02  0.00000000000E+00 0.  1.
</event>
<event>
 4    1  0.3837333E+003  0.2078061E+02  0.7546771E-02  0.1522420E+00
          2   -1    0    0  502    0  0.00000000000E+00  0.00000000000E+00  0.22157921943E+03  0.22157921943E+03  0.00000000000E+00 0.  1.
          1   -1    0    0  501    0 -0.00000000000E+00 -0.00000000000E+00 -0.28270150624E+03  0.28270150624E+03  0.00000000000E+00 0. -1.
          2    1    1    2  501    0 -0.13633025526E+02  0.15683573349E+02  0.22070861205E+03  0.22168474302E+03  0.00000000000E+00 0.  1.
          1    1    1    2  502    0  0.13633025526E+02 -0.15683573349E+02 -0.28183089885E+03  0.28259598265E+03  0.00000000000E+00 0. -1.
</event>
<event>
 4    1  0.3837333E+003  0.2502926E+02  0.7546771E-02  0.1468476E+00
          2   -1    0    0  502    0  0.00000000000E+00  0.00000000000E+00  0.97089185093E+03  0.97089185093E+03  0.00000000000E+00 0.  1.
          1   -1    0    0  501    0 -0.00000000000E+00 -0.00000000000E+00 -0.46608256783E+02  0.46608256783E+02  0.00000000000E+00 0.  1.
          2    1    1    2  501    0  0.18481183553E+02 -0.16879271114E+02  0.96735800351E+03  0.96768175084E+03  0.00000000000E+00 0.  1.
          1    1    1    2  502    0 -0.18481183553E+02  0.16879271114E+02 -0.43074409371E+02  0.49818356873E+02  0.00000000000E+00 0.  1.
</event>
<event>
 4    1  0.3837333E+003  0.3251313E+02  0.7546771E-02  0.1398944E+00
          2   -1    0    0  502    0  0.00000000000E+00  0.00000000000E+00  0.37638544716E+03  0.37638544716E+03  0.00000000000E+00 0. -1.
          1   -1    0    0  501    0 -0.00000000000E+00 -0.00000000000E+00 -0.34447099656E+03  0.34447099656E+03  0.00000000000E+00 0.  1.
          2    1    1    2  501    0  0.26272624226E+02  0.19153397457E+02  0.37491310504E+03  0.37632026221E+03  0.00000000000E+00 0. -1.
          1    1    1    2  502    0 -0.26272624226E+02 -0.19153397457E+02 -0.34299865445E+03  0.34453618151E+03  0.00000000000E+00 0.  1.
</event>
<event>
 4    1  0.3837333E+003  0.4528787E+02  0.7546771E-02  0.1320006E+00
          2   -1    0    0  502    0  0.00000000000E+00  0.00000000000E+00  0.13822810665E+03  0.13822810665E+03  0.00000000000E+00 0. -1.
          1   -1    0    0  501    0 -0.00000000000E+00 -0.00000000000E+00 -0.56105987824E+02  0.56105987824E+02  0.00000000000E+00 0.  1.
          2    1    1    2  501    0  0.44489266653E+02 -0.84673459786E+01  0.12439510897E+03  0.13238252880E+03  0.00000000000E+00 0. -1.
          1    1    1    2  502    0 -0.44489266653E+02  0.84673459786E+01 -0.42272990138E+02  0.61951565682E+02  0.00000000000E+00 0.  1.
</event>
<event>
 4    1  0.3837333E+003  0.2062799E+02  0.7546771E-02  0.1524643E+00
          2   -1    0    0  502    0  0.00000000000E+00  0.00000000000E+00  0.45000214201E+03  0.45000214201E+03  0.00000000000E+00 0.  1.
          1   -1    0    0  501    0 -0.00000000000E+00 -0.00000000000E+00 -0.17913028515E+01  0.17913028515E+01  0.00000000000E+00 0. -1.
          2    1    1    2  501    0  0.34334255639E+01  0.20340247346E+02  0.37932226617E+03  0.37988273939E+03  0.00000000000E+00 0.  1.
          1    1    1    2  502    0 -0.34334255639E+01 -0.20340247346E+02  0.68888572988E+02  0.71910705473E+02  0.00000000000E+00 0. -1.
</event>
<event>
 4    1  0.3837333E+003  0.6011770E+02  0.7546771E-02  0.1259433E+00
          2   -1    0    0  502    0  0.00000000000E+00  0.00000000000E+00  0.96395369380E+03  0.96395369380E+03  0.00000000000E+00 0.  1.
          1   -1    0    0  501    0 -0.00000000000E+00 -0.00000000000E+00 -0.19122942843E+02  0.19122942843E+02  0.00000000000E+00 0.  1.
          2    1    1    2  501    0 -0.48753765861E+02  0.35173976228E+02  0.91314130698E+03  0.91511812614E+03  0.00000000000E+00 0.  1.
          1    1    1    2  502    0  0.48753765861E+02 -0.35173976228E+02  0.31689443978E+02  0.67958510497E+02  0.00000000000E+00 0.  1.
</event>
<event>
 4    1  0.3837333E+003  0.6707995E+02  0.7546771E-02  0.1237506E+00
          2   -1    0    0  502    0  0.00000000000E+00  0.00000000000E+00  0.55939536142E+03  0.55939536142E+03  0.00000000000E+00 0.  1.
          1   -1    0    0  501    0 -0.00000000000E+00 -0.00000000000E+00 -0.11715628820E+04  0.11715628820E+04  0.00000000000E+00 0. -1.
          2    1    1    2  501    0  0.21399249720E+02 -0.63575089290E+02  0.55641907309E+03  0.56044795010E+03  0.00000000000E+00 0.  1.
          1    1    1    2  502    0 -0.21399249720E+02  0.63575089290E+02 -0.11685865936E+04  0.11705102933E+04  0.00000000000E+00 0. -1.
</event>
<event>
 4    1  0.3837333E+003  0.2850424E+02  0.7546771E-02  0.1433056E+00
          2   -1    0    0  502    0  0.00000000000E+00  0.00000000000E+00  0.32373881208E+03  0.32373881208E+03  0.00000000000E+00 0. -1.
          1   -1    0    0  501    0 -0.00000000000E+00 -0.00000000000E+00 -0.27635275346E+01  0.27635275346E+01  0.00000000000E+00 0.  1.
          2    1    1    2  501    0  0.19319978989E+02 -0.20957816198E+02  0.20996223994E+03  0.21188825793E+03  0.00000000000E+00 0. -1.
          1    1    1    2  502    0 -0.19319978989E+02  0.20957816198E+02  0.11101304461E+03  0.11461408169E+03  0.00000000000E+00 0.  1.
</event>
<event>
 4    1  0.3837333E+003  0.2038667E+02  0.7546771E-02  0.1528205E+00
          2   -1    0    0  502    0  0.00000000000E+00  0.00000000000E+00  0.99067309168E+02  0.99067309168E+02  0.00000000000E+00 0.  1.
          1   -1    0    0  501    0 -0.00000000000E+00 -0.00000000000E+00 -0.45258168285E+03  0.45258168285E+03  0.00000000000E+00 0. -1.
          2    1    1    2  501    0 -0.17781270660E+01  0.20308973615E+02  0.97785929384E+02  0.99888458446E+02  0.00000000000E+00 0.  1.
          1    1    1    2  502    0  0.17781270660E+01 -0.20308973615E+02 -0.45130030307E+03  0.45176053358E+03  0.00000000000E+00 0. -1.
</event>
<event>
 4    1  0.3837333E+003  0.2168628E+02  0.7546771E-02  0.1509688E+00
          2   -1    0    0  502    0  0.00000000000E+00  0.00000000000E+00  0.10195218896E+01  0.10195218896E+01  0.00000000000E+00 0.  1.
          1   -1    0    0  501    0 -0.00000000000E+00 -0.00000000000E+00 -0.65143989837E+03  0.65143989837E+03  0.00000000000E+00 0. -1.
          2    1    1    2  501    0  0.19289986798E+00 -0.21685419457E+02 -0.14895777089E+03  0.15052811078E+03  0.00000000000E+00 0.  1.
          1    1    1    2  502    0 -0.19289986798E+00  0.21685419457E+02 -0.50146260559E+03  0.50193130948E+03  0.00000000000E+00 0. -1.
</event>
<event>
 4    1  0.3837333E+003  0.3644914E+02  0.7546771E-02  0.1370652E+00
          2   -1    0    0  502    0  0.00000000000E+00  0.00000000000E+00  0.15216480995E+04  0.15216480995E+04  0.00000000000E+00 0.  1.
          1   -1    0    0  501    0 -0.00000000000E+00 -0.00000000000E+00 -0.44408733040E+02  0.44408733040E+02  0.00000000000E+00 0. -1.
          2    1    1    2  501    0 -0.29591549947E+02 -0.21280985148E+02  0.15139125688E+04  0.15143512822E+04  0.00000000000E+00 0.  1.
          1    1    1    2  502    0  0.29591549947E+02  0.21280985148E+02 -0.36673202347E+02  0.51705550258E+02  0.00000000000E+00 0. -1.
</event>
<event>
 4    1  0.3837333E+003  0.3020352E+02  0.7546771E-02  0.1417836E+00
          2   -1    0    0  502    0  0.00000000000E+00  0.00000000000E+00  0.19115698833E+04  0.19115698833E+04  0.00000000000E+00 0.  1.
          1   -1    0    0  501    0 -0.00000000000E+00 -0.00000000000E+00 -0.48134067206E+00  0.48134067206E+00  0.00000000000E+00 0.  1.
          2    1    1    2  501    0  0.29272978325E+02 -0.74394306336E+01  0.10439271960E+04  0.10443640375E+04  0.00000000000E+00 0.  1.
          1    1    1    2  502    0 -0.29272978325E+02  0.74394306336E+01  0.86716134669E+03  0.86768718648E+03  0.00000000000E+00 0.  1.
</event>
<event>
 4    1  0.3837333E+003  0.2435500E+02  0.7546771E-02  0.1476150E+00
          2   -1    0    0  502    0  0.00000000000E+00  0.00000000000E+00  0.10660234194E+04  0.10660234194E+04  0.00000000000E+00 0. -1.
          1   -1    0    0  501    0 -0.00000000000E+00 -0.00000000000E+00 -0.38238042012E+01  0.38238042012E+01  0.00000000000E+00 0.  1.
          2    1    1    2  501    0 -0.39842856992E+01 -0.24026891704E+02  0.10255738151E+04  0.10258629618E+04  0.00000000000E+00 0. -1.
          1    1    1    2  502    0  0.39842856992E+01  0.24026891704E+02  0.36625800042E+02  0.43984261802E+02  0.00000000000E+00 0.  1.
</event>
<event>
 4    1  0.3837333E+003  0.2277352E+02  0.7546771E-02  0.1495362E+00
          2   -1    0    0  502    0  0.00000000000E+00  0.00000000000E+00  0.75760234849E+03  0.75760234849E+03  0.00000000000E+00 0.  1.
          1   -1    0    0  501    0 -0.00000000000E+00 -0.00000000000E+00 -0.18573066545E+02  0.18573066545E+02  0.00000000000E+00 0. -1.
          2    1    1    2  501    0 -0.32947951491E+00 -0.22771131765E+02  0.75038307621E+03  0.75072857549E+03  0.00000000000E+00 0.  1.
          1    1    1    2  502    0  0.32947951491E+00  0.22771131765E+02 -0.11353794264E+02  0.25446839544E+02  0.00000000000E+00 0. -1.
</event>
<event>
 4    1  0.3837333E+003  0.2067763E+02  0.7546771E-02  0.1523918E+00
          2   -1    0    0  502    0  0.00000000000E+00  0.00000000000E+00  0.81281302763E+03  0.81281302763E+03  0.00000000000E+00 0. -1.
          1   -1    0    0  501    0 -0.00000000000E+00 -0.00000000000E+00 -0.28293631851E+03  0.28293631851E+03  0.00000000000E+00 0. -1.
          2    1    1    2  501    0  0.17729305343E+02 -0.10641242245E+02  0.81230349111E+03  0.81256662864E+03  0.00000000000E+00 0. -1.
          1    1    1    2  502    0 -0.17729305343E+02  0.10641242245E+02 -0.28242678199E+03  0.28318271750E+03  0.00000000000E+00 0. -1.
</event>
<event>
 4    1  0.3837333E+003  0.2156602E+02  0.7546771E-02  0.1511335E+00
          2   -1    0    0  502    0  0.00000000000E+00  0.00000000000E+00  0.67899693419E+00  0.67899693419E+00  0.00000000000E+00 0. -1.
          1   -1    0    0  501    0 -0.00000000000E+00 -0.00000000000E+00 -0.10054689407E+04  0.10054689407E+04  0.00000000000E+00 0. -1.
          2    1    1    2  501    0  0.86110187441E+01  0.19772290925E+02 -0.21836758767E+03  0.21942993523E+03  0.00000000000E+00 0. -1.
          1    1    1    2  502    0 -0.86110187441E+01 -0.19772290925E+02 -0.78642235608E+03  0.78671800238E+03  0.00000000000E+00 0. -1.
</event>
<event>
 4    1  0.3837333E+003  0.2248179E+02  0.7546771E-02  0.1499110E+00
          2   -1    0    0  502    0  0.00000000000E+00  0.00000000000E+00  0.30966635160E+02  0.30966635160E+02  0.00000000000E+00 0. -1.
          1   -1    0    0  501    0 -0.00000000000E+00 -0.00000000000E+00 -0.41542582356E+03  0.41542582356E+03  0.00000000000E+00 0.  1.
          2    1    1    2  501    0 -0.12163006151E+02 -0.18907467312E+02  0.26538087732E+02  0.34780758175E+02  0.00000000000E+00 0. -1.
          1    1    1    2  502    0  0.12163006151E+02  0.18907467312E+02 -0.41099727613E+03  0.41161170054E+03  0.00000000000E+00 0.  1.
</event>
<event>
 4    1  0.3837333E+003  0.2463339E+02  0.7546771E-02  0.1472947E+00
          2   -1    0    0  502    0  0.00000000000E+00  0.00000000000E+00  0.41006905808E+03  0.41006905808E+03  0.00000000000E+00 0. -1.
          1   -1    0    0  501    0 -0.00000000000E+00 -0.00000000000E+00 -0.16264588412E+02  0.16264588412E+02  0.00000000000E+00 0. -1.
          2    1    1    2  501    0 -0.24576263122E+02 -0.16766914209E+01  0.40014084247E+03  0.40089836345E+03  0.00000000000E+00 0. -1.
          1    1    1    2  502    0  0.24576263122E+02  0.16766914209E+01 -0.63363728033E+01  0.25435283043E+02  0.00000000000E+00 0. -1.
</event>
<event>
 4    1  0.3837333E+003  0.2847315E+02  0.7546771E-02  0.1433346E+00
          2   -1    0    0  502    0  0.00000000000E+00  0.00000000000E+00  0.35628009179E+03  0.35628009179E+03  0.00000000000E+00 0. -1.
          1   -1    0    0  501    0 -0.00000000000E+00 -0.00000000000E+00 -0.36936891598E+01  0.36936891598E+01  0.00000000000E+00 0.  1.
          2    1    1    2  501    0  0.28427007614E+02  0.16203430099E+01  0.28781908316E+03  0.28922403929E+03  0.00000000000E+00 0. -1.
          1    1    1    2  502    0 -0.28427007614E+02 -0.16203430099E+01  0.64767319477E+02  0.70749741665E+02  0.00000000000E+00 0.  1.
</event>
<event>
 4    1  0.3837333E+003  0.4094775E+02  0.7546771E-02  0.1343020E+00
          2   -1    0    0  502    0  0.00000000000E+00  0.00000000000E+00  0.20468696982E+03  0.20468696982E+03  0.00000000000E+00 0.  1.
          1   -1    0    0  501    0 -0.00000000000E+00 -0.00000000000E+00 -0.59316590915E+02  0.59316590915E+02  0.00000000000E+00 0. -1.
          2    1    1    2  501    0  0.30707337780E+02  0.27088325068E+02  0.19523375518E+03  0.19948167111E+03  0.00000000000E+00 0.  1.
          1    1    1    2  502    0 -0.30707337780E+02 -0.27088325068E+02 -0.49863376268E+02  0.64521889629E+02  0.00000000000E+00 0. -1.
</event>
<event>
 4    1  0.3837333E+003  0.2127278E+02  0.7546771E-02  0.1515406E+00
          2   -1    0    0  502    0  0.00000000000E+00  0.00000000000E+00  0.38693580733E+03  0.38693580733E+03  0.00000000000E+00 0.  1.
          1   -1    0    0  501    0 -0.00000000000E+00 -0.00000000000E+00 -0.37345261773E+01  0.37345261773E+01  0.00000000000E+00 0.  1.
          2    1    1    2  501    0  0.14962720751E+02  0.15121119843E+02  0.35348557332E+03  0.35412509347E+03  0.00000000000E+00 0.  1.
          1    1    1    2  502    0 -0.14962720751E+02 -0.15121119843E+02  0.29715707831E+02  0.36545240038E+02  0.00000000000E+00 0.  1.
</event>
<event>
 4    1  0.3837333E+003  0.2739852E+02  0.7546771E-02  0.1443645E+00
          2   -1    0    0  502    0  0.00000000000E+00  0.00000000000E+00  0.33926256663E+03  0.33926256663E+03  0.00000000000E+00 0.  1.
          1   -1    0    0  501    0 -0.00000000000E+00 -0.00000000000E+00 -0.11477220573E+04  0.11477220573E+04  0.00000000000E+00 0.  1.
          2    1    1    2  501    0  0.27333553256E+02  0.18856229727E+01  0.33854553654E+03  0.33965240912E+03  0.00000000000E+00 0.  1.
          1    1    1    2  502    0 -0.27333553256E+02 -0.18856229727E+01 -0.11470050272E+04  0.11473322148E+04  0.00000000000E+00 0.  1.
</event>
<event>
 4    1  0.3837333E+003  0.2103851E+02  0.7546771E-02  0.1518716E+00
          2   -1    0    0  502    0  0.00000000000E+00  0.00000000000E+00  0.56029556463E+02  0.56029556463E+02  0.00000000000E+00 0. -1.
          1   -1    0    0  501    0 -0.00000000000E+00 -0.00000000000E+00 -0.20812597226E+03  0.20812597226E+03  0.00000000000E+00 0.  1.
          2    1    1    2  501    0 -0.17801359479E+02  0.11212955928E+02  0.53498702480E+02  0.57486780628E+02  0.00000000000E+00 0. -1.
          1    1    1    2  502    0  0.17801359479E+02 -0.11212955928E+02 -0.20559511828E+03  0.20666874810E+03  0.00000000000E+00 0.  1.
</event>
<event>
 4    1  0.3837333E+003  0.2518904E+02  0.7546771E-02  0.1466700E+00
          2   -1    0    0  502    0  0.00000000000E+00  0.00000000000E+00  0.18772119900E+02  0.18772119900E+02  0.00000000000E+00 0.  1.
          1   -1    0    0  501    0 -0.00000000000E+00 -0.00000000000E+00 -0.88091535772E+02  0.88091535772E+02  0.00000000000E+00 0.  1.
          2    1    1    2  501    0  0.19908847814E+02 -0.15431299260E+02 -0.76606738940E+02  0.80641674518E+02  0.00000000000E+00 0.  1.
          1    1    1    2  502    0 -0.19908847814E+02  0.15431299260E+02  0.72873230674E+01  0.26221981154E+02  0.00000000000E+00 0.  1.
</event>
<event>
 4    1  0.3837333E+003  0.3506799E+02  0.7546771E-02  0.1380086E+00
          2   -1    0    0  502    0  0.00000000000E+00  0.00000000000E+00  0.53291765526E+03  0.53291765526E+03  0.00000000000E+00 0. -1.
          1   -1    0    0  501    0 -0.00000000000E+00 -0.00000000000E+00 -0.27351026395E+01  0.27351026395E+01  0.00000000000E+00 0. -1.
          2    1    1    2  501    0 -0.34740856948E+02 -0.47787553675E+01  0.37097597537E+03  0.37262975988E+03  0.00000000000E+00 0. -1.
          1    1    1    2  502    0  0.34740856948E+02  0.47787553675E+01  0.15920657725E+03  0.16302299802E+03  0.00000000000E+00 0. -1.
</event>
<event>
 4    1  0.3837333E+003  0.2136886E+02  0.7546771E-02  0.1514063E+00
          2   -1    0    0  502    0  0.00000000000E+00  0.00000000000E+00  0.10850079766E+03  0.10850079766E+03  0.00000000000E+00 0.  1.
          1   -1    0    0  501    0 -0.00000000000E+00 -0.00000000000E+00 -0.42280699929E+01  0.42280699929E+01  0.00000000000E+00 0.  1.
          2    1    1    2  501    0 -0.18077509388E+02  0.11394368610E+02  0.55968901278E+02  0.59909480819E+02  0.00000000000E+00 0.  1.
          1    1    1    2  502    0  0.18077509388E+02 -0.11394368610E+02  0.48303826391E+02  0.52819386836E+02  0.00000000000E+00 0.  1.
</event>
<event>
 4    1  0.3837333E+003  0.2063415E+02  0.7546771E-02  0.1524553E+00
          2   -1    0    0  502    0  0.00000000000E+00  0.00000000000E+00  0.13706175603E+03  0.13706175603E+03  0.00000000000E+00 0. -1.
          1   -1    0    0  501    0 -0.00000000000E+00 -0.00000000000E+00 -0.33237936084E+01  0.33237936084E+01  0.00000000000E+00 0.  1.
          2    1    1    2  501    0  0.19132197150E+02  0.77283150596E+01  0.48917316424E+02  0.53091163743E+02  0.00000000000E+00 0. -1.
          1    1    1    2  502    0 -0.19132197150E+02 -0.77283150596E+01  0.84820645993E+02  0.87294385891E+02  0.00000000000E+00 0.  1.
</event>
<event>
 4    1  0.3837333E+003  0.2030780E+02  0.7546771E-02  0.1529381E+00
          2   -1    0    0  502    0  0.00000000000E+00  0.00000000000E+00  0.35279754385E+01  0.35279754385E+01  0.00000000000E+00 0. -1.
          1   -1    0    0  501    0 -0.00000000000E+00 -0.00000000000E+00 -0.33710600600E+03  0.33710600600E+03  0.00000000000E+00 0. -1.
          2    1    1    2  501    0  0.15200373335E+02 -0.13466832380E+02 -0.29133677395E+02  0.35513069178E+02  0.00000000000E+00 0. -1.
          1    1    1    2  502    0 -0.15200373335E+02  0.13466832380E+02 -0.30444435317E+03  0.30512091226E+03  0.00000000000E+00 0. -1.
</event>
<event>
 4    1  0.3837333E+003  0.2148081E+02  0.7546771E-02  0.1512510E+00
          2   -1    0    0  502    0  0.00000000000E+00  0.00000000000E+00  0.24106529774E+03  0.24106529774E+03  0.00000000000E+00 0.  1.
          1   -1    0    0  501    0 -0.00000000000E+00 -0.00000000000E+00 -0.51714646111E+01  0.51714646111E+01  0.00000000000E+00 0.  1.
          2    1    1    2  501    0  0.16429693109E+00 -0.21480179094E+02  0.21565910755E+03  0.21672626919E+03  0.00000000000E+00 0.  1.
          1    1    1    2  502    0 -0.16429693109E+00  0.21480179094E+02  0.20234725579E+02  0.29510493162E+02  0.00000000000E+00 0.  1.
</event>
<event>
 4    1  0.3837333E+003  0.2738800E+02  0.7546771E-02  0.1443749E+00
          2   -1    0    0  502    0  0.00000000000E+00  0.00000000000E+00  0.52745584561E+03  0.52745584561E+03  0.00000000000E+00 0. -1.
          1   -1    0    0  501    0 -0.00000000000E+00 -0.00000000000E+00 -0.18129355536E+02  0.18129355536E+02  0.00000000000E+00 0.  1.
          2    1    1    2  501    0  0.26987740804E+02  0.46652599657E+01  0.51653808038E+03  0.51726365742E+03  0.00000000000E+00 0. -1.
          1    1    1    2  502    0 -0.26987740804E+02 -0.46652599657E+01 -0.72115903068E+01  0.28321543726E+02  0.00000000000E+00 0.  1.
</event>
<event>
 4    1  0.3837333E+003  0.4428716E+02  0.7546771E-02  0.1325043E+00
          2   -1    0    0  502    0  0.00000000000E+00  0.00000000000E+00  0.57847409303E+02  0.57847409303E+02  0.00000000000E+00 0.  1.
          1   -1    0    0  501    0 -0.00000000000E+00 -0.00000000000E+00 -0.72706473657E+03  0.72706473657E+03  0.00000000000E+00 0. -1.
          2    1    1    2  501    0  0.75018133637E+01 -0.43647165310E+02  0.48587350522E+02  0.65742549951E+02  0.00000000000E+00 0.  1.
          1    1    1    2  502    0 -0.75018133637E+01  0.43647165310E+02 -0.71780467779E+03  0.71916959592E+03  0.00000000000E+00 0. -1.
</event>
<event>
 4    1  0.3837333E+003  0.3112393E+02  0.7546771E-02  0.1410074E+00
          2   -1    0    0  502    0  0.00000000000E+00  0.00000000000E+00  0.14654901630E+04  0.14654901630E+04  0.00000000000E+00 0. -1.
          1   -1    0    0  501    0 -0.00000000000E+00 -0.00000000000E+00 -0.70780158262E+01  0.70780158262E+01  0.00000000000E+00 0.  1.
          2    1    1    2  501    0  0.72362519429E+01  0.30271039744E+02  0.14302673366E+04  0.14306059392E+04  0.00000000000E+00 0. -1.
          1    1    1    2  502    0 -0.72362519429E+01 -0.30271039744E+02  0.28144810535E+02  0.41962239566E+02  0.00000000000E+00 0.  1.
</event>
<event>
 4    1  0.3837333E+003  0.3401587E+02  0.7546771E-02  0.1387617E+00
          2   -1    0    0  502    0  0.00000000000E+00  0.00000000000E+00  0.62737671207E+02  0.62737671207E+02  0.00000000000E+00 0.  1.
          1   -1    0    0  501    0 -0.00000000000E+00 -0.00000000000E+00 -0.21500943279E+02  0.21500943279E+02  0.00000000000E+00 0. -1.
          2    1    1    2  501    0 -0.36185507147E+01  0.33822859450E+02  0.36502264041E+02  0.49894839521E+02  0.00000000000E+00 0.  1.
          1    1    1    2  502    0  0.36185507147E+01 -0.33822859450E+02  0.47344638866E+01  0.34343774966E+02  0.00000000000E+00 0. -1.
</event>
<event>
 4    1  0.3837333E+003  0.2635681E+02  0.7546771E-02  0.1454178E+00
          2   -1    0    0  502    0  0.00000000000E+00  0.00000000000E+00  0.72790854555E+03  0.72790854555E+03  0.00000000000E+00 0.  1.
          1   -1    0    0  501    0 -0.00000000000E+00 -0.00000000000E+00 -0.53710645024E+01  0.53710645024E+01  0.00000000000E+00 0. -1.
          2    1    1    2  501    0 -0.19202399666E+02 -0.18054063351E+02  0.69374372080E+03  0.69424421604E+03  0.00000000000E+00 0.  1.
          1    1    1    2  502    0  0.19202399666E+02  0.18054063351E+02  0.28793760245E+02  0.39035394009E+02  0.00000000000E+00 0. -1.
</event>
<event>
 4    1  0.3837333E+003  0.3077080E+02  0.7546771E-02  0.1413014E+00
          2   -1    0    0  502    0  0.00000000000E+00  0.00000000000E+00  0.11024417768E+04  0.11024417768E+04  0.00000000000E+00 0. -1.
          1   -1    0    0  501    0 -0.00000000000E+00 -0.00000000000E+00 -0.12646746243E+01  0.12646746243E+01  0.00000000000E+00 0. -1.
          2    1    1    2  501    0 -0.30649838535E+02 -0.27257511937E+01  0.86319535714E+03  0.86374363495E+03  0.00000000000E+00 0. -1.
          1    1    1    2  502    0  0.30649838535E+02  0.27257511937E+01  0.23798174500E+03  0.23996281645E+03  0.00000000000E+00 0. -1.
</event>
<event>
 4    1  0.3837333E+003  0.3410122E+02  0.7546771E-02  0.1386994E+00
          2   -1    0    0  502    0  0.00000000000E+00  0.00000000000E+00  0.21491961137E+04  0.21491961137E+04  0.00000000000E+00 0.  1.
          1   -1    0    0  501    0 -0.00000000000E+00 -0.00000000000E+00 -0.27678941384E+01  0.27678941384E+01  0.00000000000E+00 0. -1.
          2    1    1    2  501    0  0.33404129084E+02  0.68598356049E+01  0.20383133543E+04  0.20385985930E+04  0.00000000000E+00 0.  1.
          1    1    1    2  502    0 -0.33404129084E+02 -0.68598356049E+01  0.10811486528E+03  0.11336541482E+03  0.00000000000E+00 0. -1.
</event>
<event>
 4    1  0.3837333E+003  0.2387172E+02  0.7546771E-02  0.1481833E+00
          2   -1    0    0  502    0  0.00000000000E+00  0.00000000000E+00  0.12495566379E+04  0.12495566379E+04  0.00000000000E+00 0. -1.
          1   -1    0    0  501    0 -0.00000000000E+00 -0.00000000000E+00 -0.84378184999E+00  0.84378184999E+00  0.00000000000E+00 0. -1.
          2    1    1    2  501    0 -0.23289453484E+02  0.52402535661E+01  0.10481656409E+04  0.10484374420E+04  0.00000000000E+00 0. -1.
          1    1    1    2  502    0  0.23289453484E+02 -0.52402535661E+01  0.20054721517E+03  0.20196297782E+03  0.00000000000E+00 0. -1.
</event>
<event>
 4    1  0.3837333E+003  0.2172708E+02  0.7546771E-02  0.1509132E+00
          2   -1    0    0  502    0  0.00000000000E+00  0.00000000000E+00  0.15412881224E+02  0.15412881224E+02  0.00000000000E+00 0.  1.
          1   -1    0    0  501    0 -0.00000000000E+00 -0.00000000000E+00 -0.68757604747E+02  0.68757604747E+02  0.00000000000E+00 0.  1.
          2    1    1    2  501    0  0.16427650473E+02  0.14219642708E+02  0.46677501196E+01  0.22222822278E+02  0.00000000000E+00 0.  1.
          1    1    1    2  502    0 -0.16427650473E+02 -0.14219642708E+02 -0.58012473643E+02  0.61947663693E+02  0.00000000000E+00 0.  1.
</event>
<event>
 4    1  0.3837333E+003  0.2230261E+02  0.7546771E-02  0.1501446E+00
          2   -1    0    0  502    0  0.00000000000E+00  0.00000000000E+00  0.66638961469E+03  0.66638961469E+03  0.00000000000E+00 0. -1.
          1   -1    0    0  501    0 -0.00000000000E+00 -0.00000000000E+00 -0.86548338586E+01  0.86548338586E+01  0.00000000000E+00 0. -1.
          2    1    1    2  501    0 -0.30517897270E+01 -0.22092826556E+02  0.65150701696E+03  0.65188864045E+03  0.00000000000E+00 0. -1.
          1    1    1    2  502    0  0.30517897270E+01  0.22092826556E+02  0.62277638749E+01  0.23155808097E+02  0.00000000000E+00 0. -1.
</event>
<event>
 4    1  0.3837333E+003  0.2045011E+02  0.7546771E-02  0.1527263E+00
          2   -1    0    0  502    0  0.00000000000E+00  0.00000000000E+00  0.13808974680E+04  0.13808974680E+04  0.00000000000E+00 0.  1.
          1   -1    0    0  501    0 -0.00000000000E+00 -0.00000000000E+00 -0.30488173354E+00  0.30488173354E+00  0.00000000000E+00 0.  1.
          2    1    1    2  501    0 -0.14226375077E+01 -0.20400566831E+02  0.74665001512E+03  0.74693001821E+03  0.00000000000E+00 0.  1.
          1    1    1    2  502    0  0.14226375077E+01  0.20400566831E+02  0.63394257118E+03  0.63427233155E+03  0.00000000000E+00 0.  1.
</event>
<event>
 4    1  0.3837333E+003  0.3081772E+02  0.7546771E-02  0.1412621E+00
          2   -1    0    0  502    0  0.00000000000E+00  0.00000000000E+00  0.43283869052E+02  0.43283869052E+02  0.00000000000E+00 0.  1.
          1   -1    0    0  501    0 -0.00000000000E+00 -0.00000000000E+00 -0.75552796696E+02  0.75552796696E+02  0.00000000000E+00 0.  1.
          2    1    1    2  501    0 -0.22650474482E+02  0.20897072739E+02  0.33917555363E+02  0.45827199403E+02  0.00000000000E+00 0.  1.
          1    1    1    2  502    0  0.22650474482E+02 -0.20897072739E+02 -0.66186483006E+02  0.73009466345E+02  0.00000000000E+00 0.  1.
</event>
<event>
 4    1  0.3837333E+003  0.4280641E+02  0.7546771E-02  0.1332781E+00
          2   -1    0    0  502    0  0.00000000000E+00  0.00000000000E+00  0.31107899350E+03  0.31107899350E+03  0.00000000000E+00 0.  1.
          1   -1    0    0  501    0 -0.00000000000E+00 -0.00000000000E+00 -0.22627856035E+02  0.22627856035E+02  0.00000000000E+00 0.  1.
          2    1    1    2  501    0 -0.25640697949E+02 -0.34277441646E+02  0.28772751252E+03  0.29089432764E+03  0.00000000000E+00 0.  1.
          1    1    1    2  502    0  0.25640697949E+02  0.34277441646E+02  0.72362494412E+00  0.42812521885E+02  0.00000000000E+00 0.  1.
</event>
<event>
 4    1  0.3837333E+003  0.5164537E+02  0.7546771E-02  0.1291192E+00
          2   -1    0    0  502    0  0.00000000000E+00  0.00000000000E+00  0.17983125156E+03  0.17983125156E+03  0.00000000000E+00 0.  1.
          1   -1    0    0  501    0 -0.00000000000E+00 -0.00000000000E+00 -0.25056958687E+02  0.25056958687E+02  0.00000000000E+00 0.  1.
          2    1    1    2  501    0  0.61239847357E+01 -0.51281004101E+02  0.14282891958E+03  0.15187937595E+03  0.00000000000E+00 0.  1.
          1    1    1    2  502    0 -0.61239847357E+01  0.51281004101E+02  0.11945373297E+02  0.53008834300E+02  0.00000000000E+00 0.  1.
</event>
<event>
 4    1  0.3837333E+003  0.2293154E+02  0.7546771E-02  0.1493360E+00
          2   -1    0    0  502    0  0.00000000000E+00  0.00000000000E+00  0.85005888908E+03  0.85005888908E+03  0.00000000000E+00 0. -1.
          1   -1    0    0  501    0 -0.00000000000E+00 -0.00000000000E+00 -0.95857364923E+01  0.95857364923E+01  0.00000000000E+00 0.  1.
          2    1    1    2  501    0 -0.21549505643E+02 -0.78405594067E+01  0.83595841883E+03  0.83627288224E+03  0.00000000000E+00 0. -1.
          1    1    1    2  502    0  0.21549505643E+02  0.78405594067E+01  0.45147337574E+01  0.23371743327E+02  0.00000000000E+00 0.  1.
</event>
<event>
 4    1  0.3837333E+003  0.2122434E+02  0.7546771E-02  0.1516086E+00
          2   -1    0    0  502    0  0.00000000000E+00  0.00000000000E+00  0.41138772328E+03  0.41138772328E+03  0.00000000000E+00 0. -1.
          1   -1    0    0  501    0 -0.00000000000E+00 -0.00000000000E+00 -0.23489284199E+02  0.23489284199E+02  0.00000000000E+00 0.  1.
          2    1    1    2  501    0 -0.20147050895E+02 -0.66759960542E+01  0.40625903900E+03  0.40681307667E+03  0.00000000000E+00 0. -1.
          1    1    1    2  502    0  0.20147050895E+02  0.66759960542E+01 -0.18360599917E+02  0.28063930808E+02  0.00000000000E+00 0.  1.
</event>
<event>
 4    1  0.3837333E+003  0.2277898E+02  0.7546771E-02  0.1495292E+00
          2   -1    0    0  502    0  0.00000000000E+00  0.00000000000E+00  0.27296251116E+01  0.27296251116E+01  0.00000000000E+00 0.  1.
          1   -1    0    0  501    0 -0.00000000000E+00 -0.00000000000E+00 -0.11438182448E+04  0.11438182448E+04  0.00000000000E+00 0.  1.
          2    1    1    2  501    0 -0.22298875484E+02 -0.46521246503E+01 -0.47070005414E+02  0.52292136324E+02  0.00000000000E+00 0.  1.
          1    1    1    2  502    0  0.22298875484E+02  0.46521246503E+01 -0.10940186143E+04  0.10942557336E+04  0.00000000000E+00 0.  1.
</event>
<event>
 4    1  0.3837333E+003  0.2278307E+02  0.7546771E-02  0.1495240E+00
          2   -1    0    0  502    0  0.00000000000E+00  0.00000000000E+00  0.38400088421E+03  0.38400088421E+03  0.00000000000E+00 0. -1.
          1   -1    0    0  501    0 -0.00000000000E+00 -0.00000000000E+00 -0.18654995821E+01  0.18654995821E+01  0.00000000000E+00 0.  1.
          2    1    1    2  501    0  0.20568469456E+02 -0.97982885703E+01  0.29231661153E+03  0.29320312033E+03  0.00000000000E+00 0. -1.
          1    1    1    2  502    0 -0.20568469456E+02  0.97982885703E+01  0.89818773092E+02  0.92663263457E+02  0.00000000000E+00 0.  1.
</event>
<event>
 4    1  0.3837333E+003  0.2330811E+02  0.7546771E-02  0.1488665E+00
          2   -1    0    0  502    0  0.00000000000E+00  0.00000000000E+00  0.11125353387E+03  0.11125353387E+03  0.00000000000E+00 0. -1.
          1   -1    0    0  501    0 -0.00000000000E+00 -0.00000000000E+00 -0.18181333632E+02  0.18181333632E+02  0.00000000000E+00 0. -1.
          2    1    1    2  501    0 -0.11180604422E+02  0.20451459107E+02  0.10188443038E+03  0.10451653099E+03  0.00000000000E+00 0. -1.
          1    1    1    2  502    0  0.11180604422E+02 -0.20451459107E+02 -0.88122301414E+01  0.24918336519E+02  0.00000000000E+00 0. -1.
</event>
<event>
 4    1  0.3837333E+003  0.2198877E+02  0.7546771E-02  0.1505602E+00
          2   -1    0    0  502    0  0.00000000000E+00  0.00000000000E+00  0.64011016938E+02  0.64011016938E+02  0.00000000000E+00 0.  1.
          1   -1    0    0  501    0 -0.00000000000E+00 -0.00000000000E+00 -0.20277228239E+02  0.20277228239E+02  0.00000000000E+00 0. -1.
          2    1    1    2  501    0 -0.17129239293E+02  0.13787506327E+02  0.55251034368E+02  0.59465813441E+02  0.00000000000E+00 0.  1.
          1    1    1    2  502    0  0.17129239293E+02 -0.13787506327E+02 -0.11517245670E+02  0.24822431736E+02  0.00000000000E+00 0. -1.
</event>
<event>
 4    1  0.3837333E+003  0.2159585E+02  0.7546771E-02  0.1510925E+00
          2   -1    0    0  502    0  0.00000000000E+00  0.00000000000E+00  0.64338768003E+03  0.64338768003E+03  0.00000000000E+00 0.  1.
          1   -1    0    0  501    0 -0.00000000000E+00 -0.00000000000E+00 -0.42190441214E+02  0.42190441214E+02  0.00000000000E+00 0. -1.
          2    1    1    2  501    0  0.17993361603E+02  0.11942347993E+02  0.64043015577E+03  0.64079416754E+03  0.00000000000E+00 0.  1.
          1    1    1    2  502    0 -0.17993361603E+02 -0.11942347993E+02 -0.39232916949E+02  0.44783953707E+02  0.00000000000E+00 0. -1.
</event>
<event>
 4    1  0.3837333E+003  0.4117036E+02  0.7546771E-02  0.1341761E+00
          2   -1    0    0  502    0  0.00000000000E+00  0.00000000000E+00  0.93690225016E+03  0.93690225016E+03  0.00000000000E+00 0. -1.
          1   -1    0    0  501    0 -0.00000000000E+00 -0.00000000000E+00 -0.21986779373E+01  0.21986779373E+01  0.00000000000E+00 0. -1.
          2    1    1    2  501    0  0.20039674269E+01  0.41121556857E+02  0.66498949366E+03  0.66626272971E+03  0.00000000000E+00 0. -1.
          1    1    1    2  502    0 -0.20039674269E+01 -0.41121556857E+02  0.26971407856E+03  0.27283819838E+03  0.00000000000E+00 0. -1.
</event>
<event>
 4    1  0.3837333E+003  0.2173513E+02  0.7546771E-02  0.1509023E+00
          2   -1    0    0  502    0  0.00000000000E+00  0.00000000000E+00  0.17014368278E+03  0.17014368278E+03  0.00000000000E+00 0. -1.
          1   -1    0    0  501    0 -0.00000000000E+00 -0.00000000000E+00 -0.43502282488E+02  0.43502282488E+02  0.00000000000E+00 0. -1.
          2    1    1    2  501    0 -0.11401961417E+02 -0.18504353960E+02  0.16667844463E+03  0.16808961819E+03  0.00000000000E+00 0. -1.
          1    1    1    2  502    0  0.11401961417E+02  0.18504353960E+02 -0.40037044338E+02  0.45556347076E+02  0.00000000000E+00 0. -1.
</event>
<event>
 4    1  0.3837333E+003  0.2132121E+02  0.7546771E-02  0.1514728E+00
          2   -1    0    0  502    0  0.00000000000E+00  0.00000000000E+00  0.10300257805E+04  0.10300257805E+04  0.00000000000E+00 0.  1.
          1   -1    0    0  501    0 -0.00000000000E+00 -0.00000000000E+00 -0.24311019163E+02  0.24311019163E+02  0.00000000000E+00 0. -1.
          2    1    1    2  501    0 -0.19973298098E+02  0.74606624682E+01  0.10252187539E+04  0.10254404358E+04  0.00000000000E+00 0.  1.
          1    1    1    2  502    0  0.19973298098E+02 -0.74606624682E+01 -0.19503992506E+02  0.28896363873E+02  0.00000000000E+00 0. -1.
</event>
<event>
 4    1  0.3837333E+003  0.4177166E+02  0.7546771E-02  0.1338405E+00
          2   -1    0    0  502    0  0.00000000000E+00  0.00000000000E+00  0.71512686466E+03  0.71512686466E+03  0.00000000000E+00 0.  1.
          1   -1    0    0  501    0 -0.00000000000E+00 -0.00000000000E+00 -0.86184256868E+01  0.86184256868E+01  0.00000000000E+00 0. -1.
          2    1    1    2  501    0 -0.22182310209E+02 -0.35395151735E+02  0.65964984508E+03  0.66097109601E+03  0.00000000000E+00 0.  1.
          1    1    1    2  502    0  0.22182310209E+02  0.35395151735E+02  0.46858593897E+02  0.62774194336E+02  0.00000000000E+00 0. -1.
</event>
<event>
 4    1  0.3837333E+003  0.2070410E+02  0.7546771E-02  0.1523532E+00
          2   -1    0    0  502    0  0.00000000000E+00  0.00000000000E+00  0.11888763682E+04  0.11888763682E+04  0.00000000000E+00 0.  1.
          1   -1    0    0  501    0 -0.00000000000E+00 -0.00000000000E+00 -0.58864594805E+01  0.58864594805E+01  0.00000000000E+00 0. -1.
          2    1    1    2  501    0 -0.13861122936E+02  0.15379496168E+02  0.11702918208E+04  0.11704749486E+04  0.00000000000E+00 0.  1.
          1    1    1    2  502    0  0.13861122936E+02 -0.15379496168E+02  0.12698087980E+02  0.24287879071E+02  0.00000000000E+00 0. -1.
</event>
<event>
 4    1  0.3837333E+003  0.2360606E+02  0.7546771E-02  0.1485025E+00
          2   -1    0    0  502    0  0.00000000000E+00  0.00000000000E+00  0.11666223851E+01  0.11666223851E+01  0.00000000000E+00 0. -1.
          1   -1    0    0  501    0 -0.00000000000E+00 -0.00000000000E+00 -0.13384614829E+04  0.13384614829E+04  0.00000000000E+00 0. -1.
          2    1    1    2  501    0 -0.11445295458E+02 -0.20645858905E+02 -0.13148778933E+03  0.13358998848E+03  0.00000000000E+00 0. -1.
          1    1    1    2  502    0  0.11445295458E+02  0.20645858905E+02 -0.12058070712E+04  0.12060381168E+04  0.00000000000E+00 0. -1.
</event>
<event>
 4    1  0.3837333E+003  0.2978374E+02  0.7546771E-02  0.1421485E+00
          2   -1    0    0  502    0  0.00000000000E+00  0.00000000000E+00  0.33796564253E+03  0.33796564253E+03  0.00000000000E+00 0. -1.
          1   -1    0    0  501    0 -0.00000000000E+00 -0.00000000000E+00 -0.31057095202E+02  0.31057095202E+02  0.00000000000E+00 0. -1.
          2    1    1    2  501    0 -0.41805706807E+01  0.29488882419E+02  0.32999672208E+03  0.33133805688E+03  0.00000000000E+00 0. -1.
          1    1    1    2  502    0  0.41805706807E+01 -0.29488882419E+02 -0.23088174748E+02  0.37684680849E+02  0.00000000000E+00 0. -1.
</event>
<event>
 4    1  0.3837333E+003  0.2028888E+02  0.7546771E-02  0.1529665E+00
          2   -1    0    0  502    0  0.00000000000E+00  0.00000000000E+00  0.12151924172E+02  0.12151924172E+02  0.00000000000E+00 0. -1.
          1   -1    0    0  501    0 -0.00000000000E+00 -0.00000000000E+00 -0.15014349583E+04  0.15014349583E+04  0.00000000000E+00 0. -1.
          2    1    1    2  501    0  0.75675324940E+01 -0.18824742101E+02  0.35660940874E+01  0.20599890540E+02  0.00000000000E+00 0. -1.
          1    1    1    2  502    0 -0.75675324940E+01  0.18824742101E+02 -0.14928491282E+04  0.14929869919E+04  0.00000000000E+00 0. -1.
</event>
<event>
 4    1  0.3837333E+003  0.2332289E+02  0.7546771E-02  0.1488483E+00
          2   -1    0    0  502    0  0.00000000000E+00  0.00000000000E+00  0.18196168484E+02  0.18196168484E+02  0.00000000000E+00 0. -1.
          1   -1    0    0  501    0 -0.00000000000E+00 -0.00000000000E+00 -0.11790214135E+03  0.11790214135E+03  0.00000000000E+00 0. -1.
          2    1    1    2  501    0 -0.22616520394E+02 -0.56964906699E+01  0.89396876828E+01  0.24977490198E+02  0.00000000000E+00 0. -1.
          1    1    1    2  502    0  0.22616520394E+02  0.56964906699E+01 -0.10864566055E+03  0.11112081963E+03  0.00000000000E+00 0. -1.
</event>
<event>
 4    1  0.3837333E+003  0.3052353E+02  0.7546771E-02  0.1415100E+00
          2   -1    0    0  502    0  0.00000000000E+00  0.00000000000E+00  0.45384427990E+02  0.45384427990E+02  0.00000000000E+00 0.  1.
          1   -1    0    0  501    0 -0.00000000000E+00 -0.00000000000E+00 -0.61006636821E+02  0.61006636821E+02  0.00000000000E+00 0. -1.
          2    1    1    2  501    0 -0.30507912624E+02 -0.97632718175E+00  0.35519574123E+02  0.46832959476E+02  0.00000000000E+00 0.  1.
          1    1    1    2  502    0  0.30507912624E+02  0.97632718175E+00 -0.51141782954E+02  0.59558105335E+02  0.00000000000E+00 0. -1.
</event>
<event>
 4    1  0.3837333E+003  0.2247233E+02  0.7546771E-02  0.1499233E+00
          2   -1    0    0  502    0  0.00000000000E+00  0.00000000000E+00  0.13160084565E+02  0.13160084565E+02  0.00000000000E+00 0.  1.
          1   -1    0    0  501    0 -0.00000000000E+00 -0.00000000000E+00 -0.10663862146E+03  0.10663862146E+03  0.00000000000E+00 0. -1.
          2    1    1    2  501    0  0.22035195602E+02 -0.44108647992E+01  0.11857838530E+01  0.22503592088E+02  0.00000000000E+00 0.  1.
          1    1    1    2  502    0 -0.22035195602E+02  0.44108647992E+01 -0.94664320746E+02  0.97295113936E+02  0.00000000000E+00 0. -1.
</event>
<event>
 4    1  0.3837333E+003  0.2369270E+02  0.7546771E-02  0.1483978E+00
          2   -1    0    0  502    0  0.00000000000E+00  0.00000000000E+00  0.11617558313E+04  0.11617558313E+04  0.00000000000E+00 0.  1.
          1   -1    0    0  501    0 -0.00000000000E+00 -0.00000000000E+00 -0.16281059887E+01  0.16281059887E+01  0.00000000000E+00 0.  1.
          2    1    1    2  501    0  0.19250711502E+02  0.13811369365E+02  0.10678611202E+04  0.10681239234E+04  0.00000000000E+00 0.  1.
          1    1    1    2  502    0 -0.19250711502E+02 -0.13811369365E+02  0.92266605073E+02  0.95260013798E+02  0.00000000000E+00 0.  1.
</event>
<event>
 4    1  0.3837333E+003  0.2156664E+02  0.7546771E-02  0.1511326E+00
          2   -1    0    0  502    0  0.00000000000E+00  0.00000000000E+00  0.45992059897E+02  0.45992059897E+02  0.00000000000E+00 0. -1.
          1   -1    0    0  501    0 -0.00000000000E+00 -0.00000000000E+00 -0.14144262872E+02  0.14144262872E+02  0.00000000000E+00 0. -1.
          2    1    1    2  501    0  0.20295988383E+02 -0.72933461541E+01  0.31976097354E+02  0.38569299249E+02  0.00000000000E+00 0. -1.
          1    1    1    2  502    0 -0.20295988383E+02  0.72933461541E+01 -0.12830032799E+00  0.21567023520E+02  0.00000000000E+00 0. -1.
</event>
<event>
 4    1  0.3837333E+003  0.2675634E+02  0.7546771E-02  0.1450071E+00
          2   -1    0    0  502    0  0.00000000000E+00  0.00000000000E+00  0.10981793664E+04  0.10981793664E+04  0.00000000000E+00 0.  1.
          1   -1    0    0  501    0 -0.00000000000E+00 -0.00000000000E+00 -0.72475123633E+02  0.72475123633E+02  0.00000000000E+00 0. -1.
          2    1    1    2  501    0 -0.21767341980E+02 -0.15559063476E+02  0.10955409718E+04  0.10958676574E+04  0.00000000000E+00 0.  1.
          1    1    1    2  502    0  0.21767341980E+02  0.15559063476E+02 -0.69836728967E+02  0.74786832704E+02  0.00000000000E+00 0. -1.
</event>
<event>
 4    1  0.3837333E+003  0.2182490E+02  0.7546771E-02  0.1507806E+00
          2   -1    0    0  502    0  0.00000000000E+00  0.00000000000E+00  0.18261017107E+02  0.18261017107E+02  0.00000000000E+00 0. -1.
          1   -1    0    0  501    0 -0.00000000000E+00 -0.00000000000E+00 -0.10584292746E+04  0.10584292746E+04  0.00000000000E+00 0. -1.
          2    1    1    2  501    0  0.21263858570E+02 -0.49167500834E+01  0.11586049082E+02  0.24709565881E+02  0.00000000000E+00 0. -1.
          1    1    1    2  502    0 -0.21263858570E+02  0.49167500834E+01 -0.10517543066E+04  0.10519807258E+04  0.00000000000E+00 0. -1.
</event>
<event>
 4    1  0.3837333E+003  0.2993831E+02  0.7546771E-02  0.1420133E+00
          2   -1    0    0  502    0  0.00000000000E+00  0.00000000000E+00  0.76904395533E+01  0.76904395533E+01  0.00000000000E+00 0. -1.
          1   -1    0    0  501    0 -0.00000000000E+00 -0.00000000000E+00 -0.80608397585E+03  0.80608397585E+03  0.00000000000E+00 0. -1.
          2    1    1    2  501    0  0.28521736672E+02  0.91001529166E+01 -0.22872276004E+02  0.37675499406E+02  0.00000000000E+00 0. -1.
          1    1    1    2  502    0 -0.28521736672E+02 -0.91001529166E+01 -0.77552126029E+03  0.77609891600E+03  0.00000000000E+00 0. -1.
</event>
<event>
 4    1  0.3837333E+003  0.2730661E+02  0.7546771E-02  0.1444552E+00
          2   -1    0    0  502    0  0.00000000000E+00  0.00000000000E+00  0.19829286190E+04  0.19829286190E+04  0.00000000000E+00 0. -1.
          1   -1    0    0  501    0 -0.00000000000E+00 -0.00000000000E+00 -0.53648794639E+01  0.53648794639E+01  0.00000000000E+00 0.  1.
          2    1    1    2  501    0 -0.27203466297E+02 -0.23711710238E+01  0.19474548435E+04  0.19476462765E+04  0.00000000000E+00 0. -1.
          1    1    1    2  502    0  0.27203466297E+02  0.23711710238E+01  0.30108896066E+02  0.40647221958E+02  0.00000000000E+00 0.  1.
</event>
<event>
 4    1  0.3837333E+003  0.2230592E+02  0.7546771E-02  0.1501403E+00
          2   -1    0    0  502    0  0.00000000000E+00  0.00000000000E+00  0.48020810831E+03  0.48020810831E+03  0.00000000000E+00 0. -1.
          1   -1    0    0  501    0 -0.00000000000E+00 -0.00000000000E+00 -0.21903497611E+01  0.21903497611E+01  0.00000000000E+00 0.  1.
          2    1    1    2  501    0 -0.50335858510E+01 -0.21730553796E+02  0.41410036531E+03  0.41470069508E+03  0.00000000000E+00 0. -1.
          1    1    1    2  502    0  0.50335858510E+01  0.21730553796E+02  0.63917393244E+02  0.67697762990E+02  0.00000000000E+00 0.  1.
</event>
<event>
 4    1  0.3837333E+003  0.3904483E+02  0.7546771E-02  0.1354176E+00
          2   -1    0    0  502    0  0.00000000000E+00  0.00000000000E+00  0.14743767458E+02  0.14743767458E+02  0.00000000000E+00 0. -1.
          1   -1    0    0  501    0 -0.00000000000E+00 -0.00000000000E+00 -0.98695940537E+03  0.98695940537E+03  0.00000000000E+00 0. -1.
          2    1    1    2  501    0 -0.29331306716E+02  0.25771554563E+02 -0.12217974166E+02  0.40911825564E+02  0.00000000000E+00 0. -1.
          1    1    1    2  502    0  0.29331306716E+02 -0.25771554563E+02 -0.95999766374E+03  0.96079134726E+03  0.00000000000E+00 0. -1.
</event>
<event>
 4    1  0.3837333E+003  0.2150402E+02  0.7546771E-02  0.1512189E+00
          2   -1    0    0  502    0  0.00000000000E+00  0.00000000000E+00  0.54257097196E+03  0.54257097196E+03  0.00000000000E+00 0. -1.
          1   -1    0    0  501    0 -0.00000000000E+00 -0.00000000000E+00 -0.54171749656E+01  0.54171749656E+01  0.00000000000E+00 0. -1.
          2    1    1    2  501    0 -0.21493476225E+02 -0.67326934629E+00  0.52009549162E+03  0.52053985747E+03  0.00000000000E+00 0. -1.
          1    1    1    2  502    0  0.21493476225E+02  0.67326934629E+00  0.17058305378E+02  0.27448289459E+02  0.00000000000E+00 0. -1.
</event>
<event>
 4    1  0.3837333E+003  0.2045263E+02  0.7546771E-02  0.1527225E+00
          2   -1    0    0  502    0  0.00000000000E+00  0.00000000000E+00  0.42488790908E+03  0.42488790908E+03  0.00000000000E+00 0.  1.
          1   -1    0    0  501    0 -0.00000000000E+00 -0.00000000000E+00 -0.11471643538E+01  0.11471643538E+01  0.00000000000E+00 0.  1.
          2    1    1    2  501    0  0.20360696958E+02 -0.19370267401E+01  0.29207951781E+03  0.29279473148E+03  0.00000000000E+00 0.  1.
          1    1    1    2  502    0 -0.20360696958E+02  0.19370267401E+01  0.13166122691E+03  0.13324034195E+03  0.00000000000E+00 0.  1.
</event>
<event>
 4    1  0.3837333E+003  0.2189234E+02  0.7546771E-02  0.1506896E+00
          2   -1    0    0  502    0  0.00000000000E+00  0.00000000000E+00  0.14285781267E+04  0.14285781267E+04  0.00000000000E+00 0.  1.
          1   -1    0    0  501    0 -0.00000000000E+00 -0.00000000000E+00 -0.12436733848E+01  0.12436733848E+01  0.00000000000E+00 0. -1.
          2    1    1    2  501    0 -0.21873092852E+02 -0.91791076331E+00  0.13245886355E+04  0.13247695377E+04  0.00000000000E+00 0.  1.
          1    1    1    2  502    0  0.21873092852E+02  0.91791076331E+00  0.10274581776E+03  0.10505226232E+03  0.00000000000E+00 0. -1.
</event>
<event>
 4    1  0.3837333E+003  0.2213702E+02  0.7546771E-02  0.1503628E+00
          2   -1    0    0  502    0  0.00000000000E+00  0.00000000000E+00  0.36105229016E+03  0.36105229016E+03  0.00000000000E+00 0.  1.
          1   -1    0    0  501    0 -0.00000000000E+00 -0.00000000000E+00 -0.13957997143E+04  0.13957997143E+04  0.00000000000E+00 0. -1.
          2    1    1    2  501    0  0.22031344567E+02 -0.21604749672E+01  0.36062509528E+03  0.36130389860E+03  0.00000000000E+00 0.  1.
          1    1    1    2  502    0 -0.22031344567E+02  0.21604749672E+01 -0.13953725194E+04  0.13955481059E+04  0.00000000000E+00 0. -1.
</event>
<event>
 4    1  0.3837333E+003  0.2809531E+02  0.7546771E-02  0.1436905E+00
          2   -1    0    0  502    0  0.00000000000E+00  0.00000000000E+00  0.37412037848E+03  0.37412037848E+03  0.00000000000E+00 0. -1.
          1   -1    0    0  501    0 -0.00000000000E+00 -0.00000000000E+00 -0.85931966804E+01  0.85931966804E+01  0.00000000000E+00 0.  1.
          2    1    1    2  501    0 -0.62752473392E+01 -0.27385538253E+02  0.34897673025E+03  0.35010584784E+03  0.00000000000E+00 0. -1.
          1    1    1    2  502    0  0.62752473392E+01  0.27385538253E+02  0.16550451547E+02  0.32607727320E+02  0.00000000000E+00 0.  1.
</event>
<event>
 4    1  0.3837333E+003  0.2689603E+02  0.7546771E-02  0.1448655E+00
          2   -1    0    0  502    0  0.00000000000E+00  0.00000000000E+00  0.30552118645E+01  0.30552118645E+01  0.00000000000E+00 0.  1.
          1   -1    0    0  501    0 -0.00000000000E+00 -0.00000000000E+00 -0.70260434182E+03  0.70260434182E+03  0.00000000000E+00 0. -1.
          2    1    1    2  501    0  0.26659963337E+02 -0.35556572976E+01 -0.62482615589E+02  0.68025536343E+02  0.00000000000E+00 0.  1.
          1    1    1    2  502    0 -0.26659963337E+02  0.35556572976E+01 -0.63706651437E+03  0.63763401734E+03  0.00000000000E+00 0. -1.
</event>
<event>
 4    1  0.3837333E+003  0.2199514E+02  0.7546771E-02  0.1505517E+00
          2   -1    0    0  502    0  0.00000000000E+00  0.00000000000E+00  0.14259709168E+04  0.14259709168E+04  0.00000000000E+00 0. -1.
          1   -1    0    0  501    0 -0.00000000000E+00 -0.00000000000E+00 -0.33927828344E+00  0.33927828344E+00  0.00000000000E+00 0. -1.
          2    1    1    2  501    0 -0.20201336735E+02 -0.87001242755E+01  0.71675977036E+03  0.71709717233E+03  0.00000000000E+00 0. -1.
          1    1    1    2  502    0  0.20201336735E+02  0.87001242755E+01  0.70887186813E+03  0.70921302272E+03  0.00000000000E+00 0. -1.
</event>
<event>
 4    1  0.3837333E+003  0.2950989E+02  0.7546771E-02  0.1423904E+00
          2   -1    0    0  502    0  0.00000000000E+00  0.00000000000E+00  0.52387395937E+03  0.52387395937E+03  0.00000000000E+00 0.  1.
          1   -1    0    0  501    0 -0.00000000000E+00 -0.00000000000E+00 -0.11907480147E+03  0.11907480147E+03  0.00000000000E+00 0. -1.
          2    1    1    2  501    0  0.11254643606E+02  0.27279412016E+02  0.52162216655E+03  0.52245623545E+03  0.00000000000E+00 0.  1.
          1    1    1    2  502    0 -0.11254643606E+02 -0.27279412016E+02 -0.11682300866E+03  0.12049252539E+03  0.00000000000E+00 0. -1.
</event>
<event>
 4    1  0.3837333E+003  0.2677332E+02  0.7546771E-02  0.1449899E+00
          2   -1    0    0  502    0  0.00000000000E+00  0.00000000000E+00  0.77918717003E+01  0.77918717003E+01  0.00000000000E+00 0. -1.
          1   -1    0    0  501    0 -0.00000000000E+00 -0.00000000000E+00 -0.17557138766E+03  0.17557138766E+03  0.00000000000E+00 0. -1.
          2    1    1    2  501    0 -0.25925036075E+02 -0.66860250004E+01 -0.20634273105E+02  0.33802124968E+02  0.00000000000E+00 0. -1.
          1    1    1    2  502    0  0.25925036075E+02  0.66860250004E+01 -0.14714524285E+03  0.14956113439E+03  0.00000000000E+00 0. -1.
</event>
<event>
 4    1  0.3837333E+003  0.2662407E+02  0.7546771E-02  0.1451421E+00
          2   -1    0    0  502    0  0.00000000000E+00  0.00000000000E+00  0.12598337811E+01  0.12598337811E+01  0.00000000000E+00 0.  1.
          1   -1    0    0  501    0 -0.00000000000E+00 -0.00000000000E+00 -0.57855770039E+03  0.57855770039E+03  0.00000000000E+00 0.  1.
          2    1    1    2  501    0 -0.22599435098E+02 -0.14075042964E+02 -0.24057197853E+03  0.24204073656E+03  0.00000000000E+00 0.  1.
          1    1    1    2  502    0  0.22599435098E+02  0.14075042964E+02 -0.33672588807E+03  0.33777679761E+03  0.00000000000E+00 0.  1.
</event>
<event>
 4    1  0.3837333E+003  0.2751809E+02  0.7546771E-02  0.1442472E+00
          2   -1    0    0  502    0  0.00000000000E+00  0.00000000000E+00  0.67331540216E+00  0.67331540216E+00  0.00000000000E+00 0.  1.
          1   -1    0    0  501    0 -0.00000000000E+00 -0.00000000000E+00 -0.17557354091E+04  0.17557354091E+04  0.00000000000E+00 0.  1.
          2    1    1    2  501    0 -0.10288610772E+02 -0.25522339414E+02 -0.35101751659E+03  0.35209450759E+03  0.00000000000E+00 0.  1.
          1    1    1    2  502    0  0.10288610772E+02  0.25522339414E+02 -0.14040445771E+04  0.14043142169E+04  0.00000000000E+00 0.  1.
</event>
<event>
 4    1  0.3837333E+003  0.2829600E+02  0.7546771E-02  0.1435007E+00
          2   -1    0    0  502    0  0.00000000000E+00  0.00000000000E+00  0.10424683690E+03  0.10424683690E+03  0.00000000000E+00 0.  1.
          1   -1    0    0  501    0 -0.00000000000E+00 -0.00000000000E+00 -0.11255489666E+03  0.11255489666E+03  0.00000000000E+00 0.  1.
          2    1    1    2  501    0  0.38242474684E+01  0.28036381993E+02  0.10048299431E+03  0.10439107112E+03  0.00000000000E+00 0.  1.
          1    1    1    2  502    0 -0.38242474684E+01 -0.28036381993E+02 -0.10879105407E+03  0.11241066243E+03  0.00000000000E+00 0.  1.
</event>
<event>
 4    1  0.3837333E+003  0.2686105E+02  0.7546771E-02  0.1449009E+00
          2   -1    0    0  502    0  0.00000000000E+00  0.00000000000E+00  0.62630148060E+03  0.62630148060E+03  0.00000000000E+00 0. -1.
          1   -1    0    0  501    0 -0.00000000000E+00 -0.00000000000E+00 -0.12356244446E+01  0.12356244446E+01  0.00000000000E+00 0. -1.
          2    1    1    2  501    0 -0.19858971275E+02 -0.18086923631E+02  0.23091878118E+03  0.23247580314E+03  0.00000000000E+00 0. -1.
          1    1    1    2  502    0  0.19858971275E+02  0.18086923631E+02  0.39414707498E+03  0.39506130191E+03  0.00000000000E+00 0. -1.
</event>
<event>
 4    1  0.3837333E+003  0.2625605E+02  0.7546771E-02  0.1455228E+00
          2   -1    0    0  502    0  0.00000000000E+00  0.00000000000E+00  0.10507424281E+04  0.10507424281E+04  0.00000000000E+00 0. -1.
          1   -1    0    0  501    0 -0.00000000000E+00 -0.00000000000E+00 -0.80389652203E+00  0.80389652203E+00  0.00000000000E+00 0. -1.
          2    1    1    2  501    0  0.25910395232E+02  0.42463610921E+01  0.75041765982E+03  0.75087685031E+03  0.00000000000E+00 0. -1.
          1    1    1    2  502    0 -0.25910395232E+02 -0.42463610921E+01  0.29952087174E+03  0.30066947429E+03  0.00000000000E+00 0. -1.
</event>
<event>
 4    1  0.3837333E+003  0.2588365E+02  0.7546771E-02  0.1459156E+00
          2   -1    0    0  502    0  0.00000000000E+00  0.00000000000E+00  0.68199300714E+03  0.68199300714E+03  0.00000000000E+00 0. -1.
          1   -1    0    0  501    0 -0.00000000000E+00 -0.00000000000E+00 -0.31008913685E+03  0.31008913685E+03  0.00000000000E+00 0. -1.
          2    1    1    2  501    0 -0.17809747860E+02 -0.18782333986E+02  0.68120665607E+03  0.68169822610E+03  0.00000000000E+00 0. -1.
          1    1    1    2  502    0  0.17809747860E+02  0.18782333986E+02 -0.30930278579E+03  0.31038391789E+03  0.00000000000E+00 0. -1.
</event>
<event>
 4    1  0.4019334E+003  0.2320159E+02  0.7546771E-02  0.1489982E+00
          2   -1    0    0  502    0  0.00000000000E+00  0.00000000000E+00  0.14185632129E+04  0.14185632129E+04  0.00000000000E+00 0.  1.
          1   -1    0    0  501    0 -0.00000000000E+00 -0.00000000000E+00 -0.36832215601E+03  0.36832215601E+03  0.00000000000E+00 0.  1.
          2    1    1    2  501    0 -0.23054882697E+02 -0.26050678698E+01  0.14181028421E+04  0.14182926302E+04  0.00000000000E+00 0.  1.
          1    1    1    2  502    0  0.23054882697E+02  0.26050678698E+01 -0.36786178525E+03  0.36859273872E+03  0.00000000000E+00 0.  1.
</event>
<event>
 4    1  0.3837333E+003  0.2435746E+02  0.7546771E-02  0.1476121E+00
          2   -1    0    0  502    0  0.00000000000E+00  0.00000000000E+00  0.13066475197E+04  0.13066475197E+04  0.00000000000E+00 0. -1.
          1   -1    0    0  501    0 -0.00000000000E+00 -0.00000000000E+00 -0.53374411896E+00  0.53374411896E+00  0.00000000000E+00 0. -1.
          2    1    1    2  501    0 -0.14156762823E+02  0.19821002042E+02  0.90560647970E+03  0.90593398332E+03  0.00000000000E+00 0. -1.
          1    1    1    2  502    0  0.14156762823E+02 -0.19821002042E+02  0.40050729589E+03  0.40124728051E+03  0.00000000000E+00 0. -1.
</event>
<event>
 4    1  0.3837333E+003  0.2332312E+02  0.7546771E-02  0.1488480E+00
          2   -1    0    0  502    0  0.00000000000E+00  0.00000000000E+00  0.28014951658E+03  0.28014951658E+03  0.00000000000E+00 0.  1.
          1   -1    0    0  501    0 -0.00000000000E+00 -0.00000000000E+00 -0.22261750794E+01  0.22261750794E+01  0.00000000000E+00 0.  1.
          2    1    1    2  501    0 -0.20007084956E+02  0.11986820718E+02  0.88491237326E+02  0.91513203434E+02  0.00000000000E+00 0.  1.
          1    1    1    2  502    0  0.20007084956E+02 -0.11986820718E+02  0.18943210417E+03  0.19086248822E+03  0.00000000000E+00 0.  1.
</event>
<event>
 4    1  0.3837333E+003  0.2058400E+02  0.7546771E-02  0.1525288E+00
          2   -1    0    0  502    0  0.00000000000E+00  0.00000000000E+00  0.38506450421E+03  0.38506450421E+03  0.00000000000E+00 0. -1.
          1   -1    0    0  501    0 -0.00000000000E+00 -0.00000000000E+00 -0.22557434401E+02  0.22557434401E+02  0.00000000000E+00 0.  1.
          2    1    1    2  501    0  0.20535278522E+02  0.14153671961E+01  0.38003147409E+03  0.38058852088E+03  0.00000000000E+00 0. -1.
          1    1    1    2  502    0 -0.20535278522E+02 -0.14153671961E+01 -0.17524404286E+02  0.27033417724E+02  0.00000000000E+00 0.  1.
</event>
<event>
 4    1  0.3837333E+003  0.1271025E+03  0.7546771E-02  0.1123707E+00
          2   -1    0    0  502    0  0.00000000000E+00  0.00000000000E+00  0.38191187759E+02  0.38191187759E+02  0.00000000000E+00 0. -1.
          1   -1    0    0  501    0 -0.00000000000E+00 -0.00000000000E+00 -0.88282816581E+03  0.88282816581E+03  0.00000000000E+00 0. -1.
          2    1    1    2  501    0  0.51736455190E+02 -0.11609646529E+03 -0.89968048543E+02  0.15572186683E+03  0.00000000000E+00 0. -1.
          1    1    1    2  502    0 -0.51736455190E+02  0.11609646529E+03 -0.75466892951E+03  0.76529748675E+03  0.00000000000E+00 0. -1.
</event>
<event>
 4    1  0.3837333E+003  0.2412117E+02  0.7546771E-02  0.1478880E+00
          2   -1    0    0  502    0  0.00000000000E+00  0.00000000000E+00  0.45690765389E+01  0.45690765389E+01  0.00000000000E+00 0. -1.
          1   -1    0    0  501    0 -0.00000000000E+00 -0.00000000000E+00 -0.34317869252E+03  0.34317869252E+03  0.00000000000E+00 0.  1.
          2    1    1    2  501    0  0.64675231981E+01  0.23237940784E+02 -0.31413195600E+02  0.39605802681E+02  0.00000000000E+00 0. -1.
          1    1    1    2  502    0 -0.64675231981E+01 -0.23237940784E+02 -0.30719642038E+03  0.30814196638E+03  0.00000000000E+00 0.  1.
</event>
<event>
 4    1  0.3837333E+003  0.2772812E+02  0.7546771E-02  0.1440428E+00
          2   -1    0    0  502    0  0.00000000000E+00  0.00000000000E+00  0.65782218323E+01  0.65782218323E+01  0.00000000000E+00 0.  1.
          1   -1    0    0  501    0 -0.00000000000E+00 -0.00000000000E+00 -0.24041300129E+03  0.24041300129E+03  0.00000000000E+00 0.  1.
          2    1    1    2  501    0  0.27003467263E+02 -0.62977448116E+01 -0.28392026704E+02  0.39685715494E+02  0.00000000000E+00 0.  1.
          1    1    1    2  502    0 -0.27003467263E+02  0.62977448116E+01 -0.20544275275E+03  0.20730550763E+03  0.00000000000E+00 0.  1.
</event>
<event>
 4    1  0.3837333E+003  0.2372633E+02  0.7546771E-02  0.1483574E+00
          2   -1    0    0  502    0  0.00000000000E+00  0.00000000000E+00  0.11638473672E+04  0.11638473672E+04  0.00000000000E+00 0.  1.
          1   -1    0    0  501    0 -0.00000000000E+00 -0.00000000000E+00 -0.10663251879E+01  0.10663251879E+01  0.00000000000E+00 0. -1.
          2    1    1    2  501    0  0.22975350173E+02 -0.59221440203E+01  0.10119351550E+04  0.10122132663E+04  0.00000000000E+00 0.  1.
          1    1    1    2  502    0 -0.22975350173E+02  0.59221440203E+01  0.15084588697E+03  0.15270042607E+03  0.00000000000E+00 0. -1.
</event>
<event>
 4    1  0.3837333E+003  0.2116918E+02  0.7546771E-02  0.1516863E+00
          2   -1    0    0  502    0  0.00000000000E+00  0.00000000000E+00  0.78227364240E+03  0.78227364240E+03  0.00000000000E+00 0. -1.
          1   -1    0    0  501    0 -0.00000000000E+00 -0.00000000000E+00 -0.63010234649E+00  0.63010234649E+00  0.00000000000E+00 0.  1.
          2    1    1    2  501    0  0.18995078086E+02  0.93445823070E+01  0.50880683189E+03  0.50924701903E+03  0.00000000000E+00 0. -1.
          1    1    1    2  502    0 -0.18995078086E+02 -0.93445823070E+01  0.27283670817E+03  0.27365672572E+03  0.00000000000E+00 0.  1.
</event>
<event>
 4    1  0.3837333E+003  0.2281477E+02  0.7546771E-02  0.1494837E+00
          2   -1    0    0  502    0  0.00000000000E+00  0.00000000000E+00  0.61072174590E+02  0.61072174590E+02  0.00000000000E+00 0.  1.
          1   -1    0    0  501    0 -0.00000000000E+00 -0.00000000000E+00 -0.20519369741E+02  0.20519369741E+02  0.00000000000E+00 0. -1.
          2    1    1    2  501    0 -0.73715935191E+01 -0.21591051133E+02  0.51469559652E+02  0.56299462261E+02  0.00000000000E+00 0.  1.
          1    1    1    2  502    0  0.73715935191E+01  0.21591051133E+02 -0.10916754804E+02  0.25292082071E+02  0.00000000000E+00 0. -1.
</event>
<event>
 4    1  0.3837333E+003  0.2293956E+02  0.7546771E-02  0.1493258E+00
          2   -1    0    0  502    0  0.00000000000E+00  0.00000000000E+00  0.89151274971E+02  0.89151274971E+02  0.00000000000E+00 0.  1.
          1   -1    0    0  501    0 -0.00000000000E+00 -0.00000000000E+00 -0.33259316358E+02  0.33259316358E+02  0.00000000000E+00 0.  1.
          2    1    1    2  501    0 -0.18470704263E+02 -0.13603554007E+02  0.83455105247E+02  0.86550437257E+02  0.00000000000E+00 0.  1.
          1    1    1    2  502    0  0.18470704263E+02  0.13603554007E+02 -0.27563146635E+02  0.35860154071E+02  0.00000000000E+00 0.  1.
</event>
<event>
 4    1  0.3837333E+003  0.3210436E+02  0.7546771E-02  0.1402150E+00
          2   -1    0    0  502    0  0.00000000000E+00  0.00000000000E+00  0.30536674437E+02  0.30536674437E+02  0.00000000000E+00 0.  1.
          1   -1    0    0  501    0 -0.00000000000E+00 -0.00000000000E+00 -0.69948427335E+03  0.69948427335E+03  0.00000000000E+00 0. -1.
          2    1    1    2  501    0 -0.94555958528E+01 -0.30680317626E+02  0.21621286301E+02  0.38706203687E+02  0.00000000000E+00 0.  1.
          1    1    1    2  502    0  0.94555958528E+01  0.30680317626E+02 -0.69056888521E+03  0.69131474410E+03  0.00000000000E+00 0. -1.
</event>
<event>
 4    1  0.3837333E+003  0.2761213E+02  0.7546771E-02  0.1441554E+00
          2   -1    0    0  502    0  0.00000000000E+00  0.00000000000E+00  0.43265183767E+01  0.43265183767E+01  0.00000000000E+00 0. -1.
          1   -1    0    0  501    0 -0.00000000000E+00 -0.00000000000E+00 -0.10198323960E+04  0.10198323960E+04  0.00000000000E+00 0.  1.
          2    1    1    2  501    0  0.18357457330E+02 -0.20626033605E+02 -0.42012650616E+02  0.50274171437E+02  0.00000000000E+00 0. -1.
          1    1    1    2  502    0 -0.18357457330E+02  0.20626033605E+02 -0.97349322698E+03  0.97388474291E+03  0.00000000000E+00 0.  1.
</event>
<event>
 4    1  0.3837333E+003  0.2148314E+02  0.7546771E-02  0.1512477E+00
          2   -1    0    0  502    0  0.00000000000E+00  0.00000000000E+00  0.12841476290E+04  0.12841476290E+04  0.00000000000E+00 0.  1.
          1   -1    0    0  501    0 -0.00000000000E+00 -0.00000000000E+00 -0.32437209305E+01  0.32437209305E+01  0.00000000000E+00 0. -1.
          2    1    1    2  501    0 -0.42922243208E+01 -0.21049993603E+02  0.12474404754E+04  0.12476254507E+04  0.00000000000E+00 0.  1.
          1    1    1    2  502    0  0.42922243208E+01  0.21049993603E+02  0.33463432671E+02  0.39765899291E+02  0.00000000000E+00 0. -1.
</event>
<event>
 4    1  0.3837333E+003  0.3581276E+02  0.7546771E-02  0.1374938E+00
          2   -1    0    0  502    0  0.00000000000E+00  0.00000000000E+00  0.78276095573E+03  0.78276095573E+03  0.00000000000E+00 0.  1.
          1   -1    0    0  501    0 -0.00000000000E+00 -0.00000000000E+00 -0.33539201969E+01  0.33539201969E+01  0.00000000000E+00 0. -1.
          2    1    1    2  501    0 -0.17397994791E+02  0.31302767973E+02  0.67080618599E+03  0.67176148496E+03  0.00000000000E+00 0.  1.
          1    1    1    2  502    0  0.17397994791E+02 -0.31302767973E+02  0.10860084954E+03  0.11435339097E+03  0.00000000000E+00 0. -1.
</event>
<event>
 4    1  0.3837333E+003  0.3227394E+02  0.7546771E-02  0.1400813E+00
          2   -1    0    0  502    0  0.00000000000E+00  0.00000000000E+00  0.10376726610E+02  0.10376726610E+02  0.00000000000E+00 0.  1.
          1   -1    0    0  501    0 -0.00000000000E+00 -0.00000000000E+00 -0.13623630396E+03  0.13623630396E+03  0.00000000000E+00 0.  1.
          2    1    1    2  501    0  0.86957150030E+01 -0.31080404822E+02 -0.25321459329E+02  0.41021742112E+02  0.00000000000E+00 0.  1.
          1    1    1    2  502    0 -0.86957150030E+01  0.31080404822E+02 -0.10053811802E+03  0.10559128846E+03  0.00000000000E+00 0.  1.
</event>
<event>
 4    1  0.3837333E+003  0.2241820E+02  0.7546771E-02  0.1499936E+00
          2   -1    0    0  502    0  0.00000000000E+00  0.00000000000E+00  0.10355230014E+02  0.10355230014E+02  0.00000000000E+00 0. -1.
          1   -1    0    0  501    0 -0.00000000000E+00 -0.00000000000E+00 -0.59937888835E+03  0.59937888835E+03  0.00000000000E+00 0.  1.
          2    1    1    2  501    0  0.21779062809E+02 -0.53148951439E+01 -0.22482931083E+01  0.22530657095E+02  0.00000000000E+00 0. -1.
          1    1    1    2  502    0 -0.21779062809E+02  0.53148951439E+01 -0.58677536523E+03  0.58720346127E+03  0.00000000000E+00 0.  1.
</event>
<event>
 4    1  0.3837333E+003  0.2007991E+02  0.7546771E-02  0.1532818E+00
          2   -1    0    0  502    0  0.00000000000E+00  0.00000000000E+00  0.10758843845E+04  0.10758843845E+04  0.00000000000E+00 0. -1.
          1   -1    0    0  501    0 -0.00000000000E+00 -0.00000000000E+00 -0.25378320014E+01  0.25378320014E+01  0.00000000000E+00 0.  1.
          2    1    1    2  501    0  0.31490633023E+01  0.19831441982E+02  0.10344819808E+04  0.10346768439E+04  0.00000000000E+00 0. -1.
          1    1    1    2  502    0 -0.31490633023E+01 -0.19831441982E+02  0.38864571651E+02  0.43745372560E+02  0.00000000000E+00 0.  1.
</event>
<event>
 4    1  0.3837333E+003  0.2586455E+02  0.7546771E-02  0.1459360E+00
          2   -1    0    0  502    0  0.00000000000E+00  0.00000000000E+00  0.33428373516E+01  0.33428373516E+01  0.00000000000E+00 0. -1.
          1   -1    0    0  501    0 -0.00000000000E+00 -0.00000000000E+00 -0.20074355697E+03  0.20074355697E+03  0.00000000000E+00 0. -1.
          2    1    1    2  501    0 -0.22269190063E+02 -0.13155149181E+02 -0.93021539728E+02  0.96550409783E+02  0.00000000000E+00 0. -1.
          1    1    1    2  502    0  0.22269190063E+02  0.13155149181E+02 -0.10437917989E+03  0.10753598454E+03  0.00000000000E+00 0. -1.
</event>
<event>
 4    1  0.3837333E+003  0.2529194E+02  0.7546771E-02  0.1465564E+00
          2   -1    0    0  502    0  0.00000000000E+00  0.00000000000E+00  0.17725105307E+02  0.17725105307E+02  0.00000000000E+00 0.  1.
          1   -1    0    0  501    0 -0.00000000000E+00 -0.00000000000E+00 -0.54756620904E+02  0.54756620904E+02  0.00000000000E+00 0. -1.
          2    1    1    2  501    0 -0.66785839184E+01 -0.24394239285E+02  0.26446482898E+01  0.25429835981E+02  0.00000000000E+00 0.  1.
          1    1    1    2  502    0  0.66785839184E+01  0.24394239285E+02 -0.39676163887E+02  0.47051890230E+02  0.00000000000E+00 0. -1.
</event>
<event>
 4    1  0.3837333E+003  0.2021773E+02  0.7546771E-02  0.1530733E+00
          2   -1    0    0  502    0  0.00000000000E+00  0.00000000000E+00  0.44813768288E+02  0.44813768288E+02  0.00000000000E+00 0.  1.
          1   -1    0    0  501    0 -0.00000000000E+00 -0.00000000000E+00 -0.73431846398E+02  0.73431846398E+02  0.00000000000E+00 0.  1.
          2    1    1    2  501    0  0.14045039698E+02  0.14542808366E+02  0.41020134085E+02  0.45731912443E+02  0.00000000000E+00 0.  1.
          1    1    1    2  502    0 -0.14045039698E+02 -0.14542808366E+02 -0.69638212195E+02  0.72513702244E+02  0.00000000000E+00 0.  1.
</event>
<event>
 4    1  0.3837333E+003  0.3036727E+02  0.7546771E-02  0.1416431E+00
          2   -1    0    0  502    0  0.00000000000E+00  0.00000000000E+00  0.64906744204E+03  0.64906744204E+03  0.00000000000E+00 0. -1.
          1   -1    0    0  501    0 -0.00000000000E+00 -0.00000000000E+00 -0.17185569374E+01  0.17185569374E+01  0.00000000000E+00 0. -1.
          2    1    1    2  501    0 -0.26452300221E+01 -0.30251835457E+02  0.45912612725E+03  0.46012929869E+03  0.00000000000E+00 0. -1.
          1    1    1    2  502    0  0.26452300221E+01  0.30251835457E+02  0.18822275785E+03  0.19065670029E+03  0.00000000000E+00 0. -1.
</event>
<event>
 4    1  0.3837333E+003  0.2601744E+02  0.7546771E-02  0.1457736E+00
          2   -1    0    0  502    0  0.00000000000E+00  0.00000000000E+00  0.42369355025E+03  0.42369355025E+03  0.00000000000E+00 0. -1.
          1   -1    0    0  501    0 -0.00000000000E+00 -0.00000000000E+00 -0.37635698212E+01  0.37635698212E+01  0.00000000000E+00 0. -1.
          2    1    1    2  501    0  0.26016427365E+02  0.23002379273E+00  0.37210317996E+03  0.37301164049E+03  0.00000000000E+00 0. -1.
          1    1    1    2  502    0 -0.26016427365E+02 -0.23002379273E+00  0.47826800462E+02  0.54445479576E+02  0.00000000000E+00 0. -1.
</event>
<event>
 4    1  0.3837333E+003  0.4262511E+02  0.7546771E-02  0.1333753E+00
          2   -1    0    0  502    0  0.00000000000E+00  0.00000000000E+00  0.83983819320E+03  0.83983819320E+03  0.00000000000E+00 0.  1.
          1   -1    0    0  501    0 -0.00000000000E+00 -0.00000000000E+00 -0.26183303657E+02  0.26183303657E+02  0.00000000000E+00 0.  1.
          2    1    1    2  501    0  0.72672823573E+01  0.42001028123E+02  0.82156384400E+03  0.82266885776E+03  0.00000000000E+00 0.  1.
          1    1    1    2  502    0 -0.72672823573E+01 -0.42001028123E+02 -0.79089544569E+01  0.43352639099E+02  0.00000000000E+00 0.  1.
</event>
<event>
 4    1  0.3837333E+003  0.2167397E+02  0.7546771E-02  0.1509856E+00
          2   -1    0    0  502    0  0.00000000000E+00  0.00000000000E+00  0.38627931459E+00  0.38627931459E+00  0.00000000000E+00 0. -1.
          1   -1    0    0  501    0 -0.00000000000E+00 -0.00000000000E+00 -0.12497028175E+04  0.12497028175E+04  0.00000000000E+00 0. -1.
          2    1    1    2  501    0 -0.42728595918E+01  0.21248618268E+02 -0.52219195739E+03  0.52264156118E+03  0.00000000000E+00 0. -1.
          1    1    1    2  502    0  0.42728595918E+01 -0.21248618268E+02 -0.72712458079E+03  0.72744753564E+03  0.00000000000E+00 0. -1.
</event>
<event>
 4    1  0.3837333E+003  0.2478529E+02  0.7546771E-02  0.1471220E+00
          2   -1    0    0  502    0  0.00000000000E+00  0.00000000000E+00  0.29981747854E+03  0.29981747854E+03  0.00000000000E+00 0. -1.
          1   -1    0    0  501    0 -0.00000000000E+00 -0.00000000000E+00 -0.23929656394E+01  0.23929656394E+01  0.00000000000E+00 0. -1.
          2    1    1    2  501    0  0.36910500214E+00 -0.24782543482E+02  0.20600518408E+03  0.20749083490E+03  0.00000000000E+00 0. -1.
          1    1    1    2  502    0 -0.36910500214E+00  0.24782543482E+02  0.91419328824E+02  0.94719609282E+02  0.00000000000E+00 0. -1.
</event>
<event>
 4    1  0.3837333E+003  0.7933147E+02  0.7546771E-02  0.1205408E+00
          2   -1    0    0  502    0  0.00000000000E+00  0.00000000000E+00  0.10981627217E+04  0.10981627217E+04  0.00000000000E+00 0.  1.
          1   -1    0    0  501    0 -0.00000000000E+00 -0.00000000000E+00 -0.76069395585E+02  0.76069395585E+02  0.00000000000E+00 0. -1.
          2    1    1    2  501    0  0.31034420850E+02 -0.73009227086E+02  0.10756136159E+04  0.10785351794E+04  0.00000000000E+00 0.  1.
          1    1    1    2  502    0 -0.31034420850E+02  0.73009227086E+02 -0.53520289727E+02  0.95696937932E+02  0.00000000000E+00 0. -1.
</event>
<event>
 4    1  0.3837333E+003  0.2211456E+02  0.7546771E-02  0.1503926E+00
          2   -1    0    0  502    0  0.00000000000E+00  0.00000000000E+00  0.10941782067E+04  0.10941782067E+04  0.00000000000E+00 0. -1.
          1   -1    0    0  501    0 -0.00000000000E+00 -0.00000000000E+00 -0.15724114926E+03  0.15724114926E+03  0.00000000000E+00 0.  1.
          2    1    1    2  501    0  0.12214864795E+02 -0.18435043840E+02  0.10932882802E+04  0.10935119191E+04  0.00000000000E+00 0. -1.
          1    1    1    2  502    0 -0.12214864795E+02  0.18435043840E+02 -0.15635122271E+03  0.15790743683E+03  0.00000000000E+00 0.  1.
</event>
<event>
 4    1  0.3837333E+003  0.2034681E+02  0.7546771E-02  0.1528798E+00
          2   -1    0    0  502    0  0.00000000000E+00  0.00000000000E+00  0.15435450075E+01  0.15435450075E+01  0.00000000000E+00 0. -1.
          1   -1    0    0  501    0 -0.00000000000E+00 -0.00000000000E+00 -0.70017924474E+03  0.70017924474E+03  0.00000000000E+00 0.  1.
          2    1    1    2  501    0  0.14142677871E+02 -0.14627967514E+02 -0.73731406348E+02  0.76487339168E+02  0.00000000000E+00 0. -1.
          1    1    1    2  502    0 -0.14142677871E+02  0.14627967514E+02 -0.62490429339E+03  0.62523545058E+03  0.00000000000E+00 0.  1.
</event>
<event>
 4    1  0.3837333E+003  0.2756957E+02  0.7546771E-02  0.1441969E+00
          2   -1    0    0  502    0  0.00000000000E+00  0.00000000000E+00  0.31592446554E+02  0.31592446554E+02  0.00000000000E+00 0.  1.
          1   -1    0    0  501    0 -0.00000000000E+00 -0.00000000000E+00 -0.30591930697E+03  0.30591930697E+03  0.00000000000E+00 0.  1.
          2    1    1    2  501    0 -0.13139174784E+02 -0.24237225822E+02  0.24820697901E+02  0.37096469830E+02  0.00000000000E+00 0.  1.
          1    1    1    2  502    0  0.13139174784E+02  0.24237225822E+02 -0.29914755832E+03  0.30041528369E+03  0.00000000000E+00 0.  1.
</event>
<event>
 4    1  0.3837333E+003  0.3198682E+02  0.7546771E-02  0.1403082E+00
          2   -1    0    0  502    0  0.00000000000E+00  0.00000000000E+00  0.16021119177E+04  0.16021119177E+04  0.00000000000E+00 0.  1.
          1   -1    0    0  501    0 -0.00000000000E+00 -0.00000000000E+00 -0.11784870848E+01  0.11784870848E+01  0.00000000000E+00 0. -1.
          2    1    1    2  501    0  0.29906023963E+02 -0.11348402244E+02  0.13430410478E+04  0.13434219041E+04  0.00000000000E+00 0.  1.
          1    1    1    2  502    0 -0.29906023963E+02  0.11348402244E+02  0.25789238286E+03  0.25986850067E+03  0.00000000000E+00 0. -1.
</event>
<event>
 4    1  0.3837333E+003  0.2593212E+02  0.7546771E-02  0.1458640E+00
          2   -1    0    0  502    0  0.00000000000E+00  0.00000000000E+00  0.68043869096E+03  0.68043869096E+03  0.00000000000E+00 0.  1.
          1   -1    0    0  501    0 -0.00000000000E+00 -0.00000000000E+00 -0.13322047988E+01  0.13322047988E+01  0.00000000000E+00 0. -1.
          2    1    1    2  501    0  0.23428702031E+02 -0.11116239415E+02  0.51275192762E+03  0.51340725953E+03  0.00000000000E+00 0.  1.
          1    1    1    2  502    0 -0.23428702031E+02  0.11116239415E+02  0.16635455855E+03  0.16836363624E+03  0.00000000000E+00 0. -1.
</event>
<event>
 4    1  0.3837333E+003  0.2176934E+02  0.7546771E-02  0.1508558E+00
          2   -1    0    0  502    0  0.00000000000E+00  0.00000000000E+00  0.30000558709E+02  0.30000558709E+02  0.00000000000E+00 0.  1.
          1   -1    0    0  501    0 -0.00000000000E+00 -0.00000000000E+00 -0.48844714007E+02  0.48844714007E+02  0.00000000000E+00 0. -1.
          2    1    1    2  501    0  0.20744404379E+02  0.66010353114E+01  0.23005226258E+02  0.31672455153E+02  0.00000000000E+00 0.  1.
          1    1    1    2  502    0 -0.20744404379E+02 -0.66010353114E+01 -0.41849381556E+02  0.47172817563E+02  0.00000000000E+00 0. -1.
</event>
<event>
 4    1  0.3837333E+003  0.2182062E+02  0.7546771E-02  0.1507864E+00
          2   -1    0    0  502    0  0.00000000000E+00  0.00000000000E+00  0.73289249771E+03  0.73289249771E+03  0.00000000000E+00 0.  1.
          1   -1    0    0  501    0 -0.00000000000E+00 -0.00000000000E+00 -0.55092526512E+03  0.55092526512E+03  0.00000000000E+00 0.  1.
          2    1    1    2  501    0  0.14973882616E+02  0.15872054627E+02  0.73251390476E+03  0.73283883627E+03  0.00000000000E+00 0.  1.
          1    1    1    2  502    0 -0.14973882616E+02 -0.15872054627E+02 -0.55054667217E+03  0.55097892656E+03  0.00000000000E+00 0.  1.
</event>
<event>
 4    1  0.3837333E+003  0.2018181E+02  0.7546771E-02  0.1531274E+00
          2   -1    0    0  502    0  0.00000000000E+00  0.00000000000E+00  0.12284617246E+02  0.12284617246E+02  0.00000000000E+00 0.  1.
          1   -1    0    0  501    0 -0.00000000000E+00 -0.00000000000E+00 -0.33165725822E+02  0.33165725822E+02  0.00000000000E+00 0.  1.
          2    1    1    2  501    0  0.78540815306E+00  0.20166524511E+02 -0.10046231586E+02  0.22544009091E+02  0.00000000000E+00 0.  1.
          1    1    1    2  502    0 -0.78540815306E+00 -0.20166524511E+02 -0.10834876990E+02  0.22906333976E+02  0.00000000000E+00 0.  1.
</event>
<event>
 4    1  0.3837333E+003  0.2360760E+02  0.7546771E-02  0.1485006E+00
          2   -1    0    0  502    0  0.00000000000E+00  0.00000000000E+00  0.15224406171E+02  0.15224406171E+02  0.00000000000E+00 0. -1.
          1   -1    0    0  501    0 -0.00000000000E+00 -0.00000000000E+00 -0.53474158157E+02  0.53474158157E+02  0.00000000000E+00 0. -1.
          2    1    1    2  501    0  0.23437226145E+02  0.28311321935E+01  0.16668880441E+00  0.23608190613E+02  0.00000000000E+00 0. -1.
          1    1    1    2  502    0 -0.23437226145E+02 -0.28311321935E+01 -0.38416440790E+02  0.45090373716E+02  0.00000000000E+00 0. -1.
</event>
<event>
 4    1  0.3837333E+003  0.2091712E+02  0.7546771E-02  0.1520451E+00
          2   -1    0    0  502    0  0.00000000000E+00  0.00000000000E+00  0.22115722662E+03  0.22115722662E+03  0.00000000000E+00 0.  1.
          1   -1    0    0  501    0 -0.00000000000E+00 -0.00000000000E+00 -0.35304041753E+01  0.35304041753E+01  0.00000000000E+00 0. -1.
          2    1    1    2  501    0 -0.15109372382E+01 -0.20862478652E+02  0.18330216006E+03  0.18449175545E+03  0.00000000000E+00 0.  1.
          1    1    1    2  502    0  0.15109372382E+01  0.20862478652E+02  0.34324662385E+02  0.40195875344E+02  0.00000000000E+00 0. -1.
</event>
<event>
 4    1  0.3837333E+003  0.2038724E+02  0.7546771E-02  0.1528196E+00
          2   -1    0    0  502    0  0.00000000000E+00  0.00000000000E+00  0.11577873495E+03  0.11577873495E+03  0.00000000000E+00 0.  1.
          1   -1    0    0  501    0 -0.00000000000E+00 -0.00000000000E+00 -0.38429579804E+02  0.38429579804E+02  0.00000000000E+00 0. -1.
          2    1    1    2  501    0 -0.19924967359E+02 -0.43168341991E+01  0.11208906477E+03  0.11392803792E+03  0.00000000000E+00 0.  1.
          1    1    1    2  502    0  0.19924967359E+02  0.43168341991E+01 -0.34739909623E+02  0.40280276841E+02  0.00000000000E+00 0. -1.
</event>
<event>
 4    1  0.3837333E+003  0.2423702E+02  0.7546771E-02  0.1477523E+00
          2   -1    0    0  502    0  0.00000000000E+00  0.00000000000E+00  0.59730026250E+03  0.59730026250E+03  0.00000000000E+00 0.  1.
          1   -1    0    0  501    0 -0.00000000000E+00 -0.00000000000E+00 -0.22308150097E+02  0.22308150097E+02  0.00000000000E+00 0.  1.
          2    1    1    2  501    0  0.22680184105E+02  0.85464841535E+01  0.59039425225E+03  0.59089153508E+03  0.00000000000E+00 0.  1.
          1    1    1    2  502    0 -0.22680184105E+02 -0.85464841535E+01 -0.15402139845E+02  0.28716877515E+02  0.00000000000E+00 0.  1.
</event>
<event>
 4    1  0.3837333E+003  0.3066766E+02  0.7546771E-02  0.1413882E+00
          2   -1    0    0  502    0  0.00000000000E+00  0.00000000000E+00  0.28056685027E+03  0.28056685027E+03  0.00000000000E+00 0.  1.
          1   -1    0    0  501    0 -0.00000000000E+00 -0.00000000000E+00 -0.36627384593E+01  0.36627384593E+01  0.00000000000E+00 0.  1.
          2    1    1    2  501    0  0.65273650721E+01  0.29964942569E+02  0.97068887932E+02  0.10179819882E+03  0.00000000000E+00 0.  1.
          1    1    1    2  502    0 -0.65273650721E+01 -0.29964942569E+02  0.17983522388E+03  0.18243138992E+03  0.00000000000E+00 0.  1.
</event>
<event>
 4    1  0.3837333E+003  0.3252138E+02  0.7546771E-02  0.1398879E+00
          2   -1    0    0  502    0  0.00000000000E+00  0.00000000000E+00  0.46723098996E+02  0.46723098996E+02  0.00000000000E+00 0. -1.
          1   -1    0    0  501    0 -0.00000000000E+00 -0.00000000000E+00 -0.29863015677E+03  0.29863015677E+03  0.00000000000E+00 0.  1.
          2    1    1    2  501    0 -0.30548157427E+02 -0.11155716398E+02  0.40049649917E+02  0.51590836289E+02  0.00000000000E+00 0. -1.
          1    1    1    2  502    0  0.30548157427E+02  0.11155716398E+02 -0.29195670769E+03  0.29376241948E+03  0.00000000000E+00 0.  1.
</event>
<event>
 4    1  0.3837333E+003  0.2430778E+02  0.7546771E-02  0.1476698E+00
          2   -1    0    0  502    0  0.00000000000E+00  0.00000000000E+00  0.54287326859E+03  0.54287326859E+03  0.00000000000E+00 0.  1.
          1   -1    0    0  501    0 -0.00000000000E+00 -0.00000000000E+00 -0.13634932924E+01  0.13634932924E+01  0.00000000000E+00 0.  1.
          2    1    1    2  501    0  0.19562089544E+02 -0.14428883311E+02  0.39298113029E+03  0.39373218917E+03  0.00000000000E+00 0.  1.
          1    1    1    2  502    0 -0.19562089544E+02  0.14428883311E+02  0.14852864501E+03  0.15050457272E+03  0.00000000000E+00 0.  1.
</event>
<event>
 4    1  0.3837333E+003  0.2447212E+02  0.7546771E-02  0.1474796E+00
          2   -1    0    0  502    0  0.00000000000E+00  0.00000000000E+00  0.16662873948E+04  0.16662873948E+04  0.00000000000E+00 0. -1.
          1   -1    0    0  501    0 -0.00000000000E+00 -0.00000000000E+00 -0.20831434502E+03  0.20831434502E+03  0.00000000000E+00 0. -1.
          2    1    1    2  501    0 -0.16763326393E+02 -0.17829070299E+02  0.16654784652E+04  0.16656582492E+04  0.00000000000E+00 0. -1.
          1    1    1    2  502    0  0.16763326393E+02  0.17829070299E+02 -0.20750541543E+03  0.20894349067E+03  0.00000000000E+00 0. -1.
</event>
<event>
 4    1  0.3837333E+003  0.2303659E+02  0.7546771E-02  0.1492039E+00
          2   -1    0    0  502    0  0.00000000000E+00  0.00000000000E+00  0.11209131347E+01  0.11209131347E+01  0.00000000000E+00 0.  1.
          1   -1    0    0  501    0 -0.00000000000E+00 -0.00000000000E+00 -0.66801143336E+03  0.66801143336E+03  0.00000000000E+00 0.  1.
          2    1    1    2  501    0 -0.14158881619E+02 -0.18171699018E+02 -0.15288167945E+03  0.15460754343E+03  0.00000000000E+00 0.  1.
          1    1    1    2  502    0  0.14158881619E+02  0.18171699018E+02 -0.51400884078E+03  0.51452480307E+03  0.00000000000E+00 0.  1.
</event>
<event>
 4    1  0.3837333E+003  0.2661545E+02  0.7546771E-02  0.1451510E+00
          2   -1    0    0  502    0  0.00000000000E+00  0.00000000000E+00  0.73340262335E+03  0.73340262335E+03  0.00000000000E+00 0. -1.
          1   -1    0    0  501    0 -0.00000000000E+00 -0.00000000000E+00 -0.43493062969E+01  0.43493062969E+01  0.00000000000E+00 0. -1.
          2    1    1    2  501    0 -0.19511758562E+01  0.26543830821E+02  0.68987488911E+03  0.69038811162E+03  0.00000000000E+00 0. -1.
          1    1    1    2  502    0  0.19511758562E+01 -0.26543830821E+02  0.39178427938E+02  0.47363818022E+02  0.00000000000E+00 0. -1.
</event>
<event>
 4    1  0.3837333E+003  0.3172498E+02  0.7546771E-02  0.1405176E+00
          2   -1    0    0  502    0  0.00000000000E+00  0.00000000000E+00  0.14223636987E+02  0.14223636987E+02  0.00000000000E+00 0.  1.
          1   -1    0    0  501    0 -0.00000000000E+00 -0.00000000000E+00 -0.49787258772E+03  0.49787258772E+03  0.00000000000E+00 0.  1.
          2    1    1    2  501    0 -0.63219783843E+01  0.31088690508E+02 -0.46689128487E+01  0.32066693553E+02  0.00000000000E+00 0.  1.
          1    1    1    2  502    0  0.63219783843E+01 -0.31088690508E+02 -0.47898003788E+03  0.48002953115E+03  0.00000000000E+00 0.  1.
</event>
<event>
 4    1  0.3837333E+003  0.2262745E+02  0.7546771E-02  0.1497230E+00
          2   -1    0    0  502    0  0.00000000000E+00  0.00000000000E+00  0.69834317445E+02  0.69834317445E+02  0.00000000000E+00 0.  1.
          1   -1    0    0  501    0 -0.00000000000E+00 -0.00000000000E+00 -0.42115744468E+02  0.42115744468E+02  0.00000000000E+00 0.  1.
          2    1    1    2  501    0 -0.15793619753E+02 -0.16203793988E+02  0.64729364020E+02  0.68570342940E+02  0.00000000000E+00 0.  1.
          1    1    1    2  502    0  0.15793619753E+02  0.16203793988E+02 -0.37010791043E+02  0.43379718972E+02  0.00000000000E+00 0.  1.
</event>
<event>
 4    1  0.3837333E+003  0.2078896E+02  0.7546771E-02  0.1522299E+00
          2   -1    0    0  502    0  0.00000000000E+00  0.00000000000E+00  0.17107875656E+03  0.17107875656E+03  0.00000000000E+00 0.  1.
          1   -1    0    0  501    0 -0.00000000000E+00 -0.00000000000E+00 -0.15856116241E+02  0.15856116241E+02  0.00000000000E+00 0.  1.
          2    1    1    2  501    0 -0.20351739391E+02  0.42411675125E+01  0.16331026494E+03  0.16462813682E+03  0.00000000000E+00 0.  1.
          1    1    1    2  502    0  0.20351739391E+02 -0.42411675125E+01 -0.80876246209E+01  0.22306735981E+02  0.00000000000E+00 0.  1.
</event>
<event>
 4    1  0.3837333E+003  0.3117150E+02  0.7546771E-02  0.1409682E+00
          2   -1    0    0  502    0  0.00000000000E+00  0.00000000000E+00  0.32451941341E+02  0.32451941341E+02  0.00000000000E+00 0.  1.
          1   -1    0    0  501    0 -0.00000000000E+00 -0.00000000000E+00 -0.10777610668E+03  0.10777610668E+03  0.00000000000E+00 0.  1.
          2    1    1    2  501    0 -0.29617859324E+02  0.97182574509E+01  0.21921939407E+02  0.38108182142E+02  0.00000000000E+00 0.  1.
          1    1    1    2  502    0  0.29617859324E+02 -0.97182574509E+01 -0.97246104744E+02  0.10211986588E+03  0.00000000000E+00 0.  1.
</event>
<event>
 4    1  0.3837333E+003  0.2368893E+02  0.7546771E-02  0.1484024E+00
          2   -1    0    0  502    0  0.00000000000E+00  0.00000000000E+00  0.47830728317E+03  0.47830728317E+03  0.00000000000E+00 0. -1.
          1   -1    0    0  501    0 -0.00000000000E+00 -0.00000000000E+00 -0.19297787139E+01  0.19297787139E+01  0.00000000000E+00 0.  1.
          2    1    1    2  501    0 -0.18798979103E+02 -0.14414009737E+02  0.38853405620E+03  0.38925554347E+03  0.00000000000E+00 0. -1.
          1    1    1    2  502    0  0.18798979103E+02  0.14414009737E+02  0.87843448249E+02  0.90981518411E+02  0.00000000000E+00 0.  1.
</event>
<event>
 4    1  0.3837333E+003  0.2095465E+02  0.7546771E-02  0.1519913E+00
          2   -1    0    0  502    0  0.00000000000E+00  0.00000000000E+00  0.45707421419E+02  0.45707421419E+02  0.00000000000E+00 0. -1.
          1   -1    0    0  501    0 -0.00000000000E+00 -0.00000000000E+00 -0.11923641597E+02  0.11923641597E+02  0.00000000000E+00 0. -1.
          2    1    1    2  501    0  0.15474475005E+02 -0.14129334913E+02  0.29594112785E+02  0.36261673890E+02  0.00000000000E+00 0. -1.
          1    1    1    2  502    0 -0.15474475005E+02  0.14129334913E+02  0.41896670373E+01  0.21369389127E+02  0.00000000000E+00 0. -1.
</event>
<event>
 4    1  0.3837333E+003  0.2661228E+02  0.7546771E-02  0.1451542E+00
          2   -1    0    0  502    0  0.00000000000E+00  0.00000000000E+00  0.13845428661E+04  0.13845428661E+04  0.00000000000E+00 0. -1.
          1   -1    0    0  501    0 -0.00000000000E+00 -0.00000000000E+00 -0.98916696446E+01  0.98916696446E+01  0.00000000000E+00 0. -1.
          2    1    1    2  501    0 -0.25817756383E+02  0.64542022498E+01  0.13662764721E+04  0.13665356239E+04  0.00000000000E+00 0. -1.
          1    1    1    2  502    0  0.25817756383E+02 -0.64542022498E+01  0.83747243353E+01  0.27898911789E+02  0.00000000000E+00 0. -1.
</event>
<event>
 4    1  0.3837333E+003  0.3395269E+02  0.7546771E-02  0.1388079E+00
          2   -1    0    0  502    0  0.00000000000E+00  0.00000000000E+00  0.28388292175E+04  0.28388292175E+04  0.00000000000E+00 0. -1.
          1   -1    0    0  501    0 -0.00000000000E+00 -0.00000000000E+00 -0.86465606571E+00  0.86465606571E+00  0.00000000000E+00 0.  1.
          2    1    1    2  501    0  0.33652468577E+02 -0.45051292586E+01  0.24529969067E+04  0.24532318702E+04  0.00000000000E+00 0. -1.
          1    1    1    2  502    0 -0.33652468577E+02  0.45051292586E+01  0.38496765478E+03  0.38646200338E+03  0.00000000000E+00 0.  1.
</event>
