<event>
 4    1  0.2285999E+005  0.2202171E+02  0.7546771E-02  0.1505162E+00
          2   -1    0    0  503    0  0.00000000000E+00  0.00000000000E+00  0.52257792589E+02  0.52257792589E+02  0.00000000000E+00 0.  1.
         21   -1    0    0  501  502 -0.00000000000E+00 -0.00000000000E+00 -0.15295946762E+03  0.15295946762E+03  0.00000000000E+00 0. -1.
          2    1    1    2  501    0 -0.45491136667E+00  0.22017012833E+02  0.49096454622E+02  0.53809085245E+02  0.00000000000E+00 0.  1.
         21    1    1    2  503  502  0.45491136667E+00 -0.22017012833E+02 -0.14979812965E+03  0.15140817496E+03  0.00000000000E+00 0. -1.
</event>
<event>
 4    1  0.2285999E+005  0.2058922E+02  0.7546771E-02  0.1525211E+00
          2   -1    0    0  503    0  0.00000000000E+00  0.00000000000E+00  0.10880819375E+03  0.10880819375E+03  0.00000000000E+00 0. -1.
         21   -1    0    0  501  502 -0.00000000000E+00 -0.00000000000E+00 -0.84451623802E+01  0.84451623802E+01  0.00000000000E+00 0.  1.
          2    1    1    2  501    0  0.20219121701E+02 -0.38862452642E+01  0.93210135468E+02  0.95457032945E+02  0.00000000000E+00 0. -1.
         21    1    1    2  503  502 -0.20219121701E+02  0.38862452642E+01  0.71528959011E+01  0.21796323185E+02  0.00000000000E+00 0.  1.
</event>
<event>
 4    1  0.2285999E+005  0.2919271E+02  0.7546771E-02  0.1426744E+00
          2   -1    0    0  503    0  0.00000000000E+00  0.00000000000E+00  0.11915251476E+04  0.11915251476E+04  0.00000000000E+00 0.  1.
         21   -1    0    0  501  502 -0.00000000000E+00 -0.00000000000E+00 -0.78634978453E+00  0.78634978453E+00  0.00000000000E+00 0.  1.
          2    1    1    2  501    0 -0.28582170524E+02  0.59391565241E+01  0.77465619010E+03  0.77520605449E+03  0.00000000000E+00 0.  1.
         21    1    1    2  503  502  0.28582170524E+02 -0.59391565241E+01  0.41608260776E+03  0.41710544294E+03  0.00000000000E+00 0.  1.
</event>
<event>
 4    1  0.2285999E+005  0.4046954E+02  0.7546771E-02  0.1345756E+00
          2   -1    0    0  502    0  0.00000000000E+00  0.00000000000E+00  0.16747191345E+04  0.16747191345E+04  0.00000000000E+00 0.  1.
         21   -1    0    0  503  502 -0.00000000000E+00 -0.00000000000E+00 -0.10544694898E+01  0.10544694898E+01  0.00000000000E+00 0.  1.
          2    1    1    2  501    0  0.40135771122E+02 -0.51868915300E+01  0.10625508913E+04  0.10633212970E+04  0.00000000000E+00 0.  1.
         21    1    1    2  503  501 -0.40135771122E+02  0.51868915300E+01  0.61111377370E+03  0.61245230702E+03  0.00000000000E+00 0.  1.
</event>
<event>
 4    1  0.2285999E+005  0.6960674E+02  0.7546771E-02  0.1230278E+00
          2   -1    0    0  502    0  0.00000000000E+00  0.00000000000E+00  0.16015148007E+04  0.16015148007E+04  0.00000000000E+00 0. -1.
         21   -1    0    0  503  502 -0.00000000000E+00 -0.00000000000E+00 -0.66866338875E+01  0.66866338875E+01  0.00000000000E+00 0. -1.
          2    1    1    2  501    0 -0.17205604119E+02  0.67446759416E+02  0.13924251348E+04  0.13941638548E+04  0.00000000000E+00 0. -1.
         21    1    1    2  503  501  0.17205604119E+02 -0.67446759416E+02  0.20240303202E+03  0.21403757973E+03  0.00000000000E+00 0. -1.
</event>
<event>
 4    1  0.2285999E+005  0.2437449E+02  0.7546771E-02  0.1475924E+00
          2   -1    0    0  502    0  0.00000000000E+00  0.00000000000E+00  0.10158013583E+04  0.10158013583E+04  0.00000000000E+00 0.  1.
         21   -1    0    0  503  502 -0.00000000000E+00 -0.00000000000E+00 -0.15551135123E+01  0.15551135123E+01  0.00000000000E+00 0.  1.
          2    1    1    2  501    0 -0.21540242231E+02 -0.11407624428E+02  0.90891537604E+03  0.90924214417E+03  0.00000000000E+00 0.  1.
         21    1    1    2  503  501  0.21540242231E+02  0.11407624428E+02  0.10533086871E+03  0.10811432760E+03  0.00000000000E+00 0.  1.
</event>
<event>
 4    1  0.2285999E+005  0.2064676E+02  0.7546771E-02  0.1524368E+00
          2   -1    0    0  502    0  0.00000000000E+00  0.00000000000E+00  0.73765423092E+03  0.73765423092E+03  0.00000000000E+00 0.  1.
         21   -1    0    0  503  502 -0.00000000000E+00 -0.00000000000E+00 -0.41244248213E+01  0.41244248213E+01  0.00000000000E+00 0.  1.
          2    1    1    2  501    0  0.20608158712E+02 -0.12619630134E+01  0.71069032412E+03  0.71099017261E+03  0.00000000000E+00 0.  1.
         21    1    1    2  503  501 -0.20608158712E+02  0.12619630134E+01  0.22839481974E+02  0.30788483122E+02  0.00000000000E+00 0.  1.
</event>
<event>
 4    1  0.2285999E+005  0.4394206E+02  0.7546771E-02  0.1326815E+00
          2   -1    0    0  502    0  0.00000000000E+00  0.00000000000E+00  0.56864108218E+03  0.56864108218E+03  0.00000000000E+00 0.  1.
         21   -1    0    0  503  502 -0.00000000000E+00 -0.00000000000E+00 -0.10407557495E+02  0.10407557495E+02  0.00000000000E+00 0.  1.
          2    1    1    2  501    0 -0.10625015352E+02  0.42638167344E+02  0.51676184321E+03  0.51862675101E+03  0.00000000000E+00 0.  1.
         21    1    1    2  503  501  0.10625015352E+02 -0.42638167344E+02  0.41471681482E+02  0.60421888671E+02  0.00000000000E+00 0.  1.
</event>
<event>
 4    1  0.2285999E+005  0.4746276E+02  0.7546771E-02  0.1309564E+00
          2   -1    0    0  503    0  0.00000000000E+00  0.00000000000E+00  0.62856260079E+02  0.62856260079E+02  0.00000000000E+00 0.  1.
         21   -1    0    0  501  502 -0.00000000000E+00 -0.00000000000E+00 -0.10969288780E+03  0.10969288780E+03  0.00000000000E+00 0.  1.
          2    1    1    2  501    0 -0.29288322404E+02 -0.37348467131E+02  0.47372984906E+02  0.67059030154E+02  0.00000000000E+00 0.  1.
         21    1    1    2  503  502  0.29288322404E+02  0.37348467131E+02 -0.94209612623E+02  0.10549011772E+03  0.00000000000E+00 0.  1.
</event>
<event>
 4    1  0.2285999E+005  0.2297974E+02  0.7546771E-02  0.1492753E+00
          2   -1    0    0  502    0  0.00000000000E+00  0.00000000000E+00  0.18722837917E+01  0.18722837917E+01  0.00000000000E+00 0.  1.
         21   -1    0    0  503  502 -0.00000000000E+00 -0.00000000000E+00 -0.16629392209E+04  0.16629392209E+04  0.00000000000E+00 0. -1.
          2    1    1    2  501    0 -0.12680602846E+02 -0.19164312870E+02 -0.71995951271E+02  0.75574371157E+02  0.00000000000E+00 0.  1.
         21    1    1    2  503  501  0.12680602846E+02  0.19164312870E+02 -0.15890709858E+04  0.15892371335E+04  0.00000000000E+00 0. -1.
</event>
<event>
 4    1  0.2285999E+005  0.2305031E+02  0.7546771E-02  0.1491867E+00
          2   -1    0    0  502    0  0.00000000000E+00  0.00000000000E+00  0.94010300878E+02  0.94010300878E+02  0.00000000000E+00 0. -1.
         21   -1    0    0  503  502 -0.00000000000E+00 -0.00000000000E+00 -0.16670440075E+02  0.16670440075E+02  0.00000000000E+00 0.  1.
          2    1    1    2  501    0 -0.91656819443E+01  0.21149640429E+02  0.83661869285E+02  0.86779176004E+02  0.00000000000E+00 0. -1.
         21    1    1    2  503  501  0.91656819443E+01 -0.21149640429E+02 -0.63220084817E+01  0.23901564949E+02  0.00000000000E+00 0.  1.
</event>
<event>
 4    1  0.2285999E+005  0.2045309E+02  0.7546771E-02  0.1527218E+00
          2   -1    0    0  503    0  0.00000000000E+00  0.00000000000E+00  0.11077534095E+03  0.11077534095E+03  0.00000000000E+00 0.  1.
         21   -1    0    0  501  502 -0.00000000000E+00 -0.00000000000E+00 -0.23723219621E+03  0.23723219621E+03  0.00000000000E+00 0.  1.
          2    1    1    2  501    0 -0.63363954254E+01  0.19446827697E+02  0.10938484843E+03  0.11128060964E+03  0.00000000000E+00 0.  1.
         21    1    1    2  503  502  0.63363954254E+01 -0.19446827697E+02 -0.23584170369E+03  0.23672692752E+03  0.00000000000E+00 0.  1.
</event>
<event>
 4    1  0.2285999E+005  0.2819069E+02  0.7546771E-02  0.1436001E+00
          2   -1    0    0  503    0  0.00000000000E+00  0.00000000000E+00  0.43237814127E+03  0.43237814127E+03  0.00000000000E+00 0.  1.
         21   -1    0    0  501  502 -0.00000000000E+00 -0.00000000000E+00 -0.30387958379E+01  0.30387958379E+01  0.00000000000E+00 0. -1.
          2    1    1    2  501    0  0.26010958902E+02  0.10869457709E+02  0.35152365709E+03  0.35265223179E+03  0.00000000000E+00 0.  1.
         21    1    1    2  503  502 -0.26010958902E+02 -0.10869457709E+02  0.77815688344E+02  0.82764705318E+02  0.00000000000E+00 0. -1.
</event>
<event>
 4    1  0.2285999E+005  0.3471232E+02  0.7546771E-02  0.1382597E+00
          2   -1    0    0  503    0  0.00000000000E+00  0.00000000000E+00  0.29158147037E+03  0.29158147037E+03  0.00000000000E+00 0. -1.
         21   -1    0    0  501  502 -0.00000000000E+00 -0.00000000000E+00 -0.33677560239E+03  0.33677560239E+03  0.00000000000E+00 0.  1.
          2    1    1    2  501    0  0.33124038490E+01 -0.34553916854E+02  0.28964793686E+03  0.29172053839E+03  0.00000000000E+00 0. -1.
         21    1    1    2  503  502 -0.33124038490E+01  0.34553916854E+02 -0.33484206887E+03  0.33663653437E+03  0.00000000000E+00 0.  1.
</event>
<event>
 4    1  0.2285999E+005  0.3571264E+02  0.7546771E-02  0.1375621E+00
          2   -1    0    0  502    0  0.00000000000E+00  0.00000000000E+00  0.17054924607E+04  0.17054924607E+04  0.00000000000E+00 0.  1.
         21   -1    0    0  503  502 -0.00000000000E+00 -0.00000000000E+00 -0.24377369769E+01  0.24377369769E+01  0.00000000000E+00 0.  1.
          2    1    1    2  501    0 -0.18411833100E+02  0.30600604791E+02  0.15625444585E+04  0.15629525192E+04  0.00000000000E+00 0.  1.
         21    1    1    2  503  501  0.18411833100E+02 -0.30600604791E+02  0.14051026523E+03  0.14497767844E+03  0.00000000000E+00 0.  1.
</event>
<event>
 4    1  0.2285999E+005  0.2145012E+02  0.7546771E-02  0.1512934E+00
          2   -1    0    0  503    0  0.00000000000E+00  0.00000000000E+00  0.14979004130E+04  0.14979004130E+04  0.00000000000E+00 0.  1.
         21   -1    0    0  501  502 -0.00000000000E+00 -0.00000000000E+00 -0.14800636548E+01  0.14800636548E+01  0.00000000000E+00 0.  1.
          2    1    1    2  501    0 -0.17703077823E+02 -0.12112342486E+02  0.14155872084E+04  0.14157497139E+04  0.00000000000E+00 0.  1.
         21    1    1    2  503  502  0.17703077823E+02  0.12112342486E+02  0.80833140945E+02  0.83630762761E+02  0.00000000000E+00 0.  1.
</event>
<event>
 4    1  0.2285999E+005  0.2603170E+02  0.7546771E-02  0.1457585E+00
          2   -1    0    0  502    0  0.00000000000E+00  0.00000000000E+00  0.12154336289E+03  0.12154336289E+03  0.00000000000E+00 0. -1.
         21   -1    0    0  503  502 -0.00000000000E+00 -0.00000000000E+00 -0.60226061983E+01  0.60226061983E+01  0.00000000000E+00 0. -1.
          2    1    1    2  501    0  0.18098993823E+02 -0.18710310627E+02  0.75141618070E+02  0.79523028535E+02  0.00000000000E+00 0. -1.
         21    1    1    2  503  501 -0.18098993823E+02  0.18710310627E+02  0.40379138619E+02  0.48042940551E+02  0.00000000000E+00 0. -1.
</event>
<event>
 4    1  0.2285999E+005  0.4134766E+02  0.7546771E-02  0.1340765E+00
          2   -1    0    0  502    0  0.00000000000E+00  0.00000000000E+00  0.15890734133E+04  0.15890734133E+04  0.00000000000E+00 0. -1.
         21   -1    0    0  503  502 -0.00000000000E+00 -0.00000000000E+00 -0.44272836521E+01  0.44272836521E+01  0.00000000000E+00 0. -1.
          2    1    1    2  501    0  0.19235218483E+02 -0.36601030689E+02  0.14855379898E+04  0.14861133026E+04  0.00000000000E+00 0. -1.
         21    1    1    2  503  501 -0.19235218483E+02  0.36601030689E+02  0.99108139828E+02  0.10738739431E+03  0.00000000000E+00 0. -1.
</event>
<event>
 4    1  0.2285999E+005  0.2012617E+02  0.7546771E-02  0.1532116E+00
          2   -1    0    0  502    0  0.00000000000E+00  0.00000000000E+00  0.25624705713E+03  0.25624705713E+03  0.00000000000E+00 0.  1.
         21   -1    0    0  503  502 -0.00000000000E+00 -0.00000000000E+00 -0.75577101281E+01  0.75577101281E+01  0.00000000000E+00 0.  1.
          2    1    1    2  501    0  0.19184694435E+02  0.60836156438E+01  0.24164457812E+03  0.24248126735E+03  0.00000000000E+00 0.  1.
         21    1    1    2  503  501 -0.19184694435E+02 -0.60836156438E+01  0.70447688831E+01  0.21323499911E+02  0.00000000000E+00 0.  1.
</event>
<event>
 4    1  0.2285999E+005  0.4607456E+02  0.7546771E-02  0.1316152E+00
          2   -1    0    0  502    0  0.00000000000E+00  0.00000000000E+00  0.66483581527E+03  0.66483581527E+03  0.00000000000E+00 0.  1.
         21   -1    0    0  503  502 -0.00000000000E+00 -0.00000000000E+00 -0.36627671598E+01  0.36627671598E+01  0.00000000000E+00 0.  1.
          2    1    1    2  501    0  0.17780289967E+02  0.42505607426E+02  0.45028156103E+03  0.45263268726E+03  0.00000000000E+00 0.  1.
         21    1    1    2  503  501 -0.17780289967E+02 -0.42505607426E+02  0.21089148708E+03  0.21586589517E+03  0.00000000000E+00 0.  1.
</event>
<event>
 4    1  0.2285999E+005  0.2163453E+02  0.7546771E-02  0.1510395E+00
          2   -1    0    0  503    0  0.00000000000E+00  0.00000000000E+00  0.16378970101E+02  0.16378970101E+02  0.00000000000E+00 0. -1.
         21   -1    0    0  501  502 -0.00000000000E+00 -0.00000000000E+00 -0.50115685063E+02  0.50115685063E+02  0.00000000000E+00 0. -1.
          2    1    1    2  501    0  0.17262946771E+02 -0.13040067515E+02  0.49280602994E+01  0.22188701411E+02  0.00000000000E+00 0. -1.
         21    1    1    2  503  502 -0.17262946771E+02  0.13040067515E+02 -0.38664775261E+02  0.44305953754E+02  0.00000000000E+00 0. -1.
</event>
<event>
 4    1  0.2285999E+005  0.4865288E+02  0.7546771E-02  0.1304121E+00
          2   -1    0    0  502    0  0.00000000000E+00  0.00000000000E+00  0.15363108889E+03  0.15363108889E+03  0.00000000000E+00 0.  1.
         21   -1    0    0  503  502 -0.00000000000E+00 -0.00000000000E+00 -0.66055616766E+02  0.66055616766E+02  0.00000000000E+00 0. -1.
          2    1    1    2  501    0 -0.48621900874E+02  0.17358201138E+01  0.13997103791E+03  0.14818567329E+03  0.00000000000E+00 0.  1.
         21    1    1    2  503  501  0.48621900874E+02 -0.17358201138E+01 -0.52395565781E+02  0.71501032367E+02  0.00000000000E+00 0. -1.
</event>
<event>
 4    1  0.2285999E+005  0.3850192E+02  0.7546771E-02  0.1357495E+00
          2   -1    0    0  502    0  0.00000000000E+00  0.00000000000E+00  0.20832493871E+03  0.20832493871E+03  0.00000000000E+00 0.  1.
         21   -1    0    0  503  502 -0.00000000000E+00 -0.00000000000E+00 -0.70975204938E+02  0.70975204938E+02  0.00000000000E+00 0.  1.
          2    1    1    2  501    0  0.31068858046E+02 -0.22740351041E+02  0.20113960564E+03  0.20479145114E+03  0.00000000000E+00 0.  1.
         21    1    1    2  503  501 -0.31068858046E+02  0.22740351041E+02 -0.63789871867E+02  0.74508692503E+02  0.00000000000E+00 0.  1.
</event>
<event>
 4    1  0.2285999E+005  0.3063467E+02  0.7546771E-02  0.1414160E+00
          2   -1    0    0  502    0  0.00000000000E+00  0.00000000000E+00  0.73115505371E+03  0.73115505371E+03  0.00000000000E+00 0.  1.
         21   -1    0    0  503  502 -0.00000000000E+00 -0.00000000000E+00 -0.87102525190E+01  0.87102525190E+01  0.00000000000E+00 0.  1.
          2    1    1    2  501    0  0.11076352773E+01 -0.30614644063E+02  0.70281223664E+03  0.70347958269E+03  0.00000000000E+00 0.  1.
         21    1    1    2  503  501 -0.11076352773E+01  0.30614644063E+02  0.19632564558E+02  0.36385723549E+02  0.00000000000E+00 0.  1.
</event>
<event>
 4    1  0.2285999E+005  0.4732063E+02  0.7546771E-02  0.1310227E+00
          2   -1    0    0  502    0  0.00000000000E+00  0.00000000000E+00  0.13853235612E+03  0.13853235612E+03  0.00000000000E+00 0. -1.
         21   -1    0    0  503  502 -0.00000000000E+00 -0.00000000000E+00 -0.69402706160E+02  0.69402706160E+02  0.00000000000E+00 0. -1.
          2    1    1    2  501    0  0.43796781268E+02 -0.17918804902E+02  0.12562388001E+03  0.13424083152E+03  0.00000000000E+00 0. -1.
         21    1    1    2  503  501 -0.43796781268E+02  0.17918804902E+02 -0.56494230049E+02  0.73694230761E+02  0.00000000000E+00 0. -1.
</event>
<event>
 4    1  0.2285999E+005  0.2678879E+02  0.7546771E-02  0.1449741E+00
          2   -1    0    0  502    0  0.00000000000E+00  0.00000000000E+00  0.75033650105E+02  0.75033650105E+02  0.00000000000E+00 0. -1.
         21   -1    0    0  503  502 -0.00000000000E+00 -0.00000000000E+00 -0.14823842256E+03  0.14823842256E+03  0.00000000000E+00 0.  1.
          2    1    1    2  501    0 -0.23779680594E+02 -0.12335570079E+02  0.71372270060E+02  0.76234115931E+02  0.00000000000E+00 0. -1.
         21    1    1    2  503  501  0.23779680594E+02  0.12335570079E+02 -0.14457704251E+03  0.14703795673E+03  0.00000000000E+00 0.  1.
</event>
<event>
 4    1  0.2285999E+005  0.3484661E+02  0.7546771E-02  0.1381645E+00
          2   -1    0    0  503    0  0.00000000000E+00  0.00000000000E+00  0.17380889542E+04  0.17380889542E+04  0.00000000000E+00 0. -1.
         21   -1    0    0  501  502 -0.00000000000E+00 -0.00000000000E+00 -0.69864103185E+00  0.69864103185E+00  0.00000000000E+00 0. -1.
          2    1    1    2  501    0 -0.33322441253E+02 -0.10193195696E+02  0.86575044344E+03  0.86645145083E+03  0.00000000000E+00 0. -1.
         21    1    1    2  503  502  0.33322441253E+02  0.10193195696E+02  0.87163986977E+03  0.87233614445E+03  0.00000000000E+00 0. -1.
</event>
<event>
 4    1  0.2285999E+005  0.2020951E+02  0.7546771E-02  0.1530857E+00
          2   -1    0    0  503    0  0.00000000000E+00  0.00000000000E+00  0.84425228029E+03  0.84425228029E+03  0.00000000000E+00 0. -1.
         21   -1    0    0  501  502 -0.00000000000E+00 -0.00000000000E+00 -0.97600188704E+01  0.97600188704E+01  0.00000000000E+00 0. -1.
          2    1    1    2  501    0  0.20204842381E+02 -0.43428305100E+00  0.83353518088E+03  0.83378014010E+03  0.00000000000E+00 0. -1.
         21    1    1    2  503  502 -0.20204842381E+02  0.43428305100E+00  0.95708054649E+00  0.20232159069E+02  0.00000000000E+00 0. -1.
</event>
<event>
 4    1  0.2285999E+005  0.4060651E+02  0.7546771E-02  0.1344968E+00
          2   -1    0    0  502    0  0.00000000000E+00  0.00000000000E+00  0.36324934845E+03  0.36324934845E+03  0.00000000000E+00 0.  1.
         21   -1    0    0  503  502 -0.00000000000E+00 -0.00000000000E+00 -0.43170215373E+03  0.43170215373E+03  0.00000000000E+00 0.  1.
          2    1    1    2  501    0 -0.13170371961E+02 -0.38411325034E+02  0.36115413121E+03  0.36342976637E+03  0.00000000000E+00 0.  1.
         21    1    1    2  503  501  0.13170371961E+02  0.38411325034E+02 -0.42960693650E+03  0.43152173581E+03  0.00000000000E+00 0.  1.
</event>
<event>
 4    1  0.2285999E+005  0.2957187E+02  0.7546771E-02  0.1423354E+00
          2   -1    0    0  502    0  0.00000000000E+00  0.00000000000E+00  0.59517443992E+03  0.59517443992E+03  0.00000000000E+00 0. -1.
         21   -1    0    0  503  502 -0.00000000000E+00 -0.00000000000E+00 -0.21539079695E+01  0.21539079695E+01  0.00000000000E+00 0. -1.
          2    1    1    2  501    0  0.29493585712E+02  0.21503320317E+01  0.46488909492E+03  0.46582868751E+03  0.00000000000E+00 0. -1.
         21    1    1    2  503  501 -0.29493585712E+02 -0.21503320317E+01  0.12813143702E+03  0.13149966038E+03  0.00000000000E+00 0. -1.
</event>
<event>
 4    1  0.2285999E+005  0.8964502E+02  0.7546771E-02  0.1183072E+00
          2   -1    0    0  502    0  0.00000000000E+00  0.00000000000E+00  0.13504058113E+03  0.13504058113E+03  0.00000000000E+00 0. -1.
         21   -1    0    0  503  502 -0.00000000000E+00 -0.00000000000E+00 -0.24240896555E+03  0.24240896555E+03  0.00000000000E+00 0. -1.
          2    1    1    2  501    0  0.23749775472E+02 -0.86441757385E+02  0.11024659032E+03  0.14209341974E+03  0.00000000000E+00 0. -1.
         21    1    1    2  503  501 -0.23749775472E+02  0.86441757385E+02 -0.21761497474E+03  0.23535612694E+03  0.00000000000E+00 0. -1.
</event>
<event>
 4    1  0.2285999E+005  0.2184463E+02  0.7546771E-02  0.1507539E+00
          2   -1    0    0  502    0  0.00000000000E+00  0.00000000000E+00  0.70280943470E+02  0.70280943470E+02  0.00000000000E+00 0.  1.
         21   -1    0    0  503  502 -0.00000000000E+00 -0.00000000000E+00 -0.10602402346E+02  0.10602402346E+02  0.00000000000E+00 0.  1.
          2    1    1    2  501    0  0.21359769038E+02  0.45769092822E+01  0.54090980262E+02  0.58335426437E+02  0.00000000000E+00 0.  1.
         21    1    1    2  503  501 -0.21359769038E+02 -0.45769092822E+01  0.55875608632E+01  0.22547919379E+02  0.00000000000E+00 0.  1.
</event>
<event>
 4    1  0.2285999E+005  0.2380812E+02  0.7546771E-02  0.1482592E+00
          2   -1    0    0  502    0  0.00000000000E+00  0.00000000000E+00  0.66996964396E+03  0.66996964396E+03  0.00000000000E+00 0. -1.
         21   -1    0    0  503  502 -0.00000000000E+00 -0.00000000000E+00 -0.76991616744E+01  0.76991616744E+01  0.00000000000E+00 0. -1.
          2    1    1    2  501    0 -0.70155819257E+01  0.22751007126E+02  0.65081102289E+03  0.65124635449E+03  0.00000000000E+00 0. -1.
         21    1    1    2  503  501  0.70155819257E+01 -0.22751007126E+02  0.11459459392E+02  0.26422451146E+02  0.00000000000E+00 0. -1.
</event>
<event>
 4    1  0.2285999E+005  0.2104634E+02  0.7546771E-02  0.1518604E+00
          2   -1    0    0  502    0  0.00000000000E+00  0.00000000000E+00  0.17680538215E+04  0.17680538215E+04  0.00000000000E+00 0.  1.
         21   -1    0    0  503  502 -0.00000000000E+00 -0.00000000000E+00 -0.60049684240E+00  0.60049684240E+00  0.00000000000E+00 0.  1.
          2    1    1    2  501    0  0.18589245421E+02 -0.98685528767E+01  0.15588324024E+04  0.15589744729E+04  0.00000000000E+00 0.  1.
         21    1    1    2  503  501 -0.18589245421E+02  0.98685528767E+01  0.20862092226E+03  0.20967984544E+03  0.00000000000E+00 0.  1.
</event>
<event>
 4    1  0.2285999E+005  0.2350553E+02  0.7546771E-02  0.1486246E+00
          2   -1    0    0  503    0  0.00000000000E+00  0.00000000000E+00  0.28864861930E+03  0.28864861930E+03  0.00000000000E+00 0. -1.
         21   -1    0    0  501  502 -0.00000000000E+00 -0.00000000000E+00 -0.23428058348E+03  0.23428058348E+03  0.00000000000E+00 0. -1.
          2    1    1    2  501    0 -0.13638098557E+02 -0.19144508007E+02  0.28757831566E+03  0.28853734170E+03  0.00000000000E+00 0. -1.
         21    1    1    2  503  502  0.13638098557E+02  0.19144508007E+02 -0.23321027984E+03  0.23439186108E+03  0.00000000000E+00 0. -1.
</event>
<event>
 4    1  0.2285999E+005  0.3356451E+02  0.7546771E-02  0.1390946E+00
          2   -1    0    0  503    0  0.00000000000E+00  0.00000000000E+00  0.21675105151E+03  0.21675105151E+03  0.00000000000E+00 0.  1.
         21   -1    0    0  501  502 -0.00000000000E+00 -0.00000000000E+00 -0.24599727994E+02  0.24599727994E+02  0.00000000000E+00 0. -1.
          2    1    1    2  501    0  0.28332333212E+02  0.17995978122E+02  0.20324701178E+03  0.20599981585E+03  0.00000000000E+00 0.  1.
         21    1    1    2  503  502 -0.28332333212E+02 -0.17995978122E+02 -0.11095688256E+02  0.35350963660E+02  0.00000000000E+00 0. -1.
</event>
<event>
 4    1  0.2285999E+005  0.2329836E+02  0.7546771E-02  0.1488785E+00
          2   -1    0    0  502    0  0.00000000000E+00  0.00000000000E+00  0.51997588976E+02  0.51997588976E+02  0.00000000000E+00 0.  1.
         21   -1    0    0  503  502 -0.00000000000E+00 -0.00000000000E+00 -0.21198181701E+02  0.21198181701E+02  0.00000000000E+00 0. -1.
          2    1    1    2  501    0  0.12436936392E+02 -0.19701177555E+02  0.41472766800E+02  0.47568941232E+02  0.00000000000E+00 0.  1.
         21    1    1    2  503  501 -0.12436936392E+02  0.19701177555E+02 -0.10673359524E+02  0.25626829445E+02  0.00000000000E+00 0. -1.
</event>
<event>
 4    1  0.2285999E+005  0.2799243E+02  0.7546771E-02  0.1437886E+00
          2   -1    0    0  503    0  0.00000000000E+00  0.00000000000E+00  0.39544864888E+03  0.39544864888E+03  0.00000000000E+00 0.  1.
         21   -1    0    0  501  502 -0.00000000000E+00 -0.00000000000E+00 -0.64803049464E+02  0.64803049464E+02  0.00000000000E+00 0. -1.
          2    1    1    2  501    0 -0.26811950193E+02 -0.80433403275E+01  0.39190305017E+03  0.39290148476E+03  0.00000000000E+00 0.  1.
         21    1    1    2  503  502  0.26811950193E+02  0.80433403275E+01 -0.61257450753E+02  0.67350213581E+02  0.00000000000E+00 0. -1.
</event>
<event>
 4    1  0.2285999E+005  0.4655483E+02  0.7546771E-02  0.1313843E+00
          2   -1    0    0  502    0  0.00000000000E+00  0.00000000000E+00  0.22768989948E+03  0.22768989948E+03  0.00000000000E+00 0.  1.
         21   -1    0    0  503  502 -0.00000000000E+00 -0.00000000000E+00 -0.10887703115E+02  0.10887703115E+02  0.00000000000E+00 0. -1.
          2    1    1    2  501    0  0.46333225157E+02 -0.45369967881E+01  0.15069772350E+03  0.15772493767E+03  0.00000000000E+00 0.  1.
         21    1    1    2  503  501 -0.46333225157E+02  0.45369967881E+01  0.66104472859E+02  0.80852664924E+02  0.00000000000E+00 0. -1.
</event>
<event>
 4    1  0.2285999E+005  0.2189552E+02  0.7546771E-02  0.1506853E+00
          2   -1    0    0  503    0  0.00000000000E+00  0.00000000000E+00  0.24007139314E+03  0.24007139314E+03  0.00000000000E+00 0.  1.
         21   -1    0    0  501  502 -0.00000000000E+00 -0.00000000000E+00 -0.22435309608E+01  0.22435309608E+01  0.00000000000E+00 0.  1.
          2    1    1    2  501    0  0.60251582103E+01 -0.21050204909E+02  0.15907937493E+03  0.16057914306E+03  0.00000000000E+00 0.  1.
         21    1    1    2  503  502 -0.60251582103E+01  0.21050204909E+02  0.78748487256E+02  0.81735781046E+02  0.00000000000E+00 0.  1.
</event>
<event>
 4    1  0.2285999E+005  0.2117501E+02  0.7546771E-02  0.1516781E+00
          2   -1    0    0  502    0  0.00000000000E+00  0.00000000000E+00  0.74219949179E+03  0.74219949179E+03  0.00000000000E+00 0. -1.
         21   -1    0    0  503  502 -0.00000000000E+00 -0.00000000000E+00 -0.23479522988E+02  0.23479522988E+02  0.00000000000E+00 0.  1.
          2    1    1    2  501    0 -0.14958700000E+02 -0.14987274890E+02  0.73724219326E+03  0.73754622407E+03  0.00000000000E+00 0. -1.
         21    1    1    2  503  501  0.14958700000E+02  0.14987274890E+02 -0.18522224457E+02  0.28132790710E+02  0.00000000000E+00 0.  1.
</event>
<event>
 4    1  0.2285999E+005  0.2363017E+02  0.7546771E-02  0.1484733E+00
          2   -1    0    0  502    0  0.00000000000E+00  0.00000000000E+00  0.13542102571E+04  0.13542102571E+04  0.00000000000E+00 0. -1.
         21   -1    0    0  503  502 -0.00000000000E+00 -0.00000000000E+00 -0.42299269526E+01  0.42299269526E+01  0.00000000000E+00 0. -1.
          2    1    1    2  501    0 -0.19181594928E+02  0.13800407957E+02  0.13202564715E+04  0.13204679229E+04  0.00000000000E+00 0. -1.
         21    1    1    2  503  501  0.19181594928E+02 -0.13800407957E+02  0.29723858579E+02  0.37972261095E+02  0.00000000000E+00 0. -1.
</event>
<event>
 4    1  0.2285999E+005  0.2406619E+02  0.7546771E-02  0.1479527E+00
          2   -1    0    0  502    0  0.00000000000E+00  0.00000000000E+00  0.98088381971E+03  0.98088381971E+03  0.00000000000E+00 0. -1.
         21   -1    0    0  503  502 -0.00000000000E+00 -0.00000000000E+00 -0.18035282712E+01  0.18035282712E+01  0.00000000000E+00 0. -1.
          2    1    1    2  501    0  0.23717151267E+02  0.40838978524E+01  0.89250289675E+03  0.89282730816E+03  0.00000000000E+00 0. -1.
         21    1    1    2  503  501 -0.23717151267E+02 -0.40838978524E+01  0.86577394689E+02  0.89860039823E+02  0.00000000000E+00 0. -1.
</event>
<event>
 4    1  0.2285999E+005  0.5178739E+02  0.7546771E-02  0.1290604E+00
          2   -1    0    0  503    0  0.00000000000E+00  0.00000000000E+00  0.28056112721E+02  0.28056112721E+02  0.00000000000E+00 0. -1.
         21   -1    0    0  501  502 -0.00000000000E+00 -0.00000000000E+00 -0.18893994310E+03  0.18893994310E+03  0.00000000000E+00 0.  1.
          2    1    1    2  501    0  0.49952069557E+02 -0.13664715559E+02 -0.41790975882E+01  0.51955736555E+02  0.00000000000E+00 0. -1.
         21    1    1    2  503  502 -0.49952069557E+02  0.13664715559E+02 -0.15670473280E+03  0.16504031927E+03  0.00000000000E+00 0.  1.
</event>
<event>
 4    1  0.2285999E+005  0.3518262E+02  0.7546771E-02  0.1379284E+00
          2   -1    0    0  503    0  0.00000000000E+00  0.00000000000E+00  0.40101831579E+03  0.40101831579E+03  0.00000000000E+00 0. -1.
         21   -1    0    0  501  502 -0.00000000000E+00 -0.00000000000E+00 -0.40519002504E+03  0.40519002504E+03  0.00000000000E+00 0. -1.
          2    1    1    2  501    0 -0.31855320074E+02 -0.14935031143E+02  0.39947998368E+03  0.40102627586E+03  0.00000000000E+00 0. -1.
         21    1    1    2  503  502  0.31855320074E+02  0.14935031143E+02 -0.40365169292E+03  0.40518206497E+03  0.00000000000E+00 0. -1.
</event>
<event>
 4    1  0.2285999E+005  0.2305379E+02  0.7546771E-02  0.1491824E+00
          2   -1    0    0  503    0  0.00000000000E+00  0.00000000000E+00  0.18390611617E+02  0.18390611617E+02  0.00000000000E+00 0.  1.
         21   -1    0    0  501  502 -0.00000000000E+00 -0.00000000000E+00 -0.55933042840E+03  0.55933042840E+03  0.00000000000E+00 0.  1.
          2    1    1    2  501    0  0.13854654185E+02  0.18426225329E+02  0.10829251660E+02  0.25470569565E+02  0.00000000000E+00 0.  1.
         21    1    1    2  503  502 -0.13854654185E+02 -0.18426225329E+02 -0.55176906844E+03  0.55225047045E+03  0.00000000000E+00 0.  1.
</event>
<event>
 4    1  0.2285999E+005  0.2344915E+02  0.7546771E-02  0.1486934E+00
          2   -1    0    0  503    0  0.00000000000E+00  0.00000000000E+00  0.48155085966E+01  0.48155085966E+01  0.00000000000E+00 0. -1.
         21   -1    0    0  501  502 -0.00000000000E+00 -0.00000000000E+00 -0.17560818243E+03  0.17560818243E+03  0.00000000000E+00 0. -1.
          2    1    1    2  501    0 -0.21676776883E+02  0.89431420921E+01 -0.32043844886E+02  0.39707309675E+02  0.00000000000E+00 0. -1.
         21    1    1    2  503  502  0.21676776883E+02 -0.89431420921E+01 -0.13874882895E+03  0.14071638135E+03  0.00000000000E+00 0. -1.
</event>
<event>
 4    1  0.2285999E+005  0.2567174E+02  0.7546771E-02  0.1461427E+00
          2   -1    0    0  502    0  0.00000000000E+00  0.00000000000E+00  0.11353753361E+04  0.11353753361E+04  0.00000000000E+00 0.  1.
         21   -1    0    0  503  502 -0.00000000000E+00 -0.00000000000E+00 -0.14772923285E+02  0.14772923285E+02  0.00000000000E+00 0.  1.
          2    1    1    2  501    0 -0.89637620870E+01  0.24055958649E+02  0.11239642008E+04  0.11242573383E+04  0.00000000000E+00 0.  1.
         21    1    1    2  503  501  0.89637620870E+01 -0.24055958649E+02 -0.33617879121E+01  0.25890921097E+02  0.00000000000E+00 0.  1.
</event>
<event>
 4    1  0.2285999E+005  0.2712009E+02  0.7546771E-02  0.1446406E+00
          2   -1    0    0  503    0  0.00000000000E+00  0.00000000000E+00  0.96554827910E+03  0.96554827910E+03  0.00000000000E+00 0. -1.
         21   -1    0    0  501  502 -0.00000000000E+00 -0.00000000000E+00 -0.33016926653E+01  0.33016926653E+01  0.00000000000E+00 0.  1.
          2    1    1    2  501    0  0.26130674552E+02  0.72585847511E+01  0.90600771354E+03  0.90641352384E+03  0.00000000000E+00 0. -1.
         21    1    1    2  503  502 -0.26130674552E+02 -0.72585847511E+01  0.56238872893E+02  0.62436447925E+02  0.00000000000E+00 0.  1.
</event>
<event>
 4    1  0.2285999E+005  0.2471286E+02  0.7546771E-02  0.1472041E+00
          2   -1    0    0  503    0  0.00000000000E+00  0.00000000000E+00  0.49710529340E+03  0.49710529340E+03  0.00000000000E+00 0. -1.
         21   -1    0    0  501  502 -0.00000000000E+00 -0.00000000000E+00 -0.13891501711E+01  0.13891501711E+01  0.00000000000E+00 0. -1.
          2    1    1    2  501    0  0.24341113088E+02 -0.42703420751E+01  0.33260226735E+03  0.33351910569E+03  0.00000000000E+00 0. -1.
         21    1    1    2  503  502 -0.24341113088E+02  0.42703420751E+01  0.16311387588E+03  0.16497533789E+03  0.00000000000E+00 0. -1.
</event>
<event>
 4    1  0.2285999E+005  0.2938222E+02  0.7546771E-02  0.1425042E+00
          2   -1    0    0  503    0  0.00000000000E+00  0.00000000000E+00  0.66199497638E+03  0.66199497638E+03  0.00000000000E+00 0. -1.
         21   -1    0    0  501  502 -0.00000000000E+00 -0.00000000000E+00 -0.31036150170E+02  0.31036150170E+02  0.00000000000E+00 0.  1.
          2    1    1    2  501    0  0.24625922210E+02  0.16027447919E+02  0.65463671276E+03  0.65529576591E+03  0.00000000000E+00 0. -1.
         21    1    1    2  503  502 -0.24625922210E+02 -0.16027447919E+02 -0.23677886544E+02  0.37735360641E+02  0.00000000000E+00 0.  1.
</event>
<event>
 4    1  0.2285999E+005  0.2339503E+02  0.7546771E-02  0.1487596E+00
          2   -1    0    0  502    0  0.00000000000E+00  0.00000000000E+00  0.11244472673E+03  0.11244472673E+03  0.00000000000E+00 0. -1.
         21   -1    0    0  503  502 -0.00000000000E+00 -0.00000000000E+00 -0.31426877274E+02  0.31426877274E+02  0.00000000000E+00 0.  1.
          2    1    1    2  501    0 -0.40311295129E+01  0.23045118049E+02  0.10663963971E+03  0.10917573095E+03  0.00000000000E+00 0. -1.
         21    1    1    2  503  501  0.40311295129E+01 -0.23045118049E+02 -0.25621790254E+02  0.34695873053E+02  0.00000000000E+00 0.  1.
</event>
<event>
 4    1  0.2285999E+005  0.3156832E+02  0.7546771E-02  0.1406440E+00
          2   -1    0    0  503    0  0.00000000000E+00  0.00000000000E+00  0.27582750353E+03  0.27582750353E+03  0.00000000000E+00 0.  1.
         21   -1    0    0  501  502 -0.00000000000E+00 -0.00000000000E+00 -0.13288886947E+04  0.13288886947E+04  0.00000000000E+00 0. -1.
          2    1    1    2  501    0 -0.18804250305E+02  0.25356630133E+02  0.27473603713E+03  0.27654375535E+03  0.00000000000E+00 0.  1.
         21    1    1    2  503  502  0.18804250305E+02 -0.25356630133E+02 -0.13277972283E+04  0.13281724429E+04  0.00000000000E+00 0. -1.
</event>
<event>
 4    1  0.2285999E+005  0.2039662E+02  0.7546771E-02  0.1528056E+00
          2   -1    0    0  503    0  0.00000000000E+00  0.00000000000E+00  0.21917866578E+03  0.21917866578E+03  0.00000000000E+00 0. -1.
         21   -1    0    0  501  502 -0.00000000000E+00 -0.00000000000E+00 -0.19086677660E+01  0.19086677660E+01  0.00000000000E+00 0. -1.
          2    1    1    2  501    0  0.17745914887E+02  0.10055086549E+02  0.10040817925E+03  0.10245889284E+03  0.00000000000E+00 0. -1.
         21    1    1    2  503  502 -0.17745914887E+02 -0.10055086549E+02  0.11686181876E+03  0.11862844071E+03  0.00000000000E+00 0. -1.
</event>
<event>
 4    1  0.2285999E+005  0.2428976E+02  0.7546771E-02  0.1476908E+00
          2   -1    0    0  503    0  0.00000000000E+00  0.00000000000E+00  0.35977924325E+03  0.35977924325E+03  0.00000000000E+00 0. -1.
         21   -1    0    0  501  502 -0.00000000000E+00 -0.00000000000E+00 -0.37289915101E+01  0.37289915101E+01  0.00000000000E+00 0.  1.
          2    1    1    2  501    0 -0.77122337857E+01  0.23032891742E+02  0.31406617984E+03  0.31500406025E+03  0.00000000000E+00 0. -1.
         21    1    1    2  503  502  0.77122337857E+01 -0.23032891742E+02  0.41984071895E+02  0.48504174510E+02  0.00000000000E+00 0.  1.
</event>
<event>
 4    1  0.2285999E+005  0.2616748E+02  0.7546771E-02  0.1456155E+00
          2   -1    0    0  503    0  0.00000000000E+00  0.00000000000E+00  0.15342937871E+04  0.15342937871E+04  0.00000000000E+00 0.  1.
         21   -1    0    0  501  502 -0.00000000000E+00 -0.00000000000E+00 -0.21041657754E+01  0.21041657754E+01  0.00000000000E+00 0.  1.
          2    1    1    2  501    0  0.10332791022E+02  0.24041012515E+02  0.14479780368E+04  0.14482144634E+04  0.00000000000E+00 0.  1.
         21    1    1    2  503  502 -0.10332791022E+02 -0.24041012515E+02  0.84211584461E+02  0.88183489443E+02  0.00000000000E+00 0.  1.
</event>
<event>
 4    1  0.2285999E+005  0.2324066E+02  0.7546771E-02  0.1489498E+00
          2   -1    0    0  502    0  0.00000000000E+00  0.00000000000E+00  0.13325824743E+04  0.13325824743E+04  0.00000000000E+00 0.  1.
         21   -1    0    0  503  502 -0.00000000000E+00 -0.00000000000E+00 -0.97280298121E+01  0.97280298121E+01  0.00000000000E+00 0. -1.
          2    1    1    2  501    0  0.23209691162E+02 -0.11992951219E+01  0.13184516691E+04  0.13186564875E+04  0.00000000000E+00 0.  1.
         21    1    1    2  503  501 -0.23209691162E+02  0.11992951219E+01  0.44027753426E+01  0.23654016643E+02  0.00000000000E+00 0. -1.
</event>
<event>
 4    1  0.2285999E+005  0.5570264E+02  0.7546771E-02  0.1275177E+00
          2   -1    0    0  503    0  0.00000000000E+00  0.00000000000E+00  0.40646891525E+03  0.40646891525E+03  0.00000000000E+00 0.  1.
         21   -1    0    0  501  502 -0.00000000000E+00 -0.00000000000E+00 -0.20696590249E+02  0.20696590249E+02  0.00000000000E+00 0.  1.
          2    1    1    2  501    0  0.30240095552E+02  0.46779486938E+02  0.36256965989E+03  0.36682358437E+03  0.00000000000E+00 0.  1.
         21    1    1    2  503  502 -0.30240095552E+02 -0.46779486938E+02  0.23202665110E+02  0.60341921128E+02  0.00000000000E+00 0.  1.
</event>
<event>
 4    1  0.2285999E+005  0.3352366E+02  0.7546771E-02  0.1391250E+00
          2   -1    0    0  502    0  0.00000000000E+00  0.00000000000E+00  0.11808158782E+04  0.11808158782E+04  0.00000000000E+00 0. -1.
         21   -1    0    0  503  502 -0.00000000000E+00 -0.00000000000E+00 -0.24917856665E+01  0.24917856665E+01  0.00000000000E+00 0.  1.
          2    1    1    2  501    0  0.17030850250E+01  0.33480371837E+02  0.10542963949E+04  0.10548292393E+04  0.00000000000E+00 0. -1.
         21    1    1    2  503  501 -0.17030850250E+01 -0.33480371837E+02  0.12402769761E+03  0.12847842454E+03  0.00000000000E+00 0.  1.
</event>
<event>
 4    1  0.2285999E+005  0.2134134E+02  0.7546771E-02  0.1514447E+00
          2   -1    0    0  503    0  0.00000000000E+00  0.00000000000E+00  0.40906311815E+03  0.40906311815E+03  0.00000000000E+00 0. -1.
         21   -1    0    0  501  502 -0.00000000000E+00 -0.00000000000E+00 -0.31628770764E+01  0.31628770764E+01  0.00000000000E+00 0.  1.
          2    1    1    2  501    0 -0.13346709069E+02 -0.16652874339E+02  0.36886496321E+03  0.36948181816E+03  0.00000000000E+00 0. -1.
         21    1    1    2  503  502  0.13346709069E+02  0.16652874339E+02  0.37035277868E+02  0.42744177071E+02  0.00000000000E+00 0.  1.
</event>
<event>
 4    1  0.2285999E+005  0.2086882E+02  0.7546771E-02  0.1521146E+00
          2   -1    0    0  503    0  0.00000000000E+00  0.00000000000E+00  0.11900532182E+03  0.11900532182E+03  0.00000000000E+00 0.  1.
         21   -1    0    0  501  502 -0.00000000000E+00 -0.00000000000E+00 -0.19099111957E+02  0.19099111957E+02  0.00000000000E+00 0.  1.
          2    1    1    2  501    0 -0.81739759765E+01 -0.19201397419E+02  0.11203834066E+03  0.11396533387E+03  0.00000000000E+00 0.  1.
         21    1    1    2  503  502  0.81739759765E+01  0.19201397419E+02 -0.12132130805E+02  0.24139099900E+02  0.00000000000E+00 0.  1.
</event>
<event>
 4    1  0.2285999E+005  0.2126989E+02  0.7546771E-02  0.1515446E+00
          2   -1    0    0  503    0  0.00000000000E+00  0.00000000000E+00  0.69045124855E+02  0.69045124855E+02  0.00000000000E+00 0.  1.
         21   -1    0    0  501  502 -0.00000000000E+00 -0.00000000000E+00 -0.98631573607E+02  0.98631573607E+02  0.00000000000E+00 0. -1.
          2    1    1    2  501    0 -0.15999527197E+02  0.14015106355E+02  0.66212470764E+02  0.69544944901E+02  0.00000000000E+00 0.  1.
         21    1    1    2  503  502  0.15999527197E+02 -0.14015106355E+02 -0.95798919515E+02  0.98131753561E+02  0.00000000000E+00 0. -1.
</event>
<event>
 4    1  0.2285999E+005  0.2118391E+02  0.7546771E-02  0.1516655E+00
          2   -1    0    0  502    0  0.00000000000E+00  0.00000000000E+00  0.71883820388E+02  0.71883820388E+02  0.00000000000E+00 0. -1.
         21   -1    0    0  503  502 -0.00000000000E+00 -0.00000000000E+00 -0.16782596129E+02  0.16782596129E+02  0.00000000000E+00 0.  1.
          2    1    1    2  501    0 -0.10999236589E+02  0.18104553437E+02  0.62683608743E+02  0.66166402847E+02  0.00000000000E+00 0. -1.
         21    1    1    2  503  501  0.10999236589E+02 -0.18104553437E+02 -0.75823844835E+01  0.22500013670E+02  0.00000000000E+00 0.  1.
</event>
<event>
 4    1  0.2285999E+005  0.2118893E+02  0.7546771E-02  0.1516584E+00
          2   -1    0    0  503    0  0.00000000000E+00  0.00000000000E+00  0.15536464825E+01  0.15536464825E+01  0.00000000000E+00 0. -1.
         21   -1    0    0  501  502 -0.00000000000E+00 -0.00000000000E+00 -0.79841242373E+03  0.79841242373E+03  0.00000000000E+00 0. -1.
          2    1    1    2  501    0  0.84781972609E+01 -0.19418831358E+02 -0.78928738059E+02  0.81723414832E+02  0.00000000000E+00 0. -1.
         21    1    1    2  503  502 -0.84781972609E+01  0.19418831358E+02 -0.71793003919E+03  0.71824265538E+03  0.00000000000E+00 0. -1.
</event>
<event>
 4    1  0.2285999E+005  0.2850859E+02  0.7546771E-02  0.1433015E+00
          2   -1    0    0  502    0  0.00000000000E+00  0.00000000000E+00  0.48409122293E+03  0.48409122293E+03  0.00000000000E+00 0. -1.
         21   -1    0    0  503  502 -0.00000000000E+00 -0.00000000000E+00 -0.61503319751E+02  0.61503319751E+02  0.00000000000E+00 0. -1.
          2    1    1    2  501    0  0.26167914918E+02 -0.11312820612E+02  0.48034209431E+03  0.48118735151E+03  0.00000000000E+00 0. -1.
         21    1    1    2  503  501 -0.26167914918E+02  0.11312820612E+02 -0.57754191134E+02  0.64407191174E+02  0.00000000000E+00 0. -1.
</event>
<event>
 4    1  0.2285999E+005  0.2459553E+02  0.7546771E-02  0.1473379E+00
          2   -1    0    0  503    0  0.00000000000E+00  0.00000000000E+00  0.14092706944E+04  0.14092706944E+04  0.00000000000E+00 0.  1.
         21   -1    0    0  501  502 -0.00000000000E+00 -0.00000000000E+00 -0.25998735410E+02  0.25998735410E+02  0.00000000000E+00 0.  1.
          2    1    1    2  501    0  0.10625024841E+02  0.22182171790E+02  0.14033217097E+04  0.14035372317E+04  0.00000000000E+00 0.  1.
         21    1    1    2  503  502 -0.10625024841E+02 -0.22182171790E+02 -0.20049750653E+02  0.31732198150E+02  0.00000000000E+00 0.  1.
</event>
<event>
 4    1  0.2285999E+005  0.2116526E+02  0.7546771E-02  0.1516918E+00
          2   -1    0    0  502    0  0.00000000000E+00  0.00000000000E+00  0.20030192176E+03  0.20030192176E+03  0.00000000000E+00 0. -1.
         21   -1    0    0  503  502 -0.00000000000E+00 -0.00000000000E+00 -0.25087455274E+02  0.25087455274E+02  0.00000000000E+00 0.  1.
          2    1    1    2  501    0  0.17148316051E+02 -0.12405777210E+02  0.19516150486E+03  0.19630583545E+03  0.00000000000E+00 0. -1.
         21    1    1    2  503  501 -0.17148316051E+02  0.12405777210E+02 -0.19947038371E+02  0.29083541589E+02  0.00000000000E+00 0.  1.
</event>
<event>
 4    1  0.2285999E+005  0.2264474E+02  0.7546771E-02  0.1497008E+00
          2   -1    0    0  503    0  0.00000000000E+00  0.00000000000E+00  0.27592783974E+03  0.27592783974E+03  0.00000000000E+00 0.  1.
         21   -1    0    0  501  502 -0.00000000000E+00 -0.00000000000E+00 -0.16584503978E+02  0.16584503978E+02  0.00000000000E+00 0.  1.
          2    1    1    2  501    0  0.17257880688E+02  0.14661162176E+02  0.26748997125E+03  0.26844677096E+03  0.00000000000E+00 0.  1.
         21    1    1    2  503  502 -0.17257880688E+02 -0.14661162176E+02 -0.81466354873E+01  0.24065572753E+02  0.00000000000E+00 0.  1.
</event>
<event>
 4    1  0.2285999E+005  0.3668777E+02  0.7546771E-02  0.1369071E+00
          2   -1    0    0  503    0  0.00000000000E+00  0.00000000000E+00  0.66825232566E+03  0.66825232566E+03  0.00000000000E+00 0. -1.
         21   -1    0    0  501  502 -0.00000000000E+00 -0.00000000000E+00 -0.42426024789E+02  0.42426024789E+02  0.00000000000E+00 0. -1.
          2    1    1    2  501    0 -0.25983909064E+02  0.25900367177E+02  0.65971480460E+03  0.66073414923E+03  0.00000000000E+00 0. -1.
         21    1    1    2  503  502  0.25983909064E+02 -0.25900367177E+02 -0.33888503731E+02  0.49944201217E+02  0.00000000000E+00 0. -1.
</event>
<event>
 4    1  0.2285999E+005  0.2088094E+02  0.7546771E-02  0.1520972E+00
          2   -1    0    0  502    0  0.00000000000E+00  0.00000000000E+00  0.82279843158E+03  0.82279843158E+03  0.00000000000E+00 0. -1.
         21   -1    0    0  503  502 -0.00000000000E+00 -0.00000000000E+00 -0.11757147976E+01  0.11757147976E+01  0.00000000000E+00 0.  1.
          2    1    1    2  501    0 -0.51570904268E+01  0.20234083363E+02  0.71614970765E+03  0.71645405817E+03  0.00000000000E+00 0. -1.
         21    1    1    2  503  501  0.51570904268E+01 -0.20234083363E+02  0.10547300913E+03  0.10752008820E+03  0.00000000000E+00 0.  1.
</event>
<event>
 4    1  0.2285999E+005  0.3043013E+02  0.7546771E-02  0.1415895E+00
          2   -1    0    0  503    0  0.00000000000E+00  0.00000000000E+00  0.41216868978E+03  0.41216868978E+03  0.00000000000E+00 0. -1.
         21   -1    0    0  501  502 -0.00000000000E+00 -0.00000000000E+00 -0.32762175376E+02  0.32762175376E+02  0.00000000000E+00 0. -1.
          2    1    1    2  501    0 -0.47348322613E+01  0.30059511718E+02  0.40440555912E+03  0.40554882460E+03  0.00000000000E+00 0. -1.
         21    1    1    2  503  502  0.47348322613E+01 -0.30059511718E+02 -0.24999044724E+02  0.39382040556E+02  0.00000000000E+00 0. -1.
</event>
<event>
 4    1  0.2285999E+005  0.2486277E+02  0.7546771E-02  0.1470345E+00
          2   -1    0    0  502    0  0.00000000000E+00  0.00000000000E+00  0.61301233187E+03  0.61301233187E+03  0.00000000000E+00 0.  1.
         21   -1    0    0  503  502 -0.00000000000E+00 -0.00000000000E+00 -0.10934786741E+01  0.10934786741E+01  0.00000000000E+00 0. -1.
          2    1    1    2  501    0 -0.24021930859E+02  0.64112367390E+01  0.39161136846E+03  0.39239982292E+03  0.00000000000E+00 0.  1.
         21    1    1    2  503  501  0.24021930859E+02 -0.64112367390E+01  0.22030748474E+03  0.22170598763E+03  0.00000000000E+00 0. -1.
</event>
<event>
 4    1  0.2285999E+005  0.2022846E+02  0.7546771E-02  0.1530572E+00
          2   -1    0    0  503    0  0.00000000000E+00  0.00000000000E+00  0.10752749628E+04  0.10752749628E+04  0.00000000000E+00 0.  1.
         21   -1    0    0  501  502 -0.00000000000E+00 -0.00000000000E+00 -0.44692553545E+00  0.44692553545E+00  0.00000000000E+00 0.  1.
          2    1    1    2  501    0  0.88240330139E+01  0.18202388992E+02  0.74470135055E+03  0.74497603454E+03  0.00000000000E+00 0.  1.
         21    1    1    2  503  502 -0.88240330139E+01 -0.18202388992E+02  0.33012668671E+03  0.33074585379E+03  0.00000000000E+00 0.  1.
</event>
<event>
 4    1  0.2285999E+005  0.5298266E+02  0.7546771E-02  0.1285734E+00
          2   -1    0    0  502    0  0.00000000000E+00  0.00000000000E+00  0.86764425502E+03  0.86764425502E+03  0.00000000000E+00 0. -1.
         21   -1    0    0  503  502 -0.00000000000E+00 -0.00000000000E+00 -0.39343269845E+01  0.39343269845E+01  0.00000000000E+00 0. -1.
          2    1    1    2  501    0  0.95840746153E+01  0.52108612978E+02  0.61553515116E+03  0.61781120445E+03  0.00000000000E+00 0. -1.
         21    1    1    2  503  501 -0.95840746153E+01 -0.52108612978E+02  0.24817477687E+03  0.25376737755E+03  0.00000000000E+00 0. -1.
</event>
<event>
 4    1  0.2285999E+005  0.2831577E+02  0.7546771E-02  0.1434821E+00
          2   -1    0    0  503    0  0.00000000000E+00  0.00000000000E+00  0.12127407942E+04  0.12127407942E+04  0.00000000000E+00 0.  1.
         21   -1    0    0  501  502 -0.00000000000E+00 -0.00000000000E+00 -0.27472084371E+01  0.27472084371E+01  0.00000000000E+00 0.  1.
          2    1    1    2  501    0 -0.73342923050E+01 -0.27349424052E+02  0.11345869321E+04  0.11349402140E+04  0.00000000000E+00 0.  1.
         21    1    1    2  503  502  0.73342923050E+01  0.27349424052E+02  0.75406653692E+02  0.80547788676E+02  0.00000000000E+00 0.  1.
</event>
<event>
 4    1  0.2285999E+005  0.3238899E+02  0.7546771E-02  0.1399911E+00
          2   -1    0    0  503    0  0.00000000000E+00  0.00000000000E+00  0.21305250983E+03  0.21305250983E+03  0.00000000000E+00 0. -1.
         21   -1    0    0  501  502 -0.00000000000E+00 -0.00000000000E+00 -0.15382429539E+02  0.15382429539E+02  0.00000000000E+00 0.  1.
          2    1    1    2  501    0 -0.19691416104E+02  0.25715652074E+02  0.19301437891E+03  0.19571304784E+03  0.00000000000E+00 0. -1.
         21    1    1    2  503  502  0.19691416104E+02 -0.25715652074E+02  0.46557013816E+01  0.32721891527E+02  0.00000000000E+00 0.  1.
</event>
<event>
 4    1  0.2285999E+005  0.2176936E+02  0.7546771E-02  0.1508558E+00
          2   -1    0    0  502    0  0.00000000000E+00  0.00000000000E+00  0.40788443536E+03  0.40788443536E+03  0.00000000000E+00 0. -1.
         21   -1    0    0  503  502 -0.00000000000E+00 -0.00000000000E+00 -0.44511048034E+01  0.44511048034E+01  0.00000000000E+00 0. -1.
          2    1    1    2  501    0  0.16921253266E+02  0.13695849667E+02  0.37894570373E+03  0.37957048290E+03  0.00000000000E+00 0. -1.
         21    1    1    2  503  501 -0.16921253266E+02 -0.13695849667E+02  0.24487626829E+02  0.32765057270E+02  0.00000000000E+00 0. -1.
</event>
<event>
 4    1  0.2285999E+005  0.2402972E+02  0.7546771E-02  0.1479957E+00
          2   -1    0    0  503    0  0.00000000000E+00  0.00000000000E+00  0.14584000747E+03  0.14584000747E+03  0.00000000000E+00 0.  1.
         21   -1    0    0  501  502 -0.00000000000E+00 -0.00000000000E+00 -0.13975032406E+02  0.13975032406E+02  0.00000000000E+00 0. -1.
          2    1    1    2  501    0 -0.21041940258E+02 -0.11604492612E+02  0.13358004607E+03  0.13572419167E+03  0.00000000000E+00 0.  1.
         21    1    1    2  503  502  0.21041940258E+02  0.11604492612E+02 -0.17150710007E+01  0.24090848203E+02  0.00000000000E+00 0. -1.
</event>
<event>
 4    1  0.2285999E+005  0.2692800E+02  0.7546771E-02  0.1448333E+00
          2   -1    0    0  502    0  0.00000000000E+00  0.00000000000E+00  0.88478420132E+03  0.88478420132E+03  0.00000000000E+00 0.  1.
         21   -1    0    0  503  502 -0.00000000000E+00 -0.00000000000E+00 -0.16931546088E+02  0.16931546088E+02  0.00000000000E+00 0. -1.
          2    1    1    2  501    0  0.61516076136E+01 -0.26215926639E+02  0.87373738389E+03  0.87415223679E+03  0.00000000000E+00 0.  1.
         21    1    1    2  503  501 -0.61516076136E+01  0.26215926639E+02 -0.58847286611E+01  0.27563510611E+02  0.00000000000E+00 0. -1.
</event>
<event>
 4    1  0.2285999E+005  0.3131276E+02  0.7546771E-02  0.1408521E+00
          2   -1    0    0  502    0  0.00000000000E+00  0.00000000000E+00  0.11369847417E+02  0.11369847417E+02  0.00000000000E+00 0.  1.
         21   -1    0    0  503  502 -0.00000000000E+00 -0.00000000000E+00 -0.33354350479E+03  0.33354350479E+03  0.00000000000E+00 0.  1.
          2    1    1    2  501    0  0.29918444936E+02 -0.92398971823E+01 -0.12588180129E+02  0.33748352942E+02  0.00000000000E+00 0.  1.
         21    1    1    2  503  501 -0.29918444936E+02  0.92398971823E+01 -0.30958547725E+03  0.31116499927E+03  0.00000000000E+00 0.  1.
</event>
<event>
 4    1  0.2285999E+005  0.3220300E+02  0.7546771E-02  0.1401371E+00
          2   -1    0    0  503    0  0.00000000000E+00  0.00000000000E+00  0.78847720773E+03  0.78847720773E+03  0.00000000000E+00 0.  1.
         21   -1    0    0  501  502 -0.00000000000E+00 -0.00000000000E+00 -0.54839658246E+01  0.54839658246E+01  0.00000000000E+00 0. -1.
          2    1    1    2  501    0 -0.32016285400E+02  0.34627944240E+01  0.73761430013E+03  0.73831693007E+03  0.00000000000E+00 0.  1.
         21    1    1    2  503  502  0.32016285400E+02 -0.34627944240E+01  0.45378941778E+02  0.55644243485E+02  0.00000000000E+00 0. -1.
</event>
<event>
 4    1  0.2285999E+005  0.2085554E+02  0.7546771E-02  0.1521337E+00
          2   -1    0    0  503    0  0.00000000000E+00  0.00000000000E+00  0.22127209789E+02  0.22127209789E+02  0.00000000000E+00 0. -1.
         21   -1    0    0  501  502 -0.00000000000E+00 -0.00000000000E+00 -0.19962748659E+02  0.19962748659E+02  0.00000000000E+00 0. -1.
          2    1    1    2  501    0  0.85547068808E+01 -0.19020263931E+02 -0.15224611777E+01  0.20911033878E+02  0.00000000000E+00 0. -1.
         21    1    1    2  503  502 -0.85547068808E+01  0.19020263931E+02  0.36869223074E+01  0.21178924570E+02  0.00000000000E+00 0. -1.
</event>
<event>
 4    1  0.2285999E+005  0.3209170E+02  0.7546771E-02  0.1402250E+00
          2   -1    0    0  502    0  0.00000000000E+00  0.00000000000E+00  0.28570837341E+04  0.28570837341E+04  0.00000000000E+00 0. -1.
         21   -1    0    0  503  502 -0.00000000000E+00 -0.00000000000E+00 -0.51485178033E+00  0.51485178033E+00  0.00000000000E+00 0. -1.
          2    1    1    2  501    0 -0.12379572046E+01  0.32067817556E+02  0.22106969345E+04  0.22109298527E+04  0.00000000000E+00 0. -1.
         21    1    1    2  503  501  0.12379572046E+01 -0.32067817556E+02  0.64587194776E+03  0.64666873310E+03  0.00000000000E+00 0. -1.
</event>
<event>
 4    1  0.2285999E+005  0.2040404E+02  0.7546771E-02  0.1527946E+00
          2   -1    0    0  502    0  0.00000000000E+00  0.00000000000E+00  0.75290936231E+02  0.75290936231E+02  0.00000000000E+00 0. -1.
         21   -1    0    0  503  502 -0.00000000000E+00 -0.00000000000E+00 -0.92775229586E+01  0.92775229586E+01  0.00000000000E+00 0.  1.
          2    1    1    2  501    0 -0.20170435573E+02  0.30786939334E+01  0.59882466859E+02  0.63263217312E+02  0.00000000000E+00 0. -1.
         21    1    1    2  503  501  0.20170435573E+02 -0.30786939334E+01  0.61309464135E+01  0.21305241878E+02  0.00000000000E+00 0.  1.
</event>
<event>
 4    1  0.2285999E+005  0.3475514E+02  0.7546771E-02  0.1382293E+00
          2   -1    0    0  502    0  0.00000000000E+00  0.00000000000E+00  0.42073404594E+02  0.42073404594E+02  0.00000000000E+00 0.  1.
         21   -1    0    0  503  502 -0.00000000000E+00 -0.00000000000E+00 -0.11927990874E+03  0.11927990874E+03  0.00000000000E+00 0. -1.
          2    1    1    2  501    0  0.33778929371E+02  0.81794733471E+01  0.31696960928E+02  0.47038464960E+02  0.00000000000E+00 0.  1.
         21    1    1    2  503  501 -0.33778929371E+02 -0.81794733471E+01 -0.10890346508E+03  0.11431484838E+03  0.00000000000E+00 0. -1.
</event>
<event>
 4    1  0.2285999E+005  0.2209533E+02  0.7546771E-02  0.1504182E+00
          2   -1    0    0  502    0  0.00000000000E+00  0.00000000000E+00  0.93985552427E+03  0.93985552427E+03  0.00000000000E+00 0. -1.
         21   -1    0    0  503  502 -0.00000000000E+00 -0.00000000000E+00 -0.51070508074E+01  0.51070508074E+01  0.00000000000E+00 0. -1.
          2    1    1    2  501    0  0.12825441823E+02 -0.17991992379E+02  0.91518295643E+03  0.91544964224E+03  0.00000000000E+00 0. -1.
         21    1    1    2  503  501 -0.12825441823E+02  0.17991992379E+02  0.19565517040E+02  0.29512932839E+02  0.00000000000E+00 0. -1.
</event>
<event>
 4    1  0.2285999E+005  0.2284038E+02  0.7546771E-02  0.1494512E+00
          2   -1    0    0  503    0  0.00000000000E+00  0.00000000000E+00  0.15236141921E+04  0.15236141921E+04  0.00000000000E+00 0. -1.
         21   -1    0    0  501  502 -0.00000000000E+00 -0.00000000000E+00 -0.65888712611E+00  0.65888712611E+00  0.00000000000E+00 0. -1.
          2    1    1    2  501    0 -0.24773386599E+01 -0.22705631948E+02  0.12896874527E+04  0.12898896885E+04  0.00000000000E+00 0. -1.
         21    1    1    2  503  502  0.24773386599E+01  0.22705631948E+02  0.23326785233E+03  0.23438339075E+03  0.00000000000E+00 0. -1.
</event>
<event>
 4    1  0.2285999E+005  0.2492463E+02  0.7546771E-02  0.1469648E+00
          2   -1    0    0  503    0  0.00000000000E+00  0.00000000000E+00  0.18710128963E+01  0.18710128963E+01  0.00000000000E+00 0. -1.
         21   -1    0    0  501  502 -0.00000000000E+00 -0.00000000000E+00 -0.40493903825E+03  0.40493903825E+03  0.00000000000E+00 0. -1.
          2    1    1    2  501    0  0.20650349724E+02  0.13957086489E+02 -0.11522624037E+03  0.11789115182E+03  0.00000000000E+00 0. -1.
         21    1    1    2  503  502 -0.20650349724E+02 -0.13957086489E+02 -0.28784178498E+03  0.28891889932E+03  0.00000000000E+00 0. -1.
</event>
<event>
 4    1  0.2285999E+005  0.3068230E+02  0.7546771E-02  0.1413758E+00
          2   -1    0    0  502    0  0.00000000000E+00  0.00000000000E+00  0.93373399410E+03  0.93373399410E+03  0.00000000000E+00 0. -1.
         21   -1    0    0  503  502 -0.00000000000E+00 -0.00000000000E+00 -0.18501217990E+01  0.18501217990E+01  0.00000000000E+00 0. -1.
          2    1    1    2  501    0 -0.26020099880E+02 -0.16259094150E+02  0.78150410708E+03  0.78210617765E+03  0.00000000000E+00 0. -1.
         21    1    1    2  503  501  0.26020099880E+02  0.16259094150E+02  0.15037976523E+03  0.15347793825E+03  0.00000000000E+00 0. -1.
</event>
<event>
 4    1  0.2285999E+005  0.3277184E+02  0.7546771E-02  0.1396943E+00
          2   -1    0    0  502    0  0.00000000000E+00  0.00000000000E+00  0.86185424018E+03  0.86185424018E+03  0.00000000000E+00 0. -1.
         21   -1    0    0  503  502 -0.00000000000E+00 -0.00000000000E+00 -0.27526980878E+02  0.27526980878E+02  0.00000000000E+00 0.  1.
          2    1    1    2  501    0 -0.67264359439E+01  0.32074107978E+02  0.85167212828E+03  0.85230241548E+03  0.00000000000E+00 0. -1.
         21    1    1    2  503  501  0.67264359439E+01 -0.32074107978E+02 -0.17344868979E+02  0.37078805577E+02  0.00000000000E+00 0.  1.
</event>
<event>
 4    1  0.2285999E+005  0.2274083E+02  0.7546771E-02  0.1495778E+00
          2   -1    0    0  502    0  0.00000000000E+00  0.00000000000E+00  0.70540610590E+03  0.70540610590E+03  0.00000000000E+00 0. -1.
         21   -1    0    0  503  502 -0.00000000000E+00 -0.00000000000E+00 -0.19626548511E+02  0.19626548511E+02  0.00000000000E+00 0.  1.
          2    1    1    2  501    0  0.11110899842E+02  0.19841704325E+02  0.69857107255E+03  0.69894111965E+03  0.00000000000E+00 0. -1.
         21    1    1    2  503  501 -0.11110899842E+02 -0.19841704325E+02 -0.12791515168E+02  0.26091534760E+02  0.00000000000E+00 0.  1.
</event>
<event>
 4    1  0.2285999E+005  0.4322138E+02  0.7546771E-02  0.1330577E+00
          2   -1    0    0  502    0  0.00000000000E+00  0.00000000000E+00  0.22407277734E+04  0.22407277734E+04  0.00000000000E+00 0. -1.
         21   -1    0    0  503  502 -0.00000000000E+00 -0.00000000000E+00 -0.10830711487E+01  0.10830711487E+01  0.00000000000E+00 0. -1.
          2    1    1    2  501    0  0.27153562827E+02  0.33626954761E+02  0.16576785483E+04  0.16582419177E+04  0.00000000000E+00 0. -1.
         21    1    1    2  503  501 -0.27153562827E+02 -0.33626954761E+02  0.58196615400E+03  0.58356892691E+03  0.00000000000E+00 0. -1.
</event>
<event>
 4    1  0.2285999E+005  0.2150698E+02  0.7546771E-02  0.1512148E+00
          2   -1    0    0  503    0  0.00000000000E+00  0.00000000000E+00  0.95703107798E+01  0.95703107798E+01  0.00000000000E+00 0. -1.
         21   -1    0    0  501  502 -0.00000000000E+00 -0.00000000000E+00 -0.48992782826E+02  0.48992782826E+02  0.00000000000E+00 0. -1.
          2    1    1    2  501    0  0.27366818116E+01  0.21332151939E+02 -0.16310050236E+02  0.26991996451E+02  0.00000000000E+00 0. -1.
         21    1    1    2  503  502 -0.27366818116E+01 -0.21332151939E+02 -0.23112421809E+02  0.31571097155E+02  0.00000000000E+00 0. -1.
</event>
<event>
 4    1  0.2285999E+005  0.2424209E+02  0.7546771E-02  0.1477464E+00
          2   -1    0    0  502    0  0.00000000000E+00  0.00000000000E+00  0.63329915837E+02  0.63329915837E+02  0.00000000000E+00 0. -1.
         21   -1    0    0  503  502 -0.00000000000E+00 -0.00000000000E+00 -0.12137309710E+03  0.12137309710E+03  0.00000000000E+00 0. -1.
          2    1    1    2  501    0 -0.16157553946E+02  0.18072417992E+02  0.59729336439E+02  0.64461402971E+02  0.00000000000E+00 0. -1.
         21    1    1    2  503  501  0.16157553946E+02 -0.18072417992E+02 -0.11777251770E+03  0.12024160996E+03  0.00000000000E+00 0. -1.
</event>
<event>
 4    1  0.2285999E+005  0.2165594E+02  0.7546771E-02  0.1510102E+00
          2   -1    0    0  502    0  0.00000000000E+00  0.00000000000E+00  0.18921814940E+04  0.18921814940E+04  0.00000000000E+00 0. -1.
         21   -1    0    0  503  502 -0.00000000000E+00 -0.00000000000E+00 -0.27383272609E+00  0.27383272609E+00  0.00000000000E+00 0. -1.
          2    1    1    2  501    0  0.35987904671E+01 -0.21354823933E+02  0.12374170610E+04  0.12376065460E+04  0.00000000000E+00 0. -1.
         21    1    1    2  503  501 -0.35987904671E+01  0.21354823933E+02  0.65449060021E+03  0.65484878068E+03  0.00000000000E+00 0. -1.
</event>
<event>
 4    1  0.2285999E+005  0.2630347E+02  0.7546771E-02  0.1454733E+00
          2   -1    0    0  502    0  0.00000000000E+00  0.00000000000E+00  0.14371387584E+04  0.14371387584E+04  0.00000000000E+00 0.  1.
         21   -1    0    0  503  502 -0.00000000000E+00 -0.00000000000E+00 -0.16155207213E+01  0.16155207213E+01  0.00000000000E+00 0.  1.
          2    1    1    2  501    0  0.16656049774E+02 -0.20358004770E+02  0.13204953709E+04  0.13207573194E+04  0.00000000000E+00 0.  1.
         21    1    1    2  503  501 -0.16656049774E+02  0.20358004770E+02  0.11502786675E+03  0.11799695963E+03  0.00000000000E+00 0.  1.
</event>
<event>
 4    1  0.2285999E+005  0.5736895E+02  0.7546771E-02  0.1269044E+00
          2   -1    0    0  503    0  0.00000000000E+00  0.00000000000E+00  0.71608602855E+03  0.71608602855E+03  0.00000000000E+00 0.  1.
         21   -1    0    0  501  502 -0.00000000000E+00 -0.00000000000E+00 -0.96228144014E+01  0.96228144014E+01  0.00000000000E+00 0. -1.
          2    1    1    2  501    0 -0.20454601393E+01  0.57332470795E+02  0.61548667250E+03  0.61815454390E+03  0.00000000000E+00 0.  1.
         21    1    1    2  503  502  0.20454601393E+01 -0.57332470795E+02  0.90976541640E+02  0.10755429905E+03  0.00000000000E+00 0. -1.
</event>
<event>
 4    1  0.2285999E+005  0.6773282E+02  0.7546771E-02  0.1235604E+00
          2   -1    0    0  502    0  0.00000000000E+00  0.00000000000E+00  0.25260274035E+03  0.25260274035E+03  0.00000000000E+00 0. -1.
         21   -1    0    0  503  502 -0.00000000000E+00 -0.00000000000E+00 -0.88165694058E+02  0.88165694058E+02  0.00000000000E+00 0.  1.
          2    1    1    2  501    0  0.35897533776E+02 -0.57437806773E+02  0.23404253874E+03  0.24364655655E+03  0.00000000000E+00 0. -1.
         21    1    1    2  503  501 -0.35897533776E+02  0.57437806773E+02 -0.69605492454E+02  0.97121877854E+02  0.00000000000E+00 0.  1.
</event>
<event>
 4    1  0.2285999E+005  0.2199531E+02  0.7546771E-02  0.1505515E+00
          2   -1    0    0  503    0  0.00000000000E+00  0.00000000000E+00  0.27311362634E+02  0.27311362634E+02  0.00000000000E+00 0.  1.
         21   -1    0    0  501  502 -0.00000000000E+00 -0.00000000000E+00 -0.18775280365E+03  0.18775280365E+03  0.00000000000E+00 0. -1.
          2    1    1    2  501    0 -0.21840021927E+02 -0.26090069904E+01  0.22113023632E+02  0.31189409892E+02  0.00000000000E+00 0.  1.
         21    1    1    2  503  502  0.21840021927E+02  0.26090069904E+01 -0.18255446465E+03  0.18387475639E+03  0.00000000000E+00 0. -1.
</event>
<event>
 4    1  0.2285999E+005  0.2756218E+02  0.7546771E-02  0.1442041E+00
          2   -1    0    0  502    0  0.00000000000E+00  0.00000000000E+00  0.28758726780E+03  0.28758726780E+03  0.00000000000E+00 0. -1.
         21   -1    0    0  503  502 -0.00000000000E+00 -0.00000000000E+00 -0.28406263234E+02  0.28406263234E+02  0.00000000000E+00 0. -1.
          2    1    1    2  501    0  0.18740918416E+02 -0.20210185104E+02  0.28006187178E+03  0.28141486391E+03  0.00000000000E+00 0. -1.
         21    1    1    2  503  501 -0.18740918416E+02  0.20210185104E+02 -0.20880867208E+02  0.34578667128E+02  0.00000000000E+00 0. -1.
</event>
<event>
 4    1  0.2285999E+005  0.2428093E+02  0.7546771E-02  0.1477011E+00
          2   -1    0    0  503    0  0.00000000000E+00  0.00000000000E+00  0.12418859475E+03  0.12418859475E+03  0.00000000000E+00 0. -1.
         21   -1    0    0  501  502 -0.00000000000E+00 -0.00000000000E+00 -0.85396183704E+01  0.85396183704E+01  0.00000000000E+00 0. -1.
          2    1    1    2  501    0 -0.16397100729E+02 -0.17908065484E+02  0.10204919245E+03  0.10489805242E+03  0.00000000000E+00 0. -1.
         21    1    1    2  503  502  0.16397100729E+02  0.17908065484E+02  0.13599783929E+02  0.27830160700E+02  0.00000000000E+00 0. -1.
</event>
<event>
 4    1  0.2285999E+005  0.2834359E+02  0.7546771E-02  0.1434559E+00
          2   -1    0    0  502    0  0.00000000000E+00  0.00000000000E+00  0.14974044139E+03  0.14974044139E+03  0.00000000000E+00 0.  1.
         21   -1    0    0  503  502 -0.00000000000E+00 -0.00000000000E+00 -0.33640091014E+02  0.33640091014E+02  0.00000000000E+00 0. -1.
          2    1    1    2  501    0 -0.35050136337E+01 -0.28126034060E+02  0.14211156852E+03  0.14491051315E+03  0.00000000000E+00 0.  1.
         21    1    1    2  503  501  0.35050136337E+01  0.28126034060E+02 -0.26011218145E+02  0.38470019260E+02  0.00000000000E+00 0. -1.
</event>
<event>
 4    1  0.2285999E+005  0.2258360E+02  0.7546771E-02  0.1497794E+00
          2   -1    0    0  503    0  0.00000000000E+00  0.00000000000E+00  0.17570922246E+04  0.17570922246E+04  0.00000000000E+00 0. -1.
         21   -1    0    0  501  502 -0.00000000000E+00 -0.00000000000E+00 -0.80429752495E+00  0.80429752495E+00  0.00000000000E+00 0.  1.
          2    1    1    2  501    0  0.15706857004E+02 -0.16226935882E+02  0.15808134636E+04  0.15809747706E+04  0.00000000000E+00 0. -1.
         21    1    1    2  503  502 -0.15706857004E+02  0.16226935882E+02  0.17547446350E+03  0.17692175147E+03  0.00000000000E+00 0.  1.
</event>
<event>
 4    1  0.2285999E+005  0.2181053E+02  0.7546771E-02  0.1508000E+00
          2   -1    0    0  503    0  0.00000000000E+00  0.00000000000E+00  0.38072800121E+01  0.38072800121E+01  0.00000000000E+00 0. -1.
         21   -1    0    0  501  502 -0.00000000000E+00 -0.00000000000E+00 -0.14749710774E+03  0.14749710774E+03  0.00000000000E+00 0. -1.
          2    1    1    2  501    0  0.20519385367E+02  0.73928452938E+01 -0.42262981517E+02  0.47559004869E+02  0.00000000000E+00 0. -1.
         21    1    1    2  503  502 -0.20519385367E+02 -0.73928452938E+01 -0.10142684621E+03  0.10374538288E+03  0.00000000000E+00 0. -1.
</event>
<event>
 4    1  0.2285999E+005  0.2535114E+02  0.7546771E-02  0.1464913E+00
          2   -1    0    0  503    0  0.00000000000E+00  0.00000000000E+00  0.82509601278E+03  0.82509601278E+03  0.00000000000E+00 0. -1.
         21   -1    0    0  501  502 -0.00000000000E+00 -0.00000000000E+00 -0.14545710813E+01  0.14545710813E+01  0.00000000000E+00 0.  1.
          2    1    1    2  501    0 -0.17510197373E+02 -0.18332298860E+02  0.69348683631E+03  0.69395005031E+03  0.00000000000E+00 0. -1.
         21    1    1    2  503  502  0.17510197373E+02  0.18332298860E+02  0.13015460539E+03  0.13260053355E+03  0.00000000000E+00 0.  1.
</event>
<event>
 4    1  0.2631600E+005  0.2259056E+02  0.7546771E-02  0.1497704E+00
          2   -1    0    0  502    0  0.00000000000E+00  0.00000000000E+00  0.15802830091E+04  0.15802830091E+04  0.00000000000E+00 0.  1.
         21   -1    0    0  503  502 -0.00000000000E+00 -0.00000000000E+00 -0.82522112428E+02  0.82522112428E+02  0.00000000000E+00 0.  1.
          2    1    1    2  501    0  0.10143672609E+02  0.20185130776E+02  0.15786546289E+04  0.15788162562E+04  0.00000000000E+00 0.  1.
         21    1    1    2  503  501 -0.10143672609E+02 -0.20185130776E+02 -0.80893732171E+02  0.83988865352E+02  0.00000000000E+00 0.  1.
</event>
<event>
 4    1  0.2285999E+005  0.2531658E+02  0.7546771E-02  0.1465293E+00
          2   -1    0    0  503    0  0.00000000000E+00  0.00000000000E+00  0.52192073596E+03  0.52192073596E+03  0.00000000000E+00 0.  1.
         21   -1    0    0  501  502 -0.00000000000E+00 -0.00000000000E+00 -0.32233728776E+02  0.32233728776E+02  0.00000000000E+00 0. -1.
          2    1    1    2  501    0 -0.19371219604E+02 -0.16299854384E+02  0.51659152775E+03  0.51721150021E+03  0.00000000000E+00 0.  1.
         21    1    1    2  503  502  0.19371219604E+02  0.16299854384E+02 -0.26904520562E+02  0.36942964534E+02  0.00000000000E+00 0. -1.
</event>
<event>
 4    1  0.2285999E+005  0.3707513E+02  0.7546771E-02  0.1366534E+00
          2   -1    0    0  503    0  0.00000000000E+00  0.00000000000E+00  0.38134880713E+03  0.38134880713E+03  0.00000000000E+00 0. -1.
         21   -1    0    0  501  502 -0.00000000000E+00 -0.00000000000E+00 -0.36895895317E+01  0.36895895317E+01  0.00000000000E+00 0.  1.
          2    1    1    2  501    0  0.26317554864E+02  0.26114198121E+02  0.15959022815E+03  0.16384018420E+03  0.00000000000E+00 0. -1.
         21    1    1    2  503  502 -0.26317554864E+02 -0.26114198121E+02  0.21806898945E+03  0.22119821246E+03  0.00000000000E+00 0.  1.
</event>
<event>
 4    1  0.2285999E+005  0.2709658E+02  0.7546771E-02  0.1446640E+00
          2   -1    0    0  503    0  0.00000000000E+00  0.00000000000E+00  0.29397829541E+01  0.29397829541E+01  0.00000000000E+00 0.  1.
         21   -1    0    0  501  502 -0.00000000000E+00 -0.00000000000E+00 -0.41359445817E+03  0.41359445817E+03  0.00000000000E+00 0.  1.
          2    1    1    2  501    0  0.44521181690E+01 -0.26728324857E+02 -0.74245366601E+02  0.79035429825E+02  0.00000000000E+00 0.  1.
         21    1    1    2  503  502 -0.44521181690E+01  0.26728324857E+02 -0.33640930861E+03  0.33749881130E+03  0.00000000000E+00 0.  1.
</event>
<event>
 4    1  0.2285999E+005  0.2652283E+02  0.7546771E-02  0.1452461E+00
          2   -1    0    0  503    0  0.00000000000E+00  0.00000000000E+00  0.13137764471E+03  0.13137764471E+03  0.00000000000E+00 0.  1.
         21   -1    0    0  501  502 -0.00000000000E+00 -0.00000000000E+00 -0.79865790656E+01  0.79865790656E+01  0.00000000000E+00 0.  1.
          2    1    1    2  501    0  0.25222390577E+02  0.82031420968E+01  0.10169839311E+03  0.10510006512E+03  0.00000000000E+00 0.  1.
         21    1    1    2  503  502 -0.25222390577E+02 -0.82031420968E+01  0.21692672528E+02  0.34264158651E+02  0.00000000000E+00 0.  1.
</event>
<event>
 4    1  0.2285999E+005  0.2449411E+02  0.7546771E-02  0.1474543E+00
          2   -1    0    0  503    0  0.00000000000E+00  0.00000000000E+00  0.11182256118E+02  0.11182256118E+02  0.00000000000E+00 0.  1.
         21   -1    0    0  501  502 -0.00000000000E+00 -0.00000000000E+00 -0.91116188298E+03  0.91116188298E+03  0.00000000000E+00 0.  1.
          2    1    1    2  501    0 -0.98455100689E+01 -0.22428266431E+02 -0.26015904486E+01  0.24631879272E+02  0.00000000000E+00 0.  1.
         21    1    1    2  503  502  0.98455100689E+01  0.22428266431E+02 -0.89737803642E+03  0.89771225983E+03  0.00000000000E+00 0.  1.
</event>
<event>
 4    1  0.2285999E+005  0.4010964E+02  0.7546771E-02  0.1347844E+00
          2   -1    0    0  502    0  0.00000000000E+00  0.00000000000E+00  0.17003527585E+04  0.17003527585E+04  0.00000000000E+00 0. -1.
         21   -1    0    0  503  502 -0.00000000000E+00 -0.00000000000E+00 -0.13793593525E+02  0.13793593525E+02  0.00000000000E+00 0. -1.
          2    1    1    2  501    0 -0.16564233549E+02 -0.36529572780E+02  0.16704359207E+04  0.16709173973E+04  0.00000000000E+00 0. -1.
         21    1    1    2  503  501  0.16564233549E+02  0.36529572780E+02  0.16123244314E+02  0.43228954738E+02  0.00000000000E+00 0. -1.
</event>
<event>
 4    1  0.2285999E+005  0.2583428E+02  0.7546771E-02  0.1459683E+00
          2   -1    0    0  503    0  0.00000000000E+00  0.00000000000E+00  0.54291961491E+02  0.54291961491E+02  0.00000000000E+00 0. -1.
         21   -1    0    0  501  502 -0.00000000000E+00 -0.00000000000E+00 -0.17142003897E+02  0.17142003897E+02  0.00000000000E+00 0.  1.
          2    1    1    2  501    0  0.25802297123E+02  0.12850417198E+01  0.37571375752E+02  0.45596251435E+02  0.00000000000E+00 0. -1.
         21    1    1    2  503  502 -0.25802297123E+02 -0.12850417198E+01 -0.42141815858E+00  0.25837713953E+02  0.00000000000E+00 0.  1.
</event>
<event>
 4    1  0.2285999E+005  0.8816731E+02  0.7546771E-02  0.1186060E+00
          2   -1    0    0  503    0  0.00000000000E+00  0.00000000000E+00  0.64745817109E+03  0.64745817109E+03  0.00000000000E+00 0.  1.
         21   -1    0    0  501  502 -0.00000000000E+00 -0.00000000000E+00 -0.15872021033E+02  0.15872021033E+02  0.00000000000E+00 0.  1.
          2    1    1    2  501    0  0.61295580649E+02  0.63374489309E+02  0.47947768197E+03  0.48751648343E+03  0.00000000000E+00 0.  1.
         21    1    1    2  503  502 -0.61295580649E+02 -0.63374489309E+02  0.15210846808E+03  0.17581370869E+03  0.00000000000E+00 0.  1.
</event>
<event>
 4    1  0.2285999E+005  0.2350274E+02  0.7546771E-02  0.1486280E+00
          2   -1    0    0  503    0  0.00000000000E+00  0.00000000000E+00  0.64311260233E+03  0.64311260233E+03  0.00000000000E+00 0.  1.
         21   -1    0    0  501  502 -0.00000000000E+00 -0.00000000000E+00 -0.86365991892E+00  0.86365991892E+00  0.00000000000E+00 0. -1.
          2    1    1    2  501    0 -0.17479763408E+02 -0.15711036719E+02  0.34499165522E+03  0.34579129685E+03  0.00000000000E+00 0.  1.
         21    1    1    2  503  502  0.17479763408E+02  0.15711036719E+02  0.29725728718E+03  0.29818496539E+03  0.00000000000E+00 0. -1.
</event>
<event>
 4    1  0.2285999E+005  0.3164618E+02  0.7546771E-02  0.1405811E+00
          2   -1    0    0  503    0  0.00000000000E+00  0.00000000000E+00  0.54382155122E+03  0.54382155122E+03  0.00000000000E+00 0. -1.
         21   -1    0    0  501  502 -0.00000000000E+00 -0.00000000000E+00 -0.14185888621E+03  0.14185888621E+03  0.00000000000E+00 0.  1.
          2    1    1    2  501    0  0.41331632912E+01 -0.31375107589E+02  0.54158896806E+03  0.54251275630E+03  0.00000000000E+00 0. -1.
         21    1    1    2  503  502 -0.41331632912E+01  0.31375107589E+02 -0.13962630306E+03  0.14316768113E+03  0.00000000000E+00 0.  1.
</event>
<event>
 4    1  0.2285999E+005  0.2128974E+02  0.7546771E-02  0.1515168E+00
          2   -1    0    0  502    0  0.00000000000E+00  0.00000000000E+00  0.27102355369E+03  0.27102355369E+03  0.00000000000E+00 0.  1.
         21   -1    0    0  503  502 -0.00000000000E+00 -0.00000000000E+00 -0.55886837731E+01  0.55886837731E+01  0.00000000000E+00 0.  1.
          2    1    1    2  501    0  0.56582848839E+01 -0.20524059607E+02  0.24849516983E+03  0.24940549841E+03  0.00000000000E+00 0.  1.
         21    1    1    2  503  501 -0.56582848839E+01  0.20524059607E+02  0.16939700086E+02  0.27206739047E+02  0.00000000000E+00 0.  1.
</event>
<event>
 4    1  0.2285999E+005  0.2326756E+02  0.7546771E-02  0.1489165E+00
          2   -1    0    0  503    0  0.00000000000E+00  0.00000000000E+00  0.32015774983E+03  0.32015774983E+03  0.00000000000E+00 0. -1.
         21   -1    0    0  501  502 -0.00000000000E+00 -0.00000000000E+00 -0.16936814943E+01  0.16936814943E+01  0.00000000000E+00 0. -1.
          2    1    1    2  501    0 -0.21604869243E+02  0.86376462925E+01  0.16566295849E+03  0.16728895697E+03  0.00000000000E+00 0. -1.
         21    1    1    2  503  502  0.21604869243E+02 -0.86376462925E+01  0.15280110985E+03  0.15456247436E+03  0.00000000000E+00 0. -1.
</event>
<event>
 4    1  0.2285999E+005  0.2207923E+02  0.7546771E-02  0.1504396E+00
          2   -1    0    0  502    0  0.00000000000E+00  0.00000000000E+00  0.13106647039E+04  0.13106647039E+04  0.00000000000E+00 0.  1.
         21   -1    0    0  503  502 -0.00000000000E+00 -0.00000000000E+00 -0.19756130304E+02  0.19756130304E+02  0.00000000000E+00 0.  1.
          2    1    1    2  501    0 -0.15145306812E+02  0.16065866789E+02  0.13043730898E+04  0.13045599449E+04  0.00000000000E+00 0.  1.
         21    1    1    2  503  501  0.15145306812E+02 -0.16065866789E+02 -0.13464516278E+02  0.25860889249E+02  0.00000000000E+00 0.  1.
</event>
<event>
 4    1  0.2285999E+005  0.2036474E+02  0.7546771E-02  0.1528531E+00
          2   -1    0    0  502    0  0.00000000000E+00  0.00000000000E+00  0.46084502387E+02  0.46084502387E+02  0.00000000000E+00 0. -1.
         21   -1    0    0  503  502 -0.00000000000E+00 -0.00000000000E+00 -0.10458728830E+03  0.10458728830E+03  0.00000000000E+00 0.  1.
          2    1    1    2  501    0 -0.63598253256E+01  0.19346192984E+02  0.42770485532E+02  0.47371267598E+02  0.00000000000E+00 0. -1.
         21    1    1    2  503  501  0.63598253256E+01 -0.19346192984E+02 -0.10127327144E+03  0.10330052309E+03  0.00000000000E+00 0.  1.
</event>
<event>
 4    1  0.2285999E+005  0.2566913E+02  0.7546771E-02  0.1461455E+00
          2   -1    0    0  503    0  0.00000000000E+00  0.00000000000E+00  0.15421078559E+04  0.15421078559E+04  0.00000000000E+00 0. -1.
         21   -1    0    0  501  502 -0.00000000000E+00 -0.00000000000E+00 -0.81445672106E+01  0.81445672106E+01  0.00000000000E+00 0.  1.
          2    1    1    2  501    0 -0.20409291068E+02  0.15568076052E+02  0.15215018761E+04  0.15217183916E+04  0.00000000000E+00 0. -1.
         21    1    1    2  503  502  0.20409291068E+02 -0.15568076052E+02  0.12461412574E+02  0.28534031562E+02  0.00000000000E+00 0.  1.
</event>
<event>
 4    1  0.2285999E+005  0.2129288E+02  0.7546771E-02  0.1515124E+00
          2   -1    0    0  502    0  0.00000000000E+00  0.00000000000E+00  0.88000047642E+01  0.88000047642E+01  0.00000000000E+00 0.  1.
         21   -1    0    0  503  502 -0.00000000000E+00 -0.00000000000E+00 -0.32756591418E+03  0.32756591418E+03  0.00000000000E+00 0. -1.
          2    1    1    2  501    0  0.14923053267E+02 -0.15188463439E+02 -0.49918252853E+01  0.21870191132E+02  0.00000000000E+00 0.  1.
         21    1    1    2  503  501 -0.14923053267E+02  0.15188463439E+02 -0.31377408413E+03  0.31449572781E+03  0.00000000000E+00 0. -1.
</event>
<event>
 4    1  0.2285999E+005  0.2094436E+02  0.7546771E-02  0.1520061E+00
          2   -1    0    0  502    0  0.00000000000E+00  0.00000000000E+00  0.44029774398E+03  0.44029774398E+03  0.00000000000E+00 0.  1.
         21   -1    0    0  503  502 -0.00000000000E+00 -0.00000000000E+00 -0.18515827064E+02  0.18515827064E+02  0.00000000000E+00 0.  1.
          2    1    1    2  501    0 -0.15942456497E+02  0.13583228413E+02  0.43404048246E+03  0.43454551710E+03  0.00000000000E+00 0.  1.
         21    1    1    2  503  501  0.15942456497E+02 -0.13583228413E+02 -0.12258565543E+02  0.24268053949E+02  0.00000000000E+00 0.  1.
</event>
<event>
 4    1  0.2285999E+005  0.2800046E+02  0.7546771E-02  0.1437809E+00
          2   -1    0    0  503    0  0.00000000000E+00  0.00000000000E+00  0.10598361804E+04  0.10598361804E+04  0.00000000000E+00 0.  1.
         21   -1    0    0  501  502 -0.00000000000E+00 -0.00000000000E+00 -0.87309498284E+01  0.87309498284E+01  0.00000000000E+00 0.  1.
          2    1    1    2  501    0 -0.20905547253E+02 -0.18627506590E+02  0.10367007193E+04  0.10370787855E+04  0.00000000000E+00 0.  1.
         21    1    1    2  503  502  0.20905547253E+02  0.18627506590E+02  0.14404511215E+02  0.31488344686E+02  0.00000000000E+00 0.  1.
</event>
<event>
 4    1  0.2285999E+005  0.3215669E+02  0.7546771E-02  0.1401736E+00
          2   -1    0    0  502    0  0.00000000000E+00  0.00000000000E+00  0.15924592384E+04  0.15924592384E+04  0.00000000000E+00 0.  1.
         21   -1    0    0  503  502 -0.00000000000E+00 -0.00000000000E+00 -0.96614723668E+00  0.96614723668E+00  0.00000000000E+00 0.  1.
          2    1    1    2  501    0  0.20999489141E+02  0.24353109071E+02  0.12519677636E+04  0.12523806664E+04  0.00000000000E+00 0.  1.
         21    1    1    2  503  501 -0.20999489141E+02 -0.24353109071E+02  0.33952532747E+03  0.34104471915E+03  0.00000000000E+00 0.  1.
</event>
<event>
 4    1  0.2319735E+005  0.2511378E+02  0.7546771E-02  0.1467534E+00
          2   -1    0    0  503    0  0.00000000000E+00  0.00000000000E+00  0.72752969062E+03  0.72752969062E+03  0.00000000000E+00 0. -1.
         21   -1    0    0  501  502 -0.00000000000E+00 -0.00000000000E+00 -0.34850218884E+03  0.34850218884E+03  0.00000000000E+00 0.  1.
          2    1    1    2  501    0  0.21574768495E+02 -0.12854234062E+02  0.72686010914E+03  0.72729383348E+03  0.00000000000E+00 0. -1.
         21    1    1    2  503  502 -0.21574768495E+02  0.12854234062E+02 -0.34783260736E+03  0.34873804598E+03  0.00000000000E+00 0.  1.
</event>
<event>
 4    1  0.2285999E+005  0.2424414E+02  0.7546771E-02  0.1477440E+00
          2   -1    0    0  503    0  0.00000000000E+00  0.00000000000E+00  0.11805671391E+03  0.11805671391E+03  0.00000000000E+00 0. -1.
         21   -1    0    0  501  502 -0.00000000000E+00 -0.00000000000E+00 -0.10427118082E+03  0.10427118082E+03  0.00000000000E+00 0. -1.
          2    1    1    2  501    0 -0.15527684711E+02 -0.18619056509E+02  0.11537030524E+03  0.11789014203E+03  0.00000000000E+00 0. -1.
         21    1    1    2  503  502  0.15527684711E+02  0.18619056509E+02 -0.10158477215E+03  0.10443775270E+03  0.00000000000E+00 0. -1.
</event>
<event>
 4    1  0.2285999E+005  0.2765739E+02  0.7546771E-02  0.1441114E+00
          2   -1    0    0  503    0  0.00000000000E+00  0.00000000000E+00  0.15654924313E+04  0.15654924313E+04  0.00000000000E+00 0.  1.
         21   -1    0    0  501  502 -0.00000000000E+00 -0.00000000000E+00 -0.57828386262E+01  0.57828386262E+01  0.00000000000E+00 0. -1.
          2    1    1    2  501    0 -0.20008072740E+02  0.19094722535E+02  0.15315688435E+04  0.15318185447E+04  0.00000000000E+00 0.  1.
         21    1    1    2  503  502  0.20008072740E+02 -0.19094722535E+02  0.28140749141E+02  0.39456725228E+02  0.00000000000E+00 0. -1.
</event>
<event>
 4    1  0.2285999E+005  0.5024375E+02  0.7546771E-02  0.1297119E+00
          2   -1    0    0  503    0  0.00000000000E+00  0.00000000000E+00  0.77980111925E+03  0.77980111925E+03  0.00000000000E+00 0.  1.
         21   -1    0    0  501  502 -0.00000000000E+00 -0.00000000000E+00 -0.97704792386E+01  0.97704792386E+01  0.00000000000E+00 0.  1.
          2    1    1    2  501    0 -0.49633127125E+02 -0.78094212997E+01  0.70783986611E+03  0.70962082159E+03  0.00000000000E+00 0.  1.
         21    1    1    2  503  502  0.49633127125E+02  0.78094212997E+01  0.62190773898E+02  0.79950776903E+02  0.00000000000E+00 0.  1.
</event>
<event>
 4    1  0.2285999E+005  0.4910278E+02  0.7546771E-02  0.1302110E+00
          2   -1    0    0  503    0  0.00000000000E+00  0.00000000000E+00  0.11379972964E+04  0.11379972964E+04  0.00000000000E+00 0.  1.
         21   -1    0    0  501  502 -0.00000000000E+00 -0.00000000000E+00 -0.54469229446E+01  0.54469229446E+01  0.00000000000E+00 0.  1.
          2    1    1    2  501    0 -0.21393470660E+02  0.44197311251E+02  0.10131800865E+04  0.10143692477E+04  0.00000000000E+00 0.  1.
         21    1    1    2  503  502  0.21393470660E+02 -0.44197311251E+02  0.11937028695E+03  0.12907497168E+03  0.00000000000E+00 0.  1.
</event>
<event>
 4    1  0.2285999E+005  0.3376301E+02  0.7546771E-02  0.1389474E+00
          2   -1    0    0  502    0  0.00000000000E+00  0.00000000000E+00  0.48294716305E+03  0.48294716305E+03  0.00000000000E+00 0. -1.
         21   -1    0    0  503  502 -0.00000000000E+00 -0.00000000000E+00 -0.59505686772E+01  0.59505686772E+01  0.00000000000E+00 0.  1.
          2    1    1    2  501    0 -0.45121145869E+01  0.33460150247E+02  0.42837302999E+03  0.42970151693E+03  0.00000000000E+00 0. -1.
         21    1    1    2  503  501  0.45121145869E+01 -0.33460150247E+02  0.48623564387E+02  0.59196214797E+02  0.00000000000E+00 0.  1.
</event>
<event>
 4    1  0.2285999E+005  0.2590162E+02  0.7546771E-02  0.1458965E+00
          2   -1    0    0  503    0  0.00000000000E+00  0.00000000000E+00  0.94733475961E+03  0.94733475961E+03  0.00000000000E+00 0.  1.
         21   -1    0    0  501  502 -0.00000000000E+00 -0.00000000000E+00 -0.20541741700E+02  0.20541741700E+02  0.00000000000E+00 0. -1.
          2    1    1    2  501    0  0.24038344115E+02  0.96463550812E+01  0.93891953485E+03  0.93927673615E+03  0.00000000000E+00 0.  1.
         21    1    1    2  503  502 -0.24038344115E+02 -0.96463550812E+01 -0.12126516938E+02  0.28599765160E+02  0.00000000000E+00 0. -1.
</event>
<event>
 4    1  0.2285999E+005  0.2214263E+02  0.7546771E-02  0.1503554E+00
          2   -1    0    0  502    0  0.00000000000E+00  0.00000000000E+00  0.11972342924E+03  0.11972342924E+03  0.00000000000E+00 0.  1.
         21   -1    0    0  503  502 -0.00000000000E+00 -0.00000000000E+00 -0.55670286109E+02  0.55670286109E+02  0.00000000000E+00 0.  1.
          2    1    1    2  501    0 -0.13148824692E+02 -0.17815852363E+02  0.11643622508E+03  0.11852295431E+03  0.00000000000E+00 0.  1.
         21    1    1    2  503  501  0.13148824692E+02  0.17815852363E+02 -0.52383081953E+02  0.56870761039E+02  0.00000000000E+00 0.  1.
</event>
<event>
 4    1  0.2285999E+005  0.2240142E+02  0.7546771E-02  0.1500154E+00
          2   -1    0    0  503    0  0.00000000000E+00  0.00000000000E+00  0.11133664387E+04  0.11133664387E+04  0.00000000000E+00 0.  1.
         21   -1    0    0  501  502 -0.00000000000E+00 -0.00000000000E+00 -0.96530985968E+01  0.96530985968E+01  0.00000000000E+00 0. -1.
          2    1    1    2  501    0  0.34992294984E+01  0.22126435826E+02  0.11001006099E+04  0.11003286671E+04  0.00000000000E+00 0.  1.
         21    1    1    2  503  502 -0.34992294984E+01 -0.22126435826E+02  0.36127301842E+01  0.22690870164E+02  0.00000000000E+00 0. -1.
</event>
<event>
 4    1  0.2285999E+005  0.2873130E+02  0.7546771E-02  0.1430951E+00
          2   -1    0    0  502    0  0.00000000000E+00  0.00000000000E+00  0.61933417096E+03  0.61933417096E+03  0.00000000000E+00 0.  1.
         21   -1    0    0  503  502 -0.00000000000E+00 -0.00000000000E+00 -0.25502226646E+02  0.25502226646E+02  0.00000000000E+00 0. -1.
          2    1    1    2  501    0  0.20528516786E+02  0.20101439631E+02  0.61079557969E+03  0.61147095438E+03  0.00000000000E+00 0.  1.
         21    1    1    2  503  501 -0.20528516786E+02 -0.20101439631E+02 -0.16963635378E+02  0.33365443229E+02  0.00000000000E+00 0. -1.
</event>
<event>
 4    1  0.2285999E+005  0.2102544E+02  0.7546771E-02  0.1518902E+00
          2   -1    0    0  503    0  0.00000000000E+00  0.00000000000E+00  0.12146588314E+03  0.12146588314E+03  0.00000000000E+00 0.  1.
         21   -1    0    0  501  502 -0.00000000000E+00 -0.00000000000E+00 -0.12446531989E+02  0.12446531989E+02  0.00000000000E+00 0. -1.
          2    1    1    2  501    0 -0.14530302812E+02 -0.15196689308E+02  0.11083227304E+03  0.11280896159E+03  0.00000000000E+00 0.  1.
         21    1    1    2  503  502  0.14530302812E+02  0.15196689308E+02 -0.18129218926E+01  0.21103453545E+02  0.00000000000E+00 0. -1.
</event>
<event>
 4    1  0.2285999E+005  0.3555660E+02  0.7546771E-02  0.1376692E+00
          2   -1    0    0  503    0  0.00000000000E+00  0.00000000000E+00  0.19920059943E+04  0.19920059943E+04  0.00000000000E+00 0.  1.
         21   -1    0    0  501  502 -0.00000000000E+00 -0.00000000000E+00 -0.97040612844E+01  0.97040612844E+01  0.00000000000E+00 0. -1.
          2    1    1    2  501    0  0.34502061177E+02 -0.85953206936E+01  0.19587232417E+04  0.19590459437E+04  0.00000000000E+00 0.  1.
         21    1    1    2  503  502 -0.34502061177E+02  0.85953206936E+01  0.23578691327E+02  0.42664111944E+02  0.00000000000E+00 0. -1.
</event>
<event>
 4    1  0.2285999E+005  0.3553744E+02  0.7546771E-02  0.1376824E+00
          2   -1    0    0  503    0  0.00000000000E+00  0.00000000000E+00  0.25521121127E+04  0.25521121127E+04  0.00000000000E+00 0. -1.
         21   -1    0    0  501  502 -0.00000000000E+00 -0.00000000000E+00 -0.42403520884E+02  0.42403520884E+02  0.00000000000E+00 0. -1.
          2    1    1    2  501    0  0.24206654323E+02 -0.26018213584E+02  0.25445204043E+04  0.25447685548E+04  0.00000000000E+00 0. -1.
         21    1    1    2  503  502 -0.24206654323E+02  0.26018213584E+02 -0.34811812534E+02  0.49747078744E+02  0.00000000000E+00 0. -1.
</event>
<event>
 4    1  0.2285999E+005  0.2462969E+02  0.7546771E-02  0.1472989E+00
          2   -1    0    0  502    0  0.00000000000E+00  0.00000000000E+00  0.22903868518E+03  0.22903868518E+03  0.00000000000E+00 0.  1.
         21   -1    0    0  503  502 -0.00000000000E+00 -0.00000000000E+00 -0.51287293716E+03  0.51287293716E+03  0.00000000000E+00 0. -1.
          2    1    1    2  501    0 -0.13994886452E+02 -0.20267333437E+02  0.22807960869E+03  0.22940560052E+03  0.00000000000E+00 0.  1.
         21    1    1    2  503  501  0.13994886452E+02  0.20267333437E+02 -0.51191386067E+03  0.51250602182E+03  0.00000000000E+00 0. -1.
</event>
<event>
 4    1  0.2285999E+005  0.2059026E+02  0.7546771E-02  0.1525196E+00
          2   -1    0    0  503    0  0.00000000000E+00  0.00000000000E+00  0.97222745370E+01  0.97222745370E+01  0.00000000000E+00 0. -1.
         21   -1    0    0  501  502 -0.00000000000E+00 -0.00000000000E+00 -0.58561229445E+02  0.58561229445E+02  0.00000000000E+00 0. -1.
          2    1    1    2  501    0 -0.18511260666E+02 -0.90162060533E+01 -0.71665239784E+01  0.21801784536E+02  0.00000000000E+00 0. -1.
         21    1    1    2  503  502  0.18511260666E+02  0.90162060533E+01 -0.41672430929E+02  0.46481719445E+02  0.00000000000E+00 0. -1.
</event>
<event>
 4    1  0.2285999E+005  0.2153978E+02  0.7546771E-02  0.1511696E+00
          2   -1    0    0  502    0  0.00000000000E+00  0.00000000000E+00  0.13739974711E+04  0.13739974711E+04  0.00000000000E+00 0. -1.
         21   -1    0    0  503  502 -0.00000000000E+00 -0.00000000000E+00 -0.37330206509E+02  0.37330206509E+02  0.00000000000E+00 0.  1.
          2    1    1    2  501    0  0.13045593387E+02 -0.17139860705E+02  0.13707986517E+04  0.13709678719E+04  0.00000000000E+00 0. -1.
         21    1    1    2  503  501 -0.13045593387E+02  0.17139860705E+02 -0.34131387093E+02  0.40359805707E+02  0.00000000000E+00 0.  1.
</event>
<event>
 4    1  0.2285999E+005  0.5705537E+02  0.7546771E-02  0.1270179E+00
          2   -1    0    0  503    0  0.00000000000E+00  0.00000000000E+00  0.18928281666E+04  0.18928281666E+04  0.00000000000E+00 0. -1.
         21   -1    0    0  501  502 -0.00000000000E+00 -0.00000000000E+00 -0.11753819265E+02  0.11753819265E+02  0.00000000000E+00 0.  1.
          2    1    1    2  501    0  0.36606363624E+02  0.43764017698E+02  0.18204047290E+04  0.18212986281E+04  0.00000000000E+00 0. -1.
         21    1    1    2  503  502 -0.36606363624E+02 -0.43764017698E+02  0.60669618328E+02  0.83283357827E+02  0.00000000000E+00 0.  1.
</event>
<event>
 4    1  0.2285999E+005  0.4339259E+02  0.7546771E-02  0.1329675E+00
          2   -1    0    0  503    0  0.00000000000E+00  0.00000000000E+00  0.52586763960E+03  0.52586763960E+03  0.00000000000E+00 0.  1.
         21   -1    0    0  501  502 -0.00000000000E+00 -0.00000000000E+00 -0.88207229147E+02  0.88207229147E+02  0.00000000000E+00 0. -1.
          2    1    1    2  501    0 -0.36058664438E+02 -0.24138957059E+02  0.51957130585E+03  0.52138014768E+03  0.00000000000E+00 0.  1.
         21    1    1    2  503  502  0.36058664438E+02  0.24138957059E+02 -0.81910895399E+02  0.92694721069E+02  0.00000000000E+00 0. -1.
</event>
<event>
 4    1  0.2285999E+005  0.2706668E+02  0.7546771E-02  0.1446939E+00
          2   -1    0    0  502    0  0.00000000000E+00  0.00000000000E+00  0.18446687606E+01  0.18446687606E+01  0.00000000000E+00 0. -1.
         21   -1    0    0  503  502 -0.00000000000E+00 -0.00000000000E+00 -0.61204019499E+03  0.61204019499E+03  0.00000000000E+00 0.  1.
          2    1    1    2  501    0 -0.14139430040E+01 -0.27029728015E+02 -0.12322072691E+03  0.12615844392E+03  0.00000000000E+00 0. -1.
         21    1    1    2  503  501  0.14139430040E+01  0.27029728015E+02 -0.48697479932E+03  0.48772641983E+03  0.00000000000E+00 0.  1.
</event>
<event>
 4    1  0.2285999E+005  0.2316275E+02  0.7546771E-02  0.1490465E+00
          2   -1    0    0  502    0  0.00000000000E+00  0.00000000000E+00  0.19351684756E+03  0.19351684756E+03  0.00000000000E+00 0.  1.
         21   -1    0    0  503  502 -0.00000000000E+00 -0.00000000000E+00 -0.69258361306E+01  0.69258361306E+01  0.00000000000E+00 0.  1.
          2    1    1    2  501    0 -0.22490184827E+02 -0.55411621076E+01  0.17090699962E+03  0.17246946226E+03  0.00000000000E+00 0.  1.
         21    1    1    2  503  501  0.22490184827E+02  0.55411621076E+01  0.15684011808E+02  0.27973221435E+02  0.00000000000E+00 0.  1.
</event>
<event>
 4    1  0.2285999E+005  0.2780174E+02  0.7546771E-02  0.1439717E+00
          2   -1    0    0  503    0  0.00000000000E+00  0.00000000000E+00  0.15464682367E+03  0.15464682367E+03  0.00000000000E+00 0.  1.
         21   -1    0    0  501  502 -0.00000000000E+00 -0.00000000000E+00 -0.13803794358E+02  0.13803794358E+02  0.00000000000E+00 0. -1.
          2    1    1    2  501    0 -0.23576587174E+02 -0.14733681612E+02  0.13769218058E+03  0.14047089887E+03  0.00000000000E+00 0.  1.
         21    1    1    2  503  502  0.23576587174E+02  0.14733681612E+02  0.31508487371E+01  0.27979719162E+02  0.00000000000E+00 0. -1.
</event>
<event>
 4    1  0.2285999E+005  0.2236408E+02  0.7546771E-02  0.1500642E+00
          2   -1    0    0  503    0  0.00000000000E+00  0.00000000000E+00  0.46958936503E+03  0.46958936503E+03  0.00000000000E+00 0.  1.
         21   -1    0    0  501  502 -0.00000000000E+00 -0.00000000000E+00 -0.11898823560E+02  0.11898823560E+02  0.00000000000E+00 0. -1.
          2    1    1    2  501    0  0.12836994775E+02 -0.18312932662E+02  0.45856211058E+03  0.45910713477E+03  0.00000000000E+00 0.  1.
         21    1    1    2  503  502 -0.12836994775E+02  0.18312932662E+02 -0.87156910697E+00  0.22381053823E+02  0.00000000000E+00 0. -1.
</event>
<event>
 4    1  0.2285999E+005  0.2785059E+02  0.7546771E-02  0.1439246E+00
          2   -1    0    0  503    0  0.00000000000E+00  0.00000000000E+00  0.62815725314E+02  0.62815725314E+02  0.00000000000E+00 0.  1.
         21   -1    0    0  501  502 -0.00000000000E+00 -0.00000000000E+00 -0.29966662733E+03  0.29966662733E+03  0.00000000000E+00 0. -1.
          2    1    1    2  501    0 -0.12291422274E+02  0.24991528975E+02  0.59042317878E+02  0.65281321083E+02  0.00000000000E+00 0.  1.
         21    1    1    2  503  502  0.12291422274E+02 -0.24991528975E+02 -0.29589321989E+03  0.29720103156E+03  0.00000000000E+00 0. -1.
</event>
<event>
 4    1  0.2285999E+005  0.2909147E+02  0.7546771E-02  0.1427659E+00
          2   -1    0    0  503    0  0.00000000000E+00  0.00000000000E+00  0.36758629570E+03  0.36758629570E+03  0.00000000000E+00 0.  1.
         21   -1    0    0  501  502 -0.00000000000E+00 -0.00000000000E+00 -0.16344197332E+02  0.16344197332E+02  0.00000000000E+00 0. -1.
          2    1    1    2  501    0 -0.10505054682E+02  0.27128534797E+02  0.35355256664E+03  0.35474741853E+03  0.00000000000E+00 0.  1.
         21    1    1    2  503  502  0.10505054682E+02 -0.27128534797E+02 -0.23104682689E+01  0.29183074508E+02  0.00000000000E+00 0. -1.
</event>
<event>
 4    1  0.2285999E+005  0.2178783E+02  0.7546771E-02  0.1508307E+00
          2   -1    0    0  502    0  0.00000000000E+00  0.00000000000E+00  0.49179382743E+03  0.49179382743E+03  0.00000000000E+00 0. -1.
         21   -1    0    0  503  502 -0.00000000000E+00 -0.00000000000E+00 -0.17977620878E+01  0.17977620878E+01  0.00000000000E+00 0.  1.
          2    1    1    2  501    0  0.10159257997E+02 -0.19274305990E+02  0.41294186346E+03  0.41351625360E+03  0.00000000000E+00 0. -1.
         21    1    1    2  503  501 -0.10159257997E+02  0.19274305990E+02  0.77054201883E+02  0.80075335918E+02  0.00000000000E+00 0.  1.
</event>
<event>
 4    1  0.2285999E+005  0.2043427E+02  0.7546771E-02  0.1527497E+00
          2   -1    0    0  502    0  0.00000000000E+00  0.00000000000E+00  0.15319980281E+03  0.15319980281E+03  0.00000000000E+00 0. -1.
         21   -1    0    0  503  502 -0.00000000000E+00 -0.00000000000E+00 -0.21723756786E+02  0.21723756786E+02  0.00000000000E+00 0. -1.
          2    1    1    2  501    0 -0.19598638704E+02 -0.57838476808E+01  0.14752924872E+03  0.14893770094E+03  0.00000000000E+00 0. -1.
         21    1    1    2  503  501  0.19598638704E+02  0.57838476808E+01 -0.16053202700E+02  0.25985858654E+02  0.00000000000E+00 0. -1.
</event>
<event>
 4    1  0.2285999E+005  0.5910201E+02  0.7546771E-02  0.1262915E+00
          2   -1    0    0  503    0  0.00000000000E+00  0.00000000000E+00  0.83652336461E+03  0.83652336461E+03  0.00000000000E+00 0.  1.
         21   -1    0    0  501  502 -0.00000000000E+00 -0.00000000000E+00 -0.61002298661E+01  0.61002298661E+01  0.00000000000E+00 0. -1.
          2    1    1    2  501    0  0.39927826590E+02  0.43575410828E+02  0.65185580263E+03  0.65452962896E+03  0.00000000000E+00 0.  1.
         21    1    1    2  503  502 -0.39927826590E+02 -0.43575410828E+02  0.17856733211E+03  0.18809396551E+03  0.00000000000E+00 0. -1.
</event>
<event>
 4    1  0.2285999E+005  0.3984523E+02  0.7546771E-02  0.1349395E+00
          2   -1    0    0  502    0  0.00000000000E+00  0.00000000000E+00  0.78220095281E+03  0.78220095281E+03  0.00000000000E+00 0. -1.
         21   -1    0    0  503  502 -0.00000000000E+00 -0.00000000000E+00 -0.52576601918E+01  0.52576601918E+01  0.00000000000E+00 0. -1.
          2    1    1    2  501    0 -0.39190401369E+02  0.71940848345E+01  0.69697847674E+03  0.69811649419E+03  0.00000000000E+00 0. -1.
         21    1    1    2  503  501  0.39190401369E+02 -0.71940848345E+01  0.79964815883E+02  0.89342118820E+02  0.00000000000E+00 0. -1.
</event>
<event>
 4    1  0.2285999E+005  0.3145593E+02  0.7546771E-02  0.1407353E+00
          2   -1    0    0  503    0  0.00000000000E+00  0.00000000000E+00  0.15576318079E+04  0.15576318079E+04  0.00000000000E+00 0.  1.
         21   -1    0    0  501  502 -0.00000000000E+00 -0.00000000000E+00 -0.10702522778E+01  0.10702522778E+01  0.00000000000E+00 0.  1.
          2    1    1    2  501    0 -0.78673246087E+01  0.30456205306E+02  0.12751465971E+04  0.12755345230E+04  0.00000000000E+00 0.  1.
         21    1    1    2  503  502  0.78673246087E+01 -0.30456205306E+02  0.28141495852E+03  0.28316753719E+03  0.00000000000E+00 0.  1.
</event>
<event>
 4    1  0.2285999E+005  0.2220614E+02  0.7546771E-02  0.1502715E+00
          2   -1    0    0  503    0  0.00000000000E+00  0.00000000000E+00  0.33259174285E+02  0.33259174285E+02  0.00000000000E+00 0. -1.
         21   -1    0    0  501  502 -0.00000000000E+00 -0.00000000000E+00 -0.38311266234E+02  0.38311266234E+02  0.00000000000E+00 0. -1.
          2    1    1    2  501    0  0.22198495022E+02 -0.58273518548E+00  0.25491802467E+02  0.33807465959E+02  0.00000000000E+00 0. -1.
         21    1    1    2  503  502 -0.22198495022E+02  0.58273518548E+00 -0.30543894416E+02  0.37762974560E+02  0.00000000000E+00 0. -1.
</event>
<event>
 4    1  0.2285999E+005  0.4609849E+02  0.7546771E-02  0.1316036E+00
          2   -1    0    0  502    0  0.00000000000E+00  0.00000000000E+00  0.55505566976E+03  0.55505566976E+03  0.00000000000E+00 0. -1.
         21   -1    0    0  503  502 -0.00000000000E+00 -0.00000000000E+00 -0.58541019313E+02  0.58541019313E+02  0.00000000000E+00 0.  1.
          2    1    1    2  501    0  0.33425362179E+01  0.45977146634E+02  0.54485377124E+03  0.54680042300E+03  0.00000000000E+00 0. -1.
         21    1    1    2  503  501 -0.33425362179E+01 -0.45977146634E+02 -0.48339120797E+02  0.66796266067E+02  0.00000000000E+00 0.  1.
</event>
<event>
 4    1  0.2285999E+005  0.2241667E+02  0.7546771E-02  0.1499956E+00
          2   -1    0    0  503    0  0.00000000000E+00  0.00000000000E+00  0.29323561779E+03  0.29323561779E+03  0.00000000000E+00 0.  1.
         21   -1    0    0  501  502 -0.00000000000E+00 -0.00000000000E+00 -0.40101517224E+02  0.40101517224E+02  0.00000000000E+00 0. -1.
          2    1    1    2  501    0 -0.77076010375E+01 -0.21049935705E+02  0.28963560475E+03  0.29050179078E+03  0.00000000000E+00 0.  1.
         21    1    1    2  503  502  0.77076010375E+01  0.21049935705E+02 -0.36501504191E+02  0.42835344228E+02  0.00000000000E+00 0. -1.
</event>
<event>
 4    1  0.2285999E+005  0.2082307E+02  0.7546771E-02  0.1521806E+00
          2   -1    0    0  503    0  0.00000000000E+00  0.00000000000E+00  0.22754102839E+02  0.22754102839E+02  0.00000000000E+00 0.  1.
         21   -1    0    0  501  502 -0.00000000000E+00 -0.00000000000E+00 -0.25858978568E+02  0.25858978568E+02  0.00000000000E+00 0. -1.
          2    1    1    2  501    0 -0.19130966561E+02  0.82222967674E+01  0.10914793585E+02  0.23510269346E+02  0.00000000000E+00 0.  1.
         21    1    1    2  503  502  0.19130966561E+02 -0.82222967674E+01 -0.14019669313E+02  0.25102812061E+02  0.00000000000E+00 0. -1.
</event>
<event>
 4    1  0.2285999E+005  0.5989111E+02  0.7546771E-02  0.1260203E+00
          2   -1    0    0  502    0  0.00000000000E+00  0.00000000000E+00  0.14834218977E+04  0.14834218977E+04  0.00000000000E+00 0. -1.
         21   -1    0    0  503  502 -0.00000000000E+00 -0.00000000000E+00 -0.18874228418E+02  0.18874228418E+02  0.00000000000E+00 0. -1.
          2    1    1    2  501    0 -0.56566221844E+02  0.19677590725E+02  0.14336577904E+04  0.14349082218E+04  0.00000000000E+00 0. -1.
         21    1    1    2  503  501  0.56566221844E+02 -0.19677590725E+02  0.30889878882E+02  0.67387904313E+02  0.00000000000E+00 0. -1.
</event>
<event>
 4    1  0.2285999E+005  0.2023812E+02  0.7546771E-02  0.1530426E+00
          2   -1    0    0  502    0  0.00000000000E+00  0.00000000000E+00  0.24029851357E+03  0.24029851357E+03  0.00000000000E+00 0.  1.
         21   -1    0    0  503  502 -0.00000000000E+00 -0.00000000000E+00 -0.42780672005E+02  0.42780672005E+02  0.00000000000E+00 0. -1.
          2    1    1    2  501    0 -0.72347097749E+01  0.18900801218E+02  0.23745024272E+03  0.23831113922E+03  0.00000000000E+00 0.  1.
         21    1    1    2  503  501  0.72347097749E+01 -0.18900801218E+02 -0.39932401152E+02  0.44768046350E+02  0.00000000000E+00 0. -1.
</event>
<event>
 4    1  0.2285999E+005  0.2144167E+02  0.7546771E-02  0.1513051E+00
          2   -1    0    0  502    0  0.00000000000E+00  0.00000000000E+00  0.13448579064E+04  0.13448579064E+04  0.00000000000E+00 0.  1.
         21   -1    0    0  503  502 -0.00000000000E+00 -0.00000000000E+00 -0.53708434644E+00  0.53708434644E+00  0.00000000000E+00 0.  1.
          2    1    1    2  501    0 -0.15861876764E+02  0.14427267939E+02  0.10777362825E+04  0.10779495535E+04  0.00000000000E+00 0.  1.
         21    1    1    2  503  501  0.15861876764E+02 -0.14427267939E+02  0.26658453957E+03  0.26744543730E+03  0.00000000000E+00 0.  1.
</event>
<event>
 4    1  0.2285999E+005  0.2070889E+02  0.7546771E-02  0.1523462E+00
          2   -1    0    0  503    0  0.00000000000E+00  0.00000000000E+00  0.19890982811E+02  0.19890982811E+02  0.00000000000E+00 0.  1.
         21   -1    0    0  501  502 -0.00000000000E+00 -0.00000000000E+00 -0.59333961777E+02  0.59333961777E+02  0.00000000000E+00 0.  1.
          2    1    1    2  501    0 -0.19132416249E+02  0.79251933738E+01  0.11884842701E+02  0.23876924583E+02  0.00000000000E+00 0.  1.
         21    1    1    2  503  502  0.19132416249E+02 -0.79251933738E+01 -0.51327821666E+02  0.55348020005E+02  0.00000000000E+00 0.  1.
</event>
<event>
 4    1  0.2285999E+005  0.2006049E+02  0.7546771E-02  0.1533113E+00
          2   -1    0    0  502    0  0.00000000000E+00  0.00000000000E+00  0.21559648477E+02  0.21559648477E+02  0.00000000000E+00 0.  1.
         21   -1    0    0  503  502 -0.00000000000E+00 -0.00000000000E+00 -0.15512899306E+03  0.15512899306E+03  0.00000000000E+00 0.  1.
          2    1    1    2  501    0 -0.19020157531E+02  0.63762824278E+01  0.16074437271E+02  0.25706242504E+02  0.00000000000E+00 0.  1.
         21    1    1    2  503  501  0.19020157531E+02 -0.63762824278E+01 -0.14964378185E+03  0.15098239903E+03  0.00000000000E+00 0.  1.
</event>
<event>
 4    1  0.2285999E+005  0.2344845E+02  0.7546771E-02  0.1486942E+00
          2   -1    0    0  503    0  0.00000000000E+00  0.00000000000E+00  0.31655815789E+02  0.31655815789E+02  0.00000000000E+00 0.  1.
         21   -1    0    0  501  502 -0.00000000000E+00 -0.00000000000E+00 -0.51213216404E+02  0.51213216404E+02  0.00000000000E+00 0.  1.
          2    1    1    2  501    0  0.13326644427E+02 -0.19293273366E+02  0.23904510233E+02  0.33485152804E+02  0.00000000000E+00 0.  1.
         21    1    1    2  503  502 -0.13326644427E+02  0.19293273366E+02 -0.43461910848E+02  0.49383879388E+02  0.00000000000E+00 0.  1.
</event>
<event>
 4    1  0.2285999E+005  0.2170573E+02  0.7546771E-02  0.1509423E+00
          2   -1    0    0  503    0  0.00000000000E+00  0.00000000000E+00  0.29893509869E+03  0.29893509869E+03  0.00000000000E+00 0. -1.
         21   -1    0    0  501  502 -0.00000000000E+00 -0.00000000000E+00 -0.14733094736E+02  0.14733094736E+02  0.00000000000E+00 0. -1.
          2    1    1    2  501    0  0.21032121628E+02 -0.53654860688E+01  0.29030931569E+03  0.29111962723E+03  0.00000000000E+00 0. -1.
         21    1    1    2  503  502 -0.21032121628E+02  0.53654860688E+01 -0.61073117361E+01  0.22548566197E+02  0.00000000000E+00 0. -1.
</event>
<event>
 4    1  0.2285999E+005  0.2581210E+02  0.7546771E-02  0.1459920E+00
          2   -1    0    0  503    0  0.00000000000E+00  0.00000000000E+00  0.25132310419E+02  0.25132310419E+02  0.00000000000E+00 0.  1.
         21   -1    0    0  501  502 -0.00000000000E+00 -0.00000000000E+00 -0.18253853265E+03  0.18253853265E+03  0.00000000000E+00 0.  1.
          2    1    1    2  501    0 -0.22933722428E+02 -0.11845200900E+02  0.17296590913E+02  0.31071473508E+02  0.00000000000E+00 0.  1.
         21    1    1    2  503  502  0.22933722428E+02  0.11845200900E+02 -0.17470281314E+03  0.17659936956E+03  0.00000000000E+00 0.  1.
</event>
<event>
 4    1  0.2285999E+005  0.3227271E+02  0.7546771E-02  0.1400822E+00
          2   -1    0    0  503    0  0.00000000000E+00  0.00000000000E+00  0.88269325561E+02  0.88269325561E+02  0.00000000000E+00 0.  1.
         21   -1    0    0  501  502 -0.00000000000E+00 -0.00000000000E+00 -0.59555182471E+02  0.59555182471E+02  0.00000000000E+00 0. -1.
          2    1    1    2  501    0 -0.31454319281E+02 -0.72217635575E+01  0.80543583681E+02  0.86768640318E+02  0.00000000000E+00 0.  1.
         21    1    1    2  503  502  0.31454319281E+02  0.72217635575E+01 -0.51829440592E+02  0.61055867715E+02  0.00000000000E+00 0. -1.
</event>
<event>
 4    1  0.2285999E+005  0.2069117E+02  0.7546771E-02  0.1523720E+00
          2   -1    0    0  502    0  0.00000000000E+00  0.00000000000E+00  0.24634553976E+03  0.24634553976E+03  0.00000000000E+00 0.  1.
         21   -1    0    0  503  502 -0.00000000000E+00 -0.00000000000E+00 -0.74187944034E+01  0.74187944034E+01  0.00000000000E+00 0.  1.
          2    1    1    2  501    0 -0.17086227812E+02  0.11669851309E+02  0.23049384056E+03  0.23142068868E+03  0.00000000000E+00 0.  1.
         21    1    1    2  503  501  0.17086227812E+02 -0.11669851309E+02  0.84329047962E+01  0.22343645489E+02  0.00000000000E+00 0.  1.
</event>
<event>
 4    1  0.2285999E+005  0.2196815E+02  0.7546771E-02  0.1505878E+00
          2   -1    0    0  503    0  0.00000000000E+00  0.00000000000E+00  0.54697056612E+00  0.54697056612E+00  0.00000000000E+00 0. -1.
         21   -1    0    0  501  502 -0.00000000000E+00 -0.00000000000E+00 -0.90141301659E+03  0.90141301659E+03  0.00000000000E+00 0.  1.
          2    1    1    2  501    0  0.18077332672E+02 -0.12482380318E+02 -0.51607794545E+03  0.51654529865E+03  0.00000000000E+00 0. -1.
         21    1    1    2  503  502 -0.18077332672E+02  0.12482380318E+02 -0.38478810057E+03  0.38541468850E+03  0.00000000000E+00 0.  1.
</event>
<event>
 4    1  0.2285999E+005  0.2476191E+02  0.7546771E-02  0.1471485E+00
          2   -1    0    0  503    0  0.00000000000E+00  0.00000000000E+00  0.23231063295E+03  0.23231063295E+03  0.00000000000E+00 0.  1.
         21   -1    0    0  501  502 -0.00000000000E+00 -0.00000000000E+00 -0.46336384641E+01  0.46336384641E+01  0.00000000000E+00 0.  1.
          2    1    1    2  501    0 -0.15964551858E+02 -0.18928425121E+02  0.19156115964E+03  0.19315493801E+03  0.00000000000E+00 0.  1.
         21    1    1    2  503  502  0.15964551858E+02  0.18928425121E+02  0.36115834840E+02  0.43789333402E+02  0.00000000000E+00 0.  1.
</event>
<event>
 4    1  0.2285999E+005  0.2816615E+02  0.7546771E-02  0.1436233E+00
          2   -1    0    0  503    0  0.00000000000E+00  0.00000000000E+00  0.30613136992E+02  0.30613136992E+02  0.00000000000E+00 0.  1.
         21   -1    0    0  501  502 -0.00000000000E+00 -0.00000000000E+00 -0.24403638772E+03  0.24403638772E+03  0.00000000000E+00 0.  1.
          2    1    1    2  501    0 -0.99656313201E+01 -0.26344224479E+02  0.23117141259E+02  0.36438087093E+02  0.00000000000E+00 0.  1.
         21    1    1    2  503  502  0.99656313201E+01  0.26344224479E+02 -0.23654039198E+03  0.23821143761E+03  0.00000000000E+00 0.  1.
</event>
<event>
 4    1  0.2285999E+005  0.2360171E+02  0.7546771E-02  0.1485078E+00
          2   -1    0    0  503    0  0.00000000000E+00  0.00000000000E+00  0.24842766956E+03  0.24842766956E+03  0.00000000000E+00 0.  1.
         21   -1    0    0  501  502 -0.00000000000E+00 -0.00000000000E+00 -0.21947017687E+02  0.21947017687E+02  0.00000000000E+00 0. -1.
          2    1    1    2  501    0  0.20517418899E+02  0.11665163884E+02  0.24133579788E+03  0.24248712927E+03  0.00000000000E+00 0.  1.
         21    1    1    2  503  502 -0.20517418899E+02 -0.11665163884E+02 -0.14855146006E+02  0.27887557971E+02  0.00000000000E+00 0. -1.
</event>
<event>
 4    1  0.2285999E+005  0.2934278E+02  0.7546771E-02  0.1425395E+00
          2   -1    0    0  502    0  0.00000000000E+00  0.00000000000E+00  0.33316591962E+03  0.33316591962E+03  0.00000000000E+00 0. -1.
         21   -1    0    0  503  502 -0.00000000000E+00 -0.00000000000E+00 -0.53376056857E+01  0.53376056857E+01  0.00000000000E+00 0.  1.
          2    1    1    2  501    0 -0.22441713029E+02  0.18904188743E+02  0.28547329462E+03  0.28697735238E+03  0.00000000000E+00 0. -1.
         21    1    1    2  503  501  0.22441713029E+02 -0.18904188743E+02  0.42355019318E+02  0.51526172933E+02  0.00000000000E+00 0.  1.
</event>
<event>
 4    1  0.2285999E+005  0.2007541E+02  0.7546771E-02  0.1532886E+00
          2   -1    0    0  503    0  0.00000000000E+00  0.00000000000E+00  0.11613349424E+03  0.11613349424E+03  0.00000000000E+00 0.  1.
         21   -1    0    0  501  502 -0.00000000000E+00 -0.00000000000E+00 -0.18955544977E+02  0.18955544977E+02  0.00000000000E+00 0.  1.
          2    1    1    2  501    0  0.14349138107E+02 -0.14040097243E+02  0.10963825279E+03  0.11146106302E+03  0.00000000000E+00 0.  1.
         21    1    1    2  503  502 -0.14349138107E+02  0.14040097243E+02 -0.12460303529E+02  0.23627976194E+02  0.00000000000E+00 0.  1.
</event>
<event>
 4    1  0.2285999E+005  0.2086809E+02  0.7546771E-02  0.1521157E+00
          2   -1    0    0  502    0  0.00000000000E+00  0.00000000000E+00  0.25671892907E+03  0.25671892907E+03  0.00000000000E+00 0.  1.
         21   -1    0    0  503  502 -0.00000000000E+00 -0.00000000000E+00 -0.17034267004E+01  0.17034267004E+01  0.00000000000E+00 0. -1.
          2    1    1    2  501    0 -0.33320992761E+01  0.20600344857E+02  0.11916104350E+03  0.12097450716E+03  0.00000000000E+00 0.  1.
         21    1    1    2  503  501  0.33320992761E+01 -0.20600344857E+02  0.13585445887E+03  0.13744784862E+03  0.00000000000E+00 0. -1.
</event>
<event>
 4    1  0.2285999E+005  0.2916142E+02  0.7546771E-02  0.1427026E+00
          2   -1    0    0  502    0  0.00000000000E+00  0.00000000000E+00  0.70253293834E+03  0.70253293834E+03  0.00000000000E+00 0. -1.
         21   -1    0    0  503  502 -0.00000000000E+00 -0.00000000000E+00 -0.26817195808E+02  0.26817195808E+02  0.00000000000E+00 0. -1.
          2    1    1    2  501    0  0.19424418162E+02 -0.21750416834E+02  0.69420764939E+03  0.69481986811E+03  0.00000000000E+00 0. -1.
         21    1    1    2  503  501 -0.19424418162E+02  0.21750416834E+02 -0.18491906857E+02  0.34530266037E+02  0.00000000000E+00 0. -1.
</event>
<event>
 4    1  0.2285999E+005  0.2205998E+02  0.7546771E-02  0.1504652E+00
          2   -1    0    0  502    0  0.00000000000E+00  0.00000000000E+00  0.14281454383E+03  0.14281454383E+03  0.00000000000E+00 0.  1.
         21   -1    0    0  503  502 -0.00000000000E+00 -0.00000000000E+00 -0.10683990134E+02  0.10683990134E+02  0.00000000000E+00 0.  1.
          2    1    1    2  501    0 -0.15449443018E+02  0.15746666039E+02  0.12940381054E+03  0.13127067061E+03  0.00000000000E+00 0.  1.
         21    1    1    2  503  501  0.15449443018E+02 -0.15746666039E+02  0.27267431550E+01  0.22227863351E+02  0.00000000000E+00 0.  1.
</event>
<event>
 4    1  0.2285999E+005  0.2009334E+02  0.7546771E-02  0.1532614E+00
          2   -1    0    0  502    0  0.00000000000E+00  0.00000000000E+00  0.67793013485E+03  0.67793013485E+03  0.00000000000E+00 0.  1.
         21   -1    0    0  503  502 -0.00000000000E+00 -0.00000000000E+00 -0.35425930602E+03  0.35425930602E+03  0.00000000000E+00 0.  1.
          2    1    1    2  501    0 -0.14221321241E+02  0.14194935583E+02  0.67749614460E+03  0.67779404550E+03  0.00000000000E+00 0.  1.
         21    1    1    2  503  501  0.14221321241E+02 -0.14194935583E+02 -0.35382531577E+03  0.35439539536E+03  0.00000000000E+00 0.  1.
</event>
<event>
 4    1  0.2285999E+005  0.2790217E+02  0.7546771E-02  0.1438750E+00
          2   -1    0    0  503    0  0.00000000000E+00  0.00000000000E+00  0.78883786797E+03  0.78883786797E+03  0.00000000000E+00 0.  1.
         21   -1    0    0  501  502 -0.00000000000E+00 -0.00000000000E+00 -0.26510898137E+01  0.26510898137E+01  0.00000000000E+00 0. -1.
          2    1    1    2  501    0  0.56283531182E+01 -0.27328605454E+02  0.70663819958E+03  0.70718885465E+03  0.00000000000E+00 0.  1.
         21    1    1    2  503  502 -0.56283531182E+01  0.27328605454E+02  0.79548578576E+02  0.84300103134E+02  0.00000000000E+00 0. -1.
</event>
<event>
 4    1  0.2285999E+005  0.2396197E+02  0.7546771E-02  0.1480759E+00
          2   -1    0    0  503    0  0.00000000000E+00  0.00000000000E+00  0.10781146416E+03  0.10781146416E+03  0.00000000000E+00 0. -1.
         21   -1    0    0  501  502 -0.00000000000E+00 -0.00000000000E+00 -0.10867632675E+02  0.10867632675E+02  0.00000000000E+00 0. -1.
          2    1    1    2  501    0 -0.23871910426E+02  0.20755655463E+01  0.90846526815E+02  0.93953539125E+02  0.00000000000E+00 0. -1.
         21    1    1    2  503  502  0.23871910426E+02 -0.20755655463E+01  0.60973046678E+01  0.24725557707E+02  0.00000000000E+00 0. -1.
</event>
<event>
 4    1  0.2285999E+005  0.2464209E+02  0.7546771E-02  0.1472847E+00
          2   -1    0    0  503    0  0.00000000000E+00  0.00000000000E+00  0.88274768872E+01  0.88274768872E+01  0.00000000000E+00 0.  1.
         21   -1    0    0  501  502 -0.00000000000E+00 -0.00000000000E+00 -0.39306746628E+03  0.39306746628E+03  0.00000000000E+00 0.  1.
          2    1    1    2  501    0  0.21013488335E+02 -0.12871134949E+02 -0.96009909585E+01  0.26446395488E+02  0.00000000000E+00 0.  1.
         21    1    1    2  503  502 -0.21013488335E+02  0.12871134949E+02 -0.37463899843E+03  0.37544854768E+03  0.00000000000E+00 0.  1.
</event>
<event>
 4    1  0.2285999E+005  0.3453731E+02  0.7546771E-02  0.1383846E+00
          2   -1    0    0  502    0  0.00000000000E+00  0.00000000000E+00  0.76050928967E+03  0.76050928967E+03  0.00000000000E+00 0.  1.
         21   -1    0    0  503  502 -0.00000000000E+00 -0.00000000000E+00 -0.18040924100E+01  0.18040924100E+01  0.00000000000E+00 0. -1.
          2    1    1    2  501    0 -0.23785613678E+01 -0.34455304660E+02  0.51710370530E+03  0.51825579361E+03  0.00000000000E+00 0.  1.
         21    1    1    2  503  501  0.23785613678E+01  0.34455304660E+02  0.24160149196E+03  0.24405758847E+03  0.00000000000E+00 0. -1.
</event>
<event>
 4    1  0.2285999E+005  0.2387487E+02  0.7546771E-02  0.1481795E+00
          2   -1    0    0  502    0  0.00000000000E+00  0.00000000000E+00  0.74792802410E+02  0.74792802410E+02  0.00000000000E+00 0.  1.
         21   -1    0    0  503  502 -0.00000000000E+00 -0.00000000000E+00 -0.37074154383E+02  0.37074154383E+02  0.00000000000E+00 0.  1.
          2    1    1    2  501    0 -0.21878543434E+02  0.95571398986E+01  0.68713410591E+02  0.72742988535E+02  0.00000000000E+00 0.  1.
         21    1    1    2  503  501  0.21878543434E+02 -0.95571398986E+01 -0.30994762564E+02  0.39123968258E+02  0.00000000000E+00 0.  1.
</event>
<event>
 4    1  0.2285999E+005  0.2063968E+02  0.7546771E-02  0.1524472E+00
          2   -1    0    0  502    0  0.00000000000E+00  0.00000000000E+00  0.71438366095E+03  0.71438366095E+03  0.00000000000E+00 0.  1.
         21   -1    0    0  503  502 -0.00000000000E+00 -0.00000000000E+00 -0.72714386184E+02  0.72714386184E+02  0.00000000000E+00 0.  1.
          2    1    1    2  501    0  0.13094448562E+02 -0.15954048732E+02  0.71276663904E+03  0.71306540933E+03  0.00000000000E+00 0.  1.
         21    1    1    2  503  501 -0.13094448562E+02  0.15954048732E+02 -0.71097364272E+02  0.74032637806E+02  0.00000000000E+00 0.  1.
</event>
<event>
 4    1  0.2285999E+005  0.2189485E+02  0.7546771E-02  0.1506862E+00
          2   -1    0    0  502    0  0.00000000000E+00  0.00000000000E+00  0.37734082832E+03  0.37734082832E+03  0.00000000000E+00 0. -1.
         21   -1    0    0  503  502 -0.00000000000E+00 -0.00000000000E+00 -0.14854436075E+02  0.14854436075E+02  0.00000000000E+00 0. -1.
          2    1    1    2  501    0  0.14356397697E+02  0.16531133770E+02  0.36876778539E+03  0.36941719516E+03  0.00000000000E+00 0. -1.
         21    1    1    2  503  501 -0.14356397697E+02 -0.16531133770E+02 -0.62813931392E+01  0.22778069241E+02  0.00000000000E+00 0. -1.
</event>
<event>
 4    1  0.2285999E+005  0.2749960E+02  0.7546771E-02  0.1442653E+00
          2   -1    0    0  502    0  0.00000000000E+00  0.00000000000E+00  0.19329711327E+03  0.19329711327E+03  0.00000000000E+00 0. -1.
         21   -1    0    0  503  502 -0.00000000000E+00 -0.00000000000E+00 -0.11579108621E+02  0.11579108621E+02  0.00000000000E+00 0. -1.
          2    1    1    2  501    0  0.24061849379E+02  0.13313734442E+02  0.17421416556E+03  0.17637120968E+03  0.00000000000E+00 0. -1.
         21    1    1    2  503  501 -0.24061849379E+02 -0.13313734442E+02  0.75038390876E+01  0.28505012215E+02  0.00000000000E+00 0. -1.
</event>
<event>
 4    1  0.2285999E+005  0.2187078E+02  0.7546771E-02  0.1507186E+00
          2   -1    0    0  503    0  0.00000000000E+00  0.00000000000E+00  0.91384265304E+03  0.91384265304E+03  0.00000000000E+00 0.  1.
         21   -1    0    0  501  502 -0.00000000000E+00 -0.00000000000E+00 -0.79645277806E+00  0.79645277806E+00  0.00000000000E+00 0. -1.
          2    1    1    2  501    0 -0.21023617159E+02 -0.60281474716E+01  0.72427995909E+03  0.72461009528E+03  0.00000000000E+00 0.  1.
         21    1    1    2  503  502  0.21023617159E+02  0.60281474716E+01  0.18876624117E+03  0.19002901054E+03  0.00000000000E+00 0. -1.
</event>
<event>
 4    1  0.2285999E+005  0.2475772E+02  0.7546771E-02  0.1471532E+00
          2   -1    0    0  502    0  0.00000000000E+00  0.00000000000E+00  0.71212496541E+03  0.71212496541E+03  0.00000000000E+00 0. -1.
         21   -1    0    0  503  502 -0.00000000000E+00 -0.00000000000E+00 -0.16067465088E+03  0.16067465088E+03  0.00000000000E+00 0. -1.
          2    1    1    2  501    0 -0.27438985757E+01 -0.24605197712E+02  0.71095450941E+03  0.71138545050E+03  0.00000000000E+00 0. -1.
         21    1    1    2  503  501  0.27438985757E+01  0.24605197712E+02 -0.15950419488E+03  0.16141416579E+03  0.00000000000E+00 0. -1.
</event>
<event>
 4    1  0.2285999E+005  0.2187484E+02  0.7546771E-02  0.1507132E+00
          2   -1    0    0  502    0  0.00000000000E+00  0.00000000000E+00  0.55488050928E+03  0.55488050928E+03  0.00000000000E+00 0.  1.
         21   -1    0    0  503  502 -0.00000000000E+00 -0.00000000000E+00 -0.30073644133E+01  0.30073644133E+01  0.00000000000E+00 0. -1.
          2    1    1    2  501    0  0.17322748429E+02 -0.13357803773E+02  0.51151616608E+03  0.51198368792E+03  0.00000000000E+00 0.  1.
         21    1    1    2  503  501 -0.17322748429E+02  0.13357803773E+02  0.40356978788E+02  0.45904185775E+02  0.00000000000E+00 0. -1.
</event>
<event>
 4    1  0.2285999E+005  0.3057163E+02  0.7546771E-02  0.1414693E+00
          2   -1    0    0  503    0  0.00000000000E+00  0.00000000000E+00  0.38616009764E+03  0.38616009764E+03  0.00000000000E+00 0. -1.
         21   -1    0    0  501  502 -0.00000000000E+00 -0.00000000000E+00 -0.14188297711E+03  0.14188297711E+03  0.00000000000E+00 0. -1.
          2    1    1    2  501    0  0.17257220366E+02  0.25235152715E+02  0.38389851255E+03  0.38511386955E+03  0.00000000000E+00 0. -1.
         21    1    1    2  503  502 -0.17257220366E+02 -0.25235152715E+02 -0.13962139202E+03  0.14292920520E+03  0.00000000000E+00 0. -1.
</event>
<event>
 4    1  0.2285999E+005  0.2223582E+02  0.7546771E-02  0.1502324E+00
          2   -1    0    0  503    0  0.00000000000E+00  0.00000000000E+00  0.16149110535E+04  0.16149110535E+04  0.00000000000E+00 0. -1.
         21   -1    0    0  501  502 -0.00000000000E+00 -0.00000000000E+00 -0.19511841781E+01  0.19511841781E+01  0.00000000000E+00 0.  1.
          2    1    1    2  501    0  0.16192646020E+02 -0.15239088103E+02  0.15487794556E+04  0.15489390672E+04  0.00000000000E+00 0. -1.
         21    1    1    2  503  502 -0.16192646020E+02  0.15239088103E+02  0.64180413654E+02  0.67923170480E+02  0.00000000000E+00 0.  1.
</event>
<event>
 4    1  0.2285999E+005  0.2175636E+02  0.7546771E-02  0.1508734E+00
          2   -1    0    0  502    0  0.00000000000E+00  0.00000000000E+00  0.43749785940E+03  0.43749785940E+03  0.00000000000E+00 0. -1.
         21   -1    0    0  503  502 -0.00000000000E+00 -0.00000000000E+00 -0.11467164309E+01  0.11467164309E+01  0.00000000000E+00 0. -1.
          2    1    1    2  501    0  0.22718886283E+01 -0.21637412274E+02  0.16604175259E+03  0.16746104828E+03  0.00000000000E+00 0. -1.
         21    1    1    2  503  501 -0.22718886283E+01  0.21637412274E+02  0.27030939038E+03  0.27118352755E+03  0.00000000000E+00 0. -1.
</event>
<event>
 4    1  0.2285999E+005  0.3046115E+02  0.7546771E-02  0.1415631E+00
          2   -1    0    0  502    0  0.00000000000E+00  0.00000000000E+00  0.10987162296E+02  0.10987162296E+02  0.00000000000E+00 0. -1.
         21   -1    0    0  503  502 -0.00000000000E+00 -0.00000000000E+00 -0.95844619763E+02  0.95844619763E+02  0.00000000000E+00 0. -1.
          2    1    1    2  501    0  0.23760285309E+02  0.19061232169E+02 -0.24012148394E+02  0.38787433535E+02  0.00000000000E+00 0. -1.
         21    1    1    2  503  501 -0.23760285309E+02 -0.19061232169E+02 -0.60845309073E+02  0.68044348523E+02  0.00000000000E+00 0. -1.
</event>
<event>
 4    1  0.2285999E+005  0.2592376E+02  0.7546771E-02  0.1458729E+00
          2   -1    0    0  503    0  0.00000000000E+00  0.00000000000E+00  0.16642375283E+02  0.16642375283E+02  0.00000000000E+00 0.  1.
         21   -1    0    0  501  502 -0.00000000000E+00 -0.00000000000E+00 -0.43210451378E+02  0.43210451378E+02  0.00000000000E+00 0.  1.
          2    1    1    2  501    0 -0.24753709471E+02  0.77003275743E+01 -0.20941527122E+02  0.33325496779E+02  0.00000000000E+00 0.  1.
         21    1    1    2  503  502  0.24753709471E+02 -0.77003275743E+01 -0.56265489726E+01  0.26527329882E+02  0.00000000000E+00 0.  1.
</event>
<event>
 4    1  0.2285999E+005  0.2103383E+02  0.7546771E-02  0.1518782E+00
          2   -1    0    0  502    0  0.00000000000E+00  0.00000000000E+00  0.17253241448E+04  0.17253241448E+04  0.00000000000E+00 0.  1.
         21   -1    0    0  503  502 -0.00000000000E+00 -0.00000000000E+00 -0.68016349288E+00  0.68016349288E+00  0.00000000000E+00 0.  1.
          2    1    1    2  501    0 -0.18575503878E+02 -0.98677508818E+01  0.15434872875E+04  0.15436305997E+04  0.00000000000E+00 0.  1.
         21    1    1    2  503  501  0.18575503878E+02  0.98677508818E+01  0.18115669386E+03  0.18237370858E+03  0.00000000000E+00 0.  1.
</event>
<event>
 4    1  0.2285999E+005  0.3724545E+02  0.7546771E-02  0.1365430E+00
          2   -1    0    0  502    0  0.00000000000E+00  0.00000000000E+00  0.17821250348E+04  0.17821250348E+04  0.00000000000E+00 0.  1.
         21   -1    0    0  503  502 -0.00000000000E+00 -0.00000000000E+00 -0.36315737461E+02  0.36315737461E+02  0.00000000000E+00 0.  1.
          2    1    1    2  501    0 -0.32253624027E+02  0.18625975744E+02  0.17723279101E+04  0.17727192232E+04  0.00000000000E+00 0.  1.
         21    1    1    2  503  501  0.32253624027E+02 -0.18625975744E+02 -0.26518612721E+02  0.45721549142E+02  0.00000000000E+00 0.  1.
</event>
<event>
 4    1  0.2285999E+005  0.2153795E+02  0.7546771E-02  0.1511721E+00
          2   -1    0    0  502    0  0.00000000000E+00  0.00000000000E+00  0.46896376074E+01  0.46896376074E+01  0.00000000000E+00 0.  1.
         21   -1    0    0  503  502 -0.00000000000E+00 -0.00000000000E+00 -0.21657553126E+03  0.21657553126E+03  0.00000000000E+00 0. -1.
          2    1    1    2  501    0  0.46337448549E+01 -0.21033586500E+02 -0.24399197254E+02  0.32545417175E+02  0.00000000000E+00 0.  1.
         21    1    1    2  503  501 -0.46337448549E+01  0.21033586500E+02 -0.18748669640E+03  0.18871975170E+03  0.00000000000E+00 0. -1.
</event>
<event>
 4    1  0.2285999E+005  0.2091874E+02  0.7546771E-02  0.1520428E+00
          2   -1    0    0  502    0  0.00000000000E+00  0.00000000000E+00  0.88914778753E+03  0.88914778753E+03  0.00000000000E+00 0. -1.
         21   -1    0    0  503  502 -0.00000000000E+00 -0.00000000000E+00 -0.56866226928E+01  0.56866226928E+01  0.00000000000E+00 0. -1.
          2    1    1    2  501    0  0.31207405415E+01  0.20684648551E+02  0.86934882580E+03  0.86960046839E+03  0.00000000000E+00 0. -1.
         21    1    1    2  503  501 -0.31207405415E+01 -0.20684648551E+02  0.14112339036E+02  0.25233941830E+02  0.00000000000E+00 0. -1.
</event>
<event>
 4    1  0.2285999E+005  0.2605579E+02  0.7546771E-02  0.1457331E+00
          2   -1    0    0  502    0  0.00000000000E+00  0.00000000000E+00  0.13218210162E+03  0.13218210162E+03  0.00000000000E+00 0.  1.
         21   -1    0    0  503  502 -0.00000000000E+00 -0.00000000000E+00 -0.51594029620E+01  0.51594029620E+01  0.00000000000E+00 0.  1.
          2    1    1    2  501    0 -0.12325361220E+02 -0.22956255707E+02  0.58899068752E+02  0.64405003728E+02  0.00000000000E+00 0.  1.
         21    1    1    2  503  501  0.12325361220E+02  0.22956255707E+02  0.68123629901E+02  0.72936500850E+02  0.00000000000E+00 0.  1.
</event>
<event>
 4    1  0.2285999E+005  0.2181862E+02  0.7546771E-02  0.1507891E+00
          2   -1    0    0  503    0  0.00000000000E+00  0.00000000000E+00  0.12921090670E+03  0.12921090670E+03  0.00000000000E+00 0.  1.
         21   -1    0    0  501  502 -0.00000000000E+00 -0.00000000000E+00 -0.76109365500E+01  0.76109365500E+01  0.00000000000E+00 0.  1.
          2    1    1    2  501    0  0.21770595500E+02  0.14467725178E+01  0.10993789073E+03  0.11208207616E+03  0.00000000000E+00 0.  1.
         21    1    1    2  503  502 -0.21770595500E+02 -0.14467725178E+01  0.11662079422E+02  0.24739767088E+02  0.00000000000E+00 0.  1.
</event>
<event>
 4    1  0.2285999E+005  0.2541470E+02  0.7546771E-02  0.1464217E+00
          2   -1    0    0  503    0  0.00000000000E+00  0.00000000000E+00  0.16820952166E+04  0.16820952166E+04  0.00000000000E+00 0. -1.
         21   -1    0    0  501  502 -0.00000000000E+00 -0.00000000000E+00 -0.85573344455E+00  0.85573344455E+00  0.00000000000E+00 0. -1.
          2    1    1    2  501    0 -0.24395110527E+02 -0.71264071781E+01  0.14653971589E+04  0.14656175287E+04  0.00000000000E+00 0. -1.
         21    1    1    2  503  502  0.24395110527E+02  0.71264071781E+01  0.21584232428E+03  0.21733342138E+03  0.00000000000E+00 0. -1.
</event>
<event>
 4    1  0.2285999E+005  0.3495349E+02  0.7546771E-02  0.1380890E+00
          2   -1    0    0  503    0  0.00000000000E+00  0.00000000000E+00  0.92903736745E+03  0.92903736745E+03  0.00000000000E+00 0. -1.
         21   -1    0    0  501  502 -0.00000000000E+00 -0.00000000000E+00 -0.11098164227E+03  0.11098164227E+03  0.00000000000E+00 0.  1.
          2    1    1    2  501    0  0.22429410383E+02  0.26807979949E+02  0.92594728366E+03  0.92660677655E+03  0.00000000000E+00 0. -1.
         21    1    1    2  503  502 -0.22429410383E+02 -0.26807979949E+02 -0.10789155849E+03  0.11341223317E+03  0.00000000000E+00 0.  1.
</event>
<event>
 4    1  0.2285999E+005  0.3775162E+02  0.7546771E-02  0.1362190E+00
          2   -1    0    0  503    0  0.00000000000E+00  0.00000000000E+00  0.50949733096E+03  0.50949733096E+03  0.00000000000E+00 0. -1.
         21   -1    0    0  501  502 -0.00000000000E+00 -0.00000000000E+00 -0.31748883866E+01  0.31748883866E+01  0.00000000000E+00 0.  1.
          2    1    1    2  501    0  0.19056547721E+01 -0.37703489786E+02  0.34156915472E+03  0.34364905371E+03  0.00000000000E+00 0. -1.
         21    1    1    2  503  502 -0.19056547721E+01  0.37703489786E+02  0.16475328786E+03  0.16902316564E+03  0.00000000000E+00 0.  1.
</event>
<event>
 4    1  0.2285999E+005  0.3839273E+02  0.7546771E-02  0.1358171E+00
          2   -1    0    0  503    0  0.00000000000E+00  0.00000000000E+00  0.27483339903E+03  0.27483339903E+03  0.00000000000E+00 0. -1.
         21   -1    0    0  501  502 -0.00000000000E+00 -0.00000000000E+00 -0.32466216801E+02  0.32466216801E+02  0.00000000000E+00 0. -1.
          2    1    1    2  501    0  0.31887782640E+02  0.21381551774E+02  0.26156983704E+03  0.26437242876E+03  0.00000000000E+00 0. -1.
         21    1    1    2  503  502 -0.31887782640E+02 -0.21381551774E+02 -0.19202654813E+02  0.42927187072E+02  0.00000000000E+00 0. -1.
</event>
<event>
 4    1  0.2285999E+005  0.2101305E+02  0.7546771E-02  0.1519079E+00
          2   -1    0    0  502    0  0.00000000000E+00  0.00000000000E+00  0.14202061249E+04  0.14202061249E+04  0.00000000000E+00 0.  1.
         21   -1    0    0  503  502 -0.00000000000E+00 -0.00000000000E+00 -0.10847923705E+01  0.10847923705E+01  0.00000000000E+00 0.  1.
          2    1    1    2  501    0  0.21002157456E+02 -0.67640126418E+00  0.13097921351E+04  0.13099606808E+04  0.00000000000E+00 0.  1.
         21    1    1    2  503  501 -0.21002157456E+02  0.67640126418E+00  0.10932919742E+03  0.11133023644E+03  0.00000000000E+00 0.  1.
</event>
<event>
 4    1  0.2285999E+005  0.2769951E+02  0.7546771E-02  0.1440705E+00
          2   -1    0    0  503    0  0.00000000000E+00  0.00000000000E+00  0.32626799607E+03  0.32626799607E+03  0.00000000000E+00 0.  1.
         21   -1    0    0  501  502 -0.00000000000E+00 -0.00000000000E+00 -0.23637068644E+01  0.23637068644E+01  0.00000000000E+00 0.  1.
          2    1    1    2  501    0  0.27406038924E+02  0.40214062594E+01  0.15020855780E+03  0.15274119783E+03  0.00000000000E+00 0.  1.
         21    1    1    2  503  502 -0.27406038924E+02 -0.40214062594E+01  0.17369573141E+03  0.17589050511E+03  0.00000000000E+00 0.  1.
</event>
<event>
 4    1  0.2285999E+005  0.3848313E+02  0.7546771E-02  0.1357611E+00
          2   -1    0    0  502    0  0.00000000000E+00  0.00000000000E+00  0.31441243937E+02  0.31441243937E+02  0.00000000000E+00 0. -1.
         21   -1    0    0  503  502 -0.00000000000E+00 -0.00000000000E+00 -0.28688970416E+03  0.28688970416E+03  0.00000000000E+00 0. -1.
          2    1    1    2  501    0 -0.23503943502E+02 -0.30471559933E+02  0.17789733987E+02  0.42396060669E+02  0.00000000000E+00 0. -1.
         21    1    1    2  503  501  0.23503943502E+02  0.30471559933E+02 -0.27323819421E+03  0.27593488743E+03  0.00000000000E+00 0. -1.
</event>
<event>
 4    1  0.2285999E+005  0.3089934E+02  0.7546771E-02  0.1411939E+00
          2   -1    0    0  503    0  0.00000000000E+00  0.00000000000E+00  0.79689554843E+03  0.79689554843E+03  0.00000000000E+00 0.  1.
         21   -1    0    0  501  502 -0.00000000000E+00 -0.00000000000E+00 -0.18229116772E+01  0.18229116772E+01  0.00000000000E+00 0. -1.
          2    1    1    2  501    0 -0.17347406716E+02  0.25570225154E+02  0.63134025972E+03  0.63209595196E+03  0.00000000000E+00 0.  1.
         21    1    1    2  503  502  0.17347406716E+02 -0.25570225154E+02  0.16373237703E+03  0.16662250815E+03  0.00000000000E+00 0. -1.
</event>
<event>
 4    1  0.2285999E+005  0.5496772E+02  0.7546771E-02  0.1277961E+00
          2   -1    0    0  503    0  0.00000000000E+00  0.00000000000E+00  0.28834304431E+03  0.28834304431E+03  0.00000000000E+00 0. -1.
         21   -1    0    0  501  502 -0.00000000000E+00 -0.00000000000E+00 -0.10849948585E+02  0.10849948585E+02  0.00000000000E+00 0.  1.
          2    1    1    2  501    0  0.14558451035E+01  0.54948433313E+02  0.16641986262E+03  0.17526271847E+03  0.00000000000E+00 0. -1.
         21    1    1    2  503  502 -0.14558451035E+01 -0.54948433313E+02  0.11107323310E+03  0.12393027443E+03  0.00000000000E+00 0.  1.
</event>
<event>
 4    1  0.2285999E+005  0.2540339E+02  0.7546771E-02  0.1464341E+00
          2   -1    0    0  502    0  0.00000000000E+00  0.00000000000E+00  0.60307246682E+03  0.60307246682E+03  0.00000000000E+00 0.  1.
         21   -1    0    0  503  502 -0.00000000000E+00 -0.00000000000E+00 -0.10441097312E+02  0.10441097312E+02  0.00000000000E+00 0.  1.
          2    1    1    2  501    0 -0.82703227798E+01  0.24019447059E+02  0.58692840136E+03  0.58747789780E+03  0.00000000000E+00 0.  1.
         21    1    1    2  503  501  0.82703227798E+01 -0.24019447059E+02  0.57029681490E+01  0.26035666337E+02  0.00000000000E+00 0.  1.
</event>
<event>
 4    1  0.2285999E+005  0.3642521E+02  0.7546771E-02  0.1370811E+00
          2   -1    0    0  503    0  0.00000000000E+00  0.00000000000E+00  0.15812407578E+03  0.15812407578E+03  0.00000000000E+00 0. -1.
         21   -1    0    0  501  502 -0.00000000000E+00 -0.00000000000E+00 -0.22935165627E+02  0.22935165627E+02  0.00000000000E+00 0.  1.
          2    1    1    2  501    0 -0.29113403734E+02  0.21890769397E+02  0.13968633379E+03  0.14435743108E+03  0.00000000000E+00 0. -1.
         21    1    1    2  503  502  0.29113403734E+02 -0.21890769397E+02 -0.44974236346E+01  0.36701810325E+02  0.00000000000E+00 0.  1.
</event>
<event>
 4    1  0.2285999E+005  0.2793115E+02  0.7546771E-02  0.1438472E+00
          2   -1    0    0  502    0  0.00000000000E+00  0.00000000000E+00  0.77756514940E+03  0.77756514940E+03  0.00000000000E+00 0.  1.
         21   -1    0    0  503  502 -0.00000000000E+00 -0.00000000000E+00 -0.10380181750E+01  0.10380181750E+01  0.00000000000E+00 0. -1.
          2    1    1    2  501    0  0.25925115211E+02  0.10394124325E+02  0.45943649569E+03  0.46028474121E+03  0.00000000000E+00 0.  1.
         21    1    1    2  503  501 -0.25925115211E+02 -0.10394124325E+02  0.31709063553E+03  0.31831842636E+03  0.00000000000E+00 0. -1.
</event>
<event>
 4    1  0.2285999E+005  0.2572340E+02  0.7546771E-02  0.1460871E+00
          2   -1    0    0  503    0  0.00000000000E+00  0.00000000000E+00  0.22493044529E+03  0.22493044529E+03  0.00000000000E+00 0. -1.
         21   -1    0    0  501  502 -0.00000000000E+00 -0.00000000000E+00 -0.84398313425E+01  0.84398313425E+01  0.00000000000E+00 0. -1.
          2    1    1    2  501    0 -0.33812843803E+01  0.25500201355E+02  0.20242418267E+03  0.20405205973E+03  0.00000000000E+00 0. -1.
         21    1    1    2  503  502  0.33812843803E+01 -0.25500201355E+02  0.14066431282E+02  0.29318216900E+02  0.00000000000E+00 0. -1.
</event>
<event>
 4    1  0.2285999E+005  0.2403490E+02  0.7546771E-02  0.1479896E+00
          2   -1    0    0  503    0  0.00000000000E+00  0.00000000000E+00  0.91205615267E+02  0.91205615267E+02  0.00000000000E+00 0. -1.
         21   -1    0    0  501  502 -0.00000000000E+00 -0.00000000000E+00 -0.63368893142E+01  0.63368893142E+01  0.00000000000E+00 0. -1.
          2    1    1    2  501    0  0.22467366034E+02 -0.85377843282E+01  0.41354020809E+02  0.47831279879E+02  0.00000000000E+00 0. -1.
         21    1    1    2  503  502 -0.22467366034E+02  0.85377843282E+01  0.43514705143E+02  0.49711224703E+02  0.00000000000E+00 0. -1.
</event>
<event>
 4    1  0.2285999E+005  0.2915881E+02  0.7546771E-02  0.1427050E+00
          2   -1    0    0  503    0  0.00000000000E+00  0.00000000000E+00  0.32176537870E+04  0.32176537870E+04  0.00000000000E+00 0.  1.
         21   -1    0    0  501  502 -0.00000000000E+00 -0.00000000000E+00 -0.26741830743E+00  0.26741830743E+00  0.00000000000E+00 0.  1.
          2    1    1    2  501    0  0.11344373785E+02  0.26861517058E+02  0.17840741334E+04  0.17843124024E+04  0.00000000000E+00 0.  1.
         21    1    1    2  503  502 -0.11344373785E+02 -0.26861517058E+02  0.14333122353E+04  0.14336088029E+04  0.00000000000E+00 0.  1.
</event>
<event>
 4    1  0.2285999E+005  0.2562129E+02  0.7546771E-02  0.1461972E+00
          2   -1    0    0  502    0  0.00000000000E+00  0.00000000000E+00  0.95986690812E+02  0.95986690812E+02  0.00000000000E+00 0. -1.
         21   -1    0    0  503  502 -0.00000000000E+00 -0.00000000000E+00 -0.22486281392E+02  0.22486281392E+02  0.00000000000E+00 0.  1.
          2    1    1    2  501    0  0.10181685374E+01 -0.25601050276E+02  0.86164235423E+02  0.89892857939E+02  0.00000000000E+00 0. -1.
         21    1    1    2  503  501 -0.10181685374E+01  0.25601050276E+02 -0.12663826003E+02  0.28580114265E+02  0.00000000000E+00 0.  1.
</event>
<event>
 4    1  0.2285999E+005  0.2473467E+02  0.7546771E-02  0.1471794E+00
          2   -1    0    0  502    0  0.00000000000E+00  0.00000000000E+00  0.33995697225E+03  0.33995697225E+03  0.00000000000E+00 0.  1.
         21   -1    0    0  503  502 -0.00000000000E+00 -0.00000000000E+00 -0.21372326587E+01  0.21372326587E+01  0.00000000000E+00 0. -1.
          2    1    1    2  501    0 -0.23718030634E+02  0.70184867859E+01  0.23688950176E+03  0.23817732927E+03  0.00000000000E+00 0.  1.
         21    1    1    2  503  501  0.23718030634E+02 -0.70184867859E+01  0.10093023783E+03  0.10391687564E+03  0.00000000000E+00 0. -1.
</event>
<event>
 4    1  0.2285999E+005  0.2577428E+02  0.7546771E-02  0.1460325E+00
          2   -1    0    0  503    0  0.00000000000E+00  0.00000000000E+00  0.77495823654E+03  0.77495823654E+03  0.00000000000E+00 0. -1.
         21   -1    0    0  501  502 -0.00000000000E+00 -0.00000000000E+00 -0.10958307359E+01  0.10958307359E+01  0.00000000000E+00 0. -1.
          2    1    1    2  501    0  0.25756192467E+02 -0.96546701217E+00  0.56799460725E+03  0.56857909515E+03  0.00000000000E+00 0. -1.
         21    1    1    2  503  502 -0.25756192467E+02  0.96546701217E+00  0.20586779855E+03  0.20747497212E+03  0.00000000000E+00 0. -1.
</event>
<event>
 4    1  0.2285999E+005  0.2219183E+02  0.7546771E-02  0.1502904E+00
          2   -1    0    0  503    0  0.00000000000E+00  0.00000000000E+00  0.35617613660E+03  0.35617613660E+03  0.00000000000E+00 0. -1.
         21   -1    0    0  501  502 -0.00000000000E+00 -0.00000000000E+00 -0.28342572415E+02  0.28342572415E+02  0.00000000000E+00 0.  1.
          2    1    1    2  501    0 -0.19090236845E+02 -0.11315485050E+02  0.35142786029E+03  0.35212784374E+03  0.00000000000E+00 0. -1.
         21    1    1    2  503  502  0.19090236845E+02  0.11315485050E+02 -0.23594296107E+02  0.32390865279E+02  0.00000000000E+00 0.  1.
</event>
<event>
 4    1  0.2285999E+005  0.2047804E+02  0.7546771E-02  0.1526849E+00
          2   -1    0    0  502    0  0.00000000000E+00  0.00000000000E+00  0.11350806472E+04  0.11350806472E+04  0.00000000000E+00 0. -1.
         21   -1    0    0  503  502 -0.00000000000E+00 -0.00000000000E+00 -0.11000203304E+01  0.11000203304E+01  0.00000000000E+00 0.  1.
          2    1    1    2  501    0  0.27159877589E+01  0.20297130588E+02  0.10299567263E+04  0.10301602828E+04  0.00000000000E+00 0. -1.
         21    1    1    2  503  501 -0.27159877589E+01 -0.20297130588E+02  0.10402390051E+03  0.10602038473E+03  0.00000000000E+00 0.  1.
</event>
<event>
 4    1  0.2285999E+005  0.2523366E+02  0.7546771E-02  0.1466206E+00
          2   -1    0    0  503    0  0.00000000000E+00  0.00000000000E+00  0.20254386544E+03  0.20254386544E+03  0.00000000000E+00 0. -1.
         21   -1    0    0  501  502 -0.00000000000E+00 -0.00000000000E+00 -0.13802677365E+02  0.13802677365E+02  0.00000000000E+00 0. -1.
          2    1    1    2  501    0  0.15213278080E+02  0.20131903378E+02  0.18943020753E+03  0.19110348214E+03  0.00000000000E+00 0. -1.
         21    1    1    2  503  502 -0.15213278080E+02 -0.20131903378E+02 -0.68901945623E+00  0.25243060658E+02  0.00000000000E+00 0. -1.
</event>
<event>
 4    1  0.2285999E+005  0.2581977E+02  0.7546771E-02  0.1459838E+00
          2   -1    0    0  502    0  0.00000000000E+00  0.00000000000E+00  0.11832804801E+04  0.11832804801E+04  0.00000000000E+00 0.  1.
         21   -1    0    0  503  502 -0.00000000000E+00 -0.00000000000E+00 -0.20031054045E+01  0.20031054045E+01  0.00000000000E+00 0. -1.
          2    1    1    2  501    0  0.21138315173E+02  0.14826730280E+02  0.10930705587E+04  0.10933754646E+04  0.00000000000E+00 0.  1.
         21    1    1    2  503  501 -0.21138315173E+02 -0.14826730280E+02  0.88206815940E+02  0.91908120846E+02  0.00000000000E+00 0. -1.
</event>
<event>
 4    1  0.2285999E+005  0.2215543E+02  0.7546771E-02  0.1503385E+00
          2   -1    0    0  502    0  0.00000000000E+00  0.00000000000E+00  0.77874422017E+03  0.77874422017E+03  0.00000000000E+00 0.  1.
         21   -1    0    0  503  502 -0.00000000000E+00 -0.00000000000E+00 -0.32679875179E+02  0.32679875179E+02  0.00000000000E+00 0. -1.
          2    1    1    2  501    0 -0.22131856569E+02  0.10218504682E+01  0.77481249933E+03  0.77512919721E+03  0.00000000000E+00 0.  1.
         21    1    1    2  503  501  0.22131856569E+02 -0.10218504682E+01 -0.28748154333E+02  0.36294898142E+02  0.00000000000E+00 0. -1.
</event>
<event>
 4    1  0.2285999E+005  0.2259189E+02  0.7546771E-02  0.1497687E+00
          2   -1    0    0  502    0  0.00000000000E+00  0.00000000000E+00  0.31047255381E+03  0.31047255381E+03  0.00000000000E+00 0.  1.
         21   -1    0    0  503  502 -0.00000000000E+00 -0.00000000000E+00 -0.44336105431E+01  0.44336105431E+01  0.00000000000E+00 0.  1.
          2    1    1    2  501    0  0.43457383935E+01 -0.22169979730E+02  0.27791591155E+03  0.27883265113E+03  0.00000000000E+00 0.  1.
         21    1    1    2  503  501 -0.43457383935E+01  0.22169979730E+02  0.28123031724E+02  0.36073513230E+02  0.00000000000E+00 0.  1.
</event>
<event>
 4    1  0.2285999E+005  0.3916888E+02  0.7546771E-02  0.1353426E+00
          2   -1    0    0  503    0  0.00000000000E+00  0.00000000000E+00  0.29468461807E+03  0.29468461807E+03  0.00000000000E+00 0. -1.
         21   -1    0    0  501  502 -0.00000000000E+00 -0.00000000000E+00 -0.90076188181E+01  0.90076188181E+01  0.00000000000E+00 0. -1.
          2    1    1    2  501    0 -0.23953955839E+02 -0.30990463143E+02  0.24148209435E+03  0.24463810557E+03  0.00000000000E+00 0. -1.
         21    1    1    2  503  502  0.23953955839E+02  0.30990463143E+02  0.44194904898E+02  0.59054131312E+02  0.00000000000E+00 0. -1.
</event>
<event>
 4    1  0.2285999E+005  0.8849454E+02  0.7546771E-02  0.1185392E+00
          2   -1    0    0  503    0  0.00000000000E+00  0.00000000000E+00  0.10273744504E+04  0.10273744504E+04  0.00000000000E+00 0.  1.
         21   -1    0    0  501  502 -0.00000000000E+00 -0.00000000000E+00 -0.27774669126E+02  0.27774669126E+02  0.00000000000E+00 0. -1.
          2    1    1    2  501    0 -0.36455389932E+02  0.80636766175E+02  0.94918535500E+03  0.95330169498E+03  0.00000000000E+00 0.  1.
         21    1    1    2  503  502  0.36455389932E+02 -0.80636766175E+02  0.50414426323E+02  0.10184742459E+03  0.00000000000E+00 0. -1.
</event>
<event>
 4    1  0.2285999E+005  0.2615333E+02  0.7546771E-02  0.1456304E+00
          2   -1    0    0  503    0  0.00000000000E+00  0.00000000000E+00  0.91257510831E+03  0.91257510831E+03  0.00000000000E+00 0.  1.
         21   -1    0    0  501  502 -0.00000000000E+00 -0.00000000000E+00 -0.19925687101E+02  0.19925687101E+02  0.00000000000E+00 0. -1.
          2    1    1    2  501    0  0.25852750149E+02 -0.39537133495E+01  0.90372182946E+03  0.90410018338E+03  0.00000000000E+00 0.  1.
         21    1    1    2  503  502 -0.25852750149E+02  0.39537133495E+01 -0.11072408251E+02  0.28400612035E+02  0.00000000000E+00 0. -1.
</event>
<event>
 4    1  0.2285999E+005  0.2131518E+02  0.7546771E-02  0.1514812E+00
          2   -1    0    0  503    0  0.00000000000E+00  0.00000000000E+00  0.50101307531E+02  0.50101307531E+02  0.00000000000E+00 0.  1.
         21   -1    0    0  501  502 -0.00000000000E+00 -0.00000000000E+00 -0.73120079384E+02  0.73120079384E+02  0.00000000000E+00 0.  1.
          2    1    1    2  501    0  0.14167312301E+01  0.21268045426E+02  0.46154400065E+02  0.50838622414E+02  0.00000000000E+00 0.  1.
         21    1    1    2  503  502 -0.14167312301E+01 -0.21268045426E+02 -0.69173171918E+02  0.72382764501E+02  0.00000000000E+00 0.  1.
</event>
<event>
 4    1  0.2285999E+005  0.3212582E+02  0.7546771E-02  0.1401980E+00
          2   -1    0    0  503    0  0.00000000000E+00  0.00000000000E+00  0.22725914542E+04  0.22725914542E+04  0.00000000000E+00 0. -1.
         21   -1    0    0  501  502 -0.00000000000E+00 -0.00000000000E+00 -0.24798371256E+01  0.24798371256E+01  0.00000000000E+00 0. -1.
          2    1    1    2  501    0 -0.13701262896E+02 -0.29057597857E+02  0.21631691117E+04  0.21634076533E+04  0.00000000000E+00 0. -1.
         21    1    1    2  503  502  0.13701262896E+02  0.29057597857E+02  0.10694250533E+03  0.11166363797E+03  0.00000000000E+00 0. -1.
</event>
<event>
 4    1  0.2285999E+005  0.3460308E+02  0.7546771E-02  0.1383375E+00
          2   -1    0    0  502    0  0.00000000000E+00  0.00000000000E+00  0.11307781571E+04  0.11307781571E+04  0.00000000000E+00 0. -1.
         21   -1    0    0  503  502 -0.00000000000E+00 -0.00000000000E+00 -0.91207622854E+01  0.91207622854E+01  0.00000000000E+00 0. -1.
          2    1    1    2  501    0  0.29493301258E+02  0.18097476208E+02  0.10966730337E+04  0.10972188097E+04  0.00000000000E+00 0. -1.
         21    1    1    2  503  501 -0.29493301258E+02 -0.18097476208E+02  0.24984361107E+02  0.42680109701E+02  0.00000000000E+00 0. -1.
</event>
<event>
 4    1  0.2285999E+005  0.2742987E+02  0.7546771E-02  0.1443337E+00
          2   -1    0    0  503    0  0.00000000000E+00  0.00000000000E+00  0.27247474723E+03  0.27247474723E+03  0.00000000000E+00 0. -1.
         21   -1    0    0  501  502 -0.00000000000E+00 -0.00000000000E+00 -0.16892562819E+02  0.16892562819E+02  0.00000000000E+00 0.  1.
          2    1    1    2  501    0  0.22461694436E+02  0.15743886904E+02  0.26012204641E+03  0.26156428793E+03  0.00000000000E+00 0. -1.
         21    1    1    2  503  502 -0.22461694436E+02 -0.15743886904E+02 -0.45398620020E+01  0.27803022116E+02  0.00000000000E+00 0.  1.
</event>
<event>
 4    1  0.2285999E+005  0.3113126E+02  0.7546771E-02  0.1410014E+00
          2   -1    0    0  503    0  0.00000000000E+00  0.00000000000E+00  0.87345806735E+03  0.87345806735E+03  0.00000000000E+00 0. -1.
         21   -1    0    0  501  502 -0.00000000000E+00 -0.00000000000E+00 -0.29913069019E+01  0.29913069019E+01  0.00000000000E+00 0.  1.
          2    1    1    2  501    0 -0.87410944832E+01  0.29878902748E+02  0.78280696985E+03  0.78342575118E+03  0.00000000000E+00 0. -1.
         21    1    1    2  503  502  0.87410944832E+01 -0.29878902748E+02  0.87659790596E+02  0.93023623072E+02  0.00000000000E+00 0.  1.
</event>
<event>
 4    1  0.2285999E+005  0.2056034E+02  0.7546771E-02  0.1525636E+00
          2   -1    0    0  503    0  0.00000000000E+00  0.00000000000E+00  0.89218018682E+03  0.89218018682E+03  0.00000000000E+00 0.  1.
         21   -1    0    0  501  502 -0.00000000000E+00 -0.00000000000E+00 -0.14500969849E+01  0.14500969849E+01  0.00000000000E+00 0.  1.
          2    1    1    2  501    0 -0.75304645598E+01 -0.19131642257E+02  0.81198590807E+03  0.81224617114E+03  0.00000000000E+00 0.  1.
         21    1    1    2  503  502  0.75304645598E+01  0.19131642257E+02  0.78744181763E+02  0.81384112660E+02  0.00000000000E+00 0.  1.
</event>
<event>
 4    1  0.2285999E+005  0.2008414E+02  0.7546771E-02  0.1532753E+00
          2   -1    0    0  503    0  0.00000000000E+00  0.00000000000E+00  0.62192233354E+03  0.62192233354E+03  0.00000000000E+00 0.  1.
         21   -1    0    0  501  502 -0.00000000000E+00 -0.00000000000E+00 -0.35497102385E+01  0.35497102385E+01  0.00000000000E+00 0.  1.
          2    1    1    2  501    0  0.10106763353E+02 -0.17355863571E+02  0.59191137699E+03  0.59225201635E+03  0.00000000000E+00 0.  1.
         21    1    1    2  503  502 -0.10106763353E+02  0.17355863571E+02  0.26461246318E+02  0.33220027430E+02  0.00000000000E+00 0.  1.
</event>
<event>
 4    1  0.2285999E+005  0.2508878E+02  0.7546771E-02  0.1467813E+00
          2   -1    0    0  503    0  0.00000000000E+00  0.00000000000E+00  0.80519956584E+03  0.80519956584E+03  0.00000000000E+00 0.  1.
         21   -1    0    0  501  502 -0.00000000000E+00 -0.00000000000E+00 -0.78549880576E+00  0.78549880576E+00  0.00000000000E+00 0.  1.
          2    1    1    2  501    0  0.22781562052E+02  0.10509400557E+02  0.37428547577E+03  0.37512539829E+03  0.00000000000E+00 0.  1.
         21    1    1    2  503  502 -0.22781562052E+02 -0.10509400557E+02  0.43012859126E+03  0.43085966636E+03  0.00000000000E+00 0.  1.
</event>
<event>
 4    1  0.2285999E+005  0.4457831E+02  0.7546771E-02  0.1323562E+00
          2   -1    0    0  503    0  0.00000000000E+00  0.00000000000E+00  0.17067041475E+04  0.17067041475E+04  0.00000000000E+00 0.  1.
         21   -1    0    0  501  502 -0.00000000000E+00 -0.00000000000E+00 -0.13449086006E+01  0.13449086006E+01  0.00000000000E+00 0.  1.
          2    1    1    2  501    0  0.42238277352E+02  0.14253206792E+02  0.53977251114E+03  0.54161018247E+03  0.00000000000E+00 0.  1.
         21    1    1    2  503  502 -0.42238277352E+02 -0.14253206792E+02  0.11655867278E+04  0.11664388736E+04  0.00000000000E+00 0.  1.
</event>
<event>
 4    1  0.2285999E+005  0.3167223E+02  0.7546771E-02  0.1405601E+00
          2   -1    0    0  502    0  0.00000000000E+00  0.00000000000E+00  0.13884593366E+03  0.13884593366E+03  0.00000000000E+00 0.  1.
         21   -1    0    0  503  502 -0.00000000000E+00 -0.00000000000E+00 -0.28984842807E+02  0.28984842807E+02  0.00000000000E+00 0. -1.
          2    1    1    2  501    0 -0.23978637200E+01 -0.31581327306E+02  0.12763923242E+03  0.13151008949E+03  0.00000000000E+00 0.  1.
         21    1    1    2  503  501  0.23978637200E+01  0.31581327306E+02 -0.17778141569E+02  0.36320686977E+02  0.00000000000E+00 0. -1.
</event>
<event>
 4    1  0.2285999E+005  0.2098696E+02  0.7546771E-02  0.1519451E+00
          2   -1    0    0  503    0  0.00000000000E+00  0.00000000000E+00  0.25609803896E+03  0.25609803896E+03  0.00000000000E+00 0. -1.
         21   -1    0    0  501  502 -0.00000000000E+00 -0.00000000000E+00 -0.23752121569E+01  0.23752121569E+01  0.00000000000E+00 0. -1.
          2    1    1    2  501    0  0.18583434102E+02  0.97523496979E+01  0.19474617910E+03  0.19587375174E+03  0.00000000000E+00 0. -1.
         21    1    1    2  503  502 -0.18583434102E+02 -0.97523496979E+01  0.58976647708E+02  0.62599499379E+02  0.00000000000E+00 0. -1.
</event>
<event>
 4    1  0.2285999E+005  0.2866497E+02  0.7546771E-02  0.1431564E+00
          2   -1    0    0  503    0  0.00000000000E+00  0.00000000000E+00  0.79006041252E+03  0.79006041252E+03  0.00000000000E+00 0.  1.
         21   -1    0    0  501  502 -0.00000000000E+00 -0.00000000000E+00 -0.12730493915E+01  0.12730493915E+01  0.00000000000E+00 0.  1.
          2    1    1    2  501    0  0.79365378293E+01  0.27544358148E+02  0.56367549034E+03  0.56440387907E+03  0.00000000000E+00 0.  1.
         21    1    1    2  503  502 -0.79365378293E+01 -0.27544358148E+02  0.22511187279E+03  0.22692958284E+03  0.00000000000E+00 0.  1.
</event>
<event>
 4    1  0.2285999E+005  0.2125999E+02  0.7546771E-02  0.1515585E+00
          2   -1    0    0  502    0  0.00000000000E+00  0.00000000000E+00  0.32375604392E+03  0.32375604392E+03  0.00000000000E+00 0. -1.
         21   -1    0    0  503  502 -0.00000000000E+00 -0.00000000000E+00 -0.50108592063E+01  0.50108592063E+01  0.00000000000E+00 0. -1.
          2    1    1    2  501    0  0.25671305347E+00  0.21258445009E+02  0.29899118141E+03  0.29974608246E+03  0.00000000000E+00 0. -1.
         21    1    1    2  503  501 -0.25671305347E+00 -0.21258445009E+02  0.19754003295E+02  0.29020820664E+02  0.00000000000E+00 0. -1.
</event>
<event>
 4    1  0.2285999E+005  0.4441495E+02  0.7546771E-02  0.1324391E+00
          2   -1    0    0  502    0  0.00000000000E+00  0.00000000000E+00  0.81149513621E+03  0.81149513621E+03  0.00000000000E+00 0. -1.
         21   -1    0    0  503  502 -0.00000000000E+00 -0.00000000000E+00 -0.40625566919E+02  0.40625566919E+02  0.00000000000E+00 0.  1.
          2    1    1    2  501    0  0.31297677377E+02  0.31514176282E+02  0.79855133757E+03  0.79978555041E+03  0.00000000000E+00 0. -1.
         21    1    1    2  503  501 -0.31297677377E+02 -0.31514176282E+02 -0.27681768271E+02  0.52335152723E+02  0.00000000000E+00 0.  1.
</event>
<event>
 4    1  0.2285999E+005  0.2266896E+02  0.7546771E-02  0.1496697E+00
          2   -1    0    0  503    0  0.00000000000E+00  0.00000000000E+00  0.49916257257E+02  0.49916257257E+02  0.00000000000E+00 0. -1.
         21   -1    0    0  501  502 -0.00000000000E+00 -0.00000000000E+00 -0.38027877332E+03  0.38027877332E+03  0.00000000000E+00 0.  1.
          2    1    1    2  501    0 -0.22648569677E+02  0.96121774267E+00  0.46984729571E+02  0.52167484709E+02  0.00000000000E+00 0. -1.
         21    1    1    2  503  502  0.22648569677E+02 -0.96121774267E+00 -0.37734724564E+03  0.37802754587E+03  0.00000000000E+00 0.  1.
</event>
<event>
 4    1  0.2285999E+005  0.2051298E+02  0.7546771E-02  0.1526333E+00
          2   -1    0    0  502    0  0.00000000000E+00  0.00000000000E+00  0.29972877853E+03  0.29972877853E+03  0.00000000000E+00 0.  1.
         21   -1    0    0  503  502 -0.00000000000E+00 -0.00000000000E+00 -0.62801354570E+02  0.62801354570E+02  0.00000000000E+00 0.  1.
          2    1    1    2  501    0  0.12715101597E+02 -0.16096852649E+02  0.29769130492E+03  0.29839721095E+03  0.00000000000E+00 0.  1.
         21    1    1    2  503  501 -0.12715101597E+02  0.16096852649E+02 -0.60763880964E+02  0.64132922151E+02  0.00000000000E+00 0.  1.
</event>
<event>
 4    1  0.2285999E+005  0.3563291E+02  0.7546771E-02  0.1376167E+00
          2   -1    0    0  503    0  0.00000000000E+00  0.00000000000E+00  0.44934058157E+03  0.44934058157E+03  0.00000000000E+00 0.  1.
         21   -1    0    0  501  502 -0.00000000000E+00 -0.00000000000E+00 -0.33700653059E+02  0.33700653059E+02  0.00000000000E+00 0. -1.
          2    1    1    2  501    0  0.32796887708E+02 -0.13930853577E+02  0.43899352376E+03  0.44043730363E+03  0.00000000000E+00 0.  1.
         21    1    1    2  503  502 -0.32796887708E+02  0.13930853577E+02 -0.23353595256E+02  0.42603930994E+02  0.00000000000E+00 0. -1.
</event>
<event>
 4    1  0.2285999E+005  0.2480034E+02  0.7546771E-02  0.1471049E+00
          2   -1    0    0  503    0  0.00000000000E+00  0.00000000000E+00  0.62317718876E+02  0.62317718876E+02  0.00000000000E+00 0.  1.
         21   -1    0    0  501  502 -0.00000000000E+00 -0.00000000000E+00 -0.33856249363E+02  0.33856249363E+02  0.00000000000E+00 0.  1.
          2    1    1    2  501    0 -0.24669197342E+02 -0.25470643827E+01  0.54706219392E+02  0.60065191872E+02  0.00000000000E+00 0.  1.
         21    1    1    2  503  502  0.24669197342E+02  0.25470643827E+01 -0.26244749880E+02  0.36108776367E+02  0.00000000000E+00 0.  1.
</event>
<event>
 4    1  0.2285999E+005  0.4732178E+02  0.7546771E-02  0.1310221E+00
          2   -1    0    0  503    0  0.00000000000E+00  0.00000000000E+00  0.42960326680E+03  0.42960326680E+03  0.00000000000E+00 0.  1.
         21   -1    0    0  501  502 -0.00000000000E+00 -0.00000000000E+00 -0.10983763138E+02  0.10983763138E+02  0.00000000000E+00 0. -1.
          2    1    1    2  501    0 -0.23852593598E+02  0.40870586495E+02  0.36899239568E+03  0.37201443404E+03  0.00000000000E+00 0.  1.
         21    1    1    2  503  502  0.23852593598E+02 -0.40870586495E+02  0.49627107978E+02  0.68572595897E+02  0.00000000000E+00 0. -1.
</event>
<event>
 4    1  0.2285999E+005  0.2061016E+02  0.7546771E-02  0.1524904E+00
          2   -1    0    0  502    0  0.00000000000E+00  0.00000000000E+00  0.71648018126E+02  0.71648018126E+02  0.00000000000E+00 0.  1.
         21   -1    0    0  503  502 -0.00000000000E+00 -0.00000000000E+00 -0.83505574864E+01  0.83505574864E+01  0.00000000000E+00 0.  1.
          2    1    1    2  501    0 -0.16544990696E+02  0.12289906560E+02  0.53189944200E+02  0.57043392995E+02  0.00000000000E+00 0.  1.
         21    1    1    2  503  501  0.16544990696E+02 -0.12289906560E+02  0.10107516439E+02  0.22955182617E+02  0.00000000000E+00 0.  1.
</event>
<event>
 4    1  0.2285999E+005  0.6255191E+02  0.7546771E-02  0.1251400E+00
          2   -1    0    0  502    0  0.00000000000E+00  0.00000000000E+00  0.14286690696E+03  0.14286690696E+03  0.00000000000E+00 0.  1.
         21   -1    0    0  503  502 -0.00000000000E+00 -0.00000000000E+00 -0.15743879794E+03  0.15743879794E+03  0.00000000000E+00 0. -1.
          2    1    1    2  501    0 -0.56130928769E+02 -0.27605437734E+02  0.12918347718E+03  0.14353087519E+03  0.00000000000E+00 0.  1.
         21    1    1    2  503  501  0.56130928769E+02  0.27605437734E+02 -0.14375536816E+03  0.15677482971E+03  0.00000000000E+00 0. -1.
</event>
<event>
 4    1  0.2285999E+005  0.2223118E+02  0.7546771E-02  0.1502385E+00
          2   -1    0    0  503    0  0.00000000000E+00  0.00000000000E+00  0.16518864213E+03  0.16518864213E+03  0.00000000000E+00 0.  1.
         21   -1    0    0  501  502 -0.00000000000E+00 -0.00000000000E+00 -0.13850222863E+04  0.13850222863E+04  0.00000000000E+00 0.  1.
          2    1    1    2  501    0  0.20222167392E+02 -0.92352266797E+01  0.16435100927E+03  0.16584776066E+03  0.00000000000E+00 0.  1.
         21    1    1    2  503  502 -0.20222167392E+02  0.92352266797E+01 -0.13841846534E+04  0.13843631677E+04  0.00000000000E+00 0.  1.
</event>
<event>
 4    1  0.2285999E+005  0.2007901E+02  0.7546771E-02  0.1532831E+00
          2   -1    0    0  503    0  0.00000000000E+00  0.00000000000E+00  0.82311528412E+03  0.82311528412E+03  0.00000000000E+00 0.  1.
         21   -1    0    0  501  502 -0.00000000000E+00 -0.00000000000E+00 -0.52781153250E+01  0.52781153250E+01  0.00000000000E+00 0. -1.
          2    1    1    2  501    0 -0.34877741110E+01  0.19773773581E+02  0.80342884403E+03  0.80367970865E+03  0.00000000000E+00 0.  1.
         21    1    1    2  503  502  0.34877741110E+01 -0.19773773581E+02  0.14408324770E+02  0.24713690792E+02  0.00000000000E+00 0. -1.
</event>
<event>
 4    1  0.2285999E+005  0.2437380E+02  0.7546771E-02  0.1475932E+00
          2   -1    0    0  503    0  0.00000000000E+00  0.00000000000E+00  0.49799247161E+02  0.49799247161E+02  0.00000000000E+00 0. -1.
         21   -1    0    0  501  502 -0.00000000000E+00 -0.00000000000E+00 -0.39423261275E+02  0.39423261275E+02  0.00000000000E+00 0. -1.
          2    1    1    2  501    0 -0.19941566349E+02  0.14014856766E+02  0.42443021051E+02  0.48943766861E+02  0.00000000000E+00 0. -1.
         21    1    1    2  503  502  0.19941566349E+02 -0.14014856766E+02 -0.32067035166E+02  0.40278741576E+02  0.00000000000E+00 0. -1.
</event>
<event>
 4    1  0.2285999E+005  0.2248387E+02  0.7546771E-02  0.1499083E+00
          2   -1    0    0  503    0  0.00000000000E+00  0.00000000000E+00  0.25272840721E+03  0.25272840721E+03  0.00000000000E+00 0.  1.
         21   -1    0    0  501  502 -0.00000000000E+00 -0.00000000000E+00 -0.20471954279E+01  0.20471954279E+01  0.00000000000E+00 0.  1.
          2    1    1    2  501    0  0.18734536336E+02  0.12431476388E+02  0.14462753974E+03  0.14636478302E+03  0.00000000000E+00 0.  1.
         21    1    1    2  503  502 -0.18734536336E+02 -0.12431476388E+02  0.10605367204E+03  0.10841081962E+03  0.00000000000E+00 0.  1.
</event>
<event>
 4    1  0.2285999E+005  0.2403185E+02  0.7546771E-02  0.1479932E+00
          2   -1    0    0  503    0  0.00000000000E+00  0.00000000000E+00  0.40412833078E+03  0.40412833078E+03  0.00000000000E+00 0.  1.
         21   -1    0    0  501  502 -0.00000000000E+00 -0.00000000000E+00 -0.58240827982E+01  0.58240827982E+01  0.00000000000E+00 0.  1.
          2    1    1    2  501    0 -0.36265828897E+01 -0.23756637321E+02  0.37721339911E+03  0.37797814538E+03  0.00000000000E+00 0.  1.
         21    1    1    2  503  502  0.36265828897E+01  0.23756637321E+02  0.21090848867E+02  0.31974268189E+02  0.00000000000E+00 0.  1.
</event>
<event>
 4    1  0.2285999E+005  0.2719887E+02  0.7546771E-02  0.1445621E+00
          2   -1    0    0  503    0  0.00000000000E+00  0.00000000000E+00  0.41465233793E+02  0.41465233793E+02  0.00000000000E+00 0. -1.
         21   -1    0    0  501  502 -0.00000000000E+00 -0.00000000000E+00 -0.15259103813E+03  0.15259103813E+03  0.00000000000E+00 0.  1.
          2    1    1    2  501    0 -0.13882739321E+02 -0.23389060742E+02  0.35616706629E+02  0.44814377208E+02  0.00000000000E+00 0. -1.
         21    1    1    2  503  502  0.13882739321E+02  0.23389060742E+02 -0.14674251097E+03  0.14924189471E+03  0.00000000000E+00 0.  1.
</event>
<event>
 4    1  0.2285999E+005  0.2886395E+02  0.7546771E-02  0.1429732E+00
          2   -1    0    0  503    0  0.00000000000E+00  0.00000000000E+00  0.18347383195E+03  0.18347383195E+03  0.00000000000E+00 0. -1.
         21   -1    0    0  501  502 -0.00000000000E+00 -0.00000000000E+00 -0.56987976680E+01  0.56987976680E+01  0.00000000000E+00 0.  1.
          2    1    1    2  501    0  0.15243404595E+02  0.24510535965E+02  0.46251116751E+02  0.54518745011E+02  0.00000000000E+00 0. -1.
         21    1    1    2  503  502 -0.15243404595E+02 -0.24510535965E+02  0.13152391754E+03  0.13465388461E+03  0.00000000000E+00 0.  1.
</event>
<event>
 4    1  0.2285999E+005  0.2183866E+02  0.7546771E-02  0.1507620E+00
          2   -1    0    0  503    0  0.00000000000E+00  0.00000000000E+00  0.26209144504E+03  0.26209144504E+03  0.00000000000E+00 0.  1.
         21   -1    0    0  501  502 -0.00000000000E+00 -0.00000000000E+00 -0.59308573002E+01  0.59308573002E+01  0.00000000000E+00 0. -1.
          2    1    1    2  501    0 -0.20439768135E+02  0.76904515314E+01  0.23965464650E+03  0.24064761946E+03  0.00000000000E+00 0.  1.
         21    1    1    2  503  502  0.20439768135E+02 -0.76904515314E+01  0.16505941239E+02  0.27374682872E+02  0.00000000000E+00 0. -1.
</event>
<event>
 4    1  0.2285999E+005  0.2648117E+02  0.7546771E-02  0.1452891E+00
          2   -1    0    0  502    0  0.00000000000E+00  0.00000000000E+00  0.10921765908E+02  0.10921765908E+02  0.00000000000E+00 0. -1.
         21   -1    0    0  503  502 -0.00000000000E+00 -0.00000000000E+00 -0.12750196215E+03  0.12750196215E+03  0.00000000000E+00 0.  1.
          2    1    1    2  501    0  0.10786399550E+02 -0.24184833120E+02 -0.95252272703E+01  0.28142184046E+02  0.00000000000E+00 0. -1.
         21    1    1    2  503  501 -0.10786399550E+02  0.24184833120E+02 -0.10705496897E+03  0.11028154401E+03  0.00000000000E+00 0.  1.
</event>
<event>
 4    1  0.2285999E+005  0.2913447E+02  0.7546771E-02  0.1427270E+00
          2   -1    0    0  503    0  0.00000000000E+00  0.00000000000E+00  0.50746187115E+03  0.50746187115E+03  0.00000000000E+00 0. -1.
         21   -1    0    0  501  502 -0.00000000000E+00 -0.00000000000E+00 -0.22619837797E+01  0.22619837797E+01  0.00000000000E+00 0. -1.
          2    1    1    2  501    0  0.25074946171E+02 -0.14834574005E+02  0.38268655503E+03  0.38379397717E+03  0.00000000000E+00 0. -1.
         21    1    1    2  503  502 -0.25074946171E+02  0.14834574005E+02  0.12251333233E+03  0.12592987775E+03  0.00000000000E+00 0. -1.
</event>
<event>
 4    1  0.2285999E+005  0.2936471E+02  0.7546771E-02  0.1425199E+00
          2   -1    0    0  503    0  0.00000000000E+00  0.00000000000E+00  0.13913694127E+04  0.13913694127E+04  0.00000000000E+00 0.  1.
         21   -1    0    0  501  502 -0.00000000000E+00 -0.00000000000E+00 -0.10952347377E+01  0.10952347377E+01  0.00000000000E+00 0.  1.
          2    1    1    2  501    0 -0.57164255776E+01  0.28802923319E+02  0.11538847715E+04  0.11542583557E+04  0.00000000000E+00 0.  1.
         21    1    1    2  503  502  0.57164255776E+01 -0.28802923319E+02  0.23638940643E+03  0.23820629166E+03  0.00000000000E+00 0.  1.
</event>
<event>
 4    1  0.2285999E+005  0.3097353E+02  0.7546771E-02  0.1411321E+00
          2   -1    0    0  502    0  0.00000000000E+00  0.00000000000E+00  0.56671583932E+03  0.56671583932E+03  0.00000000000E+00 0.  1.
         21   -1    0    0  503  502 -0.00000000000E+00 -0.00000000000E+00 -0.18079497746E+02  0.18079497746E+02  0.00000000000E+00 0.  1.
          2    1    1    2  501    0 -0.52128321590E+01  0.30531722665E+02  0.55269039871E+03  0.55355761808E+03  0.00000000000E+00 0.  1.
         21    1    1    2  503  501  0.52128321590E+01 -0.30531722665E+02 -0.40540571378E+01  0.31237718983E+02  0.00000000000E+00 0.  1.
</event>
<event>
 4    1  0.2285999E+005  0.2259358E+02  0.7546771E-02  0.1497666E+00
          2   -1    0    0  503    0  0.00000000000E+00  0.00000000000E+00  0.44162604500E+02  0.44162604500E+02  0.00000000000E+00 0.  1.
         21   -1    0    0  501  502 -0.00000000000E+00 -0.00000000000E+00 -0.11562401815E+02  0.11562401815E+02  0.00000000000E+00 0.  1.
          2    1    1    2  501    0 -0.17201802427E+02  0.14648140055E+02  0.16786736152E+02  0.28147193900E+02  0.00000000000E+00 0.  1.
         21    1    1    2  503  502  0.17201802427E+02 -0.14648140055E+02  0.15813466533E+02  0.27577812415E+02  0.00000000000E+00 0.  1.
</event>
<event>
 4    1  0.2285999E+005  0.2021343E+02  0.7546771E-02  0.1530798E+00
          2   -1    0    0  502    0  0.00000000000E+00  0.00000000000E+00  0.30258479632E+03  0.30258479632E+03  0.00000000000E+00 0.  1.
         21   -1    0    0  503  502 -0.00000000000E+00 -0.00000000000E+00 -0.13351057593E+02  0.13351057593E+02  0.00000000000E+00 0.  1.
          2    1    1    2  501    0 -0.86944113301E+01  0.18248007218E+02  0.29438357540E+03  0.29507672226E+03  0.00000000000E+00 0.  1.
         21    1    1    2  503  501  0.86944113301E+01 -0.18248007218E+02 -0.51498366661E+01  0.20859131657E+02  0.00000000000E+00 0.  1.
</event>
<event>
 4    1  0.2285999E+005  0.2382597E+02  0.7546771E-02  0.1482379E+00
          2   -1    0    0  502    0  0.00000000000E+00  0.00000000000E+00  0.10927186497E+02  0.10927186497E+02  0.00000000000E+00 0. -1.
         21   -1    0    0  503  502 -0.00000000000E+00 -0.00000000000E+00 -0.60074497432E+02  0.60074497432E+02  0.00000000000E+00 0. -1.
          2    1    1    2  501    0  0.14698413286E+02 -0.18751891908E+02 -0.11518901801E+02  0.26464351531E+02  0.00000000000E+00 0. -1.
         21    1    1    2  503  501 -0.14698413286E+02  0.18751891908E+02 -0.37628409134E+02  0.44537332399E+02  0.00000000000E+00 0. -1.
</event>
<event>
 4    1  0.2285999E+005  0.3938066E+02  0.7546771E-02  0.1352154E+00
          2   -1    0    0  502    0  0.00000000000E+00  0.00000000000E+00  0.92444367546E+03  0.92444367546E+03  0.00000000000E+00 0.  1.
         21   -1    0    0  503  502 -0.00000000000E+00 -0.00000000000E+00 -0.17130580767E+01  0.17130580767E+01  0.00000000000E+00 0.  1.
          2    1    1    2  501    0  0.39219271721E+02 -0.35616694244E+01  0.52799870020E+03  0.52946526248E+03  0.00000000000E+00 0.  1.
         21    1    1    2  503  501 -0.39219271721E+02  0.35616694244E+01  0.39473191719E+03  0.39669147106E+03  0.00000000000E+00 0.  1.
</event>
<event>
 4    1  0.2285999E+005  0.2473810E+02  0.7546771E-02  0.1471755E+00
          2   -1    0    0  502    0  0.00000000000E+00  0.00000000000E+00  0.31550109261E+03  0.31550109261E+03  0.00000000000E+00 0.  1.
         21   -1    0    0  503  502 -0.00000000000E+00 -0.00000000000E+00 -0.33536863663E+01  0.33536863663E+01  0.00000000000E+00 0.  1.
          2    1    1    2  501    0  0.24346097576E+02 -0.43864448372E+01  0.25959419354E+03  0.26077024118E+03  0.00000000000E+00 0.  1.
         21    1    1    2  503  501 -0.24346097576E+02  0.43864448372E+01  0.52553212704E+02  0.58084537796E+02  0.00000000000E+00 0.  1.
</event>
<event>
 4    1  0.2285999E+005  0.2083439E+02  0.7546771E-02  0.1521643E+00
          2   -1    0    0  503    0  0.00000000000E+00  0.00000000000E+00  0.49200469447E+03  0.49200469447E+03  0.00000000000E+00 0. -1.
         21   -1    0    0  501  502 -0.00000000000E+00 -0.00000000000E+00 -0.56339816003E+01  0.56339816003E+01  0.00000000000E+00 0. -1.
          2    1    1    2  501    0  0.18863754879E+02  0.88448011429E+01  0.47169383147E+03  0.47215372752E+03  0.00000000000E+00 0. -1.
         21    1    1    2  503  502 -0.18863754879E+02 -0.88448011429E+01  0.14676881396E+02  0.25484948556E+02  0.00000000000E+00 0. -1.
</event>
<event>
 4    1  0.2285999E+005  0.2975101E+02  0.7546771E-02  0.1421773E+00
          2   -1    0    0  503    0  0.00000000000E+00  0.00000000000E+00  0.16699648200E+04  0.16699648200E+04  0.00000000000E+00 0.  1.
         21   -1    0    0  501  502 -0.00000000000E+00 -0.00000000000E+00 -0.11340038348E+01  0.11340038348E+01  0.00000000000E+00 0. -1.
          2    1    1    2  501    0  0.27323053752E+02 -0.11771726492E+02  0.14441990914E+04  0.14445054996E+04  0.00000000000E+00 0.  1.
         21    1    1    2  503  502 -0.27323053752E+02  0.11771726492E+02  0.22463172475E+03  0.22659332420E+03  0.00000000000E+00 0. -1.
</event>
<event>
 4    1  0.2285999E+005  0.2009837E+02  0.7546771E-02  0.1532537E+00
          2   -1    0    0  502    0  0.00000000000E+00  0.00000000000E+00  0.99587215484E+03  0.99587215484E+03  0.00000000000E+00 0. -1.
         21   -1    0    0  503  502 -0.00000000000E+00 -0.00000000000E+00 -0.17261779414E+01  0.17261779414E+01  0.00000000000E+00 0.  1.
          2    1    1    2  501    0  0.30478104951E+01  0.19865932938E+02  0.93334953864E+03  0.93356590861E+03  0.00000000000E+00 0. -1.
         21    1    1    2  503  501 -0.30478104951E+01 -0.19865932938E+02  0.60796438265E+02  0.64032424178E+02  0.00000000000E+00 0.  1.
</event>
<event>
 4    1  0.2285999E+005  0.3830876E+02  0.7546771E-02  0.1358692E+00
          2   -1    0    0  503    0  0.00000000000E+00  0.00000000000E+00  0.19790677241E+03  0.19790677241E+03  0.00000000000E+00 0. -1.
         21   -1    0    0  501  502 -0.00000000000E+00 -0.00000000000E+00 -0.17939625629E+03  0.17939625629E+03  0.00000000000E+00 0.  1.
          2    1    1    2  501    0  0.22337863588E+02 -0.31122029251E+02  0.19396663353E+03  0.19771346889E+03  0.00000000000E+00 0. -1.
         21    1    1    2  503  502 -0.22337863588E+02  0.31122029251E+02 -0.17545611742E+03  0.17958955981E+03  0.00000000000E+00 0.  1.
</event>
<event>
 4    1  0.2285999E+005  0.2091461E+02  0.7546771E-02  0.1520488E+00
          2   -1    0    0  502    0  0.00000000000E+00  0.00000000000E+00  0.99520514430E+03  0.99520514430E+03  0.00000000000E+00 0. -1.
         21   -1    0    0  503  502 -0.00000000000E+00 -0.00000000000E+00 -0.17354748212E+02  0.17354748212E+02  0.00000000000E+00 0. -1.
          2    1    1    2  501    0  0.59178734801E+01 -0.20059899040E+02  0.98875297963E+03  0.98897415310E+03  0.00000000000E+00 0. -1.
         21    1    1    2  503  501 -0.59178734801E+01  0.20059899040E+02 -0.10902583536E+02  0.23585739415E+02  0.00000000000E+00 0. -1.
</event>
<event>
 4    1  0.2285999E+005  0.3091288E+02  0.7546771E-02  0.1411826E+00
          2   -1    0    0  503    0  0.00000000000E+00  0.00000000000E+00  0.17247203841E+02  0.17247203841E+02  0.00000000000E+00 0.  1.
         21   -1    0    0  501  502 -0.00000000000E+00 -0.00000000000E+00 -0.58845269191E+02  0.58845269191E+02  0.00000000000E+00 0.  1.
          2    1    1    2  501    0 -0.52600657061E+01 -0.30462071764E+02 -0.11601709668E+02  0.33018264258E+02  0.00000000000E+00 0.  1.
         21    1    1    2  503  502  0.52600657061E+01  0.30462071764E+02 -0.29996355681E+02  0.43074208774E+02  0.00000000000E+00 0.  1.
</event>
<event>
 4    1  0.2285999E+005  0.2201597E+02  0.7546771E-02  0.1505239E+00
          2   -1    0    0  503    0  0.00000000000E+00  0.00000000000E+00  0.94577637481E+03  0.94577637481E+03  0.00000000000E+00 0. -1.
         21   -1    0    0  501  502 -0.00000000000E+00 -0.00000000000E+00 -0.74097739400E+02  0.74097739400E+02  0.00000000000E+00 0. -1.
          2    1    1    2  501    0  0.71132017245E+01  0.20835193788E+02  0.94400984200E+03  0.94426653268E+03  0.00000000000E+00 0. -1.
         21    1    1    2  503  502 -0.71132017245E+01 -0.20835193788E+02 -0.72331206589E+02  0.75607581535E+02  0.00000000000E+00 0. -1.
</event>
<event>
 4    1  0.2285999E+005  0.2132606E+02  0.7546771E-02  0.1514660E+00
          2   -1    0    0  502    0  0.00000000000E+00  0.00000000000E+00  0.48804153878E+03  0.48804153878E+03  0.00000000000E+00 0. -1.
         21   -1    0    0  503  502 -0.00000000000E+00 -0.00000000000E+00 -0.33947442464E+01  0.33947442464E+01  0.00000000000E+00 0.  1.
          2    1    1    2  501    0 -0.12775701007E+02  0.17075783591E+02  0.45161560843E+03  0.45211885461E+03  0.00000000000E+00 0. -1.
         21    1    1    2  503  501  0.12775701007E+02 -0.17075783591E+02  0.33031186109E+02  0.39317428416E+02  0.00000000000E+00 0.  1.
</event>
<event>
 4    1  0.2285999E+005  0.2298938E+02  0.7546771E-02  0.1492632E+00
          2   -1    0    0  503    0  0.00000000000E+00  0.00000000000E+00  0.67003282417E+02  0.67003282417E+02  0.00000000000E+00 0.  1.
         21   -1    0    0  501  502 -0.00000000000E+00 -0.00000000000E+00 -0.22364358137E+02  0.22364358137E+02  0.00000000000E+00 0. -1.
          2    1    1    2  501    0  0.22242613417E+02  0.58118442947E+01  0.58269892079E+02  0.62640974678E+02  0.00000000000E+00 0.  1.
         21    1    1    2  503  502 -0.22242613417E+02 -0.58118442947E+01 -0.13630967798E+02  0.26726665876E+02  0.00000000000E+00 0. -1.
</event>
<event>
 4    1  0.2285999E+005  0.2554607E+02  0.7546771E-02  0.1462786E+00
          2   -1    0    0  502    0  0.00000000000E+00  0.00000000000E+00  0.21400460617E+04  0.21400460617E+04  0.00000000000E+00 0. -1.
         21   -1    0    0  503  502 -0.00000000000E+00 -0.00000000000E+00 -0.62878048532E+00  0.62878048532E+00  0.00000000000E+00 0.  1.
          2    1    1    2  501    0 -0.13815405461E+02 -0.21488051491E+02  0.18378332798E+04  0.18380108177E+04  0.00000000000E+00 0. -1.
         21    1    1    2  503  501  0.13815405461E+02  0.21488051491E+02  0.30158400149E+03  0.30266402452E+03  0.00000000000E+00 0.  1.
</event>
<event>
 4    1  0.2285999E+005  0.2212029E+02  0.7546771E-02  0.1503850E+00
          2   -1    0    0  502    0  0.00000000000E+00  0.00000000000E+00  0.75549503932E+02  0.75549503932E+02  0.00000000000E+00 0.  1.
         21   -1    0    0  503  502 -0.00000000000E+00 -0.00000000000E+00 -0.34023172958E+02  0.34023172958E+02  0.00000000000E+00 0.  1.
          2    1    1    2  501    0 -0.18691605694E+02 -0.11829251344E+02  0.70059917226E+02  0.73469036420E+02  0.00000000000E+00 0.  1.
         21    1    1    2  503  501  0.18691605694E+02  0.11829251344E+02 -0.28533586252E+02  0.36103640470E+02  0.00000000000E+00 0.  1.
</event>
<event>
 4    1  0.2285999E+005  0.2218460E+02  0.7546771E-02  0.1502999E+00
          2   -1    0    0  503    0  0.00000000000E+00  0.00000000000E+00  0.63067010272E+03  0.63067010272E+03  0.00000000000E+00 0. -1.
         21   -1    0    0  501  502 -0.00000000000E+00 -0.00000000000E+00 -0.68520179878E+01  0.68520179878E+01  0.00000000000E+00 0.  1.
          2    1    1    2  501    0  0.98181968108E+01  0.19893708509E+02  0.61196985014E+03  0.61237182668E+03  0.00000000000E+00 0. -1.
         21    1    1    2  503  502 -0.98181968108E+01 -0.19893708509E+02  0.11848234590E+02  0.25150294029E+02  0.00000000000E+00 0.  1.
</event>
<event>
 4    1  0.2285999E+005  0.2339280E+02  0.7546771E-02  0.1487624E+00
          2   -1    0    0  503    0  0.00000000000E+00  0.00000000000E+00  0.27290682251E+03  0.27290682251E+03  0.00000000000E+00 0. -1.
         21   -1    0    0  501  502 -0.00000000000E+00 -0.00000000000E+00 -0.65070499343E+01  0.65070499343E+01  0.00000000000E+00 0. -1.
          2    1    1    2  501    0  0.22624540147E+02 -0.59458573466E+01  0.24940443399E+03  0.25049909128E+03  0.00000000000E+00 0. -1.
         21    1    1    2  503  502 -0.22624540147E+02  0.59458573466E+01  0.16995338590E+02  0.28914781172E+02  0.00000000000E+00 0. -1.
</event>
<event>
 4    1  0.2285999E+005  0.3959991E+02  0.7546771E-02  0.1350846E+00
          2   -1    0    0  502    0  0.00000000000E+00  0.00000000000E+00  0.19352698715E+03  0.19352698715E+03  0.00000000000E+00 0. -1.
         21   -1    0    0  503  502 -0.00000000000E+00 -0.00000000000E+00 -0.35177241360E+02  0.35177241360E+02  0.00000000000E+00 0.  1.
          2    1    1    2  501    0 -0.21135629588E+02  0.33487882295E+02  0.17949574409E+03  0.18381206501E+03  0.00000000000E+00 0. -1.
         21    1    1    2  503  501  0.21135629588E+02 -0.33487882295E+02 -0.21145998303E+02  0.44892163491E+02  0.00000000000E+00 0.  1.
</event>
<event>
 4    1  0.2285999E+005  0.2609122E+02  0.7546771E-02  0.1456957E+00
          2   -1    0    0  503    0  0.00000000000E+00  0.00000000000E+00  0.59382612372E+01  0.59382612372E+01  0.00000000000E+00 0.  1.
         21   -1    0    0  501  502 -0.00000000000E+00 -0.00000000000E+00 -0.16420552348E+03  0.16420552348E+03  0.00000000000E+00 0. -1.
          2    1    1    2  501    0  0.12812457534E+02 -0.22728671795E+02 -0.32393498601E+02  0.41594354680E+02  0.00000000000E+00 0.  1.
         21    1    1    2  503  502 -0.12812457534E+02  0.22728671795E+02 -0.12587376364E+03  0.12854943004E+03  0.00000000000E+00 0. -1.
</event>
<event>
 4    1  0.2285999E+005  0.2549019E+02  0.7546771E-02  0.1463394E+00
          2   -1    0    0  502    0  0.00000000000E+00  0.00000000000E+00  0.19118445976E+03  0.19118445976E+03  0.00000000000E+00 0.  1.
         21   -1    0    0  503  502 -0.00000000000E+00 -0.00000000000E+00 -0.36752225888E+01  0.36752225888E+01  0.00000000000E+00 0.  1.
          2    1    1    2  501    0 -0.15042268914E+02 -0.20578633633E+02  0.12048671067E+03  0.12315355238E+03  0.00000000000E+00 0.  1.
         21    1    1    2  503  501  0.15042268914E+02  0.20578633633E+02  0.67022526510E+02  0.71706129975E+02  0.00000000000E+00 0.  1.
</event>
<event>
 4    1  0.2285999E+005  0.2556963E+02  0.7546771E-02  0.1462531E+00
          2   -1    0    0  503    0  0.00000000000E+00  0.00000000000E+00  0.14129218130E+04  0.14129218130E+04  0.00000000000E+00 0.  1.
         21   -1    0    0  501  502 -0.00000000000E+00 -0.00000000000E+00 -0.32156749945E+01  0.32156749945E+01  0.00000000000E+00 0. -1.
          2    1    1    2  501    0  0.12635099480E+02 -0.22229715455E+02  0.13599987096E+04  0.13602390584E+04  0.00000000000E+00 0.  1.
         21    1    1    2  503  502 -0.12635099480E+02  0.22229715455E+02  0.49707428402E+02  0.55898429552E+02  0.00000000000E+00 0. -1.
</event>
<event>
 4    1  0.2285999E+005  0.2050612E+02  0.7546771E-02  0.1526434E+00
          2   -1    0    0  503    0  0.00000000000E+00  0.00000000000E+00  0.15375629908E+03  0.15375629908E+03  0.00000000000E+00 0.  1.
         21   -1    0    0  501  502 -0.00000000000E+00 -0.00000000000E+00 -0.78038557392E+01  0.78038557392E+01  0.00000000000E+00 0. -1.
          2    1    1    2  501    0 -0.50837957453E+01 -0.19865946300E+02  0.13808071035E+03  0.13959506930E+03  0.00000000000E+00 0.  1.
         21    1    1    2  503  502  0.50837957453E+01  0.19865946300E+02  0.78717329877E+01  0.21965085518E+02  0.00000000000E+00 0. -1.
</event>
<event>
 4    1  0.2285999E+005  0.2417706E+02  0.7546771E-02  0.1478224E+00
          2   -1    0    0  502    0  0.00000000000E+00  0.00000000000E+00  0.19307281256E+03  0.19307281256E+03  0.00000000000E+00 0. -1.
         21   -1    0    0  503  502 -0.00000000000E+00 -0.00000000000E+00 -0.14353593059E+02  0.14353593059E+02  0.00000000000E+00 0. -1.
          2    1    1    2  501    0  0.21672716257E+02 -0.10715571639E+02  0.18148802045E+03  0.18309132058E+03  0.00000000000E+00 0. -1.
         21    1    1    2  503  501 -0.21672716257E+02  0.10715571639E+02 -0.27688009406E+01  0.24335085045E+02  0.00000000000E+00 0. -1.
</event>
<event>
 4    1  0.2285999E+005  0.2368345E+02  0.7546771E-02  0.1484090E+00
          2   -1    0    0  502    0  0.00000000000E+00  0.00000000000E+00  0.23302549194E+02  0.23302549194E+02  0.00000000000E+00 0. -1.
         21   -1    0    0  503  502 -0.00000000000E+00 -0.00000000000E+00 -0.94898735349E+03  0.94898735349E+03  0.00000000000E+00 0. -1.
          2    1    1    2  501    0  0.10520916758E+02 -0.21218301971E+02  0.17097538731E+02  0.29210132807E+02  0.00000000000E+00 0. -1.
         21    1    1    2  503  501 -0.10520916758E+02  0.21218301971E+02 -0.94278234303E+03  0.94307976988E+03  0.00000000000E+00 0. -1.
</event>
<event>
 4    1  0.2285999E+005  0.2820133E+02  0.7546771E-02  0.1435900E+00
          2   -1    0    0  503    0  0.00000000000E+00  0.00000000000E+00  0.19400436988E+02  0.19400436988E+02  0.00000000000E+00 0.  1.
         21   -1    0    0  501  502 -0.00000000000E+00 -0.00000000000E+00 -0.48701096480E+03  0.48701096480E+03  0.00000000000E+00 0. -1.
          2    1    1    2  501    0  0.27520379255E+02 -0.61598686625E+01  0.85092646093E+01  0.29457135646E+02  0.00000000000E+00 0.  1.
         21    1    1    2  503  502 -0.27520379255E+02  0.61598686625E+01 -0.47611979242E+03  0.47695426614E+03  0.00000000000E+00 0. -1.
</event>
<event>
 4    1  0.2285999E+005  0.2434336E+02  0.7546771E-02  0.1476285E+00
          2   -1    0    0  503    0  0.00000000000E+00  0.00000000000E+00  0.14781232413E+02  0.14781232413E+02  0.00000000000E+00 0. -1.
         21   -1    0    0  501  502 -0.00000000000E+00 -0.00000000000E+00 -0.10290554663E+03  0.10290554663E+03  0.00000000000E+00 0. -1.
          2    1    1    2  501    0 -0.20719702963E+02  0.12778618517E+02  0.19113126921E+01  0.24418277955E+02  0.00000000000E+00 0. -1.
         21    1    1    2  503  502  0.20719702963E+02 -0.12778618517E+02 -0.90035626905E+02  0.93268501083E+02  0.00000000000E+00 0. -1.
</event>
<event>
 4    1  0.2285999E+005  0.2405005E+02  0.7546771E-02  0.1479717E+00
          2   -1    0    0  502    0  0.00000000000E+00  0.00000000000E+00  0.14918540324E+04  0.14918540324E+04  0.00000000000E+00 0. -1.
         21   -1    0    0  503  502 -0.00000000000E+00 -0.00000000000E+00 -0.27034629033E+01  0.27034629033E+01  0.00000000000E+00 0. -1.
          2    1    1    2  501    0 -0.13226905716E+02 -0.20086157278E+02  0.14361970577E+04  0.14363984104E+04  0.00000000000E+00 0. -1.
         21    1    1    2  503  501  0.13226905716E+02  0.20086157278E+02  0.52953511757E+02  0.58159084900E+02  0.00000000000E+00 0. -1.
</event>
<event>
 4    1  0.2285999E+005  0.2012251E+02  0.7546771E-02  0.1532171E+00
          2   -1    0    0  503    0  0.00000000000E+00  0.00000000000E+00  0.61444922416E+02  0.61444922416E+02  0.00000000000E+00 0.  1.
         21   -1    0    0  501  502 -0.00000000000E+00 -0.00000000000E+00 -0.32467866668E+02  0.32467866668E+02  0.00000000000E+00 0. -1.
          2    1    1    2  501    0 -0.26187495357E+01 -0.19951384734E+02  0.56409657865E+02  0.59891277348E+02  0.00000000000E+00 0.  1.
         21    1    1    2  503  502  0.26187495357E+01  0.19951384734E+02 -0.27432602117E+02  0.34021511736E+02  0.00000000000E+00 0. -1.
</event>
<event>
 4    1  0.2285999E+005  0.3558192E+02  0.7546771E-02  0.1376518E+00
          2   -1    0    0  503    0  0.00000000000E+00  0.00000000000E+00  0.33245977069E+03  0.33245977069E+03  0.00000000000E+00 0. -1.
         21   -1    0    0  501  502 -0.00000000000E+00 -0.00000000000E+00 -0.41974472810E+02  0.41974472810E+02  0.00000000000E+00 0. -1.
          2    1    1    2  501    0  0.62012037270E+01  0.35037385500E+02  0.32376508893E+03  0.32571445488E+03  0.00000000000E+00 0. -1.
         21    1    1    2  503  502 -0.62012037270E+01 -0.35037385500E+02 -0.33279791051E+02  0.48719788615E+02  0.00000000000E+00 0. -1.
</event>
<event>
 4    1  0.2285999E+005  0.3353031E+02  0.7546771E-02  0.1391201E+00
          2   -1    0    0  503    0  0.00000000000E+00  0.00000000000E+00  0.90426063506E+03  0.90426063506E+03  0.00000000000E+00 0.  1.
         21   -1    0    0  501  502 -0.00000000000E+00 -0.00000000000E+00 -0.14525585005E+01  0.14525585005E+01  0.00000000000E+00 0.  1.
          2    1    1    2  501    0  0.33466634634E+02  0.20654114642E+01  0.27952654395E+03  0.28153040747E+03  0.00000000000E+00 0.  1.
         21    1    1    2  503  502 -0.33466634634E+02 -0.20654114642E+01  0.62328153261E+03  0.62418278609E+03  0.00000000000E+00 0.  1.
</event>
<event>
 4    1  0.2285999E+005  0.4291793E+02  0.7546771E-02  0.1332186E+00
          2   -1    0    0  503    0  0.00000000000E+00  0.00000000000E+00  0.12266173776E+04  0.12266173776E+04  0.00000000000E+00 0.  1.
         21   -1    0    0  501  502 -0.00000000000E+00 -0.00000000000E+00 -0.27125533011E+01  0.27125533011E+01  0.00000000000E+00 0.  1.
          2    1    1    2  501    0  0.30860898341E+02  0.29825381950E+02  0.10226330945E+04  0.10235332893E+04  0.00000000000E+00 0.  1.
         21    1    1    2  503  502 -0.30860898341E+02 -0.29825381950E+02  0.20127172982E+03  0.20579664156E+03  0.00000000000E+00 0.  1.
</event>
<event>
 4    1  0.2285999E+005  0.3467191E+02  0.7546771E-02  0.1382884E+00
          2   -1    0    0  503    0  0.00000000000E+00  0.00000000000E+00  0.77601423124E+03  0.77601423124E+03  0.00000000000E+00 0. -1.
         21   -1    0    0  501  502 -0.00000000000E+00 -0.00000000000E+00 -0.15092107924E+02  0.15092107924E+02  0.00000000000E+00 0. -1.
          2    1    1    2  501    0 -0.68448314788E+01  0.33989555477E+02  0.75516401239E+03  0.75595954072E+03  0.00000000000E+00 0. -1.
         21    1    1    2  503  502  0.68448314788E+01 -0.33989555477E+02  0.57581109287E+01  0.35146798445E+02  0.00000000000E+00 0. -1.
</event>
<event>
 4    1  0.2285999E+005  0.4996971E+02  0.7546771E-02  0.1298304E+00
          2   -1    0    0  502    0  0.00000000000E+00  0.00000000000E+00  0.29732858242E+03  0.29732858242E+03  0.00000000000E+00 0.  1.
         21   -1    0    0  503  502 -0.00000000000E+00 -0.00000000000E+00 -0.30448925424E+02  0.30448925424E+02  0.00000000000E+00 0.  1.
          2    1    1    2  501    0  0.35530938781E+02 -0.35135804847E+02  0.27290839842E+03  0.27744542945E+03  0.00000000000E+00 0.  1.
         21    1    1    2  503  501 -0.35530938781E+02  0.35135804847E+02 -0.60287414215E+01  0.50332078400E+02  0.00000000000E+00 0.  1.
</event>
<event>
 4    1  0.2285999E+005  0.2368600E+02  0.7546771E-02  0.1484059E+00
          2   -1    0    0  503    0  0.00000000000E+00  0.00000000000E+00  0.51699729869E+03  0.51699729869E+03  0.00000000000E+00 0.  1.
         21   -1    0    0  501  502 -0.00000000000E+00 -0.00000000000E+00 -0.17371906645E+01  0.17371906645E+01  0.00000000000E+00 0.  1.
          2    1    1    2  501    0 -0.19345308842E+02  0.13666945523E+02  0.41653022849E+03  0.41720313712E+03  0.00000000000E+00 0.  1.
         21    1    1    2  503  502  0.19345308842E+02 -0.13666945523E+02  0.98729879532E+02  0.10153135223E+03  0.00000000000E+00 0.  1.
</event>
<event>
 4    1  0.2285999E+005  0.2193790E+02  0.7546771E-02  0.1506284E+00
          2   -1    0    0  503    0  0.00000000000E+00  0.00000000000E+00  0.24990318131E+03  0.24990318131E+03  0.00000000000E+00 0.  1.
         21   -1    0    0  501  502 -0.00000000000E+00 -0.00000000000E+00 -0.19987386596E+01  0.19987386596E+01  0.00000000000E+00 0. -1.
          2    1    1    2  501    0 -0.18150950288E+02 -0.12321292739E+02  0.14800750930E+03  0.14962451023E+03  0.00000000000E+00 0.  1.
         21    1    1    2  503  502  0.18150950288E+02  0.12321292739E+02  0.99896933352E+02  0.10227740975E+03  0.00000000000E+00 0. -1.
</event>
<event>
 4    1  0.2285999E+005  0.2186113E+02  0.7546771E-02  0.1507316E+00
          2   -1    0    0  503    0  0.00000000000E+00  0.00000000000E+00  0.25883500865E+03  0.25883500865E+03  0.00000000000E+00 0. -1.
         21   -1    0    0  501  502 -0.00000000000E+00 -0.00000000000E+00 -0.34383327697E+01  0.34383327697E+01  0.00000000000E+00 0.  1.
          2    1    1    2  501    0  0.18360190652E+02 -0.11866446929E+02  0.21692909188E+03  0.21802784241E+03  0.00000000000E+00 0. -1.
         21    1    1    2  503  502 -0.18360190652E+02  0.11866446929E+02  0.38467583999E+02  0.44245499005E+02  0.00000000000E+00 0.  1.
</event>
<event>
 4    1  0.2285999E+005  0.2209686E+02  0.7546771E-02  0.1504161E+00
          2   -1    0    0  503    0  0.00000000000E+00  0.00000000000E+00  0.82242463888E+03  0.82242463888E+03  0.00000000000E+00 0. -1.
         21   -1    0    0  501  502 -0.00000000000E+00 -0.00000000000E+00 -0.22581122387E+01  0.22581122387E+01  0.00000000000E+00 0. -1.
          2    1    1    2  501    0  0.20249051690E+02  0.88457428783E+01  0.76409279847E+03  0.76441224214E+03  0.00000000000E+00 0. -1.
         21    1    1    2  503  502 -0.20249051690E+02 -0.88457428783E+01  0.56073728173E+02  0.60270508979E+02  0.00000000000E+00 0. -1.
</event>
<event>
 4    1  0.2285999E+005  0.2799762E+02  0.7546771E-02  0.1437836E+00
          2   -1    0    0  503    0  0.00000000000E+00  0.00000000000E+00  0.14295769903E+03  0.14295769903E+03  0.00000000000E+00 0. -1.
         21   -1    0    0  501  502 -0.00000000000E+00 -0.00000000000E+00 -0.83799176262E+01  0.83799176262E+01  0.00000000000E+00 0. -1.
          2    1    1    2  501    0 -0.45343521934E+01  0.27628000832E+02  0.11177756976E+03  0.11523060306E+03  0.00000000000E+00 0. -1.
         21    1    1    2  503  502  0.45343521934E+01 -0.27628000832E+02  0.22800211637E+02  0.36107013591E+02  0.00000000000E+00 0. -1.
</event>
<event>
 4    1  0.2285999E+005  0.2140211E+02  0.7546771E-02  0.1513601E+00
          2   -1    0    0  502    0  0.00000000000E+00  0.00000000000E+00  0.12218902432E+03  0.12218902432E+03  0.00000000000E+00 0.  1.
         21   -1    0    0  503  502 -0.00000000000E+00 -0.00000000000E+00 -0.61445156748E+01  0.61445156748E+01  0.00000000000E+00 0.  1.
          2    1    1    2  501    0 -0.13869312540E+02 -0.16300074434E+02  0.98089810767E+02  0.10039751607E+03  0.00000000000E+00 0.  1.
         21    1    1    2  503  501  0.13869312540E+02  0.16300074434E+02  0.17954697882E+02  0.27936023928E+02  0.00000000000E+00 0.  1.
</event>
<event>
 4    1  0.2285999E+005  0.3308372E+02  0.7546771E-02  0.1394560E+00
          2   -1    0    0  503    0  0.00000000000E+00  0.00000000000E+00  0.61118625364E+03  0.61118625364E+03  0.00000000000E+00 0.  1.
         21   -1    0    0  501  502 -0.00000000000E+00 -0.00000000000E+00 -0.10544603052E+02  0.10544603052E+02  0.00000000000E+00 0.  1.
          2    1    1    2  501    0 -0.32969777975E+02 -0.27434164667E+01  0.58356101229E+03  0.58449806472E+03  0.00000000000E+00 0.  1.
         21    1    1    2  503  502  0.32969777975E+02  0.27434164667E+01  0.17080638301E+02  0.37232791977E+02  0.00000000000E+00 0.  1.
</event>
<event>
 4    1  0.2285999E+005  0.2672482E+02  0.7546771E-02  0.1450392E+00
          2   -1    0    0  502    0  0.00000000000E+00  0.00000000000E+00  0.14776750702E+04  0.14776750702E+04  0.00000000000E+00 0.  1.
         21   -1    0    0  503  502 -0.00000000000E+00 -0.00000000000E+00 -0.48934192164E+00  0.48934192164E+00  0.00000000000E+00 0.  1.
          2    1    1    2  501    0  0.25480681610E+01 -0.26603065688E+02  0.82046244884E+03  0.82089758540E+03  0.00000000000E+00 0.  1.
         21    1    1    2  503  501 -0.25480681610E+01  0.26603065688E+02  0.65672327940E+03  0.65726682668E+03  0.00000000000E+00 0.  1.
</event>
<event>
 4    1  0.2285999E+005  0.4100885E+02  0.7546771E-02  0.1342673E+00
          2   -1    0    0  503    0  0.00000000000E+00  0.00000000000E+00  0.60991044958E+03  0.60991044958E+03  0.00000000000E+00 0. -1.
         21   -1    0    0  501  502 -0.00000000000E+00 -0.00000000000E+00 -0.28769614737E+01  0.28769614737E+01  0.00000000000E+00 0.  1.
          2    1    1    2  501    0 -0.15962128113E+02 -0.37774804430E+02  0.36599552616E+03  0.36828582725E+03  0.00000000000E+00 0. -1.
         21    1    1    2  503  502  0.15962128113E+02  0.37774804430E+02  0.24103796195E+03  0.24450158381E+03  0.00000000000E+00 0.  1.
</event>
<event>
 4    1  0.2285999E+005  0.2212353E+02  0.7546771E-02  0.1503807E+00
          2   -1    0    0  503    0  0.00000000000E+00  0.00000000000E+00  0.25171659468E+02  0.25171659468E+02  0.00000000000E+00 0. -1.
         21   -1    0    0  501  502 -0.00000000000E+00 -0.00000000000E+00 -0.78464825668E+02  0.78464825668E+02  0.00000000000E+00 0. -1.
          2    1    1    2  501    0 -0.63915370544E+01  0.21180149777E+02  0.18294749945E+02  0.28707984361E+02  0.00000000000E+00 0. -1.
         21    1    1    2  503  502  0.63915370544E+01 -0.21180149777E+02 -0.71587916145E+02  0.74928500776E+02  0.00000000000E+00 0. -1.
</event>
<event>
 4    1  0.2285999E+005  0.3192790E+02  0.7546771E-02  0.1403551E+00
          2   -1    0    0  503    0  0.00000000000E+00  0.00000000000E+00  0.32890654185E+03  0.32890654185E+03  0.00000000000E+00 0.  1.
         21   -1    0    0  501  502 -0.00000000000E+00 -0.00000000000E+00 -0.97940637508E+02  0.97940637508E+02  0.00000000000E+00 0. -1.
          2    1    1    2  501    0  0.31643153367E+02 -0.42546159628E+01  0.32550249866E+03  0.32706462289E+03  0.00000000000E+00 0.  1.
         21    1    1    2  503  502 -0.31643153367E+02  0.42546159628E+01 -0.94536594313E+02  0.99782556473E+02  0.00000000000E+00 0. -1.
</event>
<event>
 4    1  0.2285999E+005  0.4003435E+02  0.7546771E-02  0.1348285E+00
          2   -1    0    0  503    0  0.00000000000E+00  0.00000000000E+00  0.57821470168E+03  0.57821470168E+03  0.00000000000E+00 0. -1.
         21   -1    0    0  501  502 -0.00000000000E+00 -0.00000000000E+00 -0.72553202258E+01  0.72553202258E+01  0.00000000000E+00 0. -1.
          2    1    1    2  501    0 -0.35890302699E+02 -0.17737973681E+02  0.51559812757E+03  0.51715005433E+03  0.00000000000E+00 0. -1.
         21    1    1    2  503  502  0.35890302699E+02  0.17737973681E+02  0.55361253884E+02  0.68319967577E+02  0.00000000000E+00 0. -1.
</event>
<event>
 4    1  0.2285999E+005  0.2064849E+02  0.7546771E-02  0.1524343E+00
          2   -1    0    0  502    0  0.00000000000E+00  0.00000000000E+00  0.78864974942E+03  0.78864974942E+03  0.00000000000E+00 0. -1.
         21   -1    0    0  503  502 -0.00000000000E+00 -0.00000000000E+00 -0.17453121647E+03  0.17453121647E+03  0.00000000000E+00 0. -1.
          2    1    1    2  501    0 -0.60354420325E+01  0.19746738349E+02  0.78790329377E+03  0.78817381368E+03  0.00000000000E+00 0. -1.
         21    1    1    2  503  501  0.60354420325E+01 -0.19746738349E+02 -0.17378476081E+03  0.17500715222E+03  0.00000000000E+00 0. -1.
</event>
<event>
 4    1  0.2285999E+005  0.3208996E+02  0.7546771E-02  0.1402264E+00
          2   -1    0    0  503    0  0.00000000000E+00  0.00000000000E+00  0.37939743011E+03  0.37939743011E+03  0.00000000000E+00 0.  1.
         21   -1    0    0  501  502 -0.00000000000E+00 -0.00000000000E+00 -0.77052098756E+01  0.77052098756E+01  0.00000000000E+00 0. -1.
          2    1    1    2  501    0  0.30420884283E+02 -0.10214477261E+02  0.34162102217E+03  0.34312488767E+03  0.00000000000E+00 0.  1.
         21    1    1    2  503  502 -0.30420884283E+02  0.10214477261E+02  0.30071198068E+02  0.43977752324E+02  0.00000000000E+00 0. -1.
</event>
<event>
 4    1  0.2285999E+005  0.2533314E+02  0.7546771E-02  0.1465111E+00
          2   -1    0    0  503    0  0.00000000000E+00  0.00000000000E+00  0.17255607998E+04  0.17255607998E+04  0.00000000000E+00 0. -1.
         21   -1    0    0  501  502 -0.00000000000E+00 -0.00000000000E+00 -0.44247349749E+00  0.44247349749E+00  0.00000000000E+00 0. -1.
          2    1    1    2  501    0  0.11044629304E+02  0.22798778772E+02  0.12071721045E+04  0.12074378900E+04  0.00000000000E+00 0. -1.
         21    1    1    2  503  502 -0.11044629304E+02 -0.22798778772E+02  0.51794622173E+03  0.51856538329E+03  0.00000000000E+00 0. -1.
</event>
<event>
 4    1  0.2285999E+005  0.2127694E+02  0.7546771E-02  0.1515347E+00
          2   -1    0    0  502    0  0.00000000000E+00  0.00000000000E+00  0.73422307377E+03  0.73422307377E+03  0.00000000000E+00 0. -1.
         21   -1    0    0  503  502 -0.00000000000E+00 -0.00000000000E+00 -0.20942421052E+01  0.20942421052E+01  0.00000000000E+00 0.  1.
          2    1    1    2  501    0  0.18025853792E+02 -0.11303833898E+02  0.67531389864E+03  0.67564899893E+03  0.00000000000E+00 0. -1.
         21    1    1    2  503  501 -0.18025853792E+02  0.11303833898E+02  0.56814933026E+02  0.60668316941E+02  0.00000000000E+00 0.  1.
</event>
<event>
 4    1  0.2285999E+005  0.4885560E+02  0.7546771E-02  0.1303212E+00
          2   -1    0    0  503    0  0.00000000000E+00  0.00000000000E+00  0.35865127674E+03  0.35865127674E+03  0.00000000000E+00 0.  1.
         21   -1    0    0  501  502 -0.00000000000E+00 -0.00000000000E+00 -0.92123880298E+01  0.92123880298E+01  0.00000000000E+00 0.  1.
          2    1    1    2  501    0  0.29552675817E+02 -0.38903847590E+02  0.77811748676E+02  0.91877844104E+02  0.00000000000E+00 0.  1.
         21    1    1    2  503  502 -0.29552675817E+02  0.38903847590E+02  0.27162714003E+03  0.27598582067E+03  0.00000000000E+00 0.  1.
</event>
<event>
 4    1  0.2285999E+005  0.2384998E+02  0.7546771E-02  0.1482092E+00
          2   -1    0    0  502    0  0.00000000000E+00  0.00000000000E+00  0.55821964997E+03  0.55821964997E+03  0.00000000000E+00 0.  1.
         21   -1    0    0  503  502 -0.00000000000E+00 -0.00000000000E+00 -0.22821395368E+01  0.22821395368E+01  0.00000000000E+00 0.  1.
          2    1    1    2  501    0  0.20670145911E+02  0.11898175867E+02  0.48646723837E+03  0.48705153273E+03  0.00000000000E+00 0.  1.
         21    1    1    2  503  501 -0.20670145911E+02 -0.11898175867E+02  0.69470272056E+02  0.73450256776E+02  0.00000000000E+00 0.  1.
</event>
<event>
 4    1  0.2285999E+005  0.2410621E+02  0.7546771E-02  0.1479056E+00
          2   -1    0    0  503    0  0.00000000000E+00  0.00000000000E+00  0.21862331339E+04  0.21862331339E+04  0.00000000000E+00 0. -1.
         21   -1    0    0  501  502 -0.00000000000E+00 -0.00000000000E+00 -0.41309949637E+00  0.41309949637E+00  0.00000000000E+00 0.  1.
          2    1    1    2  501    0  0.13250095729E+02  0.20138133883E+02  0.17457638502E+04  0.17459302764E+04  0.00000000000E+00 0. -1.
         21    1    1    2  503  502 -0.13250095729E+02 -0.20138133883E+02  0.44005618418E+03  0.44071595695E+03  0.00000000000E+00 0.  1.
</event>
<event>
 4    1  0.2285999E+005  0.2283456E+02  0.7546771E-02  0.1494586E+00
          2   -1    0    0  503    0  0.00000000000E+00  0.00000000000E+00  0.51914816569E+02  0.51914816569E+02  0.00000000000E+00 0. -1.
         21   -1    0    0  501  502 -0.00000000000E+00 -0.00000000000E+00 -0.28953289824E+03  0.28953289824E+03  0.00000000000E+00 0. -1.
          2    1    1    2  501    0  0.72632202723E+01  0.21648624442E+02  0.48927531068E+02  0.53993708942E+02  0.00000000000E+00 0. -1.
         21    1    1    2  503  502 -0.72632202723E+01 -0.21648624442E+02 -0.28654561274E+03  0.28745400587E+03  0.00000000000E+00 0. -1.
</event>
<event>
 4    1  0.2285999E+005  0.8681824E+02  0.7546771E-02  0.1188846E+00
          2   -1    0    0  502    0  0.00000000000E+00  0.00000000000E+00  0.23189085870E+03  0.23189085870E+03  0.00000000000E+00 0. -1.
         21   -1    0    0  503  502 -0.00000000000E+00 -0.00000000000E+00 -0.58634993347E+02  0.58634993347E+02  0.00000000000E+00 0.  1.
          2    1    1    2  501    0 -0.84202982311E+02  0.21148611240E+02  0.18360150468E+03  0.20309337387E+03  0.00000000000E+00 0. -1.
         21    1    1    2  503  501  0.84202982311E+02 -0.21148611240E+02 -0.10345639328E+02  0.87432478179E+02  0.00000000000E+00 0.  1.
</event>
<event>
 4    1  0.2285999E+005  0.2191738E+02  0.7546771E-02  0.1506559E+00
          2   -1    0    0  502    0  0.00000000000E+00  0.00000000000E+00  0.39545827629E+03  0.39545827629E+03  0.00000000000E+00 0. -1.
         21   -1    0    0  503  502 -0.00000000000E+00 -0.00000000000E+00 -0.80259351391E+02  0.80259351391E+02  0.00000000000E+00 0.  1.
          2    1    1    2  501    0 -0.10433478937E+02  0.19274702602E+02  0.39365142270E+03  0.39426109906E+03  0.00000000000E+00 0. -1.
         21    1    1    2  503  501  0.10433478937E+02 -0.19274702602E+02 -0.78452497800E+02  0.81456528616E+02  0.00000000000E+00 0.  1.
</event>
<event>
 4    1  0.2285999E+005  0.2143698E+02  0.7546771E-02  0.1513117E+00
          2   -1    0    0  502    0  0.00000000000E+00  0.00000000000E+00  0.35922994605E+03  0.35922994605E+03  0.00000000000E+00 0. -1.
         21   -1    0    0  503  502 -0.00000000000E+00 -0.00000000000E+00 -0.46215410411E+01  0.46215410411E+01  0.00000000000E+00 0.  1.
          2    1    1    2  501    0 -0.10328359602E+02 -0.18784808410E+02  0.33201586080E+03  0.33270719238E+03  0.00000000000E+00 0. -1.
         21    1    1    2  503  501  0.10328359602E+02  0.18784808410E+02  0.22592544203E+02  0.31144294704E+02  0.00000000000E+00 0.  1.
</event>
<event>
 4    1  0.2285999E+005  0.2111401E+02  0.7546771E-02  0.1517643E+00
          2   -1    0    0  502    0  0.00000000000E+00  0.00000000000E+00  0.49695926199E+03  0.49695926199E+03  0.00000000000E+00 0. -1.
         21   -1    0    0  503  502 -0.00000000000E+00 -0.00000000000E+00 -0.70183147579E+02  0.70183147579E+02  0.00000000000E+00 0.  1.
          2    1    1    2  501    0 -0.14210650432E+02 -0.15615980789E+02  0.49514117599E+03  0.49559114763E+03  0.00000000000E+00 0. -1.
         21    1    1    2  503  501  0.14210650432E+02  0.15615980789E+02 -0.68365061578E+02  0.71551261947E+02  0.00000000000E+00 0.  1.
</event>
<event>
 4    1  0.2285999E+005  0.2465209E+02  0.7546771E-02  0.1472733E+00
          2   -1    0    0  502    0  0.00000000000E+00  0.00000000000E+00  0.26311222741E+02  0.26311222741E+02  0.00000000000E+00 0.  1.
         21   -1    0    0  503  502 -0.00000000000E+00 -0.00000000000E+00 -0.37792367761E+02  0.37792367761E+02  0.00000000000E+00 0.  1.
          2    1    1    2  501    0  0.19898895236E+02  0.14551959034E+02  0.14245708246E+02  0.28472192518E+02  0.00000000000E+00 0.  1.
         21    1    1    2  503  501 -0.19898895236E+02 -0.14551959034E+02 -0.25726853266E+02  0.35631397984E+02  0.00000000000E+00 0.  1.
</event>
<event>
 4    1  0.2285999E+005  0.2056183E+02  0.7546771E-02  0.1525614E+00
          2   -1    0    0  503    0  0.00000000000E+00  0.00000000000E+00  0.26968724117E+03  0.26968724117E+03  0.00000000000E+00 0.  1.
         21   -1    0    0  501  502 -0.00000000000E+00 -0.00000000000E+00 -0.66405585609E+01  0.66405585609E+01  0.00000000000E+00 0.  1.
          2    1    1    2  501    0  0.15692883924E+02  0.13286162573E+02  0.25228210254E+03  0.25311864408E+03  0.00000000000E+00 0.  1.
         21    1    1    2  503  502 -0.15692883924E+02 -0.13286162573E+02  0.10764580071E+02  0.23209155647E+02  0.00000000000E+00 0.  1.
</event>
<event>
 4    1  0.2285999E+005  0.2089433E+02  0.7546771E-02  0.1520779E+00
          2   -1    0    0  502    0  0.00000000000E+00  0.00000000000E+00  0.20466188368E+03  0.20466188368E+03  0.00000000000E+00 0.  1.
         21   -1    0    0  503  502 -0.00000000000E+00 -0.00000000000E+00 -0.45367680800E+02  0.45367680800E+02  0.00000000000E+00 0.  1.
          2    1    1    2  501    0 -0.17123376876E+02 -0.11973420006E+02  0.20168746580E+03  0.20276687768E+03  0.00000000000E+00 0.  1.
         21    1    1    2  503  501  0.17123376876E+02  0.11973420006E+02 -0.42393262923E+02  0.47262686799E+02  0.00000000000E+00 0.  1.
</event>
<event>
 4    1  0.2285999E+005  0.7169614E+02  0.7546771E-02  0.1224560E+00
          2   -1    0    0  502    0  0.00000000000E+00  0.00000000000E+00  0.46654008214E+02  0.46654008214E+02  0.00000000000E+00 0.  1.
         21   -1    0    0  503  502 -0.00000000000E+00 -0.00000000000E+00 -0.11171614012E+03  0.11171614012E+03  0.00000000000E+00 0.  1.
          2    1    1    2  501    0  0.71666719160E+02 -0.20539085221E+01 -0.23245568498E+02  0.75370376344E+02  0.00000000000E+00 0.  1.
         21    1    1    2  503  501 -0.71666719160E+02  0.20539085221E+01 -0.41816563411E+02  0.82999771993E+02  0.00000000000E+00 0.  1.
</event>
<event>
 4    1  0.2285999E+005  0.2045080E+02  0.7546771E-02  0.1527252E+00
          2   -1    0    0  503    0  0.00000000000E+00  0.00000000000E+00  0.42580715817E+03  0.42580715817E+03  0.00000000000E+00 0.  1.
         21   -1    0    0  501  502 -0.00000000000E+00 -0.00000000000E+00 -0.12417306988E+01  0.12417306988E+01  0.00000000000E+00 0.  1.
          2    1    1    2  501    0  0.21402816861E+01  0.20338495263E+02  0.30989707336E+03  0.31057113722E+03  0.00000000000E+00 0.  1.
         21    1    1    2  503  502 -0.21402816861E+01 -0.20338495263E+02  0.11466835411E+03  0.11647775165E+03  0.00000000000E+00 0.  1.
</event>
<event>
 4    1  0.2285999E+005  0.3037271E+02  0.7546771E-02  0.1416385E+00
          2   -1    0    0  503    0  0.00000000000E+00  0.00000000000E+00  0.64435622512E+03  0.64435622512E+03  0.00000000000E+00 0.  1.
         21   -1    0    0  501  502 -0.00000000000E+00 -0.00000000000E+00 -0.19881463204E+01  0.19881463204E+01  0.00000000000E+00 0. -1.
          2    1    1    2  501    0 -0.26857538345E+02  0.14183592434E+02  0.49216016016E+03  0.49309646612E+03  0.00000000000E+00 0.  1.
         21    1    1    2  503  502  0.26857538345E+02 -0.14183592434E+02  0.15020791865E+03  0.15324790532E+03  0.00000000000E+00 0. -1.
</event>
<event>
 4    1  0.2285999E+005  0.2523100E+02  0.7546771E-02  0.1466236E+00
          2   -1    0    0  502    0  0.00000000000E+00  0.00000000000E+00  0.14455724415E+02  0.14455724415E+02  0.00000000000E+00 0.  1.
         21   -1    0    0  503  502 -0.00000000000E+00 -0.00000000000E+00 -0.19268144911E+03  0.19268144911E+03  0.00000000000E+00 0.  1.
          2    1    1    2  501    0 -0.19144527256E+02  0.16434423487E+02  0.18534904358E+01  0.25298984683E+02  0.00000000000E+00 0.  1.
         21    1    1    2  503  501  0.19144527256E+02 -0.16434423487E+02 -0.18007921513E+03  0.18183818885E+03  0.00000000000E+00 0.  1.
</event>
<event>
 4    1  0.2285999E+005  0.2062227E+02  0.7546771E-02  0.1524727E+00
          2   -1    0    0  502    0  0.00000000000E+00  0.00000000000E+00  0.14349644522E+02  0.14349644522E+02  0.00000000000E+00 0. -1.
         21   -1    0    0  503  502 -0.00000000000E+00 -0.00000000000E+00 -0.62365172838E+03  0.62365172838E+03  0.00000000000E+00 0. -1.
          2    1    1    2  501    0 -0.14682294641E+02 -0.14481311577E+02  0.66776998887E+01  0.21676481188E+02  0.00000000000E+00 0. -1.
         21    1    1    2  503  501  0.14682294641E+02  0.14481311577E+02 -0.61597978375E+03  0.61632489172E+03  0.00000000000E+00 0. -1.
</event>
<event>
 4    1  0.2285999E+005  0.2012046E+02  0.7546771E-02  0.1532202E+00
          2   -1    0    0  502    0  0.00000000000E+00  0.00000000000E+00  0.74979492527E+03  0.74979492527E+03  0.00000000000E+00 0. -1.
         21   -1    0    0  503  502 -0.00000000000E+00 -0.00000000000E+00 -0.77178197232E+01  0.77178197232E+01  0.00000000000E+00 0.  1.
          2    1    1    2  501    0  0.18191115942E+02 -0.85974618861E+01  0.73630617263E+03  0.73658102942E+03  0.00000000000E+00 0. -1.
         21    1    1    2  503  501 -0.18191115942E+02  0.85974618861E+01  0.57709329176E+01  0.20931715573E+02  0.00000000000E+00 0.  1.
</event>
<event>
 4    1  0.2285999E+005  0.2887304E+02  0.7546771E-02  0.1429649E+00
          2   -1    0    0  503    0  0.00000000000E+00  0.00000000000E+00  0.14520131087E+02  0.14520131087E+02  0.00000000000E+00 0. -1.
         21   -1    0    0  501  502 -0.00000000000E+00 -0.00000000000E+00 -0.60641908374E+02  0.60641908374E+02  0.00000000000E+00 0.  1.
          2    1    1    2  501    0 -0.12158302012E+01 -0.28847429013E+02 -0.14389824669E+02  0.32260183783E+02  0.00000000000E+00 0. -1.
         21    1    1    2  503  502  0.12158302012E+01  0.28847429013E+02 -0.31731952618E+02  0.42901855678E+02  0.00000000000E+00 0.  1.
</event>
<event>
 4    1  0.2285999E+005  0.4831407E+02  0.7546771E-02  0.1305652E+00
          2   -1    0    0  503    0  0.00000000000E+00  0.00000000000E+00  0.47864234077E+03  0.47864234077E+03  0.00000000000E+00 0. -1.
         21   -1    0    0  501  502 -0.00000000000E+00 -0.00000000000E+00 -0.10060690113E+02  0.10060690113E+02  0.00000000000E+00 0.  1.
          2    1    1    2  501    0 -0.20099186749E+02 -0.43934861746E+02  0.40969037846E+03  0.41252933906E+03  0.00000000000E+00 0. -1.
         21    1    1    2  503  502  0.20099186749E+02  0.43934861746E+02  0.58891272198E+02  0.76173691821E+02  0.00000000000E+00 0.  1.
</event>
<event>
 4    1  0.2285999E+005  0.2083117E+02  0.7546771E-02  0.1521689E+00
          2   -1    0    0  502    0  0.00000000000E+00  0.00000000000E+00  0.97997883589E+03  0.97997883589E+03  0.00000000000E+00 0. -1.
         21   -1    0    0  503  502 -0.00000000000E+00 -0.00000000000E+00 -0.36280936368E+01  0.36280936368E+01  0.00000000000E+00 0. -1.
          2    1    1    2  501    0 -0.17363738165E+02  0.11508176710E+02  0.94899065543E+03  0.94921925899E+03  0.00000000000E+00 0. -1.
         21    1    1    2  503  501  0.17363738165E+02 -0.11508176710E+02  0.27360086816E+02  0.34387670535E+02  0.00000000000E+00 0. -1.
</event>
<event>
 4    1  0.2285999E+005  0.2268354E+02  0.7546771E-02  0.1496511E+00
          2   -1    0    0  502    0  0.00000000000E+00  0.00000000000E+00  0.30717671318E+03  0.30717671318E+03  0.00000000000E+00 0. -1.
         21   -1    0    0  503  502 -0.00000000000E+00 -0.00000000000E+00 -0.44713016814E+02  0.44713016814E+02  0.00000000000E+00 0. -1.
          2    1    1    2  501    0  0.81743035853E+01 -0.21159483251E+02  0.30384956753E+03  0.30469509786E+03  0.00000000000E+00 0. -1.
         21    1    1    2  503  501 -0.81743035853E+01  0.21159483251E+02 -0.41385871164E+02  0.47194632137E+02  0.00000000000E+00 0. -1.
</event>
<event>
 4    1  0.2285999E+005  0.3012020E+02  0.7546771E-02  0.1418555E+00
          2   -1    0    0  502    0  0.00000000000E+00  0.00000000000E+00  0.43521658495E+03  0.43521658495E+03  0.00000000000E+00 0.  1.
         21   -1    0    0  503  502 -0.00000000000E+00 -0.00000000000E+00 -0.16233265973E+02  0.16233265973E+02  0.00000000000E+00 0. -1.
          2    1    1    2  501    0  0.44383432639E+01  0.29791396005E+02  0.42022596549E+03  0.42130403302E+03  0.00000000000E+00 0.  1.
         21    1    1    2  503  501 -0.44383432639E+01 -0.29791396005E+02 -0.12426465104E+01  0.30145817906E+02  0.00000000000E+00 0. -1.
</event>
<event>
 4    1  0.2285999E+005  0.4876847E+02  0.7546771E-02  0.1303602E+00
          2   -1    0    0  502    0  0.00000000000E+00  0.00000000000E+00  0.64378672634E+03  0.64378672634E+03  0.00000000000E+00 0.  1.
         21   -1    0    0  503  502 -0.00000000000E+00 -0.00000000000E+00 -0.33583852587E+03  0.33583852587E+03  0.00000000000E+00 0. -1.
          2    1    1    2  501    0 -0.42562675047E+02 -0.23807193475E+02  0.64108522598E+03  0.64293750142E+03  0.00000000000E+00 0.  1.
         21    1    1    2  503  501  0.42562675047E+02  0.23807193475E+02 -0.33313702551E+03  0.33668775079E+03  0.00000000000E+00 0. -1.
</event>
<event>
 4    1  0.2285999E+005  0.3521403E+02  0.7546771E-02  0.1379065E+00
          2   -1    0    0  503    0  0.00000000000E+00  0.00000000000E+00  0.14604968012E+04  0.14604968012E+04  0.00000000000E+00 0.  1.
         21   -1    0    0  501  502 -0.00000000000E+00 -0.00000000000E+00 -0.10162981536E+01  0.10162981536E+01  0.00000000000E+00 0. -1.
          2    1    1    2  501    0 -0.15492988925E+02 -0.31622702394E+02  0.10261884778E+04  0.10267924912E+04  0.00000000000E+00 0.  1.
         21    1    1    2  503  502  0.15492988925E+02  0.31622702394E+02  0.43329202525E+03  0.43472060816E+03  0.00000000000E+00 0. -1.
</event>
<event>
 4    1  0.2285999E+005  0.3372727E+02  0.7546771E-02  0.1389739E+00
          2   -1    0    0  502    0  0.00000000000E+00  0.00000000000E+00  0.10391492802E+03  0.10391492802E+03  0.00000000000E+00 0.  1.
         21   -1    0    0  503  502 -0.00000000000E+00 -0.00000000000E+00 -0.24984847939E+03  0.24984847939E+03  0.00000000000E+00 0. -1.
          2    1    1    2  501    0  0.31497560852E+02 -0.12059521956E+02  0.99996628597E+02  0.10553129460E+03  0.00000000000E+00 0.  1.
         21    1    1    2  503  501 -0.31497560852E+02  0.12059521956E+02 -0.24593017997E+03  0.24823211281E+03  0.00000000000E+00 0. -1.
</event>
<event>
 4    1  0.2285999E+005  0.4237533E+02  0.7546771E-02  0.1335102E+00
          2   -1    0    0  502    0  0.00000000000E+00  0.00000000000E+00  0.17283974273E+04  0.17283974273E+04  0.00000000000E+00 0.  1.
         21   -1    0    0  503  502 -0.00000000000E+00 -0.00000000000E+00 -0.30723227209E+01  0.30723227209E+01  0.00000000000E+00 0. -1.
          2    1    1    2  501    0  0.73222808079E+00  0.42369005686E+02  0.15669712702E+04  0.15675441399E+04  0.00000000000E+00 0.  1.
         21    1    1    2  503  501 -0.73222808079E+00 -0.42369005686E+02  0.15835383431E+03  0.16392561008E+03  0.00000000000E+00 0. -1.
</event>
<event>
 4    1  0.2285999E+005  0.2424290E+02  0.7546771E-02  0.1477454E+00
          2   -1    0    0  502    0  0.00000000000E+00  0.00000000000E+00  0.88534541672E+02  0.88534541672E+02  0.00000000000E+00 0.  1.
         21   -1    0    0  503  502 -0.00000000000E+00 -0.00000000000E+00 -0.17357383608E+02  0.17357383608E+02  0.00000000000E+00 0.  1.
          2    1    1    2  501    0  0.23556686258E+02  0.57271774837E+01  0.77195898216E+02  0.80913068973E+02  0.00000000000E+00 0.  1.
         21    1    1    2  503  501 -0.23556686258E+02 -0.57271774837E+01 -0.60187401521E+01  0.24978856307E+02  0.00000000000E+00 0.  1.
</event>
<event>
 4    1  0.2285999E+005  0.4357390E+02  0.7546771E-02  0.1328726E+00
          2   -1    0    0  503    0  0.00000000000E+00  0.00000000000E+00  0.43361858125E+03  0.43361858125E+03  0.00000000000E+00 0. -1.
         21   -1    0    0  501  502 -0.00000000000E+00 -0.00000000000E+00 -0.80387487486E+02  0.80387487486E+02  0.00000000000E+00 0.  1.
          2    1    1    2  501    0  0.14995338841E+02 -0.40912404496E+02  0.42652111349E+03  0.42874111686E+03  0.00000000000E+00 0. -1.
         21    1    1    2  503  502 -0.14995338841E+02  0.40912404496E+02 -0.73290019724E+02  0.85264951884E+02  0.00000000000E+00 0.  1.
</event>
<event>
 4    1  0.2285999E+005  0.2339803E+02  0.7546771E-02  0.1487560E+00
          2   -1    0    0  502    0  0.00000000000E+00  0.00000000000E+00  0.43506569660E+02  0.43506569660E+02  0.00000000000E+00 0. -1.
         21   -1    0    0  503  502 -0.00000000000E+00 -0.00000000000E+00 -0.14203917466E+02  0.14203917466E+02  0.00000000000E+00 0.  1.
          2    1    1    2  501    0  0.15185643331E+02  0.17800675423E+02  0.24397299723E+02  0.33803787401E+02  0.00000000000E+00 0. -1.
         21    1    1    2  503  501 -0.15185643331E+02 -0.17800675423E+02  0.49053524706E+01  0.23906699725E+02  0.00000000000E+00 0.  1.
</event>
<event>
 4    1  0.2285999E+005  0.2129046E+02  0.7546771E-02  0.1515158E+00
          2   -1    0    0  503    0  0.00000000000E+00  0.00000000000E+00  0.31855966297E+03  0.31855966297E+03  0.00000000000E+00 0.  1.
         21   -1    0    0  501  502 -0.00000000000E+00 -0.00000000000E+00 -0.14316478215E+01  0.14316478215E+01  0.00000000000E+00 0.  1.
          2    1    1    2  501    0 -0.11354990658E+02 -0.18009665750E+02  0.14606934844E+03  0.14761279899E+03  0.00000000000E+00 0.  1.
         21    1    1    2  503  502  0.11354990658E+02  0.18009665750E+02  0.17105866671E+03  0.17237851180E+03  0.00000000000E+00 0.  1.
</event>
<event>
 4    1  0.2285999E+005  0.2001868E+02  0.7546771E-02  0.1533750E+00
          2   -1    0    0  503    0  0.00000000000E+00  0.00000000000E+00  0.40756482946E+03  0.40756482946E+03  0.00000000000E+00 0. -1.
         21   -1    0    0  501  502 -0.00000000000E+00 -0.00000000000E+00 -0.10607752030E+01  0.10607752030E+01  0.00000000000E+00 0.  1.
          2    1    1    2  501    0  0.19049572013E+02  0.61531447204E+01  0.25847778345E+03  0.25925183108E+03  0.00000000000E+00 0. -1.
         21    1    1    2  503  502 -0.19049572013E+02 -0.61531447204E+01  0.14802627081E+03  0.14937377358E+03  0.00000000000E+00 0.  1.
</event>
<event>
 4    1  0.2285999E+005  0.2623628E+02  0.7546771E-02  0.1455434E+00
          2   -1    0    0  503    0  0.00000000000E+00  0.00000000000E+00  0.29636498909E+02  0.29636498909E+02  0.00000000000E+00 0. -1.
         21   -1    0    0  501  502 -0.00000000000E+00 -0.00000000000E+00 -0.16208480341E+03  0.16208480341E+03  0.00000000000E+00 0.  1.
          2    1    1    2  501    0 -0.44530275610E+00  0.26232503302E+02  0.22502819696E+02  0.34564713485E+02  0.00000000000E+00 0. -1.
         21    1    1    2  503  502  0.44530275610E+00 -0.26232503302E+02 -0.15495112419E+03  0.15715658883E+03  0.00000000000E+00 0.  1.
</event>
<event>
 4    1  0.2285999E+005  0.2069822E+02  0.7546771E-02  0.1523617E+00
          2   -1    0    0  503    0  0.00000000000E+00  0.00000000000E+00  0.17934112223E+04  0.17934112223E+04  0.00000000000E+00 0. -1.
         21   -1    0    0  501  502 -0.00000000000E+00 -0.00000000000E+00 -0.24322383310E+00  0.24322383310E+00  0.00000000000E+00 0. -1.
          2    1    1    2  501    0 -0.81641625706E+01  0.19020057434E+02  0.77677947150E+03  0.77705518689E+03  0.00000000000E+00 0. -1.
         21    1    1    2  503  502  0.81641625706E+01 -0.19020057434E+02  0.10163885270E+04  0.10165992593E+04  0.00000000000E+00 0. -1.
</event>
<event>
 4    1  0.2285999E+005  0.2434308E+02  0.7546771E-02  0.1476288E+00
          2   -1    0    0  502    0  0.00000000000E+00  0.00000000000E+00  0.87807125122E+03  0.87807125122E+03  0.00000000000E+00 0.  1.
         21   -1    0    0  503  502 -0.00000000000E+00 -0.00000000000E+00 -0.24736685467E+01  0.24736685467E+01  0.00000000000E+00 0.  1.
          2    1    1    2  501    0 -0.14407197615E+02 -0.19621884524E+02  0.81323987096E+03  0.81360412573E+03  0.00000000000E+00 0.  1.
         21    1    1    2  503  501  0.14407197615E+02  0.19621884524E+02  0.62357711713E+02  0.66940794031E+02  0.00000000000E+00 0.  1.
</event>
<event>
 4    1  0.2285999E+005  0.2170246E+02  0.7546771E-02  0.1509467E+00
          2   -1    0    0  503    0  0.00000000000E+00  0.00000000000E+00  0.12765021703E+02  0.12765021703E+02  0.00000000000E+00 0.  1.
         21   -1    0    0  501  502 -0.00000000000E+00 -0.00000000000E+00 -0.51269348852E+02  0.51269348852E+02  0.00000000000E+00 0.  1.
          2    1    1    2  501    0 -0.14023782316E+02  0.16562924925E+02 -0.23005484015E+01  0.21824057264E+02  0.00000000000E+00 0.  1.
         21    1    1    2  503  502  0.14023782316E+02 -0.16562924925E+02 -0.36203778748E+02  0.42210313291E+02  0.00000000000E+00 0.  1.
</event>
<event>
 4    1  0.2285999E+005  0.2073351E+02  0.7546771E-02  0.1523104E+00
          2   -1    0    0  503    0  0.00000000000E+00  0.00000000000E+00  0.88293299352E+02  0.88293299352E+02  0.00000000000E+00 0. -1.
         21   -1    0    0  501  502 -0.00000000000E+00 -0.00000000000E+00 -0.99970634570E+01  0.99970634570E+01  0.00000000000E+00 0. -1.
          2    1    1    2  501    0 -0.19473453789E+02  0.71178010087E+01  0.74347234480E+02  0.77184128994E+02  0.00000000000E+00 0. -1.
         21    1    1    2  503  502  0.19473453789E+02 -0.71178010087E+01  0.39490014142E+01  0.21106233815E+02  0.00000000000E+00 0. -1.
</event>
<event>
 4    1  0.2285999E+005  0.3115277E+02  0.7546771E-02  0.1409836E+00
          2   -1    0    0  503    0  0.00000000000E+00  0.00000000000E+00  0.46148862955E+02  0.46148862955E+02  0.00000000000E+00 0. -1.
         21   -1    0    0  501  502 -0.00000000000E+00 -0.00000000000E+00 -0.22843970386E+02  0.22843970386E+02  0.00000000000E+00 0. -1.
          2    1    1    2  501    0 -0.89279746483E+01 -0.29846041227E+02  0.21374185246E+02  0.37780295171E+02  0.00000000000E+00 0. -1.
         21    1    1    2  503  502  0.89279746483E+01  0.29846041227E+02  0.19307073236E+01  0.31212538170E+02  0.00000000000E+00 0. -1.
</event>
<event>
 4    1  0.2285999E+005  0.6642684E+02  0.7546771E-02  0.1239432E+00
          2   -1    0    0  502    0  0.00000000000E+00  0.00000000000E+00  0.20537459522E+03  0.20537459522E+03  0.00000000000E+00 0.  1.
         21   -1    0    0  503  502 -0.00000000000E+00 -0.00000000000E+00 -0.95469102976E+02  0.95469102976E+02  0.00000000000E+00 0. -1.
          2    1    1    2  501    0  0.32274156704E+02  0.58059487151E+02  0.18737103278E+03  0.19879745764E+03  0.00000000000E+00 0.  1.
         21    1    1    2  503  501 -0.32274156704E+02 -0.58059487151E+02 -0.77465540541E+02  0.10204624055E+03  0.00000000000E+00 0. -1.
</event>
<event>
 4    1  0.2285999E+005  0.2632734E+02  0.7546771E-02  0.1454485E+00
          2   -1    0    0  503    0  0.00000000000E+00  0.00000000000E+00  0.27053936391E+01  0.27053936391E+01  0.00000000000E+00 0. -1.
         21   -1    0    0  501  502 -0.00000000000E+00 -0.00000000000E+00 -0.25653414584E+03  0.25653414584E+03  0.00000000000E+00 0. -1.
          2    1    1    2  501    0  0.25705671991E+02 -0.56874632883E+01 -0.12225435196E+03  0.12505700853E+03  0.00000000000E+00 0. -1.
         21    1    1    2  503  502 -0.25705671991E+02  0.56874632883E+01 -0.13157440025E+03  0.13418253095E+03  0.00000000000E+00 0. -1.
</event>
<event>
 4    1  0.2285999E+005  0.2401604E+02  0.7546771E-02  0.1480119E+00
          2   -1    0    0  502    0  0.00000000000E+00  0.00000000000E+00  0.45450184758E+02  0.45450184758E+02  0.00000000000E+00 0. -1.
         21   -1    0    0  503  502 -0.00000000000E+00 -0.00000000000E+00 -0.27681753572E+02  0.27681753572E+02  0.00000000000E+00 0. -1.
          2    1    1    2  501    0  0.23667135530E+02 -0.40788612076E+01  0.35793620593E+02  0.43103986916E+02  0.00000000000E+00 0. -1.
         21    1    1    2  503  501 -0.23667135530E+02  0.40788612076E+01 -0.18025189407E+02  0.30027951414E+02  0.00000000000E+00 0. -1.
</event>
<event>
 4    1  0.2285999E+005  0.2254540E+02  0.7546771E-02  0.1498287E+00
          2   -1    0    0  503    0  0.00000000000E+00  0.00000000000E+00  0.79953862305E+01  0.79953862305E+01  0.00000000000E+00 0.  1.
         21   -1    0    0  501  502 -0.00000000000E+00 -0.00000000000E+00 -0.11107391850E+04  0.11107391850E+04  0.00000000000E+00 0.  1.
          2    1    1    2  501    0  0.16640319479E+02 -0.15211673788E+02 -0.82482635022E+01  0.24006855325E+02  0.00000000000E+00 0.  1.
         21    1    1    2  503  502 -0.16640319479E+02  0.15211673788E+02 -0.10944955353E+04  0.10947277159E+04  0.00000000000E+00 0.  1.
</event>
<event>
 4    1  0.2285999E+005  0.2722528E+02  0.7546771E-02  0.1445358E+00
          2   -1    0    0  503    0  0.00000000000E+00  0.00000000000E+00  0.41633119264E+01  0.41633119264E+01  0.00000000000E+00 0. -1.
         21   -1    0    0  501  502 -0.00000000000E+00 -0.00000000000E+00 -0.40127210301E+03  0.40127210301E+03  0.00000000000E+00 0. -1.
          2    1    1    2  501    0 -0.21290499461E+02 -0.16968509695E+02 -0.47353178802E+02  0.54621783486E+02  0.00000000000E+00 0. -1.
         21    1    1    2  503  502  0.21290499461E+02  0.16968509695E+02 -0.34975561228E+03  0.35081363145E+03  0.00000000000E+00 0. -1.
</event>
<event>
 4    1  0.2285999E+005  0.5189797E+02  0.7546771E-02  0.1290147E+00
          2   -1    0    0  503    0  0.00000000000E+00  0.00000000000E+00  0.93172919365E+03  0.93172919365E+03  0.00000000000E+00 0.  1.
         21   -1    0    0  501  502 -0.00000000000E+00 -0.00000000000E+00 -0.15604386871E+02  0.15604386871E+02  0.00000000000E+00 0.  1.
          2    1    1    2  501    0 -0.27081590829E+02 -0.44271739225E+02  0.88560995443E+03  0.88712929770E+03  0.00000000000E+00 0.  1.
         21    1    1    2  503  502  0.27081590829E+02  0.44271739225E+02  0.30514852350E+02  0.60204282819E+02  0.00000000000E+00 0.  1.
</event>
<event>
 4    1  0.2285999E+005  0.3121437E+02  0.7546771E-02  0.1409329E+00
          2   -1    0    0  503    0  0.00000000000E+00  0.00000000000E+00  0.67394860416E+02  0.67394860416E+02  0.00000000000E+00 0. -1.
         21   -1    0    0  501  502 -0.00000000000E+00 -0.00000000000E+00 -0.52787844789E+02  0.52787844789E+02  0.00000000000E+00 0. -1.
          2    1    1    2  501    0 -0.30248936387E+02  0.77031666598E+01  0.58509220703E+02  0.66314899053E+02  0.00000000000E+00 0. -1.
         21    1    1    2  503  502  0.30248936387E+02 -0.77031666598E+01 -0.43902205076E+02  0.53867806152E+02  0.00000000000E+00 0. -1.
</event>
<event>
 4    1  0.2285999E+005  0.2400220E+02  0.7546771E-02  0.1480283E+00
          2   -1    0    0  503    0  0.00000000000E+00  0.00000000000E+00  0.83922722460E+02  0.83922722460E+02  0.00000000000E+00 0.  1.
         21   -1    0    0  501  502 -0.00000000000E+00 -0.00000000000E+00 -0.27980340210E+02  0.27980340210E+02  0.00000000000E+00 0. -1.
          2    1    1    2  501    0 -0.42478983599E+00  0.23998444337E+02  0.76576916542E+02  0.80250420087E+02  0.00000000000E+00 0.  1.
         21    1    1    2  503  502  0.42478983599E+00 -0.23998444337E+02 -0.20634534292E+02  0.31652642583E+02  0.00000000000E+00 0. -1.
</event>
<event>
 4    1  0.2285999E+005  0.2470424E+02  0.7546771E-02  0.1472139E+00
          2   -1    0    0  502    0  0.00000000000E+00  0.00000000000E+00  0.93069250967E+03  0.93069250967E+03  0.00000000000E+00 0.  1.
         21   -1    0    0  503  502 -0.00000000000E+00 -0.00000000000E+00 -0.10330785253E+01  0.10330785253E+01  0.00000000000E+00 0.  1.
          2    1    1    2  501    0  0.54364342175E+01 -0.24098645075E+02  0.74637773648E+03  0.74678646548E+03  0.00000000000E+00 0.  1.
         21    1    1    2  503  501 -0.54364342175E+01  0.24098645075E+02  0.18328169467E+03  0.18493912272E+03  0.00000000000E+00 0.  1.
</event>
<event>
 4    1  0.2285999E+005  0.3031117E+02  0.7546771E-02  0.1416911E+00
          2   -1    0    0  503    0  0.00000000000E+00  0.00000000000E+00  0.80121794855E+03  0.80121794855E+03  0.00000000000E+00 0. -1.
         21   -1    0    0  501  502 -0.00000000000E+00 -0.00000000000E+00 -0.14662988208E+01  0.14662988208E+01  0.00000000000E+00 0. -1.
          2    1    1    2  501    0 -0.30229197767E+02 -0.22277034455E+01  0.58724460685E+03  0.58802635598E+03  0.00000000000E+00 0. -1.
         21    1    1    2  503  502  0.30229197767E+02  0.22277034455E+01  0.21250704288E+03  0.21465789139E+03  0.00000000000E+00 0. -1.
</event>
<event>
 4    1  0.2285999E+005  0.2075673E+02  0.7546771E-02  0.1522767E+00
          2   -1    0    0  502    0  0.00000000000E+00  0.00000000000E+00  0.49314086097E+03  0.49314086097E+03  0.00000000000E+00 0.  1.
         21   -1    0    0  503  502 -0.00000000000E+00 -0.00000000000E+00 -0.87393484376E+00  0.87393484376E+00  0.00000000000E+00 0.  1.
          2    1    1    2  501    0  0.20714509118E+02 -0.13231735150E+01  0.24182198865E+03  0.24271117789E+03  0.00000000000E+00 0.  1.
         21    1    1    2  503  501 -0.20714509118E+02  0.13231735150E+01  0.25044493748E+03  0.25130361793E+03  0.00000000000E+00 0.  1.
</event>
<event>
 4    1  0.2285999E+005  0.2477950E+02  0.7546771E-02  0.1471285E+00
          2   -1    0    0  502    0  0.00000000000E+00  0.00000000000E+00  0.55858717167E+03  0.55858717167E+03  0.00000000000E+00 0.  1.
         21   -1    0    0  503  502 -0.00000000000E+00 -0.00000000000E+00 -0.11002771412E+01  0.11002771412E+01  0.00000000000E+00 0.  1.
          2    1    1    2  501    0 -0.21628214876E+02  0.12093128992E+02  0.28731975941E+03  0.28838631658E+03  0.00000000000E+00 0.  1.
         21    1    1    2  503  501  0.21628214876E+02 -0.12093128992E+02  0.27016713512E+03  0.27130113223E+03  0.00000000000E+00 0.  1.
</event>
<event>
 4    1  0.2285999E+005  0.2025753E+02  0.7546771E-02  0.1530135E+00
          2   -1    0    0  503    0  0.00000000000E+00  0.00000000000E+00  0.59060312760E+03  0.59060312760E+03  0.00000000000E+00 0.  1.
         21   -1    0    0  501  502 -0.00000000000E+00 -0.00000000000E+00 -0.73209177132E+00  0.73209177132E+00  0.00000000000E+00 0. -1.
          2    1    1    2  501    0 -0.19669114547E+02  0.48470157641E+01  0.36164138082E+03  0.36220830464E+03  0.00000000000E+00 0.  1.
         21    1    1    2  503  502  0.19669114547E+02 -0.48470157641E+01  0.22822965501E+03  0.22912691473E+03  0.00000000000E+00 0. -1.
</event>
<event>
 4    1  0.2285999E+005  0.2900751E+02  0.7546771E-02  0.1428422E+00
          2   -1    0    0  503    0  0.00000000000E+00  0.00000000000E+00  0.23267651433E+03  0.23267651433E+03  0.00000000000E+00 0. -1.
         21   -1    0    0  501  502 -0.00000000000E+00 -0.00000000000E+00 -0.36371854147E+01  0.36371854147E+01  0.00000000000E+00 0. -1.
          2    1    1    2  501    0 -0.10054644576E+02 -0.27209189163E+02  0.10557322781E+03  0.10948580859E+03  0.00000000000E+00 0. -1.
         21    1    1    2  503  502  0.10054644576E+02  0.27209189163E+02  0.12346610111E+03  0.12682789116E+03  0.00000000000E+00 0. -1.
</event>
<event>
 4    1  0.2285999E+005  0.3050343E+02  0.7546771E-02  0.1415271E+00
          2   -1    0    0  502    0  0.00000000000E+00  0.00000000000E+00  0.14737988010E+04  0.14737988010E+04  0.00000000000E+00 0.  1.
         21   -1    0    0  503  502 -0.00000000000E+00 -0.00000000000E+00 -0.18428554282E+01  0.18428554282E+01  0.00000000000E+00 0.  1.
          2    1    1    2  501    0 -0.28883806662E+02 -0.98073843943E+01  0.13342116450E+04  0.13345602919E+04  0.00000000000E+00 0.  1.
         21    1    1    2  503  501  0.28883806662E+02  0.98073843943E+01  0.13774430060E+03  0.14108136455E+03  0.00000000000E+00 0.  1.
</event>
<event>
 4    1  0.2285999E+005  0.2367849E+02  0.7546771E-02  0.1484150E+00
          2   -1    0    0  502    0  0.00000000000E+00  0.00000000000E+00  0.66439629207E+03  0.66439629207E+03  0.00000000000E+00 0. -1.
         21   -1    0    0  503  502 -0.00000000000E+00 -0.00000000000E+00 -0.48388669190E+02  0.48388669190E+02  0.00000000000E+00 0.  1.
          2    1    1    2  501    0 -0.20721442955E+02 -0.11458309156E+02  0.66127494705E+03  0.66169874312E+03  0.00000000000E+00 0. -1.
         21    1    1    2  503  501  0.20721442955E+02  0.11458309156E+02 -0.45267324169E+02  0.51086218144E+02  0.00000000000E+00 0.  1.
</event>
<event>
 4    1  0.2285999E+005  0.2070262E+02  0.7546771E-02  0.1523553E+00
          2   -1    0    0  502    0  0.00000000000E+00  0.00000000000E+00  0.76366405111E+03  0.76366405111E+03  0.00000000000E+00 0. -1.
         21   -1    0    0  503  502 -0.00000000000E+00 -0.00000000000E+00 -0.21793382945E+02  0.21793382945E+02  0.00000000000E+00 0.  1.
          2    1    1    2  501    0 -0.81769469449E+01  0.19019361685E+02  0.75857414396E+03  0.75885659414E+03  0.00000000000E+00 0. -1.
         21    1    1    2  503  501  0.81769469449E+01 -0.19019361685E+02 -0.16703475801E+02  0.26600839913E+02  0.00000000000E+00 0.  1.
</event>
<event>
 4    1  0.2285999E+005  0.7433969E+02  0.7546771E-02  0.1217635E+00
          2   -1    0    0  502    0  0.00000000000E+00  0.00000000000E+00  0.46582389316E+03  0.46582389316E+03  0.00000000000E+00 0. -1.
         21   -1    0    0  503  502 -0.00000000000E+00 -0.00000000000E+00 -0.12104691012E+02  0.12104691012E+02  0.00000000000E+00 0. -1.
          2    1    1    2  501    0  0.52804262939E+01  0.74151911640E+02  0.26057809923E+03  0.27097478610E+03  0.00000000000E+00 0. -1.
         21    1    1    2  503  501 -0.52804262939E+01 -0.74151911640E+02  0.19314110292E+03  0.20695379808E+03  0.00000000000E+00 0. -1.
</event>
<event>
 4    1  0.2285999E+005  0.3611058E+02  0.7546771E-02  0.1372919E+00
          2   -1    0    0  502    0  0.00000000000E+00  0.00000000000E+00  0.44127161057E+02  0.44127161057E+02  0.00000000000E+00 0. -1.
         21   -1    0    0  503  502 -0.00000000000E+00 -0.00000000000E+00 -0.52330728006E+02  0.52330728006E+02  0.00000000000E+00 0.  1.
          2    1    1    2  501    0 -0.35043210724E+02 -0.87147780289E+01  0.27718909539E+02  0.45522652822E+02  0.00000000000E+00 0. -1.
         21    1    1    2  503  501  0.35043210724E+02  0.87147780289E+01 -0.35922476488E+02  0.50935236241E+02  0.00000000000E+00 0.  1.
</event>
<event>
 4    1  0.2285999E+005  0.2254615E+02  0.7546771E-02  0.1498277E+00
          2   -1    0    0  502    0  0.00000000000E+00  0.00000000000E+00  0.40762927339E+02  0.40762927339E+02  0.00000000000E+00 0.  1.
         21   -1    0    0  503  502 -0.00000000000E+00 -0.00000000000E+00 -0.58847292502E+02  0.58847292502E+02  0.00000000000E+00 0. -1.
          2    1    1    2  501    0  0.22432895782E+02 -0.22569547352E+01  0.35172003800E+02  0.41777966791E+02  0.00000000000E+00 0.  1.
         21    1    1    2  503  501 -0.22432895782E+02  0.22569547352E+01 -0.53256368963E+02  0.57832253051E+02  0.00000000000E+00 0. -1.
</event>
<event>
 4    1  0.2285999E+005  0.3191984E+02  0.7546771E-02  0.1403615E+00
          2   -1    0    0  502    0  0.00000000000E+00  0.00000000000E+00  0.54706597473E+02  0.54706597473E+02  0.00000000000E+00 0. -1.
         21   -1    0    0  503  502 -0.00000000000E+00 -0.00000000000E+00 -0.11735605655E+03  0.11735605655E+03  0.00000000000E+00 0. -1.
          2    1    1    2  501    0 -0.31919605142E+02  0.12260655692E+00  0.47585286801E+02  0.57299526567E+02  0.00000000000E+00 0. -1.
         21    1    1    2  503  501  0.31919605142E+02 -0.12260655692E+00 -0.11023474588E+03  0.11476312746E+03  0.00000000000E+00 0. -1.
</event>
<event>
 4    1  0.2285999E+005  0.2195513E+02  0.7546771E-02  0.1506053E+00
          2   -1    0    0  503    0  0.00000000000E+00  0.00000000000E+00  0.38031840295E+03  0.38031840295E+03  0.00000000000E+00 0. -1.
         21   -1    0    0  501  502 -0.00000000000E+00 -0.00000000000E+00 -0.16818875446E+01  0.16818875446E+01  0.00000000000E+00 0. -1.
          2    1    1    2  501    0  0.13183457134E+02 -0.17556309808E+02  0.28413268258E+03  0.28497966395E+03  0.00000000000E+00 0. -1.
         21    1    1    2  503  502 -0.13183457134E+02  0.17556309808E+02  0.94503832833E+02  0.97020626550E+02  0.00000000000E+00 0. -1.
</event>
<event>
 4    1  0.2285999E+005  0.2059963E+02  0.7546771E-02  0.1525059E+00
          2   -1    0    0  503    0  0.00000000000E+00  0.00000000000E+00  0.90447294832E+03  0.90447294832E+03  0.00000000000E+00 0. -1.
         21   -1    0    0  501  502 -0.00000000000E+00 -0.00000000000E+00 -0.77315529300E+00  0.77315529300E+00  0.00000000000E+00 0. -1.
          2    1    1    2  501    0 -0.70245862563E+01  0.19364915638E+02  0.73566464591E+03  0.73595299851E+03  0.00000000000E+00 0. -1.
         21    1    1    2  503  502  0.70245862563E+01 -0.19364915638E+02  0.16803514712E+03  0.16929310510E+03  0.00000000000E+00 0. -1.
</event>
<event>
 4    1  0.2285999E+005  0.2076286E+02  0.7546771E-02  0.1522678E+00
          2   -1    0    0  503    0  0.00000000000E+00  0.00000000000E+00  0.62306408677E+03  0.62306408677E+03  0.00000000000E+00 0. -1.
         21   -1    0    0  501  502 -0.00000000000E+00 -0.00000000000E+00 -0.23696009213E+01  0.23696009213E+01  0.00000000000E+00 0. -1.
          2    1    1    2  501    0  0.20496921107E+02 -0.33125005644E+01  0.57347779354E+03  0.57385353194E+03  0.00000000000E+00 0. -1.
         21    1    1    2  503  502 -0.20496921107E+02  0.33125005644E+01  0.47216692304E+02  0.51580155748E+02  0.00000000000E+00 0. -1.
</event>
<event>
 4    1  0.2285999E+005  0.2279259E+02  0.7546771E-02  0.1495119E+00
          2   -1    0    0  502    0  0.00000000000E+00  0.00000000000E+00  0.44723206237E+03  0.44723206237E+03  0.00000000000E+00 0. -1.
         21   -1    0    0  503  502 -0.00000000000E+00 -0.00000000000E+00 -0.95670523076E+01  0.95670523076E+01  0.00000000000E+00 0.  1.
          2    1    1    2  501    0 -0.15228766408E+02 -0.16958391923E+02  0.43291781365E+03  0.43351739961E+03  0.00000000000E+00 0. -1.
         21    1    1    2  503  501  0.15228766408E+02  0.16958391923E+02  0.47471964094E+01  0.23281715072E+02  0.00000000000E+00 0.  1.
</event>
<event>
 4    1  0.2285999E+005  0.3185525E+02  0.7546771E-02  0.1404131E+00
          2   -1    0    0  503    0  0.00000000000E+00  0.00000000000E+00  0.38932048142E+03  0.38932048142E+03  0.00000000000E+00 0. -1.
         21   -1    0    0  501  502 -0.00000000000E+00 -0.00000000000E+00 -0.28224331047E+01  0.28224331047E+01  0.00000000000E+00 0. -1.
          2    1    1    2  501    0 -0.57560656953E+01 -0.31330887061E+02  0.13901393056E+03  0.14261707354E+03  0.00000000000E+00 0. -1.
         21    1    1    2  503  502  0.57560656953E+01  0.31330887061E+02  0.24748411775E+03  0.24952584098E+03  0.00000000000E+00 0. -1.
</event>
<event>
 4    1  0.2285999E+005  0.2125718E+02  0.7546771E-02  0.1515625E+00
          2   -1    0    0  502    0  0.00000000000E+00  0.00000000000E+00  0.64391720643E+01  0.64391720643E+01  0.00000000000E+00 0. -1.
         21   -1    0    0  503  502 -0.00000000000E+00 -0.00000000000E+00 -0.10866731146E+03  0.10866731146E+03  0.00000000000E+00 0.  1.
          2    1    1    2  501    0 -0.16704840674E+02  0.13145942096E+02 -0.16860285646E+02  0.27131839739E+02  0.00000000000E+00 0. -1.
         21    1    1    2  503  501  0.16704840674E+02 -0.13145942096E+02 -0.85367853752E+02  0.87974643789E+02  0.00000000000E+00 0.  1.
</event>
<event>
 4    1  0.2285999E+005  0.3090135E+02  0.7546771E-02  0.1411922E+00
          2   -1    0    0  503    0  0.00000000000E+00  0.00000000000E+00  0.96522099530E+03  0.96522099530E+03  0.00000000000E+00 0. -1.
         21   -1    0    0  501  502 -0.00000000000E+00 -0.00000000000E+00 -0.14597554003E+01  0.14597554003E+01  0.00000000000E+00 0. -1.
          2    1    1    2  501    0  0.11827126788E+02 -0.28548419404E+02  0.75627311951E+03  0.75690417126E+03  0.00000000000E+00 0. -1.
         21    1    1    2  503  502 -0.11827126788E+02  0.28548419404E+02  0.20748812039E+03  0.20977657944E+03  0.00000000000E+00 0. -1.
</event>
<event>
 4    1  0.2285999E+005  0.2184871E+02  0.7546771E-02  0.1507484E+00
          2   -1    0    0  503    0  0.00000000000E+00  0.00000000000E+00  0.83135225408E+03  0.83135225408E+03  0.00000000000E+00 0. -1.
         21   -1    0    0  501  502 -0.00000000000E+00 -0.00000000000E+00 -0.17330877994E+01  0.17330877994E+01  0.00000000000E+00 0. -1.
          2    1    1    2  501    0  0.50885351830E+00 -0.21842779014E+02  0.75542878731E+03  0.75574467820E+03  0.00000000000E+00 0. -1.
         21    1    1    2  503  502 -0.50885351830E+00  0.21842779014E+02  0.74190378966E+02  0.77340663677E+02  0.00000000000E+00 0. -1.
</event>
<event>
 4    1  0.2285999E+005  0.4116121E+02  0.7546771E-02  0.1341812E+00
          2   -1    0    0  503    0  0.00000000000E+00  0.00000000000E+00  0.32605572418E+03  0.32605572418E+03  0.00000000000E+00 0. -1.
         21   -1    0    0  501  502 -0.00000000000E+00 -0.00000000000E+00 -0.15836645475E+02  0.15836645475E+02  0.00000000000E+00 0.  1.
          2    1    1    2  501    0 -0.27462633932E+02  0.30660215760E+02  0.29523210318E+03  0.29808763786E+03  0.00000000000E+00 0. -1.
         21    1    1    2  503  502  0.27462633932E+02 -0.30660215760E+02  0.14986975526E+02  0.43804731803E+02  0.00000000000E+00 0.  1.
</event>
<event>
 4    1  0.2285999E+005  0.2183272E+02  0.7546771E-02  0.1507700E+00
          2   -1    0    0  502    0  0.00000000000E+00  0.00000000000E+00  0.13752801286E+03  0.13752801286E+03  0.00000000000E+00 0.  1.
         21   -1    0    0  503  502 -0.00000000000E+00 -0.00000000000E+00 -0.21061692467E+02  0.21061692467E+02  0.00000000000E+00 0. -1.
          2    1    1    2  501    0 -0.20295800366E+02  0.80466181416E+01  0.13071045076E+03  0.13252127948E+03  0.00000000000E+00 0.  1.
         21    1    1    2  503  501  0.20295800366E+02 -0.80466181416E+01 -0.14244130373E+02  0.26068425846E+02  0.00000000000E+00 0. -1.
</event>
<event>
 4    1  0.2285999E+005  0.3091639E+02  0.7546771E-02  0.1411796E+00
          2   -1    0    0  503    0  0.00000000000E+00  0.00000000000E+00  0.63200674725E+03  0.63200674725E+03  0.00000000000E+00 0.  1.
         21   -1    0    0  501  502 -0.00000000000E+00 -0.00000000000E+00 -0.90139805537E+01  0.90139805537E+01  0.00000000000E+00 0. -1.
          2    1    1    2  501    0 -0.20498792910E+02 -0.23143520444E+02  0.60388553462E+03  0.60467641096E+03  0.00000000000E+00 0.  1.
         21    1    1    2  503  502  0.20498792910E+02  0.23143520444E+02  0.19107232081E+02  0.36344316847E+02  0.00000000000E+00 0. -1.
</event>
<event>
 4    1  0.2285999E+005  0.2212258E+02  0.7546771E-02  0.1503820E+00
          2   -1    0    0  503    0  0.00000000000E+00  0.00000000000E+00  0.15686612585E+04  0.15686612585E+04  0.00000000000E+00 0.  1.
         21   -1    0    0  501  502 -0.00000000000E+00 -0.00000000000E+00 -0.51874607371E+02  0.51874607371E+02  0.00000000000E+00 0. -1.
          2    1    1    2  501    0  0.84670514118E+01 -0.20438140365E+02  0.15662209727E+04  0.15663772036E+04  0.00000000000E+00 0.  1.
         21    1    1    2  503  502 -0.84670514118E+01  0.20438140365E+02 -0.49434321628E+02  0.54158662243E+02  0.00000000000E+00 0. -1.
</event>
<event>
 4    1  0.2285999E+005  0.3106118E+02  0.7546771E-02  0.1410593E+00
          2   -1    0    0  502    0  0.00000000000E+00  0.00000000000E+00  0.40065672018E+03  0.40065672018E+03  0.00000000000E+00 0.  1.
         21   -1    0    0  503  502 -0.00000000000E+00 -0.00000000000E+00 -0.59038681209E+01  0.59038681209E+01  0.00000000000E+00 0. -1.
          2    1    1    2  501    0  0.83323000511E+01 -0.29922730170E+02  0.35379994615E+03  0.35516080710E+03  0.00000000000E+00 0.  1.
         21    1    1    2  503  501 -0.83323000511E+01  0.29922730170E+02  0.40952905909E+02  0.51399781200E+02  0.00000000000E+00 0. -1.
</event>
<event>
 4    1  0.2285999E+005  0.2258096E+02  0.7546771E-02  0.1497828E+00
          2   -1    0    0  503    0  0.00000000000E+00  0.00000000000E+00  0.66076104013E+03  0.66076104013E+03  0.00000000000E+00 0.  1.
         21   -1    0    0  501  502 -0.00000000000E+00 -0.00000000000E+00 -0.77206023564E+00  0.77206023564E+00  0.00000000000E+00 0.  1.
          2    1    1    2  501    0  0.20132873160E+02  0.10225814510E+02  0.32270954083E+03  0.32349860526E+03  0.00000000000E+00 0.  1.
         21    1    1    2  503  502 -0.20132873160E+02 -0.10225814510E+02  0.33727943906E+03  0.33803449510E+03  0.00000000000E+00 0.  1.
</event>
<event>
 4    1  0.2285999E+005  0.2000466E+02  0.7546771E-02  0.1533964E+00
          2   -1    0    0  503    0  0.00000000000E+00  0.00000000000E+00  0.12266328139E+04  0.12266328139E+04  0.00000000000E+00 0.  1.
         21   -1    0    0  501  502 -0.00000000000E+00 -0.00000000000E+00 -0.33003484133E+00  0.33003484133E+00  0.00000000000E+00 0.  1.
          2    1    1    2  501    0  0.77534862695E+01 -0.18440979588E+02  0.67886730832E+03  0.67916198994E+03  0.00000000000E+00 0.  1.
         21    1    1    2  503  502 -0.77534862695E+01  0.18440979588E+02  0.54743547074E+03  0.54780085880E+03  0.00000000000E+00 0.  1.
</event>
<event>
 4    1  0.2285999E+005  0.2011600E+02  0.7546771E-02  0.1532270E+00
          2   -1    0    0  502    0  0.00000000000E+00  0.00000000000E+00  0.19752061071E+03  0.19752061071E+03  0.00000000000E+00 0. -1.
         21   -1    0    0  503  502 -0.00000000000E+00 -0.00000000000E+00 -0.72620933595E+01  0.72620933595E+01  0.00000000000E+00 0.  1.
          2    1    1    2  501    0  0.11993921371E+02  0.16149280347E+02  0.18188417631E+03  0.18299318840E+03  0.00000000000E+00 0. -1.
         21    1    1    2  503  501 -0.11993921371E+02 -0.16149280347E+02  0.83743410385E+01  0.21789515676E+02  0.00000000000E+00 0.  1.
</event>
<event>
 4    1  0.2285999E+005  0.6292317E+02  0.7546771E-02  0.1250211E+00
          2   -1    0    0  503    0  0.00000000000E+00  0.00000000000E+00  0.78597310501E+03  0.78597310501E+03  0.00000000000E+00 0. -1.
         21   -1    0    0  501  502 -0.00000000000E+00 -0.00000000000E+00 -0.87880951133E+01  0.87880951133E+01  0.00000000000E+00 0. -1.
          2    1    1    2  501    0  0.32149830380E+01 -0.62840979055E+02  0.64819595829E+03  0.65124290791E+03  0.00000000000E+00 0. -1.
         21    1    1    2  503  502 -0.32149830380E+01  0.62840979055E+02  0.12898905161E+03  0.14351829222E+03  0.00000000000E+00 0. -1.
</event>
<event>
 4    1  0.2285999E+005  0.2092420E+02  0.7546771E-02  0.1520350E+00
          2   -1    0    0  503    0  0.00000000000E+00  0.00000000000E+00  0.55450107152E+03  0.55450107152E+03  0.00000000000E+00 0. -1.
         21   -1    0    0  501  502 -0.00000000000E+00 -0.00000000000E+00 -0.39531486861E+01  0.39531486861E+01  0.00000000000E+00 0.  1.
          2    1    1    2  501    0  0.28909475436E+01 -0.20723522052E+02  0.52506379935E+03  0.52548055657E+03  0.00000000000E+00 0. -1.
         21    1    1    2  503  502 -0.28909475436E+01  0.20723522052E+02  0.25484123484E+02  0.32973663638E+02  0.00000000000E+00 0.  1.
</event>
<event>
 4    1  0.2285999E+005  0.3773175E+02  0.7546771E-02  0.1362316E+00
          2   -1    0    0  502    0  0.00000000000E+00  0.00000000000E+00  0.82811708236E+03  0.82811708236E+03  0.00000000000E+00 0.  1.
         21   -1    0    0  503  502 -0.00000000000E+00 -0.00000000000E+00 -0.15442985119E+03  0.15442985119E+03  0.00000000000E+00 0.  1.
          2    1    1    2  501    0 -0.16057740182E-02  0.37731754537E+02  0.82537488892E+03  0.82623688647E+03  0.00000000000E+00 0.  1.
         21    1    1    2  503  501  0.16057740182E-02 -0.37731754537E+02 -0.15168765776E+03  0.15631004708E+03  0.00000000000E+00 0.  1.
</event>
<event>
 4    1  0.2285999E+005  0.2003942E+02  0.7546771E-02  0.1533434E+00
          2   -1    0    0  503    0  0.00000000000E+00  0.00000000000E+00  0.89586506521E+02  0.89586506521E+02  0.00000000000E+00 0. -1.
         21   -1    0    0  501  502 -0.00000000000E+00 -0.00000000000E+00 -0.50908943039E+02  0.50908943039E+02  0.00000000000E+00 0. -1.
          2    1    1    2  501    0  0.16504127273E+01 -0.19971340360E+02  0.86422569167E+02  0.88715493344E+02  0.00000000000E+00 0. -1.
         21    1    1    2  503  502 -0.16504127273E+01  0.19971340360E+02 -0.47745005684E+02  0.51779956216E+02  0.00000000000E+00 0. -1.
</event>
<event>
 4    1  0.2285999E+005  0.2106147E+02  0.7546771E-02  0.1518389E+00
          2   -1    0    0  503    0  0.00000000000E+00  0.00000000000E+00  0.31282233241E+02  0.31282233241E+02  0.00000000000E+00 0.  1.
         21   -1    0    0  501  502 -0.00000000000E+00 -0.00000000000E+00 -0.15754978577E+02  0.15754978577E+02  0.00000000000E+00 0.  1.
          2    1    1    2  501    0 -0.12258514571E+02  0.17126423064E+02  0.15199375240E+02  0.25973189140E+02  0.00000000000E+00 0.  1.
         21    1    1    2  503  502  0.12258514571E+02 -0.17126423064E+02  0.32787942377E+00  0.21064022678E+02  0.00000000000E+00 0.  1.
</event>
<event>
 4    1  0.2285999E+005  0.2015304E+02  0.7546771E-02  0.1531709E+00
          2   -1    0    0  503    0  0.00000000000E+00  0.00000000000E+00  0.43748922995E+02  0.43748922995E+02  0.00000000000E+00 0. -1.
         21   -1    0    0  501  502 -0.00000000000E+00 -0.00000000000E+00 -0.24929730981E+03  0.24929730981E+03  0.00000000000E+00 0. -1.
          2    1    1    2  501    0  0.17223369436E+02  0.10464256423E+02  0.40994863963E+02  0.45680674125E+02  0.00000000000E+00 0. -1.
         21    1    1    2  503  502 -0.17223369436E+02 -0.10464256423E+02 -0.24654325078E+03  0.24736555868E+03  0.00000000000E+00 0. -1.
</event>
<event>
 4    1  0.2285999E+005  0.2644356E+02  0.7546771E-02  0.1453279E+00
          2   -1    0    0  503    0  0.00000000000E+00  0.00000000000E+00  0.21367058749E+03  0.21367058749E+03  0.00000000000E+00 0.  1.
         21   -1    0    0  501  502 -0.00000000000E+00 -0.00000000000E+00 -0.45668396237E+01  0.45668396237E+01  0.00000000000E+00 0.  1.
          2    1    1    2  501    0 -0.23313701589E+02  0.12479313001E+02  0.16264114136E+03  0.16477682725E+03  0.00000000000E+00 0.  1.
         21    1    1    2  503  502  0.23313701589E+02 -0.12479313001E+02  0.46462606505E+02  0.53460599865E+02  0.00000000000E+00 0.  1.
</event>
<event>
 4    1  0.2285999E+005  0.2412736E+02  0.7546771E-02  0.1478807E+00
          2   -1    0    0  502    0  0.00000000000E+00  0.00000000000E+00  0.12210641329E+04  0.12210641329E+04  0.00000000000E+00 0. -1.
         21   -1    0    0  503  502 -0.00000000000E+00 -0.00000000000E+00 -0.76292607421E+00  0.76292607421E+00  0.00000000000E+00 0.  1.
          2    1    1    2  501    0  0.34601686334E+01  0.23877952366E+02  0.98431565628E+03  0.98461131447E+03  0.00000000000E+00 0. -1.
         21    1    1    2  503  501 -0.34601686334E+01 -0.23877952366E+02  0.23598555050E+03  0.23721574447E+03  0.00000000000E+00 0.  1.
</event>
<event>
 4    1  0.2285999E+005  0.2091017E+02  0.7546771E-02  0.1520551E+00
          2   -1    0    0  502    0  0.00000000000E+00  0.00000000000E+00  0.16017276462E+02  0.16017276462E+02  0.00000000000E+00 0.  1.
         21   -1    0    0  503  502 -0.00000000000E+00 -0.00000000000E+00 -0.75395142831E+02  0.75395142831E+02  0.00000000000E+00 0.  1.
          2    1    1    2  501    0 -0.15218617230E+02 -0.14339764055E+02  0.68170813245E+01  0.21993356755E+02  0.00000000000E+00 0.  1.
         21    1    1    2  503  501  0.15218617230E+02  0.14339764055E+02 -0.66194947693E+02  0.69419062538E+02  0.00000000000E+00 0.  1.
</event>
<event>
 4    1  0.2285999E+005  0.2064549E+02  0.7546771E-02  0.1524387E+00
          2   -1    0    0  503    0  0.00000000000E+00  0.00000000000E+00  0.35636447346E+03  0.35636447346E+03  0.00000000000E+00 0. -1.
         21   -1    0    0  501  502 -0.00000000000E+00 -0.00000000000E+00 -0.12802360807E+01  0.12802360807E+01  0.00000000000E+00 0. -1.
          2    1    1    2  501    0 -0.99561624151E+01 -0.18086208582E+02  0.22339332043E+03  0.22434529575E+03  0.00000000000E+00 0. -1.
         21    1    1    2  503  502  0.99561624151E+01  0.18086208582E+02  0.13169091695E+03  0.13329941379E+03  0.00000000000E+00 0. -1.
</event>
<event>
 4    1  0.2285999E+005  0.2480609E+02  0.7546771E-02  0.1470984E+00
          2   -1    0    0  502    0  0.00000000000E+00  0.00000000000E+00  0.46287495315E+02  0.46287495315E+02  0.00000000000E+00 0. -1.
         21   -1    0    0  503  502 -0.00000000000E+00 -0.00000000000E+00 -0.24984025063E+02  0.24984025063E+02  0.00000000000E+00 0.  1.
          2    1    1    2  501    0 -0.24509048897E+02 -0.38273523578E+01  0.35027827890E+02  0.42921915505E+02  0.00000000000E+00 0. -1.
         21    1    1    2  503  501  0.24509048897E+02  0.38273523578E+01 -0.13724357638E+02  0.28349604873E+02  0.00000000000E+00 0.  1.
</event>
<event>
 4    1  0.2285999E+005  0.2160910E+02  0.7546771E-02  0.1510743E+00
          2   -1    0    0  503    0  0.00000000000E+00  0.00000000000E+00  0.67069819997E+02  0.67069819997E+02  0.00000000000E+00 0. -1.
         21   -1    0    0  501  502 -0.00000000000E+00 -0.00000000000E+00 -0.21214027544E+02  0.21214027544E+02  0.00000000000E+00 0.  1.
          2    1    1    2  501    0  0.12609180273E+02 -0.17548839583E+02  0.59108435877E+02  0.62934572293E+02  0.00000000000E+00 0. -1.
         21    1    1    2  503  502 -0.12609180273E+02  0.17548839583E+02 -0.13252643424E+02  0.25349275248E+02  0.00000000000E+00 0.  1.
</event>
<event>
 4    1  0.2285999E+005  0.3200885E+02  0.7546771E-02  0.1402907E+00
          2   -1    0    0  503    0  0.00000000000E+00  0.00000000000E+00  0.12816816455E+03  0.12816816455E+03  0.00000000000E+00 0.  1.
         21   -1    0    0  501  502 -0.00000000000E+00 -0.00000000000E+00 -0.13754973788E+02  0.13754973788E+02  0.00000000000E+00 0. -1.
          2    1    1    2  501    0  0.11017817593E+02  0.30052855638E+02  0.10313106818E+03  0.10798418245E+03  0.00000000000E+00 0.  1.
         21    1    1    2  503  502 -0.11017817593E+02 -0.30052855638E+02  0.11282122583E+02  0.33938955884E+02  0.00000000000E+00 0. -1.
</event>
<event>
 4    1  0.2285999E+005  0.2068087E+02  0.7546771E-02  0.1523870E+00
          2   -1    0    0  503    0  0.00000000000E+00  0.00000000000E+00  0.14540998454E+03  0.14540998454E+03  0.00000000000E+00 0. -1.
         21   -1    0    0  501  502 -0.00000000000E+00 -0.00000000000E+00 -0.31151211449E+01  0.31151211449E+01  0.00000000000E+00 0. -1.
          2    1    1    2  501    0 -0.16006809789E+02  0.13095048158E+02  0.88688278524E+02  0.91067606719E+02  0.00000000000E+00 0. -1.
         21    1    1    2  503  502  0.16006809789E+02 -0.13095048158E+02  0.53606584867E+02  0.57457498962E+02  0.00000000000E+00 0. -1.
</event>
<event>
 4    1  0.2285999E+005  0.2220027E+02  0.7546771E-02  0.1502792E+00
          2   -1    0    0  503    0  0.00000000000E+00  0.00000000000E+00  0.13848767838E+04  0.13848767838E+04  0.00000000000E+00 0. -1.
         21   -1    0    0  501  502 -0.00000000000E+00 -0.00000000000E+00 -0.14707075151E+01  0.14707075151E+01  0.00000000000E+00 0. -1.
          2    1    1    2  501    0 -0.20235064889E+02  0.91320481383E+01  0.12952102703E+04  0.12954005158E+04  0.00000000000E+00 0. -1.
         21    1    1    2  503  502  0.20235064889E+02 -0.91320481383E+01  0.88195805975E+02  0.90946975462E+02  0.00000000000E+00 0. -1.
</event>
<event>
 4    1  0.2285999E+005  0.2597883E+02  0.7546771E-02  0.1458145E+00
          2   -1    0    0  503    0  0.00000000000E+00  0.00000000000E+00  0.22977302822E+03  0.22977302822E+03  0.00000000000E+00 0.  1.
         21   -1    0    0  501  502 -0.00000000000E+00 -0.00000000000E+00 -0.30779562903E+01  0.30779562903E+01  0.00000000000E+00 0.  1.
          2    1    1    2  501    0 -0.16776087154E+02  0.19835895768E+02  0.88454371791E+02  0.92190431988E+02  0.00000000000E+00 0.  1.
         21    1    1    2  503  502  0.16776087154E+02 -0.19835895768E+02  0.13824070014E+03  0.14066055252E+03  0.00000000000E+00 0.  1.
</event>
<event>
 4    1  0.2285999E+005  0.2958641E+02  0.7546771E-02  0.1423225E+00
          2   -1    0    0  503    0  0.00000000000E+00  0.00000000000E+00  0.12704117022E+04  0.12704117022E+04  0.00000000000E+00 0.  1.
         21   -1    0    0  501  502 -0.00000000000E+00 -0.00000000000E+00 -0.11567592213E+02  0.11567592213E+02  0.00000000000E+00 0. -1.
          2    1    1    2  501    0  0.57916596671E+01  0.29014005491E+02  0.12510280812E+04  0.12513778869E+04  0.00000000000E+00 0.  1.
         21    1    1    2  503  502 -0.57916596671E+01 -0.29014005491E+02  0.78160287800E+01  0.30601407520E+02  0.00000000000E+00 0. -1.
</event>
<event>
 4    1  0.2285999E+005  0.2529995E+02  0.7546771E-02  0.1465476E+00
          2   -1    0    0  503    0  0.00000000000E+00  0.00000000000E+00  0.16138150116E+04  0.16138150116E+04  0.00000000000E+00 0. -1.
         21   -1    0    0  501  502 -0.00000000000E+00 -0.00000000000E+00 -0.42107728433E+00  0.42107728433E+00  0.00000000000E+00 0. -1.
          2    1    1    2  501    0  0.13972879581E+02  0.21091372442E+02  0.10011756356E+04  0.10014952525E+04  0.00000000000E+00 0. -1.
         21    1    1    2  503  502 -0.13972879581E+02 -0.21091372442E+02  0.61221829864E+03  0.61274083636E+03  0.00000000000E+00 0. -1.
</event>
<event>
 4    1  0.2285999E+005  0.2109006E+02  0.7546771E-02  0.1517983E+00
          2   -1    0    0  503    0  0.00000000000E+00  0.00000000000E+00  0.15582601983E+04  0.15582601983E+04  0.00000000000E+00 0. -1.
         21   -1    0    0  501  502 -0.00000000000E+00 -0.00000000000E+00 -0.13365553104E+01  0.13365553104E+01  0.00000000000E+00 0.  1.
          2    1    1    2  501    0  0.72414909235E+01  0.19807865417E+02  0.14699964247E+04  0.14701477067E+04  0.00000000000E+00 0. -1.
         21    1    1    2  503  502 -0.72414909235E+01 -0.19807865417E+02  0.86927218245E+02  0.89449046921E+02  0.00000000000E+00 0.  1.
</event>
<event>
 4    1  0.2285999E+005  0.5419607E+02  0.7546771E-02  0.1280938E+00
          2   -1    0    0  502    0  0.00000000000E+00  0.00000000000E+00  0.45157879664E+04  0.45157879664E+04  0.00000000000E+00 0.  1.
         21   -1    0    0  503  502 -0.00000000000E+00 -0.00000000000E+00 -0.11956561006E+01  0.11956561006E+01  0.00000000000E+00 0. -1.
          2    1    1    2  501    0  0.40896255406E+02  0.35562759869E+02  0.37824120520E+04  0.37828003046E+04  0.00000000000E+00 0.  1.
         21    1    1    2  503  501 -0.40896255406E+02 -0.35562759869E+02  0.73218025831E+03  0.73418331788E+03  0.00000000000E+00 0. -1.
</event>
<event>
 4    1  0.2285999E+005  0.2378749E+02  0.7546771E-02  0.1482839E+00
          2   -1    0    0  502    0  0.00000000000E+00  0.00000000000E+00  0.26691264998E+03  0.26691264998E+03  0.00000000000E+00 0. -1.
         21   -1    0    0  503  502 -0.00000000000E+00 -0.00000000000E+00 -0.62992379585E+01  0.62992379585E+01  0.00000000000E+00 0. -1.
          2    1    1    2  501    0 -0.23714991337E+02  0.18558150441E+01  0.24157619079E+03  0.24274451759E+03  0.00000000000E+00 0. -1.
         21    1    1    2  503  501  0.23714991337E+02 -0.18558150441E+01  0.19037221227E+02  0.30467370344E+02  0.00000000000E+00 0. -1.
</event>
<event>
 4    1  0.2285999E+005  0.3431801E+02  0.7546771E-02  0.1385422E+00
          2   -1    0    0  502    0  0.00000000000E+00  0.00000000000E+00  0.91425763553E+02  0.91425763553E+02  0.00000000000E+00 0. -1.
         21   -1    0    0  503  502 -0.00000000000E+00 -0.00000000000E+00 -0.24221879532E+02  0.24221879532E+02  0.00000000000E+00 0. -1.
          2    1    1    2  501    0  0.22014508721E+02  0.26326551160E+02  0.73166967214E+02  0.80815413020E+02  0.00000000000E+00 0. -1.
         21    1    1    2  503  501 -0.22014508721E+02 -0.26326551160E+02 -0.59630831926E+01  0.34832230066E+02  0.00000000000E+00 0. -1.
</event>
<event>
 4    1  0.2285999E+005  0.2034820E+02  0.7546771E-02  0.1528778E+00
          2   -1    0    0  503    0  0.00000000000E+00  0.00000000000E+00  0.75692646398E+02  0.75692646398E+02  0.00000000000E+00 0.  1.
         21   -1    0    0  501  502 -0.00000000000E+00 -0.00000000000E+00 -0.48286086403E+02  0.48286086403E+02  0.00000000000E+00 0. -1.
          2    1    1    2  501    0  0.19259939683E+02 -0.65653510649E+01  0.72075872948E+02  0.74893127671E+02  0.00000000000E+00 0.  1.
         21    1    1    2  503  502 -0.19259939683E+02  0.65653510649E+01 -0.44669312953E+02  0.49085605129E+02  0.00000000000E+00 0. -1.
</event>
<event>
 4    1  0.2285999E+005  0.3026283E+02  0.7546771E-02  0.1417326E+00
          2   -1    0    0  502    0  0.00000000000E+00  0.00000000000E+00  0.94179394880E+03  0.94179394880E+03  0.00000000000E+00 0.  1.
         21   -1    0    0  503  502 -0.00000000000E+00 -0.00000000000E+00 -0.93372087328E+01  0.93372087328E+01  0.00000000000E+00 0.  1.
          2    1    1    2  501    0 -0.25920979386E+02  0.15618627922E+02  0.91634891058E+03  0.91684849601E+03  0.00000000000E+00 0.  1.
         21    1    1    2  503  501  0.25920979386E+02 -0.15618627922E+02  0.16107829488E+02  0.34282661526E+02  0.00000000000E+00 0.  1.
</event>
<event>
 4    1  0.2285999E+005  0.2787920E+02  0.7546771E-02  0.1438971E+00
          2   -1    0    0  502    0  0.00000000000E+00  0.00000000000E+00  0.12703536811E+04  0.12703536811E+04  0.00000000000E+00 0. -1.
         21   -1    0    0  503  502 -0.00000000000E+00 -0.00000000000E+00 -0.43913134751E+02  0.43913134751E+02  0.00000000000E+00 0. -1.
          2    1    1    2  501    0 -0.16310744002E+02 -0.22609944150E+02  0.12657597352E+04  0.12660667270E+04  0.00000000000E+00 0. -1.
         21    1    1    2  503  501  0.16310744002E+02  0.22609944150E+02 -0.39319188907E+02  0.48200088803E+02  0.00000000000E+00 0. -1.
</event>
<event>
 4    1  0.2285999E+005  0.2139600E+02  0.7546771E-02  0.1513685E+00
          2   -1    0    0  503    0  0.00000000000E+00  0.00000000000E+00  0.62767796749E+03  0.62767796749E+03  0.00000000000E+00 0. -1.
         21   -1    0    0  501  502 -0.00000000000E+00 -0.00000000000E+00 -0.75665310093E+00  0.75665310093E+00  0.00000000000E+00 0.  1.
          2    1    1    2  501    0 -0.10732636908E+02  0.18509442100E+02  0.37316264933E+03  0.37377553665E+03  0.00000000000E+00 0. -1.
         21    1    1    2  503  502  0.10732636908E+02 -0.18509442100E+02  0.25375866506E+03  0.25465908394E+03  0.00000000000E+00 0.  1.
</event>
<event>
 4    1  0.2285999E+005  0.2175866E+02  0.7546771E-02  0.1508703E+00
          2   -1    0    0  503    0  0.00000000000E+00  0.00000000000E+00  0.76617305823E+03  0.76617305823E+03  0.00000000000E+00 0.  1.
         21   -1    0    0  501  502 -0.00000000000E+00 -0.00000000000E+00 -0.18337499810E+01  0.18337499810E+01  0.00000000000E+00 0. -1.
          2    1    1    2  501    0 -0.60982223278E+01  0.20886623314E+02  0.69484965916E+03  0.69519025323E+03  0.00000000000E+00 0.  1.
         21    1    1    2  503  502  0.60982223278E+01 -0.20886623314E+02  0.69489649089E+02  0.72816554982E+02  0.00000000000E+00 0. -1.
</event>
<event>
 4    1  0.2285999E+005  0.2145402E+02  0.7546771E-02  0.1512880E+00
          2   -1    0    0  502    0  0.00000000000E+00  0.00000000000E+00  0.60122786903E+02  0.60122786903E+02  0.00000000000E+00 0. -1.
         21   -1    0    0  503  502 -0.00000000000E+00 -0.00000000000E+00 -0.22001633303E+03  0.22001633303E+03  0.00000000000E+00 0. -1.
          2    1    1    2  501    0 -0.19476811411E+02 -0.89960414084E+01  0.57664315153E+02  0.61525996016E+02  0.00000000000E+00 0. -1.
         21    1    1    2  503  501  0.19476811411E+02  0.89960414084E+01 -0.21755786128E+03  0.21861312391E+03  0.00000000000E+00 0. -1.
</event>
<event>
 4    1  0.2285999E+005  0.3355869E+02  0.7546771E-02  0.1390989E+00
          2   -1    0    0  503    0  0.00000000000E+00  0.00000000000E+00  0.95905441255E+02  0.95905441255E+02  0.00000000000E+00 0. -1.
         21   -1    0    0  501  502 -0.00000000000E+00 -0.00000000000E+00 -0.16047927303E+02  0.16047927303E+02  0.00000000000E+00 0.  1.
          2    1    1    2  501    0  0.24311387939E+01  0.33470509081E+02  0.68922049184E+02  0.76657904209E+02  0.00000000000E+00 0. -1.
         21    1    1    2  503  502 -0.24311387939E+01 -0.33470509081E+02  0.10935464768E+02  0.35295464350E+02  0.00000000000E+00 0.  1.
</event>
<event>
 4    1  0.2285999E+005  0.2072939E+02  0.7546771E-02  0.1523164E+00
          2   -1    0    0  502    0  0.00000000000E+00  0.00000000000E+00  0.62949866526E+03  0.62949866526E+03  0.00000000000E+00 0.  1.
         21   -1    0    0  503  502 -0.00000000000E+00 -0.00000000000E+00 -0.20907626224E+02  0.20907626224E+02  0.00000000000E+00 0.  1.
          2    1    1    2  501    0 -0.62632968866E+01  0.19760529534E+02  0.62414579024E+03  0.62448993178E+03  0.00000000000E+00 0.  1.
         21    1    1    2  503  501  0.62632968866E+01 -0.19760529534E+02 -0.15554751205E+02  0.25916359706E+02  0.00000000000E+00 0.  1.
</event>
<event>
 4    1  0.2285999E+005  0.3152043E+02  0.7546771E-02  0.1406829E+00
          2   -1    0    0  502    0  0.00000000000E+00  0.00000000000E+00  0.44926163442E+02  0.44926163442E+02  0.00000000000E+00 0.  1.
         21   -1    0    0  503  502 -0.00000000000E+00 -0.00000000000E+00 -0.88050169455E+02  0.88050169455E+02  0.00000000000E+00 0.  1.
          2    1    1    2  501    0 -0.28496023573E+02 -0.13472709484E+02  0.35973799755E+02  0.47829400259E+02  0.00000000000E+00 0.  1.
         21    1    1    2  503  501  0.28496023573E+02  0.13472709484E+02 -0.79097805768E+02  0.85146932638E+02  0.00000000000E+00 0.  1.
</event>
<event>
 4    1  0.2285999E+005  0.4390467E+02  0.7546771E-02  0.1327008E+00
          2   -1    0    0  502    0  0.00000000000E+00  0.00000000000E+00  0.11047695732E+03  0.11047695732E+03  0.00000000000E+00 0. -1.
         21   -1    0    0  503  502 -0.00000000000E+00 -0.00000000000E+00 -0.18762787230E+03  0.18762787230E+03  0.00000000000E+00 0.  1.
          2    1    1    2  501    0 -0.38498761352E+02 -0.21106054976E+02  0.10337742828E+03  0.11231434842E+03  0.00000000000E+00 0. -1.
         21    1    1    2  503  501  0.38498761352E+02  0.21106054976E+02 -0.18052834327E+03  0.18579048120E+03  0.00000000000E+00 0.  1.
</event>
<event>
 4    1  0.2285999E+005  0.4572609E+02  0.7546771E-02  0.1317848E+00
          2   -1    0    0  503    0  0.00000000000E+00  0.00000000000E+00  0.71054068492E+03  0.71054068492E+03  0.00000000000E+00 0. -1.
         21   -1    0    0  501  502 -0.00000000000E+00 -0.00000000000E+00 -0.64697097111E+01  0.64697097111E+01  0.00000000000E+00 0.  1.
          2    1    1    2  501    0  0.43500810211E+02 -0.14090937409E+02  0.61673872424E+03  0.61843150711E+03  0.00000000000E+00 0. -1.
         21    1    1    2  503  502 -0.43500810211E+02  0.14090937409E+02  0.87332250969E+02  0.98578887524E+02  0.00000000000E+00 0.  1.
</event>
<event>
 4    1  0.2285999E+005  0.2328066E+02  0.7546771E-02  0.1489004E+00
          2   -1    0    0  503    0  0.00000000000E+00  0.00000000000E+00  0.21758759883E+04  0.21758759883E+04  0.00000000000E+00 0.  1.
         21   -1    0    0  501  502 -0.00000000000E+00 -0.00000000000E+00 -0.36237004674E+00  0.36237004674E+00  0.00000000000E+00 0.  1.
          2    1    1    2  501    0 -0.16787596798E+02 -0.16129658029E+02  0.16961393511E+04  0.16962991151E+04  0.00000000000E+00 0.  1.
         21    1    1    2  503  502  0.16787596798E+02  0.16129658029E+02  0.47937426714E+03  0.47993924331E+03  0.00000000000E+00 0.  1.
</event>
<event>
 4    1  0.2285999E+005  0.2170691E+02  0.7546771E-02  0.1509407E+00
          2   -1    0    0  503    0  0.00000000000E+00  0.00000000000E+00  0.80648295803E+03  0.80648295803E+03  0.00000000000E+00 0. -1.
         21   -1    0    0  501  502 -0.00000000000E+00 -0.00000000000E+00 -0.26515866641E+01  0.26515866641E+01  0.00000000000E+00 0. -1.
          2    1    1    2  501    0 -0.17835898726E+02  0.12372173794E+02  0.75914174956E+03  0.75945203002E+03  0.00000000000E+00 0. -1.
         21    1    1    2  503  502  0.17835898726E+02 -0.12372173794E+02  0.44689621806E+02  0.49682514680E+02  0.00000000000E+00 0. -1.
</event>
<event>
 4    1  0.2285999E+005  0.2761658E+02  0.7546771E-02  0.1441511E+00
          2   -1    0    0  503    0  0.00000000000E+00  0.00000000000E+00  0.22099578416E+03  0.22099578416E+03  0.00000000000E+00 0. -1.
         21   -1    0    0  501  502 -0.00000000000E+00 -0.00000000000E+00 -0.11523709238E+03  0.11523709238E+03  0.00000000000E+00 0.  1.
          2    1    1    2  501    0  0.37151983943E+01 -0.27365543793E+02  0.21845929814E+03  0.22019795782E+03  0.00000000000E+00 0. -1.
         21    1    1    2  503  502 -0.37151983943E+01  0.27365543793E+02 -0.11270060637E+03  0.11603491872E+03  0.00000000000E+00 0.  1.
</event>
<event>
 4    1  0.2285999E+005  0.2074626E+02  0.7546771E-02  0.1522919E+00
          2   -1    0    0  503    0  0.00000000000E+00  0.00000000000E+00  0.60632294711E+03  0.60632294711E+03  0.00000000000E+00 0.  1.
         21   -1    0    0  501  502 -0.00000000000E+00 -0.00000000000E+00 -0.12698151588E+01  0.12698151588E+01  0.00000000000E+00 0. -1.
          2    1    1    2  501    0  0.51268364448E+01 -0.20102811274E+02  0.50426423884E+03  0.50469082620E+03  0.00000000000E+00 0.  1.
         21    1    1    2  503  502 -0.51268364448E+01  0.20102811274E+02  0.10078889311E+03  0.10290193607E+03  0.00000000000E+00 0. -1.
</event>
<event>
 4    1  0.2285999E+005  0.4297580E+02  0.7546771E-02  0.1331878E+00
          2   -1    0    0  502    0  0.00000000000E+00  0.00000000000E+00  0.56244634087E+03  0.56244634087E+03  0.00000000000E+00 0.  1.
         21   -1    0    0  503  502 -0.00000000000E+00 -0.00000000000E+00 -0.39567712348E+01  0.39567712348E+01  0.00000000000E+00 0.  1.
          2    1    1    2  501    0 -0.37012954109E+02 -0.21839424791E+02  0.39604604693E+03  0.39837092080E+03  0.00000000000E+00 0.  1.
         21    1    1    2  503  501  0.37012954109E+02  0.21839424791E+02  0.16244352271E+03  0.16803219131E+03  0.00000000000E+00 0.  1.
</event>
<event>
 4    1  0.2285999E+005  0.3404653E+02  0.7546771E-02  0.1387393E+00
          2   -1    0    0  502    0  0.00000000000E+00  0.00000000000E+00  0.24240162000E+03  0.24240162000E+03  0.00000000000E+00 0.  1.
         21   -1    0    0  503  502 -0.00000000000E+00 -0.00000000000E+00 -0.10508508343E+02  0.10508508343E+02  0.00000000000E+00 0.  1.
          2    1    1    2  501    0  0.23172668658E+02  0.24943810136E+02  0.20929570720E+03  0.21204683277E+03  0.00000000000E+00 0.  1.
         21    1    1    2  503  501 -0.23172668658E+02 -0.24943810136E+02  0.22597404462E+02  0.40863295575E+02  0.00000000000E+00 0.  1.
</event>
<event>
 4    1  0.2285999E+005  0.2146602E+02  0.7546771E-02  0.1512714E+00
          2   -1    0    0  503    0  0.00000000000E+00  0.00000000000E+00  0.73792783766E+03  0.73792783766E+03  0.00000000000E+00 0. -1.
         21   -1    0    0  501  502 -0.00000000000E+00 -0.00000000000E+00 -0.16880896373E+02  0.16880896373E+02  0.00000000000E+00 0.  1.
          2    1    1    2  501    0  0.21325075022E+02  0.24558266344E+01  0.73088182213E+03  0.73119698292E+03  0.00000000000E+00 0. -1.
         21    1    1    2  503  502 -0.21325075022E+02 -0.24558266344E+01 -0.98348808475E+01  0.23611751109E+02  0.00000000000E+00 0.  1.
</event>
<event>
 4    1  0.2285999E+005  0.2937360E+02  0.7546771E-02  0.1425119E+00
          2   -1    0    0  503    0  0.00000000000E+00  0.00000000000E+00  0.13554499609E+03  0.13554499609E+03  0.00000000000E+00 0.  1.
         21   -1    0    0  501  502 -0.00000000000E+00 -0.00000000000E+00 -0.25008832918E+02  0.25008832918E+02  0.00000000000E+00 0. -1.
          2    1    1    2  501    0  0.15769901262E+02 -0.24781420488E+02  0.12457969396E+03  0.12799573717E+03  0.00000000000E+00 0.  1.
         21    1    1    2  503  502 -0.15769901262E+02  0.24781420488E+02 -0.14043530784E+02  0.32558091838E+02  0.00000000000E+00 0. -1.
</event>
<event>
 4    1  0.2285999E+005  0.2320220E+02  0.7546771E-02  0.1489975E+00
          2   -1    0    0  502    0  0.00000000000E+00  0.00000000000E+00  0.15034235258E+04  0.15034235258E+04  0.00000000000E+00 0. -1.
         21   -1    0    0  503  502 -0.00000000000E+00 -0.00000000000E+00 -0.30160544482E+01  0.30160544482E+01  0.00000000000E+00 0. -1.
          2    1    1    2  501    0 -0.21203784394E+02 -0.94202809368E+01  0.14572986879E+04  0.14574833817E+04  0.00000000000E+00 0. -1.
         21    1    1    2  503  501  0.21203784394E+02  0.94202809368E+01  0.43108783418E+02  0.48956198518E+02  0.00000000000E+00 0. -1.
</event>
<event>
 4    1  0.2285999E+005  0.2093698E+02  0.7546771E-02  0.1520167E+00
          2   -1    0    0  503    0  0.00000000000E+00  0.00000000000E+00  0.53369693933E+03  0.53369693933E+03  0.00000000000E+00 0. -1.
         21   -1    0    0  501  502 -0.00000000000E+00 -0.00000000000E+00 -0.43900167328E+01  0.43900167328E+01  0.00000000000E+00 0.  1.
          2    1    1    2  501    0  0.20815786109E+02 -0.22494594778E+01  0.50722609449E+03  0.50765802264E+03  0.00000000000E+00 0. -1.
         21    1    1    2  503  502 -0.20815786109E+02  0.22494594778E+01  0.22080828103E+02  0.30428933419E+02  0.00000000000E+00 0.  1.
</event>
<event>
 4    1  0.2285999E+005  0.2485517E+02  0.7546771E-02  0.1470430E+00
          2   -1    0    0  502    0  0.00000000000E+00  0.00000000000E+00  0.14617359086E+04  0.14617359086E+04  0.00000000000E+00 0. -1.
         21   -1    0    0  503  502 -0.00000000000E+00 -0.00000000000E+00 -0.20926927066E+02  0.20926927066E+02  0.00000000000E+00 0.  1.
          2    1    1    2  501    0 -0.12750754811E+02  0.21335367983E+02  0.14542118674E+04  0.14544242623E+04  0.00000000000E+00 0. -1.
         21    1    1    2  503  501  0.12750754811E+02 -0.21335367983E+02 -0.13402885833E+02  0.28238573333E+02  0.00000000000E+00 0.  1.
</event>
<event>
 4    1  0.2285999E+005  0.2847026E+02  0.7546771E-02  0.1433373E+00
          2   -1    0    0  502    0  0.00000000000E+00  0.00000000000E+00  0.28204147007E+03  0.28204147007E+03  0.00000000000E+00 0.  1.
         21   -1    0    0  503  502 -0.00000000000E+00 -0.00000000000E+00 -0.59201135415E+02  0.59201135415E+02  0.00000000000E+00 0. -1.
          2    1    1    2  501    0  0.66770944790E+01  0.27676204566E+02  0.27784858951E+03  0.27930340955E+03  0.00000000000E+00 0.  1.
         21    1    1    2  503  501 -0.66770944790E+01 -0.27676204566E+02 -0.55008254863E+02  0.61939195933E+02  0.00000000000E+00 0. -1.
</event>
<event>
 4    1  0.2285999E+005  0.2692620E+02  0.7546771E-02  0.1448351E+00
          2   -1    0    0  503    0  0.00000000000E+00  0.00000000000E+00  0.15013632789E+03  0.15013632789E+03  0.00000000000E+00 0. -1.
         21   -1    0    0  501  502 -0.00000000000E+00 -0.00000000000E+00 -0.91380395138E+01  0.91380395138E+01  0.00000000000E+00 0. -1.
          2    1    1    2  501    0  0.18746636912E+02 -0.19328321128E+02  0.12518506959E+03  0.12804812393E+03  0.00000000000E+00 0. -1.
         21    1    1    2  503  502 -0.18746636912E+02  0.19328321128E+02  0.15813218783E+02  0.31226243473E+02  0.00000000000E+00 0. -1.
</event>
<event>
 4    1  0.2285999E+005  0.3549105E+02  0.7546771E-02  0.1377144E+00
          2   -1    0    0  503    0  0.00000000000E+00  0.00000000000E+00  0.73757390647E+03  0.73757390647E+03  0.00000000000E+00 0. -1.
         21   -1    0    0  501  502 -0.00000000000E+00 -0.00000000000E+00 -0.53842939267E+02  0.53842939267E+02  0.00000000000E+00 0. -1.
          2    1    1    2  501    0  0.16361260229E+02  0.31494816670E+02  0.73124783641E+03  0.73210860708E+03  0.00000000000E+00 0. -1.
         21    1    1    2  503  502 -0.16361260229E+02 -0.31494816670E+02 -0.47516869204E+02  0.59308238655E+02  0.00000000000E+00 0. -1.
</event>
<event>
 4    1  0.2285999E+005  0.2565244E+02  0.7546771E-02  0.1461635E+00
          2   -1    0    0  503    0  0.00000000000E+00  0.00000000000E+00  0.10897153088E+02  0.10897153088E+02  0.00000000000E+00 0. -1.
         21   -1    0    0  501  502 -0.00000000000E+00 -0.00000000000E+00 -0.31684062110E+03  0.31684062110E+03  0.00000000000E+00 0.  1.
          2    1    1    2  501    0 -0.25025922532E+01 -0.25530078988E+02 -0.55435974742E+01  0.26244606571E+02  0.00000000000E+00 0. -1.
         21    1    1    2  503  502  0.25025922532E+01  0.25530078988E+02 -0.30039987054E+03  0.30149316762E+03  0.00000000000E+00 0.  1.
</event>
<event>
 4    1  0.2285999E+005  0.2271764E+02  0.7546771E-02  0.1496075E+00
          2   -1    0    0  503    0  0.00000000000E+00  0.00000000000E+00  0.18297929114E+03  0.18297929114E+03  0.00000000000E+00 0. -1.
         21   -1    0    0  501  502 -0.00000000000E+00 -0.00000000000E+00 -0.13482742100E+02  0.13482742100E+02  0.00000000000E+00 0.  1.
          2    1    1    2  501    0 -0.15672037905E+02  0.16446222200E+02  0.17210252221E+03  0.17359541799E+03  0.00000000000E+00 0. -1.
         21    1    1    2  503  502  0.15672037905E+02 -0.16446222200E+02 -0.26059731701E+01  0.22866615248E+02  0.00000000000E+00 0.  1.
</event>
<event>
 4    1  0.2285999E+005  0.2005514E+02  0.7546771E-02  0.1533194E+00
          2   -1    0    0  503    0  0.00000000000E+00  0.00000000000E+00  0.36584562883E+02  0.36584562883E+02  0.00000000000E+00 0.  1.
         21   -1    0    0  501  502 -0.00000000000E+00 -0.00000000000E+00 -0.28246248611E+02  0.28246248611E+02  0.00000000000E+00 0.  1.
          2    1    1    2  501    0  0.49066227882E+01  0.19445657678E+02  0.29502626047E+02  0.35673708713E+02  0.00000000000E+00 0.  1.
         21    1    1    2  503  502 -0.49066227882E+01 -0.19445657678E+02 -0.21164311775E+02  0.29157102781E+02  0.00000000000E+00 0.  1.
</event>
<event>
 4    1  0.2285999E+005  0.2641578E+02  0.7546771E-02  0.1453567E+00
          2   -1    0    0  502    0  0.00000000000E+00  0.00000000000E+00  0.33342726935E+03  0.33342726935E+03  0.00000000000E+00 0.  1.
         21   -1    0    0  503  502 -0.00000000000E+00 -0.00000000000E+00 -0.64032432115E+02  0.64032432115E+02  0.00000000000E+00 0. -1.
          2    1    1    2  501    0 -0.24153413932E+02 -0.10696068527E+02  0.33015271935E+03  0.33120780695E+03  0.00000000000E+00 0.  1.
         21    1    1    2  503  501  0.24153413932E+02  0.10696068527E+02 -0.60757882123E+02  0.66251894513E+02  0.00000000000E+00 0. -1.
</event>
<event>
 4    1  0.2285999E+005  0.6390264E+02  0.7546771E-02  0.1247120E+00
          2   -1    0    0  502    0  0.00000000000E+00  0.00000000000E+00  0.14282115478E+03  0.14282115478E+03  0.00000000000E+00 0.  1.
         21   -1    0    0  503  502 -0.00000000000E+00 -0.00000000000E+00 -0.40423539644E+02  0.40423539644E+02  0.00000000000E+00 0. -1.
          2    1    1    2  501    0 -0.36953841997E+02  0.52134061338E+02  0.10076714114E+03  0.11932126183E+03  0.00000000000E+00 0.  1.
         21    1    1    2  503  501  0.36953841997E+02 -0.52134061338E+02  0.16304739973E+01  0.63923432600E+02  0.00000000000E+00 0. -1.
</event>
<event>
 4    1  0.2285999E+005  0.2654185E+02  0.7546771E-02  0.1452265E+00
          2   -1    0    0  503    0  0.00000000000E+00  0.00000000000E+00  0.53906956536E+01  0.53906956536E+01  0.00000000000E+00 0. -1.
         21   -1    0    0  501  502 -0.00000000000E+00 -0.00000000000E+00 -0.57534872723E+03  0.57534872723E+03  0.00000000000E+00 0.  1.
          2    1    1    2  501    0  0.24355027807E+02 -0.10550005283E+02 -0.29707256960E+02  0.39837056957E+02  0.00000000000E+00 0. -1.
         21    1    1    2  503  502 -0.24355027807E+02  0.10550005283E+02 -0.54025077462E+03  0.54090236593E+03  0.00000000000E+00 0.  1.
</event>
<event>
 4    1  0.2285999E+005  0.2037846E+02  0.7546771E-02  0.1528327E+00
          2   -1    0    0  502    0  0.00000000000E+00  0.00000000000E+00  0.38629803803E+03  0.38629803803E+03  0.00000000000E+00 0.  1.
         21   -1    0    0  503  502 -0.00000000000E+00 -0.00000000000E+00 -0.11386999344E+01  0.11386999344E+01  0.00000000000E+00 0. -1.
          2    1    1    2  501    0  0.15909872225E+02 -0.12734115357E+02  0.23838706241E+03  0.23925650097E+03  0.00000000000E+00 0.  1.
         21    1    1    2  503  501 -0.15909872225E+02  0.12734115357E+02  0.14677227568E+03  0.14818023700E+03  0.00000000000E+00 0. -1.
</event>
<event>
 4    1  0.2285999E+005  0.2116650E+02  0.7546771E-02  0.1516901E+00
          2   -1    0    0  502    0  0.00000000000E+00  0.00000000000E+00  0.34804713594E+03  0.34804713594E+03  0.00000000000E+00 0. -1.
         21   -1    0    0  503  502 -0.00000000000E+00 -0.00000000000E+00 -0.15899012598E+01  0.15899012598E+01  0.00000000000E+00 0. -1.
          2    1    1    2  501    0 -0.69767333552E+01  0.19983637719E+02  0.24950322349E+03  0.25039943913E+03  0.00000000000E+00 0. -1.
         21    1    1    2  503  501  0.69767333552E+01 -0.19983637719E+02  0.96954011192E+02  0.99237598071E+02  0.00000000000E+00 0. -1.
</event>
<event>
 4    1  0.2285999E+005  0.3013974E+02  0.7546771E-02  0.1418386E+00
          2   -1    0    0  503    0  0.00000000000E+00  0.00000000000E+00  0.66578830432E+03  0.66578830432E+03  0.00000000000E+00 0.  1.
         21   -1    0    0  501  502 -0.00000000000E+00 -0.00000000000E+00 -0.12251801701E+02  0.12251801701E+02  0.00000000000E+00 0.  1.
          2    1    1    2  501    0  0.29776323006E+02  0.46663366484E+01  0.64635403720E+03  0.64705636966E+03  0.00000000000E+00 0.  1.
         21    1    1    2  503  502 -0.29776323006E+02 -0.46663366484E+01  0.71824654166E+01  0.30983736362E+02  0.00000000000E+00 0.  1.
</event>
<event>
 4    1  0.2285999E+005  0.3905379E+02  0.7546771E-02  0.1354122E+00
          2   -1    0    0  502    0  0.00000000000E+00  0.00000000000E+00  0.11765294370E+03  0.11765294370E+03  0.00000000000E+00 0. -1.
         21   -1    0    0  503  502 -0.00000000000E+00 -0.00000000000E+00 -0.19796572930E+02  0.19796572930E+02  0.00000000000E+00 0. -1.
          2    1    1    2  501    0 -0.31889160608E+02 -0.22545068792E+02  0.89304340260E+02  0.97470323075E+02  0.00000000000E+00 0. -1.
         21    1    1    2  503  501  0.31889160608E+02  0.22545068792E+02  0.85520305061E+01  0.39979193550E+02  0.00000000000E+00 0. -1.
</event>
<event>
 4    1  0.2285999E+005  0.2049769E+02  0.7546771E-02  0.1526559E+00
          2   -1    0    0  503    0  0.00000000000E+00  0.00000000000E+00  0.72841639814E+02  0.72841639814E+02  0.00000000000E+00 0. -1.
         21   -1    0    0  501  502 -0.00000000000E+00 -0.00000000000E+00 -0.73181658501E+01  0.73181658501E+01  0.00000000000E+00 0.  1.
          2    1    1    2  501    0  0.20228696728E+02 -0.33098305927E+01  0.51207890868E+02  0.55157984346E+02  0.00000000000E+00 0. -1.
         21    1    1    2  503  502 -0.20228696728E+02  0.33098305927E+01  0.14315583095E+02  0.25001821318E+02  0.00000000000E+00 0.  1.
</event>
<event>
 4    1  0.2285999E+005  0.2249130E+02  0.7546771E-02  0.1498987E+00
          2   -1    0    0  503    0  0.00000000000E+00  0.00000000000E+00  0.24188763983E+03  0.24188763983E+03  0.00000000000E+00 0.  1.
         21   -1    0    0  501  502 -0.00000000000E+00 -0.00000000000E+00 -0.93268631549E+02  0.93268631549E+02  0.00000000000E+00 0.  1.
          2    1    1    2  501    0 -0.18741478519E+01  0.22413076545E+02  0.23999824699E+03  0.24104982263E+03  0.00000000000E+00 0.  1.
         21    1    1    2  503  502  0.18741478519E+01 -0.22413076545E+02 -0.91379238707E+02  0.94106448754E+02  0.00000000000E+00 0.  1.
</event>
<event>
 4    1  0.2285999E+005  0.3975047E+02  0.7546771E-02  0.1349954E+00
          2   -1    0    0  502    0  0.00000000000E+00  0.00000000000E+00  0.21005038647E+04  0.21005038647E+04  0.00000000000E+00 0.  1.
         21   -1    0    0  503  502 -0.00000000000E+00 -0.00000000000E+00 -0.47778411618E+01  0.47778411618E+01  0.00000000000E+00 0. -1.
          2    1    1    2  501    0 -0.38625958294E+02  0.93880498285E+01  0.20140903034E+04  0.20144825267E+04  0.00000000000E+00 0.  1.
         21    1    1    2  503  501  0.38625958294E+02 -0.93880498285E+01  0.81635720133E+02  0.90799179155E+02  0.00000000000E+00 0. -1.
</event>
<event>
 4    1  0.2285999E+005  0.2429505E+02  0.7546771E-02  0.1476846E+00
          2   -1    0    0  503    0  0.00000000000E+00  0.00000000000E+00  0.36743224340E+02  0.36743224340E+02  0.00000000000E+00 0.  1.
         21   -1    0    0  501  502 -0.00000000000E+00 -0.00000000000E+00 -0.43974371924E+02  0.43974371924E+02  0.00000000000E+00 0. -1.
          2    1    1    2  501    0 -0.15671239972E+02 -0.18565070797E+02  0.28537303718E+02  0.37478358014E+02  0.00000000000E+00 0.  1.
         21    1    1    2  503  502  0.15671239972E+02  0.18565070797E+02 -0.35768451301E+02  0.43239238250E+02  0.00000000000E+00 0. -1.
</event>
<event>
 4    1  0.2285999E+005  0.2034731E+02  0.7546771E-02  0.1528791E+00
          2   -1    0    0  502    0  0.00000000000E+00  0.00000000000E+00  0.12477241680E+01  0.12477241680E+01  0.00000000000E+00 0. -1.
         21   -1    0    0  503  502 -0.00000000000E+00 -0.00000000000E+00 -0.33190820802E+03  0.33190820802E+03  0.00000000000E+00 0.  1.
          2    1    1    2  501    0  0.18634521331E+02 -0.81711400278E+01 -0.16812987810E+03  0.16935663207E+03  0.00000000000E+00 0. -1.
         21    1    1    2  503  501 -0.18634521331E+02  0.81711400278E+01 -0.16253060576E+03  0.16379930013E+03  0.00000000000E+00 0.  1.
</event>
<event>
 4    1  0.2285999E+005  0.2250413E+02  0.7546771E-02  0.1498820E+00
          2   -1    0    0  502    0  0.00000000000E+00  0.00000000000E+00  0.35346936384E+03  0.35346936384E+03  0.00000000000E+00 0.  1.
         21   -1    0    0  503  502 -0.00000000000E+00 -0.00000000000E+00 -0.64115258412E+01  0.64115258412E+01  0.00000000000E+00 0. -1.
          2    1    1    2  501    0  0.18190279752E+02  0.13249510259E+02  0.33209455036E+03  0.33285616440E+03  0.00000000000E+00 0.  1.
         21    1    1    2  503  501 -0.18190279752E+02 -0.13249510259E+02  0.14963287637E+02  0.27024725280E+02  0.00000000000E+00 0. -1.
</event>
<event>
 4    1  0.2285999E+005  0.5788612E+02  0.7546771E-02  0.1267189E+00
          2   -1    0    0  502    0  0.00000000000E+00  0.00000000000E+00  0.20412130918E+03  0.20412130918E+03  0.00000000000E+00 0.  1.
         21   -1    0    0  503  502 -0.00000000000E+00 -0.00000000000E+00 -0.19138218888E+02  0.19138218888E+02  0.00000000000E+00 0. -1.
          2    1    1    2  501    0 -0.51655200074E+02  0.26125532039E+02  0.13459436695E+03  0.14651432262E+03  0.00000000000E+00 0.  1.
         21    1    1    2  503  501  0.51655200074E+02 -0.26125532039E+02  0.50388723347E+02  0.76745205450E+02  0.00000000000E+00 0. -1.
</event>
<event>
 4    1  0.2285999E+005  0.2138907E+02  0.7546771E-02  0.1513782E+00
          2   -1    0    0  503    0  0.00000000000E+00  0.00000000000E+00  0.12890923913E+02  0.12890923913E+02  0.00000000000E+00 0.  1.
         21   -1    0    0  501  502 -0.00000000000E+00 -0.00000000000E+00 -0.43613005901E+02  0.43613005901E+02  0.00000000000E+00 0.  1.
          2    1    1    2  501    0  0.21135656111E+02  0.32827639253E+01 -0.27554089070E+02  0.34881518354E+02  0.00000000000E+00 0.  1.
         21    1    1    2  503  502 -0.21135656111E+02 -0.32827639253E+01 -0.31679929176E+01  0.21622411460E+02  0.00000000000E+00 0.  1.
</event>
<event>
 4    1  0.2285999E+005  0.2460117E+02  0.7546771E-02  0.1473315E+00
          2   -1    0    0  503    0  0.00000000000E+00  0.00000000000E+00  0.51232110602E+03  0.51232110602E+03  0.00000000000E+00 0. -1.
         21   -1    0    0  501  502 -0.00000000000E+00 -0.00000000000E+00 -0.43190019810E+01  0.43190019810E+01  0.00000000000E+00 0.  1.
          2    1    1    2  501    0 -0.22526633047E+02  0.98877821465E+01  0.47417735609E+03  0.47481510345E+03  0.00000000000E+00 0. -1.
         21    1    1    2  503  502  0.22526633047E+02 -0.98877821465E+01  0.33824747950E+02  0.41825004556E+02  0.00000000000E+00 0.  1.
</event>
<event>
 4    1  0.2285999E+005  0.3259429E+02  0.7546771E-02  0.1398314E+00
          2   -1    0    0  503    0  0.00000000000E+00  0.00000000000E+00  0.14742408152E+03  0.14742408152E+03  0.00000000000E+00 0. -1.
         21   -1    0    0  501  502 -0.00000000000E+00 -0.00000000000E+00 -0.37474783753E+02  0.37474783753E+02  0.00000000000E+00 0. -1.
          2    1    1    2  501    0  0.20456797824E+02  0.25375329827E+02  0.13806100912E+03  0.14185637166E+03  0.00000000000E+00 0. -1.
         21    1    1    2  503  502 -0.20456797824E+02 -0.25375329827E+02 -0.28111711355E+02  0.43042493612E+02  0.00000000000E+00 0. -1.
</event>
<event>
 4    1  0.2285999E+005  0.2284513E+02  0.7546771E-02  0.1494452E+00
          2   -1    0    0  502    0  0.00000000000E+00  0.00000000000E+00  0.67258376749E+03  0.67258376749E+03  0.00000000000E+00 0. -1.
         21   -1    0    0  503  502 -0.00000000000E+00 -0.00000000000E+00 -0.10203480600E+01  0.10203480600E+01  0.00000000000E+00 0. -1.
          2    1    1    2  501    0  0.20587262438E+02 -0.99027628579E+01  0.50061234486E+03  0.50113333546E+03  0.00000000000E+00 0. -1.
         21    1    1    2  503  501 -0.20587262438E+02  0.99027628579E+01  0.17095107457E+03  0.17247078009E+03  0.00000000000E+00 0. -1.
</event>
<event>
 4    1  0.2285999E+005  0.2264186E+02  0.7546771E-02  0.1497045E+00
          2   -1    0    0  502    0  0.00000000000E+00  0.00000000000E+00  0.51431210083E+03  0.51431210083E+03  0.00000000000E+00 0. -1.
         21   -1    0    0  503  502 -0.00000000000E+00 -0.00000000000E+00 -0.11557395848E+01  0.11557395848E+01  0.00000000000E+00 0.  1.
          2    1    1    2  501    0  0.75744938427E+01  0.21337307685E+02  0.35216350375E+03  0.35289061623E+03  0.00000000000E+00 0. -1.
         21    1    1    2  503  501 -0.75744938427E+01 -0.21337307685E+02  0.16099285750E+03  0.16257722418E+03  0.00000000000E+00 0.  1.
</event>
<event>
 4    1  0.2285999E+005  0.3428326E+02  0.7546771E-02  0.1385673E+00
          2   -1    0    0  503    0  0.00000000000E+00  0.00000000000E+00  0.37263546990E+03  0.37263546990E+03  0.00000000000E+00 0.  1.
         21   -1    0    0  501  502 -0.00000000000E+00 -0.00000000000E+00 -0.11520915488E+03  0.11520915488E+03  0.00000000000E+00 0. -1.
          2    1    1    2  501    0 -0.17392307471E+02  0.29544031324E+02  0.36927331189E+03  0.37086132317E+03  0.00000000000E+00 0.  1.
         21    1    1    2  503  502  0.17392307471E+02 -0.29544031324E+02 -0.11184699687E+03  0.11698330161E+03  0.00000000000E+00 0. -1.
</event>
<event>
 4    1  0.2285999E+005  0.4548830E+02  0.7546771E-02  0.1319016E+00
          2   -1    0    0  502    0  0.00000000000E+00  0.00000000000E+00  0.74260843273E+03  0.74260843273E+03  0.00000000000E+00 0.  1.
         21   -1    0    0  503  502 -0.00000000000E+00 -0.00000000000E+00 -0.30411692438E+01  0.30411692438E+01  0.00000000000E+00 0.  1.
          2    1    1    2  501    0  0.18437431953E+01 -0.45450914205E+02  0.47769817389E+03  0.47985907341E+03  0.00000000000E+00 0.  1.
         21    1    1    2  503  501 -0.18437431953E+01  0.45450914205E+02  0.26186908960E+03  0.26579052857E+03  0.00000000000E+00 0.  1.
</event>
<event>
 4    1  0.2285999E+005  0.2924175E+02  0.7546771E-02  0.1426302E+00
          2   -1    0    0  502    0  0.00000000000E+00  0.00000000000E+00  0.86692322659E+03  0.86692322659E+03  0.00000000000E+00 0. -1.
         21   -1    0    0  503  502 -0.00000000000E+00 -0.00000000000E+00 -0.11062199580E+02  0.11062199580E+02  0.00000000000E+00 0. -1.
          2    1    1    2  501    0 -0.29241475931E+02  0.12699264725E+00  0.84689541812E+03  0.84740009988E+03  0.00000000000E+00 0. -1.
         21    1    1    2  503  501  0.29241475931E+02 -0.12699264725E+00  0.89656088937E+01  0.30585326295E+02  0.00000000000E+00 0. -1.
</event>
<event>
 4    1  0.2285999E+005  0.2205376E+02  0.7546771E-02  0.1504735E+00
          2   -1    0    0  503    0  0.00000000000E+00  0.00000000000E+00  0.92761545303E+03  0.92761545303E+03  0.00000000000E+00 0.  1.
         21   -1    0    0  501  502 -0.00000000000E+00 -0.00000000000E+00 -0.12795266847E+01  0.12795266847E+01  0.00000000000E+00 0.  1.
          2    1    1    2  501    0  0.87350056087E+01  0.20250140918E+02  0.81998410115E+03  0.82028061947E+03  0.00000000000E+00 0.  1.
         21    1    1    2  503  502 -0.87350056087E+01 -0.20250140918E+02  0.10635182519E+03  0.10861436025E+03  0.00000000000E+00 0.  1.
</event>
<event>
 4    1  0.2285999E+005  0.2135708E+02  0.7546771E-02  0.1514227E+00
          2   -1    0    0  502    0  0.00000000000E+00  0.00000000000E+00  0.34470105335E+01  0.34470105335E+01  0.00000000000E+00 0. -1.
         21   -1    0    0  503  502 -0.00000000000E+00 -0.00000000000E+00 -0.48852271274E+03  0.48852271274E+03  0.00000000000E+00 0.  1.
          2    1    1    2  501    0  0.15756556592E+01  0.21298878986E+02 -0.32493167695E+02  0.38883555440E+02  0.00000000000E+00 0. -1.
         21    1    1    2  503  501 -0.15756556592E+01 -0.21298878986E+02 -0.45258253451E+03  0.45308616783E+03  0.00000000000E+00 0.  1.
</event>
<event>
 4    1  0.2285999E+005  0.2175083E+02  0.7546771E-02  0.1508809E+00
          2   -1    0    0  502    0  0.00000000000E+00  0.00000000000E+00  0.45511778099E+03  0.45511778099E+03  0.00000000000E+00 0. -1.
         21   -1    0    0  503  502 -0.00000000000E+00 -0.00000000000E+00 -0.79794351566E+01  0.79794351566E+01  0.00000000000E+00 0.  1.
          2    1    1    2  501    0 -0.21733607065E+02  0.86535440806E+00  0.43950940302E+03  0.44004728593E+03  0.00000000000E+00 0. -1.
         21    1    1    2  503  501  0.21733607065E+02 -0.86535440806E+00  0.76289428115E+01  0.23049930211E+02  0.00000000000E+00 0.  1.
</event>
<event>
 4    1  0.2285999E+005  0.2195027E+02  0.7546771E-02  0.1506118E+00
          2   -1    0    0  502    0  0.00000000000E+00  0.00000000000E+00  0.56792121576E+03  0.56792121576E+03  0.00000000000E+00 0.  1.
         21   -1    0    0  503  502 -0.00000000000E+00 -0.00000000000E+00 -0.33392290227E+01  0.33392290227E+01  0.00000000000E+00 0. -1.
          2    1    1    2  501    0 -0.90815781536E+00 -0.21931470181E+02  0.52898271907E+03  0.52943793896E+03  0.00000000000E+00 0.  1.
         21    1    1    2  503  501  0.90815781536E+00  0.21931470181E+02  0.35599267670E+02  0.41822505826E+02  0.00000000000E+00 0. -1.
</event>
<event>
 4    1  0.2285999E+005  0.2630663E+02  0.7546771E-02  0.1454700E+00
          2   -1    0    0  503    0  0.00000000000E+00  0.00000000000E+00  0.10519589575E+04  0.10519589575E+04  0.00000000000E+00 0. -1.
         21   -1    0    0  501  502 -0.00000000000E+00 -0.00000000000E+00 -0.23622023483E+01  0.23622023483E+01  0.00000000000E+00 0.  1.
          2    1    1    2  501    0  0.52926183152E+01  0.25768719719E+02  0.97257679698E+03  0.97293250781E+03  0.00000000000E+00 0. -1.
         21    1    1    2  503  502 -0.52926183152E+01 -0.25768719719E+02  0.77019958205E+02  0.81388652074E+02  0.00000000000E+00 0.  1.
</event>
<event>
 4    1  0.2285999E+005  0.2468967E+02  0.7546771E-02  0.1472305E+00
          2   -1    0    0  502    0  0.00000000000E+00  0.00000000000E+00  0.22117966084E+03  0.22117966084E+03  0.00000000000E+00 0. -1.
         21   -1    0    0  503  502 -0.00000000000E+00 -0.00000000000E+00 -0.41551293088E+01  0.41551293088E+01  0.00000000000E+00 0. -1.
          2    1    1    2  501    0 -0.22578699726E+02  0.99891116002E+01  0.17388982047E+03  0.17563385122E+03  0.00000000000E+00 0. -1.
         21    1    1    2  503  501  0.22578699726E+02 -0.99891116002E+01  0.43134711060E+02  0.49700938925E+02  0.00000000000E+00 0. -1.
</event>
<event>
 4    1  0.2285999E+005  0.3494290E+02  0.7546771E-02  0.1380965E+00
          2   -1    0    0  503    0  0.00000000000E+00  0.00000000000E+00  0.17061238986E+04  0.17061238986E+04  0.00000000000E+00 0.  1.
         21   -1    0    0  501  502 -0.00000000000E+00 -0.00000000000E+00 -0.11139442314E+01  0.11139442314E+01  0.00000000000E+00 0. -1.
          2    1    1    2  501    0 -0.17396131635E+02  0.30304799023E+02  0.13629257612E+04  0.13633736233E+04  0.00000000000E+00 0.  1.
         21    1    1    2  503  502  0.17396131635E+02 -0.30304799023E+02  0.34208419311E+03  0.34386421945E+03  0.00000000000E+00 0. -1.
</event>
<event>
 4    1  0.2285999E+005  0.2133999E+02  0.7546771E-02  0.1514466E+00
          2   -1    0    0  503    0  0.00000000000E+00  0.00000000000E+00  0.23971468027E+03  0.23971468027E+03  0.00000000000E+00 0. -1.
         21   -1    0    0  501  502 -0.00000000000E+00 -0.00000000000E+00 -0.21204542307E+02  0.21204542307E+02  0.00000000000E+00 0. -1.
          2    1    1    2  501    0 -0.10041937321E+01 -0.21316349818E+02  0.23373356329E+03  0.23470571741E+03  0.00000000000E+00 0. -1.
         21    1    1    2  503  502  0.10041937321E+01  0.21316349818E+02 -0.15223425328E+02  0.26213505171E+02  0.00000000000E+00 0. -1.
</event>
<event>
 4    1  0.2285999E+005  0.2389060E+02  0.7546771E-02  0.1481608E+00
          2   -1    0    0  503    0  0.00000000000E+00  0.00000000000E+00  0.16582780696E+03  0.16582780696E+03  0.00000000000E+00 0. -1.
         21   -1    0    0  501  502 -0.00000000000E+00 -0.00000000000E+00 -0.40602514913E+03  0.40602514913E+03  0.00000000000E+00 0.  1.
          2    1    1    2  501    0 -0.22065828429E+02 -0.91575064686E+01  0.16461332386E+03  0.16633793043E+03  0.00000000000E+00 0. -1.
         21    1    1    2  503  502  0.22065828429E+02  0.91575064686E+01 -0.40481066603E+03  0.40551502566E+03  0.00000000000E+00 0.  1.
</event>
<event>
 4    1  0.2285999E+005  0.2454706E+02  0.7546771E-02  0.1473935E+00
          2   -1    0    0  503    0  0.00000000000E+00  0.00000000000E+00  0.10022628239E+04  0.10022628239E+04  0.00000000000E+00 0.  1.
         21   -1    0    0  501  502 -0.00000000000E+00 -0.00000000000E+00 -0.69894720828E+00  0.69894720828E+00  0.00000000000E+00 0.  1.
          2    1    1    2  501    0  0.12015711527E+02  0.21405157257E+02  0.31324382599E+03  0.31420415752E+03  0.00000000000E+00 0.  1.
         21    1    1    2  503  502 -0.12015711527E+02 -0.21405157257E+02  0.68832005071E+03  0.68875761360E+03  0.00000000000E+00 0.  1.
</event>
<event>
 4    1  0.2285999E+005  0.4266686E+02  0.7546771E-02  0.1333529E+00
          2   -1    0    0  502    0  0.00000000000E+00  0.00000000000E+00  0.16249391124E+04  0.16249391124E+04  0.00000000000E+00 0. -1.
         21   -1    0    0  503  502 -0.00000000000E+00 -0.00000000000E+00 -0.30745149952E+01  0.30745149952E+01  0.00000000000E+00 0.  1.
          2    1    1    2  501    0 -0.18371711578E+02  0.38508974218E+02  0.14598999642E+04  0.14605233194E+04  0.00000000000E+00 0. -1.
         21    1    1    2  503  501  0.18371711578E+02 -0.38508974218E+02  0.16196463323E+03  0.16749030808E+03  0.00000000000E+00 0.  1.
</event>
<event>
 4    1  0.2285999E+005  0.2308103E+02  0.7546771E-02  0.1491483E+00
          2   -1    0    0  503    0  0.00000000000E+00  0.00000000000E+00  0.12411312651E+03  0.12411312651E+03  0.00000000000E+00 0.  1.
         21   -1    0    0  501  502 -0.00000000000E+00 -0.00000000000E+00 -0.43021416468E+01  0.43021416468E+01  0.00000000000E+00 0.  1.
          2    1    1    2  501    0 -0.17395680676E+01  0.23015380657E+02  0.62972618186E+02  0.67069251412E+02  0.00000000000E+00 0.  1.
         21    1    1    2  503  502  0.17395680676E+01 -0.23015380657E+02  0.56838366674E+02  0.61346016741E+02  0.00000000000E+00 0.  1.
</event>
<event>
 4    1  0.2285999E+005  0.2210177E+02  0.7546771E-02  0.1504096E+00
          2   -1    0    0  503    0  0.00000000000E+00  0.00000000000E+00  0.21680363151E+03  0.21680363151E+03  0.00000000000E+00 0. -1.
         21   -1    0    0  501  502 -0.00000000000E+00 -0.00000000000E+00 -0.79181647953E+01  0.79181647953E+01  0.00000000000E+00 0. -1.
          2    1    1    2  501    0  0.14099931137E+02  0.17019996789E+02  0.19948219007E+03  0.20070284628E+03  0.00000000000E+00 0. -1.
         21    1    1    2  503  502 -0.14099931137E+02 -0.17019996789E+02  0.94032766443E+01  0.24018950027E+02  0.00000000000E+00 0. -1.
</event>
<event>
 4    1  0.2285999E+005  0.2615426E+02  0.7546771E-02  0.1456294E+00
          2   -1    0    0  503    0  0.00000000000E+00  0.00000000000E+00  0.28557612089E+03  0.28557612089E+03  0.00000000000E+00 0. -1.
         21   -1    0    0  501  502 -0.00000000000E+00 -0.00000000000E+00 -0.13382582933E+03  0.13382582933E+03  0.00000000000E+00 0. -1.
          2    1    1    2  501    0  0.23406003225E+02 -0.11670656083E+02  0.28369095345E+03  0.28489401937E+03  0.00000000000E+00 0. -1.
         21    1    1    2  503  502 -0.23406003225E+02  0.11670656083E+02 -0.13194066190E+03  0.13450793085E+03  0.00000000000E+00 0. -1.
</event>
<event>
 4    1  0.2285999E+005  0.2642031E+02  0.7546771E-02  0.1453520E+00
          2   -1    0    0  503    0  0.00000000000E+00  0.00000000000E+00  0.59135717536E+03  0.59135717536E+03  0.00000000000E+00 0. -1.
         21   -1    0    0  501  502 -0.00000000000E+00 -0.00000000000E+00 -0.11108749648E+02  0.11108749648E+02  0.00000000000E+00 0.  1.
          2    1    1    2  501    0 -0.13268621720E+02 -0.22846801039E+02  0.57490365405E+03  0.57551042048E+03  0.00000000000E+00 0. -1.
         21    1    1    2  503  502  0.13268621720E+02  0.22846801039E+02  0.53447716568E+01  0.26955504523E+02  0.00000000000E+00 0.  1.
</event>
<event>
 4    1  0.2285999E+005  0.2101055E+02  0.7546771E-02  0.1519114E+00
          2   -1    0    0  502    0  0.00000000000E+00  0.00000000000E+00  0.31616936085E+03  0.31616936085E+03  0.00000000000E+00 0. -1.
         21   -1    0    0  503  502 -0.00000000000E+00 -0.00000000000E+00 -0.34299864736E+03  0.34299864736E+03  0.00000000000E+00 0.  1.
          2    1    1    2  501    0 -0.76852019534E+01 -0.19554564958E+02  0.31549786776E+03  0.31619669179E+03  0.00000000000E+00 0. -1.
         21    1    1    2  503  501  0.76852019534E+01  0.19554564958E+02 -0.34232715427E+03  0.34297131643E+03  0.00000000000E+00 0.  1.
</event>
<event>
 4    1  0.2285999E+005  0.2131629E+02  0.7546771E-02  0.1514797E+00
          2   -1    0    0  503    0  0.00000000000E+00  0.00000000000E+00  0.14218102294E+04  0.14218102294E+04  0.00000000000E+00 0.  1.
         21   -1    0    0  501  502 -0.00000000000E+00 -0.00000000000E+00 -0.43025504608E+00  0.43025504608E+00  0.00000000000E+00 0.  1.
          2    1    1    2  501    0  0.16870153536E+01 -0.21249429904E+02  0.10713532470E+04  0.10715652870E+04  0.00000000000E+00 0.  1.
         21    1    1    2  503  502 -0.16870153536E+01  0.21249429904E+02  0.35002672731E+03  0.35067519748E+03  0.00000000000E+00 0.  1.
</event>
<event>
 4    1  0.2285999E+005  0.2132379E+02  0.7546771E-02  0.1514692E+00
          2   -1    0    0  502    0  0.00000000000E+00  0.00000000000E+00  0.12575430885E+04  0.12575430885E+04  0.00000000000E+00 0. -1.
         21   -1    0    0  503  502 -0.00000000000E+00 -0.00000000000E+00 -0.38681350442E+00  0.38681350442E+00  0.00000000000E+00 0.  1.
          2    1    1    2  501    0 -0.10344896676E+02 -0.18646373331E+02  0.78921781067E+03  0.78950583076E+03  0.00000000000E+00 0. -1.
         21    1    1    2  503  501  0.10344896676E+02  0.18646373331E+02  0.46793846432E+03  0.46842407124E+03  0.00000000000E+00 0.  1.
</event>
<event>
 4    1  0.2285999E+005  0.2085762E+02  0.7546771E-02  0.1521307E+00
          2   -1    0    0  503    0  0.00000000000E+00  0.00000000000E+00  0.83723700428E+02  0.83723700428E+02  0.00000000000E+00 0.  1.
         21   -1    0    0  501  502 -0.00000000000E+00 -0.00000000000E+00 -0.66240273326E+02  0.66240273326E+02  0.00000000000E+00 0. -1.
          2    1    1    2  501    0 -0.14384314077E+02 -0.15104030935E+02  0.80722708451E+02  0.83373832236E+02  0.00000000000E+00 0.  1.
         21    1    1    2  503  502  0.14384314077E+02  0.15104030935E+02 -0.63239281349E+02  0.66590141519E+02  0.00000000000E+00 0. -1.
</event>
<event>
 4    1  0.2285999E+005  0.2355964E+02  0.7546771E-02  0.1485588E+00
          2   -1    0    0  503    0  0.00000000000E+00  0.00000000000E+00  0.68690231078E+03  0.68690231078E+03  0.00000000000E+00 0.  1.
         21   -1    0    0  501  502 -0.00000000000E+00 -0.00000000000E+00 -0.17435045945E+01  0.17435045945E+01  0.00000000000E+00 0. -1.
          2    1    1    2  501    0  0.19049483485E+02 -0.13862684177E+02  0.59479032704E+03  0.59525674291E+03  0.00000000000E+00 0.  1.
         21    1    1    2  503  502 -0.19049483485E+02  0.13862684177E+02  0.90368479148E+02  0.93389072472E+02  0.00000000000E+00 0. -1.
</event>
<event>
 4    1  0.2285999E+005  0.2233698E+02  0.7546771E-02  0.1500996E+00
          2   -1    0    0  503    0  0.00000000000E+00  0.00000000000E+00  0.10529099886E+04  0.10529099886E+04  0.00000000000E+00 0. -1.
         21   -1    0    0  501  502 -0.00000000000E+00 -0.00000000000E+00 -0.54707368072E+00  0.54707368072E+00  0.00000000000E+00 0. -1.
          2    1    1    2  501    0  0.21070157598E+02 -0.74154510656E+01  0.71886118679E+03  0.71920813839E+03  0.00000000000E+00 0. -1.
         21    1    1    2  503  502 -0.21070157598E+02  0.74154510656E+01  0.33350172810E+03  0.33424892386E+03  0.00000000000E+00 0. -1.
</event>
<event>
 4    1  0.2285999E+005  0.2267062E+02  0.7546771E-02  0.1496676E+00
          2   -1    0    0  502    0  0.00000000000E+00  0.00000000000E+00  0.61470286186E+01  0.61470286186E+01  0.00000000000E+00 0.  1.
         21   -1    0    0  503  502 -0.00000000000E+00 -0.00000000000E+00 -0.11815375126E+03  0.11815375126E+03  0.00000000000E+00 0. -1.
          2    1    1    2  501    0  0.77638777362E+01 -0.21299749607E+02 -0.22398609741E+02  0.31869340268E+02  0.00000000000E+00 0.  1.
         21    1    1    2  503  501 -0.77638777362E+01  0.21299749607E+02 -0.89608112906E+02  0.92431439615E+02  0.00000000000E+00 0. -1.
</event>
<event>
 4    1  0.2285999E+005  0.2392006E+02  0.7546771E-02  0.1481257E+00
          2   -1    0    0  502    0  0.00000000000E+00  0.00000000000E+00  0.49460921082E+03  0.49460921082E+03  0.00000000000E+00 0. -1.
         21   -1    0    0  503  502 -0.00000000000E+00 -0.00000000000E+00 -0.21292374756E+01  0.21292374756E+01  0.00000000000E+00 0.  1.
          2    1    1    2  501    0 -0.67738269901E+01  0.22940887099E+02  0.41408725285E+03  0.41477755726E+03  0.00000000000E+00 0. -1.
         21    1    1    2  503  501  0.67738269901E+01 -0.22940887099E+02  0.78392720491E+02  0.81960891033E+02  0.00000000000E+00 0.  1.
</event>
<event>
 4    1  0.2285999E+005  0.2195613E+02  0.7546771E-02  0.1506039E+00
          2   -1    0    0  503    0  0.00000000000E+00  0.00000000000E+00  0.47694705195E+03  0.47694705195E+03  0.00000000000E+00 0. -1.
         21   -1    0    0  501  502 -0.00000000000E+00 -0.00000000000E+00 -0.10586254040E+02  0.10586254040E+02  0.00000000000E+00 0.  1.
          2    1    1    2  501    0 -0.70597930319E+01 -0.20790163721E+02  0.46501811322E+03  0.46553616101E+03  0.00000000000E+00 0. -1.
         21    1    1    2  503  502  0.70597930319E+01  0.20790163721E+02  0.13426846937E+01  0.21997144983E+02  0.00000000000E+00 0.  1.
</event>
<event>
 4    1  0.2285999E+005  0.4233767E+02  0.7546771E-02  0.1335306E+00
          2   -1    0    0  503    0  0.00000000000E+00  0.00000000000E+00  0.10293561808E+04  0.10293561808E+04  0.00000000000E+00 0. -1.
         21   -1    0    0  501  502 -0.00000000000E+00 -0.00000000000E+00 -0.38337464976E+01  0.38337464976E+01  0.00000000000E+00 0. -1.
          2    1    1    2  501    0  0.39652045110E+02 -0.14838918292E+02  0.89440621762E+03  0.89540770618E+03  0.00000000000E+00 0. -1.
         21    1    1    2  503  502 -0.39652045110E+02  0.14838918292E+02  0.13111621666E+03  0.13778222109E+03  0.00000000000E+00 0. -1.
</event>
<event>
 4    1  0.2285999E+005  0.3674941E+02  0.7546771E-02  0.1368664E+00
          2   -1    0    0  502    0  0.00000000000E+00  0.00000000000E+00  0.98382200013E+03  0.98382200013E+03  0.00000000000E+00 0. -1.
         21   -1    0    0  503  502 -0.00000000000E+00 -0.00000000000E+00 -0.10288322492E+02  0.10288322492E+02  0.00000000000E+00 0.  1.
          2    1    1    2  501    0 -0.32098653931E+02 -0.17894014770E+02  0.94947533414E+03  0.95018626042E+03  0.00000000000E+00 0. -1.
         21    1    1    2  503  501  0.32098653931E+02  0.17894014770E+02  0.24058343504E+02  0.43924062209E+02  0.00000000000E+00 0.  1.
</event>
<event>
 4    1  0.2285999E+005  0.3387040E+02  0.7546771E-02  0.1388683E+00
          2   -1    0    0  502    0  0.00000000000E+00  0.00000000000E+00  0.13063452646E+04  0.13063452646E+04  0.00000000000E+00 0.  1.
         21   -1    0    0  503  502 -0.00000000000E+00 -0.00000000000E+00 -0.17354151435E+03  0.17354151435E+03  0.00000000000E+00 0. -1.
          2    1    1    2  501    0  0.48755164941E+01  0.33517657633E+02  0.13044707092E+04  0.13049103553E+04  0.00000000000E+00 0.  1.
         21    1    1    2  503  501 -0.48755164941E+01 -0.33517657633E+02 -0.17166695899E+03  0.17497642368E+03  0.00000000000E+00 0. -1.
</event>
<event>
 4    1  0.2285999E+005  0.2487142E+02  0.7546771E-02  0.1470247E+00
          2   -1    0    0  503    0  0.00000000000E+00  0.00000000000E+00  0.17718473612E+01  0.17718473612E+01  0.00000000000E+00 0. -1.
         21   -1    0    0  501  502 -0.00000000000E+00 -0.00000000000E+00 -0.34979792991E+03  0.34979792991E+03  0.00000000000E+00 0. -1.
          2    1    1    2  501    0  0.23846777170E+02 -0.70653047811E+01 -0.18175181475E+03  0.18344565810E+03  0.00000000000E+00 0. -1.
         21    1    1    2  503  502 -0.23846777170E+02  0.70653047811E+01 -0.16627426780E+03  0.16812411917E+03  0.00000000000E+00 0. -1.
</event>
<event>
 4    1  0.2285999E+005  0.3222918E+02  0.7546771E-02  0.1401165E+00
          2   -1    0    0  503    0  0.00000000000E+00  0.00000000000E+00  0.10552778693E+04  0.10552778693E+04  0.00000000000E+00 0.  1.
         21   -1    0    0  501  502 -0.00000000000E+00 -0.00000000000E+00 -0.17896867467E+01  0.17896867467E+01  0.00000000000E+00 0. -1.
          2    1    1    2  501    0  0.24248512929E+01 -0.32137832135E+02  0.88129931027E+03  0.88188842516E+03  0.00000000000E+00 0.  1.
         21    1    1    2  503  502 -0.24248512929E+01  0.32137832135E+02  0.17218887228E+03  0.17517913088E+03  0.00000000000E+00 0. -1.
</event>
<event>
 4    1  0.2285999E+005  0.2494677E+02  0.7546771E-02  0.1469400E+00
          2   -1    0    0  503    0  0.00000000000E+00  0.00000000000E+00  0.10624206461E+04  0.10624206461E+04  0.00000000000E+00 0.  1.
         21   -1    0    0  501  502 -0.00000000000E+00 -0.00000000000E+00 -0.60995707165E+00  0.60995707165E+00  0.00000000000E+00 0.  1.
          2    1    1    2  501    0  0.17939297524E+02 -0.17335591469E+02  0.42507779374E+03  0.42580919654E+03  0.00000000000E+00 0.  1.
         21    1    1    2  503  502 -0.17939297524E+02  0.17335591469E+02  0.63673289525E+03  0.63722140659E+03  0.00000000000E+00 0.  1.
</event>
<event>
 4    1  0.2285999E+005  0.2204647E+02  0.7546771E-02  0.1504832E+00
          2   -1    0    0  503    0  0.00000000000E+00  0.00000000000E+00  0.42759393849E+03  0.42759393849E+03  0.00000000000E+00 0.  1.
         21   -1    0    0  501  502 -0.00000000000E+00 -0.00000000000E+00 -0.22479343982E+01  0.22479343982E+01  0.00000000000E+00 0. -1.
          2    1    1    2  501    0  0.20465530956E+02 -0.81980891587E+01  0.36378170395E+03  0.36444913877E+03  0.00000000000E+00 0.  1.
         21    1    1    2  503  502 -0.20465530956E+02  0.81980891587E+01  0.61564300142E+02  0.65392734116E+02  0.00000000000E+00 0. -1.
</event>
<event>
 4    1  0.2285999E+005  0.2266989E+02  0.7546771E-02  0.1496686E+00
          2   -1    0    0  503    0  0.00000000000E+00  0.00000000000E+00  0.47001620009E+03  0.47001620009E+03  0.00000000000E+00 0. -1.
         21   -1    0    0  501  502 -0.00000000000E+00 -0.00000000000E+00 -0.10990780647E+03  0.10990780647E+03  0.00000000000E+00 0. -1.
          2    1    1    2  501    0  0.18572597697E+02  0.12999319947E+02  0.46857025242E+03  0.46911832746E+03  0.00000000000E+00 0. -1.
         21    1    1    2  503  502 -0.18572597697E+02 -0.12999319947E+02 -0.10846185880E+03  0.11080567909E+03  0.00000000000E+00 0. -1.
</event>
<event>
 4    1  0.2285999E+005  0.2549500E+02  0.7546771E-02  0.1463341E+00
          2   -1    0    0  503    0  0.00000000000E+00  0.00000000000E+00  0.83887235525E+03  0.83887235525E+03  0.00000000000E+00 0.  1.
         21   -1    0    0  501  502 -0.00000000000E+00 -0.00000000000E+00 -0.19482717902E+01  0.19482717902E+01  0.00000000000E+00 0.  1.
          2    1    1    2  501    0  0.23717998876E+02 -0.93515549731E+01  0.74473179197E+03  0.74516805958E+03  0.00000000000E+00 0.  1.
         21    1    1    2  503  502 -0.23717998876E+02  0.93515549731E+01  0.92192291492E+02  0.95652567460E+02  0.00000000000E+00 0.  1.
</event>
<event>
 4    1  0.2285999E+005  0.2968775E+02  0.7546771E-02  0.1422330E+00
          2   -1    0    0  502    0  0.00000000000E+00  0.00000000000E+00  0.12026308406E+04  0.12026308406E+04  0.00000000000E+00 0.  1.
         21   -1    0    0  503  502 -0.00000000000E+00 -0.00000000000E+00 -0.25125947584E+01  0.25125947584E+01  0.00000000000E+00 0.  1.
          2    1    1    2  501    0  0.28066067666E+02 -0.96777109655E+01  0.11071957016E+04  0.11075936456E+04  0.00000000000E+00 0.  1.
         21    1    1    2  503  501 -0.28066067666E+02  0.96777109655E+01  0.92922544243E+02  0.97549789709E+02  0.00000000000E+00 0.  1.
</event>
<event>
 4    1  0.2285999E+005  0.3430513E+02  0.7546771E-02  0.1385515E+00
          2   -1    0    0  502    0  0.00000000000E+00  0.00000000000E+00  0.17770977040E+04  0.17770977040E+04  0.00000000000E+00 0. -1.
         21   -1    0    0  503  502 -0.00000000000E+00 -0.00000000000E+00 -0.12631014922E+01  0.12631014922E+01  0.00000000000E+00 0.  1.
          2    1    1    2  501    0  0.15184316704E+02  0.30761642323E+02  0.15012027156E+04  0.15015946309E+04  0.00000000000E+00 0. -1.
         21    1    1    2  503  501 -0.15184316704E+02 -0.30761642323E+02  0.27463188689E+03  0.27676617462E+03  0.00000000000E+00 0.  1.
</event>
<event>
 4    1  0.2285999E+005  0.3019931E+02  0.7546771E-02  0.1417872E+00
          2   -1    0    0  502    0  0.00000000000E+00  0.00000000000E+00  0.13095450254E+04  0.13095450254E+04  0.00000000000E+00 0.  1.
         21   -1    0    0  503  502 -0.00000000000E+00 -0.00000000000E+00 -0.19205858214E+02  0.19205858214E+02  0.00000000000E+00 0. -1.
          2    1    1    2  501    0  0.30144092787E+02 -0.18253848289E+01  0.12973883420E+04  0.12977397691E+04  0.00000000000E+00 0.  1.
         21    1    1    2  503  501 -0.30144092787E+02  0.18253848289E+01 -0.70491747848E+01  0.31011114538E+02  0.00000000000E+00 0. -1.
</event>
<event>
 4    1  0.2285999E+005  0.2114051E+02  0.7546771E-02  0.1517268E+00
          2   -1    0    0  503    0  0.00000000000E+00  0.00000000000E+00  0.10223527525E+04  0.10223527525E+04  0.00000000000E+00 0.  1.
         21   -1    0    0  501  502 -0.00000000000E+00 -0.00000000000E+00 -0.36363198696E+01  0.36363198696E+01  0.00000000000E+00 0. -1.
          2    1    1    2  501    0 -0.15740215211E+02 -0.14112639111E+02  0.99053026021E+03  0.99075583135E+03  0.00000000000E+00 0.  1.
         21    1    1    2  503  502  0.15740215211E+02  0.14112639111E+02  0.28186172446E+02  0.35233241048E+02  0.00000000000E+00 0. -1.
</event>
<event>
 4    1  0.2285999E+005  0.2605572E+02  0.7546771E-02  0.1457331E+00
          2   -1    0    0  502    0  0.00000000000E+00  0.00000000000E+00  0.12885751869E+04  0.12885751869E+04  0.00000000000E+00 0. -1.
         21   -1    0    0  503  502 -0.00000000000E+00 -0.00000000000E+00 -0.13958776198E+02  0.13958776198E+02  0.00000000000E+00 0.  1.
          2    1    1    2  501    0  0.81075980358E+00  0.26043101445E+02  0.12761662286E+04  0.12764321930E+04  0.00000000000E+00 0. -1.
         21    1    1    2  503  501 -0.81075980358E+00 -0.26043101445E+02 -0.15498178828E+01  0.26101770051E+02  0.00000000000E+00 0.  1.
</event>
<event>
 4    1  0.2285999E+005  0.3219676E+02  0.7546771E-02  0.1401420E+00
          2   -1    0    0  503    0  0.00000000000E+00  0.00000000000E+00  0.19700388789E+04  0.19700388789E+04  0.00000000000E+00 0. -1.
         21   -1    0    0  501  502 -0.00000000000E+00 -0.00000000000E+00 -0.35111138500E+02  0.35111138500E+02  0.00000000000E+00 0.  1.
          2    1    1    2  501    0  0.31103652992E+02 -0.83182906136E+01  0.19624978984E+04  0.19627619908E+04  0.00000000000E+00 0. -1.
         21    1    1    2  503  502 -0.31103652992E+02  0.83182906136E+01 -0.27570158008E+02  0.42388026621E+02  0.00000000000E+00 0.  1.
</event>
<event>
 4    1  0.2285999E+005  0.2275487E+02  0.7546771E-02  0.1495599E+00
          2   -1    0    0  503    0  0.00000000000E+00  0.00000000000E+00  0.43157196751E+03  0.43157196751E+03  0.00000000000E+00 0. -1.
         21   -1    0    0  501  502 -0.00000000000E+00 -0.00000000000E+00 -0.53517366333E+01  0.53517366333E+01  0.00000000000E+00 0. -1.
          2    1    1    2  501    0 -0.14832563952E+02 -0.17256277109E+02  0.40553247738E+03  0.40617037590E+03  0.00000000000E+00 0. -1.
         21    1    1    2  503  502  0.14832563952E+02  0.17256277109E+02  0.20687753501E+02  0.30753328242E+02  0.00000000000E+00 0. -1.
</event>
<event>
 4    1  0.2285999E+005  0.3188029E+02  0.7546771E-02  0.1403931E+00
          2   -1    0    0  503    0  0.00000000000E+00  0.00000000000E+00  0.23117372997E+03  0.23117372997E+03  0.00000000000E+00 0. -1.
         21   -1    0    0  501  502 -0.00000000000E+00 -0.00000000000E+00 -0.49354630177E+01  0.49354630177E+01  0.00000000000E+00 0. -1.
          2    1    1    2  501    0  0.28479430176E+02  0.14327412813E+02  0.74106706455E+02  0.80673146974E+02  0.00000000000E+00 0. -1.
         21    1    1    2  503  502 -0.28479430176E+02 -0.14327412813E+02  0.15213156050E+03  0.15543604602E+03  0.00000000000E+00 0. -1.
</event>
<event>
 4    1  0.2285999E+005  0.2191357E+02  0.7546771E-02  0.1506610E+00
          2   -1    0    0  503    0  0.00000000000E+00  0.00000000000E+00  0.20471365285E+03  0.20471365285E+03  0.00000000000E+00 0.  1.
         21   -1    0    0  501  502 -0.00000000000E+00 -0.00000000000E+00 -0.69833835377E+01  0.69833835377E+01  0.00000000000E+00 0. -1.
          2    1    1    2  501    0 -0.16169937666E+02  0.14789788892E+02  0.18512337174E+03  0.18641584563E+03  0.00000000000E+00 0.  1.
         21    1    1    2  503  502  0.16169937666E+02 -0.14789788892E+02  0.12606897578E+02  0.25281190758E+02  0.00000000000E+00 0. -1.
</event>
<event>
 4    1  0.2285999E+005  0.2297952E+02  0.7546771E-02  0.1492755E+00
          2   -1    0    0  503    0  0.00000000000E+00  0.00000000000E+00  0.91998712811E+02  0.91998712811E+02  0.00000000000E+00 0.  1.
         21   -1    0    0  501  502 -0.00000000000E+00 -0.00000000000E+00 -0.19389616724E+03  0.19389616724E+03  0.00000000000E+00 0. -1.
          2    1    1    2  501    0 -0.22977168753E+02  0.32883551043E+00  0.89867004748E+02  0.92758487261E+02  0.00000000000E+00 0.  1.
         21    1    1    2  503  502  0.22977168753E+02 -0.32883551043E+00 -0.19176445918E+03  0.19313639279E+03  0.00000000000E+00 0. -1.
</event>
<event>
 4    1  0.2285999E+005  0.2602882E+02  0.7546771E-02  0.1457615E+00
          2   -1    0    0  502    0  0.00000000000E+00  0.00000000000E+00  0.13282670534E+04  0.13282670534E+04  0.00000000000E+00 0.  1.
         21   -1    0    0  503  502 -0.00000000000E+00 -0.00000000000E+00 -0.10196824806E+01  0.10196824806E+01  0.00000000000E+00 0. -1.
          2    1    1    2  501    0  0.25746135184E+02  0.38256725219E+01  0.11334955163E+04  0.11337943309E+04  0.00000000000E+00 0.  1.
         21    1    1    2  503  501 -0.25746135184E+02 -0.38256725219E+01  0.19375185458E+03  0.19549240497E+03  0.00000000000E+00 0. -1.
</event>
<event>
 4    1  0.2285999E+005  0.8383089E+02  0.7546771E-02  0.1195223E+00
          2   -1    0    0  503    0  0.00000000000E+00  0.00000000000E+00  0.11689288433E+03  0.11689288433E+03  0.00000000000E+00 0.  1.
         21   -1    0    0  501  502 -0.00000000000E+00 -0.00000000000E+00 -0.66526854689E+02  0.66526854689E+02  0.00000000000E+00 0.  1.
          2    1    1    2  501    0 -0.53828355044E+02 -0.64266054427E+02  0.53643020711E+02  0.99524827201E+02  0.00000000000E+00 0.  1.
         21    1    1    2  503  502  0.53828355044E+02  0.64266054427E+02 -0.32769910711E+01  0.83894911817E+02  0.00000000000E+00 0.  1.
</event>
<event>
 4    1  0.2285999E+005  0.2079085E+02  0.7546771E-02  0.1522272E+00
          2   -1    0    0  503    0  0.00000000000E+00  0.00000000000E+00  0.27244268052E+03  0.27244268052E+03  0.00000000000E+00 0. -1.
         21   -1    0    0  501  502 -0.00000000000E+00 -0.00000000000E+00 -0.68563566407E+01  0.68563566407E+01  0.00000000000E+00 0. -1.
          2    1    1    2  501    0  0.10145199857E+02  0.18147569751E+02  0.25522313359E+03  0.25606855975E+03  0.00000000000E+00 0. -1.
         21    1    1    2  503  502 -0.10145199857E+02 -0.18147569751E+02  0.10363190281E+02  0.23230477412E+02  0.00000000000E+00 0. -1.
</event>
<event>
 4    1  0.2285999E+005  0.3425936E+02  0.7546771E-02  0.1385846E+00
          2   -1    0    0  502    0  0.00000000000E+00  0.00000000000E+00  0.80020723252E+01  0.80020723252E+01  0.00000000000E+00 0.  1.
         21   -1    0    0  503  502 -0.00000000000E+00 -0.00000000000E+00 -0.14752258082E+03  0.14752258082E+03  0.00000000000E+00 0. -1.
          2    1    1    2  501    0 -0.25805031715E+02  0.22534501838E+02 -0.75654758852E+02  0.83050261721E+02  0.00000000000E+00 0.  1.
         21    1    1    2  503  501  0.25805031715E+02 -0.22534501838E+02 -0.63865749644E+02  0.72474391426E+02  0.00000000000E+00 0. -1.
</event>
<event>
 4    1  0.2285999E+005  0.3577221E+02  0.7546771E-02  0.1375214E+00
          2   -1    0    0  502    0  0.00000000000E+00  0.00000000000E+00  0.66775000540E+03  0.66775000540E+03  0.00000000000E+00 0. -1.
         21   -1    0    0  503  502 -0.00000000000E+00 -0.00000000000E+00 -0.17220672784E+04  0.17220672784E+04  0.00000000000E+00 0. -1.
          2    1    1    2  501    0  0.17429543155E+02 -0.31238796107E+02  0.66708495704E+03  0.66804340523E+03  0.00000000000E+00 0. -1.
         21    1    1    2  503  501 -0.17429543155E+02  0.31238796107E+02 -0.17214022300E+04  0.17217738786E+04  0.00000000000E+00 0. -1.
</event>
<event>
 4    1  0.2285999E+005  0.2398445E+02  0.7546771E-02  0.1480493E+00
          2   -1    0    0  502    0  0.00000000000E+00  0.00000000000E+00  0.10775331641E+04  0.10775331641E+04  0.00000000000E+00 0.  1.
         21   -1    0    0  503  502 -0.00000000000E+00 -0.00000000000E+00 -0.26678808316E+01  0.26678808316E+01  0.00000000000E+00 0. -1.
          2    1    1    2  501    0 -0.19215078693E+02 -0.14353899111E+02  0.10204809216E+04  0.10207627369E+04  0.00000000000E+00 0.  1.
         21    1    1    2  503  501  0.19215078693E+02  0.14353899111E+02  0.54384361649E+02  0.59438308025E+02  0.00000000000E+00 0. -1.
</event>
<event>
 4    1  0.2285999E+005  0.3269574E+02  0.7546771E-02  0.1397529E+00
          2   -1    0    0  502    0  0.00000000000E+00  0.00000000000E+00  0.50593159391E+03  0.50593159391E+03  0.00000000000E+00 0.  1.
         21   -1    0    0  503  502 -0.00000000000E+00 -0.00000000000E+00 -0.79487321882E+01  0.79487321882E+01  0.00000000000E+00 0. -1.
          2    1    1    2  501    0  0.31950845180E+02 -0.69393552257E+01  0.46914837053E+03  0.47028630081E+03  0.00000000000E+00 0.  1.
         21    1    1    2  503  501 -0.31950845180E+02  0.69393552257E+01  0.28834491195E+02  0.43594025292E+02  0.00000000000E+00 0. -1.
</event>
<event>
 4    1  0.2285999E+005  0.2517995E+02  0.7546771E-02  0.1466800E+00
          2   -1    0    0  503    0  0.00000000000E+00  0.00000000000E+00  0.14638298571E+04  0.14638298571E+04  0.00000000000E+00 0.  1.
         21   -1    0    0  501  502 -0.00000000000E+00 -0.00000000000E+00 -0.20259245943E+01  0.20259245943E+01  0.00000000000E+00 0. -1.
          2    1    1    2  501    0 -0.12508372979E+02 -0.21853386285E+02  0.13807762914E+04  0.13810058641E+04  0.00000000000E+00 0.  1.
         21    1    1    2  503  502  0.12508372979E+02  0.21853386285E+02  0.81027641139E+02  0.84849917592E+02  0.00000000000E+00 0. -1.
</event>
<event>
 4    1  0.2285999E+005  0.2773045E+02  0.7546771E-02  0.1440405E+00
          2   -1    0    0  503    0  0.00000000000E+00  0.00000000000E+00  0.12115978358E+03  0.12115978358E+03  0.00000000000E+00 0.  1.
         21   -1    0    0  501  502 -0.00000000000E+00 -0.00000000000E+00 -0.72059391719E+01  0.72059391719E+01  0.00000000000E+00 0.  1.
          2    1    1    2  501    0  0.26787274184E+02 -0.71707746260E+01  0.34815218971E+02  0.44509297219E+02  0.00000000000E+00 0.  1.
         21    1    1    2  503  502 -0.26787274184E+02  0.71707746260E+01  0.79138625434E+02  0.83856425530E+02  0.00000000000E+00 0.  1.
</event>
<event>
 4    1  0.2285999E+005  0.2102691E+02  0.7546771E-02  0.1518881E+00
          2   -1    0    0  503    0  0.00000000000E+00  0.00000000000E+00  0.10298726308E+04  0.10298726308E+04  0.00000000000E+00 0.  1.
         21   -1    0    0  501  502 -0.00000000000E+00 -0.00000000000E+00 -0.60092067238E+01  0.60092067238E+01  0.00000000000E+00 0.  1.
          2    1    1    2  501    0  0.15903961319E+02  0.13754811504E+02  0.10110286143E+04  0.10112472446E+04  0.00000000000E+00 0.  1.
         21    1    1    2  503  502 -0.15903961319E+02 -0.13754811504E+02  0.12834809767E+02  0.24634592891E+02  0.00000000000E+00 0.  1.
</event>
<event>
 4    1  0.2285999E+005  0.2239758E+02  0.7546771E-02  0.1500205E+00
          2   -1    0    0  503    0  0.00000000000E+00  0.00000000000E+00  0.64043343083E+02  0.64043343083E+02  0.00000000000E+00 0. -1.
         21   -1    0    0  501  502 -0.00000000000E+00 -0.00000000000E+00 -0.13624948214E+03  0.13624948214E+03  0.00000000000E+00 0.  1.
          2    1    1    2  501    0 -0.41208966958E+01 -0.22015216587E+02  0.61122019578E+02  0.65096488602E+02  0.00000000000E+00 0. -1.
         21    1    1    2  503  502  0.41208966958E+01  0.22015216587E+02 -0.13332815864E+03  0.13519633663E+03  0.00000000000E+00 0.  1.
</event>
<event>
 4    1  0.2460525E+005  0.2193196E+02  0.7546771E-02  0.1506363E+00
          2   -1    0    0  502    0  0.00000000000E+00  0.00000000000E+00  0.88510628970E+03  0.88510628970E+03  0.00000000000E+00 0.  1.
         21   -1    0    0  503  502 -0.00000000000E+00 -0.00000000000E+00 -0.39739496324E+03  0.39739496324E+03  0.00000000000E+00 0.  1.
          2    1    1    2  501    0 -0.59653171412E+00  0.21923849954E+02  0.88466767455E+03  0.88493949254E+03  0.00000000000E+00 0.  1.
         21    1    1    2  503  501  0.59653171412E+00 -0.21923849954E+02 -0.39695634810E+03  0.39756176041E+03  0.00000000000E+00 0.  1.
</event>
<event>
 4    1  0.2285999E+005  0.2003628E+02  0.7546771E-02  0.1533482E+00
          2   -1    0    0  503    0  0.00000000000E+00  0.00000000000E+00  0.27921230285E+03  0.27921230285E+03  0.00000000000E+00 0.  1.
         21   -1    0    0  501  502 -0.00000000000E+00 -0.00000000000E+00 -0.66265256224E+01  0.66265256224E+01  0.00000000000E+00 0. -1.
          2    1    1    2  501    0  0.68910846401E+01  0.18813972921E+02  0.26276025176E+03  0.26352305882E+03  0.00000000000E+00 0.  1.
         21    1    1    2  503  502 -0.68910846401E+01 -0.18813972921E+02  0.98255254714E+01  0.22315769657E+02  0.00000000000E+00 0. -1.
</event>
<event>
 4    1  0.2285999E+005  0.3054563E+02  0.7546771E-02  0.1414913E+00
          2   -1    0    0  503    0  0.00000000000E+00  0.00000000000E+00  0.15058162172E+03  0.15058162172E+03  0.00000000000E+00 0.  1.
         21   -1    0    0  501  502 -0.00000000000E+00 -0.00000000000E+00 -0.13266586252E+02  0.13266586252E+02  0.00000000000E+00 0.  1.
          2    1    1    2  501    0 -0.27232739084E+02  0.13835215156E+02  0.12846470659E+03  0.13204626498E+03  0.00000000000E+00 0.  1.
         21    1    1    2  503  502  0.27232739084E+02 -0.13835215156E+02  0.88503288729E+01  0.31801942985E+02  0.00000000000E+00 0.  1.
</event>
<event>
 4    1  0.2285999E+005  0.2348037E+02  0.7546771E-02  0.1486553E+00
          2   -1    0    0  502    0  0.00000000000E+00  0.00000000000E+00  0.13029381556E+04  0.13029381556E+04  0.00000000000E+00 0.  1.
         21   -1    0    0  503  502 -0.00000000000E+00 -0.00000000000E+00 -0.16083523853E+01  0.16083523853E+01  0.00000000000E+00 0.  1.
          2    1    1    2  501    0 -0.11889908382E+02  0.20247420030E+02  0.12105986960E+04  0.12108263833E+04  0.00000000000E+00 0.  1.
         21    1    1    2  503  501  0.11889908382E+02 -0.20247420030E+02  0.90731107237E+02  0.93720124625E+02  0.00000000000E+00 0.  1.
</event>
<event>
 4    1  0.2285999E+005  0.2008140E+02  0.7546771E-02  0.1532795E+00
          2   -1    0    0  503    0  0.00000000000E+00  0.00000000000E+00  0.90465366809E+03  0.90465366809E+03  0.00000000000E+00 0. -1.
         21   -1    0    0  501  502 -0.00000000000E+00 -0.00000000000E+00 -0.47641005570E+00  0.47641005570E+00  0.00000000000E+00 0.  1.
          2    1    1    2  501    0  0.10154477285E+02  0.17324812282E+02  0.56687068048E+03  0.56722626078E+03  0.00000000000E+00 0. -1.
         21    1    1    2  503  502 -0.10154477285E+02 -0.17324812282E+02  0.33730657755E+03  0.33790381736E+03  0.00000000000E+00 0.  1.
</event>
<event>
 4    1  0.2285999E+005  0.2660320E+02  0.7546771E-02  0.1451635E+00
          2   -1    0    0  503    0  0.00000000000E+00  0.00000000000E+00  0.31310214173E+03  0.31310214173E+03  0.00000000000E+00 0. -1.
         21   -1    0    0  501  502 -0.00000000000E+00 -0.00000000000E+00 -0.11996351803E+02  0.11996351803E+02  0.00000000000E+00 0.  1.
          2    1    1    2  501    0  0.48915180901E+01  0.26149628207E+02  0.29698961920E+03  0.29817874491E+03  0.00000000000E+00 0. -1.
         21    1    1    2  503  502 -0.48915180901E+01 -0.26149628207E+02  0.41161707319E+01  0.26919748626E+02  0.00000000000E+00 0.  1.
</event>
<event>
 4    1  0.2285999E+005  0.5336079E+02  0.7546771E-02  0.1284224E+00
          2   -1    0    0  503    0  0.00000000000E+00  0.00000000000E+00  0.33688273545E+02  0.33688273545E+02  0.00000000000E+00 0.  1.
         21   -1    0    0  501  502 -0.00000000000E+00 -0.00000000000E+00 -0.85862632236E+02  0.85862632236E+02  0.00000000000E+00 0.  1.
          2    1    1    2  501    0 -0.12498117160E+02  0.51876494015E+02 -0.33558612350E+02  0.63036132707E+02  0.00000000000E+00 0.  1.
         21    1    1    2  503  502  0.12498117160E+02 -0.51876494015E+02 -0.18615746341E+02  0.56514773074E+02  0.00000000000E+00 0.  1.
</event>
<event>
 4    1  0.2285999E+005  0.2041812E+02  0.7546771E-02  0.1527737E+00
          2   -1    0    0  502    0  0.00000000000E+00  0.00000000000E+00  0.15989524637E+04  0.15989524637E+04  0.00000000000E+00 0. -1.
         21   -1    0    0  503  502 -0.00000000000E+00 -0.00000000000E+00 -0.44607033912E+00  0.44607033912E+00  0.00000000000E+00 0.  1.
          2    1    1    2  501    0 -0.20157208267E+02 -0.32537300630E+01  0.13147267518E+04  0.13148852923E+04  0.00000000000E+00 0. -1.
         21    1    1    2  503  501  0.20157208267E+02  0.32537300630E+01  0.28377964148E+03  0.28451324173E+03  0.00000000000E+00 0.  1.
</event>
<event>
 4    1  0.2285999E+005  0.2179939E+02  0.7546771E-02  0.1508151E+00
          2   -1    0    0  502    0  0.00000000000E+00  0.00000000000E+00  0.14762265328E+04  0.14762265328E+04  0.00000000000E+00 0. -1.
         21   -1    0    0  503  502 -0.00000000000E+00 -0.00000000000E+00 -0.60869817438E+02  0.60869817438E+02  0.00000000000E+00 0.  1.
          2    1    1    2  501    0 -0.14120585497E+02  0.16607901954E+02  0.14741916001E+04  0.14743527689E+04  0.00000000000E+00 0. -1.
         21    1    1    2  503  501  0.14120585497E+02 -0.16607901954E+02 -0.58834884719E+02  0.62743581361E+02  0.00000000000E+00 0.  1.
</event>
<event>
 4    1  0.2285999E+005  0.2016780E+02  0.7546771E-02  0.1531486E+00
          2   -1    0    0  503    0  0.00000000000E+00  0.00000000000E+00  0.13125557730E+04  0.13125557730E+04  0.00000000000E+00 0.  1.
         21   -1    0    0  501  502 -0.00000000000E+00 -0.00000000000E+00 -0.87373927356E+00  0.87373927356E+00  0.00000000000E+00 0.  1.
          2    1    1    2  501    0 -0.91355543249E+01  0.17980036128E+02  0.11833983498E+04  0.11835701899E+04  0.00000000000E+00 0.  1.
         21    1    1    2  503  502  0.91355543249E+01 -0.17980036128E+02  0.12828368393E+03  0.12985932240E+03  0.00000000000E+00 0.  1.
</event>
<event>
 4    1  0.2285999E+005  0.2018044E+02  0.7546771E-02  0.1531295E+00
          2   -1    0    0  503    0  0.00000000000E+00  0.00000000000E+00  0.24200115681E+03  0.24200115681E+03  0.00000000000E+00 0.  1.
         21   -1    0    0  501  502 -0.00000000000E+00 -0.00000000000E+00 -0.24102431157E+01  0.24102431157E+01  0.00000000000E+00 0.  1.
          2    1    1    2  501    0  0.71480798575E+00  0.20167780091E+02  0.18693019303E+03  0.18801634868E+03  0.00000000000E+00 0.  1.
         21    1    1    2  503  502 -0.71480798575E+00 -0.20167780091E+02  0.52660720660E+02  0.56395051243E+02  0.00000000000E+00 0.  1.
</event>
<event>
 4    1  0.2285999E+005  0.2339497E+02  0.7546771E-02  0.1487597E+00
          2   -1    0    0  503    0  0.00000000000E+00  0.00000000000E+00  0.15975605530E+02  0.15975605530E+02  0.00000000000E+00 0. -1.
         21   -1    0    0  501  502 -0.00000000000E+00 -0.00000000000E+00 -0.53389235697E+02  0.53389235697E+02  0.00000000000E+00 0.  1.
          2    1    1    2  501    0 -0.22140988928E+02 -0.75565296155E+01  0.20533668696E+01  0.23484906771E+02  0.00000000000E+00 0. -1.
         21    1    1    2  503  502  0.22140988928E+02  0.75565296155E+01 -0.39466997037E+02  0.45879934456E+02  0.00000000000E+00 0.  1.
</event>
<event>
 4    1  0.2285999E+005  0.2087229E+02  0.7546771E-02  0.1521096E+00
          2   -1    0    0  503    0  0.00000000000E+00  0.00000000000E+00  0.55249253351E+03  0.55249253351E+03  0.00000000000E+00 0.  1.
         21   -1    0    0  501  502 -0.00000000000E+00 -0.00000000000E+00 -0.24316823495E+03  0.24316823495E+03  0.00000000000E+00 0.  1.
          2    1    1    2  501    0 -0.12072765957E+02 -0.17026472331E+02  0.55184698728E+03  0.55224156835E+03  0.00000000000E+00 0.  1.
         21    1    1    2  503  502  0.12072765957E+02  0.17026472331E+02 -0.24252268873E+03  0.24341920012E+03  0.00000000000E+00 0.  1.
</event>
<event>
 4    1  0.2285999E+005  0.2083040E+02  0.7546771E-02  0.1521700E+00
          2   -1    0    0  503    0  0.00000000000E+00  0.00000000000E+00  0.41958023631E+03  0.41958023631E+03  0.00000000000E+00 0.  1.
         21   -1    0    0  501  502 -0.00000000000E+00 -0.00000000000E+00 -0.12816432431E+01  0.12816432431E+01  0.00000000000E+00 0.  1.
          2    1    1    2  501    0  0.20717557042E+02  0.21652419223E+01  0.30162229181E+03  0.30234072230E+03  0.00000000000E+00 0.  1.
         21    1    1    2  503  502 -0.20717557042E+02 -0.21652419223E+01  0.11667630126E+03  0.11852115726E+03  0.00000000000E+00 0.  1.
</event>
<event>
 4    1  0.2285999E+005  0.2302737E+02  0.7546771E-02  0.1492155E+00
          2   -1    0    0  503    0  0.00000000000E+00  0.00000000000E+00  0.85348764712E+03  0.85348764712E+03  0.00000000000E+00 0.  1.
         21   -1    0    0  501  502 -0.00000000000E+00 -0.00000000000E+00 -0.56470758474E+01  0.56470758474E+01  0.00000000000E+00 0. -1.
          2    1    1    2  501    0 -0.22835171173E+02 -0.29689378803E+01  0.82916899737E+03  0.82948868939E+03  0.00000000000E+00 0.  1.
         21    1    1    2  503  502  0.22835171173E+02  0.29689378803E+01  0.18671573905E+02  0.29646033574E+02  0.00000000000E+00 0. -1.
</event>
<event>
 4    1  0.2285999E+005  0.2082538E+02  0.7546771E-02  0.1521773E+00
          2   -1    0    0  503    0  0.00000000000E+00  0.00000000000E+00  0.14531256758E+04  0.14531256758E+04  0.00000000000E+00 0. -1.
         21   -1    0    0  501  502 -0.00000000000E+00 -0.00000000000E+00 -0.64893261845E+01  0.64893261845E+01  0.00000000000E+00 0. -1.
          2    1    1    2  501    0 -0.75138220665E+01 -0.19422637088E+02  0.14361454588E+04  0.14362964441E+04  0.00000000000E+00 0. -1.
         21    1    1    2  503  502  0.75138220665E+01  0.19422637088E+02  0.10490890791E+02  0.23318557912E+02  0.00000000000E+00 0. -1.
</event>
<event>
 4    1  0.2285999E+005  0.6550764E+02  0.7546771E-02  0.1242186E+00
          2   -1    0    0  503    0  0.00000000000E+00  0.00000000000E+00  0.28293985871E+03  0.28293985871E+03  0.00000000000E+00 0.  1.
         21   -1    0    0  501  502 -0.00000000000E+00 -0.00000000000E+00 -0.81315050462E+02  0.81315050462E+02  0.00000000000E+00 0. -1.
          2    1    1    2  501    0  0.65350551675E+02  0.45339565062E+01  0.26507913168E+03  0.27305346989E+03  0.00000000000E+00 0.  1.
         21    1    1    2  503  502 -0.65350551675E+02 -0.45339565062E+01 -0.63454323430E+02  0.91201439286E+02  0.00000000000E+00 0. -1.
</event>
<event>
 4    1  0.2285999E+005  0.4007446E+02  0.7546771E-02  0.1348050E+00
          2   -1    0    0  503    0  0.00000000000E+00  0.00000000000E+00  0.50367519481E+03  0.50367519481E+03  0.00000000000E+00 0. -1.
         21   -1    0    0  501  502 -0.00000000000E+00 -0.00000000000E+00 -0.79196474428E+02  0.79196474428E+02  0.00000000000E+00 0.  1.
          2    1    1    2  501    0  0.27455204919E+02 -0.29192023219E+02  0.49774825276E+03  0.49935887458E+03  0.00000000000E+00 0. -1.
         21    1    1    2  503  502 -0.27455204919E+02  0.29192023219E+02 -0.73269532377E+02  0.83512794658E+02  0.00000000000E+00 0.  1.
</event>
<event>
 4    1  0.2285999E+005  0.3184538E+02  0.7546771E-02  0.1404210E+00
          2   -1    0    0  502    0  0.00000000000E+00  0.00000000000E+00  0.75813964218E+03  0.75813964218E+03  0.00000000000E+00 0. -1.
         21   -1    0    0  503  502 -0.00000000000E+00 -0.00000000000E+00 -0.23418604539E+03  0.23418604539E+03  0.00000000000E+00 0.  1.
          2    1    1    2  501    0  0.57059839964E+00  0.31840271536E+02  0.75672058957E+03  0.75739037434E+03  0.00000000000E+00 0. -1.
         21    1    1    2  503  501 -0.57059839964E+00 -0.31840271536E+02 -0.23276699278E+03  0.23493531323E+03  0.00000000000E+00 0.  1.
</event>
<event>
 4    1  0.2285999E+005  0.2619338E+02  0.7546771E-02  0.1455883E+00
          2   -1    0    0  502    0  0.00000000000E+00  0.00000000000E+00  0.72857884963E+03  0.72857884963E+03  0.00000000000E+00 0. -1.
         21   -1    0    0  503  502 -0.00000000000E+00 -0.00000000000E+00 -0.12821462740E+01  0.12821462740E+01  0.00000000000E+00 0. -1.
          2    1    1    2  501    0  0.38746818597E+01 -0.25905213306E+02  0.55169861789E+03  0.55232006864E+03  0.00000000000E+00 0. -1.
         21    1    1    2  503  501 -0.38746818597E+01  0.25905213306E+02  0.17559808546E+03  0.17754092726E+03  0.00000000000E+00 0. -1.
</event>
<event>
 4    1  0.2285999E+005  0.2001398E+02  0.7546771E-02  0.1533822E+00
          2   -1    0    0  503    0  0.00000000000E+00  0.00000000000E+00  0.57442211656E+02  0.57442211656E+02  0.00000000000E+00 0. -1.
         21   -1    0    0  501  502 -0.00000000000E+00 -0.00000000000E+00 -0.10991961316E+02  0.10991961316E+02  0.00000000000E+00 0. -1.
          2    1    1    2  501    0  0.15154661043E+02 -0.13072702332E+02  0.43914552271E+02  0.48260203053E+02  0.00000000000E+00 0. -1.
         21    1    1    2  503  502 -0.15154661043E+02  0.13072702332E+02  0.25356980690E+01  0.20173969919E+02  0.00000000000E+00 0. -1.
</event>
<event>
 4    1  0.2285999E+005  0.2496593E+02  0.7546771E-02  0.1469185E+00
          2   -1    0    0  503    0  0.00000000000E+00  0.00000000000E+00  0.28497148249E+02  0.28497148249E+02  0.00000000000E+00 0.  1.
         21   -1    0    0  501  502 -0.00000000000E+00 -0.00000000000E+00 -0.68999635933E+03  0.68999635933E+03  0.00000000000E+00 0.  1.
          2    1    1    2  501    0  0.19033482838E+02 -0.16156244269E+02  0.22757391127E+02  0.33781600743E+02  0.00000000000E+00 0.  1.
         21    1    1    2  503  502 -0.19033482838E+02  0.16156244269E+02 -0.68425660221E+03  0.68471190684E+03  0.00000000000E+00 0.  1.
</event>
<event>
 4    1  0.2285999E+005  0.2313112E+02  0.7546771E-02  0.1490858E+00
          2   -1    0    0  503    0  0.00000000000E+00  0.00000000000E+00  0.67366662618E+03  0.67366662618E+03  0.00000000000E+00 0.  1.
         21   -1    0    0  501  502 -0.00000000000E+00 -0.00000000000E+00 -0.11426675343E+01  0.11426675343E+01  0.00000000000E+00 0.  1.
          2    1    1    2  501    0 -0.18622532589E+02 -0.13720415956E+02  0.52257854196E+03  0.52309022267E+03  0.00000000000E+00 0.  1.
         21    1    1    2  503  502  0.18622532589E+02  0.13720415956E+02  0.14994541668E+03  0.15171907104E+03  0.00000000000E+00 0.  1.
</event>
<event>
 4    1  0.2285999E+005  0.3015505E+02  0.7546771E-02  0.1418254E+00
          2   -1    0    0  503    0  0.00000000000E+00  0.00000000000E+00  0.10209295359E+04  0.10209295359E+04  0.00000000000E+00 0.  1.
         21   -1    0    0  501  502 -0.00000000000E+00 -0.00000000000E+00 -0.47756647729E+01  0.47756647729E+01  0.00000000000E+00 0.  1.
          2    1    1    2  501    0  0.19139249583E+02  0.23302704505E+02  0.97063899736E+03  0.97110730103E+03  0.00000000000E+00 0.  1.
         21    1    1    2  503  502 -0.19139249583E+02 -0.23302704505E+02  0.45514873774E+02  0.54597899653E+02  0.00000000000E+00 0.  1.
</event>
<event>
 4    1  0.2285999E+005  0.2389439E+02  0.7546771E-02  0.1481563E+00
          2   -1    0    0  502    0  0.00000000000E+00  0.00000000000E+00  0.54998222534E+03  0.54998222534E+03  0.00000000000E+00 0.  1.
         21   -1    0    0  503  502 -0.00000000000E+00 -0.00000000000E+00 -0.55876942828E+01  0.55876942828E+01  0.00000000000E+00 0. -1.
          2    1    1    2  501    0  0.17074767721E+02  0.16715094246E+02  0.52285335809E+03  0.52339906012E+03  0.00000000000E+00 0.  1.
         21    1    1    2  503  501 -0.17074767721E+02 -0.16715094246E+02  0.21541172969E+02  0.32170859505E+02  0.00000000000E+00 0. -1.
</event>
<event>
 4    1  0.2285999E+005  0.2193310E+02  0.7546771E-02  0.1506348E+00
          2   -1    0    0  502    0  0.00000000000E+00  0.00000000000E+00  0.35610244548E+03  0.35610244548E+03  0.00000000000E+00 0.  1.
         21   -1    0    0  503  502 -0.00000000000E+00 -0.00000000000E+00 -0.17676453937E+02  0.17676453937E+02  0.00000000000E+00 0. -1.
          2    1    1    2  501    0  0.18083805052E+02 -0.12411167151E+02  0.34881909889E+03  0.34950797534E+03  0.00000000000E+00 0.  1.
         21    1    1    2  503  501 -0.18083805052E+02  0.12411167151E+02 -0.10393107347E+02  0.24270924077E+02  0.00000000000E+00 0. -1.
</event>
<event>
 4    1  0.2285999E+005  0.2832994E+02  0.7546771E-02  0.1434687E+00
          2   -1    0    0  502    0  0.00000000000E+00  0.00000000000E+00  0.46372824950E+03  0.46372824950E+03  0.00000000000E+00 0.  1.
         21   -1    0    0  503  502 -0.00000000000E+00 -0.00000000000E+00 -0.17427071712E+01  0.17427071712E+01  0.00000000000E+00 0.  1.
          2    1    1    2  501    0 -0.48418964787E+01  0.27913101883E+02  0.25029251778E+03  0.25189070979E+03  0.00000000000E+00 0.  1.
         21    1    1    2  503  501  0.48418964787E+01 -0.27913101883E+02  0.21169302455E+03  0.21358024689E+03  0.00000000000E+00 0.  1.
</event>
<event>
 4    1  0.2285999E+005  0.2409541E+02  0.7546771E-02  0.1479183E+00
          2   -1    0    0  503    0  0.00000000000E+00  0.00000000000E+00  0.82619194417E+03  0.82619194417E+03  0.00000000000E+00 0. -1.
         21   -1    0    0  501  502 -0.00000000000E+00 -0.00000000000E+00 -0.11685701909E+02  0.11685701909E+02  0.00000000000E+00 0. -1.
          2    1    1    2  501    0 -0.22860056979E+02 -0.76162037178E+01  0.81340004586E+03  0.81375685764E+03  0.00000000000E+00 0. -1.
         21    1    1    2  503  502  0.22860056979E+02  0.76162037178E+01  0.11061964029E+01  0.24120788434E+02  0.00000000000E+00 0. -1.
</event>
<event>
 4    1  0.2285999E+005  0.2384620E+02  0.7546771E-02  0.1482137E+00
          2   -1    0    0  503    0  0.00000000000E+00  0.00000000000E+00  0.47488542927E+03  0.47488542927E+03  0.00000000000E+00 0.  1.
         21   -1    0    0  501  502 -0.00000000000E+00 -0.00000000000E+00 -0.11059539685E+02  0.11059539685E+02  0.00000000000E+00 0.  1.
          2    1    1    2  501    0 -0.10747413969E+02  0.21286950486E+02  0.46135526427E+03  0.46197112576E+03  0.00000000000E+00 0.  1.
         21    1    1    2  503  502  0.10747413969E+02 -0.21286950486E+02  0.24706253146E+01  0.23973843193E+02  0.00000000000E+00 0.  1.
</event>
<event>
 4    1  0.2285999E+005  0.4781988E+02  0.7546771E-02  0.1307912E+00
          2   -1    0    0  503    0  0.00000000000E+00  0.00000000000E+00  0.48207739470E+02  0.48207739470E+02  0.00000000000E+00 0. -1.
         21   -1    0    0  501  502 -0.00000000000E+00 -0.00000000000E+00 -0.92257561675E+02  0.92257561675E+02  0.00000000000E+00 0.  1.
          2    1    1    2  501    0  0.33830276940E+02  0.33797240524E+02  0.26928809837E+02  0.54880797225E+02  0.00000000000E+00 0. -1.
         21    1    1    2  503  502 -0.33830276940E+02 -0.33797240524E+02 -0.70978632042E+02  0.85584503921E+02  0.00000000000E+00 0.  1.
</event>
<event>
 4    1  0.2285999E+005  0.2852487E+02  0.7546771E-02  0.1432864E+00
          2   -1    0    0  502    0  0.00000000000E+00  0.00000000000E+00  0.61662889556E+03  0.61662889556E+03  0.00000000000E+00 0. -1.
         21   -1    0    0  503  502 -0.00000000000E+00 -0.00000000000E+00 -0.47530352987E+02  0.47530352987E+02  0.00000000000E+00 0.  1.
          2    1    1    2  501    0  0.27531435049E+02  0.74624596512E+01  0.61198683522E+03  0.61265125047E+03  0.00000000000E+00 0. -1.
         21    1    1    2  503  501 -0.27531435049E+02 -0.74624596512E+01 -0.42888292646E+02  0.51507998078E+02  0.00000000000E+00 0.  1.
</event>
<event>
 4    1  0.2285999E+005  0.2022509E+02  0.7546771E-02  0.1530622E+00
          2   -1    0    0  502    0  0.00000000000E+00  0.00000000000E+00  0.32964416831E+03  0.32964416831E+03  0.00000000000E+00 0.  1.
         21   -1    0    0  503  502 -0.00000000000E+00 -0.00000000000E+00 -0.33486739975E+01  0.33486739975E+01  0.00000000000E+00 0.  1.
          2    1    1    2  501    0  0.20219107647E+02 -0.49183194322E+00  0.29524107310E+03  0.29593300840E+03  0.00000000000E+00 0.  1.
         21    1    1    2  503  501 -0.20219107647E+02  0.49183194322E+00  0.31054421209E+02  0.37059833908E+02  0.00000000000E+00 0.  1.
</event>
<event>
 4    1  0.2285999E+005  0.2202017E+02  0.7546771E-02  0.1505183E+00
          2   -1    0    0  502    0  0.00000000000E+00  0.00000000000E+00  0.20980787662E+03  0.20980787662E+03  0.00000000000E+00 0. -1.
         21   -1    0    0  503  502 -0.00000000000E+00 -0.00000000000E+00 -0.31522673254E+01  0.31522673254E+01  0.00000000000E+00 0.  1.
          2    1    1    2  501    0  0.19939731068E+02 -0.93431743878E+01  0.15833215377E+03  0.15985605618E+03  0.00000000000E+00 0. -1.
         21    1    1    2  503  501 -0.19939731068E+02  0.93431743878E+01  0.48323455529E+02  0.53104087762E+02  0.00000000000E+00 0.  1.
</event>
<event>
 4    1  0.2285999E+005  0.2474390E+02  0.7546771E-02  0.1471689E+00
          2   -1    0    0  503    0  0.00000000000E+00  0.00000000000E+00  0.62160310562E+03  0.62160310562E+03  0.00000000000E+00 0. -1.
         21   -1    0    0  501  502 -0.00000000000E+00 -0.00000000000E+00 -0.22719772382E+01  0.22719772382E+01  0.00000000000E+00 0. -1.
          2    1    1    2  501    0 -0.22632690501E+02 -0.10001094965E+02  0.54444286522E+03  0.54500485692E+03  0.00000000000E+00 0. -1.
         21    1    1    2  503  502  0.22632690501E+02  0.10001094965E+02  0.74888263162E+02  0.78870225936E+02  0.00000000000E+00 0. -1.
</event>
<event>
 4    1  0.2285999E+005  0.3934367E+02  0.7546771E-02  0.1352375E+00
          2   -1    0    0  503    0  0.00000000000E+00  0.00000000000E+00  0.14947808096E+02  0.14947808096E+02  0.00000000000E+00 0.  1.
         21   -1    0    0  501  502 -0.00000000000E+00 -0.00000000000E+00 -0.23426323127E+03  0.23426323127E+03  0.00000000000E+00 0. -1.
          2    1    1    2  501    0  0.37001898195E+02  0.13371016858E+02 -0.16582033737E+02  0.42695297220E+02  0.00000000000E+00 0.  1.
         21    1    1    2  503  502 -0.37001898195E+02 -0.13371016858E+02 -0.20273338944E+03  0.20651574215E+03  0.00000000000E+00 0. -1.
</event>
<event>
 4    1  0.2285999E+005  0.7175237E+02  0.7546771E-02  0.1224409E+00
          2   -1    0    0  502    0  0.00000000000E+00  0.00000000000E+00  0.40512238116E+03  0.40512238116E+03  0.00000000000E+00 0. -1.
         21   -1    0    0  503  502 -0.00000000000E+00 -0.00000000000E+00 -0.29347471559E+02  0.29347471559E+02  0.00000000000E+00 0.  1.
          2    1    1    2  501    0 -0.29272402788E+02 -0.65509760051E+02  0.35146007996E+03  0.35870961798E+03  0.00000000000E+00 0. -1.
         21    1    1    2  503  501  0.29272402788E+02  0.65509760051E+02  0.24314829640E+02  0.75760234737E+02  0.00000000000E+00 0.  1.
</event>
<event>
 4    1  0.2285999E+005  0.2823109E+02  0.7546771E-02  0.1435619E+00
          2   -1    0    0  503    0  0.00000000000E+00  0.00000000000E+00  0.42922069199E+03  0.42922069199E+03  0.00000000000E+00 0.  1.
         21   -1    0    0  501  502 -0.00000000000E+00 -0.00000000000E+00 -0.68499494255E+01  0.68499494255E+01  0.00000000000E+00 0.  1.
          2    1    1    2  501    0 -0.73594483753E+01  0.27254957976E+02  0.39733779958E+03  0.39833945473E+03  0.00000000000E+00 0.  1.
         21    1    1    2  503  502  0.73594483753E+01 -0.27254957976E+02  0.25032942984E+02  0.37731186691E+02  0.00000000000E+00 0.  1.
</event>
<event>
 4    1  0.2285999E+005  0.7263336E+02  0.7546771E-02  0.1222066E+00
          2   -1    0    0  502    0  0.00000000000E+00  0.00000000000E+00  0.31531420197E+04  0.31531420197E+04  0.00000000000E+00 0. -1.
         21   -1    0    0  503  502 -0.00000000000E+00 -0.00000000000E+00 -0.27048148583E+01  0.27048148583E+01  0.00000000000E+00 0.  1.
          2    1    1    2  501    0 -0.67776144805E+02 -0.26115110099E+02  0.25497401827E+04  0.25507745107E+04  0.00000000000E+00 0. -1.
         21    1    1    2  503  501  0.67776144805E+02  0.26115110099E+02  0.60069702214E+03  0.60507232393E+03  0.00000000000E+00 0.  1.
</event>
<event>
 4    1  0.2285999E+005  0.2922242E+02  0.7546771E-02  0.1426476E+00
          2   -1    0    0  503    0  0.00000000000E+00  0.00000000000E+00  0.29763287298E+03  0.29763287298E+03  0.00000000000E+00 0.  1.
         21   -1    0    0  501  502 -0.00000000000E+00 -0.00000000000E+00 -0.13985456308E+02  0.13985456308E+02  0.00000000000E+00 0. -1.
          2    1    1    2  501    0 -0.40397352943E+00  0.29219630148E+02  0.28073423343E+03  0.28225105810E+03  0.00000000000E+00 0.  1.
         21    1    1    2  503  502  0.40397352943E+00 -0.29219630148E+02  0.29131832493E+01  0.29367271192E+02  0.00000000000E+00 0. -1.
</event>
<event>
 4    1  0.2285999E+005  0.2341539E+02  0.7546771E-02  0.1487347E+00
          2   -1    0    0  502    0  0.00000000000E+00  0.00000000000E+00  0.13325757177E+04  0.13325757177E+04  0.00000000000E+00 0.  1.
         21   -1    0    0  503  502 -0.00000000000E+00 -0.00000000000E+00 -0.24889272069E+02  0.24889272069E+02  0.00000000000E+00 0.  1.
          2    1    1    2  501    0  0.11711005881E+02 -0.20276416055E+02  0.13269422789E+04  0.13271488584E+04  0.00000000000E+00 0.  1.
         21    1    1    2  503  501 -0.11711005881E+02  0.20276416055E+02 -0.19255833290E+02  0.30316131390E+02  0.00000000000E+00 0.  1.
</event>
<event>
 4    1  0.2285999E+005  0.2149110E+02  0.7546771E-02  0.1512367E+00
          2   -1    0    0  502    0  0.00000000000E+00  0.00000000000E+00  0.31115561340E+03  0.31115561340E+03  0.00000000000E+00 0. -1.
         21   -1    0    0  503  502 -0.00000000000E+00 -0.00000000000E+00 -0.10843782765E+02  0.10843782765E+02  0.00000000000E+00 0.  1.
          2    1    1    2  501    0  0.21487360938E+02  0.40061060503E+00  0.29973097095E+03  0.30050045277E+03  0.00000000000E+00 0. -1.
         21    1    1    2  503  501 -0.21487360938E+02 -0.40061060503E+00  0.58085968228E+00  0.21498943390E+02  0.00000000000E+00 0.  1.
</event>
<event>
 4    1  0.2575692E+005  0.2342589E+02  0.7546771E-02  0.1487218E+00
          2   -1    0    0  503    0  0.00000000000E+00  0.00000000000E+00  0.13434102600E+04  0.13434102600E+04  0.00000000000E+00 0.  1.
         21   -1    0    0  501  502 -0.00000000000E+00 -0.00000000000E+00 -0.14956794151E+03  0.14956794151E+03  0.00000000000E+00 0.  1.
          2    1    1    2  501    0  0.32878680656E+01  0.23194013261E+02  0.13423901774E+04  0.13425945631E+04  0.00000000000E+00 0.  1.
         21    1    1    2  503  502 -0.32878680656E+01 -0.23194013261E+02 -0.14854785891E+03  0.15038363846E+03  0.00000000000E+00 0.  1.
</event>
<event>
 4    1  0.2285999E+005  0.2051657E+02  0.7546771E-02  0.1526280E+00
          2   -1    0    0  502    0  0.00000000000E+00  0.00000000000E+00  0.11695715791E+04  0.11695715791E+04  0.00000000000E+00 0. -1.
         21   -1    0    0  503  502 -0.00000000000E+00 -0.00000000000E+00 -0.80907438047E+00  0.80907438047E+00  0.00000000000E+00 0. -1.
          2    1    1    2  501    0 -0.17468921727E+02  0.10759487480E+02  0.10204048512E+04  0.10206110866E+04  0.00000000000E+00 0. -1.
         21    1    1    2  503  501  0.17468921727E+02 -0.10759487480E+02  0.14835765353E+03  0.14976956686E+03  0.00000000000E+00 0. -1.
</event>
<event>
 4    1  0.2285999E+005  0.2625421E+02  0.7546771E-02  0.1455247E+00
          2   -1    0    0  502    0  0.00000000000E+00  0.00000000000E+00  0.63454387677E+03  0.63454387677E+03  0.00000000000E+00 0. -1.
         21   -1    0    0  503  502 -0.00000000000E+00 -0.00000000000E+00 -0.26459367859E+01  0.26459367859E+01  0.00000000000E+00 0. -1.
          2    1    1    2  501    0  0.18523197573E+02  0.18605770984E+02  0.56055408712E+03  0.56116857373E+03  0.00000000000E+00 0. -1.
         21    1    1    2  503  501 -0.18523197573E+02 -0.18605770984E+02  0.71343852865E+02  0.76021239821E+02  0.00000000000E+00 0. -1.
</event>
<event>
 4    1  0.2285999E+005  0.5272217E+02  0.7546771E-02  0.1286783E+00
          2   -1    0    0  503    0  0.00000000000E+00  0.00000000000E+00  0.10403272021E+02  0.10403272021E+02  0.00000000000E+00 0. -1.
         21   -1    0    0  501  502 -0.00000000000E+00 -0.00000000000E+00 -0.29718608937E+03  0.29718608937E+03  0.00000000000E+00 0. -1.
          2    1    1    2  501    0  0.25947320712E+02  0.45895142210E+02 -0.94528962473E+02  0.10823748092E+03  0.00000000000E+00 0. -1.
         21    1    1    2  503  502 -0.25947320712E+02 -0.45895142210E+02 -0.19225385487E+03  0.19935188046E+03  0.00000000000E+00 0. -1.
</event>
<event>
 4    1  0.2285999E+005  0.2260494E+02  0.7546771E-02  0.1497519E+00
          2   -1    0    0  502    0  0.00000000000E+00  0.00000000000E+00  0.12121739956E+04  0.12121739956E+04  0.00000000000E+00 0. -1.
         21   -1    0    0  503  502 -0.00000000000E+00 -0.00000000000E+00 -0.67939946295E+00  0.67939946295E+00  0.00000000000E+00 0.  1.
          2    1    1    2  501    0  0.44721723281E+01 -0.22158136267E+02  0.97934553405E+03  0.97960637931E+03  0.00000000000E+00 0. -1.
         21    1    1    2  503  501 -0.44721723281E+01  0.22158136267E+02  0.23214906210E+03  0.23324701577E+03  0.00000000000E+00 0.  1.
</event>
<event>
 4    1  0.2285999E+005  0.2773806E+02  0.7546771E-02  0.1440332E+00
          2   -1    0    0  502    0  0.00000000000E+00  0.00000000000E+00  0.16565873353E+04  0.16565873353E+04  0.00000000000E+00 0.  1.
         21   -1    0    0  503  502 -0.00000000000E+00 -0.00000000000E+00 -0.17158093856E+01  0.17158093856E+01  0.00000000000E+00 0.  1.
          2    1    1    2  501    0  0.58162419506E+00  0.27731959261E+02  0.15355293490E+04  0.15357798611E+04  0.00000000000E+00 0.  1.
         21    1    1    2  503  501 -0.58162419506E+00 -0.27731959261E+02  0.11934217688E+03  0.12252328364E+03  0.00000000000E+00 0.  1.
</event>
<event>
 4    1  0.2285999E+005  0.2841646E+02  0.7546771E-02  0.1433876E+00
          2   -1    0    0  503    0  0.00000000000E+00  0.00000000000E+00  0.68072852247E+03  0.68072852247E+03  0.00000000000E+00 0.  1.
         21   -1    0    0  501  502 -0.00000000000E+00 -0.00000000000E+00 -0.75880187782E+01  0.75880187782E+01  0.00000000000E+00 0.  1.
          2    1    1    2  501    0  0.17687644111E+01 -0.28361361148E+02  0.65268513595E+03  0.65330343794E+03  0.00000000000E+00 0.  1.
         21    1    1    2  503  502 -0.17687644111E+01  0.28361361148E+02  0.20455367737E+02  0.35013103304E+02  0.00000000000E+00 0.  1.
</event>
<event>
 4    1  0.2285999E+005  0.2165536E+02  0.7546771E-02  0.1510110E+00
          2   -1    0    0  502    0  0.00000000000E+00  0.00000000000E+00  0.33996968183E+03  0.33996968183E+03  0.00000000000E+00 0.  1.
         21   -1    0    0  503  502 -0.00000000000E+00 -0.00000000000E+00 -0.13338586403E+02  0.13338586403E+02  0.00000000000E+00 0.  1.
          2    1    1    2  501    0  0.18921772120E+02  0.10531909257E+02  0.33058618008E+03  0.33129469816E+03  0.00000000000E+00 0.  1.
         21    1    1    2  503  501 -0.18921772120E+02 -0.10531909257E+02 -0.39550846485E+01  0.22013570072E+02  0.00000000000E+00 0.  1.
</event>
<event>
 4    1  0.2285999E+005  0.2701331E+02  0.7546771E-02  0.1447474E+00
          2   -1    0    0  503    0  0.00000000000E+00  0.00000000000E+00  0.41549709079E+03  0.41549709079E+03  0.00000000000E+00 0. -1.
         21   -1    0    0  501  502 -0.00000000000E+00 -0.00000000000E+00 -0.92503672379E+02  0.92503672379E+02  0.00000000000E+00 0. -1.
          2    1    1    2  501    0  0.26690519869E+02  0.41635337939E+01  0.41307433760E+03  0.41395667315E+03  0.00000000000E+00 0. -1.
         21    1    1    2  503  502 -0.26690519869E+02 -0.41635337939E+01 -0.90080919190E+02  0.94044090015E+02  0.00000000000E+00 0. -1.
</event>
<event>
 4    1  0.2285999E+005  0.3271336E+02  0.7546771E-02  0.1397393E+00
          2   -1    0    0  503    0  0.00000000000E+00  0.00000000000E+00  0.12830635792E+03  0.12830635792E+03  0.00000000000E+00 0. -1.
         21   -1    0    0  501  502 -0.00000000000E+00 -0.00000000000E+00 -0.10638186807E+02  0.10638186807E+02  0.00000000000E+00 0. -1.
          2    1    1    2  501    0 -0.19845830896E+02  0.26005907357E+02  0.91119373688E+02  0.96813761846E+02  0.00000000000E+00 0. -1.
         21    1    1    2  503  502  0.19845830896E+02 -0.26005907357E+02  0.26548797422E+02  0.42130782879E+02  0.00000000000E+00 0. -1.
</event>
<event>
 4    1  0.2285999E+005  0.2849135E+02  0.7546771E-02  0.1433176E+00
          2   -1    0    0  502    0  0.00000000000E+00  0.00000000000E+00  0.18113949336E+04  0.18113949336E+04  0.00000000000E+00 0. -1.
         21   -1    0    0  503  502 -0.00000000000E+00 -0.00000000000E+00 -0.51030348093E+00  0.51030348093E+00  0.00000000000E+00 0.  1.
          2    1    1    2  501    0  0.23943650636E+02  0.15442101619E+02  0.12216424136E+04  0.12219746084E+04  0.00000000000E+00 0. -1.
         21    1    1    2  503  501 -0.23943650636E+02 -0.15442101619E+02  0.58924221660E+03  0.58993062874E+03  0.00000000000E+00 0.  1.
</event>
<event>
 4    1  0.2870780E+005  0.2831177E+02  0.7546771E-02  0.1434858E+00
          2   -1    0    0  503    0  0.00000000000E+00  0.00000000000E+00  0.12900234504E+04  0.12900234504E+04  0.00000000000E+00 0. -1.
         21   -1    0    0  501  502 -0.00000000000E+00 -0.00000000000E+00 -0.24989572124E+03  0.24989572124E+03  0.00000000000E+00 0.  1.
          2    1    1    2  501    0  0.17896409693E+02 -0.21937971970E+02  0.12890656266E+04  0.12893764949E+04  0.00000000000E+00 0. -1.
         21    1    1    2  503  502 -0.17896409693E+02  0.21937971970E+02 -0.24893789740E+03  0.25054267672E+03  0.00000000000E+00 0.  1.
</event>
<event>
 4    1  0.2285999E+005  0.2869308E+02  0.7546771E-02  0.1431304E+00
          2   -1    0    0  502    0  0.00000000000E+00  0.00000000000E+00  0.19508209529E+03  0.19508209529E+03  0.00000000000E+00 0. -1.
         21   -1    0    0  503  502 -0.00000000000E+00 -0.00000000000E+00 -0.39167233465E+02  0.39167233465E+02  0.00000000000E+00 0. -1.
          2    1    1    2  501    0  0.28538599405E+02 -0.29734024449E+01  0.18859225148E+03  0.19076249657E+03  0.00000000000E+00 0. -1.
         21    1    1    2  503  501 -0.28538599405E+02  0.29734024449E+01 -0.32677389662E+02  0.43486832182E+02  0.00000000000E+00 0. -1.
</event>
<event>
 4    1  0.2285999E+005  0.2944470E+02  0.7546771E-02  0.1424484E+00
          2   -1    0    0  502    0  0.00000000000E+00  0.00000000000E+00  0.26005631897E+03  0.26005631897E+03  0.00000000000E+00 0. -1.
         21   -1    0    0  503  502 -0.00000000000E+00 -0.00000000000E+00 -0.35832996953E+01  0.35832996953E+01  0.00000000000E+00 0. -1.
          2    1    1    2  501    0  0.80017128789E+01 -0.28336601977E+02  0.16301614621E+03  0.16565402001E+03  0.00000000000E+00 0. -1.
         21    1    1    2  503  501 -0.80017128789E+01  0.28336601977E+02  0.93456873059E+02  0.97985598649E+02  0.00000000000E+00 0. -1.
</event>
<event>
 4    1  0.2285999E+005  0.4337532E+02  0.7546771E-02  0.1329766E+00
          2   -1    0    0  503    0  0.00000000000E+00  0.00000000000E+00  0.14201039150E+03  0.14201039150E+03  0.00000000000E+00 0. -1.
         21   -1    0    0  501  502 -0.00000000000E+00 -0.00000000000E+00 -0.24593544873E+02  0.24593544873E+02  0.00000000000E+00 0. -1.
          2    1    1    2  501    0 -0.23917634083E+02  0.36185151266E+02  0.11528656151E+03  0.12317633563E+03  0.00000000000E+00 0. -1.
         21    1    1    2  503  502  0.23917634083E+02 -0.36185151266E+02  0.21302851144E+01  0.43427600750E+02  0.00000000000E+00 0. -1.
</event>
<event>
 4    1  0.2285999E+005  0.2346804E+02  0.7546771E-02  0.1486703E+00
          2   -1    0    0  502    0  0.00000000000E+00  0.00000000000E+00  0.10081418175E+03  0.10081418175E+03  0.00000000000E+00 0.  1.
         21   -1    0    0  503  502 -0.00000000000E+00 -0.00000000000E+00 -0.11964508170E+04  0.11964508170E+04  0.00000000000E+00 0.  1.
          2    1    1    2  501    0  0.18505931706E+02 -0.14431891824E+02  0.99331654947E+02  0.10206628574E+03  0.00000000000E+00 0.  1.
         21    1    1    2  503  501 -0.18505931706E+02  0.14431891824E+02 -0.11949682902E+04  0.11951987130E+04  0.00000000000E+00 0.  1.
</event>
<event>
 4    1  0.2285999E+005  0.3424260E+02  0.7546771E-02  0.1385967E+00
          2   -1    0    0  503    0  0.00000000000E+00  0.00000000000E+00  0.16465186755E+04  0.16465186755E+04  0.00000000000E+00 0. -1.
         21   -1    0    0  501  502 -0.00000000000E+00 -0.00000000000E+00 -0.20886440700E+01  0.20886440700E+01  0.00000000000E+00 0.  1.
          2    1    1    2  501    0  0.15111980514E+01 -0.34209238976E+02  0.14913956769E+04  0.14917887320E+04  0.00000000000E+00 0. -1.
         21    1    1    2  503  502 -0.15111980514E+01  0.34209238976E+02  0.15303435450E+03  0.15681858757E+03  0.00000000000E+00 0.  1.
</event>
<event>
 4    1  0.2285999E+005  0.1624532E+03  0.7546771E-02  0.1085496E+00
          2   -1    0    0  503    0  0.00000000000E+00  0.00000000000E+00  0.16839648666E+04  0.16839648666E+04  0.00000000000E+00 0. -1.
         21   -1    0    0  501  502 -0.00000000000E+00 -0.00000000000E+00 -0.20602011918E+02  0.20602011918E+02  0.00000000000E+00 0. -1.
          2    1    1    2  501    0  0.73935042039E+02  0.14465353252E+03  0.12486034648E+04  0.12591273356E+04  0.00000000000E+00 0. -1.
         21    1    1    2  503  502 -0.73935042039E+02 -0.14465353252E+03  0.41475938986E+03  0.44543954291E+03  0.00000000000E+00 0. -1.
</event>
<event>
 4    1  0.2285999E+005  0.2150208E+02  0.7546771E-02  0.1512216E+00
          2   -1    0    0  502    0  0.00000000000E+00  0.00000000000E+00  0.14667483273E+04  0.14667483273E+04  0.00000000000E+00 0.  1.
         21   -1    0    0  503  502 -0.00000000000E+00 -0.00000000000E+00 -0.71990286856E+00  0.71990286856E+00  0.00000000000E+00 0.  1.
          2    1    1    2  501    0 -0.36309095353E+01 -0.21193301174E+02  0.12831405300E+04  0.12833206767E+04  0.00000000000E+00 0.  1.
         21    1    1    2  503  501  0.36309095353E+01  0.21193301174E+02  0.18288789445E+03  0.18414755348E+03  0.00000000000E+00 0.  1.
</event>
<event>
 4    1  0.2285999E+005  0.1040687E+03  0.7546771E-02  0.1156938E+00
          2   -1    0    0  503    0  0.00000000000E+00  0.00000000000E+00  0.79016843519E+03  0.79016843519E+03  0.00000000000E+00 0. -1.
         21   -1    0    0  501  502 -0.00000000000E+00 -0.00000000000E+00 -0.13786287275E+02  0.13786287275E+02  0.00000000000E+00 0. -1.
          2    1    1    2  501    0 -0.63884354320E+02  0.82152839030E+02  0.41880648240E+03  0.43154277817E+03  0.00000000000E+00 0. -1.
         21    1    1    2  503  502  0.63884354320E+02 -0.82152839030E+02  0.35757566551E+03  0.37241194430E+03  0.00000000000E+00 0. -1.
</event>
<event>
 4    1  0.2285999E+005  0.3154327E+02  0.7546771E-02  0.1406643E+00
          2   -1    0    0  503    0  0.00000000000E+00  0.00000000000E+00  0.13456702736E+03  0.13456702736E+03  0.00000000000E+00 0.  1.
         21   -1    0    0  501  502 -0.00000000000E+00 -0.00000000000E+00 -0.38970428542E+02  0.38970428542E+02  0.00000000000E+00 0. -1.
          2    1    1    2  501    0 -0.59249585994E+01 -0.30981810121E+02  0.12590309516E+03  0.12979432601E+03  0.00000000000E+00 0.  1.
         21    1    1    2  503  502  0.59249585994E+01  0.30981810121E+02 -0.30306496340E+02  0.43743129897E+02  0.00000000000E+00 0. -1.
</event>
<event>
 4    1  0.2285999E+005  0.2180145E+02  0.7546771E-02  0.1508123E+00
          2   -1    0    0  503    0  0.00000000000E+00  0.00000000000E+00  0.82623283641E+01  0.82623283641E+01  0.00000000000E+00 0.  1.
         21   -1    0    0  501  502 -0.00000000000E+00 -0.00000000000E+00 -0.79008742428E+02  0.79008742428E+02  0.00000000000E+00 0. -1.
          2    1    1    2  501    0 -0.12364682500E+02 -0.17956002843E+02 -0.12620041155E+02  0.25190650054E+02  0.00000000000E+00 0.  1.
         21    1    1    2  503  502  0.12364682500E+02  0.17956002843E+02 -0.58126372909E+02  0.62080420738E+02  0.00000000000E+00 0. -1.
</event>
<event>
 4    1  0.2285999E+005  0.2032491E+02  0.7546771E-02  0.1529125E+00
          2   -1    0    0  502    0  0.00000000000E+00  0.00000000000E+00  0.79243262569E+01  0.79243262569E+01  0.00000000000E+00 0. -1.
         21   -1    0    0  503  502 -0.00000000000E+00 -0.00000000000E+00 -0.20471983457E+03  0.20471983457E+03  0.00000000000E+00 0. -1.
          2    1    1    2  501    0 -0.78937511986E+01  0.18729403383E+02 -0.66056982215E+01  0.21371408659E+02  0.00000000000E+00 0. -1.
         21    1    1    2  503  501  0.78937511986E+01 -0.18729403383E+02 -0.19018981009E+03  0.19127275217E+03  0.00000000000E+00 0. -1.
</event>
<event>
 4    1  0.2285999E+005  0.2375581E+02  0.7546771E-02  0.1483219E+00
          2   -1    0    0  502    0  0.00000000000E+00  0.00000000000E+00  0.25450843765E+03  0.25450843765E+03  0.00000000000E+00 0. -1.
         21   -1    0    0  503  502 -0.00000000000E+00 -0.00000000000E+00 -0.22479325763E+01  0.22479325763E+01  0.00000000000E+00 0.  1.
          2    1    1    2  501    0 -0.16584363282E+02  0.17008738710E+02  0.14110034972E+03  0.14308615233E+03  0.00000000000E+00 0. -1.
         21    1    1    2  503  501  0.16584363282E+02 -0.17008738710E+02  0.11116015536E+03  0.11367021790E+03  0.00000000000E+00 0.  1.
</event>
<event>
 4    1  0.2285999E+005  0.2093895E+02  0.7546771E-02  0.1520138E+00
          2   -1    0    0  503    0  0.00000000000E+00  0.00000000000E+00  0.51738323952E+03  0.51738323952E+03  0.00000000000E+00 0.  1.
         21   -1    0    0  501  502 -0.00000000000E+00 -0.00000000000E+00 -0.31605211499E+01  0.31605211499E+01  0.00000000000E+00 0. -1.
          2    1    1    2  501    0  0.18039880433E+02 -0.10630250507E+02  0.47977303029E+03  0.48022973680E+03  0.00000000000E+00 0.  1.
         21    1    1    2  503  502 -0.18039880433E+02  0.10630250507E+02  0.34449688079E+02  0.40314023870E+02  0.00000000000E+00 0. -1.
</event>
<event>
 4    1  0.2285999E+005  0.2368778E+02  0.7546771E-02  0.1484038E+00
          2   -1    0    0  502    0  0.00000000000E+00  0.00000000000E+00  0.28815595396E+03  0.28815595396E+03  0.00000000000E+00 0. -1.
         21   -1    0    0  503  502 -0.00000000000E+00 -0.00000000000E+00 -0.56038080128E+01  0.56038080128E+01  0.00000000000E+00 0. -1.
          2    1    1    2  501    0  0.18462557970E+02 -0.14840653187E+02  0.25992315329E+03  0.26100030009E+03  0.00000000000E+00 0. -1.
         21    1    1    2  503  501 -0.18462557970E+02  0.14840653187E+02  0.22628992656E+02  0.32759461876E+02  0.00000000000E+00 0. -1.
</event>
<event>
 4    1  0.2285999E+005  0.5033263E+02  0.7546771E-02  0.1296737E+00
          2   -1    0    0  503    0  0.00000000000E+00  0.00000000000E+00  0.86342782419E+03  0.86342782419E+03  0.00000000000E+00 0.  1.
         21   -1    0    0  501  502 -0.00000000000E+00 -0.00000000000E+00 -0.41048175872E+01  0.41048175872E+01  0.00000000000E+00 0. -1.
          2    1    1    2  501    0 -0.25008830331E+02  0.43679884808E+02  0.66131402998E+03  0.66322667330E+03  0.00000000000E+00 0.  1.
         21    1    1    2  503  502  0.25008830331E+02 -0.43679884808E+02  0.19800897663E+03  0.20430596848E+03  0.00000000000E+00 0. -1.
</event>
<event>
 4    1  0.2285999E+005  0.2526962E+02  0.7546771E-02  0.1465810E+00
          2   -1    0    0  502    0  0.00000000000E+00  0.00000000000E+00  0.93893272008E+03  0.93893272008E+03  0.00000000000E+00 0. -1.
         21   -1    0    0  503  502 -0.00000000000E+00 -0.00000000000E+00 -0.27347781187E+01  0.27347781187E+01  0.00000000000E+00 0. -1.
          2    1    1    2  501    0  0.25179780143E+02 -0.21289034423E+01  0.87621163993E+03  0.87657594737E+03  0.00000000000E+00 0. -1.
         21    1    1    2  503  501 -0.25179780143E+02  0.21289034423E+01  0.59986302026E+02  0.65091550824E+02  0.00000000000E+00 0. -1.
</event>
<event>
 4    1  0.2285999E+005  0.2165619E+02  0.7546771E-02  0.1510099E+00
          2   -1    0    0  503    0  0.00000000000E+00  0.00000000000E+00  0.85419183419E+01  0.85419183419E+01  0.00000000000E+00 0. -1.
         21   -1    0    0  501  502 -0.00000000000E+00 -0.00000000000E+00 -0.11402823764E+03  0.11402823764E+03  0.00000000000E+00 0. -1.
          2    1    1    2  501    0  0.21655419092E+02  0.18228928826E+00 -0.86136401983E+01  0.23306333965E+02  0.00000000000E+00 0. -1.
         21    1    1    2  503  502 -0.21655419092E+02 -0.18228928826E+00 -0.96872679103E+02  0.99263822020E+02  0.00000000000E+00 0. -1.
</event>
<event>
 4    1  0.2285999E+005  0.2662515E+02  0.7546771E-02  0.1451410E+00
          2   -1    0    0  502    0  0.00000000000E+00  0.00000000000E+00  0.19229019413E+03  0.19229019413E+03  0.00000000000E+00 0.  1.
         21   -1    0    0  503  502 -0.00000000000E+00 -0.00000000000E+00 -0.12817174955E+02  0.12817174955E+02  0.00000000000E+00 0. -1.
          2    1    1    2  501    0 -0.22566393280E+01 -0.26529347642E+02  0.17629386273E+03  0.17829308664E+03  0.00000000000E+00 0.  1.
         21    1    1    2  503  501  0.22566393280E+01  0.26529347642E+02  0.31791564455E+01  0.26814282446E+02  0.00000000000E+00 0. -1.
</event>
<event>
 4    1  0.2285999E+005  0.2749951E+02  0.7546771E-02  0.1442654E+00
          2   -1    0    0  503    0  0.00000000000E+00  0.00000000000E+00  0.68885364864E+03  0.68885364864E+03  0.00000000000E+00 0. -1.
         21   -1    0    0  501  502 -0.00000000000E+00 -0.00000000000E+00 -0.74023112559E+01  0.74023112559E+01  0.00000000000E+00 0. -1.
          2    1    1    2  501    0  0.26713027966E+02 -0.65297253121E+01  0.66200366972E+03  0.66257458592E+03  0.00000000000E+00 0. -1.
         21    1    1    2  503  502 -0.26713027966E+02  0.65297253121E+01  0.19447667665E+02  0.33681373983E+02  0.00000000000E+00 0. -1.
</event>
<event>
 4    1  0.2285999E+005  0.2069345E+02  0.7546771E-02  0.1523687E+00
          2   -1    0    0  502    0  0.00000000000E+00  0.00000000000E+00  0.19464628637E+03  0.19464628637E+03  0.00000000000E+00 0. -1.
         21   -1    0    0  503  502 -0.00000000000E+00 -0.00000000000E+00 -0.89072340188E+01  0.89072340188E+01  0.00000000000E+00 0.  1.
          2    1    1    2  501    0  0.16459750080E+02  0.12541749226E+02  0.18118756502E+03  0.18236543687E+03  0.00000000000E+00 0. -1.
         21    1    1    2  503  501 -0.16459750080E+02 -0.12541749226E+02  0.45514873310E+01  0.21188083520E+02  0.00000000000E+00 0.  1.
</event>
<event>
 4    1  0.2285999E+005  0.2263750E+02  0.7546771E-02  0.1497101E+00
          2   -1    0    0  503    0  0.00000000000E+00  0.00000000000E+00  0.46967981713E+03  0.46967981713E+03  0.00000000000E+00 0. -1.
         21   -1    0    0  501  502 -0.00000000000E+00 -0.00000000000E+00 -0.15409797844E+02  0.15409797844E+02  0.00000000000E+00 0.  1.
          2    1    1    2  501    0  0.21168235151E+02  0.80226063455E+01  0.46093561782E+03  0.46149117020E+03  0.00000000000E+00 0. -1.
         21    1    1    2  503  502 -0.21168235151E+02 -0.80226063455E+01 -0.66655985376E+01  0.23598444776E+02  0.00000000000E+00 0.  1.
</event>
<event>
 4    1  0.2285999E+005  0.2341070E+02  0.7546771E-02  0.1487404E+00
          2   -1    0    0  503    0  0.00000000000E+00  0.00000000000E+00  0.35097474149E+02  0.35097474149E+02  0.00000000000E+00 0. -1.
         21   -1    0    0  501  502 -0.00000000000E+00 -0.00000000000E+00 -0.29240944157E+02  0.29240944157E+02  0.00000000000E+00 0. -1.
          2    1    1    2  501    0  0.11309473471E+02 -0.20497721120E+02  0.24887730707E+02  0.34168112342E+02  0.00000000000E+00 0. -1.
         21    1    1    2  503  502 -0.11309473471E+02  0.20497721120E+02 -0.19031200715E+02  0.30170305964E+02  0.00000000000E+00 0. -1.
</event>
<event>
 4    1  0.2285999E+005  0.3440642E+02  0.7546771E-02  0.1384785E+00
          2   -1    0    0  502    0  0.00000000000E+00  0.00000000000E+00  0.13497064340E+03  0.13497064340E+03  0.00000000000E+00 0. -1.
         21   -1    0    0  503  502 -0.00000000000E+00 -0.00000000000E+00 -0.18454790958E+02  0.18454790958E+02  0.00000000000E+00 0.  1.
          2    1    1    2  501    0  0.23340667693E+02 -0.25278750586E+02  0.11382784249E+03  0.11891416958E+03  0.00000000000E+00 0. -1.
         21    1    1    2  503  501 -0.23340667693E+02  0.25278750586E+02  0.26880099534E+01  0.34511264785E+02  0.00000000000E+00 0.  1.
</event>
<event>
 4    1  0.2285999E+005  0.2452293E+02  0.7546771E-02  0.1474212E+00
          2   -1    0    0  503    0  0.00000000000E+00  0.00000000000E+00  0.49693305186E+03  0.49693305186E+03  0.00000000000E+00 0.  1.
         21   -1    0    0  501  502 -0.00000000000E+00 -0.00000000000E+00 -0.34832624068E+01  0.34832624068E+01  0.00000000000E+00 0.  1.
          2    1    1    2  501    0 -0.18547695457E+02 -0.16042357335E+02  0.44884837453E+03  0.44951778336E+03  0.00000000000E+00 0.  1.
         21    1    1    2  503  502  0.18547695457E+02  0.16042357335E+02  0.44601414920E+02  0.50898530907E+02  0.00000000000E+00 0.  1.
</event>
<event>
 4    1  0.2285999E+005  0.4679545E+02  0.7546771E-02  0.1312698E+00
          2   -1    0    0  502    0  0.00000000000E+00  0.00000000000E+00  0.14178910634E+04  0.14178910634E+04  0.00000000000E+00 0. -1.
         21   -1    0    0  503  502 -0.00000000000E+00 -0.00000000000E+00 -0.32312872236E+01  0.32312872236E+01  0.00000000000E+00 0.  1.
          2    1    1    2  501    0 -0.44783706980E+02  0.13573278497E+02  0.12207283909E+04  0.12216249910E+04  0.00000000000E+00 0. -1.
         21    1    1    2  503  501  0.44783706980E+02 -0.13573278497E+02  0.19393138533E+03  0.19949735967E+03  0.00000000000E+00 0.  1.
</event>
<event>
 4    1  0.2285999E+005  0.2152895E+02  0.7546771E-02  0.1511845E+00
          2   -1    0    0  503    0  0.00000000000E+00  0.00000000000E+00  0.33871788086E+03  0.33871788086E+03  0.00000000000E+00 0.  1.
         21   -1    0    0  501  502 -0.00000000000E+00 -0.00000000000E+00 -0.32735959464E+02  0.32735959464E+02  0.00000000000E+00 0. -1.
          2    1    1    2  501    0  0.77440010334E+01 -0.20087955006E+02  0.33479469887E+03  0.33548619328E+03  0.00000000000E+00 0.  1.
         21    1    1    2  503  502 -0.77440010334E+01  0.20087955006E+02 -0.28812777474E+02  0.35967647047E+02  0.00000000000E+00 0. -1.
</event>
<event>
 4    1  0.2285999E+005  0.3420828E+02  0.7546771E-02  0.1386216E+00
          2   -1    0    0  502    0  0.00000000000E+00  0.00000000000E+00  0.19051363309E+03  0.19051363309E+03  0.00000000000E+00 0. -1.
         21   -1    0    0  503  502 -0.00000000000E+00 -0.00000000000E+00 -0.82732957529E+01  0.82732957529E+01  0.00000000000E+00 0. -1.
          2    1    1    2  501    0  0.33752371464E+02  0.55663096464E+01  0.14156330638E+03  0.14563782509E+03  0.00000000000E+00 0. -1.
         21    1    1    2  503  501 -0.33752371464E+02 -0.55663096464E+01  0.40677030950E+02  0.53149103750E+02  0.00000000000E+00 0. -1.
</event>
<event>
 4    1  0.2285999E+005  0.3188479E+02  0.7546771E-02  0.1403895E+00
          2   -1    0    0  503    0  0.00000000000E+00  0.00000000000E+00  0.25092228392E+03  0.25092228392E+03  0.00000000000E+00 0. -1.
         21   -1    0    0  501  502 -0.00000000000E+00 -0.00000000000E+00 -0.23407783013E+02  0.23407783013E+02  0.00000000000E+00 0.  1.
          2    1    1    2  501    0  0.29315544815E+02 -0.12539472590E+02  0.23848784898E+03  0.24060983698E+03  0.00000000000E+00 0. -1.
         21    1    1    2  503  502 -0.29315544815E+02  0.12539472590E+02 -0.10973348067E+02  0.33720229958E+02  0.00000000000E+00 0.  1.
</event>
<event>
 4    1  0.2285999E+005  0.5889089E+02  0.7546771E-02  0.1263648E+00
          2   -1    0    0  503    0  0.00000000000E+00  0.00000000000E+00  0.11070110509E+03  0.11070110509E+03  0.00000000000E+00 0. -1.
         21   -1    0    0  501  502 -0.00000000000E+00 -0.00000000000E+00 -0.62253036111E+02  0.62253036111E+02  0.00000000000E+00 0. -1.
          2    1    1    2  501    0 -0.84770530473E+01 -0.58277583605E+02  0.85173501513E+02  0.10355028990E+03  0.00000000000E+00 0. -1.
         21    1    1    2  503  502  0.84770530473E+01  0.58277583605E+02 -0.36725432538E+02  0.69403851293E+02  0.00000000000E+00 0. -1.
</event>
<event>
 4    1  0.2285999E+005  0.2842278E+02  0.7546771E-02  0.1433817E+00
          2   -1    0    0  502    0  0.00000000000E+00  0.00000000000E+00  0.70745028287E+02  0.70745028287E+02  0.00000000000E+00 0. -1.
         21   -1    0    0  503  502 -0.00000000000E+00 -0.00000000000E+00 -0.57624341640E+02  0.57624341640E+02  0.00000000000E+00 0. -1.
          2    1    1    2  501    0 -0.97216341668E+01 -0.26708506417E+02  0.64034603369E+02  0.70059152967E+02  0.00000000000E+00 0. -1.
         21    1    1    2  503  501  0.97216341668E+01  0.26708506417E+02 -0.50913916722E+02  0.58310216960E+02  0.00000000000E+00 0. -1.
</event>
<event>
 4    1  0.2285999E+005  0.2730147E+02  0.7546771E-02  0.1444603E+00
          2   -1    0    0  503    0  0.00000000000E+00  0.00000000000E+00  0.13491748257E+04  0.13491748257E+04  0.00000000000E+00 0.  1.
         21   -1    0    0  501  502 -0.00000000000E+00 -0.00000000000E+00 -0.23942659711E+02  0.23942659711E+02  0.00000000000E+00 0.  1.
          2    1    1    2  501    0 -0.26939852905E+02 -0.44288381514E+01  0.13412076133E+04  0.13414854574E+04  0.00000000000E+00 0.  1.
         21    1    1    2  503  502  0.26939852905E+02  0.44288381514E+01 -0.15975447323E+02  0.31632028058E+02  0.00000000000E+00 0.  1.
</event>
<event>
 4    1  0.2285999E+005  0.2434785E+02  0.7546771E-02  0.1476233E+00
          2   -1    0    0  502    0  0.00000000000E+00  0.00000000000E+00  0.12061781769E+04  0.12061781769E+04  0.00000000000E+00 0.  1.
         21   -1    0    0  503  502 -0.00000000000E+00 -0.00000000000E+00 -0.11496133710E+01  0.11496133710E+01  0.00000000000E+00 0.  1.
          2    1    1    2  501    0 -0.17575135797E+02  0.16850286586E+02  0.10592603926E+04  0.10595401818E+04  0.00000000000E+00 0.  1.
         21    1    1    2  503  501  0.17575135797E+02 -0.16850286586E+02  0.14576817096E+03  0.14778760849E+03  0.00000000000E+00 0.  1.
</event>
<event>
 4    1  0.2285999E+005  0.2246860E+02  0.7546771E-02  0.1499281E+00
          2   -1    0    0  503    0  0.00000000000E+00  0.00000000000E+00  0.14763884317E+04  0.14763884317E+04  0.00000000000E+00 0. -1.
         21   -1    0    0  501  502 -0.00000000000E+00 -0.00000000000E+00 -0.19007183149E+01  0.19007183149E+01  0.00000000000E+00 0. -1.
          2    1    1    2  501    0 -0.99436026338E+01 -0.20148515796E+02  0.14066081397E+04  0.14067875805E+04  0.00000000000E+00 0. -1.
         21    1    1    2  503  502  0.99436026338E+01  0.20148515796E+02  0.67879573660E+02  0.71501569510E+02  0.00000000000E+00 0. -1.
</event>
<event>
 4    1  0.2285999E+005  0.2133293E+02  0.7546771E-02  0.1514564E+00
          2   -1    0    0  503    0  0.00000000000E+00  0.00000000000E+00  0.10679240424E+02  0.10679240424E+02  0.00000000000E+00 0. -1.
         21   -1    0    0  501  502 -0.00000000000E+00 -0.00000000000E+00 -0.55661483930E+02  0.55661483930E+02  0.00000000000E+00 0. -1.
          2    1    1    2  501    0  0.45555510594E+01 -0.20840848614E+02 -0.64319777415E+01  0.22281480069E+02  0.00000000000E+00 0. -1.
         21    1    1    2  503  502 -0.45555510594E+01  0.20840848614E+02 -0.38550265765E+02  0.44059244285E+02  0.00000000000E+00 0. -1.
</event>
<event>
 4    1  0.2285999E+005  0.2131196E+02  0.7546771E-02  0.1514857E+00
          2   -1    0    0  503    0  0.00000000000E+00  0.00000000000E+00  0.50600692258E+03  0.50600692258E+03  0.00000000000E+00 0. -1.
         21   -1    0    0  501  502 -0.00000000000E+00 -0.00000000000E+00 -0.14318099194E+02  0.14318099194E+02  0.00000000000E+00 0.  1.
          2    1    1    2  501    0 -0.20996383682E+01  0.21208284906E+02  0.49772001911E+03  0.49817609061E+03  0.00000000000E+00 0. -1.
         21    1    1    2  503  502  0.20996383682E+01 -0.21208284906E+02 -0.60311957244E+01  0.22148931166E+02  0.00000000000E+00 0.  1.
</event>
<event>
 4    1  0.2285999E+005  0.2261971E+02  0.7546771E-02  0.1497330E+00
          2   -1    0    0  503    0  0.00000000000E+00  0.00000000000E+00  0.53547575049E+01  0.53547575049E+01  0.00000000000E+00 0.  1.
         21   -1    0    0  501  502 -0.00000000000E+00 -0.00000000000E+00 -0.10022544874E+03  0.10022544874E+03  0.00000000000E+00 0.  1.
          2    1    1    2  501    0  0.14319451471E+02 -0.17510122460E+02 -0.36034410758E+02  0.42545620664E+02  0.00000000000E+00 0.  1.
         21    1    1    2  503  502 -0.14319451471E+02  0.17510122460E+02 -0.58836280478E+02  0.63034585582E+02  0.00000000000E+00 0.  1.
</event>
<event>
 4    1  0.2285999E+005  0.2932568E+02  0.7546771E-02  0.1425548E+00
          2   -1    0    0  503    0  0.00000000000E+00  0.00000000000E+00  0.11788652685E+04  0.11788652685E+04  0.00000000000E+00 0. -1.
         21   -1    0    0  501  502 -0.00000000000E+00 -0.00000000000E+00 -0.29908241238E+02  0.29908241238E+02  0.00000000000E+00 0.  1.
          2    1    1    2  501    0 -0.21513934112E+02 -0.19928522641E+02  0.11714487710E+04  0.11718157783E+04  0.00000000000E+00 0. -1.
         21    1    1    2  503  502  0.21513934112E+02  0.19928522641E+02 -0.22491743699E+02  0.36957731400E+02  0.00000000000E+00 0.  1.
</event>
<event>
 4    1  0.2285999E+005  0.2200976E+02  0.7546771E-02  0.1505322E+00
          2   -1    0    0  503    0  0.00000000000E+00  0.00000000000E+00  0.18877978865E+03  0.18877978865E+03  0.00000000000E+00 0.  1.
         21   -1    0    0  501  502 -0.00000000000E+00 -0.00000000000E+00 -0.12232900130E+02  0.12232900130E+02  0.00000000000E+00 0.  1.
          2    1    1    2  501    0  0.18276878787E+02 -0.12263157397E+02  0.17761838226E+03  0.17897686734E+03  0.00000000000E+00 0.  1.
         21    1    1    2  503  502 -0.18276878787E+02  0.12263157397E+02 -0.10714937396E+01  0.22035821436E+02  0.00000000000E+00 0.  1.
</event>
<event>
 4    1  0.2285999E+005  0.2610007E+02  0.7546771E-02  0.1456864E+00
          2   -1    0    0  503    0  0.00000000000E+00  0.00000000000E+00  0.20531496073E+01  0.20531496073E+01  0.00000000000E+00 0.  1.
         21   -1    0    0  501  502 -0.00000000000E+00 -0.00000000000E+00 -0.62563061735E+03  0.62563061735E+03  0.00000000000E+00 0.  1.
          2    1    1    2  501    0 -0.20494334727E+02  0.16161556946E+02 -0.96704727852E+02  0.10016495429E+03  0.00000000000E+00 0.  1.
         21    1    1    2  503  502  0.20494334727E+02 -0.16161556946E+02 -0.52687273989E+03  0.52751881267E+03  0.00000000000E+00 0.  1.
</event>
<event>
 4    1  0.2285999E+005  0.2204890E+02  0.7546771E-02  0.1504799E+00
          2   -1    0    0  503    0  0.00000000000E+00  0.00000000000E+00  0.99375908117E+00  0.99375908117E+00  0.00000000000E+00 0.  1.
         21   -1    0    0  501  502 -0.00000000000E+00 -0.00000000000E+00 -0.55113698031E+03  0.55113698031E+03  0.00000000000E+00 0.  1.
          2    1    1    2  501    0  0.14013116722E+02  0.17023120785E+02 -0.18253108087E+03  0.18385796030E+03  0.00000000000E+00 0.  1.
         21    1    1    2  503  502 -0.14013116722E+02 -0.17023120785E+02 -0.36761214036E+03  0.36827277909E+03  0.00000000000E+00 0.  1.
</event>
<event>
 4    1  0.2285999E+005  0.2246699E+02  0.7546771E-02  0.1499302E+00
          2   -1    0    0  503    0  0.00000000000E+00  0.00000000000E+00  0.22019125878E+02  0.22019125878E+02  0.00000000000E+00 0. -1.
         21   -1    0    0  501  502 -0.00000000000E+00 -0.00000000000E+00 -0.30343852992E+02  0.30343852992E+02  0.00000000000E+00 0.  1.
          2    1    1    2  501    0  0.16187473691E+02  0.15579844102E+02  0.87842870469E+01  0.24123215906E+02  0.00000000000E+00 0. -1.
         21    1    1    2  503  502 -0.16187473691E+02 -0.15579844102E+02 -0.17109014161E+02  0.28239762964E+02  0.00000000000E+00 0.  1.
</event>
<event>
 4    1  0.2285999E+005  0.3183634E+02  0.7546771E-02  0.1404282E+00
          2   -1    0    0  503    0  0.00000000000E+00  0.00000000000E+00  0.90493911082E+03  0.90493911082E+03  0.00000000000E+00 0. -1.
         21   -1    0    0  501  502 -0.00000000000E+00 -0.00000000000E+00 -0.12421194986E+01  0.12421194986E+01  0.00000000000E+00 0. -1.
          2    1    1    2  501    0 -0.27553616116E+02  0.15948375982E+02  0.59390309409E+03  0.59475577982E+03  0.00000000000E+00 0. -1.
         21    1    1    2  503  502  0.27553616116E+02 -0.15948375982E+02  0.30979389723E+03  0.31142545050E+03  0.00000000000E+00 0. -1.
</event>
<event>
 4    1  0.2285999E+005  0.2544476E+02  0.7546771E-02  0.1463889E+00
          2   -1    0    0  502    0  0.00000000000E+00  0.00000000000E+00  0.25871502829E+03  0.25871502829E+03  0.00000000000E+00 0.  1.
         21   -1    0    0  503  502 -0.00000000000E+00 -0.00000000000E+00 -0.64363006898E+01  0.64363006898E+01  0.00000000000E+00 0.  1.
          2    1    1    2  501    0  0.83447111028E+01 -0.24037502917E+02  0.22978512110E+03  0.23118961401E+03  0.00000000000E+00 0.  1.
         21    1    1    2  503  501 -0.83447111028E+01  0.24037502917E+02  0.22493606499E+02  0.33961714963E+02  0.00000000000E+00 0.  1.
</event>
<event>
 4    1  0.2285999E+005  0.2041833E+02  0.7546771E-02  0.1527734E+00
          2   -1    0    0  503    0  0.00000000000E+00  0.00000000000E+00  0.88050346671E+03  0.88050346671E+03  0.00000000000E+00 0. -1.
         21   -1    0    0  501  502 -0.00000000000E+00 -0.00000000000E+00 -0.62861661099E+00  0.62861661099E+00  0.00000000000E+00 0. -1.
          2    1    1    2  501    0 -0.15652454731E+02  0.13111402584E+02  0.65879592712E+03  0.65911226798E+03  0.00000000000E+00 0. -1.
         21    1    1    2  503  502  0.15652454731E+02 -0.13111402584E+02  0.22107892298E+03  0.22201981534E+03  0.00000000000E+00 0. -1.
</event>
<event>
 4    1  0.2285999E+005  0.2105399E+02  0.7546771E-02  0.1518495E+00
          2   -1    0    0  503    0  0.00000000000E+00  0.00000000000E+00  0.13844144210E+04  0.13844144210E+04  0.00000000000E+00 0.  1.
         21   -1    0    0  501  502 -0.00000000000E+00 -0.00000000000E+00 -0.11302731688E+01  0.11302731688E+01  0.00000000000E+00 0.  1.
          2    1    1    2  501    0  0.14830256680E+02 -0.14944363132E+02  0.12781375095E+04  0.12783109026E+04  0.00000000000E+00 0.  1.
         21    1    1    2  503  502 -0.14830256680E+02  0.14944363132E+02  0.10514663826E+03  0.10723379150E+03  0.00000000000E+00 0.  1.
</event>
<event>
 4    1  0.2285999E+005  0.2750766E+02  0.7546771E-02  0.1442574E+00
          2   -1    0    0  503    0  0.00000000000E+00  0.00000000000E+00  0.12808858899E+04  0.12808858899E+04  0.00000000000E+00 0. -1.
         21   -1    0    0  501  502 -0.00000000000E+00 -0.00000000000E+00 -0.64913051597E+00  0.64913051597E+00  0.00000000000E+00 0. -1.
          2    1    1    2  501    0 -0.43242901107E+01 -0.27165633794E+02  0.83229645706E+03  0.83275090128E+03  0.00000000000E+00 0. -1.
         21    1    1    2  503  502  0.43242901107E+01  0.27165633794E+02  0.44794030228E+03  0.44878411910E+03  0.00000000000E+00 0. -1.
</event>
<event>
 4    1  0.2285999E+005  0.3677445E+02  0.7546771E-02  0.1368500E+00
          2   -1    0    0  502    0  0.00000000000E+00  0.00000000000E+00  0.78959466087E+03  0.78959466087E+03  0.00000000000E+00 0. -1.
         21   -1    0    0  503  502 -0.00000000000E+00 -0.00000000000E+00 -0.84305209456E+01  0.84305209456E+01  0.00000000000E+00 0.  1.
          2    1    1    2  501    0 -0.31751185423E+02  0.18553230415E+02  0.74676469635E+03  0.74766962748E+03  0.00000000000E+00 0. -1.
         21    1    1    2  503  501  0.31751185423E+02 -0.18553230415E+02  0.34399443573E+02  0.50355554339E+02  0.00000000000E+00 0.  1.
</event>
<event>
 4    1  0.2285999E+005  0.2587267E+02  0.7546771E-02  0.1459273E+00
          2   -1    0    0  503    0  0.00000000000E+00  0.00000000000E+00  0.43079254930E+01  0.43079254930E+01  0.00000000000E+00 0.  1.
         21   -1    0    0  501  502 -0.00000000000E+00 -0.00000000000E+00 -0.32445010669E+03  0.32445010669E+03  0.00000000000E+00 0.  1.
          2    1    1    2  501    0  0.81640307241E-01  0.25872543898E+02 -0.41413106570E+02  0.48830734059E+02  0.00000000000E+00 0.  1.
         21    1    1    2  503  502 -0.81640307241E-01 -0.25872543898E+02 -0.27872907463E+03  0.27992729812E+03  0.00000000000E+00 0.  1.
</event>
<event>
 4    1  0.2285999E+005  0.2537367E+02  0.7546771E-02  0.1464666E+00
          2   -1    0    0  503    0  0.00000000000E+00  0.00000000000E+00  0.20090559051E+03  0.20090559051E+03  0.00000000000E+00 0. -1.
         21   -1    0    0  501  502 -0.00000000000E+00 -0.00000000000E+00 -0.48521568481E+01  0.48521568481E+01  0.00000000000E+00 0. -1.
          2    1    1    2  501    0  0.62439477658E+01 -0.24593422406E+02  0.15797519559E+03  0.15999995541E+03  0.00000000000E+00 0. -1.
         21    1    1    2  503  502 -0.62439477658E+01  0.24593422406E+02  0.38078238073E+02  0.45757791950E+02  0.00000000000E+00 0. -1.
</event>
<event>
 4    1  0.2285999E+005  0.2345529E+02  0.7546771E-02  0.1486859E+00
          2   -1    0    0  503    0  0.00000000000E+00  0.00000000000E+00  0.20001192960E+03  0.20001192960E+03  0.00000000000E+00 0. -1.
         21   -1    0    0  501  502 -0.00000000000E+00 -0.00000000000E+00 -0.58666829072E+01  0.58666829072E+01  0.00000000000E+00 0. -1.
          2    1    1    2  501    0  0.22689598950E+02  0.59441451993E+01  0.17209488389E+03  0.17368592293E+03  0.00000000000E+00 0. -1.
         21    1    1    2  503  502 -0.22689598950E+02 -0.59441451993E+01  0.22050362810E+02  0.32192689585E+02  0.00000000000E+00 0. -1.
</event>
<event>
 4    1  0.2285999E+005  0.4505796E+02  0.7546771E-02  0.1321150E+00
          2   -1    0    0  503    0  0.00000000000E+00  0.00000000000E+00  0.36853798846E+04  0.36853798846E+04  0.00000000000E+00 0. -1.
         21   -1    0    0  501  502 -0.00000000000E+00 -0.00000000000E+00 -0.56250519668E+00  0.56250519668E+00  0.00000000000E+00 0. -1.
          2    1    1    2  501    0 -0.34717995605E+02 -0.28720729739E+02  0.21072995025E+04  0.21077811587E+04  0.00000000000E+00 0. -1.
         21    1    1    2  503  502  0.34717995605E+02  0.28720729739E+02  0.15775178768E+04  0.15781612311E+04  0.00000000000E+00 0. -1.
</event>
<event>
 4    1  0.2285999E+005  0.2099782E+02  0.7546771E-02  0.1519296E+00
          2   -1    0    0  502    0  0.00000000000E+00  0.00000000000E+00  0.10615847281E+04  0.10615847281E+04  0.00000000000E+00 0. -1.
         21   -1    0    0  503  502 -0.00000000000E+00 -0.00000000000E+00 -0.43566070741E+00  0.43566070741E+00  0.00000000000E+00 0. -1.
          2    1    1    2  501    0  0.10512981310E+02 -0.18176510441E+02  0.64528463426E+03  0.64562618249E+03  0.00000000000E+00 0. -1.
         21    1    1    2  503  501 -0.10512981310E+02  0.18176510441E+02  0.41586443309E+03  0.41639420627E+03  0.00000000000E+00 0. -1.
</event>
<event>
 4    1  0.2285999E+005  0.2012684E+02  0.7546771E-02  0.1532106E+00
          2   -1    0    0  502    0  0.00000000000E+00  0.00000000000E+00  0.88681960412E+03  0.88681960412E+03  0.00000000000E+00 0.  1.
         21   -1    0    0  503  502 -0.00000000000E+00 -0.00000000000E+00 -0.74498302360E+00  0.74498302360E+00  0.00000000000E+00 0.  1.
          2    1    1    2  501    0  0.15129141413E+02  0.13273987163E+02  0.71905637834E+03  0.71933800462E+03  0.00000000000E+00 0.  1.
         21    1    1    2  503  501 -0.15129141413E+02 -0.13273987163E+02  0.16701824275E+03  0.16822658252E+03  0.00000000000E+00 0.  1.
</event>
<event>
 4    1  0.2285999E+005  0.2778210E+02  0.7546771E-02  0.1439906E+00
          2   -1    0    0  503    0  0.00000000000E+00  0.00000000000E+00  0.39415071575E+02  0.39415071575E+02  0.00000000000E+00 0. -1.
         21   -1    0    0  501  502 -0.00000000000E+00 -0.00000000000E+00 -0.27479710584E+02  0.27479710584E+02  0.00000000000E+00 0.  1.
          2    1    1    2  501    0  0.16036159486E+01 -0.27735776179E+02  0.23898228827E+02  0.36646557893E+02  0.00000000000E+00 0. -1.
         21    1    1    2  503  502 -0.16036159486E+01  0.27735776179E+02 -0.11962867836E+02  0.30248224265E+02  0.00000000000E+00 0.  1.
</event>
<event>
 4    1  0.2285999E+005  0.2127449E+02  0.7546771E-02  0.1515382E+00
          2   -1    0    0  503    0  0.00000000000E+00  0.00000000000E+00  0.35542310315E+03  0.35542310315E+03  0.00000000000E+00 0.  1.
         21   -1    0    0  501  502 -0.00000000000E+00 -0.00000000000E+00 -0.70873800224E+01  0.70873800224E+01  0.00000000000E+00 0.  1.
          2    1    1    2  501    0  0.36840526844E+01  0.20953078895E+02  0.33833402296E+03  0.33900223429E+03  0.00000000000E+00 0.  1.
         21    1    1    2  503  502 -0.36840526844E+01 -0.20953078895E+02  0.10001700165E+02  0.23508248883E+02  0.00000000000E+00 0.  1.
</event>
<event>
 4    1  0.2285999E+005  0.6675300E+02  0.7546771E-02  0.1238467E+00
          2   -1    0    0  502    0  0.00000000000E+00  0.00000000000E+00  0.24781984419E+04  0.24781984419E+04  0.00000000000E+00 0. -1.
         21   -1    0    0  503  502 -0.00000000000E+00 -0.00000000000E+00 -0.33978585254E+01  0.33978585254E+01  0.00000000000E+00 0.  1.
          2    1    1    2  501    0 -0.63917545916E+02  0.19248657749E+02  0.20887938693E+04  0.20898602326E+04  0.00000000000E+00 0. -1.
         21    1    1    2  503  501  0.63917545916E+02 -0.19248657749E+02  0.38600671404E+03  0.39173606776E+03  0.00000000000E+00 0.  1.
</event>
<event>
 4    1  0.2285999E+005  0.2367129E+02  0.7546771E-02  0.1484236E+00
          2   -1    0    0  503    0  0.00000000000E+00  0.00000000000E+00  0.17460554598E+03  0.17460554598E+03  0.00000000000E+00 0.  1.
         21   -1    0    0  501  502 -0.00000000000E+00 -0.00000000000E+00 -0.41673458944E+02  0.41673458944E+02  0.00000000000E+00 0.  1.
          2    1    1    2  501    0 -0.23629393376E+02 -0.14077436912E+01  0.17035843297E+03  0.17199513266E+03  0.00000000000E+00 0.  1.
         21    1    1    2  503  502  0.23629393376E+02  0.14077436912E+01 -0.37426345931E+02  0.44283872271E+02  0.00000000000E+00 0.  1.
</event>
<event>
 4    1  0.2285999E+005  0.4076941E+02  0.7546771E-02  0.1344035E+00
          2   -1    0    0  503    0  0.00000000000E+00  0.00000000000E+00  0.29343747253E+04  0.29343747253E+04  0.00000000000E+00 0. -1.
         21   -1    0    0  501  502 -0.00000000000E+00 -0.00000000000E+00 -0.48673518501E+02  0.48673518501E+02  0.00000000000E+00 0. -1.
          2    1    1    2  501    0 -0.13041165062E+02 -0.38627355444E+02  0.29256705056E+04  0.29259545540E+04  0.00000000000E+00 0. -1.
         21    1    1    2  503  502  0.13041165062E+02  0.38627355444E+02 -0.39969298784E+02  0.57093689845E+02  0.00000000000E+00 0. -1.
</event>
<event>
 4    1  0.2285999E+005  0.2206380E+02  0.7546771E-02  0.1504601E+00
          2   -1    0    0  502    0  0.00000000000E+00  0.00000000000E+00  0.10998805040E+03  0.10998805040E+03  0.00000000000E+00 0.  1.
         21   -1    0    0  503  502 -0.00000000000E+00 -0.00000000000E+00 -0.34474793735E+02  0.34474793735E+02  0.00000000000E+00 0. -1.
          2    1    1    2  501    0  0.11552051407E+02 -0.18797913300E+02  0.10519212557E+03  0.10748113657E+03  0.00000000000E+00 0.  1.
         21    1    1    2  503  501 -0.11552051407E+02  0.18797913300E+02 -0.29678868897E+02  0.36981707575E+02  0.00000000000E+00 0. -1.
</event>
<event>
 4    1  0.2285999E+005  0.2337710E+02  0.7546771E-02  0.1487816E+00
          2   -1    0    0  503    0  0.00000000000E+00  0.00000000000E+00  0.23863372483E+03  0.23863372483E+03  0.00000000000E+00 0.  1.
         21   -1    0    0  501  502 -0.00000000000E+00 -0.00000000000E+00 -0.66050508487E+01  0.66050508487E+01  0.00000000000E+00 0.  1.
          2    1    1    2  501    0 -0.21349536824E+02  0.95229243302E+01  0.21512270218E+03  0.21638915362E+03  0.00000000000E+00 0.  1.
         21    1    1    2  503  502  0.21349536824E+02 -0.95229243302E+01  0.16905971798E+02  0.28849622058E+02  0.00000000000E+00 0.  1.
</event>
<event>
 4    1  0.2285999E+005  0.3275059E+02  0.7546771E-02  0.1397107E+00
          2   -1    0    0  503    0  0.00000000000E+00  0.00000000000E+00  0.37381870810E+03  0.37381870810E+03  0.00000000000E+00 0. -1.
         21   -1    0    0  501  502 -0.00000000000E+00 -0.00000000000E+00 -0.82952051763E+01  0.82952051763E+01  0.00000000000E+00 0. -1.
          2    1    1    2  501    0  0.57634396402E+01 -0.32239472739E+02  0.33728188945E+03  0.33886822481E+03  0.00000000000E+00 0. -1.
         21    1    1    2  503  502 -0.57634396402E+01  0.32239472739E+02  0.28241613480E+02  0.43245688467E+02  0.00000000000E+00 0. -1.
</event>
<event>
 4    1  0.2285999E+005  0.3217376E+02  0.7546771E-02  0.1401601E+00
          2   -1    0    0  503    0  0.00000000000E+00  0.00000000000E+00  0.46843650125E+02  0.46843650125E+02  0.00000000000E+00 0.  1.
         21   -1    0    0  501  502 -0.00000000000E+00 -0.00000000000E+00 -0.15261326180E+03  0.15261326180E+03  0.00000000000E+00 0. -1.
          2    1    1    2  501    0  0.31037933624E+02  0.84733496459E+01  0.39341243946E+02  0.50822086272E+02  0.00000000000E+00 0.  1.
         21    1    1    2  503  502 -0.31037933624E+02 -0.84733496459E+01 -0.14511085562E+03  0.14863482565E+03  0.00000000000E+00 0. -1.
</event>
<event>
 4    1  0.2285999E+005  0.2149996E+02  0.7546771E-02  0.1512245E+00
          2   -1    0    0  502    0  0.00000000000E+00  0.00000000000E+00  0.11618649956E+02  0.11618649956E+02  0.00000000000E+00 0.  1.
         21   -1    0    0  503  502 -0.00000000000E+00 -0.00000000000E+00 -0.11214937840E+03  0.11214937840E+03  0.00000000000E+00 0.  1.
          2    1    1    2  501    0  0.79597111188E+01 -0.19972259772E+02 -0.55551855061E+00  0.21507132825E+02  0.00000000000E+00 0.  1.
         21    1    1    2  503  501 -0.79597111188E+01  0.19972259772E+02 -0.99975209893E+02  0.10226089553E+03  0.00000000000E+00 0.  1.
</event>
<event>
 4    1  0.2285999E+005  0.3330121E+02  0.7546771E-02  0.1392916E+00
          2   -1    0    0  503    0  0.00000000000E+00  0.00000000000E+00  0.88051148465E+03  0.88051148465E+03  0.00000000000E+00 0. -1.
         21   -1    0    0  501  502 -0.00000000000E+00 -0.00000000000E+00 -0.72463212774E+02  0.72463212774E+02  0.00000000000E+00 0.  1.
          2    1    1    2  501    0 -0.27186542198E+01  0.33190056269E+02  0.87635248933E+03  0.87698498076E+03  0.00000000000E+00 0. -1.
         21    1    1    2  503  502  0.27186542198E+01 -0.33190056269E+02 -0.68304217459E+02  0.75989716663E+02  0.00000000000E+00 0.  1.
</event>
<event>
 4    1  0.2285999E+005  0.2046767E+02  0.7546771E-02  0.1527003E+00
          2   -1    0    0  503    0  0.00000000000E+00  0.00000000000E+00  0.10431795628E+02  0.10431795628E+02  0.00000000000E+00 0. -1.
         21   -1    0    0  501  502 -0.00000000000E+00 -0.00000000000E+00 -0.50730568410E+02  0.50730568410E+02  0.00000000000E+00 0. -1.
          2    1    1    2  501    0 -0.51041517964E+01 -0.19821032324E+02 -0.61889641967E+01  0.21382912939E+02  0.00000000000E+00 0. -1.
         21    1    1    2  503  502  0.51041517964E+01  0.19821032324E+02 -0.34109808585E+02  0.39779451098E+02  0.00000000000E+00 0. -1.
</event>
<event>
 4    1  0.2285999E+005  0.2089156E+02  0.7546771E-02  0.1520819E+00
          2   -1    0    0  502    0  0.00000000000E+00  0.00000000000E+00  0.10823994560E+04  0.10823994560E+04  0.00000000000E+00 0. -1.
         21   -1    0    0  503  502 -0.00000000000E+00 -0.00000000000E+00 -0.48594009179E+01  0.48594009179E+01  0.00000000000E+00 0.  1.
          2    1    1    2  501    0 -0.19231567948E+02  0.81611221070E+01  0.10593559973E+04  0.10595619784E+04  0.00000000000E+00 0. -1.
         21    1    1    2  503  501  0.19231567948E+02 -0.81611221070E+01  0.18184057743E+02  0.27696878448E+02  0.00000000000E+00 0.  1.
</event>
<event>
 4    1  0.2285999E+005  0.2045214E+02  0.7546771E-02  0.1527232E+00
          2   -1    0    0  503    0  0.00000000000E+00  0.00000000000E+00  0.54484641792E+02  0.54484641792E+02  0.00000000000E+00 0. -1.
         21   -1    0    0  501  502 -0.00000000000E+00 -0.00000000000E+00 -0.67647313064E+02  0.67647313064E+02  0.00000000000E+00 0. -1.
          2    1    1    2  501    0 -0.20357242568E+02  0.19679343573E+01  0.50915167371E+02  0.54869338971E+02  0.00000000000E+00 0. -1.
         21    1    1    2  503  502  0.20357242568E+02 -0.19679343573E+01 -0.64077838643E+02  0.67262615885E+02  0.00000000000E+00 0. -1.
</event>
<event>
 4    1  0.2285999E+005  0.2551140E+02  0.7546771E-02  0.1463163E+00
          2   -1    0    0  502    0  0.00000000000E+00  0.00000000000E+00  0.13805750336E+02  0.13805750336E+02  0.00000000000E+00 0.  1.
         21   -1    0    0  503  502 -0.00000000000E+00 -0.00000000000E+00 -0.61670936119E+02  0.61670936119E+02  0.00000000000E+00 0.  1.
          2    1    1    2  501    0 -0.24549357899E+02  0.69397902173E+01 -0.56154215966E+01  0.26122109816E+02  0.00000000000E+00 0.  1.
         21    1    1    2  503  501  0.24549357899E+02 -0.69397902173E+01 -0.42249764186E+02  0.49354576640E+02  0.00000000000E+00 0.  1.
</event>
<event>
 4    1  0.2285999E+005  0.3004804E+02  0.7546771E-02  0.1419179E+00
          2   -1    0    0  503    0  0.00000000000E+00  0.00000000000E+00  0.47546236154E+02  0.47546236154E+02  0.00000000000E+00 0. -1.
         21   -1    0    0  501  502 -0.00000000000E+00 -0.00000000000E+00 -0.19034940818E+02  0.19034940818E+02  0.00000000000E+00 0. -1.
          2    1    1    2  501    0  0.58324345412E+01  0.29476561226E+02  0.12631240725E+02  0.32594987294E+02  0.00000000000E+00 0. -1.
         21    1    1    2  503  502 -0.58324345412E+01 -0.29476561226E+02  0.15880054611E+02  0.33986189679E+02  0.00000000000E+00 0. -1.
</event>
<event>
 4    1  0.2285999E+005  0.2427406E+02  0.7546771E-02  0.1477091E+00
          2   -1    0    0  502    0  0.00000000000E+00  0.00000000000E+00  0.51429418999E+03  0.51429418999E+03  0.00000000000E+00 0. -1.
         21   -1    0    0  503  502 -0.00000000000E+00 -0.00000000000E+00 -0.52735823348E+01  0.52735823348E+01  0.00000000000E+00 0. -1.
          2    1    1    2  501    0  0.17153294334E+02  0.17175407461E+02  0.48434874287E+03  0.48495663192E+03  0.00000000000E+00 0. -1.
         21    1    1    2  503  501 -0.17153294334E+02 -0.17175407461E+02  0.24671864794E+02  0.34611140409E+02  0.00000000000E+00 0. -1.
</event>
<event>
 4    1  0.2285999E+005  0.2690643E+02  0.7546771E-02  0.1448550E+00
          2   -1    0    0  503    0  0.00000000000E+00  0.00000000000E+00  0.43406539181E+03  0.43406539181E+03  0.00000000000E+00 0. -1.
         21   -1    0    0  501  502 -0.00000000000E+00 -0.00000000000E+00 -0.30588113685E+02  0.30588113685E+02  0.00000000000E+00 0. -1.
          2    1    1    2  501    0  0.24934425769E+02 -0.10110901349E+02  0.42764267997E+03  0.42848829347E+03  0.00000000000E+00 0. -1.
         21    1    1    2  503  502 -0.24934425769E+02  0.10110901349E+02 -0.24165401841E+02  0.36165212023E+02  0.00000000000E+00 0. -1.
</event>
<event>
 4    1  0.2285999E+005  0.2731863E+02  0.7546771E-02  0.1444433E+00
          2   -1    0    0  502    0  0.00000000000E+00  0.00000000000E+00  0.11312045401E+03  0.11312045401E+03  0.00000000000E+00 0.  1.
         21   -1    0    0  503  502 -0.00000000000E+00 -0.00000000000E+00 -0.42403214557E+02  0.42403214557E+02  0.00000000000E+00 0.  1.
          2    1    1    2  501    0 -0.33892662442E+01  0.27107568956E+02  0.10681541490E+03  0.11025352729E+03  0.00000000000E+00 0.  1.
         21    1    1    2  503  501  0.33892662442E+01 -0.27107568956E+02 -0.36098175446E+02  0.45270141274E+02  0.00000000000E+00 0.  1.
</event>
<event>
 4    1  0.2285999E+005  0.2695508E+02  0.7546771E-02  0.1448060E+00
          2   -1    0    0  503    0  0.00000000000E+00  0.00000000000E+00  0.59828913455E+03  0.59828913455E+03  0.00000000000E+00 0. -1.
         21   -1    0    0  501  502 -0.00000000000E+00 -0.00000000000E+00 -0.68360238588E+01  0.68360238588E+01  0.00000000000E+00 0. -1.
          2    1    1    2  501    0 -0.26917040662E+02  0.14316125527E+01  0.57010083633E+03  0.57073771575E+03  0.00000000000E+00 0. -1.
         21    1    1    2  503  502  0.26917040662E+02 -0.14316125527E+01  0.21352274366E+02  0.34387442666E+02  0.00000000000E+00 0. -1.
</event>
<event>
 4    1  0.2285999E+005  0.2282566E+02  0.7546771E-02  0.1494699E+00
          2   -1    0    0  502    0  0.00000000000E+00  0.00000000000E+00  0.75888431231E+03  0.75888431231E+03  0.00000000000E+00 0. -1.
         21   -1    0    0  503  502 -0.00000000000E+00 -0.00000000000E+00 -0.14165194574E+01  0.14165194574E+01  0.00000000000E+00 0. -1.
          2    1    1    2  501    0 -0.13225702806E+02  0.18603533925E+02  0.65162983096E+03  0.65202948345E+03  0.00000000000E+00 0. -1.
         21    1    1    2  503  501  0.13225702806E+02 -0.18603533925E+02  0.10583796189E+03  0.10827134832E+03  0.00000000000E+00 0. -1.
</event>
<event>
 4    1  0.2285999E+005  0.2442169E+02  0.7546771E-02  0.1475378E+00
          2   -1    0    0  502    0  0.00000000000E+00  0.00000000000E+00  0.23944166707E+03  0.23944166707E+03  0.00000000000E+00 0. -1.
         21   -1    0    0  503  502 -0.00000000000E+00 -0.00000000000E+00 -0.41078113710E+02  0.41078113710E+02  0.00000000000E+00 0. -1.
          2    1    1    2  501    0  0.24325446096E+02  0.21659572478E+01  0.23512266793E+03  0.23638757936E+03  0.00000000000E+00 0. -1.
         21    1    1    2  503  501 -0.24325446096E+02 -0.21659572478E+01 -0.36759114571E+02  0.44132201425E+02  0.00000000000E+00 0. -1.
</event>
<event>
 4    1  0.2285999E+005  0.3273704E+02  0.7546771E-02  0.1397211E+00
          2   -1    0    0  502    0  0.00000000000E+00  0.00000000000E+00  0.59816713112E+03  0.59816713112E+03  0.00000000000E+00 0. -1.
         21   -1    0    0  503  502 -0.00000000000E+00 -0.00000000000E+00 -0.38495125288E+01  0.38495125288E+01  0.00000000000E+00 0. -1.
          2    1    1    2  501    0 -0.32665051552E+02  0.21698217892E+01  0.51723977163E+03  0.51827472934E+03  0.00000000000E+00 0. -1.
         21    1    1    2  503  501  0.32665051552E+02 -0.21698217892E+01  0.77077846961E+02  0.83741914306E+02  0.00000000000E+00 0. -1.
</event>
<event>
 4    1  0.2285999E+005  0.2076398E+02  0.7546771E-02  0.1522662E+00
          2   -1    0    0  502    0  0.00000000000E+00  0.00000000000E+00  0.95248096940E+02  0.95248096940E+02  0.00000000000E+00 0.  1.
         21   -1    0    0  503  502 -0.00000000000E+00 -0.00000000000E+00 -0.11320084654E+03  0.11320084654E+03  0.00000000000E+00 0.  1.
          2    1    1    2  501    0 -0.20047922064E+02  0.54058811794E+01  0.93143044715E+02  0.95429395415E+02  0.00000000000E+00 0.  1.
         21    1    1    2  503  501  0.20047922064E+02 -0.54058811794E+01 -0.11109579431E+03  0.11301954806E+03  0.00000000000E+00 0.  1.
</event>
<event>
 4    1  0.2285999E+005  0.2676560E+02  0.7546771E-02  0.1449977E+00
          2   -1    0    0  503    0  0.00000000000E+00  0.00000000000E+00  0.13771578411E+04  0.13771578411E+04  0.00000000000E+00 0. -1.
         21   -1    0    0  501  502 -0.00000000000E+00 -0.00000000000E+00 -0.57811040079E+01  0.57811040079E+01  0.00000000000E+00 0.  1.
          2    1    1    2  501    0  0.13081316808E+02 -0.23351155470E+02  0.13453144431E+04  0.13455806732E+04  0.00000000000E+00 0. -1.
         21    1    1    2  503  502 -0.13081316808E+02  0.23351155470E+02  0.26062294009E+02  0.37358271912E+02  0.00000000000E+00 0.  1.
</event>
<event>
 4    1  0.2285999E+005  0.2131510E+02  0.7546771E-02  0.1514813E+00
          2   -1    0    0  502    0  0.00000000000E+00  0.00000000000E+00  0.14368514300E+04  0.14368514300E+04  0.00000000000E+00 0. -1.
         21   -1    0    0  503  502 -0.00000000000E+00 -0.00000000000E+00 -0.56020549227E+00  0.56020549227E+00  0.00000000000E+00 0. -1.
          2    1    1    2  501    0 -0.21309059289E+02 -0.50758960783E+00  0.11924711597E+04  0.11926616453E+04  0.00000000000E+00 0. -1.
         21    1    1    2  503  501  0.21309059289E+02  0.50758960783E+00  0.24382006486E+03  0.24474999016E+03  0.00000000000E+00 0. -1.
</event>
<event>
 4    1  0.2285999E+005  0.2903444E+02  0.7546771E-02  0.1428177E+00
          2   -1    0    0  502    0  0.00000000000E+00  0.00000000000E+00  0.38250157148E+02  0.38250157148E+02  0.00000000000E+00 0.  1.
         21   -1    0    0  503  502 -0.00000000000E+00 -0.00000000000E+00 -0.36178064667E+02  0.36178064667E+02  0.00000000000E+00 0. -1.
          2    1    1    2  501    0 -0.28659773187E+02 -0.46492960402E+01  0.24300560098E+02  0.37861798345E+02  0.00000000000E+00 0.  1.
         21    1    1    2  503  501  0.28659773187E+02  0.46492960402E+01 -0.22228467616E+02  0.36566423470E+02  0.00000000000E+00 0. -1.
</event>
<event>
 4    1  0.2285999E+005  0.3013127E+02  0.7546771E-02  0.1418459E+00
          2   -1    0    0  503    0  0.00000000000E+00  0.00000000000E+00  0.18848780306E+04  0.18848780306E+04  0.00000000000E+00 0.  1.
         21   -1    0    0  501  502 -0.00000000000E+00 -0.00000000000E+00 -0.60425877257E+00  0.60425877257E+00  0.00000000000E+00 0.  1.
          2    1    1    2  501    0 -0.29035846966E+02 -0.80506653744E+01  0.13667585747E+04  0.13670906682E+04  0.00000000000E+00 0.  1.
         21    1    1    2  503  502  0.29035846966E+02  0.80506653744E+01  0.51751519718E+03  0.51839162120E+03  0.00000000000E+00 0.  1.
</event>
<event>
 4    1  0.2285999E+005  0.5232017E+02  0.7546771E-02  0.1288415E+00
          2   -1    0    0  503    0  0.00000000000E+00  0.00000000000E+00  0.42696795280E+02  0.42696795280E+02  0.00000000000E+00 0. -1.
         21   -1    0    0  501  502 -0.00000000000E+00 -0.00000000000E+00 -0.13608776849E+04  0.13608776849E+04  0.00000000000E+00 0.  1.
          2    1    1    2  501    0  0.48869849648E+02 -0.18685236230E+02  0.25966359967E+02  0.58409349487E+02  0.00000000000E+00 0. -1.
         21    1    1    2  503  502 -0.48869849648E+02  0.18685236230E+02 -0.13441472496E+04  0.13451651307E+04  0.00000000000E+00 0.  1.
</event>
<event>
 4    1  0.2285999E+005  0.2911051E+02  0.7546771E-02  0.1427487E+00
          2   -1    0    0  503    0  0.00000000000E+00  0.00000000000E+00  0.28728129708E+03  0.28728129708E+03  0.00000000000E+00 0.  1.
         21   -1    0    0  501  502 -0.00000000000E+00 -0.00000000000E+00 -0.56230524034E+01  0.56230524034E+01  0.00000000000E+00 0. -1.
          2    1    1    2  501    0 -0.20251136682E+02 -0.20912036908E+02  0.24180785062E+03  0.24355381017E+03  0.00000000000E+00 0.  1.
         21    1    1    2  503  502  0.20251136682E+02  0.20912036908E+02  0.39850394058E+02  0.49350539320E+02  0.00000000000E+00 0. -1.
</event>
<event>
 4    1  0.2285999E+005  0.2418032E+02  0.7546771E-02  0.1478186E+00
          2   -1    0    0  503    0  0.00000000000E+00  0.00000000000E+00  0.11409962011E+03  0.11409962011E+03  0.00000000000E+00 0.  1.
         21   -1    0    0  501  502 -0.00000000000E+00 -0.00000000000E+00 -0.59332528352E+02  0.59332528352E+02  0.00000000000E+00 0.  1.
          2    1    1    2  501    0  0.16822535161E+02  0.17369233189E+02  0.11027037628E+03  0.11289040630E+03  0.00000000000E+00 0.  1.
         21    1    1    2  503  502 -0.16822535161E+02 -0.17369233189E+02 -0.55503284522E+02  0.60541742158E+02  0.00000000000E+00 0.  1.
</event>
<event>
 4    1  0.2285999E+005  0.3585391E+02  0.7546771E-02  0.1374657E+00
          2   -1    0    0  502    0  0.00000000000E+00  0.00000000000E+00  0.88190185604E+02  0.88190185604E+02  0.00000000000E+00 0. -1.
         21   -1    0    0  503  502 -0.00000000000E+00 -0.00000000000E+00 -0.29387396001E+02  0.29387396001E+02  0.00000000000E+00 0.  1.
          2    1    1    2  501    0 -0.22001257187E+02 -0.28309844691E+02  0.71136826473E+02  0.79661475664E+02  0.00000000000E+00 0. -1.
         21    1    1    2  503  501  0.22001257187E+02  0.28309844691E+02 -0.12334036870E+02  0.37916105941E+02  0.00000000000E+00 0.  1.
</event>
<event>
 4    1  0.2285999E+005  0.2150031E+02  0.7546771E-02  0.1512240E+00
          2   -1    0    0  502    0  0.00000000000E+00  0.00000000000E+00  0.22679552334E+02  0.22679552334E+02  0.00000000000E+00 0. -1.
         21   -1    0    0  503  502 -0.00000000000E+00 -0.00000000000E+00 -0.35321445055E+02  0.35321445055E+02  0.00000000000E+00 0. -1.
          2    1    1    2  501    0  0.14988678995E+02  0.15414365800E+02  0.12539327604E+02  0.24889714900E+02  0.00000000000E+00 0. -1.
         21    1    1    2  503  501 -0.14988678995E+02 -0.15414365800E+02 -0.25181220325E+02  0.33111282490E+02  0.00000000000E+00 0. -1.
</event>
<event>
 4    1  0.2285999E+005  0.2332188E+02  0.7546771E-02  0.1488495E+00
          2   -1    0    0  503    0  0.00000000000E+00  0.00000000000E+00  0.59194223027E+03  0.59194223027E+03  0.00000000000E+00 0. -1.
         21   -1    0    0  501  502 -0.00000000000E+00 -0.00000000000E+00 -0.12280209653E+01  0.12280209653E+01  0.00000000000E+00 0. -1.
          2    1    1    2  501    0 -0.11863160659E+02 -0.20079236140E+02  0.44417010033E+03  0.44478195594E+03  0.00000000000E+00 0. -1.
         21    1    1    2  503  502  0.11863160659E+02  0.20079236140E+02  0.14654410898E+03  0.14838829530E+03  0.00000000000E+00 0. -1.
</event>
<event>
 4    1  0.2285999E+005  0.2799720E+02  0.7546771E-02  0.1437840E+00
          2   -1    0    0  502    0  0.00000000000E+00  0.00000000000E+00  0.14515993820E+04  0.14515993820E+04  0.00000000000E+00 0. -1.
         21   -1    0    0  503  502 -0.00000000000E+00 -0.00000000000E+00 -0.41962191263E+02  0.41962191263E+02  0.00000000000E+00 0.  1.
          2    1    1    2  501    0 -0.15354708449E+02  0.23411030282E+02  0.14467788888E+04  0.14470497560E+04  0.00000000000E+00 0. -1.
         21    1    1    2  503  501  0.15354708449E+02 -0.23411030282E+02 -0.37141698033E+02  0.46511817242E+02  0.00000000000E+00 0.  1.
</event>
<event>
 4    1  0.2285999E+005  0.2178468E+02  0.7546771E-02  0.1508350E+00
          2   -1    0    0  503    0  0.00000000000E+00  0.00000000000E+00  0.10035531254E+04  0.10035531254E+04  0.00000000000E+00 0.  1.
         21   -1    0    0  501  502 -0.00000000000E+00 -0.00000000000E+00 -0.15400309258E+02  0.15400309258E+02  0.00000000000E+00 0. -1.
          2    1    1    2  501    0  0.21016989694E+02 -0.57322409712E+01  0.99566997082E+03  0.99590826045E+03  0.00000000000E+00 0.  1.
         21    1    1    2  503  502 -0.21016989694E+02  0.57322409712E+01 -0.75171546362E+01  0.23045174249E+02  0.00000000000E+00 0. -1.
</event>
<event>
 4    1  0.2285999E+005  0.2013156E+02  0.7546771E-02  0.1532034E+00
          2   -1    0    0  502    0  0.00000000000E+00  0.00000000000E+00  0.56646853936E+03  0.56646853936E+03  0.00000000000E+00 0.  1.
         21   -1    0    0  503  502 -0.00000000000E+00 -0.00000000000E+00 -0.96726288010E+00  0.96726288010E+00  0.00000000000E+00 0.  1.
          2    1    1    2  501    0 -0.16578833781E+02  0.11420250139E+02  0.42751230005E+03  0.42798603545E+03  0.00000000000E+00 0.  1.
         21    1    1    2  503  501  0.16578833781E+02 -0.11420250139E+02  0.13798897643E+03  0.13944976679E+03  0.00000000000E+00 0.  1.
</event>
<event>
 4    1  0.2285999E+005  0.3052650E+02  0.7546771E-02  0.1415075E+00
          2   -1    0    0  502    0  0.00000000000E+00  0.00000000000E+00  0.13316096446E+03  0.13316096446E+03  0.00000000000E+00 0.  1.
         21   -1    0    0  503  502 -0.00000000000E+00 -0.00000000000E+00 -0.61991855795E+02  0.61991855795E+02  0.00000000000E+00 0.  1.
          2    1    1    2  501    0  0.28562489179E+02 -0.10772704388E+02  0.12748855337E+03  0.13109232697E+03  0.00000000000E+00 0.  1.
         21    1    1    2  503  501 -0.28562489179E+02  0.10772704388E+02 -0.56319444710E+02  0.64060493289E+02  0.00000000000E+00 0.  1.
</event>
<event>
 4    1  0.2285999E+005  0.3766298E+02  0.7546771E-02  0.1362753E+00
          2   -1    0    0  502    0  0.00000000000E+00  0.00000000000E+00  0.81130607289E+03  0.81130607289E+03  0.00000000000E+00 0. -1.
         21   -1    0    0  503  502 -0.00000000000E+00 -0.00000000000E+00 -0.82670699849E+01  0.82670699849E+01  0.00000000000E+00 0.  1.
          2    1    1    2  501    0 -0.96910871481E+01  0.36394814484E+02  0.76540178711E+03  0.76632786417E+03  0.00000000000E+00 0. -1.
         21    1    1    2  503  501  0.96910871481E+01 -0.36394814484E+02  0.37637215790E+02  0.53245278700E+02  0.00000000000E+00 0.  1.
</event>
<event>
 4    1  0.2285999E+005  0.3536071E+02  0.7546771E-02  0.1378045E+00
          2   -1    0    0  502    0  0.00000000000E+00  0.00000000000E+00  0.12864423932E+04  0.12864423932E+04  0.00000000000E+00 0. -1.
         21   -1    0    0  503  502 -0.00000000000E+00 -0.00000000000E+00 -0.60007516192E+01  0.60007516192E+01  0.00000000000E+00 0. -1.
          2    1    1    2  501    0 -0.35328360277E+02 -0.15122751099E+01  0.12317962512E+04  0.12323036900E+04  0.00000000000E+00 0. -1.
         21    1    1    2  503  501  0.35328360277E+02  0.15122751099E+01  0.48645390382E+02  0.60139454781E+02  0.00000000000E+00 0. -1.
</event>
<event>
 4    1  0.2285999E+005  0.2078705E+02  0.7546771E-02  0.1522327E+00
          2   -1    0    0  502    0  0.00000000000E+00  0.00000000000E+00  0.69694033678E+02  0.69694033678E+02  0.00000000000E+00 0. -1.
         21   -1    0    0  503  502 -0.00000000000E+00 -0.00000000000E+00 -0.76897431602E+02  0.76897431602E+02  0.00000000000E+00 0. -1.
          2    1    1    2  501    0  0.16650665128E+02  0.12444139487E+02  0.66677154613E+02  0.69842280920E+02  0.00000000000E+00 0. -1.
         21    1    1    2  503  501 -0.16650665128E+02 -0.12444139487E+02 -0.73880552537E+02  0.76749184360E+02  0.00000000000E+00 0. -1.
</event>
<event>
 4    1  0.2445527E+005  0.2259621E+02  0.7546771E-02  0.1497632E+00
          2   -1    0    0  503    0  0.00000000000E+00  0.00000000000E+00  0.82595646024E+03  0.82595646024E+03  0.00000000000E+00 0.  1.
         21   -1    0    0  501  502 -0.00000000000E+00 -0.00000000000E+00 -0.37795307461E+03  0.37795307461E+03  0.00000000000E+00 0. -1.
          2    1    1    2  501    0  0.47161706531E+01  0.22098564625E+02  0.82546398112E+03  0.82577319704E+03  0.00000000000E+00 0.  1.
         21    1    1    2  503  502 -0.47161706531E+01 -0.22098564625E+02 -0.37746059549E+03  0.37813633780E+03  0.00000000000E+00 0. -1.
</event>
<event>
 4    1  0.2285999E+005  0.2379834E+02  0.7546771E-02  0.1482709E+00
          2   -1    0    0  503    0  0.00000000000E+00  0.00000000000E+00  0.37102177270E+03  0.37102177270E+03  0.00000000000E+00 0. -1.
         21   -1    0    0  501  502 -0.00000000000E+00 -0.00000000000E+00 -0.60306542548E+01  0.60306542548E+01  0.00000000000E+00 0. -1.
          2    1    1    2  501    0  0.16463779645E+02  0.17184444270E+02  0.34542389496E+03  0.34624273043E+03  0.00000000000E+00 0. -1.
         21    1    1    2  503  502 -0.16463779645E+02 -0.17184444270E+02  0.19567223482E+02  0.30809696523E+02  0.00000000000E+00 0. -1.
</event>
<event>
 4    1  0.2285999E+005  0.2684056E+02  0.7546771E-02  0.1449216E+00
          2   -1    0    0  503    0  0.00000000000E+00  0.00000000000E+00  0.48064364363E+03  0.48064364363E+03  0.00000000000E+00 0.  1.
         21   -1    0    0  501  502 -0.00000000000E+00 -0.00000000000E+00 -0.23653169396E+01  0.23653169396E+01  0.00000000000E+00 0.  1.
          2    1    1    2  501    0 -0.21136941138E+02  0.16542230925E+02  0.38530806252E+03  0.38624178791E+03  0.00000000000E+00 0.  1.
         21    1    1    2  503  502  0.21136941138E+02 -0.16542230925E+02  0.92970264170E+02  0.96767172660E+02  0.00000000000E+00 0.  1.
</event>
<event>
 4    1  0.2285999E+005  0.2473537E+02  0.7546771E-02  0.1471786E+00
          2   -1    0    0  502    0  0.00000000000E+00  0.00000000000E+00  0.31662969513E+03  0.31662969513E+03  0.00000000000E+00 0.  1.
         21   -1    0    0  503  502 -0.00000000000E+00 -0.00000000000E+00 -0.31040805796E+02  0.31040805796E+02  0.00000000000E+00 0. -1.
          2    1    1    2  501    0 -0.23951231786E+02 -0.61787543318E+01  0.31113197774E+03  0.31211367493E+03  0.00000000000E+00 0.  1.
         21    1    1    2  503  501  0.23951231786E+02  0.61787543318E+01 -0.25543088406E+02  0.35556825990E+02  0.00000000000E+00 0. -1.
</event>
<event>
 4    1  0.2285999E+005  0.3576716E+02  0.7546771E-02  0.1375249E+00
          2   -1    0    0  502    0  0.00000000000E+00  0.00000000000E+00  0.23519588959E+04  0.23519588959E+04  0.00000000000E+00 0.  1.
         21   -1    0    0  503  502 -0.00000000000E+00 -0.00000000000E+00 -0.20129637773E+01  0.20129637773E+01  0.00000000000E+00 0. -1.
          2    1    1    2  501    0 -0.10328700847E+02 -0.34243363212E+02  0.21804447190E+04  0.21807380546E+04  0.00000000000E+00 0.  1.
         21    1    1    2  503  501  0.10328700847E+02  0.34243363212E+02  0.16950121305E+03  0.17323380504E+03  0.00000000000E+00 0. -1.
</event>
<event>
 4    1  0.2285999E+005  0.2200502E+02  0.7546771E-02  0.1505385E+00
          2   -1    0    0  503    0  0.00000000000E+00  0.00000000000E+00  0.75472744898E+03  0.75472744898E+03  0.00000000000E+00 0. -1.
         21   -1    0    0  501  502 -0.00000000000E+00 -0.00000000000E+00 -0.34521101707E+01  0.34521101707E+01  0.00000000000E+00 0.  1.
          2    1    1    2  501    0  0.10617385290E+02  0.19274128886E+02  0.71769081087E+03  0.71802807809E+03  0.00000000000E+00 0. -1.
         21    1    1    2  503  502 -0.10617385290E+02 -0.19274128886E+02  0.33584527941E+02  0.40151481065E+02  0.00000000000E+00 0.  1.
</event>
<event>
 4    1  0.2285999E+005  0.2165286E+02  0.7546771E-02  0.1510144E+00
          2   -1    0    0  503    0  0.00000000000E+00  0.00000000000E+00  0.60051349728E+03  0.60051349728E+03  0.00000000000E+00 0.  1.
         21   -1    0    0  501  502 -0.00000000000E+00 -0.00000000000E+00 -0.22125164636E+01  0.22125164636E+01  0.00000000000E+00 0. -1.
          2    1    1    2  501    0  0.17449498594E+02 -0.12820355762E+02  0.54157910882E+03  0.54201178736E+03  0.00000000000E+00 0.  1.
         21    1    1    2  503  502 -0.17449498594E+02  0.12820355762E+02  0.56721872001E+02  0.60714226391E+02  0.00000000000E+00 0. -1.
</event>
<event>
 4    1  0.2285999E+005  0.2276890E+02  0.7546771E-02  0.1495421E+00
          2   -1    0    0  502    0  0.00000000000E+00  0.00000000000E+00  0.34511180039E+03  0.34511180039E+03  0.00000000000E+00 0. -1.
         21   -1    0    0  503  502 -0.00000000000E+00 -0.00000000000E+00 -0.95982348746E+01  0.95982348746E+01  0.00000000000E+00 0. -1.
          2    1    1    2  501    0  0.12572430467E+01  0.22734162595E+02  0.33064298584E+03  0.33142602025E+03  0.00000000000E+00 0. -1.
         21    1    1    2  503  501 -0.12572430467E+01 -0.22734162595E+02  0.48705796705E+01  0.23284015017E+02  0.00000000000E+00 0. -1.
</event>
<event>
 4    1  0.2285999E+005  0.2242277E+02  0.7546771E-02  0.1499876E+00
          2   -1    0    0  502    0  0.00000000000E+00  0.00000000000E+00  0.13401314413E+02  0.13401314413E+02  0.00000000000E+00 0. -1.
         21   -1    0    0  503  502 -0.00000000000E+00 -0.00000000000E+00 -0.14224155288E+03  0.14224155288E+03  0.00000000000E+00 0.  1.
          2    1    1    2  501    0 -0.12039894818E+02 -0.18916170857E+02  0.23542362147E+01  0.22546019943E+02  0.00000000000E+00 0. -1.
         21    1    1    2  503  501  0.12039894818E+02  0.18916170857E+02 -0.13119447468E+03  0.13309684735E+03  0.00000000000E+00 0.  1.
</event>
<event>
 4    1  0.2285999E+005  0.2389521E+02  0.7546771E-02  0.1481553E+00
          2   -1    0    0  503    0  0.00000000000E+00  0.00000000000E+00  0.65265120954E+03  0.65265120954E+03  0.00000000000E+00 0. -1.
         21   -1    0    0  501  502 -0.00000000000E+00 -0.00000000000E+00 -0.95119342465E+00  0.95119342465E+00  0.00000000000E+00 0. -1.
          2    1    1    2  501    0  0.19504214711E+02  0.13804582070E+02  0.41842548560E+03  0.41910722718E+03  0.00000000000E+00 0. -1.
         21    1    1    2  503  502 -0.19504214711E+02 -0.13804582070E+02  0.23327453052E+03  0.23449517579E+03  0.00000000000E+00 0. -1.
</event>
<event>
 4    1  0.2285999E+005  0.2631868E+02  0.7546771E-02  0.1454575E+00
          2   -1    0    0  502    0  0.00000000000E+00  0.00000000000E+00  0.33385808499E+03  0.33385808499E+03  0.00000000000E+00 0.  1.
         21   -1    0    0  503  502 -0.00000000000E+00 -0.00000000000E+00 -0.81972023507E+01  0.81972023507E+01  0.00000000000E+00 0. -1.
          2    1    1    2  501    0  0.23191372251E+02  0.12443206016E+02  0.31063780758E+03  0.31175073476E+03  0.00000000000E+00 0.  1.
         21    1    1    2  503  501 -0.23191372251E+02 -0.12443206016E+02  0.15023075050E+02  0.30304552575E+02  0.00000000000E+00 0. -1.
</event>
<event>
 4    1  0.2285999E+005  0.2317302E+02  0.7546771E-02  0.1490337E+00
          2   -1    0    0  503    0  0.00000000000E+00  0.00000000000E+00  0.19229330166E+02  0.19229330166E+02  0.00000000000E+00 0. -1.
         21   -1    0    0  501  502 -0.00000000000E+00 -0.00000000000E+00 -0.44115168547E+02  0.44115168547E+02  0.00000000000E+00 0. -1.
          2    1    1    2  501    0  0.22829026966E+02  0.39779974963E+01  0.67439326620E+01  0.24134406229E+02  0.00000000000E+00 0. -1.
         21    1    1    2  503  502 -0.22829026966E+02 -0.39779974963E+01 -0.31629771043E+02  0.39210092483E+02  0.00000000000E+00 0. -1.
</event>
<event>
 4    1  0.2285999E+005  0.2145211E+02  0.7546771E-02  0.1512907E+00
          2   -1    0    0  502    0  0.00000000000E+00  0.00000000000E+00  0.37205966786E+03  0.37205966786E+03  0.00000000000E+00 0. -1.
         21   -1    0    0  503  502 -0.00000000000E+00 -0.00000000000E+00 -0.20303944449E+01  0.20303944449E+01  0.00000000000E+00 0. -1.
          2    1    1    2  501    0 -0.16716431052E+01 -0.21386875649E+02  0.30194670248E+03  0.30270778645E+03  0.00000000000E+00 0. -1.
         21    1    1    2  503  501  0.16716431052E+01  0.21386875649E+02  0.68082570937E+02  0.71382275854E+02  0.00000000000E+00 0. -1.
</event>
<event>
 4    1  0.2285999E+005  0.2660103E+02  0.7546771E-02  0.1451658E+00
          2   -1    0    0  502    0  0.00000000000E+00  0.00000000000E+00  0.75245693808E+03  0.75245693808E+03  0.00000000000E+00 0.  1.
         21   -1    0    0  503  502 -0.00000000000E+00 -0.00000000000E+00 -0.94127368512E+00  0.94127368512E+00  0.00000000000E+00 0.  1.
          2    1    1    2  501    0 -0.29778847614E+01  0.26433821117E+02  0.36431785814E+03  0.36528771736E+03  0.00000000000E+00 0.  1.
         21    1    1    2  503  501  0.29778847614E+01 -0.26433821117E+02  0.38719780626E+03  0.38811049440E+03  0.00000000000E+00 0.  1.
</event>
<event>
 4    1  0.3118370E+005  0.2356905E+02  0.7546771E-02  0.1485474E+00
          2   -1    0    0  503    0  0.00000000000E+00  0.00000000000E+00  0.10213141086E+04  0.10213141086E+04  0.00000000000E+00 0. -1.
         21   -1    0    0  501  502 -0.00000000000E+00 -0.00000000000E+00 -0.27879932883E+03  0.27879932883E+03  0.00000000000E+00 0.  1.
          2    1    1    2  501    0  0.39558474902E+01 -0.23234699951E+02  0.10206797041E+04  0.10209517904E+04  0.00000000000E+00 0. -1.
         21    1    1    2  503  502 -0.39558474902E+01  0.23234699951E+02 -0.27816492435E+03  0.27916164699E+03  0.00000000000E+00 0.  1.
</event>
<event>
 4    1  0.2285999E+005  0.2042425E+02  0.7546771E-02  0.1527646E+00
          2   -1    0    0  503    0  0.00000000000E+00  0.00000000000E+00  0.26513052414E+02  0.26513052414E+02  0.00000000000E+00 0. -1.
         21   -1    0    0  501  502 -0.00000000000E+00 -0.00000000000E+00 -0.10136565898E+03  0.10136565898E+03  0.00000000000E+00 0.  1.
          2    1    1    2  501    0  0.20120570493E+02  0.35089122820E+01  0.21341659571E+02  0.29540078802E+02  0.00000000000E+00 0. -1.
         21    1    1    2  503  502 -0.20120570493E+02 -0.35089122820E+01 -0.96194266136E+02  0.98338632591E+02  0.00000000000E+00 0.  1.
</event>
<event>
 4    1  0.2285999E+005  0.2234833E+02  0.7546771E-02  0.1500847E+00
          2   -1    0    0  502    0  0.00000000000E+00  0.00000000000E+00  0.41080249266E+03  0.41080249266E+03  0.00000000000E+00 0.  1.
         21   -1    0    0  503  502 -0.00000000000E+00 -0.00000000000E+00 -0.11646085691E+03  0.11646085691E+03  0.00000000000E+00 0.  1.
          2    1    1    2  501    0 -0.20747018031E+02 -0.83071598181E+01  0.40942279974E+03  0.41003228727E+03  0.00000000000E+00 0.  1.
         21    1    1    2  503  501  0.20747018031E+02  0.83071598181E+01 -0.11508116399E+03  0.11723106229E+03  0.00000000000E+00 0.  1.
</event>
<event>
 4    1  0.2285999E+005  0.2695862E+02  0.7546771E-02  0.1448024E+00
          2   -1    0    0  503    0  0.00000000000E+00  0.00000000000E+00  0.14177052065E+04  0.14177052065E+04  0.00000000000E+00 0.  1.
         21   -1    0    0  501  502 -0.00000000000E+00 -0.00000000000E+00 -0.56001926374E+00  0.56001926374E+00  0.00000000000E+00 0.  1.
          2    1    1    2  501    0 -0.14954115021E+02 -0.22430818493E+02  0.91484304230E+03  0.91524016478E+03  0.00000000000E+00 0.  1.
         21    1    1    2  503  502  0.14954115021E+02  0.22430818493E+02  0.50230214497E+03  0.50302506102E+03  0.00000000000E+00 0.  1.
</event>
<event>
 4    1  0.2285999E+005  0.2606719E+02  0.7546771E-02  0.1457210E+00
          2   -1    0    0  502    0  0.00000000000E+00  0.00000000000E+00  0.90979115120E+03  0.90979115120E+03  0.00000000000E+00 0.  1.
         21   -1    0    0  503  502 -0.00000000000E+00 -0.00000000000E+00 -0.55454407956E+01  0.55454407956E+01  0.00000000000E+00 0.  1.
          2    1    1    2  501    0  0.73764175668E+01 -0.25001741414E+02  0.87785711625E+03  0.87824405216E+03  0.00000000000E+00 0.  1.
         21    1    1    2  503  501 -0.73764175668E+01  0.25001741414E+02  0.26388594158E+02  0.37092539836E+02  0.00000000000E+00 0.  1.
</event>
<event>
 4    1  0.2285999E+005  0.2828642E+02  0.7546771E-02  0.1435097E+00
          2   -1    0    0  503    0  0.00000000000E+00  0.00000000000E+00  0.12782439252E+04  0.12782439252E+04  0.00000000000E+00 0.  1.
         21   -1    0    0  501  502 -0.00000000000E+00 -0.00000000000E+00 -0.64041094627E+00  0.64041094627E+00  0.00000000000E+00 0. -1.
          2    1    1    2  501    0  0.24273183492E+02  0.14523567815E+02  0.73487785189E+03  0.73542204119E+03  0.00000000000E+00 0.  1.
         21    1    1    2  503  502 -0.24273183492E+02 -0.14523567815E+02  0.54272566240E+03  0.54346229500E+03  0.00000000000E+00 0. -1.
</event>
<event>
 4    1  0.2285999E+005  0.2130580E+02  0.7546771E-02  0.1514943E+00
          2   -1    0    0  503    0  0.00000000000E+00  0.00000000000E+00  0.11513162032E+04  0.11513162032E+04  0.00000000000E+00 0.  1.
         21   -1    0    0  501  502 -0.00000000000E+00 -0.00000000000E+00 -0.10050702333E+01  0.10050702333E+01  0.00000000000E+00 0.  1.
          2    1    1    2  501    0  0.20326399315E+02  0.63854902260E+01  0.10243068475E+04  0.10245284061E+04  0.00000000000E+00 0.  1.
         21    1    1    2  503  502 -0.20326399315E+02 -0.63854902260E+01  0.12600428541E+03  0.12779286732E+03  0.00000000000E+00 0.  1.
</event>
<event>
 4    1  0.2285999E+005  0.2154635E+02  0.7546771E-02  0.1511605E+00
          2   -1    0    0  502    0  0.00000000000E+00  0.00000000000E+00  0.66537859219E+03  0.66537859219E+03  0.00000000000E+00 0. -1.
         21   -1    0    0  503  502 -0.00000000000E+00 -0.00000000000E+00 -0.52336541425E+01  0.52336541425E+01  0.00000000000E+00 0. -1.
          2    1    1    2  501    0 -0.12661647587E+01  0.21509115588E+02  0.64222908268E+03  0.64259041377E+03  0.00000000000E+00 0. -1.
         21    1    1    2  503  501  0.12661647587E+01 -0.21509115588E+02  0.17915855361E+02  0.28021832558E+02  0.00000000000E+00 0. -1.
</event>
<event>
 4    1  0.2285999E+005  0.3234364E+02  0.7546771E-02  0.1400266E+00
          2   -1    0    0  503    0  0.00000000000E+00  0.00000000000E+00  0.16948058497E+04  0.16948058497E+04  0.00000000000E+00 0.  1.
         21   -1    0    0  501  502 -0.00000000000E+00 -0.00000000000E+00 -0.29960355325E+01  0.29960355325E+01  0.00000000000E+00 0.  1.
          2    1    1    2  501    0  0.22585891266E+02  0.23151427523E+02  0.16023224664E+04  0.16026488691E+04  0.00000000000E+00 0.  1.
         21    1    1    2  503  502 -0.22585891266E+02 -0.23151427523E+02  0.89487347690E+02  0.95153016122E+02  0.00000000000E+00 0.  1.
</event>
<event>
 4    1  0.2285999E+005  0.2106320E+02  0.7546771E-02  0.1518364E+00
          2   -1    0    0  502    0  0.00000000000E+00  0.00000000000E+00  0.50406889138E+03  0.50406889138E+03  0.00000000000E+00 0.  1.
         21   -1    0    0  503  502 -0.00000000000E+00 -0.00000000000E+00 -0.19690571591E+02  0.19690571591E+02  0.00000000000E+00 0.  1.
          2    1    1    2  501    0 -0.51423035781E+01  0.20425839740E+02  0.49814906743E+03  0.49859417526E+03  0.00000000000E+00 0.  1.
         21    1    1    2  503  501  0.51423035781E+01 -0.20425839740E+02 -0.13770747643E+02  0.25165287716E+02  0.00000000000E+00 0.  1.
</event>
<event>
 4    1  0.2285999E+005  0.2921510E+02  0.7546771E-02  0.1426542E+00
          2   -1    0    0  502    0  0.00000000000E+00  0.00000000000E+00  0.74747389702E+02  0.74747389702E+02  0.00000000000E+00 0.  1.
         21   -1    0    0  503  502 -0.00000000000E+00 -0.00000000000E+00 -0.35368775217E+02  0.35368775217E+02  0.00000000000E+00 0.  1.
          2    1    1    2  501    0  0.12395638471E+02 -0.26455061506E+02  0.64996172348E+02  0.71260259278E+02  0.00000000000E+00 0.  1.
         21    1    1    2  503  501 -0.12395638471E+02  0.26455061506E+02 -0.25617557863E+02  0.38855905642E+02  0.00000000000E+00 0.  1.
</event>
<event>
 4    1  0.2285999E+005  0.2177265E+02  0.7546771E-02  0.1508513E+00
          2   -1    0    0  502    0  0.00000000000E+00  0.00000000000E+00  0.46940512826E+03  0.46940512826E+03  0.00000000000E+00 0.  1.
         21   -1    0    0  503  502 -0.00000000000E+00 -0.00000000000E+00 -0.42690660855E+02  0.42690660855E+02  0.00000000000E+00 0. -1.
          2    1    1    2  501    0  0.79090196135E+01 -0.20285353441E+02  0.46635846486E+03  0.46686643261E+03  0.00000000000E+00 0.  1.
         21    1    1    2  503  501 -0.79090196135E+01  0.20285353441E+02 -0.39643997454E+02  0.45229356502E+02  0.00000000000E+00 0. -1.
</event>
<event>
 4    1  0.2285999E+005  0.3813030E+02  0.7546771E-02  0.1359805E+00
          2   -1    0    0  502    0  0.00000000000E+00  0.00000000000E+00  0.25014856245E+03  0.25014856245E+03  0.00000000000E+00 0. -1.
         21   -1    0    0  503  502 -0.00000000000E+00 -0.00000000000E+00 -0.39480196564E+02  0.39480196564E+02  0.00000000000E+00 0.  1.
          2    1    1    2  501    0  0.29088640011E+02 -0.24653015122E+02  0.23906469270E+03  0.24208644618E+03  0.00000000000E+00 0. -1.
         21    1    1    2  503  501 -0.29088640011E+02  0.24653015122E+02 -0.28396326815E+02  0.47542312826E+02  0.00000000000E+00 0.  1.
</event>
<event>
 4    1  0.2285999E+005  0.3407673E+02  0.7546771E-02  0.1387173E+00
          2   -1    0    0  503    0  0.00000000000E+00  0.00000000000E+00  0.31270027023E+03  0.31270027023E+03  0.00000000000E+00 0. -1.
         21   -1    0    0  501  502 -0.00000000000E+00 -0.00000000000E+00 -0.55530163696E+01  0.55530163696E+01  0.00000000000E+00 0.  1.
          2    1    1    2  501    0 -0.24065995101E+02 -0.24125735840E+02  0.24515901236E+03  0.24751598855E+03  0.00000000000E+00 0. -1.
         21    1    1    2  503  502  0.24065995101E+02  0.24125735840E+02  0.61988241499E+02  0.70737298042E+02  0.00000000000E+00 0.  1.
</event>
<event>
 4    1  0.2285999E+005  0.2715535E+02  0.7546771E-02  0.1446054E+00
          2   -1    0    0  502    0  0.00000000000E+00  0.00000000000E+00  0.15581212880E+03  0.15581212880E+03  0.00000000000E+00 0. -1.
         21   -1    0    0  503  502 -0.00000000000E+00 -0.00000000000E+00 -0.47358806227E+01  0.47358806227E+01  0.00000000000E+00 0. -1.
          2    1    1    2  501    0 -0.43613375162E+01  0.26802826670E+02  0.77616933719E+02  0.82230171971E+02  0.00000000000E+00 0. -1.
         21    1    1    2  503  501  0.43613375162E+01 -0.26802826670E+02  0.73459314461E+02  0.78317837454E+02  0.00000000000E+00 0. -1.
</event>
<event>
 4    1  0.2285999E+005  0.2382266E+02  0.7546771E-02  0.1482418E+00
          2   -1    0    0  503    0  0.00000000000E+00  0.00000000000E+00  0.10146170900E+04  0.10146170900E+04  0.00000000000E+00 0.  1.
         21   -1    0    0  501  502 -0.00000000000E+00 -0.00000000000E+00 -0.28601275921E+01  0.28601275921E+01  0.00000000000E+00 0. -1.
          2    1    1    2  501    0 -0.22908302083E+02  0.65367317254E+01  0.96216743573E+03  0.96246230759E+03  0.00000000000E+00 0.  1.
         21    1    1    2  503  502  0.22908302083E+02 -0.65367317254E+01  0.49589526712E+02  0.55014910030E+02  0.00000000000E+00 0. -1.
</event>
<event>
 4    1  0.2285999E+005  0.2050406E+02  0.7546771E-02  0.1526465E+00
          2   -1    0    0  503    0  0.00000000000E+00  0.00000000000E+00  0.41589235349E+01  0.41589235349E+01  0.00000000000E+00 0.  1.
         21   -1    0    0  501  502 -0.00000000000E+00 -0.00000000000E+00 -0.20413248497E+03  0.20413248497E+03  0.00000000000E+00 0. -1.
          2    1    1    2  501    0  0.11286109460E+02 -0.17118422553E+02 -0.25992528966E+02  0.33106316912E+02  0.00000000000E+00 0.  1.
         21    1    1    2  503  502 -0.11286109460E+02  0.17118422553E+02 -0.17398103247E+03  0.17518509159E+03  0.00000000000E+00 0. -1.
</event>
<event>
 4    1  0.2370112E+005  0.2874130E+02  0.7546771E-02  0.1430859E+00
          2   -1    0    0  502    0  0.00000000000E+00  0.00000000000E+00  0.99574565238E+03  0.99574565238E+03  0.00000000000E+00 0. -1.
         21   -1    0    0  503  502 -0.00000000000E+00 -0.00000000000E+00 -0.13744765744E+03  0.13744765744E+03  0.00000000000E+00 0.  1.
          2    1    1    2  501    0  0.19281556649E+01  0.28676549821E+02  0.99403316313E+03  0.99444858675E+03  0.00000000000E+00 0. -1.
         21    1    1    2  503  501 -0.19281556649E+01 -0.28676549821E+02 -0.13573516819E+03  0.13874472306E+03  0.00000000000E+00 0.  1.
</event>
<event>
 4    1  0.2285999E+005  0.5137899E+02  0.7546771E-02  0.1292302E+00
          2   -1    0    0  503    0  0.00000000000E+00  0.00000000000E+00  0.16731917814E+04  0.16731917814E+04  0.00000000000E+00 0.  1.
         21   -1    0    0  501  502 -0.00000000000E+00 -0.00000000000E+00 -0.28434280375E+02  0.28434280375E+02  0.00000000000E+00 0. -1.
          2    1    1    2  501    0  0.47329678752E+02  0.19992539934E+02  0.16492508582E+04  0.16500509670E+04  0.00000000000E+00 0.  1.
         21    1    1    2  503  502 -0.47329678752E+02 -0.19992539934E+02 -0.44933572401E+01  0.51575094795E+02  0.00000000000E+00 0. -1.
</event>
<event>
 4    1  0.2285999E+005  0.2176294E+02  0.7546771E-02  0.1508645E+00
          2   -1    0    0  503    0  0.00000000000E+00  0.00000000000E+00  0.14774720664E+03  0.14774720664E+03  0.00000000000E+00 0.  1.
         21   -1    0    0  501  502 -0.00000000000E+00 -0.00000000000E+00 -0.32853985105E+01  0.32853985105E+01  0.00000000000E+00 0.  1.
          2    1    1    2  501    0  0.21727319186E+02  0.12447271399E+01  0.60465425221E+02  0.64262690512E+02  0.00000000000E+00 0.  1.
         21    1    1    2  503  502 -0.21727319186E+02 -0.12447271399E+01  0.83996382904E+02  0.86769914634E+02  0.00000000000E+00 0.  1.
</event>
<event>
 4    1  0.2285999E+005  0.2953625E+02  0.7546771E-02  0.1423670E+00
          2   -1    0    0  502    0  0.00000000000E+00  0.00000000000E+00  0.87198454967E+03  0.87198454967E+03  0.00000000000E+00 0.  1.
         21   -1    0    0  503  502 -0.00000000000E+00 -0.00000000000E+00 -0.65783414386E+01  0.65783414386E+01  0.00000000000E+00 0.  1.
          2    1    1    2  501    0 -0.15831140832E+02 -0.24935222085E+02  0.83720362551E+03  0.83772447791E+03  0.00000000000E+00 0.  1.
         21    1    1    2  503  501  0.15831140832E+02  0.24935222085E+02  0.28202582719E+02  0.40838413197E+02  0.00000000000E+00 0.  1.
</event>
<event>
 4    1  0.2285999E+005  0.2925292E+02  0.7546771E-02  0.1426201E+00
          2   -1    0    0  503    0  0.00000000000E+00  0.00000000000E+00  0.71600018981E+03  0.71600018981E+03  0.00000000000E+00 0.  1.
         21   -1    0    0  501  502 -0.00000000000E+00 -0.00000000000E+00 -0.20549824685E+02  0.20549824685E+02  0.00000000000E+00 0. -1.
          2    1    1    2  501    0 -0.10644213051E+02  0.27247646701E+02  0.70513051827E+03  0.70573704828E+03  0.00000000000E+00 0.  1.
         21    1    1    2  503  502  0.10644213051E+02 -0.27247646701E+02 -0.96801531413E+01  0.30812966216E+02  0.00000000000E+00 0. -1.
</event>
<event>
 4    1  0.2285999E+005  0.2445871E+02  0.7546771E-02  0.1474951E+00
          2   -1    0    0  503    0  0.00000000000E+00  0.00000000000E+00  0.43000915703E+03  0.43000915703E+03  0.00000000000E+00 0.  1.
         21   -1    0    0  501  502 -0.00000000000E+00 -0.00000000000E+00 -0.50234692154E+01  0.50234692154E+01  0.00000000000E+00 0. -1.
          2    1    1    2  501    0 -0.22660688025E+02 -0.92044358232E+01  0.39745335639E+03  0.39820522213E+03  0.00000000000E+00 0.  1.
         21    1    1    2  503  502  0.22660688025E+02  0.92044358232E+01  0.27532331419E+02  0.36827404116E+02  0.00000000000E+00 0. -1.
</event>
<event>
 4    1  0.2285999E+005  0.2156816E+02  0.7546771E-02  0.1511305E+00
          2   -1    0    0  503    0  0.00000000000E+00  0.00000000000E+00  0.23339111826E+03  0.23339111826E+03  0.00000000000E+00 0. -1.
         21   -1    0    0  501  502 -0.00000000000E+00 -0.00000000000E+00 -0.44902060472E+01  0.44902060472E+01  0.00000000000E+00 0.  1.
          2    1    1    2  501    0  0.10032399376E+02 -0.19092838324E+02  0.20314780000E+03  0.20428953511E+03  0.00000000000E+00 0. -1.
         21    1    1    2  503  502 -0.10032399376E+02  0.19092838324E+02  0.25753112213E+02  0.33591789193E+02  0.00000000000E+00 0.  1.
</event>
<event>
 4    1  0.2285999E+005  0.2714050E+02  0.7546771E-02  0.1446202E+00
          2   -1    0    0  503    0  0.00000000000E+00  0.00000000000E+00  0.37572062269E+03  0.37572062269E+03  0.00000000000E+00 0. -1.
         21   -1    0    0  501  502 -0.00000000000E+00 -0.00000000000E+00 -0.36982631782E+01  0.36982631782E+01  0.00000000000E+00 0.  1.
          2    1    1    2  501    0  0.12766616607E+02 -0.23950374596E+02  0.31605302450E+03  0.31721620582E+03  0.00000000000E+00 0. -1.
         21    1    1    2  503  502 -0.12766616607E+02  0.23950374596E+02  0.55969335018E+02  0.62202680048E+02  0.00000000000E+00 0.  1.
</event>
<event>
 4    1  0.2285999E+005  0.2156334E+02  0.7546771E-02  0.1511372E+00
          2   -1    0    0  503    0  0.00000000000E+00  0.00000000000E+00  0.44126647357E+03  0.44126647357E+03  0.00000000000E+00 0. -1.
         21   -1    0    0  501  502 -0.00000000000E+00 -0.00000000000E+00 -0.16753230056E+01  0.16753230056E+01  0.00000000000E+00 0. -1.
          2    1    1    2  501    0  0.42324075062E+01  0.21143897695E+02  0.35469773338E+03  0.35535258511E+03  0.00000000000E+00 0. -1.
         21    1    1    2  503  502 -0.42324075062E+01 -0.21143897695E+02  0.84893417186E+02  0.87589211462E+02  0.00000000000E+00 0. -1.
</event>
<event>
 4    1  0.2285999E+005  0.2136024E+02  0.7546771E-02  0.1514183E+00
          2   -1    0    0  503    0  0.00000000000E+00  0.00000000000E+00  0.67636219455E+03  0.67636219455E+03  0.00000000000E+00 0. -1.
         21   -1    0    0  501  502 -0.00000000000E+00 -0.00000000000E+00 -0.96046120260E+00  0.96046120260E+00  0.00000000000E+00 0.  1.
          2    1    1    2  501    0  0.21330144774E+02 -0.11335036224E+01  0.52246559099E+03  0.52290204979E+03  0.00000000000E+00 0. -1.
         21    1    1    2  503  502 -0.21330144774E+02  0.11335036224E+01  0.15293614236E+03  0.15442060596E+03  0.00000000000E+00 0.  1.
</event>
<event>
 4    1  0.2285999E+005  0.3417155E+02  0.7546771E-02  0.1386483E+00
          2   -1    0    0  502    0  0.00000000000E+00  0.00000000000E+00  0.10998563272E+04  0.10998563272E+04  0.00000000000E+00 0. -1.
         21   -1    0    0  503  502 -0.00000000000E+00 -0.00000000000E+00 -0.10617192309E+01  0.10617192309E+01  0.00000000000E+00 0.  1.
          2    1    1    2  501    0  0.32902817065E+02  0.92249284499E+01  0.55277385289E+03  0.55382905948E+03  0.00000000000E+00 0. -1.
         21    1    1    2  503  501 -0.32902817065E+02 -0.92249284499E+01  0.54602075510E+03  0.54708898698E+03  0.00000000000E+00 0.  1.
</event>
<event>
 4    1  0.2285999E+005  0.3006533E+02  0.7546771E-02  0.1419030E+00
          2   -1    0    0  503    0  0.00000000000E+00  0.00000000000E+00  0.24947735742E+02  0.24947735742E+02  0.00000000000E+00 0.  1.
         21   -1    0    0  501  502 -0.00000000000E+00 -0.00000000000E+00 -0.41575170959E+02  0.41575170959E+02  0.00000000000E+00 0.  1.
          2    1    1    2  501    0  0.28883093877E+02 -0.83481002728E+01  0.36095468987E+01  0.30281227170E+02  0.00000000000E+00 0.  1.
         21    1    1    2  503  502 -0.28883093877E+02  0.83481002728E+01 -0.20236982116E+02  0.36241679531E+02  0.00000000000E+00 0.  1.
</event>
<event>
 4    1  0.2285999E+005  0.2100333E+02  0.7546771E-02  0.1519217E+00
          2   -1    0    0  502    0  0.00000000000E+00  0.00000000000E+00  0.11193688159E+03  0.11193688159E+03  0.00000000000E+00 0.  1.
         21   -1    0    0  503  502 -0.00000000000E+00 -0.00000000000E+00 -0.90943683323E+01  0.90943683323E+01  0.00000000000E+00 0.  1.
          2    1    1    2  501    0  0.44453912076E+01  0.20527499479E+02  0.96975429686E+02  0.99223856510E+02  0.00000000000E+00 0.  1.
         21    1    1    2  503  501 -0.44453912076E+01 -0.20527499479E+02  0.58670835719E+01  0.21807393413E+02  0.00000000000E+00 0.  1.
</event>
<event>
 4    1  0.2285999E+005  0.3620473E+02  0.7546771E-02  0.1372286E+00
          2   -1    0    0  503    0  0.00000000000E+00  0.00000000000E+00  0.15669618528E+04  0.15669618528E+04  0.00000000000E+00 0. -1.
         21   -1    0    0  501  502 -0.00000000000E+00 -0.00000000000E+00 -0.13050718327E+01  0.13050718327E+01  0.00000000000E+00 0. -1.
          2    1    1    2  501    0 -0.36075069595E+02  0.30613175820E+01  0.12526741715E+04  0.12531972559E+04  0.00000000000E+00 0. -1.
         21    1    1    2  503  502  0.36075069595E+02 -0.30613175820E+01  0.31298260950E+03  0.31506966874E+03  0.00000000000E+00 0. -1.
</event>
<event>
 4    1  0.2285999E+005  0.2189219E+02  0.7546771E-02  0.1506898E+00
          2   -1    0    0  503    0  0.00000000000E+00  0.00000000000E+00  0.37459937764E+02  0.37459937764E+02  0.00000000000E+00 0.  1.
         21   -1    0    0  501  502 -0.00000000000E+00 -0.00000000000E+00 -0.60486872535E+02  0.60486872535E+02  0.00000000000E+00 0. -1.
          2    1    1    2  501    0 -0.19241611327E+02 -0.10441669795E+02  0.31973166572E+02  0.38749857486E+02  0.00000000000E+00 0.  1.
         21    1    1    2  503  502  0.19241611327E+02  0.10441669795E+02 -0.55000101343E+02  0.59196952812E+02  0.00000000000E+00 0. -1.
</event>
<event>
 4    1  0.2285999E+005  0.2232336E+02  0.7546771E-02  0.1501174E+00
          2   -1    0    0  502    0  0.00000000000E+00  0.00000000000E+00  0.26381533493E+03  0.26381533493E+03  0.00000000000E+00 0. -1.
         21   -1    0    0  503  502 -0.00000000000E+00 -0.00000000000E+00 -0.18936856913E+01  0.18936856913E+01  0.00000000000E+00 0. -1.
          2    1    1    2  501    0 -0.34374636894E+01 -0.22057117615E+02  0.13760826206E+03  0.13940719630E+03  0.00000000000E+00 0. -1.
         21    1    1    2  503  501  0.34374636894E+01  0.22057117615E+02  0.12431338718E+03  0.12630182432E+03  0.00000000000E+00 0. -1.
</event>
<event>
 4    1  0.2285999E+005  0.2715590E+02  0.7546771E-02  0.1446048E+00
          2   -1    0    0  503    0  0.00000000000E+00  0.00000000000E+00  0.36642254575E+03  0.36642254575E+03  0.00000000000E+00 0. -1.
         21   -1    0    0  501  502 -0.00000000000E+00 -0.00000000000E+00 -0.37205364905E+02  0.37205364905E+02  0.00000000000E+00 0. -1.
          2    1    1    2  501    0  0.76600341956E+01  0.26053149995E+02  0.36088830989E+03  0.36190857266E+03  0.00000000000E+00 0. -1.
         21    1    1    2  503  502 -0.76600341956E+01 -0.26053149995E+02 -0.31671129040E+02  0.41719338001E+02  0.00000000000E+00 0. -1.
</event>
<event>
 4    1  0.2285999E+005  0.2243504E+02  0.7546771E-02  0.1499717E+00
          2   -1    0    0  502    0  0.00000000000E+00  0.00000000000E+00  0.13228200943E+04  0.13228200943E+04  0.00000000000E+00 0. -1.
         21   -1    0    0  503  502 -0.00000000000E+00 -0.00000000000E+00 -0.61905791193E+00  0.61905791193E+00  0.00000000000E+00 0.  1.
          2    1    1    2  501    0 -0.68440421643E+01 -0.21365633885E+02  0.10718778875E+04  0.10721126513E+04  0.00000000000E+00 0. -1.
         21    1    1    2  503  501  0.68440421643E+01  0.21365633885E+02  0.25032314881E+03  0.25132650090E+03  0.00000000000E+00 0.  1.
</event>
<event>
 4    1  0.2285999E+005  0.2620710E+02  0.7546771E-02  0.1455740E+00
          2   -1    0    0  502    0  0.00000000000E+00  0.00000000000E+00  0.13697040983E+04  0.13697040983E+04  0.00000000000E+00 0. -1.
         21   -1    0    0  503  502 -0.00000000000E+00 -0.00000000000E+00 -0.14384879624E+02  0.14384879624E+02  0.00000000000E+00 0.  1.
          2    1    1    2  501    0  0.10111393084E+02 -0.24177922608E+02  0.13575353986E+04  0.13577883379E+04  0.00000000000E+00 0. -1.
         21    1    1    2  503  501 -0.10111393084E+02  0.24177922608E+02 -0.22161798890E+01  0.26300640012E+02  0.00000000000E+00 0.  1.
</event>
<event>
 4    1  0.2285999E+005  0.2970389E+02  0.7546771E-02  0.1422187E+00
          2   -1    0    0  502    0  0.00000000000E+00  0.00000000000E+00  0.20219373899E+03  0.20219373899E+03  0.00000000000E+00 0. -1.
         21   -1    0    0  503  502 -0.00000000000E+00 -0.00000000000E+00 -0.91979185535E+01  0.91979185535E+01  0.00000000000E+00 0. -1.
          2    1    1    2  501    0 -0.28804238915E+02 -0.72551228175E+01  0.17312359955E+03  0.17565335667E+03  0.00000000000E+00 0. -1.
         21    1    1    2  503  501  0.28804238915E+02  0.72551228175E+01  0.19872220882E+02  0.35738300874E+02  0.00000000000E+00 0. -1.
</event>
<event>
 4    1  0.2285999E+005  0.2341015E+02  0.7546771E-02  0.1487411E+00
          2   -1    0    0  503    0  0.00000000000E+00  0.00000000000E+00  0.14240224594E+03  0.14240224594E+03  0.00000000000E+00 0. -1.
         21   -1    0    0  501  502 -0.00000000000E+00 -0.00000000000E+00 -0.45251668150E+02  0.45251668150E+02  0.00000000000E+00 0. -1.
          2    1    1    2  501    0  0.19161674417E+02  0.13448612746E+02  0.13832377375E+03  0.14029077424E+03  0.00000000000E+00 0. -1.
         21    1    1    2  503  502 -0.19161674417E+02 -0.13448612746E+02 -0.41173195960E+02  0.47363139854E+02  0.00000000000E+00 0. -1.
</event>
<event>
 4    1  0.2285999E+005  0.2079408E+02  0.7546771E-02  0.1522225E+00
          2   -1    0    0  502    0  0.00000000000E+00  0.00000000000E+00  0.99912563007E+03  0.99912563007E+03  0.00000000000E+00 0.  1.
         21   -1    0    0  503  502 -0.00000000000E+00 -0.00000000000E+00 -0.25363253078E+01  0.25363253078E+01  0.00000000000E+00 0. -1.
          2    1    1    2  501    0 -0.20657368628E+02  0.23805187153E+01  0.95440030150E+03  0.95462680104E+03  0.00000000000E+00 0.  1.
         21    1    1    2  503  501  0.20657368628E+02 -0.23805187153E+01  0.42189003264E+02  0.47035154346E+02  0.00000000000E+00 0. -1.
</event>
<event>
 4    1  0.2285999E+005  0.2277605E+02  0.7546771E-02  0.1495330E+00
          2   -1    0    0  502    0  0.00000000000E+00  0.00000000000E+00  0.20371674181E+03  0.20371674181E+03  0.00000000000E+00 0.  1.
         21   -1    0    0  503  502 -0.00000000000E+00 -0.00000000000E+00 -0.22062607335E+02  0.22062607335E+02  0.00000000000E+00 0.  1.
          2    1    1    2  501    0 -0.18378915748E+02 -0.13452275130E+02  0.19700231908E+03  0.19831455311E+03  0.00000000000E+00 0.  1.
         21    1    1    2  503  501  0.18378915748E+02  0.13452275130E+02 -0.15348184612E+02  0.27464796034E+02  0.00000000000E+00 0.  1.
</event>
<event>
 4    1  0.2285999E+005  0.2528936E+02  0.7546771E-02  0.1465592E+00
          2   -1    0    0  502    0  0.00000000000E+00  0.00000000000E+00  0.64015310893E+02  0.64015310893E+02  0.00000000000E+00 0. -1.
         21   -1    0    0  503  502 -0.00000000000E+00 -0.00000000000E+00 -0.65092870735E+02  0.65092870735E+02  0.00000000000E+00 0. -1.
          2    1    1    2  501    0  0.23496315366E+02 -0.93528014927E+01  0.58855111649E+02  0.64058378834E+02  0.00000000000E+00 0. -1.
         21    1    1    2  503  501 -0.23496315366E+02  0.93528014927E+01 -0.59932671491E+02  0.65049802794E+02  0.00000000000E+00 0. -1.
</event>
<event>
 4    1  0.2285999E+005  0.2472201E+02  0.7546771E-02  0.1471937E+00
          2   -1    0    0  503    0  0.00000000000E+00  0.00000000000E+00  0.49906498211E+02  0.49906498211E+02  0.00000000000E+00 0. -1.
         21   -1    0    0  501  502 -0.00000000000E+00 -0.00000000000E+00 -0.12512067251E+02  0.12512067251E+02  0.00000000000E+00 0. -1.
          2    1    1    2  501    0  0.24718743087E+02  0.40177088331E+00  0.23244408441E+02  0.33933467306E+02  0.00000000000E+00 0. -1.
         21    1    1    2  503  502 -0.24718743087E+02 -0.40177088331E+00  0.14150022519E+02  0.28485098156E+02  0.00000000000E+00 0. -1.
</event>
<event>
 4    1  0.2285999E+005  0.4936730E+02  0.7546771E-02  0.1300939E+00
          2   -1    0    0  503    0  0.00000000000E+00  0.00000000000E+00  0.48661014683E+03  0.48661014683E+03  0.00000000000E+00 0. -1.
         21   -1    0    0  501  502 -0.00000000000E+00 -0.00000000000E+00 -0.60411025082E+01  0.60411025082E+01  0.00000000000E+00 0.  1.
          2    1    1    2  501    0  0.30339595424E+02 -0.38944054264E+02  0.34213017507E+03  0.34567352676E+03  0.00000000000E+00 0. -1.
         21    1    1    2  503  502 -0.30339595424E+02  0.38944054264E+02  0.13843886925E+03  0.14697772257E+03  0.00000000000E+00 0.  1.
</event>
<event>
 4    1  0.2285999E+005  0.2214920E+02  0.7546771E-02  0.1503467E+00
          2   -1    0    0  502    0  0.00000000000E+00  0.00000000000E+00  0.35358845429E+03  0.35358845429E+03  0.00000000000E+00 0.  1.
         21   -1    0    0  503  502 -0.00000000000E+00 -0.00000000000E+00 -0.35869218699E+02  0.35869218699E+02  0.00000000000E+00 0.  1.
          2    1    1    2  501    0  0.17874717069E+02 -0.13079814603E+02  0.34978517383E+03  0.35048574135E+03  0.00000000000E+00 0.  1.
         21    1    1    2  503  501 -0.17874717069E+02  0.13079814603E+02 -0.32065938239E+02  0.38971931636E+02  0.00000000000E+00 0.  1.
</event>
<event>
 4    1  0.2285999E+005  0.2020390E+02  0.7546771E-02  0.1530941E+00
          2   -1    0    0  502    0  0.00000000000E+00  0.00000000000E+00  0.31742111026E+02  0.31742111026E+02  0.00000000000E+00 0.  1.
         21   -1    0    0  503  502 -0.00000000000E+00 -0.00000000000E+00 -0.13492015196E+02  0.13492015196E+02  0.00000000000E+00 0. -1.
          2    1    1    2  501    0  0.17972625346E+02  0.92294325864E+01  0.14020862707E+02  0.24592321541E+02  0.00000000000E+00 0.  1.
         21    1    1    2  503  501 -0.17972625346E+02 -0.92294325864E+01  0.42292331224E+01  0.20641804681E+02  0.00000000000E+00 0. -1.
</event>
<event>
 4    1  0.2285999E+005  0.2084981E+02  0.7546771E-02  0.1521420E+00
          2   -1    0    0  503    0  0.00000000000E+00  0.00000000000E+00  0.39425557564E+03  0.39425557564E+03  0.00000000000E+00 0.  1.
         21   -1    0    0  501  502 -0.00000000000E+00 -0.00000000000E+00 -0.11491682685E+03  0.11491682685E+03  0.00000000000E+00 0.  1.
          2    1    1    2  501    0 -0.15866546767E+02 -0.13526534145E+02  0.39303126117E+03  0.39358390045E+03  0.00000000000E+00 0.  1.
         21    1    1    2  503  502  0.15866546767E+02  0.13526534145E+02 -0.11369251238E+03  0.11558850204E+03  0.00000000000E+00 0.  1.
</event>
<event>
 4    1  0.2285999E+005  0.4743024E+02  0.7546771E-02  0.1309716E+00
          2   -1    0    0  502    0  0.00000000000E+00  0.00000000000E+00  0.21022888431E+04  0.21022888431E+04  0.00000000000E+00 0. -1.
         21   -1    0    0  503  502 -0.00000000000E+00 -0.00000000000E+00 -0.65895923965E+01  0.65895923965E+01  0.00000000000E+00 0. -1.
          2    1    1    2  501    0 -0.27366977966E+02  0.38738564689E+02  0.20128832193E+04  0.20134419491E+04  0.00000000000E+00 0. -1.
         21    1    1    2  503  501  0.27366977966E+02 -0.38738564689E+02  0.82816031397E+02  0.95436486385E+02  0.00000000000E+00 0. -1.
</event>
<event>
 4    1  0.2285999E+005  0.2145691E+02  0.7546771E-02  0.1512840E+00
          2   -1    0    0  503    0  0.00000000000E+00  0.00000000000E+00  0.54743755275E+01  0.54743755275E+01  0.00000000000E+00 0.  1.
         21   -1    0    0  501  502 -0.00000000000E+00 -0.00000000000E+00 -0.24586053722E+03  0.24586053722E+03  0.00000000000E+00 0.  1.
          2    1    1    2  501    0 -0.15260496634E+02 -0.15083636497E+02 -0.18260327822E+02  0.28175138326E+02  0.00000000000E+00 0.  1.
         21    1    1    2  503  502  0.15260496634E+02  0.15083636497E+02 -0.22212583387E+03  0.22315977442E+03  0.00000000000E+00 0.  1.
</event>
<event>
 4    1  0.2285999E+005  0.3303336E+02  0.7546771E-02  0.1394943E+00
          2   -1    0    0  502    0  0.00000000000E+00  0.00000000000E+00  0.60719438268E+03  0.60719438268E+03  0.00000000000E+00 0.  1.
         21   -1    0    0  503  502 -0.00000000000E+00 -0.00000000000E+00 -0.18342013685E+01  0.18342013685E+01  0.00000000000E+00 0.  1.
          2    1    1    2  501    0 -0.29910068768E+02  0.14021067639E+02  0.25938399664E+03  0.26147898628E+03  0.00000000000E+00 0.  1.
         21    1    1    2  503  501  0.29910068768E+02 -0.14021067639E+02  0.34597618467E+03  0.34754959777E+03  0.00000000000E+00 0.  1.
</event>
<event>
 4    1  0.2285999E+005  0.6180609E+02  0.7546771E-02  0.1253817E+00
          2   -1    0    0  503    0  0.00000000000E+00  0.00000000000E+00  0.59953599292E+03  0.59953599292E+03  0.00000000000E+00 0. -1.
         21   -1    0    0  501  502 -0.00000000000E+00 -0.00000000000E+00 -0.13963848704E+02  0.13963848704E+02  0.00000000000E+00 0. -1.
          2    1    1    2  501    0  0.39801902662E+02 -0.47284256983E+02  0.51897306951E+03  0.52264044935E+03  0.00000000000E+00 0. -1.
         21    1    1    2  503  502 -0.39801902662E+02  0.47284256983E+02  0.66599074704E+02  0.90859392279E+02  0.00000000000E+00 0. -1.
</event>
<event>
 4    1  0.2285999E+005  0.3771968E+02  0.7546771E-02  0.1362393E+00
          2   -1    0    0  503    0  0.00000000000E+00  0.00000000000E+00  0.31525118818E+03  0.31525118818E+03  0.00000000000E+00 0. -1.
         21   -1    0    0  501  502 -0.00000000000E+00 -0.00000000000E+00 -0.95049556215E+01  0.95049556215E+01  0.00000000000E+00 0.  1.
          2    1    1    2  501    0  0.25162923128E+02  0.28099850222E+02  0.27054735287E+03  0.27316413459E+03  0.00000000000E+00 0. -1.
         21    1    1    2  503  502 -0.25162923128E+02 -0.28099850222E+02  0.35198879689E+02  0.51592009209E+02  0.00000000000E+00 0.  1.
</event>
<event>
 4    1  0.2285999E+005  0.3220732E+02  0.7546771E-02  0.1401337E+00
          2   -1    0    0  503    0  0.00000000000E+00  0.00000000000E+00  0.43822241743E+03  0.43822241743E+03  0.00000000000E+00 0.  1.
         21   -1    0    0  501  502 -0.00000000000E+00 -0.00000000000E+00 -0.29913400529E+02  0.29913400529E+02  0.00000000000E+00 0.  1.
          2    1    1    2  501    0  0.48329402651E+01  0.31842644795E+02  0.42877052036E+03  0.42997845349E+03  0.00000000000E+00 0.  1.
         21    1    1    2  503  502 -0.48329402651E+01 -0.31842644795E+02 -0.20461503458E+02  0.38157364465E+02  0.00000000000E+00 0.  1.
</event>
<event>
 4    1  0.2285999E+005  0.2508748E+02  0.7546771E-02  0.1467827E+00
          2   -1    0    0  502    0  0.00000000000E+00  0.00000000000E+00  0.10642636251E+03  0.10642636251E+03  0.00000000000E+00 0.  1.
         21   -1    0    0  503  502 -0.00000000000E+00 -0.00000000000E+00 -0.13025610479E+02  0.13025610479E+02  0.00000000000E+00 0. -1.
          2    1    1    2  501    0 -0.17909860792E+02 -0.17567537390E+02  0.90832533723E+02  0.94233384032E+02  0.00000000000E+00 0.  1.
         21    1    1    2  503  501  0.17909860792E+02  0.17567537390E+02  0.25682183042E+01  0.25218588954E+02  0.00000000000E+00 0. -1.
</event>
<event>
 4    1  0.2285999E+005  0.2966928E+02  0.7546771E-02  0.1422492E+00
          2   -1    0    0  502    0  0.00000000000E+00  0.00000000000E+00  0.22356297778E+03  0.22356297778E+03  0.00000000000E+00 0.  1.
         21   -1    0    0  503  502 -0.00000000000E+00 -0.00000000000E+00 -0.50929104740E+01  0.50929104740E+01  0.00000000000E+00 0.  1.
          2    1    1    2  501    0 -0.40553437263E+01  0.29390821907E+02  0.16369137392E+03  0.16635844469E+03  0.00000000000E+00 0.  1.
         21    1    1    2  503  501  0.40553437263E+01 -0.29390821907E+02  0.54778693388E+02  0.62297443563E+02  0.00000000000E+00 0.  1.
</event>
<event>
 4    1  0.2285999E+005  0.2575940E+02  0.7546771E-02  0.1460484E+00
          2   -1    0    0  502    0  0.00000000000E+00  0.00000000000E+00  0.24141453039E+02  0.24141453039E+02  0.00000000000E+00 0. -1.
         21   -1    0    0  503  502 -0.00000000000E+00 -0.00000000000E+00 -0.24812369690E+03  0.24812369690E+03  0.00000000000E+00 0.  1.
          2    1    1    2  501    0  0.25537815853E+02 -0.33714731888E+01  0.16380197119E+02  0.30526344813E+02  0.00000000000E+00 0. -1.
         21    1    1    2  503  501 -0.25537815853E+02  0.33714731888E+01 -0.24036244098E+03  0.24173880513E+03  0.00000000000E+00 0.  1.
</event>
<event>
 4    1  0.2285999E+005  0.2114526E+02  0.7546771E-02  0.1517201E+00
          2   -1    0    0  502    0  0.00000000000E+00  0.00000000000E+00  0.88583425922E+03  0.88583425922E+03  0.00000000000E+00 0. -1.
         21   -1    0    0  503  502 -0.00000000000E+00 -0.00000000000E+00 -0.34115465580E+01  0.34115465580E+01  0.00000000000E+00 0.  1.
          2    1    1    2  501    0 -0.81780449444E+01 -0.19499788826E+02  0.85162682529E+03  0.85188929547E+03  0.00000000000E+00 0. -1.
         21    1    1    2  503  501  0.81780449444E+01  0.19499788826E+02  0.30795887376E+02  0.37356510312E+02  0.00000000000E+00 0.  1.
</event>
<event>
 4    1  0.2285999E+005  0.2162122E+02  0.7546771E-02  0.1510577E+00
          2   -1    0    0  503    0  0.00000000000E+00  0.00000000000E+00  0.10379997709E+02  0.10379997709E+02  0.00000000000E+00 0. -1.
         21   -1    0    0  501  502 -0.00000000000E+00 -0.00000000000E+00 -0.28025126763E+03  0.28025126763E+03  0.00000000000E+00 0. -1.
          2    1    1    2  501    0 -0.18190369946E+02 -0.11687072575E+02 -0.18071548428E+01  0.21696613394E+02  0.00000000000E+00 0. -1.
         21    1    1    2  503  502  0.18190369946E+02  0.11687072575E+02 -0.26806411508E+03  0.26893465195E+03  0.00000000000E+00 0. -1.
</event>
<event>
 4    1  0.2285999E+005  0.2140659E+02  0.7546771E-02  0.1513538E+00
          2   -1    0    0  503    0  0.00000000000E+00  0.00000000000E+00  0.46154154084E+02  0.46154154084E+02  0.00000000000E+00 0.  1.
         21   -1    0    0  501  502 -0.00000000000E+00 -0.00000000000E+00 -0.60793890287E+02  0.60793890287E+02  0.00000000000E+00 0.  1.
          2    1    1    2  501    0  0.11481742009E+02  0.18066861851E+02  0.41593102553E+02  0.46778500154E+02  0.00000000000E+00 0.  1.
         21    1    1    2  503  502 -0.11481742009E+02 -0.18066861851E+02 -0.56232838756E+02  0.60169544217E+02  0.00000000000E+00 0.  1.
</event>
<event>
 4    1  0.2285999E+005  0.2088141E+02  0.7546771E-02  0.1520965E+00
          2   -1    0    0  503    0  0.00000000000E+00  0.00000000000E+00  0.10276772917E+03  0.10276772917E+03  0.00000000000E+00 0. -1.
         21   -1    0    0  501  502 -0.00000000000E+00 -0.00000000000E+00 -0.95598409265E+01  0.95598409265E+01  0.00000000000E+00 0. -1.
          2    1    1    2  501    0 -0.12251199385E+02  0.16909796207E+02  0.88489279243E+02  0.90919665832E+02  0.00000000000E+00 0. -1.
         21    1    1    2  503  502  0.12251199385E+02 -0.16909796207E+02  0.47186090019E+01  0.21407904265E+02  0.00000000000E+00 0. -1.
</event>
<event>
 4    1  0.2285999E+005  0.2134833E+02  0.7546771E-02  0.1514349E+00
          2   -1    0    0  502    0  0.00000000000E+00  0.00000000000E+00  0.19799246930E+04  0.19799246930E+04  0.00000000000E+00 0.  1.
         21   -1    0    0  503  502 -0.00000000000E+00 -0.00000000000E+00 -0.26561103173E+00  0.26561103173E+00  0.00000000000E+00 0.  1.
          2    1    1    2  501    0 -0.21313830918E+02  0.12131109490E+01  0.13514131641E+04  0.13515817738E+04  0.00000000000E+00 0.  1.
         21    1    1    2  503  501  0.21313830918E+02 -0.12131109490E+01  0.62824591785E+03  0.62860853027E+03  0.00000000000E+00 0.  1.
</event>
<event>
 4    1  0.2285999E+005  0.7221126E+02  0.7546771E-02  0.1223184E+00
          2   -1    0    0  503    0  0.00000000000E+00  0.00000000000E+00  0.17975219662E+03  0.17975219662E+03  0.00000000000E+00 0. -1.
         21   -1    0    0  501  502 -0.00000000000E+00 -0.00000000000E+00 -0.27944631609E+03  0.27944631609E+03  0.00000000000E+00 0. -1.
          2    1    1    2  501    0  0.19935963499E+02  0.69404781420E+02  0.16750844072E+03  0.18241037262E+03  0.00000000000E+00 0. -1.
         21    1    1    2  503  502 -0.19935963499E+02 -0.69404781420E+02 -0.26720256019E+03  0.27678814010E+03  0.00000000000E+00 0. -1.
</event>
<event>
 4    1  0.2285999E+005  0.2236031E+02  0.7546771E-02  0.1500691E+00
          2   -1    0    0  502    0  0.00000000000E+00  0.00000000000E+00  0.42415566651E+03  0.42415566651E+03  0.00000000000E+00 0.  1.
         21   -1    0    0  503  502 -0.00000000000E+00 -0.00000000000E+00 -0.10662694430E+02  0.10662694430E+02  0.00000000000E+00 0.  1.
          2    1    1    2  501    0 -0.22147095019E+02 -0.30805361781E+01  0.41178637415E+03  0.41239301819E+03  0.00000000000E+00 0.  1.
         21    1    1    2  503  501  0.22147095019E+02  0.30805361781E+01  0.17065979358E+01  0.22425342749E+02  0.00000000000E+00 0.  1.
</event>
<event>
 4    1  0.2285999E+005  0.5263652E+02  0.7546771E-02  0.1287129E+00
          2   -1    0    0  503    0  0.00000000000E+00  0.00000000000E+00  0.13095372785E+03  0.13095372785E+03  0.00000000000E+00 0.  1.
         21   -1    0    0  501  502 -0.00000000000E+00 -0.00000000000E+00 -0.11846365154E+03  0.11846365154E+03  0.00000000000E+00 0. -1.
          2    1    1    2  501    0 -0.11911453716E+02  0.51271044394E+02  0.11927020896E+03  0.13036865217E+03  0.00000000000E+00 0.  1.
         21    1    1    2  503  502  0.11911453716E+02 -0.51271044394E+02 -0.10678013265E+03  0.11904872721E+03  0.00000000000E+00 0. -1.
</event>
<event>
 4    1  0.2285999E+005  0.2345670E+02  0.7546771E-02  0.1486842E+00
          2   -1    0    0  503    0  0.00000000000E+00  0.00000000000E+00  0.87560504488E+03  0.87560504488E+03  0.00000000000E+00 0.  1.
         21   -1    0    0  501  502 -0.00000000000E+00 -0.00000000000E+00 -0.15817618289E+01  0.15817618289E+01  0.00000000000E+00 0. -1.
          2    1    1    2  501    0 -0.20226159639E+02  0.11879366597E+02  0.77751695713E+03  0.77787070616E+03  0.00000000000E+00 0.  1.
         21    1    1    2  503  502  0.20226159639E+02 -0.11879366597E+02  0.96506325920E+02  0.99316100543E+02  0.00000000000E+00 0. -1.
</event>
<event>
 4    1  0.2285999E+005  0.2694072E+02  0.7546771E-02  0.1448204E+00
          2   -1    0    0  502    0  0.00000000000E+00  0.00000000000E+00  0.14989637579E+04  0.14989637579E+04  0.00000000000E+00 0.  1.
         21   -1    0    0  503  502 -0.00000000000E+00 -0.00000000000E+00 -0.40368228909E+02  0.40368228909E+02  0.00000000000E+00 0.  1.
          2    1    1    2  501    0  0.85379573101E+00 -0.26927190547E+02  0.14943338946E+04  0.14945767264E+04  0.00000000000E+00 0.  1.
         21    1    1    2  503  501 -0.85379573101E+00  0.26927190547E+02 -0.35738365607E+02  0.44755260408E+02  0.00000000000E+00 0.  1.
</event>
<event>
 4    1  0.2285999E+005  0.2240641E+02  0.7546771E-02  0.1500089E+00
          2   -1    0    0  502    0  0.00000000000E+00  0.00000000000E+00  0.14859506953E+04  0.14859506953E+04  0.00000000000E+00 0. -1.
         21   -1    0    0  503  502 -0.00000000000E+00 -0.00000000000E+00 -0.13433112095E+01  0.13433112095E+01  0.00000000000E+00 0.  1.
          2    1    1    2  501    0  0.11602800051E+02 -0.19168266762E+02  0.13856701494E+04  0.13858512944E+04  0.00000000000E+00 0. -1.
         21    1    1    2  503  501 -0.11602800051E+02  0.19168266762E+02  0.98937234697E+02  0.10144271206E+03  0.00000000000E+00 0.  1.
</event>
<event>
 4    1  0.2285999E+005  0.3780858E+02  0.7546771E-02  0.1361829E+00
          2   -1    0    0  502    0  0.00000000000E+00  0.00000000000E+00  0.46237669996E+02  0.46237669996E+02  0.00000000000E+00 0. -1.
         21   -1    0    0  503  502 -0.00000000000E+00 -0.00000000000E+00 -0.12708295021E+03  0.12708295021E+03  0.00000000000E+00 0.  1.
          2    1    1    2  501    0  0.20632028239E+02  0.31682932908E+02  0.34963111820E+02  0.51496679650E+02  0.00000000000E+00 0. -1.
         21    1    1    2  503  501 -0.20632028239E+02 -0.31682932908E+02 -0.11580839203E+03  0.12182394055E+03  0.00000000000E+00 0.  1.
</event>
<event>
 4    1  0.2285999E+005  0.2205541E+02  0.7546771E-02  0.1504713E+00
          2   -1    0    0  503    0  0.00000000000E+00  0.00000000000E+00  0.38695361120E+03  0.38695361120E+03  0.00000000000E+00 0.  1.
         21   -1    0    0  501  502 -0.00000000000E+00 -0.00000000000E+00 -0.77618172918E+01  0.77618172918E+01  0.00000000000E+00 0.  1.
          2    1    1    2  501    0 -0.31509980093E+01 -0.21829166538E+02  0.37026606421E+03  0.37092236331E+03  0.00000000000E+00 0.  1.
         21    1    1    2  503  502  0.31509980093E+01  0.21829166538E+02  0.89257297061E+01  0.23793065187E+02  0.00000000000E+00 0.  1.
</event>
<event>
 4    1  0.2285999E+005  0.3028762E+02  0.7546771E-02  0.1417113E+00
          2   -1    0    0  503    0  0.00000000000E+00  0.00000000000E+00  0.18873367701E+04  0.18873367701E+04  0.00000000000E+00 0.  1.
         21   -1    0    0  501  502 -0.00000000000E+00 -0.00000000000E+00 -0.35278239002E+01  0.35278239002E+01  0.00000000000E+00 0.  1.
          2    1    1    2  501    0 -0.73719536594E+01 -0.29376763321E+02  0.18197951845E+04  0.18200472119E+04  0.00000000000E+00 0.  1.
         21    1    1    2  503  502  0.73719536594E+01  0.29376763321E+02  0.64013761688E+02  0.70817382113E+02  0.00000000000E+00 0.  1.
</event>
<event>
 4    1  0.2285999E+005  0.2757455E+02  0.7546771E-02  0.1441920E+00
          2   -1    0    0  502    0  0.00000000000E+00  0.00000000000E+00  0.36593699894E+03  0.36593699894E+03  0.00000000000E+00 0.  1.
         21   -1    0    0  503  502 -0.00000000000E+00 -0.00000000000E+00 -0.15297865233E+02  0.15297865233E+02  0.00000000000E+00 0.  1.
          2    1    1    2  501    0  0.25485696580E+02  0.10527833663E+02  0.35251945955E+03  0.35359627454E+03  0.00000000000E+00 0.  1.
         21    1    1    2  503  501 -0.25485696580E+02 -0.10527833663E+02 -0.18803258341E+01  0.27638589635E+02  0.00000000000E+00 0.  1.
</event>
<event>
 4    1  0.2285999E+005  0.2278132E+02  0.7546771E-02  0.1495263E+00
          2   -1    0    0  503    0  0.00000000000E+00  0.00000000000E+00  0.19720092189E+01  0.19720092189E+01  0.00000000000E+00 0. -1.
         21   -1    0    0  501  502 -0.00000000000E+00 -0.00000000000E+00 -0.30402260885E+03  0.30402260885E+03  0.00000000000E+00 0.  1.
          2    1    1    2  501    0  0.22182331271E+02 -0.51896577956E+01 -0.94946189301E+02  0.97641012036E+02  0.00000000000E+00 0. -1.
         21    1    1    2  503  502 -0.22182331271E+02  0.51896577956E+01 -0.20710441033E+03  0.20835360603E+03  0.00000000000E+00 0.  1.
</event>
<event>
 4    1  0.2285999E+005  0.5384503E+02  0.7546771E-02  0.1282310E+00
          2   -1    0    0  503    0  0.00000000000E+00  0.00000000000E+00  0.16692793663E+04  0.16692793663E+04  0.00000000000E+00 0. -1.
         21   -1    0    0  501  502 -0.00000000000E+00 -0.00000000000E+00 -0.20031629724E+01  0.20031629724E+01  0.00000000000E+00 0. -1.
          2    1    1    2  501    0  0.37414057741E+02  0.38723058996E+02  0.11383281805E+04  0.11396009537E+04  0.00000000000E+00 0. -1.
         21    1    1    2  503  502 -0.37414057741E+02 -0.38723058996E+02  0.52894802280E+03  0.53168157561E+03  0.00000000000E+00 0. -1.
</event>
<event>
 4    1  0.2285999E+005  0.2787517E+02  0.7546771E-02  0.1439010E+00
          2   -1    0    0  502    0  0.00000000000E+00  0.00000000000E+00  0.16407934269E+04  0.16407934269E+04  0.00000000000E+00 0. -1.
         21   -1    0    0  503  502 -0.00000000000E+00 -0.00000000000E+00 -0.47013059720E+01  0.47013059720E+01  0.00000000000E+00 0. -1.
          2    1    1    2  501    0  0.18721244365E+02 -0.20652840861E+02  0.15982557685E+04  0.15984988353E+04  0.00000000000E+00 0. -1.
         21    1    1    2  503  501 -0.18721244365E+02  0.20652840861E+02  0.37836352437E+02  0.46995897607E+02  0.00000000000E+00 0. -1.
</event>
<event>
 4    1  0.2285999E+005  0.2398116E+02  0.7546771E-02  0.1480532E+00
          2   -1    0    0  502    0  0.00000000000E+00  0.00000000000E+00  0.60732421321E+03  0.60732421321E+03  0.00000000000E+00 0. -1.
         21   -1    0    0  503  502 -0.00000000000E+00 -0.00000000000E+00 -0.64748755690E+01  0.64748755690E+01  0.00000000000E+00 0. -1.
          2    1    1    2  501    0 -0.11312029478E+02 -0.21145547319E+02  0.58399594453E+03  0.58448811743E+03  0.00000000000E+00 0. -1.
         21    1    1    2  503  501  0.11312029478E+02  0.21145547319E+02  0.16853393107E+02  0.29310971351E+02  0.00000000000E+00 0. -1.
</event>
<event>
 4    1  0.2285999E+005  0.2087510E+02  0.7546771E-02  0.1521056E+00
          2   -1    0    0  502    0  0.00000000000E+00  0.00000000000E+00  0.58570759628E+03  0.58570759628E+03  0.00000000000E+00 0.  1.
         21   -1    0    0  503  502 -0.00000000000E+00 -0.00000000000E+00 -0.42732684604E+01  0.42732684604E+01  0.00000000000E+00 0.  1.
          2    1    1    2  501    0 -0.95782381767E+01  0.18547964208E+02  0.55880052271E+03  0.55919030195E+03  0.00000000000E+00 0.  1.
         21    1    1    2  503  501  0.95782381767E+01 -0.18547964208E+02  0.22633805116E+02  0.30790562789E+02  0.00000000000E+00 0.  1.
</event>
<event>
 4    1  0.2285999E+005  0.2201400E+02  0.7546771E-02  0.1505265E+00
          2   -1    0    0  503    0  0.00000000000E+00  0.00000000000E+00  0.99991597685E+03  0.99991597685E+03  0.00000000000E+00 0. -1.
         21   -1    0    0  501  502 -0.00000000000E+00 -0.00000000000E+00 -0.49678771863E+00  0.49678771863E+00  0.00000000000E+00 0. -1.
          2    1    1    2  501    0  0.24408695390E+01 -0.21878257479E+02  0.57787455948E+03  0.57829371645E+03  0.00000000000E+00 0. -1.
         21    1    1    2  503  502 -0.24408695390E+01  0.21878257479E+02  0.42154462966E+03  0.42211904812E+03  0.00000000000E+00 0. -1.
</event>
<event>
 4    1  0.2285999E+005  0.2291340E+02  0.7546771E-02  0.1493588E+00
          2   -1    0    0  503    0  0.00000000000E+00  0.00000000000E+00  0.46171824119E+03  0.46171824119E+03  0.00000000000E+00 0.  1.
         21   -1    0    0  501  502 -0.00000000000E+00 -0.00000000000E+00 -0.21294578154E+01  0.21294578154E+01  0.00000000000E+00 0.  1.
          2    1    1    2  501    0  0.13878656718E+02 -0.18232022732E+02  0.38811708307E+03  0.38879286766E+03  0.00000000000E+00 0.  1.
         21    1    1    2  503  502 -0.13878656718E+02  0.18232022732E+02  0.71471700296E+02  0.75054831346E+02  0.00000000000E+00 0.  1.
</event>
<event>
 4    1  0.2285999E+005  0.2086118E+02  0.7546771E-02  0.1521256E+00
          2   -1    0    0  503    0  0.00000000000E+00  0.00000000000E+00  0.36166928496E+03  0.36166928496E+03  0.00000000000E+00 0.  1.
         21   -1    0    0  501  502 -0.00000000000E+00 -0.00000000000E+00 -0.15436412697E+02  0.15436412697E+02  0.00000000000E+00 0. -1.
          2    1    1    2  501    0  0.77845335024E+01  0.19354325517E+02  0.35417129319E+03  0.35478513751E+03  0.00000000000E+00 0.  1.
         21    1    1    2  503  502 -0.77845335024E+01 -0.19354325517E+02 -0.79384209332E+01  0.22320560141E+02  0.00000000000E+00 0. -1.
</event>
<event>
 4    1  0.2285999E+005  0.3136985E+02  0.7546771E-02  0.1408055E+00
          2   -1    0    0  503    0  0.00000000000E+00  0.00000000000E+00  0.12875682155E+04  0.12875682155E+04  0.00000000000E+00 0.  1.
         21   -1    0    0  501  502 -0.00000000000E+00 -0.00000000000E+00 -0.37683495751E+02  0.37683495751E+02  0.00000000000E+00 0. -1.
          2    1    1    2  501    0  0.30951398642E+02 -0.51067090533E+01  0.12808142186E+04  0.12811983181E+04  0.00000000000E+00 0.  1.
         21    1    1    2  503  502 -0.30951398642E+02  0.51067090533E+01 -0.30929498850E+02  0.44053393222E+02  0.00000000000E+00 0. -1.
</event>
<event>
 4    1  0.2285999E+005  0.2232356E+02  0.7546771E-02  0.1501171E+00
          2   -1    0    0  503    0  0.00000000000E+00  0.00000000000E+00  0.86892115584E+02  0.86892115584E+02  0.00000000000E+00 0. -1.
         21   -1    0    0  501  502 -0.00000000000E+00 -0.00000000000E+00 -0.61721683681E+01  0.61721683681E+01  0.00000000000E+00 0.  1.
          2    1    1    2  501    0 -0.95091513503E+01 -0.20196967810E+02  0.52741429208E+02  0.57271282708E+02  0.00000000000E+00 0. -1.
         21    1    1    2  503  502  0.95091513503E+01  0.20196967810E+02  0.27978518008E+02  0.35793001244E+02  0.00000000000E+00 0.  1.
</event>
<event>
 4    1  0.2285999E+005  0.4788623E+02  0.7546771E-02  0.1307607E+00
          2   -1    0    0  503    0  0.00000000000E+00  0.00000000000E+00  0.26146158377E+04  0.26146158377E+04  0.00000000000E+00 0.  1.
         21   -1    0    0  501  502 -0.00000000000E+00 -0.00000000000E+00 -0.21184991545E+03  0.21184991545E+03  0.00000000000E+00 0.  1.
          2    1    1    2  501    0  0.47804630071E+02  0.27943494529E+01  0.26116875144E+04  0.26121264831E+04  0.00000000000E+00 0.  1.
         21    1    1    2  503  502 -0.47804630071E+02 -0.27943494529E+01 -0.20892159210E+03  0.21433927006E+03  0.00000000000E+00 0.  1.
</event>
<event>
 4    1  0.2285999E+005  0.2363869E+02  0.7546771E-02  0.1484630E+00
          2   -1    0    0  503    0  0.00000000000E+00  0.00000000000E+00  0.49697192424E+03  0.49697192424E+03  0.00000000000E+00 0.  1.
         21   -1    0    0  501  502 -0.00000000000E+00 -0.00000000000E+00 -0.27350336022E+01  0.27350336022E+01  0.00000000000E+00 0. -1.
          2    1    1    2  501    0 -0.24682513050E+01 -0.23509470772E+02  0.43885483616E+03  0.43949101777E+03  0.00000000000E+00 0.  1.
         21    1    1    2  503  502  0.24682513050E+01  0.23509470772E+02  0.55382054480E+02  0.60215940073E+02  0.00000000000E+00 0. -1.
</event>
<event>
 4    1  0.2285999E+005  0.2118073E+02  0.7546771E-02  0.1516700E+00
          2   -1    0    0  503    0  0.00000000000E+00  0.00000000000E+00  0.13649657297E+04  0.13649657297E+04  0.00000000000E+00 0.  1.
         21   -1    0    0  501  502 -0.00000000000E+00 -0.00000000000E+00 -0.38834741091E+00  0.38834741091E+00  0.00000000000E+00 0.  1.
          2    1    1    2  501    0 -0.44674400009E+01 -0.20704234309E+02  0.41467400896E+03  0.41521459156E+03  0.00000000000E+00 0.  1.
         21    1    1    2  503  502  0.44674400009E+01  0.20704234309E+02  0.94990337335E+03  0.95013948557E+03  0.00000000000E+00 0.  1.
</event>
<event>
 4    1  0.2285999E+005  0.2090004E+02  0.7546771E-02  0.1520697E+00
          2   -1    0    0  502    0  0.00000000000E+00  0.00000000000E+00  0.12414500779E+03  0.12414500779E+03  0.00000000000E+00 0.  1.
         21   -1    0    0  503  502 -0.00000000000E+00 -0.00000000000E+00 -0.65425741656E+02  0.65425741656E+02  0.00000000000E+00 0.  1.
          2    1    1    2  501    0 -0.17958029152E+02  0.10692088966E+02  0.12156103465E+03  0.12334462584E+03  0.00000000000E+00 0.  1.
         21    1    1    2  503  501  0.17958029152E+02 -0.10692088966E+02 -0.62841768519E+02  0.66226123608E+02  0.00000000000E+00 0.  1.
</event>
<event>
 4    1  0.2285999E+005  0.3948485E+02  0.7546771E-02  0.1351531E+00
          2   -1    0    0  503    0  0.00000000000E+00  0.00000000000E+00  0.91648603488E+03  0.91648603488E+03  0.00000000000E+00 0. -1.
         21   -1    0    0  501  502 -0.00000000000E+00 -0.00000000000E+00 -0.72704632818E+02  0.72704632818E+02  0.00000000000E+00 0.  1.
          2    1    1    2  501    0  0.38783400228E+02 -0.74095301775E+01  0.91066559253E+03  0.91152118718E+03  0.00000000000E+00 0. -1.
         21    1    1    2  503  502 -0.38783400228E+02  0.74095301775E+01 -0.66884190461E+02  0.77669480520E+02  0.00000000000E+00 0.  1.
</event>
<event>
 4    1  0.2285999E+005  0.2334624E+02  0.7546771E-02  0.1488196E+00
          2   -1    0    0  502    0  0.00000000000E+00  0.00000000000E+00  0.14753477814E+04  0.14753477814E+04  0.00000000000E+00 0.  1.
         21   -1    0    0  503  502 -0.00000000000E+00 -0.00000000000E+00 -0.52592607678E+02  0.52592607678E+02  0.00000000000E+00 0.  1.
          2    1    1    2  501    0  0.54771946260E-02 -0.23346242565E+02  0.14726598015E+04  0.14728448452E+04  0.00000000000E+00 0.  1.
         21    1    1    2  503  501 -0.54771946260E-02  0.23346242565E+02 -0.49904627825E+02  0.55095543834E+02  0.00000000000E+00 0.  1.
</event>
<event>
 4    1  0.2285999E+005  0.5142247E+02  0.7546771E-02  0.1292120E+00
          2   -1    0    0  502    0  0.00000000000E+00  0.00000000000E+00  0.44301738845E+01  0.44301738845E+01  0.00000000000E+00 0. -1.
         21   -1    0    0  503  502 -0.00000000000E+00 -0.00000000000E+00 -0.61568214137E+03  0.61568214137E+03  0.00000000000E+00 0. -1.
          2    1    1    2  501    0 -0.47148718041E+02  0.20524838536E+02 -0.35981308525E+03  0.36346901784E+03  0.00000000000E+00 0. -1.
         21    1    1    2  503  501  0.47148718041E+02 -0.20524838536E+02 -0.25143888224E+03  0.25664329742E+03  0.00000000000E+00 0. -1.
</event>
<event>
 4    1  0.2285999E+005  0.3317859E+02  0.7546771E-02  0.1393841E+00
          2   -1    0    0  503    0  0.00000000000E+00  0.00000000000E+00  0.18915363284E+03  0.18915363284E+03  0.00000000000E+00 0.  1.
         21   -1    0    0  501  502 -0.00000000000E+00 -0.00000000000E+00 -0.31593443866E+03  0.31593443866E+03  0.00000000000E+00 0.  1.
          2    1    1    2  501    0 -0.21439624107E+02  0.25321166981E+02  0.18681681249E+03  0.18974019187E+03  0.00000000000E+00 0.  1.
         21    1    1    2  503  502  0.21439624107E+02 -0.25321166981E+02 -0.31359761831E+03  0.31534787964E+03  0.00000000000E+00 0.  1.
</event>
<event>
 4    1  0.2285999E+005  0.3261255E+02  0.7546771E-02  0.1398172E+00
          2   -1    0    0  503    0  0.00000000000E+00  0.00000000000E+00  0.18319252275E+02  0.18319252275E+02  0.00000000000E+00 0. -1.
         21   -1    0    0  501  502 -0.00000000000E+00 -0.00000000000E+00 -0.58281264634E+02  0.58281264634E+02  0.00000000000E+00 0. -1.
          2    1    1    2  501    0  0.28883145518E+02 -0.15144061932E+02 -0.22351673647E+02  0.39537020900E+02  0.00000000000E+00 0. -1.
         21    1    1    2  503  502 -0.28883145518E+02  0.15144061932E+02 -0.17610338712E+02  0.37063496009E+02  0.00000000000E+00 0. -1.
</event>
<event>
 4    1  0.2285999E+005  0.2812198E+02  0.7546771E-02  0.1436652E+00
          2   -1    0    0  503    0  0.00000000000E+00  0.00000000000E+00  0.12530648231E+04  0.12530648231E+04  0.00000000000E+00 0. -1.
         21   -1    0    0  501  502 -0.00000000000E+00 -0.00000000000E+00 -0.65165670468E+01  0.65165670468E+01  0.00000000000E+00 0. -1.
          2    1    1    2  501    0  0.17420861435E+02 -0.22076221085E+02  0.12217907144E+04  0.12221143137E+04  0.00000000000E+00 0. -1.
         21    1    1    2  503  502 -0.17420861435E+02  0.22076221085E+02  0.24757541715E+02  0.37467076511E+02  0.00000000000E+00 0. -1.
</event>
<event>
 4    1  0.2285999E+005  0.3292161E+02  0.7546771E-02  0.1395795E+00
          2   -1    0    0  503    0  0.00000000000E+00  0.00000000000E+00  0.91248920223E+03  0.91248920223E+03  0.00000000000E+00 0.  1.
         21   -1    0    0  501  502 -0.00000000000E+00 -0.00000000000E+00 -0.25689656592E+01  0.25689656592E+01  0.00000000000E+00 0. -1.
          2    1    1    2  501    0 -0.21065991018E+02 -0.25299333889E+02  0.79043986186E+03  0.79112515286E+03  0.00000000000E+00 0.  1.
         21    1    1    2  503  502  0.21065991018E+02  0.25299333889E+02  0.11948037471E+03  0.12393301503E+03  0.00000000000E+00 0. -1.
</event>
<event>
 4    1  0.2285999E+005  0.2152436E+02  0.7546771E-02  0.1511908E+00
          2   -1    0    0  502    0  0.00000000000E+00  0.00000000000E+00  0.18452584919E+03  0.18452584919E+03  0.00000000000E+00 0. -1.
         21   -1    0    0  503  502 -0.00000000000E+00 -0.00000000000E+00 -0.26830777773E+01  0.26830777773E+01  0.00000000000E+00 0. -1.
          2    1    1    2  501    0  0.12828030041E+02  0.17284085991E+02  0.11464383726E+03  0.11664693483E+03  0.00000000000E+00 0. -1.
         21    1    1    2  503  501 -0.12828030041E+02 -0.17284085991E+02  0.67198934146E+02  0.70561992131E+02  0.00000000000E+00 0. -1.
</event>
<event>
 4    1  0.2285999E+005  0.3824658E+02  0.7546771E-02  0.1359079E+00
          2   -1    0    0  503    0  0.00000000000E+00  0.00000000000E+00  0.18798649113E+04  0.18798649113E+04  0.00000000000E+00 0. -1.
         21   -1    0    0  501  502 -0.00000000000E+00 -0.00000000000E+00 -0.19998916214E+01  0.19998916214E+01  0.00000000000E+00 0.  1.
          2    1    1    2  501    0 -0.38159728479E+02  0.25760269789E+01  0.16743710740E+04  0.16748078380E+04  0.00000000000E+00 0. -1.
         21    1    1    2  503  502  0.38159728479E+02 -0.25760269789E+01  0.20349394565E+03  0.20705696489E+03  0.00000000000E+00 0.  1.
</event>
<event>
 4    1  0.2285999E+005  0.3827307E+02  0.7546771E-02  0.1358914E+00
          2   -1    0    0  502    0  0.00000000000E+00  0.00000000000E+00  0.43928531166E+03  0.43928531166E+03  0.00000000000E+00 0. -1.
         21   -1    0    0  503  502 -0.00000000000E+00 -0.00000000000E+00 -0.13831551918E+02  0.13831551918E+02  0.00000000000E+00 0. -1.
          2    1    1    2  501    0 -0.26861990733E+02  0.27262817929E+02  0.41009499381E+03  0.41187708329E+03  0.00000000000E+00 0. -1.
         21    1    1    2  503  501  0.26861990733E+02 -0.27262817929E+02  0.15358765931E+02  0.41239780291E+02  0.00000000000E+00 0. -1.
</event>
<event>
 4    1  0.2285999E+005  0.4486362E+02  0.7546771E-02  0.1322123E+00
          2   -1    0    0  503    0  0.00000000000E+00  0.00000000000E+00  0.27447212769E+03  0.27447212769E+03  0.00000000000E+00 0.  1.
         21   -1    0    0  501  502 -0.00000000000E+00 -0.00000000000E+00 -0.18032146565E+03  0.18032146565E+03  0.00000000000E+00 0. -1.
          2    1    1    2  501    0  0.31473302035E+02  0.31971481986E+02  0.26980035648E+03  0.27350498489E+03  0.00000000000E+00 0.  1.
         21    1    1    2  503  502 -0.31473302035E+02 -0.31971481986E+02 -0.17564969444E+03  0.18128860846E+03  0.00000000000E+00 0. -1.
</event>
<event>
 4    1  0.2285999E+005  0.5445728E+02  0.7546771E-02  0.1279924E+00
          2   -1    0    0  502    0  0.00000000000E+00  0.00000000000E+00  0.26320454195E+03  0.26320454195E+03  0.00000000000E+00 0. -1.
         21   -1    0    0  503  502 -0.00000000000E+00 -0.00000000000E+00 -0.72091874184E+02  0.72091874184E+02  0.00000000000E+00 0.  1.
          2    1    1    2  501    0  0.45137351054E+02  0.30466621460E+02  0.24954736221E+03  0.25542020568E+03  0.00000000000E+00 0. -1.
         21    1    1    2  503  501 -0.45137351054E+02 -0.30466621460E+02 -0.58434694439E+02  0.79876210460E+02  0.00000000000E+00 0.  1.
</event>
<event>
 4    1  0.2285999E+005  0.2193148E+02  0.7546771E-02  0.1506370E+00
          2   -1    0    0  502    0  0.00000000000E+00  0.00000000000E+00  0.69895479101E+03  0.69895479101E+03  0.00000000000E+00 0. -1.
         21   -1    0    0  503  502 -0.00000000000E+00 -0.00000000000E+00 -0.11685501007E+02  0.11685501007E+02  0.00000000000E+00 0. -1.
          2    1    1    2  501    0  0.63338127776E+01  0.20996971251E+02  0.68833369523E+03  0.68868299382E+03  0.00000000000E+00 0. -1.
         21    1    1    2  503  501 -0.63338127776E+01 -0.20996971251E+02 -0.10644052191E+01  0.21957298206E+02  0.00000000000E+00 0. -1.
</event>
<event>
 4    1  0.2285999E+005  0.2179734E+02  0.7546771E-02  0.1508179E+00
          2   -1    0    0  502    0  0.00000000000E+00  0.00000000000E+00  0.79372119338E+02  0.79372119338E+02  0.00000000000E+00 0.  1.
         21   -1    0    0  503  502 -0.00000000000E+00 -0.00000000000E+00 -0.12336093908E+02  0.12336093908E+02  0.00000000000E+00 0.  1.
          2    1    1    2  501    0 -0.19559521466E+02  0.96202501980E+01  0.66416684326E+02  0.69902074724E+02  0.00000000000E+00 0.  1.
         21    1    1    2  503  501  0.19559521466E+02 -0.96202501980E+01  0.61934110369E+00  0.21806138522E+02  0.00000000000E+00 0.  1.
</event>
<event>
 4    1  0.2285999E+005  0.2840706E+02  0.7546771E-02  0.1433964E+00
          2   -1    0    0  503    0  0.00000000000E+00  0.00000000000E+00  0.83698556850E+02  0.83698556850E+02  0.00000000000E+00 0. -1.
         21   -1    0    0  501  502 -0.00000000000E+00 -0.00000000000E+00 -0.38251440651E+02  0.38251440651E+02  0.00000000000E+00 0. -1.
          2    1    1    2  501    0 -0.10046752720E+01 -0.28389292846E+02  0.75457233445E+02  0.80627262138E+02  0.00000000000E+00 0. -1.
         21    1    1    2  503  502  0.10046752720E+01  0.28389292846E+02 -0.30010117246E+02  0.41322735362E+02  0.00000000000E+00 0. -1.
</event>
<event>
 4    1  0.2285999E+005  0.2202287E+02  0.7546771E-02  0.1505147E+00
          2   -1    0    0  503    0  0.00000000000E+00  0.00000000000E+00  0.79496463651E+03  0.79496463651E+03  0.00000000000E+00 0.  1.
         21   -1    0    0  501  502 -0.00000000000E+00 -0.00000000000E+00 -0.11237438083E+02  0.11237438083E+02  0.00000000000E+00 0.  1.
          2    1    1    2  501    0  0.25605168084E+01 -0.21873509506E+02  0.78386944240E+03  0.78417874837E+03  0.00000000000E+00 0.  1.
         21    1    1    2  503  502 -0.25605168084E+01  0.21873509506E+02 -0.14224397786E+00  0.22023326220E+02  0.00000000000E+00 0.  1.
</event>
<event>
 4    1  0.2285999E+005  0.5250513E+02  0.7546771E-02  0.1287662E+00
          2   -1    0    0  503    0  0.00000000000E+00  0.00000000000E+00  0.22654726845E+02  0.22654726845E+02  0.00000000000E+00 0.  1.
         21   -1    0    0  501  502 -0.00000000000E+00 -0.00000000000E+00 -0.14819634843E+03  0.14819634843E+03  0.00000000000E+00 0.  1.
          2    1    1    2  501    0  0.35351666564E+02  0.38820724676E+02 -0.98900757572E+02  0.11197387571E+03  0.00000000000E+00 0.  1.
         21    1    1    2  503  502 -0.35351666564E+02 -0.38820724676E+02 -0.26640864015E+02  0.58877199566E+02  0.00000000000E+00 0.  1.
</event>
<event>
 4    1  0.2285999E+005  0.2299198E+02  0.7546771E-02  0.1492599E+00
          2   -1    0    0  502    0  0.00000000000E+00  0.00000000000E+00  0.79614737671E+03  0.79614737671E+03  0.00000000000E+00 0.  1.
         21   -1    0    0  503  502 -0.00000000000E+00 -0.00000000000E+00 -0.84933750481E+01  0.84933750481E+01  0.00000000000E+00 0.  1.
          2    1    1    2  501    0  0.48901895761E+01  0.22465914503E+02  0.78010128377E+03  0.78044003243E+03  0.00000000000E+00 0.  1.
         21    1    1    2  503  501 -0.48901895761E+01 -0.22465914503E+02  0.75527178846E+01  0.24200719328E+02  0.00000000000E+00 0.  1.
</event>
<event>
 4    1  0.2285999E+005  0.2329709E+02  0.7546771E-02  0.1488801E+00
          2   -1    0    0  502    0  0.00000000000E+00  0.00000000000E+00  0.49754446966E+03  0.49754446966E+03  0.00000000000E+00 0. -1.
         21   -1    0    0  503  502 -0.00000000000E+00 -0.00000000000E+00 -0.62170594876E+01  0.62170594876E+01  0.00000000000E+00 0.  1.
          2    1    1    2  501    0 -0.14499792333E+02 -0.18234873966E+02  0.47438150591E+03  0.47495322691E+03  0.00000000000E+00 0. -1.
         21    1    1    2  503  501  0.14499792333E+02  0.18234873966E+02  0.16945904259E+02  0.28808302231E+02  0.00000000000E+00 0.  1.
</event>
<event>
 4    1  0.2285999E+005  0.5373047E+02  0.7546771E-02  0.1282761E+00
          2   -1    0    0  503    0  0.00000000000E+00  0.00000000000E+00  0.47563460548E+03  0.47563460548E+03  0.00000000000E+00 0.  1.
         21   -1    0    0  501  502 -0.00000000000E+00 -0.00000000000E+00 -0.94066583519E+01  0.94066583519E+01  0.00000000000E+00 0.  1.
          2    1    1    2  501    0 -0.44986594015E+02  0.29379748958E+02  0.37756008733E+03  0.38136410795E+03  0.00000000000E+00 0.  1.
         21    1    1    2  503  502  0.44986594015E+02 -0.29379748958E+02  0.88667859796E+02  0.10367715588E+03  0.00000000000E+00 0.  1.
</event>
<event>
 4    1  0.2285999E+005  0.3126307E+02  0.7546771E-02  0.1408929E+00
          2   -1    0    0  503    0  0.00000000000E+00  0.00000000000E+00  0.23818109706E+02  0.23818109706E+02  0.00000000000E+00 0.  1.
         21   -1    0    0  501  502 -0.00000000000E+00 -0.00000000000E+00 -0.97500126232E+02  0.97500126232E+02  0.00000000000E+00 0.  1.
          2    1    1    2  501    0  0.30652151773E+02 -0.61502244567E+01  0.93208286780E+01  0.32622959958E+02  0.00000000000E+00 0.  1.
         21    1    1    2  503  502 -0.30652151773E+02  0.61502244567E+01 -0.83002845204E+02  0.88695275980E+02  0.00000000000E+00 0.  1.
</event>
<event>
 4    1  0.2285999E+005  0.2685535E+02  0.7546771E-02  0.1449067E+00
          2   -1    0    0  502    0  0.00000000000E+00  0.00000000000E+00  0.10959716979E+04  0.10959716979E+04  0.00000000000E+00 0.  1.
         21   -1    0    0  503  502 -0.00000000000E+00 -0.00000000000E+00 -0.77577434662E+00  0.77577434662E+00  0.00000000000E+00 0.  1.
          2    1    1    2  501    0  0.14641676528E+02  0.22512911887E+02  0.76121331371E+03  0.76168689031E+03  0.00000000000E+00 0.  1.
         21    1    1    2  503  501 -0.14641676528E+02 -0.22512911887E+02  0.33398260982E+03  0.33506058192E+03  0.00000000000E+00 0.  1.
</event>
<event>
 4    1  0.2285999E+005  0.2102658E+02  0.7546771E-02  0.1518886E+00
          2   -1    0    0  502    0  0.00000000000E+00  0.00000000000E+00  0.30978202784E+03  0.30978202784E+03  0.00000000000E+00 0.  1.
         21   -1    0    0  503  502 -0.00000000000E+00 -0.00000000000E+00 -0.20689831766E+01  0.20689831766E+01  0.00000000000E+00 0. -1.
          2    1    1    2  501    0  0.77040065631E+00  0.21012457279E+02  0.24070000852E+03  0.24161666122E+03  0.00000000000E+00 0.  1.
         21    1    1    2  503  501 -0.77040065631E+00 -0.21012457279E+02  0.67013036144E+02  0.70234349796E+02  0.00000000000E+00 0. -1.
</event>
<event>
 4    1  0.2285999E+005  0.3428050E+02  0.7546771E-02  0.1385693E+00
          2   -1    0    0  502    0  0.00000000000E+00  0.00000000000E+00  0.21634411356E+01  0.21634411356E+01  0.00000000000E+00 0.  1.
         21   -1    0    0  503  502 -0.00000000000E+00 -0.00000000000E+00 -0.62658828011E+03  0.62658828011E+03  0.00000000000E+00 0. -1.
          2    1    1    2  501    0 -0.28921387237E+02  0.18403970908E+02 -0.19751733774E+03  0.20047007631E+03  0.00000000000E+00 0.  1.
         21    1    1    2  503  501  0.28921387237E+02 -0.18403970908E+02 -0.42690750123E+03  0.42828164494E+03  0.00000000000E+00 0. -1.
</event>
<event>
 4    1  0.2285999E+005  0.4187120E+02  0.7546771E-02  0.1337856E+00
          2   -1    0    0  503    0  0.00000000000E+00  0.00000000000E+00  0.68219296162E+03  0.68219296162E+03  0.00000000000E+00 0.  1.
         21   -1    0    0  501  502 -0.00000000000E+00 -0.00000000000E+00 -0.17085321023E+02  0.17085321023E+02  0.00000000000E+00 0.  1.
          2    1    1    2  501    0  0.41864906359E+02 -0.72571212985E+00  0.65482587519E+03  0.65616318386E+03  0.00000000000E+00 0.  1.
         21    1    1    2  503  502 -0.41864906359E+02  0.72571212985E+00  0.10281765404E+02  0.43115098775E+02  0.00000000000E+00 0.  1.
</event>
<event>
 4    1  0.2285999E+005  0.2510047E+02  0.7546771E-02  0.1467682E+00
          2   -1    0    0  503    0  0.00000000000E+00  0.00000000000E+00  0.17352307064E+03  0.17352307064E+03  0.00000000000E+00 0. -1.
         21   -1    0    0  501  502 -0.00000000000E+00 -0.00000000000E+00 -0.22167809779E+02  0.22167809779E+02  0.00000000000E+00 0. -1.
          2    1    1    2  501    0  0.25057224523E+02 -0.14728637466E+01  0.16515199342E+03  0.16704854012E+03  0.00000000000E+00 0. -1.
         21    1    1    2  503  502 -0.25057224523E+02  0.14728637466E+01 -0.13796732554E+02  0.28642340295E+02  0.00000000000E+00 0. -1.
</event>
<event>
 4    1  0.2285999E+005  0.2015085E+02  0.7546771E-02  0.1531742E+00
          2   -1    0    0  503    0  0.00000000000E+00  0.00000000000E+00  0.31942032174E+03  0.31942032174E+03  0.00000000000E+00 0.  1.
         21   -1    0    0  501  502 -0.00000000000E+00 -0.00000000000E+00 -0.20518396911E+01  0.20518396911E+01  0.00000000000E+00 0. -1.
          2    1    1    2  501    0  0.13560427500E+02 -0.14905418972E+02  0.25782645640E+03  0.25861271881E+03  0.00000000000E+00 0.  1.
         21    1    1    2  503  502 -0.13560427500E+02  0.14905418972E+02  0.59542025647E+02  0.62859442623E+02  0.00000000000E+00 0. -1.
</event>
<event>
 4    1  0.2285999E+005  0.2527702E+02  0.7546771E-02  0.1465728E+00
          2   -1    0    0  503    0  0.00000000000E+00  0.00000000000E+00  0.18533422073E+03  0.18533422073E+03  0.00000000000E+00 0. -1.
         21   -1    0    0  501  502 -0.00000000000E+00 -0.00000000000E+00 -0.88067350741E+02  0.88067350741E+02  0.00000000000E+00 0. -1.
          2    1    1    2  501    0  0.20673918612E+02  0.14543619798E+02  0.18263190438E+03  0.18437282957E+03  0.00000000000E+00 0. -1.
         21    1    1    2  503  502 -0.20673918612E+02 -0.14543619798E+02 -0.85365034390E+02  0.89028741898E+02  0.00000000000E+00 0. -1.
</event>
<event>
 4    1  0.2285999E+005  0.2392219E+02  0.7546771E-02  0.1481232E+00
          2   -1    0    0  502    0  0.00000000000E+00  0.00000000000E+00  0.40582579234E+02  0.40582579234E+02  0.00000000000E+00 0. -1.
         21   -1    0    0  503  502 -0.00000000000E+00 -0.00000000000E+00 -0.25767775977E+02  0.25767775977E+02  0.00000000000E+00 0. -1.
          2    1    1    2  501    0 -0.13205795646E+02  0.19946883262E+02  0.29729898420E+02  0.38159376968E+02  0.00000000000E+00 0. -1.
         21    1    1    2  503  501  0.13205795646E+02 -0.19946883262E+02 -0.14915095163E+02  0.28190978242E+02  0.00000000000E+00 0. -1.
</event>
<event>
 4    1  0.2285999E+005  0.3948384E+02  0.7546771E-02  0.1351537E+00
          2   -1    0    0  502    0  0.00000000000E+00  0.00000000000E+00  0.40711838729E+03  0.40711838729E+03  0.00000000000E+00 0. -1.
         21   -1    0    0  503  502 -0.00000000000E+00 -0.00000000000E+00 -0.49100770766E+01  0.49100770766E+01  0.00000000000E+00 0.  1.
          2    1    1    2  501    0  0.39401534063E+02  0.25480317682E+01  0.29775900319E+03  0.30036543964E+03  0.00000000000E+00 0. -1.
         21    1    1    2  503  501 -0.39401534063E+02 -0.25480317682E+01  0.10444930703E+03  0.11166302472E+03  0.00000000000E+00 0.  1.
</event>
<event>
 4    1  0.2285999E+005  0.7120619E+02  0.7546771E-02  0.1225880E+00
          2   -1    0    0  502    0  0.00000000000E+00  0.00000000000E+00  0.28141669816E+04  0.28141669816E+04  0.00000000000E+00 0. -1.
         21   -1    0    0  503  502 -0.00000000000E+00 -0.00000000000E+00 -0.79651224016E+01  0.79651224016E+01  0.00000000000E+00 0.  1.
          2    1    1    2  501    0  0.42388367493E+02  0.57214931288E+02  0.26443576545E+04  0.26453161865E+04  0.00000000000E+00 0. -1.
         21    1    1    2  503  501 -0.42388367493E+02 -0.57214931288E+02  0.16184420474E+03  0.17681591747E+03  0.00000000000E+00 0.  1.
</event>
<event>
 4    1  0.2285999E+005  0.2366736E+02  0.7546771E-02  0.1484284E+00
          2   -1    0    0  503    0  0.00000000000E+00  0.00000000000E+00  0.14880282799E+04  0.14880282799E+04  0.00000000000E+00 0.  1.
         21   -1    0    0  501  502 -0.00000000000E+00 -0.00000000000E+00 -0.87519185717E+00  0.87519185717E+00  0.00000000000E+00 0. -1.
          2    1    1    2  501    0 -0.20230430111E+02  0.12283060335E+02  0.13055683105E+04  0.13057828139E+04  0.00000000000E+00 0.  1.
         21    1    1    2  503  502  0.20230430111E+02 -0.12283060335E+02  0.18158477753E+03  0.18312065778E+03  0.00000000000E+00 0. -1.
</event>
<event>
 4    1  0.2285999E+005  0.3585148E+02  0.7546771E-02  0.1374674E+00
          2   -1    0    0  503    0  0.00000000000E+00  0.00000000000E+00  0.27069007830E+03  0.27069007830E+03  0.00000000000E+00 0.  1.
         21   -1    0    0  501  502 -0.00000000000E+00 -0.00000000000E+00 -0.86489978239E+01  0.86489978239E+01  0.00000000000E+00 0.  1.
          2    1    1    2  501    0 -0.35396009170E+02 -0.56965997608E+01  0.22481726884E+03  0.22765792998E+03  0.00000000000E+00 0.  1.
         21    1    1    2  503  502  0.35396009170E+02  0.56965997608E+01  0.37223811635E+02  0.51681146143E+02  0.00000000000E+00 0.  1.
</event>
<event>
 4    1  0.2285999E+005  0.2005017E+02  0.7546771E-02  0.1533270E+00
          2   -1    0    0  503    0  0.00000000000E+00  0.00000000000E+00  0.52470902529E+03  0.52470902529E+03  0.00000000000E+00 0.  1.
         21   -1    0    0  501  502 -0.00000000000E+00 -0.00000000000E+00 -0.88632395889E+00  0.88632395889E+00  0.00000000000E+00 0.  1.
          2    1    1    2  501    0 -0.17021730538E+02  0.10595755814E+02  0.35867634910E+03  0.35923631881E+03  0.00000000000E+00 0.  1.
         21    1    1    2  503  502  0.17021730538E+02 -0.10595755814E+02  0.16514635223E+03  0.16635903044E+03  0.00000000000E+00 0.  1.
</event>
<event>
 4    1  0.2285999E+005  0.3740840E+02  0.7546771E-02  0.1364380E+00
          2   -1    0    0  502    0  0.00000000000E+00  0.00000000000E+00  0.28153354164E+04  0.28153354164E+04  0.00000000000E+00 0. -1.
         21   -1    0    0  503  502 -0.00000000000E+00 -0.00000000000E+00 -0.26631850743E+01  0.26631850743E+01  0.00000000000E+00 0. -1.
          2    1    1    2  501    0  0.19229940085E+01 -0.37358946043E+02  0.26770621706E+04  0.26773235244E+04  0.00000000000E+00 0. -1.
         21    1    1    2  503  501 -0.19229940085E+01  0.37358946043E+02  0.13561006075E+03  0.14067507715E+03  0.00000000000E+00 0. -1.
</event>
<event>
 4    1  0.2285999E+005  0.3060054E+02  0.7546771E-02  0.1414448E+00
          2   -1    0    0  503    0  0.00000000000E+00  0.00000000000E+00  0.75125665647E+00  0.75125665647E+00  0.00000000000E+00 0.  1.
         21   -1    0    0  501  502 -0.00000000000E+00 -0.00000000000E+00 -0.17851533659E+04  0.17851533659E+04  0.00000000000E+00 0.  1.
          2    1    1    2  501    0 -0.16706886928E+02 -0.25637333371E+02 -0.40166469225E+03  0.40282864587E+03  0.00000000000E+00 0.  1.
         21    1    1    2  503  502  0.16706886928E+02  0.25637333371E+02 -0.13827374170E+04  0.13830759767E+04  0.00000000000E+00 0.  1.
</event>
<event>
 4    1  0.2285999E+005  0.2123112E+02  0.7546771E-02  0.1515991E+00
          2   -1    0    0  503    0  0.00000000000E+00  0.00000000000E+00  0.18985352261E+04  0.18985352261E+04  0.00000000000E+00 0. -1.
         21   -1    0    0  501  502 -0.00000000000E+00 -0.00000000000E+00 -0.23955951807E+00  0.23955951807E+00  0.00000000000E+00 0. -1.
          2    1    1    2  501    0  0.19302214162E+02 -0.88422215741E+01  0.10387571193E+04  0.10389740676E+04  0.00000000000E+00 0. -1.
         21    1    1    2  503  502 -0.19302214162E+02  0.88422215741E+01  0.85953854734E+03  0.85980071802E+03  0.00000000000E+00 0. -1.
</event>
<event>
 4    1  0.2285999E+005  0.2681501E+02  0.7546771E-02  0.1449475E+00
          2   -1    0    0  503    0  0.00000000000E+00  0.00000000000E+00  0.38822271660E+02  0.38822271660E+02  0.00000000000E+00 0. -1.
         21   -1    0    0  501  502 -0.00000000000E+00 -0.00000000000E+00 -0.27469106469E+02  0.27469106469E+02  0.00000000000E+00 0. -1.
          2    1    1    2  501    0 -0.98028515055E+01  0.24958941592E+02  0.24593897758E+02  0.36385498072E+02  0.00000000000E+00 0. -1.
         21    1    1    2  503  502  0.98028515055E+01 -0.24958941592E+02 -0.13240732567E+02  0.29905880056E+02  0.00000000000E+00 0. -1.
</event>
<event>
 4    1  0.2285999E+005  0.2191486E+02  0.7546771E-02  0.1506593E+00
          2   -1    0    0  503    0  0.00000000000E+00  0.00000000000E+00  0.87209754070E+03  0.87209754070E+03  0.00000000000E+00 0.  1.
         21   -1    0    0  501  502 -0.00000000000E+00 -0.00000000000E+00 -0.16439350447E+02  0.16439350447E+02  0.00000000000E+00 0. -1.
          2    1    1    2  501    0 -0.13728782604E+02  0.17081610916E+02  0.86459295675E+03  0.86487065031E+03  0.00000000000E+00 0.  1.
         21    1    1    2  503  502  0.13728782604E+02 -0.17081610916E+02 -0.89347664944E+01  0.23666240842E+02  0.00000000000E+00 0. -1.
</event>
<event>
 4    1  0.2285999E+005  0.3590902E+02  0.7546771E-02  0.1374283E+00
          2   -1    0    0  503    0  0.00000000000E+00  0.00000000000E+00  0.18904553397E+02  0.18904553397E+02  0.00000000000E+00 0.  1.
         21   -1    0    0  501  502 -0.00000000000E+00 -0.00000000000E+00 -0.97163122150E+02  0.97163122150E+02  0.00000000000E+00 0.  1.
          2    1    1    2  501    0  0.35885262673E+02  0.13060444283E+01 -0.74491588499E+01  0.36673529919E+02  0.00000000000E+00 0.  1.
         21    1    1    2  503  502 -0.35885262673E+02 -0.13060444283E+01 -0.70809409903E+02  0.79394145628E+02  0.00000000000E+00 0.  1.
</event>
<event>
 4    1  0.2285999E+005  0.2848486E+02  0.7546771E-02  0.1433237E+00
          2   -1    0    0  503    0  0.00000000000E+00  0.00000000000E+00  0.72618463573E+02  0.72618463573E+02  0.00000000000E+00 0.  1.
         21   -1    0    0  501  502 -0.00000000000E+00 -0.00000000000E+00 -0.53122625104E+02  0.53122625104E+02  0.00000000000E+00 0.  1.
          2    1    1    2  501    0  0.22112423882E+02  0.17956286970E+02  0.65616799904E+02  0.71532873291E+02  0.00000000000E+00 0.  1.
         21    1    1    2  503  502 -0.22112423882E+02 -0.17956286970E+02 -0.46120961434E+02  0.54208215386E+02  0.00000000000E+00 0.  1.
</event>
<event>
 4    1  0.2285999E+005  0.2257113E+02  0.7546771E-02  0.1497955E+00
          2   -1    0    0  502    0  0.00000000000E+00  0.00000000000E+00  0.13835775250E+04  0.13835775250E+04  0.00000000000E+00 0. -1.
         21   -1    0    0  503  502 -0.00000000000E+00 -0.00000000000E+00 -0.13435206941E+01  0.13435206941E+01  0.00000000000E+00 0.  1.
          2    1    1    2  501    0  0.61230320676E+01 -0.21724743311E+02  0.12811046212E+04  0.12813034405E+04  0.00000000000E+00 0. -1.
         21    1    1    2  503  501 -0.61230320676E+01  0.21724743311E+02  0.10112938310E+03  0.10361760526E+03  0.00000000000E+00 0.  1.
</event>
<event>
 4    1  0.2285999E+005  0.6055082E+02  0.7546771E-02  0.1257973E+00
          2   -1    0    0  503    0  0.00000000000E+00  0.00000000000E+00  0.65604441608E+03  0.65604441608E+03  0.00000000000E+00 0. -1.
         21   -1    0    0  501  502 -0.00000000000E+00 -0.00000000000E+00 -0.55977996619E+01  0.55977996619E+01  0.00000000000E+00 0. -1.
          2    1    1    2  501    0  0.44708534738E+02  0.40835630918E+02  0.31184762985E+03  0.31767175839E+03  0.00000000000E+00 0. -1.
         21    1    1    2  503  502 -0.44708534738E+02 -0.40835630918E+02  0.33859898656E+03  0.34397045735E+03  0.00000000000E+00 0. -1.
</event>
<event>
 4    1  0.2285999E+005  0.2089551E+02  0.7546771E-02  0.1520762E+00
          2   -1    0    0  503    0  0.00000000000E+00  0.00000000000E+00  0.11726112741E+04  0.11726112741E+04  0.00000000000E+00 0.  1.
         21   -1    0    0  501  502 -0.00000000000E+00 -0.00000000000E+00 -0.64803495279E+00  0.64803495279E+00  0.00000000000E+00 0.  1.
          2    1    1    2  501    0 -0.14030992703E+02 -0.15483977437E+02  0.96860454623E+03  0.96882990730E+03  0.00000000000E+00 0.  1.
         21    1    1    2  503  502  0.14030992703E+02  0.15483977437E+02  0.20335869293E+03  0.20442940176E+03  0.00000000000E+00 0.  1.
</event>
<event>
 4    1  0.2285999E+005  0.2558327E+02  0.7546771E-02  0.1462383E+00
          2   -1    0    0  503    0  0.00000000000E+00  0.00000000000E+00  0.16187604429E+01  0.16187604429E+01  0.00000000000E+00 0.  1.
         21   -1    0    0  501  502 -0.00000000000E+00 -0.00000000000E+00 -0.41024812424E+03  0.41024812424E+03  0.00000000000E+00 0.  1.
          2    1    1    2  501    0 -0.89590191313E+01 -0.23963297508E+02 -0.22906134806E+03  0.23048558486E+03  0.00000000000E+00 0.  1.
         21    1    1    2  503  502  0.89590191313E+01  0.23963297508E+02 -0.17956801573E+03  0.18138129982E+03  0.00000000000E+00 0.  1.
</event>
<event>
 4    1  0.2285999E+005  0.2858642E+02  0.7546771E-02  0.1432292E+00
          2   -1    0    0  503    0  0.00000000000E+00  0.00000000000E+00  0.22239013132E+04  0.22239013132E+04  0.00000000000E+00 0.  1.
         21   -1    0    0  501  502 -0.00000000000E+00 -0.00000000000E+00 -0.58361520405E+00  0.58361520405E+00  0.00000000000E+00 0. -1.
          2    1    1    2  501    0  0.15957981074E+02 -0.23717635400E+02  0.17885583051E+04  0.17887867380E+04  0.00000000000E+00 0.  1.
         21    1    1    2  503  502 -0.15957981074E+02  0.23717635400E+02  0.43475939284E+03  0.43569819032E+03  0.00000000000E+00 0. -1.
</event>
<event>
 4    1  0.2285999E+005  0.2440430E+02  0.7546771E-02  0.1475579E+00
          2   -1    0    0  502    0  0.00000000000E+00  0.00000000000E+00  0.10034065505E+04  0.10034065505E+04  0.00000000000E+00 0.  1.
         21   -1    0    0  503  502 -0.00000000000E+00 -0.00000000000E+00 -0.18368871164E+01  0.18368871164E+01  0.00000000000E+00 0.  1.
          2    1    1    2  501    0 -0.16840380219E+02  0.17662711144E+02  0.91430323943E+03  0.91462887742E+03  0.00000000000E+00 0.  1.
         21    1    1    2  503  501  0.16840380219E+02 -0.17662711144E+02  0.87266423985E+02  0.90614560232E+02  0.00000000000E+00 0.  1.
</event>
<event>
 4    1  0.2285999E+005  0.3191894E+02  0.7546771E-02  0.1403623E+00
          2   -1    0    0  502    0  0.00000000000E+00  0.00000000000E+00  0.23653691073E+03  0.23653691073E+03  0.00000000000E+00 0.  1.
         21   -1    0    0  503  502 -0.00000000000E+00 -0.00000000000E+00 -0.61504244897E+02  0.61504244897E+02  0.00000000000E+00 0.  1.
          2    1    1    2  501    0  0.19893029928E+02  0.24961690894E+02  0.23122414685E+03  0.23341684759E+03  0.00000000000E+00 0.  1.
         21    1    1    2  503  501 -0.19893029928E+02 -0.24961690894E+02 -0.56191481011E+02  0.64624308044E+02  0.00000000000E+00 0.  1.
</event>
<event>
 4    1  0.2285999E+005  0.2621056E+02  0.7546771E-02  0.1455703E+00
          2   -1    0    0  503    0  0.00000000000E+00  0.00000000000E+00  0.18363709330E+04  0.18363709330E+04  0.00000000000E+00 0.  1.
         21   -1    0    0  501  502 -0.00000000000E+00 -0.00000000000E+00 -0.93617163384E+00  0.93617163384E+00  0.00000000000E+00 0.  1.
          2    1    1    2  501    0  0.24412854894E+02 -0.95397038575E+01  0.16295343991E+04  0.16297451798E+04  0.00000000000E+00 0.  1.
         21    1    1    2  503  502 -0.24412854894E+02  0.95397038575E+01  0.20590036232E+03  0.20756192483E+03  0.00000000000E+00 0.  1.
</event>
<event>
 4    1  0.2285999E+005  0.2426068E+02  0.7546771E-02  0.1477247E+00
          2   -1    0    0  502    0  0.00000000000E+00  0.00000000000E+00  0.84324206202E+03  0.84324206202E+03  0.00000000000E+00 0. -1.
         21   -1    0    0  503  502 -0.00000000000E+00 -0.00000000000E+00 -0.37416374767E+02  0.37416374767E+02  0.00000000000E+00 0.  1.
          2    1    1    2  501    0  0.13934744025E+02  0.19859599976E+02  0.83911558551E+03  0.83946622722E+03  0.00000000000E+00 0. -1.
         21    1    1    2  503  501 -0.13934744025E+02 -0.19859599976E+02 -0.33289898260E+02  0.41192209560E+02  0.00000000000E+00 0.  1.
</event>
<event>
 4    1  0.2285999E+005  0.2008112E+02  0.7546771E-02  0.1532799E+00
          2   -1    0    0  502    0  0.00000000000E+00  0.00000000000E+00  0.46866498700E+03  0.46866498700E+03  0.00000000000E+00 0.  1.
         21   -1    0    0  503  502 -0.00000000000E+00 -0.00000000000E+00 -0.88446735951E+01  0.88446735951E+01  0.00000000000E+00 0. -1.
          2    1    1    2  501    0  0.11824443507E+02 -0.16230649939E+02  0.45675466201E+03  0.45719588004E+03  0.00000000000E+00 0.  1.
         21    1    1    2  503  501 -0.11824443507E+02  0.16230649939E+02  0.30656513920E+01  0.20313780548E+02  0.00000000000E+00 0. -1.
</event>
<event>
 4    1  0.2285999E+005  0.4302244E+02  0.7546771E-02  0.1331630E+00
          2   -1    0    0  503    0  0.00000000000E+00  0.00000000000E+00  0.36411797563E+03  0.36411797563E+03  0.00000000000E+00 0.  1.
         21   -1    0    0  501  502 -0.00000000000E+00 -0.00000000000E+00 -0.52918783409E+02  0.52918783409E+02  0.00000000000E+00 0. -1.
          2    1    1    2  501    0  0.15561906952E+02  0.40109322738E+02  0.35385013513E+03  0.35645595639E+03  0.00000000000E+00 0.  1.
         21    1    1    2  503  502 -0.15561906952E+02 -0.40109322738E+02 -0.42650942905E+02  0.60580802646E+02  0.00000000000E+00 0. -1.
</event>
<event>
 4    1  0.2285999E+005  0.2110578E+02  0.7546771E-02  0.1517760E+00
          2   -1    0    0  503    0  0.00000000000E+00  0.00000000000E+00  0.37354091034E+03  0.37354091034E+03  0.00000000000E+00 0. -1.
         21   -1    0    0  501  502 -0.00000000000E+00 -0.00000000000E+00 -0.13512792947E+01  0.13512792947E+01  0.00000000000E+00 0.  1.
          2    1    1    2  501    0  0.19853513047E+02  0.71618393898E+01  0.25034544405E+03  0.25123354728E+03  0.00000000000E+00 0. -1.
         21    1    1    2  503  502 -0.19853513047E+02 -0.71618393898E+01  0.12184418699E+03  0.12365864235E+03  0.00000000000E+00 0.  1.
</event>
<event>
 4    1  0.2285999E+005  0.2656981E+02  0.7546771E-02  0.1451978E+00
          2   -1    0    0  503    0  0.00000000000E+00  0.00000000000E+00  0.18049588338E+03  0.18049588338E+03  0.00000000000E+00 0.  1.
         21   -1    0    0  501  502 -0.00000000000E+00 -0.00000000000E+00 -0.75780015333E+01  0.75780015333E+01  0.00000000000E+00 0. -1.
          2    1    1    2  501    0 -0.19225753656E+02 -0.18339175829E+02  0.15187208591E+03  0.15417874514E+03  0.00000000000E+00 0.  1.
         21    1    1    2  503  502  0.19225753656E+02  0.18339175829E+02  0.21045795936E+02  0.33895139774E+02  0.00000000000E+00 0. -1.
</event>
<event>
 4    1  0.2285999E+005  0.4446630E+02  0.7546771E-02  0.1324130E+00
          2   -1    0    0  503    0  0.00000000000E+00  0.00000000000E+00  0.41842135678E+03  0.41842135678E+03  0.00000000000E+00 0.  1.
         21   -1    0    0  501  502 -0.00000000000E+00 -0.00000000000E+00 -0.10265563967E+02  0.10265563967E+02  0.00000000000E+00 0.  1.
          2    1    1    2  501    0  0.38867607891E+02  0.21600017881E+02  0.36154000805E+03  0.36426422983E+03  0.00000000000E+00 0.  1.
         21    1    1    2  503  502 -0.38867607891E+02 -0.21600017881E+02  0.46615784767E+02  0.64422690918E+02  0.00000000000E+00 0.  1.
</event>
<event>
 4    1  0.2285999E+005  0.2150387E+02  0.7546771E-02  0.1512191E+00
          2   -1    0    0  503    0  0.00000000000E+00  0.00000000000E+00  0.36306139951E+02  0.36306139951E+02  0.00000000000E+00 0. -1.
         21   -1    0    0  501  502 -0.00000000000E+00 -0.00000000000E+00 -0.22830178310E+02  0.22830178310E+02  0.00000000000E+00 0. -1.
          2    1    1    2  501    0  0.13955267699E+02 -0.16360533058E+02  0.26398381198E+02  0.34048363667E+02  0.00000000000E+00 0. -1.
         21    1    1    2  503  502 -0.13955267699E+02  0.16360533058E+02 -0.12922419557E+02  0.25087954594E+02  0.00000000000E+00 0. -1.
</event>
<event>
 4    1  0.2285999E+005  0.2851334E+02  0.7546771E-02  0.1432971E+00
          2   -1    0    0  502    0  0.00000000000E+00  0.00000000000E+00  0.51414719082E+02  0.51414719082E+02  0.00000000000E+00 0.  1.
         21   -1    0    0  503  502 -0.00000000000E+00 -0.00000000000E+00 -0.20174316464E+02  0.20174316464E+02  0.00000000000E+00 0.  1.
          2    1    1    2  501    0 -0.13909787377E+02 -0.24890322151E+02  0.32263376961E+02  0.43057354941E+02  0.00000000000E+00 0.  1.
         21    1    1    2  503  501  0.13909787377E+02  0.24890322151E+02 -0.10229743425E+01  0.28531680605E+02  0.00000000000E+00 0.  1.
</event>
<event>
 4    1  0.2285999E+005  0.2639467E+02  0.7546771E-02  0.1453785E+00
          2   -1    0    0  503    0  0.00000000000E+00  0.00000000000E+00  0.27795154773E+03  0.27795154773E+03  0.00000000000E+00 0. -1.
         21   -1    0    0  501  502 -0.00000000000E+00 -0.00000000000E+00 -0.27843576666E+01  0.27843576666E+01  0.00000000000E+00 0.  1.
          2    1    1    2  501    0  0.17149130442E+02  0.20064549706E+02  0.18192766523E+03  0.18383240793E+03  0.00000000000E+00 0. -1.
         21    1    1    2  503  502 -0.17149130442E+02 -0.20064549706E+02  0.93239524831E+02  0.96903497463E+02  0.00000000000E+00 0.  1.
</event>
<event>
 4    1  0.2285999E+005  0.2183055E+02  0.7546771E-02  0.1507729E+00
          2   -1    0    0  502    0  0.00000000000E+00  0.00000000000E+00  0.62117331711E+02  0.62117331711E+02  0.00000000000E+00 0. -1.
         21   -1    0    0  503  502 -0.00000000000E+00 -0.00000000000E+00 -0.14424698675E+02  0.14424698675E+02  0.00000000000E+00 0.  1.
          2    1    1    2  501    0  0.11423981294E+01  0.21800643425E+02  0.50031200589E+02  0.54586574903E+02  0.00000000000E+00 0. -1.
         21    1    1    2  503  501 -0.11423981294E+01 -0.21800643425E+02 -0.23385675530E+01  0.21955455483E+02  0.00000000000E+00 0.  1.
</event>
<event>
 4    1  0.2285999E+005  0.3020475E+02  0.7546771E-02  0.1417825E+00
          2   -1    0    0  502    0  0.00000000000E+00  0.00000000000E+00  0.13715376420E+04  0.13715376420E+04  0.00000000000E+00 0. -1.
         21   -1    0    0  503  502 -0.00000000000E+00 -0.00000000000E+00 -0.13995396774E+01  0.13995396774E+01  0.00000000000E+00 0. -1.
          2    1    1    2  501    0  0.20202543224E+02  0.22454049082E+02  0.11823259557E+04  0.11827117115E+04  0.00000000000E+00 0. -1.
         21    1    1    2  503  501 -0.20202543224E+02 -0.22454049082E+02  0.18781214660E+03  0.19022547012E+03  0.00000000000E+00 0. -1.
</event>
<event>
 4    1  0.2285999E+005  0.2643355E+02  0.7546771E-02  0.1453383E+00
          2   -1    0    0  503    0  0.00000000000E+00  0.00000000000E+00  0.24623366557E+03  0.24623366557E+03  0.00000000000E+00 0.  1.
         21   -1    0    0  501  502 -0.00000000000E+00 -0.00000000000E+00 -0.18603433873E+03  0.18603433873E+03  0.00000000000E+00 0.  1.
          2    1    1    2  501    0  0.26244600398E+02  0.31549472039E+01  0.24457892721E+03  0.24600322026E+03  0.00000000000E+00 0.  1.
         21    1    1    2  503  502 -0.26244600398E+02 -0.31549472039E+01 -0.18437960037E+03  0.18626478404E+03  0.00000000000E+00 0.  1.
</event>
<event>
 4    1  0.2285999E+005  0.2174060E+02  0.7546771E-02  0.1508948E+00
          2   -1    0    0  502    0  0.00000000000E+00  0.00000000000E+00  0.20172811186E+03  0.20172811186E+03  0.00000000000E+00 0.  1.
         21   -1    0    0  503  502 -0.00000000000E+00 -0.00000000000E+00 -0.14734654198E+02  0.14734654198E+02  0.00000000000E+00 0.  1.
          2    1    1    2  501    0  0.16413937088E+02  0.14256103640E+02  0.19275060014E+03  0.19397280138E+03  0.00000000000E+00 0.  1.
         21    1    1    2  503  501 -0.16413937088E+02 -0.14256103640E+02 -0.57571424754E+01  0.22489964678E+02  0.00000000000E+00 0.  1.
</event>
<event>
 4    1  0.2285999E+005  0.4381779E+02  0.7546771E-02  0.1327458E+00
          2   -1    0    0  502    0  0.00000000000E+00  0.00000000000E+00  0.14995857090E+03  0.14995857090E+03  0.00000000000E+00 0.  1.
         21   -1    0    0  503  502 -0.00000000000E+00 -0.00000000000E+00 -0.49835218293E+02  0.49835218293E+02  0.00000000000E+00 0.  1.
          2    1    1    2  501    0  0.40075609642E+02  0.17718473568E+02  0.13617504364E+03  0.14305118421E+03  0.00000000000E+00 0.  1.
         21    1    1    2  503  501 -0.40075609642E+02 -0.17718473568E+02 -0.36051691033E+02  0.56742604982E+02  0.00000000000E+00 0.  1.
</event>
<event>
 4    1  0.2285999E+005  0.2717516E+02  0.7546771E-02  0.1445856E+00
          2   -1    0    0  503    0  0.00000000000E+00  0.00000000000E+00  0.87095360917E+01  0.87095360917E+01  0.00000000000E+00 0.  1.
         21   -1    0    0  501  502 -0.00000000000E+00 -0.00000000000E+00 -0.52129545049E+03  0.52129545049E+03  0.00000000000E+00 0. -1.
          2    1    1    2  501    0 -0.74381624297E+01  0.26137390109E+02 -0.13798185528E+02  0.30477521977E+02  0.00000000000E+00 0.  1.
         21    1    1    2  503  502  0.74381624297E+01 -0.26137390109E+02 -0.49878772887E+03  0.49952746460E+03  0.00000000000E+00 0. -1.
</event>
<event>
 4    1  0.2285999E+005  0.2234057E+02  0.7546771E-02  0.1500949E+00
          2   -1    0    0  503    0  0.00000000000E+00  0.00000000000E+00  0.20428463573E+03  0.20428463573E+03  0.00000000000E+00 0. -1.
         21   -1    0    0  501  502 -0.00000000000E+00 -0.00000000000E+00 -0.35660388677E+01  0.35660388677E+01  0.00000000000E+00 0. -1.
          2    1    1    2  501    0 -0.52356491835E+01  0.21718405053E+02  0.15867611778E+03  0.16024110426E+03  0.00000000000E+00 0. -1.
         21    1    1    2  503  502  0.52356491835E+01 -0.21718405053E+02  0.42042479079E+02  0.47609570335E+02  0.00000000000E+00 0. -1.
</event>
<event>
 4    1  0.2285999E+005  0.2113057E+02  0.7546771E-02  0.1517409E+00
          2   -1    0    0  503    0  0.00000000000E+00  0.00000000000E+00  0.56756409066E+03  0.56756409066E+03  0.00000000000E+00 0. -1.
         21   -1    0    0  501  502 -0.00000000000E+00 -0.00000000000E+00 -0.90161277709E+00  0.90161277709E+00  0.00000000000E+00 0.  1.
          2    1    1    2  501    0  0.77282440109E+01 -0.19666600648E+02  0.38480509767E+03  0.38538482602E+03  0.00000000000E+00 0. -1.
         21    1    1    2  503  502 -0.77282440109E+01  0.19666600648E+02  0.18185738022E+03  0.18308087742E+03  0.00000000000E+00 0.  1.
</event>
<event>
 4    1  0.2285999E+005  0.2000480E+02  0.7546771E-02  0.1533962E+00
          2   -1    0    0  503    0  0.00000000000E+00  0.00000000000E+00  0.90814777398E+03  0.90814777398E+03  0.00000000000E+00 0.  1.
         21   -1    0    0  501  502 -0.00000000000E+00 -0.00000000000E+00 -0.47137707518E+02  0.47137707518E+02  0.00000000000E+00 0.  1.
          2    1    1    2  501    0  0.67624768317E+01 -0.18827128420E+02  0.90590990306E+03  0.90613075453E+03  0.00000000000E+00 0.  1.
         21    1    1    2  503  502 -0.67624768317E+01  0.18827128420E+02 -0.44899836590E+02  0.49154726968E+02  0.00000000000E+00 0.  1.
</event>
<event>
 4    1  0.2285999E+005  0.2233370E+02  0.7546771E-02  0.1501039E+00
          2   -1    0    0  502    0  0.00000000000E+00  0.00000000000E+00  0.80833571667E+03  0.80833571667E+03  0.00000000000E+00 0.  1.
         21   -1    0    0  503  502 -0.00000000000E+00 -0.00000000000E+00 -0.55986426523E+01  0.55986426523E+01  0.00000000000E+00 0.  1.
          2    1    1    2  501    0  0.91945855337E+01  0.20353220127E+02  0.78525390272E+03  0.78557143896E+03  0.00000000000E+00 0.  1.
         21    1    1    2  503  501 -0.91945855337E+01 -0.20353220127E+02  0.17483171290E+02  0.28362920354E+02  0.00000000000E+00 0.  1.
</event>
<event>
 4    1  0.2285999E+005  0.2057152E+02  0.7546771E-02  0.1525471E+00
          2   -1    0    0  503    0  0.00000000000E+00  0.00000000000E+00  0.11690361027E+03  0.11690361027E+03  0.00000000000E+00 0. -1.
         21   -1    0    0  501  502 -0.00000000000E+00 -0.00000000000E+00 -0.19011890803E+03  0.19011890803E+03  0.00000000000E+00 0. -1.
          2    1    1    2  501    0  0.16004860047E+02  0.12924080192E+02  0.11543511704E+03  0.11725380011E+03  0.00000000000E+00 0. -1.
         21    1    1    2  503  502 -0.16004860047E+02 -0.12924080192E+02 -0.18865041480E+03  0.18976871818E+03  0.00000000000E+00 0. -1.
</event>
<event>
 4    1  0.2285999E+005  0.2264091E+02  0.7546771E-02  0.1497057E+00
          2   -1    0    0  502    0  0.00000000000E+00  0.00000000000E+00  0.22356823126E+02  0.22356823126E+02  0.00000000000E+00 0.  1.
         21   -1    0    0  503  502 -0.00000000000E+00 -0.00000000000E+00 -0.11403000624E+03  0.11403000624E+03  0.00000000000E+00 0.  1.
          2    1    1    2  501    0 -0.21896335615E+02  0.57585651610E+01  0.15116454142E+02  0.27223478321E+02  0.00000000000E+00 0.  1.
         21    1    1    2  503  501  0.21896335615E+02 -0.57585651610E+01 -0.10678963726E+03  0.10916335105E+03  0.00000000000E+00 0.  1.
</event>
<event>
 4    1  0.2285999E+005  0.2091068E+02  0.7546771E-02  0.1520544E+00
          2   -1    0    0  503    0  0.00000000000E+00  0.00000000000E+00  0.11370679537E+04  0.11370679537E+04  0.00000000000E+00 0.  1.
         21   -1    0    0  501  502 -0.00000000000E+00 -0.00000000000E+00 -0.76463768473E+02  0.76463768473E+02  0.00000000000E+00 0. -1.
          2    1    1    2  501    0  0.19243651724E+02 -0.81815869359E+01  0.11355402738E+04  0.11357327899E+04  0.00000000000E+00 0.  1.
         21    1    1    2  503  502 -0.19243651724E+02  0.81815869359E+01 -0.74936088590E+02  0.77798932316E+02  0.00000000000E+00 0. -1.
</event>
<event>
 4    1  0.2285999E+005  0.2578632E+02  0.7546771E-02  0.1460196E+00
          2   -1    0    0  503    0  0.00000000000E+00  0.00000000000E+00  0.27706379613E+03  0.27706379613E+03  0.00000000000E+00 0. -1.
         21   -1    0    0  501  502 -0.00000000000E+00 -0.00000000000E+00 -0.38739616650E+02  0.38739616650E+02  0.00000000000E+00 0.  1.
          2    1    1    2  501    0 -0.16444692722E+02 -0.19862189358E+02  0.27209457156E+03  0.27331372149E+03  0.00000000000E+00 0. -1.
         21    1    1    2  503  502  0.16444692722E+02  0.19862189358E+02 -0.33770392076E+02  0.42489691288E+02  0.00000000000E+00 0.  1.
</event>
<event>
 4    1  0.2285999E+005  0.2546880E+02  0.7546771E-02  0.1463627E+00
          2   -1    0    0  502    0  0.00000000000E+00  0.00000000000E+00  0.73218258148E+03  0.73218258148E+03  0.00000000000E+00 0.  1.
         21   -1    0    0  503  502 -0.00000000000E+00 -0.00000000000E+00 -0.32948842108E+01  0.32948842108E+01  0.00000000000E+00 0. -1.
          2    1    1    2  501    0 -0.19051607996E+02 -0.16902539460E+02  0.67888105353E+03  0.67935862727E+03  0.00000000000E+00 0.  1.
         21    1    1    2  503  501  0.19051607996E+02  0.16902539460E+02  0.50006643744E+02  0.56118838423E+02  0.00000000000E+00 0. -1.
</event>
<event>
 4    1  0.2285999E+005  0.2909612E+02  0.7546771E-02  0.1427617E+00
          2   -1    0    0  502    0  0.00000000000E+00  0.00000000000E+00  0.20234026275E+04  0.20234026275E+04  0.00000000000E+00 0. -1.
         21   -1    0    0  503  502 -0.00000000000E+00 -0.00000000000E+00 -0.15112295732E+02  0.15112295732E+02  0.00000000000E+00 0.  1.
          2    1    1    2  501    0 -0.23000872403E+02  0.17819759262E+02  0.20091941080E+04  0.20094047745E+04  0.00000000000E+00 0. -1.
         21    1    1    2  503  501  0.23000872403E+02 -0.17819759262E+02 -0.90377621904E+00  0.29110148796E+02  0.00000000000E+00 0.  1.
</event>
<event>
 4    1  0.2285999E+005  0.2214098E+02  0.7546771E-02  0.1503576E+00
          2   -1    0    0  503    0  0.00000000000E+00  0.00000000000E+00  0.29985180083E+02  0.29985180083E+02  0.00000000000E+00 0. -1.
         21   -1    0    0  501  502 -0.00000000000E+00 -0.00000000000E+00 -0.13462842623E+03  0.13462842623E+03  0.00000000000E+00 0.  1.
          2    1    1    2  501    0 -0.39763919004E+01 -0.21780989920E+02  0.24825942988E+02  0.33264856225E+02  0.00000000000E+00 0. -1.
         21    1    1    2  503  502  0.39763919004E+01  0.21780989920E+02 -0.12946918914E+03  0.13134875009E+03  0.00000000000E+00 0.  1.
</event>
<event>
 4    1  0.2285999E+005  0.6245894E+02  0.7546771E-02  0.1251699E+00
          2   -1    0    0  502    0  0.00000000000E+00  0.00000000000E+00  0.40808632625E+04  0.40808632625E+04  0.00000000000E+00 0. -1.
         21   -1    0    0  503  502 -0.00000000000E+00 -0.00000000000E+00 -0.10283246603E+01  0.10283246603E+01  0.00000000000E+00 0. -1.
          2    1    1    2  501    0  0.16205415980E+02 -0.60320007751E+02  0.25813528961E+04  0.25821084201E+04  0.00000000000E+00 0. -1.
         21    1    1    2  503  501 -0.16205415980E+02  0.60320007751E+02  0.14984820418E+04  0.14997831671E+04  0.00000000000E+00 0. -1.
</event>
<event>
 4    1  0.2285999E+005  0.2683635E+02  0.7546771E-02  0.1449259E+00
          2   -1    0    0  502    0  0.00000000000E+00  0.00000000000E+00  0.10836613028E+02  0.10836613028E+02  0.00000000000E+00 0. -1.
         21   -1    0    0  503  502 -0.00000000000E+00 -0.00000000000E+00 -0.16796067678E+03  0.16796067678E+03  0.00000000000E+00 0. -1.
          2    1    1    2  501    0  0.26827119956E+02 -0.70376410885E+00 -0.90653775671E+01  0.28326149041E+02  0.00000000000E+00 0. -1.
         21    1    1    2  503  501 -0.26827119956E+02  0.70376410885E+00 -0.14805868618E+03  0.15047114077E+03  0.00000000000E+00 0. -1.
</event>
<event>
 4    1  0.2285999E+005  0.2623302E+02  0.7546771E-02  0.1455469E+00
          2   -1    0    0  502    0  0.00000000000E+00  0.00000000000E+00  0.12633919870E+04  0.12633919870E+04  0.00000000000E+00 0. -1.
         21   -1    0    0  503  502 -0.00000000000E+00 -0.00000000000E+00 -0.72202070129E+01  0.72202070129E+01  0.00000000000E+00 0.  1.
          2    1    1    2  501    0  0.11309667232E+02 -0.23669866148E+02  0.12389579861E+04  0.12392356767E+04  0.00000000000E+00 0. -1.
         21    1    1    2  503  501 -0.11309667232E+02  0.23669866148E+02  0.17213793851E+02  0.31376517256E+02  0.00000000000E+00 0.  1.
</event>
<event>
 4    1  0.2285999E+005  0.2767365E+02  0.7546771E-02  0.1440956E+00
          2   -1    0    0  502    0  0.00000000000E+00  0.00000000000E+00  0.75186208436E+02  0.75186208436E+02  0.00000000000E+00 0.  1.
         21   -1    0    0  503  502 -0.00000000000E+00 -0.00000000000E+00 -0.15355080457E+02  0.15355080457E+02  0.00000000000E+00 0. -1.
          2    1    1    2  501    0 -0.18363264075E+02  0.20703176405E+02  0.56182297505E+02  0.62628120950E+02  0.00000000000E+00 0.  1.
         21    1    1    2  503  501  0.18363264075E+02 -0.20703176405E+02  0.36488304741E+01  0.27913167943E+02  0.00000000000E+00 0. -1.
</event>
<event>
 4    1  0.2285999E+005  0.2497178E+02  0.7546771E-02  0.1469119E+00
          2   -1    0    0  503    0  0.00000000000E+00  0.00000000000E+00  0.55766682126E+01  0.55766682126E+01  0.00000000000E+00 0.  1.
         21   -1    0    0  501  502 -0.00000000000E+00 -0.00000000000E+00 -0.53865339607E+03  0.53865339607E+03  0.00000000000E+00 0.  1.
          2    1    1    2  501    0  0.20639190177E+02 -0.14057511462E+02 -0.24309210262E+02  0.34850071782E+02  0.00000000000E+00 0.  1.
         21    1    1    2  503  502 -0.20639190177E+02  0.14057511462E+02 -0.50876751759E+03  0.50937999250E+03  0.00000000000E+00 0.  1.
</event>
<event>
 4    1  0.2285999E+005  0.2261028E+02  0.7546771E-02  0.1497451E+00
          2   -1    0    0  503    0  0.00000000000E+00  0.00000000000E+00  0.12576124587E+04  0.12576124587E+04  0.00000000000E+00 0.  1.
         21   -1    0    0  501  502 -0.00000000000E+00 -0.00000000000E+00 -0.46409235667E+00  0.46409235667E+00  0.00000000000E+00 0.  1.
          2    1    1    2  501    0  0.11275913475E+02 -0.19597926516E+02  0.85015943292E+03  0.85046004394E+03  0.00000000000E+00 0.  1.
         21    1    1    2  503  502 -0.11275913475E+02  0.19597926516E+02  0.40698893346E+03  0.40761650716E+03  0.00000000000E+00 0.  1.
</event>
<event>
 4    1  0.2285999E+005  0.2207791E+02  0.7546771E-02  0.1504413E+00
          2   -1    0    0  503    0  0.00000000000E+00  0.00000000000E+00  0.11462543533E+04  0.11462543533E+04  0.00000000000E+00 0. -1.
         21   -1    0    0  501  502 -0.00000000000E+00 -0.00000000000E+00 -0.92694175933E+00  0.92694175933E+00  0.00000000000E+00 0. -1.
          2    1    1    2  501    0  0.68704874213E+00  0.22067217570E+02  0.99464995554E+03  0.99489495334E+03  0.00000000000E+00 0. -1.
         21    1    1    2  503  502 -0.68704874213E+00 -0.22067217570E+02  0.15067745603E+03  0.15228634175E+03  0.00000000000E+00 0. -1.
</event>
<event>
 4    1  0.2285999E+005  0.3862971E+02  0.7546771E-02  0.1356708E+00
          2   -1    0    0  502    0  0.00000000000E+00  0.00000000000E+00  0.86171602446E+02  0.86171602446E+02  0.00000000000E+00 0. -1.
         21   -1    0    0  503  502 -0.00000000000E+00 -0.00000000000E+00 -0.23337093210E+02  0.23337093210E+02  0.00000000000E+00 0. -1.
          2    1    1    2  501    0  0.36303137143E+02 -0.13203658712E+02  0.59226433153E+02  0.70710853154E+02  0.00000000000E+00 0. -1.
         21    1    1    2  503  501 -0.36303137143E+02  0.13203658712E+02  0.36080760838E+01  0.38797842502E+02  0.00000000000E+00 0. -1.
</event>
<event>
 4    1  0.2285999E+005  0.2945698E+02  0.7546771E-02  0.1424375E+00
          2   -1    0    0  503    0  0.00000000000E+00  0.00000000000E+00  0.13840312871E+04  0.13840312871E+04  0.00000000000E+00 0. -1.
         21   -1    0    0  501  502 -0.00000000000E+00 -0.00000000000E+00 -0.30507816376E+01  0.30507816376E+01  0.00000000000E+00 0. -1.
          2    1    1    2  501    0  0.25870253140E+02  0.14086994256E+02  0.13086748063E+04  0.13090062880E+04  0.00000000000E+00 0. -1.
         21    1    1    2  503  502 -0.25870253140E+02 -0.14086994256E+02  0.72305699146E+02  0.78075780711E+02  0.00000000000E+00 0. -1.
</event>
<event>
 4    1  0.2285999E+005  0.3227280E+02  0.7546771E-02  0.1400822E+00
          2   -1    0    0  503    0  0.00000000000E+00  0.00000000000E+00  0.99284883481E+02  0.99284883481E+02  0.00000000000E+00 0.  1.
         21   -1    0    0  501  502 -0.00000000000E+00 -0.00000000000E+00 -0.19212177926E+03  0.19212177926E+03  0.00000000000E+00 0. -1.
          2    1    1    2  501    0 -0.25818564093E+02  0.19363240802E+02  0.95251156057E+02  0.10056995613E+03  0.00000000000E+00 0.  1.
         21    1    1    2  503  502  0.25818564093E+02 -0.19363240802E+02 -0.18808805184E+03  0.19083670661E+03  0.00000000000E+00 0. -1.
</event>
<event>
 4    1  0.2285999E+005  0.2009665E+02  0.7546771E-02  0.1532563E+00
          2   -1    0    0  502    0  0.00000000000E+00  0.00000000000E+00  0.12932961045E+02  0.12932961045E+02  0.00000000000E+00 0. -1.
         21   -1    0    0  503  502 -0.00000000000E+00 -0.00000000000E+00 -0.50131814272E+02  0.50131814272E+02  0.00000000000E+00 0.  1.
          2    1    1    2  501    0 -0.19005172189E+02  0.65328884820E+01  0.76348653635E+00  0.20111144014E+02  0.00000000000E+00 0. -1.
         21    1    1    2  503  501  0.19005172189E+02 -0.65328884820E+01 -0.37962339763E+02  0.42953631304E+02  0.00000000000E+00 0.  1.
</event>
<event>
 4    1  0.2285999E+005  0.3868947E+02  0.7546771E-02  0.1356341E+00
          2   -1    0    0  503    0  0.00000000000E+00  0.00000000000E+00  0.57357384546E+03  0.57357384546E+03  0.00000000000E+00 0.  1.
         21   -1    0    0  501  502 -0.00000000000E+00 -0.00000000000E+00 -0.15816518131E+02  0.15816518131E+02  0.00000000000E+00 0.  1.
          2    1    1    2  501    0 -0.92701630153E+01  0.37562466570E+02  0.54816613184E+03  0.54952978346E+03  0.00000000000E+00 0.  1.
         21    1    1    2  503  502  0.92701630153E+01 -0.37562466570E+02  0.95911954888E+01  0.39860580127E+02  0.00000000000E+00 0.  1.
</event>
<event>
 4    1  0.2285999E+005  0.3183747E+02  0.7546771E-02  0.1404273E+00
          2   -1    0    0  503    0  0.00000000000E+00  0.00000000000E+00  0.19105858775E+04  0.19105858775E+04  0.00000000000E+00 0.  1.
         21   -1    0    0  501  502 -0.00000000000E+00 -0.00000000000E+00 -0.27293318255E+01  0.27293318255E+01  0.00000000000E+00 0.  1.
          2    1    1    2  501    0  0.31393096076E+02  0.53007295385E+01  0.18125884993E+04  0.18128680845E+04  0.00000000000E+00 0.  1.
         21    1    1    2  503  502 -0.31393096076E+02 -0.53007295385E+01  0.95268046460E+02  0.10044712485E+03  0.00000000000E+00 0.  1.
</event>
<event>
 4    1  0.2285999E+005  0.2694519E+02  0.7546771E-02  0.1448159E+00
          2   -1    0    0  502    0  0.00000000000E+00  0.00000000000E+00  0.91657012042E+03  0.91657012042E+03  0.00000000000E+00 0. -1.
         21   -1    0    0  503  502 -0.00000000000E+00 -0.00000000000E+00 -0.25447062536E+01  0.25447062536E+01  0.00000000000E+00 0.  1.
          2    1    1    2  501    0  0.26232378781E+02 -0.61567605356E+01  0.83839393582E+03  0.83882682064E+03  0.00000000000E+00 0. -1.
         21    1    1    2  503  501 -0.26232378781E+02  0.61567605356E+01  0.75631478343E+02  0.80288006036E+02  0.00000000000E+00 0.  1.
</event>
<event>
 4    1  0.2285999E+005  0.2217792E+02  0.7546771E-02  0.1503087E+00
          2   -1    0    0  503    0  0.00000000000E+00  0.00000000000E+00  0.39698527743E+03  0.39698527743E+03  0.00000000000E+00 0. -1.
         21   -1    0    0  501  502 -0.00000000000E+00 -0.00000000000E+00 -0.17176766702E+01  0.17176766702E+01  0.00000000000E+00 0. -1.
          2    1    1    2  501    0 -0.20522358286E+02 -0.84079211818E+01  0.30287237147E+03  0.30368327865E+03  0.00000000000E+00 0. -1.
         21    1    1    2  503  502  0.20522358286E+02  0.84079211818E+01  0.92395229286E+02  0.95019675453E+02  0.00000000000E+00 0. -1.
</event>
<event>
 4    1  0.2285999E+005  0.4071874E+02  0.7546771E-02  0.1344325E+00
          2   -1    0    0  502    0  0.00000000000E+00  0.00000000000E+00  0.39598738793E+03  0.39598738793E+03  0.00000000000E+00 0. -1.
         21   -1    0    0  503  502 -0.00000000000E+00 -0.00000000000E+00 -0.85207385277E+01  0.85207385277E+01  0.00000000000E+00 0.  1.
          2    1    1    2  501    0 -0.26792411190E+02  0.30662401318E+02  0.33797403176E+03  0.34041806987E+03  0.00000000000E+00 0. -1.
         21    1    1    2  503  501  0.26792411190E+02 -0.30662401318E+02  0.49492617642E+02  0.64090056584E+02  0.00000000000E+00 0.  1.
</event>
<event>
 4    1  0.2285999E+005  0.2806006E+02  0.7546771E-02  0.1437241E+00
          2   -1    0    0  502    0  0.00000000000E+00  0.00000000000E+00  0.30128233213E+02  0.30128233213E+02  0.00000000000E+00 0.  1.
         21   -1    0    0  503  502 -0.00000000000E+00 -0.00000000000E+00 -0.35210827795E+03  0.35210827795E+03  0.00000000000E+00 0. -1.
          2    1    1    2  501    0  0.18527643178E+02  0.21073520447E+02  0.22899006333E+02  0.36217831476E+02  0.00000000000E+00 0.  1.
         21    1    1    2  503  501 -0.18527643178E+02 -0.21073520447E+02 -0.34487905107E+03  0.34601867969E+03  0.00000000000E+00 0. -1.
</event>
<event>
 4    1  0.2285999E+005  0.2788502E+02  0.7546771E-02  0.1438915E+00
          2   -1    0    0  502    0  0.00000000000E+00  0.00000000000E+00  0.10837808760E+04  0.10837808760E+04  0.00000000000E+00 0.  1.
         21   -1    0    0  503  502 -0.00000000000E+00 -0.00000000000E+00 -0.92796163243E+00  0.92796163243E+00  0.00000000000E+00 0. -1.
          2    1    1    2  501    0 -0.27616184139E+02 -0.38626995376E+01  0.79973661440E+03  0.80022261058E+03  0.00000000000E+00 0.  1.
         21    1    1    2  503  501  0.27616184139E+02  0.38626995376E+01  0.28311629993E+03  0.28448622701E+03  0.00000000000E+00 0. -1.
</event>
<event>
 4    1  0.2285999E+005  0.5642160E+02  0.7546771E-02  0.1272501E+00
          2   -1    0    0  503    0  0.00000000000E+00  0.00000000000E+00  0.50120890003E+03  0.50120890003E+03  0.00000000000E+00 0.  1.
         21   -1    0    0  501  502 -0.00000000000E+00 -0.00000000000E+00 -0.14799737808E+03  0.14799737808E+03  0.00000000000E+00 0. -1.
          2    1    1    2  501    0 -0.40010099777E+02 -0.39781771313E+02  0.49416720611E+03  0.49737774880E+03  0.00000000000E+00 0.  1.
         21    1    1    2  503  502  0.40010099777E+02  0.39781771313E+02 -0.14095568416E+03  0.15182852930E+03  0.00000000000E+00 0. -1.
</event>
<event>
 4    1  0.2285999E+005  0.2908418E+02  0.7546771E-02  0.1427725E+00
          2   -1    0    0  502    0  0.00000000000E+00  0.00000000000E+00  0.39592109656E+03  0.39592109656E+03  0.00000000000E+00 0. -1.
         21   -1    0    0  503  502 -0.00000000000E+00 -0.00000000000E+00 -0.25277575203E+01  0.25277575203E+01  0.00000000000E+00 0. -1.
          2    1    1    2  501    0 -0.29084172966E+02  0.20753212602E-01  0.27507580115E+03  0.27660908504E+03  0.00000000000E+00 0. -1.
         21    1    1    2  503  501  0.29084172966E+02 -0.20753212602E-01  0.11831753789E+03  0.12183976904E+03  0.00000000000E+00 0. -1.
</event>
<event>
 4    1  0.2285999E+005  0.2528235E+02  0.7546771E-02  0.1465669E+00
          2   -1    0    0  503    0  0.00000000000E+00  0.00000000000E+00  0.18275623316E+03  0.18275623316E+03  0.00000000000E+00 0. -1.
         21   -1    0    0  501  502 -0.00000000000E+00 -0.00000000000E+00 -0.37777544952E+01  0.37777544952E+01  0.00000000000E+00 0.  1.
          2    1    1    2  501    0 -0.24134066645E+02  0.75328758358E+01  0.11489052816E+03  0.11763941028E+03  0.00000000000E+00 0. -1.
         21    1    1    2  503  502  0.24134066645E+02 -0.75328758358E+01  0.64087950505E+02  0.68894577371E+02  0.00000000000E+00 0.  1.
</event>
<event>
 4    1  0.2285999E+005  0.2932827E+02  0.7546771E-02  0.1425525E+00
          2   -1    0    0  503    0  0.00000000000E+00  0.00000000000E+00  0.91331715099E+03  0.91331715099E+03  0.00000000000E+00 0. -1.
         21   -1    0    0  501  502 -0.00000000000E+00 -0.00000000000E+00 -0.37084554915E+01  0.37084554915E+01  0.00000000000E+00 0. -1.
          2    1    1    2  501    0  0.23507089848E+02  0.17537500002E+02  0.85083951748E+03  0.85134483711E+03  0.00000000000E+00 0. -1.
         21    1    1    2  503  502 -0.23507089848E+02 -0.17537500002E+02  0.58769178021E+02  0.65680769368E+02  0.00000000000E+00 0. -1.
</event>
<event>
 4    1  0.2285999E+005  0.2078556E+02  0.7546771E-02  0.1522349E+00
          2   -1    0    0  502    0  0.00000000000E+00  0.00000000000E+00  0.39279643536E+03  0.39279643536E+03  0.00000000000E+00 0.  1.
         21   -1    0    0  503  502 -0.00000000000E+00 -0.00000000000E+00 -0.50453099088E+02  0.50453099088E+02  0.00000000000E+00 0.  1.
          2    1    1    2  501    0  0.14920706530E+02  0.14471080750E+02  0.39036734827E+03  0.39092033237E+03  0.00000000000E+00 0.  1.
         21    1    1    2  503  501 -0.14920706530E+02 -0.14471080750E+02 -0.48024012002E+02  0.52329202079E+02  0.00000000000E+00 0.  1.
</event>
<event>
 4    1  0.2285999E+005  0.2860159E+02  0.7546771E-02  0.1432151E+00
          2   -1    0    0  502    0  0.00000000000E+00  0.00000000000E+00  0.11140557305E+04  0.11140557305E+04  0.00000000000E+00 0.  1.
         21   -1    0    0  503  502 -0.00000000000E+00 -0.00000000000E+00 -0.21279708463E+01  0.21279708463E+01  0.00000000000E+00 0.  1.
          2    1    1    2  501    0  0.24921579587E+02 -0.14034460665E+02  0.10076148410E+04  0.10080206938E+04  0.00000000000E+00 0.  1.
         21    1    1    2  503  501 -0.24921579587E+02  0.14034460665E+02  0.10431291866E+03  0.10816300760E+03  0.00000000000E+00 0.  1.
</event>
<event>
 4    1  0.2285999E+005  0.2991359E+02  0.7546771E-02  0.1420349E+00
          2   -1    0    0  502    0  0.00000000000E+00  0.00000000000E+00  0.52338470534E+03  0.52338470534E+03  0.00000000000E+00 0. -1.
         21   -1    0    0  503  502 -0.00000000000E+00 -0.00000000000E+00 -0.12027135835E+03  0.12027135835E+03  0.00000000000E+00 0.  1.
          2    1    1    2  501    0 -0.63764367311E+01 -0.29226081710E+02  0.52108908871E+03  0.52194699076E+03  0.00000000000E+00 0. -1.
         21    1    1    2  503  501  0.63764367311E+01  0.29226081710E+02 -0.11797574172E+03  0.12170907293E+03  0.00000000000E+00 0.  1.
</event>
<event>
 4    1  0.2285999E+005  0.2231438E+02  0.7546771E-02  0.1501292E+00
          2   -1    0    0  503    0  0.00000000000E+00  0.00000000000E+00  0.41247282900E+02  0.41247282900E+02  0.00000000000E+00 0. -1.
         21   -1    0    0  501  502 -0.00000000000E+00 -0.00000000000E+00 -0.13241275788E+02  0.13241275788E+02  0.00000000000E+00 0. -1.
          2    1    1    2  501    0  0.20588414316E+02 -0.86051482893E+01  0.59065453022E+01  0.23082865041E+02  0.00000000000E+00 0. -1.
         21    1    1    2  503  502 -0.20588414316E+02  0.86051482893E+01  0.22099461810E+02  0.31405693647E+02  0.00000000000E+00 0. -1.
</event>
<event>
 4    1  0.2285999E+005  0.3627780E+02  0.7546771E-02  0.1371796E+00
          2   -1    0    0  503    0  0.00000000000E+00  0.00000000000E+00  0.10095167842E+03  0.10095167842E+03  0.00000000000E+00 0. -1.
         21   -1    0    0  501  502 -0.00000000000E+00 -0.00000000000E+00 -0.29519309422E+02  0.29519309422E+02  0.00000000000E+00 0. -1.
          2    1    1    2  501    0 -0.36376353170E+01  0.36094967920E+02  0.84462695282E+02  0.91924022943E+02  0.00000000000E+00 0. -1.
         21    1    1    2  503  502  0.36376353170E+01 -0.36094967920E+02 -0.13030326283E+02  0.38546964899E+02  0.00000000000E+00 0. -1.
</event>
<event>
 4    1  0.2285999E+005  0.2736093E+02  0.7546771E-02  0.1444016E+00
          2   -1    0    0  502    0  0.00000000000E+00  0.00000000000E+00  0.46524722717E+03  0.46524722717E+03  0.00000000000E+00 0. -1.
         21   -1    0    0  503  502 -0.00000000000E+00 -0.00000000000E+00 -0.17895059738E+02  0.17895059738E+02  0.00000000000E+00 0.  1.
          2    1    1    2  501    0  0.25821162103E+02 -0.90492119754E+01  0.45413069653E+03  0.45495418470E+03  0.00000000000E+00 0. -1.
         21    1    1    2  503  501 -0.25821162103E+02  0.90492119754E+01 -0.67785290883E+01  0.28188102212E+02  0.00000000000E+00 0.  1.
</event>
<event>
 4    1  0.2285999E+005  0.3776464E+02  0.7546771E-02  0.1362107E+00
          2   -1    0    0  503    0  0.00000000000E+00  0.00000000000E+00  0.56462819877E+01  0.56462819877E+01  0.00000000000E+00 0.  1.
         21   -1    0    0  501  502 -0.00000000000E+00 -0.00000000000E+00 -0.43835523379E+03  0.43835523379E+03  0.00000000000E+00 0. -1.
          2    1    1    2  501    0 -0.37645226113E+02  0.30008801956E+01 -0.71834137984E+02  0.81156094725E+02  0.00000000000E+00 0.  1.
         21    1    1    2  503  502  0.37645226113E+02 -0.30008801956E+01 -0.36087481382E+03  0.36284542105E+03  0.00000000000E+00 0. -1.
</event>
<event>
 4    1  0.2285999E+005  0.2107185E+02  0.7546771E-02  0.1518241E+00
          2   -1    0    0  503    0  0.00000000000E+00  0.00000000000E+00  0.86244420422E+03  0.86244420422E+03  0.00000000000E+00 0. -1.
         21   -1    0    0  501  502 -0.00000000000E+00 -0.00000000000E+00 -0.89003348355E+00  0.89003348355E+00  0.00000000000E+00 0. -1.
          2    1    1    2  501    0 -0.18871575963E+02 -0.93747892730E+01  0.71104404993E+03  0.71135621457E+03  0.00000000000E+00 0. -1.
         21    1    1    2  503  502  0.18871575963E+02  0.93747892730E+01  0.15051012081E+03  0.15197802314E+03  0.00000000000E+00 0. -1.
</event>
<event>
 4    1  0.2285999E+005  0.2701109E+02  0.7546771E-02  0.1447497E+00
          2   -1    0    0  503    0  0.00000000000E+00  0.00000000000E+00  0.30583779333E+03  0.30583779333E+03  0.00000000000E+00 0. -1.
         21   -1    0    0  501  502 -0.00000000000E+00 -0.00000000000E+00 -0.42011801787E+01  0.42011801787E+01  0.00000000000E+00 0. -1.
          2    1    1    2  501    0  0.24043213306E+02  0.12309456901E+02  0.25272704122E+03  0.25416639471E+03  0.00000000000E+00 0. -1.
         21    1    1    2  503  502 -0.24043213306E+02 -0.12309456901E+02  0.48909571930E+02  0.55872578799E+02  0.00000000000E+00 0. -1.
</event>
<event>
 4    1  0.2285999E+005  0.4276856E+02  0.7546771E-02  0.1332984E+00
          2   -1    0    0  503    0  0.00000000000E+00  0.00000000000E+00  0.48138378690E+03  0.48138378690E+03  0.00000000000E+00 0. -1.
         21   -1    0    0  501  502 -0.00000000000E+00 -0.00000000000E+00 -0.45559685292E+01  0.45559685292E+01  0.00000000000E+00 0. -1.
          2    1    1    2  501    0 -0.33065752788E+02 -0.27125732204E+02  0.33740109728E+03  0.34010094061E+03  0.00000000000E+00 0. -1.
         21    1    1    2  503  502  0.33065752788E+02  0.27125732204E+02  0.13942672109E+03  0.14583881482E+03  0.00000000000E+00 0. -1.
</event>
<event>
 4    1  0.2285999E+005  0.4806860E+02  0.7546771E-02  0.1306771E+00
          2   -1    0    0  502    0  0.00000000000E+00  0.00000000000E+00  0.15193943569E+04  0.15193943569E+04  0.00000000000E+00 0. -1.
         21   -1    0    0  503  502 -0.00000000000E+00 -0.00000000000E+00 -0.30552906555E+02  0.30552906555E+02  0.00000000000E+00 0.  1.
          2    1    1    2  501    0 -0.19849038025E+02  0.43779057508E+02  0.14998615491E+04  0.15006316193E+04  0.00000000000E+00 0. -1.
         21    1    1    2  503  501  0.19849038025E+02 -0.43779057508E+02 -0.11020098766E+02  0.49315644208E+02  0.00000000000E+00 0.  1.
</event>
<event>
 4    1  0.2285999E+005  0.3163723E+02  0.7546771E-02  0.1405883E+00
          2   -1    0    0  502    0  0.00000000000E+00  0.00000000000E+00  0.14633134313E+04  0.14633134313E+04  0.00000000000E+00 0.  1.
         21   -1    0    0  503  502 -0.00000000000E+00 -0.00000000000E+00 -0.82464905248E+00  0.82464905248E+00  0.00000000000E+00 0. -1.
          2    1    1    2  501    0 -0.31070546171E+02 -0.59611461499E+01  0.10335719400E+04  0.10340560281E+04  0.00000000000E+00 0.  1.
         21    1    1    2  503  501  0.31070546171E+02  0.59611461499E+01  0.42891684227E+03  0.43008205227E+03  0.00000000000E+00 0. -1.
</event>
<event>
 4    1  0.2285999E+005  0.2572186E+02  0.7546771E-02  0.1460888E+00
          2   -1    0    0  503    0  0.00000000000E+00  0.00000000000E+00  0.38964382394E+02  0.38964382394E+02  0.00000000000E+00 0.  1.
         21   -1    0    0  501  502 -0.00000000000E+00 -0.00000000000E+00 -0.95700713378E+02  0.95700713378E+02  0.00000000000E+00 0.  1.
          2    1    1    2  501    0 -0.35224635213E+01 -0.25479529142E+02  0.32699602440E+02  0.41603823794E+02  0.00000000000E+00 0.  1.
         21    1    1    2  503  502  0.35224635213E+01  0.25479529142E+02 -0.89435933425E+02  0.93061271978E+02  0.00000000000E+00 0.  1.
</event>
<event>
 4    1  0.2285999E+005  0.2840173E+02  0.7546771E-02  0.1434014E+00
          2   -1    0    0  502    0  0.00000000000E+00  0.00000000000E+00  0.11220773497E+03  0.11220773497E+03  0.00000000000E+00 0.  1.
         21   -1    0    0  503  502 -0.00000000000E+00 -0.00000000000E+00 -0.70802107013E+02  0.70802107013E+02  0.00000000000E+00 0. -1.
          2    1    1    2  501    0  0.50871090532E+01  0.27942433837E+02  0.10743788896E+03  0.11112856640E+03  0.00000000000E+00 0.  1.
         21    1    1    2  503  501 -0.50871090532E+01 -0.27942433837E+02 -0.66032260996E+02  0.71881275584E+02  0.00000000000E+00 0. -1.
</event>
<event>
 4    1  0.2285999E+005  0.2117685E+02  0.7546771E-02  0.1516755E+00
          2   -1    0    0  502    0  0.00000000000E+00  0.00000000000E+00  0.56469281978E+03  0.56469281978E+03  0.00000000000E+00 0.  1.
         21   -1    0    0  503  502 -0.00000000000E+00 -0.00000000000E+00 -0.91962820747E+00  0.91962820747E+00  0.00000000000E+00 0. -1.
          2    1    1    2  501    0 -0.45865750006E+01  0.20674191289E+02  0.38634473712E+03  0.38692468874E+03  0.00000000000E+00 0.  1.
         21    1    1    2  503  501  0.45865750006E+01 -0.20674191289E+02  0.17742845445E+03  0.17868775924E+03  0.00000000000E+00 0. -1.
</event>
<event>
 4    1  0.2285999E+005  0.3032322E+02  0.7546771E-02  0.1416808E+00
          2   -1    0    0  503    0  0.00000000000E+00  0.00000000000E+00  0.27878111520E+02  0.27878111520E+02  0.00000000000E+00 0.  1.
         21   -1    0    0  501  502 -0.00000000000E+00 -0.00000000000E+00 -0.36079811030E+02  0.36079811030E+02  0.00000000000E+00 0. -1.
          2    1    1    2  501    0  0.96259571233E+01  0.28754798429E+02  0.52684114329E+01  0.30777485964E+02  0.00000000000E+00 0.  1.
         21    1    1    2  503  502 -0.96259571233E+01 -0.28754798429E+02 -0.13470110942E+02  0.33180436586E+02  0.00000000000E+00 0. -1.
</event>
<event>
 4    1  0.2285999E+005  0.3065815E+02  0.7546771E-02  0.1413962E+00
          2   -1    0    0  502    0  0.00000000000E+00  0.00000000000E+00  0.16993991230E+03  0.16993991230E+03  0.00000000000E+00 0. -1.
         21   -1    0    0  503  502 -0.00000000000E+00 -0.00000000000E+00 -0.17563361434E+02  0.17563361434E+02  0.00000000000E+00 0.  1.
          2    1    1    2  501    0 -0.22834636079E+02 -0.20457307285E+02  0.15378656238E+03  0.15681271886E+03  0.00000000000E+00 0. -1.
         21    1    1    2  503  501  0.22834636079E+02  0.20457307285E+02 -0.14100115159E+01  0.30690554877E+02  0.00000000000E+00 0.  1.
</event>
<event>
 4    1  0.2285999E+005  0.2033618E+02  0.7546771E-02  0.1528957E+00
          2   -1    0    0  503    0  0.00000000000E+00  0.00000000000E+00  0.16289985333E+03  0.16289985333E+03  0.00000000000E+00 0.  1.
         21   -1    0    0  501  502 -0.00000000000E+00 -0.00000000000E+00 -0.10803099164E+02  0.10803099164E+02  0.00000000000E+00 0. -1.
          2    1    1    2  501    0 -0.19187167836E+02 -0.67388964371E+01  0.15201234707E+03  0.15336659935E+03  0.00000000000E+00 0.  1.
         21    1    1    2  503  502  0.19187167836E+02  0.67388964371E+01  0.84407100051E-01  0.20336353147E+02  0.00000000000E+00 0. -1.
</event>
<event>
 4    1  0.2285999E+005  0.3911807E+02  0.7546771E-02  0.1353733E+00
          2   -1    0    0  502    0  0.00000000000E+00  0.00000000000E+00  0.16565831886E+04  0.16565831886E+04  0.00000000000E+00 0.  1.
         21   -1    0    0  503  502 -0.00000000000E+00 -0.00000000000E+00 -0.17029826012E+02  0.17029826012E+02  0.00000000000E+00 0.  1.
          2    1    1    2  501    0 -0.12036540935E+02  0.37220219886E+02  0.16335719993E+04  0.16340402993E+04  0.00000000000E+00 0.  1.
         21    1    1    2  503  501  0.12036540935E+02 -0.37220219886E+02  0.59813633122E+01  0.39572715261E+02  0.00000000000E+00 0.  1.
</event>
<event>
 4    1  0.2285999E+005  0.2201525E+02  0.7546771E-02  0.1505248E+00
          2   -1    0    0  502    0  0.00000000000E+00  0.00000000000E+00  0.16791675625E+04  0.16791675625E+04  0.00000000000E+00 0.  1.
         21   -1    0    0  503  502 -0.00000000000E+00 -0.00000000000E+00 -0.57862841216E+00  0.57862841216E+00  0.00000000000E+00 0. -1.
          2    1    1    2  501    0  0.21628129164E+00 -0.22014190898E+02  0.14338681677E+04  0.14340371661E+04  0.00000000000E+00 0.  1.
         21    1    1    2  503  501 -0.21628129164E+00  0.22014190898E+02  0.24472076636E+03  0.24570902480E+03  0.00000000000E+00 0. -1.
</event>
<event>
 4    1  0.2285999E+005  0.4252715E+02  0.7546771E-02  0.1334281E+00
          2   -1    0    0  503    0  0.00000000000E+00  0.00000000000E+00  0.38582560930E+03  0.38582560930E+03  0.00000000000E+00 0.  1.
         21   -1    0    0  501  502 -0.00000000000E+00 -0.00000000000E+00 -0.19986826648E+02  0.19986826648E+02  0.00000000000E+00 0.  1.
          2    1    1    2  501    0 -0.81916189477E+01 -0.41730758840E+02  0.36044440039E+03  0.36294452004E+03  0.00000000000E+00 0.  1.
         21    1    1    2  503  502  0.81916189477E+01  0.41730758840E+02  0.53943822620E+01  0.42867915908E+02  0.00000000000E+00 0.  1.
</event>
<event>
 4    1  0.2285999E+005  0.2825051E+02  0.7546771E-02  0.1435435E+00
          2   -1    0    0  503    0  0.00000000000E+00  0.00000000000E+00  0.13645031242E+04  0.13645031242E+04  0.00000000000E+00 0. -1.
         21   -1    0    0  501  502 -0.00000000000E+00 -0.00000000000E+00 -0.40891629155E+01  0.40891629155E+01  0.00000000000E+00 0.  1.
          2    1    1    2  501    0 -0.25672287365E+02 -0.11790878851E+02  0.13136762217E+04  0.13139799491E+04  0.00000000000E+00 0. -1.
         21    1    1    2  503  502  0.25672287365E+02  0.11790878851E+02  0.46737739584E+02  0.54612338021E+02  0.00000000000E+00 0.  1.
</event>
<event>
 4    1  0.2285999E+005  0.2549331E+02  0.7546771E-02  0.1463360E+00
          2   -1    0    0  502    0  0.00000000000E+00  0.00000000000E+00  0.53080980699E+03  0.53080980699E+03  0.00000000000E+00 0.  1.
         21   -1    0    0  503  502 -0.00000000000E+00 -0.00000000000E+00 -0.30832300563E+01  0.30832300563E+01  0.00000000000E+00 0.  1.
          2    1    1    2  501    0  0.18828491314E+02  0.17187105089E+02  0.47113708842E+03  0.47182630782E+03  0.00000000000E+00 0.  1.
         21    1    1    2  503  501 -0.18828491314E+02 -0.17187105089E+02  0.56589488509E+02  0.62066729222E+02  0.00000000000E+00 0.  1.
</event>
<event>
 4    1  0.2285999E+005  0.3098364E+02  0.7546771E-02  0.1411237E+00
          2   -1    0    0  503    0  0.00000000000E+00  0.00000000000E+00  0.73759398779E+01  0.73759398779E+01  0.00000000000E+00 0.  1.
         21   -1    0    0  501  502 -0.00000000000E+00 -0.00000000000E+00 -0.16720567844E+03  0.16720567844E+03  0.00000000000E+00 0. -1.
          2    1    1    2  501    0 -0.87323606998E+01  0.29727626696E+02 -0.38822180097E+02  0.49670389366E+02  0.00000000000E+00 0.  1.
         21    1    1    2  503  502  0.87323606998E+01 -0.29727626696E+02 -0.12100755847E+03  0.12491122895E+03  0.00000000000E+00 0. -1.
</event>
<event>
 4    1  0.2285999E+005  0.2051411E+02  0.7546771E-02  0.1526316E+00
          2   -1    0    0  502    0  0.00000000000E+00  0.00000000000E+00  0.90608336202E+03  0.90608336202E+03  0.00000000000E+00 0.  1.
         21   -1    0    0  503  502 -0.00000000000E+00 -0.00000000000E+00 -0.10055937434E+01  0.10055937434E+01  0.00000000000E+00 0. -1.
          2    1    1    2  501    0 -0.16242909099E+02  0.12529834418E+02  0.78524870371E+03  0.78551661696E+03  0.00000000000E+00 0.  1.
         21    1    1    2  503  501  0.16242909099E+02 -0.12529834418E+02  0.11982906457E+03  0.12157233880E+03  0.00000000000E+00 0. -1.
</event>
<event>
 4    1  0.2285999E+005  0.2109394E+02  0.7546771E-02  0.1517928E+00
          2   -1    0    0  503    0  0.00000000000E+00  0.00000000000E+00  0.81794306517E+01  0.81794306517E+01  0.00000000000E+00 0. -1.
         21   -1    0    0  501  502 -0.00000000000E+00 -0.00000000000E+00 -0.67717220910E+02  0.67717220910E+02  0.00000000000E+00 0. -1.
          2    1    1    2  501    0 -0.21073589333E+02  0.92638684147E+00 -0.46598082676E+02  0.51150128729E+02  0.00000000000E+00 0. -1.
         21    1    1    2  503  502  0.21073589333E+02 -0.92638684147E+00 -0.12939707582E+02  0.24746522832E+02  0.00000000000E+00 0. -1.
</event>
<event>
 4    1  0.2285999E+005  0.2204678E+02  0.7546771E-02  0.1504828E+00
          2   -1    0    0  502    0  0.00000000000E+00  0.00000000000E+00  0.17235684763E+02  0.17235684763E+02  0.00000000000E+00 0. -1.
         21   -1    0    0  503  502 -0.00000000000E+00 -0.00000000000E+00 -0.47511936967E+03  0.47511936967E+03  0.00000000000E+00 0. -1.
          2    1    1    2  501    0 -0.12129810616E+02 -0.18409997152E+02  0.98179712484E+01  0.24134060167E+02  0.00000000000E+00 0. -1.
         21    1    1    2  503  501  0.12129810616E+02  0.18409997152E+02 -0.46770165615E+03  0.46822099426E+03  0.00000000000E+00 0. -1.
</event>
<event>
 4    1  0.2285999E+005  0.2927369E+02  0.7546771E-02  0.1426015E+00
          2   -1    0    0  502    0  0.00000000000E+00  0.00000000000E+00  0.57656997844E+03  0.57656997844E+03  0.00000000000E+00 0. -1.
         21   -1    0    0  503  502 -0.00000000000E+00 -0.00000000000E+00 -0.77817830315E+01  0.77817830315E+01  0.00000000000E+00 0.  1.
          2    1    1    2  501    0  0.19373952712E+02  0.21945358319E+02  0.54719070873E+03  0.54797319325E+03  0.00000000000E+00 0. -1.
         21    1    1    2  503  501 -0.19373952712E+02 -0.21945358319E+02  0.21597486683E+02  0.36378568231E+02  0.00000000000E+00 0.  1.
</event>
<event>
 4    1  0.2285999E+005  0.2011051E+02  0.7546771E-02  0.1532353E+00
          2   -1    0    0  503    0  0.00000000000E+00  0.00000000000E+00  0.60812173768E+03  0.60812173768E+03  0.00000000000E+00 0. -1.
         21   -1    0    0  501  502 -0.00000000000E+00 -0.00000000000E+00 -0.79424422817E+00  0.79424422817E+00  0.00000000000E+00 0. -1.
          2    1    1    2  501    0  0.14305249421E+02  0.14134801486E+02  0.18087233410E+03  0.18198690617E+03  0.00000000000E+00 0. -1.
         21    1    1    2  503  502 -0.14305249421E+02 -0.14134801486E+02  0.42645515936E+03  0.42692907574E+03  0.00000000000E+00 0. -1.
</event>
<event>
 4    1  0.2285999E+005  0.2017776E+02  0.7546771E-02  0.1531336E+00
          2   -1    0    0  502    0  0.00000000000E+00  0.00000000000E+00  0.21616531487E+02  0.21616531487E+02  0.00000000000E+00 0.  1.
         21   -1    0    0  503  502 -0.00000000000E+00 -0.00000000000E+00 -0.68531773016E+03  0.68531773016E+03  0.00000000000E+00 0.  1.
          2    1    1    2  501    0 -0.10296462833E+02  0.17352946313E+02  0.16725482214E+02  0.26208465195E+02  0.00000000000E+00 0.  1.
         21    1    1    2  503  501  0.10296462833E+02 -0.17352946313E+02 -0.68042668088E+03  0.68072579645E+03  0.00000000000E+00 0.  1.
</event>
<event>
 4    1  0.2285999E+005  0.2139054E+02  0.7546771E-02  0.1513761E+00
          2   -1    0    0  502    0  0.00000000000E+00  0.00000000000E+00  0.79467712360E+01  0.79467712360E+01  0.00000000000E+00 0. -1.
         21   -1    0    0  503  502 -0.00000000000E+00 -0.00000000000E+00 -0.26144670802E+03  0.26144670802E+03  0.00000000000E+00 0.  1.
          2    1    1    2  501    0  0.17448626689E+02  0.12373390295E+02 -0.78063095199E+01  0.22770459570E+02  0.00000000000E+00 0. -1.
         21    1    1    2  503  501 -0.17448626689E+02 -0.12373390295E+02 -0.24569362727E+03  0.24662301969E+03  0.00000000000E+00 0.  1.
</event>
<event>
 4    1  0.2285999E+005  0.4873711E+02  0.7546771E-02  0.1303743E+00
          2   -1    0    0  503    0  0.00000000000E+00  0.00000000000E+00  0.35774381130E+04  0.35774381130E+04  0.00000000000E+00 0.  1.
         21   -1    0    0  501  502 -0.00000000000E+00 -0.00000000000E+00 -0.16255704406E+01  0.16255704406E+01  0.00000000000E+00 0. -1.
          2    1    1    2  501    0  0.46151588920E+02 -0.15663232387E+02  0.31642731477E+04  0.31646484575E+04  0.00000000000E+00 0.  1.
         21    1    1    2  503  502 -0.46151588920E+02  0.15663232387E+02  0.41153939487E+03  0.41441522599E+03  0.00000000000E+00 0. -1.
</event>
<event>
 4    1  0.2285999E+005  0.2484319E+02  0.7546771E-02  0.1470565E+00
          2   -1    0    0  503    0  0.00000000000E+00  0.00000000000E+00  0.64960905487E+03  0.64960905487E+03  0.00000000000E+00 0. -1.
         21   -1    0    0  501  502 -0.00000000000E+00 -0.00000000000E+00 -0.79559475818E+02  0.79559475818E+02  0.00000000000E+00 0. -1.
          2    1    1    2  501    0  0.21335909261E+02 -0.12726479672E+02  0.64742561502E+03  0.64790208465E+03  0.00000000000E+00 0. -1.
         21    1    1    2  503  502 -0.21335909261E+02  0.12726479672E+02 -0.77376035970E+02  0.81266446036E+02  0.00000000000E+00 0. -1.
</event>
<event>
 4    1  0.2285999E+005  0.2669381E+02  0.7546771E-02  0.1450708E+00
          2   -1    0    0  502    0  0.00000000000E+00  0.00000000000E+00  0.10751415208E+04  0.10751415208E+04  0.00000000000E+00 0.  1.
         21   -1    0    0  503  502 -0.00000000000E+00 -0.00000000000E+00 -0.13123698487E+01  0.13123698487E+01  0.00000000000E+00 0.  1.
          2    1    1    2  501    0  0.18343803085E+02 -0.19392376633E+02  0.91558732506E+03  0.91597636934E+03  0.00000000000E+00 0.  1.
         21    1    1    2  503  501 -0.18343803085E+02  0.19392376633E+02  0.15824182586E+03  0.16047752127E+03  0.00000000000E+00 0.  1.
</event>
<event>
 4    1  0.2285999E+005  0.2235531E+02  0.7546771E-02  0.1500756E+00
          2   -1    0    0  502    0  0.00000000000E+00  0.00000000000E+00  0.33219146327E+03  0.33219146327E+03  0.00000000000E+00 0.  1.
         21   -1    0    0  503  502 -0.00000000000E+00 -0.00000000000E+00 -0.41428955606E+01  0.41428955606E+01  0.00000000000E+00 0. -1.
          2    1    1    2  501    0 -0.78706041082E+01 -0.20923989588E+02  0.29822805752E+03  0.29906476563E+03  0.00000000000E+00 0.  1.
         21    1    1    2  503  501  0.78706041082E+01  0.20923989588E+02  0.29820510185E+02  0.37269593196E+02  0.00000000000E+00 0. -1.
</event>
<event>
 4    1  0.2285999E+005  0.2236361E+02  0.7546771E-02  0.1500648E+00
          2   -1    0    0  502    0  0.00000000000E+00  0.00000000000E+00  0.19444446141E+03  0.19444446141E+03  0.00000000000E+00 0. -1.
         21   -1    0    0  503  502 -0.00000000000E+00 -0.00000000000E+00 -0.43890722742E+01  0.43890722742E+01  0.00000000000E+00 0. -1.
          2    1    1    2  501    0  0.85434736339E+01  0.20667368271E+02  0.15899339212E+03  0.16055849337E+03  0.00000000000E+00 0. -1.
         21    1    1    2  503  501 -0.85434736339E+01 -0.20667368271E+02  0.31061997013E+02  0.38275040319E+02  0.00000000000E+00 0. -1.
</event>
<event>
 4    1  0.2285999E+005  0.3105677E+02  0.7546771E-02  0.1410630E+00
          2   -1    0    0  503    0  0.00000000000E+00  0.00000000000E+00  0.22863619226E+04  0.22863619226E+04  0.00000000000E+00 0.  1.
         21   -1    0    0  501  502 -0.00000000000E+00 -0.00000000000E+00 -0.42382667766E+00  0.42382667766E+00  0.00000000000E+00 0.  1.
          2    1    1    2  501    0 -0.29695990908E+02 -0.90923480655E+01  0.12208736489E+04  0.12212685984E+04  0.00000000000E+00 0.  1.
         21    1    1    2  503  502  0.29695990908E+02  0.90923480655E+01  0.10650644470E+04  0.10655171509E+04  0.00000000000E+00 0.  1.
</event>
<event>
 4    1  0.2285999E+005  0.2916425E+02  0.7546771E-02  0.1427001E+00
          2   -1    0    0  503    0  0.00000000000E+00  0.00000000000E+00  0.10710352222E+04  0.10710352222E+04  0.00000000000E+00 0.  1.
         21   -1    0    0  501  502 -0.00000000000E+00 -0.00000000000E+00 -0.86101146167E+00  0.86101146167E+00  0.00000000000E+00 0.  1.
          2    1    1    2  501    0 -0.29092739667E+02 -0.20410178842E+01  0.68444721233E+03  0.68506827376E+03  0.00000000000E+00 0.  1.
         21    1    1    2  503  502  0.29092739667E+02  0.20410178842E+01  0.38572699836E+03  0.38682795985E+03  0.00000000000E+00 0.  1.
</event>
<event>
 4    1  0.2285999E+005  0.2191142E+02  0.7546771E-02  0.1506639E+00
          2   -1    0    0  502    0  0.00000000000E+00  0.00000000000E+00  0.65586969203E+03  0.65586969203E+03  0.00000000000E+00 0.  1.
         21   -1    0    0  503  502 -0.00000000000E+00 -0.00000000000E+00 -0.79072829864E+00  0.79072829864E+00  0.00000000000E+00 0.  1.
          2    1    1    2  501    0 -0.10287551008E+02  0.19346233540E+02  0.41700235819E+03  0.41757763014E+03  0.00000000000E+00 0.  1.
         21    1    1    2  503  501  0.10287551008E+02 -0.19346233540E+02  0.23807660554E+03  0.23908279019E+03  0.00000000000E+00 0.  1.
</event>
<event>
 4    1  0.2285999E+005  0.2812064E+02  0.7546771E-02  0.1436665E+00
          2   -1    0    0  503    0  0.00000000000E+00  0.00000000000E+00  0.18326472451E+04  0.18326472451E+04  0.00000000000E+00 0. -1.
         21   -1    0    0  501  502 -0.00000000000E+00 -0.00000000000E+00 -0.48194310640E+00  0.48194310640E+00  0.00000000000E+00 0. -1.
          2    1    1    2  501    0 -0.23697859362E+02  0.15138752228E+02  0.61952723232E+03  0.62016510862E+03  0.00000000000E+00 0. -1.
         21    1    1    2  503  502  0.23697859362E+02 -0.15138752228E+02  0.12126380697E+04  0.12129640796E+04  0.00000000000E+00 0. -1.
</event>
<event>
 4    1  0.2285999E+005  0.2310305E+02  0.7546771E-02  0.1491208E+00
          2   -1    0    0  503    0  0.00000000000E+00  0.00000000000E+00  0.56548629453E+02  0.56548629453E+02  0.00000000000E+00 0.  1.
         21   -1    0    0  501  502 -0.00000000000E+00 -0.00000000000E+00 -0.94435586132E+01  0.94435586132E+01  0.00000000000E+00 0.  1.
          2    1    1    2  501    0  0.22429508368E+02 -0.55378575171E+01  0.22811171069E+02  0.32466909879E+02  0.00000000000E+00 0.  1.
         21    1    1    2  503  502 -0.22429508368E+02  0.55378575171E+01  0.24293899771E+02  0.33525278188E+02  0.00000000000E+00 0.  1.
</event>
<event>
 4    1  0.2285999E+005  0.7090173E+02  0.7546771E-02  0.1226707E+00
          2   -1    0    0  503    0  0.00000000000E+00  0.00000000000E+00  0.53713647740E+03  0.53713647740E+03  0.00000000000E+00 0.  1.
         21   -1    0    0  501  502 -0.00000000000E+00 -0.00000000000E+00 -0.61552475527E+02  0.61552475527E+02  0.00000000000E+00 0.  1.
          2    1    1    2  501    0 -0.29422825662E+02 -0.64508549855E+02  0.51344113417E+03  0.51831347072E+03  0.00000000000E+00 0.  1.
         21    1    1    2  503  502  0.29422825662E+02  0.64508549855E+02 -0.37857132295E+02  0.80375482207E+02  0.00000000000E+00 0.  1.
</event>
<event>
 4    1  0.2285999E+005  0.2028735E+02  0.7546771E-02  0.1529688E+00
          2   -1    0    0  503    0  0.00000000000E+00  0.00000000000E+00  0.68210334237E+01  0.68210334237E+01  0.00000000000E+00 0.  1.
         21   -1    0    0  501  502 -0.00000000000E+00 -0.00000000000E+00 -0.64459122489E+02  0.64459122489E+02  0.00000000000E+00 0.  1.
          2    1    1    2  501    0 -0.34480683805E+01 -0.19992179322E+02 -0.19808822567E+02  0.28354291758E+02  0.00000000000E+00 0.  1.
         21    1    1    2  503  502  0.34480683805E+01  0.19992179322E+02 -0.37829266499E+02  0.42925864155E+02  0.00000000000E+00 0.  1.
</event>
<event>
 4    1  0.2285999E+005  0.3553846E+02  0.7546771E-02  0.1376817E+00
          2   -1    0    0  502    0  0.00000000000E+00  0.00000000000E+00  0.65557938992E+03  0.65557938992E+03  0.00000000000E+00 0.  1.
         21   -1    0    0  503  502 -0.00000000000E+00 -0.00000000000E+00 -0.39855467327E+01  0.39855467327E+01  0.00000000000E+00 0.  1.
          2    1    1    2  501    0 -0.25682891976E+02 -0.24563611214E+02  0.56283350973E+03  0.56395437902E+03  0.00000000000E+00 0.  1.
         21    1    1    2  503  501  0.25682891976E+02  0.24563611214E+02  0.88760333452E+02  0.95610557631E+02  0.00000000000E+00 0.  1.
</event>
<event>
 4    1  0.2285999E+005  0.2616697E+02  0.7546771E-02  0.1456160E+00
          2   -1    0    0  502    0  0.00000000000E+00  0.00000000000E+00  0.13068168170E+04  0.13068168170E+04  0.00000000000E+00 0. -1.
         21   -1    0    0  503  502 -0.00000000000E+00 -0.00000000000E+00 -0.72644683545E+00  0.72644683545E+00  0.00000000000E+00 0. -1.
          2    1    1    2  501    0 -0.24342451973E+02  0.95997508214E+01  0.99821307830E+03  0.99855598735E+03  0.00000000000E+00 0. -1.
         21    1    1    2  503  501  0.24342451973E+02 -0.95997508214E+01  0.30787729186E+03  0.30898727649E+03  0.00000000000E+00 0. -1.
</event>
<event>
 4    1  0.2285999E+005  0.2578973E+02  0.7546771E-02  0.1460159E+00
          2   -1    0    0  502    0  0.00000000000E+00  0.00000000000E+00  0.29816006814E+03  0.29816006814E+03  0.00000000000E+00 0.  1.
         21   -1    0    0  503  502 -0.00000000000E+00 -0.00000000000E+00 -0.73195438872E+01  0.73195438872E+01  0.00000000000E+00 0.  1.
          2    1    1    2  501    0 -0.25782140440E+02 -0.62547498605E+00  0.27277619191E+03  0.27399262920E+03  0.00000000000E+00 0.  1.
         21    1    1    2  503  501  0.25782140440E+02  0.62547498605E+00  0.18064332352E+02  0.31486982834E+02  0.00000000000E+00 0.  1.
</event>
<event>
 4    1  0.2285999E+005  0.2025986E+02  0.7546771E-02  0.1530100E+00
          2   -1    0    0  503    0  0.00000000000E+00  0.00000000000E+00  0.33566969486E+02  0.33566969486E+02  0.00000000000E+00 0.  1.
         21   -1    0    0  501  502 -0.00000000000E+00 -0.00000000000E+00 -0.18367155541E+02  0.18367155541E+02  0.00000000000E+00 0.  1.
          2    1    1    2  501    0 -0.13444936296E+02  0.15155707016E+02  0.22612339352E+02  0.30360824398E+02  0.00000000000E+00 0.  1.
         21    1    1    2  503  502  0.13444936296E+02 -0.15155707016E+02 -0.74125254071E+01  0.21573300630E+02  0.00000000000E+00 0.  1.
</event>
<event>
 4    1  0.2285999E+005  0.2269558E+02  0.7546771E-02  0.1496357E+00
          2   -1    0    0  502    0  0.00000000000E+00  0.00000000000E+00  0.37807865283E+03  0.37807865283E+03  0.00000000000E+00 0. -1.
         21   -1    0    0  503  502 -0.00000000000E+00 -0.00000000000E+00 -0.22299564862E+03  0.22299564862E+03  0.00000000000E+00 0.  1.
          2    1    1    2  501    0 -0.14175046793E+02  0.17724479765E+02  0.37715918431E+03  0.37784142103E+03  0.00000000000E+00 0. -1.
         21    1    1    2  503  501  0.14175046793E+02 -0.17724479765E+02 -0.22207618010E+03  0.22323288042E+03  0.00000000000E+00 0.  1.
</event>
<event>
 4    1  0.2285999E+005  0.4708298E+02  0.7546771E-02  0.1311340E+00
          2   -1    0    0  503    0  0.00000000000E+00  0.00000000000E+00  0.13148219762E+02  0.13148219762E+02  0.00000000000E+00 0.  1.
         21   -1    0    0  501  502 -0.00000000000E+00 -0.00000000000E+00 -0.25331183019E+03  0.25331183019E+03  0.00000000000E+00 0. -1.
          2    1    1    2  501    0  0.27048598970E+02  0.38538040059E+02 -0.43037061339E+02  0.63788681492E+02  0.00000000000E+00 0.  1.
         21    1    1    2  503  502 -0.27048598970E+02 -0.38538040059E+02 -0.19712654909E+03  0.20267136846E+03  0.00000000000E+00 0. -1.
</event>
<event>
 4    1  0.2285999E+005  0.2219208E+02  0.7546771E-02  0.1502900E+00
          2   -1    0    0  503    0  0.00000000000E+00  0.00000000000E+00  0.19580703571E+03  0.19580703571E+03  0.00000000000E+00 0.  1.
         21   -1    0    0  501  502 -0.00000000000E+00 -0.00000000000E+00 -0.42853535298E+02  0.42853535298E+02  0.00000000000E+00 0.  1.
          2    1    1    2  501    0 -0.99051356761E+01  0.19858924312E+02  0.19225220146E+03  0.19352880290E+03  0.00000000000E+00 0.  1.
         21    1    1    2  503  502  0.99051356761E+01 -0.19858924312E+02 -0.39298701050E+02  0.45131768100E+02  0.00000000000E+00 0.  1.
</event>
<event>
 4    1  0.2285999E+005  0.3902972E+02  0.7546771E-02  0.1354267E+00
          2   -1    0    0  503    0  0.00000000000E+00  0.00000000000E+00  0.29355299592E+04  0.29355299592E+04  0.00000000000E+00 0. -1.
         21   -1    0    0  501  502 -0.00000000000E+00 -0.00000000000E+00 -0.67767864004E+01  0.67767864004E+01  0.00000000000E+00 0. -1.
          2    1    1    2  501    0  0.35859520998E+02 -0.15408231116E+02  0.28780823731E+04  0.28783470022E+04  0.00000000000E+00 0. -1.
         21    1    1    2  503  502 -0.35859520998E+02  0.15408231116E+02  0.50670799740E+02  0.63959743422E+02  0.00000000000E+00 0. -1.
</event>
<event>
 4    1  0.2285999E+005  0.2529729E+02  0.7546771E-02  0.1465505E+00
          2   -1    0    0  503    0  0.00000000000E+00  0.00000000000E+00  0.47198359941E+03  0.47198359941E+03  0.00000000000E+00 0. -1.
         21   -1    0    0  501  502 -0.00000000000E+00 -0.00000000000E+00 -0.26433959930E+01  0.26433959930E+01  0.00000000000E+00 0. -1.
          2    1    1    2  501    0  0.12733400726E+02 -0.21858938468E+02  0.40029201573E+03  0.40109057648E+03  0.00000000000E+00 0. -1.
         21    1    1    2  503  502 -0.12733400726E+02  0.21858938468E+02  0.69048187693E+02  0.73536418928E+02  0.00000000000E+00 0. -1.
</event>
<event>
 4    1  0.2285999E+005  0.2045899E+02  0.7546771E-02  0.1527131E+00
          2   -1    0    0  503    0  0.00000000000E+00  0.00000000000E+00  0.43503574056E+03  0.43503574056E+03  0.00000000000E+00 0. -1.
         21   -1    0    0  501  502 -0.00000000000E+00 -0.00000000000E+00 -0.16907107657E+01  0.16907107657E+01  0.00000000000E+00 0. -1.
          2    1    1    2  501    0  0.18288452987E+02  0.91707654691E+01  0.36001574090E+03  0.36059659475E+03  0.00000000000E+00 0. -1.
         21    1    1    2  503  502 -0.18288452987E+02 -0.91707654691E+01  0.73329288894E+02  0.76129856572E+02  0.00000000000E+00 0. -1.
</event>
<event>
 4    1  0.2285999E+005  0.4467253E+02  0.7546771E-02  0.1323085E+00
          2   -1    0    0  503    0  0.00000000000E+00  0.00000000000E+00  0.20891564906E+02  0.20891564906E+02  0.00000000000E+00 0.  1.
         21   -1    0    0  501  502 -0.00000000000E+00 -0.00000000000E+00 -0.97152288779E+02  0.97152288779E+02  0.00000000000E+00 0. -1.
          2    1    1    2  501    0  0.44117247083E+02 -0.70216719109E+01 -0.30488143192E+02  0.54084769038E+02  0.00000000000E+00 0.  1.
         21    1    1    2  503  502 -0.44117247083E+02  0.70216719109E+01 -0.45772580680E+02  0.63959084646E+02  0.00000000000E+00 0. -1.
</event>
<event>
 4    1  0.2285999E+005  0.3238200E+02  0.7546771E-02  0.1399966E+00
          2   -1    0    0  503    0  0.00000000000E+00  0.00000000000E+00  0.50780113468E+02  0.50780113468E+02  0.00000000000E+00 0. -1.
         21   -1    0    0  501  502 -0.00000000000E+00 -0.00000000000E+00 -0.21580088280E+02  0.21580088280E+02  0.00000000000E+00 0. -1.
          2    1    1    2  501    0  0.18771844385E+02  0.26385831224E+02  0.70876815088E+01  0.33148596655E+02  0.00000000000E+00 0. -1.
         21    1    1    2  503  502 -0.18771844385E+02 -0.26385831224E+02  0.22112343679E+02  0.39211605094E+02  0.00000000000E+00 0. -1.
</event>
<event>
 4    1  0.2285999E+005  0.2075307E+02  0.7546771E-02  0.1522820E+00
          2   -1    0    0  502    0  0.00000000000E+00  0.00000000000E+00  0.39196097409E+01  0.39196097409E+01  0.00000000000E+00 0. -1.
         21   -1    0    0  503  502 -0.00000000000E+00 -0.00000000000E+00 -0.30579271329E+03  0.30579271329E+03  0.00000000000E+00 0. -1.
          2    1    1    2  501    0 -0.16916429234E+02  0.12021822019E+02 -0.26986884023E+02  0.34043820173E+02  0.00000000000E+00 0. -1.
         21    1    1    2  503  501  0.16916429234E+02 -0.12021822019E+02 -0.27488621953E+03  0.27566850286E+03  0.00000000000E+00 0. -1.
</event>
<event>
 4    1  0.2285999E+005  0.3248322E+02  0.7546771E-02  0.1399176E+00
          2   -1    0    0  503    0  0.00000000000E+00  0.00000000000E+00  0.22713848967E+04  0.22713848967E+04  0.00000000000E+00 0. -1.
         21   -1    0    0  501  502 -0.00000000000E+00 -0.00000000000E+00 -0.64777207002E+00  0.64777207002E+00  0.00000000000E+00 0. -1.
          2    1    1    2  501    0  0.32424939885E+02  0.19449690809E+01  0.17395518898E+04  0.17398551483E+04  0.00000000000E+00 0. -1.
         21    1    1    2  503  502 -0.32424939885E+02 -0.19449690809E+01  0.53118523477E+03  0.53217752044E+03  0.00000000000E+00 0. -1.
</event>
<event>
 4    1  0.2285999E+005  0.5244377E+02  0.7546771E-02  0.1287911E+00
          2   -1    0    0  503    0  0.00000000000E+00  0.00000000000E+00  0.66965834082E+03  0.66965834082E+03  0.00000000000E+00 0. -1.
         21   -1    0    0  501  502 -0.00000000000E+00 -0.00000000000E+00 -0.88280440108E+01  0.88280440108E+01  0.00000000000E+00 0.  1.
          2    1    1    2  501    0 -0.49587414967E+02  0.17071548838E+02  0.57849621177E+03  0.58086850193E+03  0.00000000000E+00 0. -1.
         21    1    1    2  503  502  0.49587414967E+02 -0.17071548838E+02  0.82334085044E+02  0.97617882905E+02  0.00000000000E+00 0.  1.
</event>
<event>
 4    1  0.2285999E+005  0.2808520E+02  0.7546771E-02  0.1437001E+00
          2   -1    0    0  503    0  0.00000000000E+00  0.00000000000E+00  0.26099647528E+02  0.26099647528E+02  0.00000000000E+00 0.  1.
         21   -1    0    0  501  502 -0.00000000000E+00 -0.00000000000E+00 -0.23563743433E+03  0.23563743433E+03  0.00000000000E+00 0.  1.
          2    1    1    2  501    0 -0.14923370068E+02 -0.23792257073E+02  0.17419473249E+02  0.33048699204E+02  0.00000000000E+00 0.  1.
         21    1    1    2  503  502  0.14923370068E+02  0.23792257073E+02 -0.22695726005E+03  0.22868838266E+03  0.00000000000E+00 0.  1.
</event>
<event>
 4    1  0.2285999E+005  0.2275971E+02  0.7546771E-02  0.1495538E+00
          2   -1    0    0  502    0  0.00000000000E+00  0.00000000000E+00  0.15417820105E+04  0.15417820105E+04  0.00000000000E+00 0. -1.
         21   -1    0    0  503  502 -0.00000000000E+00 -0.00000000000E+00 -0.20896570651E+02  0.20896570651E+02  0.00000000000E+00 0. -1.
          2    1    1    2  501    0  0.22634003056E+02 -0.23888038643E+01  0.15354753207E+04  0.15356439903E+04  0.00000000000E+00 0. -1.
         21    1    1    2  503  501 -0.22634003056E+02  0.23888038643E+01 -0.14589880861E+02  0.27034590838E+02  0.00000000000E+00 0. -1.
</event>
<event>
 4    1  0.2285999E+005  0.2013025E+02  0.7546771E-02  0.1532054E+00
          2   -1    0    0  502    0  0.00000000000E+00  0.00000000000E+00  0.23385691884E+03  0.23385691884E+03  0.00000000000E+00 0. -1.
         21   -1    0    0  503  502 -0.00000000000E+00 -0.00000000000E+00 -0.82923574466E+02  0.82923574466E+02  0.00000000000E+00 0.  1.
          2    1    1    2  501    0 -0.69300428469E+00 -0.20118313273E+02  0.23219329505E+03  0.23306426807E+03  0.00000000000E+00 0. -1.
         21    1    1    2  503  501  0.69300428469E+00  0.20118313273E+02 -0.81259950677E+02  0.83716225237E+02  0.00000000000E+00 0.  1.
</event>
<event>
 4    1  0.2285999E+005  0.4473873E+02  0.7546771E-02  0.1322751E+00
          2   -1    0    0  503    0  0.00000000000E+00  0.00000000000E+00  0.92314664349E+03  0.92314664349E+03  0.00000000000E+00 0. -1.
         21   -1    0    0  501  502 -0.00000000000E+00 -0.00000000000E+00 -0.28182650529E+01  0.28182650529E+01  0.00000000000E+00 0. -1.
          2    1    1    2  501    0 -0.15677696232E+01 -0.44711256303E+02  0.68252407543E+03  0.68398879222E+03  0.00000000000E+00 0. -1.
         21    1    1    2  503  502  0.15677696232E+01  0.44711256303E+02  0.23780430300E+03  0.24197611632E+03  0.00000000000E+00 0. -1.
</event>
<event>
 4    1  0.2285999E+005  0.2147985E+02  0.7546771E-02  0.1512523E+00
          2   -1    0    0  503    0  0.00000000000E+00  0.00000000000E+00  0.79471367772E+01  0.79471367772E+01  0.00000000000E+00 0.  1.
         21   -1    0    0  501  502 -0.00000000000E+00 -0.00000000000E+00 -0.30023064109E+03  0.30023064109E+03  0.00000000000E+00 0. -1.
          2    1    1    2  501    0 -0.24195971912E+01 -0.21343139983E+02 -0.77508394439E+01  0.22835489637E+02  0.00000000000E+00 0.  1.
         21    1    1    2  503  502  0.24195971912E+01  0.21343139983E+02 -0.28453266487E+03  0.28534228823E+03  0.00000000000E+00 0. -1.
</event>
<event>
 4    1  0.2285999E+005  0.2336554E+02  0.7546771E-02  0.1487958E+00
          2   -1    0    0  503    0  0.00000000000E+00  0.00000000000E+00  0.75349659050E+03  0.75349659050E+03  0.00000000000E+00 0. -1.
         21   -1    0    0  501  502 -0.00000000000E+00 -0.00000000000E+00 -0.73071582882E+00  0.73071582882E+00  0.00000000000E+00 0. -1.
          2    1    1    2  501    0 -0.81703646547E+01  0.21890489407E+02  0.41101513917E+03  0.41167874977E+03  0.00000000000E+00 0. -1.
         21    1    1    2  503  502  0.81703646547E+01 -0.21890489407E+02  0.34175073549E+03  0.34254855655E+03  0.00000000000E+00 0. -1.
</event>
<event>
 4    1  0.2285999E+005  0.3561853E+02  0.7546771E-02  0.1376266E+00
          2   -1    0    0  502    0  0.00000000000E+00  0.00000000000E+00  0.20961984846E+04  0.20961984846E+04  0.00000000000E+00 0. -1.
         21   -1    0    0  503  502 -0.00000000000E+00 -0.00000000000E+00 -0.80045944009E+01  0.80045944009E+01  0.00000000000E+00 0.  1.
          2    1    1    2  501    0 -0.15091745791E+02 -0.32263278892E+02  0.20556419973E+04  0.20559505590E+04  0.00000000000E+00 0. -1.
         21    1    1    2  503  501  0.15091745791E+02  0.32263278892E+02  0.32551892899E+02  0.48252520008E+02  0.00000000000E+00 0.  1.
</event>
<event>
 4    1  0.2285999E+005  0.2862461E+02  0.7546771E-02  0.1431937E+00
          2   -1    0    0  502    0  0.00000000000E+00  0.00000000000E+00  0.11937701647E+04  0.11937701647E+04  0.00000000000E+00 0. -1.
         21   -1    0    0  503  502 -0.00000000000E+00 -0.00000000000E+00 -0.54021557597E+01  0.54021557597E+01  0.00000000000E+00 0. -1.
          2    1    1    2  501    0  0.11409810974E+02 -0.26252320411E+02  0.11543865512E+04  0.11547413900E+04  0.00000000000E+00 0. -1.
         21    1    1    2  503  501 -0.11409810974E+02  0.26252320411E+02  0.33981457703E+02  0.44430930454E+02  0.00000000000E+00 0. -1.
</event>
<event>
 4    1  0.2285999E+005  0.2775272E+02  0.7546771E-02  0.1440190E+00
          2   -1    0    0  503    0  0.00000000000E+00  0.00000000000E+00  0.18808881804E+04  0.18808881804E+04  0.00000000000E+00 0. -1.
         21   -1    0    0  501  502 -0.00000000000E+00 -0.00000000000E+00 -0.35702493859E+01  0.35702493859E+01  0.00000000000E+00 0.  1.
          2    1    1    2  501    0 -0.20801609841E+02  0.18371351309E+02  0.18252078600E+04  0.18254188412E+04  0.00000000000E+00 0. -1.
         21    1    1    2  503  502  0.20801609841E+02 -0.18371351309E+02  0.52110070940E+02  0.59039588534E+02  0.00000000000E+00 0.  1.
</event>
<event>
 4    1  0.2285999E+005  0.2207789E+02  0.7546771E-02  0.1504413E+00
          2   -1    0    0  503    0  0.00000000000E+00  0.00000000000E+00  0.26901593249E+02  0.26901593249E+02  0.00000000000E+00 0.  1.
         21   -1    0    0  501  502 -0.00000000000E+00 -0.00000000000E+00 -0.19769963255E+02  0.19769963255E+02  0.00000000000E+00 0. -1.
          2    1    1    2  501    0  0.19695007897E+02  0.99769722697E+01  0.10309103074E+02  0.24366183902E+02  0.00000000000E+00 0.  1.
         21    1    1    2  503  502 -0.19695007897E+02 -0.99769722697E+01 -0.31774730790E+01  0.22305372602E+02  0.00000000000E+00 0. -1.
</event>
<event>
 4    1  0.2285999E+005  0.2296917E+02  0.7546771E-02  0.1492886E+00
          2   -1    0    0  503    0  0.00000000000E+00  0.00000000000E+00  0.52379993332E+02  0.52379993332E+02  0.00000000000E+00 0.  1.
         21   -1    0    0  501  502 -0.00000000000E+00 -0.00000000000E+00 -0.24914088664E+02  0.24914088664E+02  0.00000000000E+00 0.  1.
          2    1    1    2  501    0 -0.43269550400E+01  0.22557931793E+02  0.43561907011E+02  0.49246548805E+02  0.00000000000E+00 0.  1.
         21    1    1    2  503  502  0.43269550400E+01 -0.22557931793E+02 -0.16096002343E+02  0.28047533192E+02  0.00000000000E+00 0.  1.
</event>
<event>
 4    1  0.2285999E+005  0.3403964E+02  0.7546771E-02  0.1387443E+00
          2   -1    0    0  502    0  0.00000000000E+00  0.00000000000E+00  0.18714356363E+04  0.18714356363E+04  0.00000000000E+00 0.  1.
         21   -1    0    0  503  502 -0.00000000000E+00 -0.00000000000E+00 -0.37475516579E+01  0.37475516579E+01  0.00000000000E+00 0. -1.
          2    1    1    2  501    0 -0.32795519161E+02  0.91187345198E+01  0.17904897004E+04  0.17908132412E+04  0.00000000000E+00 0.  1.
         21    1    1    2  503  501  0.32795519161E+02 -0.91187345198E+01  0.77198384206E+02  0.84369946783E+02  0.00000000000E+00 0. -1.
</event>
<event>
 4    1  0.2285999E+005  0.2313868E+02  0.7546771E-02  0.1490764E+00
          2   -1    0    0  503    0  0.00000000000E+00  0.00000000000E+00  0.70792236495E+03  0.70792236495E+03  0.00000000000E+00 0.  1.
         21   -1    0    0  501  502 -0.00000000000E+00 -0.00000000000E+00 -0.14255438731E+02  0.14255438731E+02  0.00000000000E+00 0. -1.
          2    1    1    2  501    0  0.84421061412E+01 -0.21543656841E+02  0.69821339443E+03  0.69859669515E+03  0.00000000000E+00 0.  1.
         21    1    1    2  503  502 -0.84421061412E+01  0.21543656841E+02 -0.45464682176E+01  0.23581108528E+02  0.00000000000E+00 0. -1.
</event>
<event>
 4    1  0.2285999E+005  0.2034157E+02  0.7546771E-02  0.1528877E+00
          2   -1    0    0  503    0  0.00000000000E+00  0.00000000000E+00  0.93428358554E+03  0.93428358554E+03  0.00000000000E+00 0. -1.
         21   -1    0    0  501  502 -0.00000000000E+00 -0.00000000000E+00 -0.14779263812E+01  0.14779263812E+01  0.00000000000E+00 0.  1.
          2    1    1    2  501    0 -0.60214491627E+01 -0.19429914597E+02  0.85795335250E+03  0.85819446194E+03  0.00000000000E+00 0. -1.
         21    1    1    2  503  502  0.60214491627E+01  0.19429914597E+02  0.74852306656E+02  0.77567049982E+02  0.00000000000E+00 0.  1.
</event>
<event>
 4    1  0.2285999E+005  0.2292921E+02  0.7546771E-02  0.1493389E+00
          2   -1    0    0  503    0  0.00000000000E+00  0.00000000000E+00  0.61541607629E+03  0.61541607629E+03  0.00000000000E+00 0.  1.
         21   -1    0    0  501  502 -0.00000000000E+00 -0.00000000000E+00 -0.11748610948E+01  0.11748610948E+01  0.00000000000E+00 0. -1.
          2    1    1    2  501    0  0.14477275281E+02  0.17780809856E+02  0.46815946048E+03  0.46872063016E+03  0.00000000000E+00 0.  1.
         21    1    1    2  503  502 -0.14477275281E+02 -0.17780809856E+02  0.14608175471E+03  0.14787030722E+03  0.00000000000E+00 0. -1.
</event>
<event>
 4    1  0.2285999E+005  0.3964102E+02  0.7546771E-02  0.1350602E+00
          2   -1    0    0  502    0  0.00000000000E+00  0.00000000000E+00  0.88462928135E+03  0.88462928135E+03  0.00000000000E+00 0. -1.
         21   -1    0    0  503  502 -0.00000000000E+00 -0.00000000000E+00 -0.41590633926E+02  0.41590633926E+02  0.00000000000E+00 0.  1.
          2    1    1    2  501    0 -0.21950552852E+02 -0.33008836696E+02  0.87463158132E+03  0.87552944731E+03  0.00000000000E+00 0. -1.
         21    1    1    2  503  501  0.21950552852E+02  0.33008836696E+02 -0.31592933894E+02  0.50690467966E+02  0.00000000000E+00 0.  1.
</event>
<event>
 4    1  0.2285999E+005  0.3367718E+02  0.7546771E-02  0.1390109E+00
          2   -1    0    0  502    0  0.00000000000E+00  0.00000000000E+00  0.74869282646E+03  0.74869282646E+03  0.00000000000E+00 0. -1.
         21   -1    0    0  503  502 -0.00000000000E+00 -0.00000000000E+00 -0.39395767206E+01  0.39395767206E+01  0.00000000000E+00 0. -1.
          2    1    1    2  501    0  0.28787703743E+02 -0.17476290225E+02  0.66760636156E+03  0.66845523904E+03  0.00000000000E+00 0. -1.
         21    1    1    2  503  501 -0.28787703743E+02  0.17476290225E+02  0.77146888186E+02  0.84177164145E+02  0.00000000000E+00 0. -1.
</event>
<event>
 4    1  0.2285999E+005  0.3733002E+02  0.7546771E-02  0.1364884E+00
          2   -1    0    0  502    0  0.00000000000E+00  0.00000000000E+00  0.18918600497E+03  0.18918600497E+03  0.00000000000E+00 0.  1.
         21   -1    0    0  503  502 -0.00000000000E+00 -0.00000000000E+00 -0.69384184885E+02  0.69384184885E+02  0.00000000000E+00 0.  1.
          2    1    1    2  501    0 -0.36870671717E+02 -0.58381419554E+01  0.18213096134E+03  0.18591723270E+03  0.00000000000E+00 0.  1.
         21    1    1    2  503  501  0.36870671717E+02  0.58381419554E+01 -0.62329141256E+02  0.72652957160E+02  0.00000000000E+00 0.  1.
</event>
<event>
 4    1  0.2285999E+005  0.2779733E+02  0.7546771E-02  0.1439759E+00
          2   -1    0    0  502    0  0.00000000000E+00  0.00000000000E+00  0.39543026652E+03  0.39543026652E+03  0.00000000000E+00 0. -1.
         21   -1    0    0  503  502 -0.00000000000E+00 -0.00000000000E+00 -0.17271462039E+02  0.17271462039E+02  0.00000000000E+00 0.  1.
          2    1    1    2  501    0  0.20807359917E+02  0.18432188935E+02  0.38340695963E+03  0.38441330429E+03  0.00000000000E+00 0. -1.
         21    1    1    2  503  501 -0.20807359917E+02 -0.18432188935E+02 -0.52481551499E+01  0.28288424278E+02  0.00000000000E+00 0.  1.
</event>
<event>
 4    1  0.2285999E+005  0.2124355E+02  0.7546771E-02  0.1515816E+00
          2   -1    0    0  502    0  0.00000000000E+00  0.00000000000E+00  0.82110875977E+03  0.82110875977E+03  0.00000000000E+00 0.  1.
         21   -1    0    0  503  502 -0.00000000000E+00 -0.00000000000E+00 -0.86957560986E+02  0.86957560986E+02  0.00000000000E+00 0. -1.
          2    1    1    2  501    0 -0.10908583132E+02 -0.18228858804E+02  0.81967164434E+03  0.81994688426E+03  0.00000000000E+00 0.  1.
         21    1    1    2  503  501  0.10908583132E+02  0.18228858804E+02 -0.85520445557E+02  0.88119436491E+02  0.00000000000E+00 0. -1.
</event>
<event>
 4    1  0.2285999E+005  0.2115310E+02  0.7546771E-02  0.1517090E+00
          2   -1    0    0  503    0  0.00000000000E+00  0.00000000000E+00  0.10697638787E+02  0.10697638787E+02  0.00000000000E+00 0.  1.
         21   -1    0    0  501  502 -0.00000000000E+00 -0.00000000000E+00 -0.51759485741E+02  0.51759485741E+02  0.00000000000E+00 0.  1.
          2    1    1    2  501    0  0.21001700998E+01 -0.21048580102E+02 -0.68511394084E+01  0.22234917359E+02  0.00000000000E+00 0.  1.
         21    1    1    2  503  502 -0.21001700998E+01  0.21048580102E+02 -0.34210707546E+02  0.40222207169E+02  0.00000000000E+00 0.  1.
</event>
<event>
 4    1  0.2285999E+005  0.2070863E+02  0.7546771E-02  0.1523466E+00
          2   -1    0    0  503    0  0.00000000000E+00  0.00000000000E+00  0.85906026191E+02  0.85906026191E+02  0.00000000000E+00 0.  1.
         21   -1    0    0  501  502 -0.00000000000E+00 -0.00000000000E+00 -0.28600970038E+02  0.28600970038E+02  0.00000000000E+00 0. -1.
          2    1    1    2  501    0  0.20605681220E+02 -0.20623184903E+01  0.80670054614E+02  0.83285682848E+02  0.00000000000E+00 0.  1.
         21    1    1    2  503  502 -0.20605681220E+02  0.20623184903E+01 -0.23364998461E+02  0.31221313380E+02  0.00000000000E+00 0. -1.
</event>
<event>
 4    1  0.2285999E+005  0.3818185E+02  0.7546771E-02  0.1359482E+00
          2   -1    0    0  502    0  0.00000000000E+00  0.00000000000E+00  0.82194640088E+02  0.82194640088E+02  0.00000000000E+00 0. -1.
         21   -1    0    0  503  502 -0.00000000000E+00 -0.00000000000E+00 -0.18867076799E+02  0.18867076799E+02  0.00000000000E+00 0. -1.
          2    1    1    2  501    0  0.35435080499E+02 -0.14220018366E+02  0.44032772322E+02  0.58281548458E+02  0.00000000000E+00 0. -1.
         21    1    1    2  503  501 -0.35435080499E+02  0.14220018366E+02  0.19294790968E+02  0.42780168429E+02  0.00000000000E+00 0. -1.
</event>
<event>
 4    1  0.2285999E+005  0.3033420E+02  0.7546771E-02  0.1416714E+00
          2   -1    0    0  503    0  0.00000000000E+00  0.00000000000E+00  0.73219868367E+02  0.73219868367E+02  0.00000000000E+00 0.  1.
         21   -1    0    0  501  502 -0.00000000000E+00 -0.00000000000E+00 -0.13266131881E+03  0.13266131881E+03  0.00000000000E+00 0.  1.
          2    1    1    2  501    0  0.26703346621E+02  0.14390800779E+02  0.68222748524E+02  0.74662623072E+02  0.00000000000E+00 0.  1.
         21    1    1    2  503  502 -0.26703346621E+02 -0.14390800779E+02 -0.12766419897E+03  0.13121856411E+03  0.00000000000E+00 0.  1.
</event>
<event>
 4    1  0.2285999E+005  0.3953755E+02  0.7546771E-02  0.1351217E+00
          2   -1    0    0  502    0  0.00000000000E+00  0.00000000000E+00  0.37824055829E+02  0.37824055829E+02  0.00000000000E+00 0.  1.
         21   -1    0    0  503  502 -0.00000000000E+00 -0.00000000000E+00 -0.59075139882E+02  0.59075139882E+02  0.00000000000E+00 0.  1.
          2    1    1    2  501    0 -0.27213928051E+02  0.28681348673E+02  0.15929309406E+02  0.42625820107E+02  0.00000000000E+00 0.  1.
         21    1    1    2  503  501  0.27213928051E+02 -0.28681348673E+02 -0.37180393458E+02  0.54273375603E+02  0.00000000000E+00 0.  1.
</event>
<event>
 4    1  0.2285999E+005  0.5571157E+02  0.7546771E-02  0.1275143E+00
          2   -1    0    0  503    0  0.00000000000E+00  0.00000000000E+00  0.44372451726E+03  0.44372451726E+03  0.00000000000E+00 0.  1.
         21   -1    0    0  501  502 -0.00000000000E+00 -0.00000000000E+00 -0.71823333400E+01  0.71823333400E+01  0.00000000000E+00 0.  1.
          2    1    1    2  501    0  0.19552784348E+01  0.55677251935E+02  0.25469810167E+03  0.26071996949E+03  0.00000000000E+00 0.  1.
         21    1    1    2  503  502 -0.19552784348E+01 -0.55677251935E+02  0.18184408225E+03  0.19018688111E+03  0.00000000000E+00 0.  1.
</event>
<event>
 4    1  0.2285999E+005  0.2374676E+02  0.7546771E-02  0.1483328E+00
          2   -1    0    0  503    0  0.00000000000E+00  0.00000000000E+00  0.11461605307E+03  0.11461605307E+03  0.00000000000E+00 0. -1.
         21   -1    0    0  501  502 -0.00000000000E+00 -0.00000000000E+00 -0.51470227530E+01  0.51470227530E+01  0.00000000000E+00 0.  1.
          2    1    1    2  501    0  0.18614844623E+02  0.14744355786E+02  0.67311327103E+02  0.71377329904E+02  0.00000000000E+00 0. -1.
         21    1    1    2  503  502 -0.18614844623E+02 -0.14744355786E+02  0.42157703213E+02  0.48385745918E+02  0.00000000000E+00 0.  1.
</event>
<event>
 4    1  0.2285999E+005  0.2776550E+02  0.7546771E-02  0.1440066E+00
          2   -1    0    0  503    0  0.00000000000E+00  0.00000000000E+00  0.15211638257E+04  0.15211638257E+04  0.00000000000E+00 0. -1.
         21   -1    0    0  501  502 -0.00000000000E+00 -0.00000000000E+00 -0.50707586701E+00  0.50707586701E+00  0.00000000000E+00 0. -1.
          2    1    1    2  501    0 -0.27733745737E+02 -0.13275500007E+01  0.74252342901E+03  0.74304237138E+03  0.00000000000E+00 0. -1.
         21    1    1    2  503  502  0.27733745737E+02  0.13275500007E+01  0.77813332087E+03  0.77862853023E+03  0.00000000000E+00 0. -1.
</event>
<event>
 4    1  0.2285999E+005  0.2168717E+02  0.7546771E-02  0.1509676E+00
          2   -1    0    0  502    0  0.00000000000E+00  0.00000000000E+00  0.11508695886E+03  0.11508695886E+03  0.00000000000E+00 0.  1.
         21   -1    0    0  503  502 -0.00000000000E+00 -0.00000000000E+00 -0.78438216462E+01  0.78438216462E+01  0.00000000000E+00 0.  1.
          2    1    1    2  501    0  0.21677107738E+02  0.66062209995E+00  0.96160896774E+02  0.98576120282E+02  0.00000000000E+00 0.  1.
         21    1    1    2  503  501 -0.21677107738E+02 -0.66062209995E+00  0.11082240438E+02  0.24354660222E+02  0.00000000000E+00 0.  1.
</event>
<event>
 4    1  0.2285999E+005  0.2056794E+02  0.7546771E-02  0.1525524E+00
          2   -1    0    0  502    0  0.00000000000E+00  0.00000000000E+00  0.29922992987E+03  0.29922992987E+03  0.00000000000E+00 0.  1.
         21   -1    0    0  503  502 -0.00000000000E+00 -0.00000000000E+00 -0.13802092684E+02  0.13802092684E+02  0.00000000000E+00 0. -1.
          2    1    1    2  501    0 -0.27299570205E+01  0.20385966627E+02  0.29099736571E+03  0.29172334008E+03  0.00000000000E+00 0.  1.
         21    1    1    2  503  501  0.27299570205E+01 -0.20385966627E+02 -0.55695285213E+01  0.21308682470E+02  0.00000000000E+00 0. -1.
</event>
<event>
 4    1  0.2285999E+005  0.2094226E+02  0.7546771E-02  0.1520091E+00
          2   -1    0    0  502    0  0.00000000000E+00  0.00000000000E+00  0.14957016881E+02  0.14957016881E+02  0.00000000000E+00 0.  1.
         21   -1    0    0  503  502 -0.00000000000E+00 -0.00000000000E+00 -0.40248575691E+02  0.40248575691E+02  0.00000000000E+00 0.  1.
          2    1    1    2  501    0  0.16126132912E+02 -0.13361364180E+02  0.17358627658E+01  0.21014077068E+02  0.00000000000E+00 0.  1.
         21    1    1    2  503  501 -0.16126132912E+02  0.13361364180E+02 -0.27027421576E+02  0.34191515505E+02  0.00000000000E+00 0.  1.
</event>
<event>
 4    1  0.2285999E+005  0.2051908E+02  0.7546771E-02  0.1526243E+00
          2   -1    0    0  503    0  0.00000000000E+00  0.00000000000E+00  0.61115508498E+02  0.61115508498E+02  0.00000000000E+00 0.  1.
         21   -1    0    0  501  502 -0.00000000000E+00 -0.00000000000E+00 -0.11886095162E+02  0.11886095162E+02  0.00000000000E+00 0.  1.
          2    1    1    2  501    0 -0.14712707225E+02  0.14302764104E+02  0.48281306659E+02  0.52460627022E+02  0.00000000000E+00 0.  1.
         21    1    1    2  503  502  0.14712707225E+02 -0.14302764104E+02  0.94810667738E+00  0.20540976637E+02  0.00000000000E+00 0.  1.
</event>
<event>
 4    1  0.2285999E+005  0.2387359E+02  0.7546771E-02  0.1481810E+00
          2   -1    0    0  502    0  0.00000000000E+00  0.00000000000E+00  0.82450546276E+03  0.82450546276E+03  0.00000000000E+00 0. -1.
         21   -1    0    0  503  502 -0.00000000000E+00 -0.00000000000E+00 -0.99815332655E+02  0.99815332655E+02  0.00000000000E+00 0.  1.
          2    1    1    2  501    0 -0.23664007794E+02  0.31564626632E+01  0.82290235970E+03  0.82324859072E+03  0.00000000000E+00 0. -1.
         21    1    1    2  503  501  0.23664007794E+02 -0.31564626632E+01 -0.98212229592E+02  0.10107220470E+03  0.00000000000E+00 0.  1.
</event>
<event>
 4    1  0.2285999E+005  0.2202521E+02  0.7546771E-02  0.1505115E+00
          2   -1    0    0  503    0  0.00000000000E+00  0.00000000000E+00  0.80126035983E+03  0.80126035983E+03  0.00000000000E+00 0.  1.
         21   -1    0    0  501  502 -0.00000000000E+00 -0.00000000000E+00 -0.17294444940E+01  0.17294444940E+01  0.00000000000E+00 0. -1.
          2    1    1    2  501    0 -0.15412606581E+02  0.15734081743E+02  0.72344259436E+03  0.72377779539E+03  0.00000000000E+00 0.  1.
         21    1    1    2  503  502  0.15412606581E+02 -0.15734081743E+02  0.76088320973E+02  0.79212008928E+02  0.00000000000E+00 0. -1.
</event>
<event>
 4    1  0.2285999E+005  0.2508885E+02  0.7546771E-02  0.1467812E+00
          2   -1    0    0  502    0  0.00000000000E+00  0.00000000000E+00  0.17716798016E+03  0.17716798016E+03  0.00000000000E+00 0. -1.
         21   -1    0    0  503  502 -0.00000000000E+00 -0.00000000000E+00 -0.10234082053E+02  0.10234082053E+02  0.00000000000E+00 0.  1.
          2    1    1    2  501    0  0.18459160337E+01 -0.25020852446E+02  0.15917609491E+03  0.16114117926E+03  0.00000000000E+00 0. -1.
         21    1    1    2  503  501 -0.18459160337E+01  0.25020852446E+02  0.77578032024E+01  0.26260882956E+02  0.00000000000E+00 0.  1.
</event>
<event>
 4    1  0.2285999E+005  0.2060114E+02  0.7546771E-02  0.1525036E+00
          2   -1    0    0  503    0  0.00000000000E+00  0.00000000000E+00  0.30775859228E+03  0.30775859228E+03  0.00000000000E+00 0. -1.
         21   -1    0    0  501  502 -0.00000000000E+00 -0.00000000000E+00 -0.21601887188E+01  0.21601887188E+01  0.00000000000E+00 0. -1.
          2    1    1    2  501    0 -0.67580105758E+01 -0.19461143324E+02  0.24598357157E+03  0.24684473721E+03  0.00000000000E+00 0. -1.
         21    1    1    2  503  502  0.67580105758E+01  0.19461143324E+02  0.59614831989E+02  0.63074043786E+02  0.00000000000E+00 0. -1.
</event>
<event>
 4    1  0.2285999E+005  0.3396533E+02  0.7546771E-02  0.1387987E+00
          2   -1    0    0  503    0  0.00000000000E+00  0.00000000000E+00  0.10484243987E+03  0.10484243987E+03  0.00000000000E+00 0. -1.
         21   -1    0    0  501  502 -0.00000000000E+00 -0.00000000000E+00 -0.11010925725E+02  0.11010925725E+02  0.00000000000E+00 0.  1.
          2    1    1    2  501    0 -0.30497477566E+02  0.14951502390E+02  0.48410589868E+02  0.59137372050E+02  0.00000000000E+00 0. -1.
         21    1    1    2  503  502  0.30497477566E+02 -0.14951502390E+02  0.45420924279E+02  0.56715993547E+02  0.00000000000E+00 0.  1.
</event>
<event>
 4    1  0.2285999E+005  0.2880089E+02  0.7546771E-02  0.1430311E+00
          2   -1    0    0  503    0  0.00000000000E+00  0.00000000000E+00  0.22272521782E+03  0.22272521782E+03  0.00000000000E+00 0.  1.
         21   -1    0    0  501  502 -0.00000000000E+00 -0.00000000000E+00 -0.46247019990E+01  0.46247019990E+01  0.00000000000E+00 0. -1.
          2    1    1    2  501    0 -0.23949433336E+02 -0.15997370352E+02  0.15920890672E+03  0.16179297635E+03  0.00000000000E+00 0.  1.
         21    1    1    2  503  502  0.23949433336E+02  0.15997370352E+02  0.58891609104E+02  0.65556943478E+02  0.00000000000E+00 0. -1.
</event>
<event>
 4    1  0.2285999E+005  0.3046282E+02  0.7546771E-02  0.1415616E+00
          2   -1    0    0  503    0  0.00000000000E+00  0.00000000000E+00  0.49189058835E+03  0.49189058835E+03  0.00000000000E+00 0.  1.
         21   -1    0    0  501  502 -0.00000000000E+00 -0.00000000000E+00 -0.30452893110E+01  0.30452893110E+01  0.00000000000E+00 0.  1.
          2    1    1    2  501    0 -0.19750018144E+02 -0.23193111077E+02  0.39707190918E+03  0.39823872825E+03  0.00000000000E+00 0.  1.
         21    1    1    2  503  502  0.19750018144E+02  0.23193111077E+02  0.91773389865E+02  0.96697149417E+02  0.00000000000E+00 0.  1.
</event>
<event>
 4    1  0.2285999E+005  0.5750868E+02  0.7546771E-02  0.1268540E+00
          2   -1    0    0  503    0  0.00000000000E+00  0.00000000000E+00  0.52947739245E+03  0.52947739245E+03  0.00000000000E+00 0. -1.
         21   -1    0    0  501  502 -0.00000000000E+00 -0.00000000000E+00 -0.79524294027E+01  0.79524294027E+01  0.00000000000E+00 0. -1.
          2    1    1    2  501    0  0.53183395534E+02 -0.21880918493E+02  0.38522947640E+03  0.38949839235E+03  0.00000000000E+00 0. -1.
         21    1    1    2  503  502 -0.53183395534E+02  0.21880918493E+02  0.13629548664E+03  0.14793142950E+03  0.00000000000E+00 0. -1.
</event>
<event>
 4    1  0.2285999E+005  0.2853612E+02  0.7546771E-02  0.1432759E+00
          2   -1    0    0  503    0  0.00000000000E+00  0.00000000000E+00  0.17598560770E+03  0.17598560770E+03  0.00000000000E+00 0. -1.
         21   -1    0    0  501  502 -0.00000000000E+00 -0.00000000000E+00 -0.57852832596E+01  0.57852832596E+01  0.00000000000E+00 0. -1.
          2    1    1    2  501    0 -0.28053907319E+02  0.52238171701E+01  0.12576445613E+03  0.12896126708E+03  0.00000000000E+00 0. -1.
         21    1    1    2  503  502  0.28053907319E+02 -0.52238171701E+01  0.44435868313E+02  0.52809623880E+02  0.00000000000E+00 0. -1.
</event>
<event>
 4    1  0.2989032E+005  0.2617242E+02  0.7546771E-02  0.1456103E+00
          2   -1    0    0  502    0  0.00000000000E+00  0.00000000000E+00  0.15962927878E+04  0.15962927878E+04  0.00000000000E+00 0.  1.
         21   -1    0    0  503  502 -0.00000000000E+00 -0.00000000000E+00 -0.31971397454E+03  0.31971397454E+03  0.00000000000E+00 0. -1.
          2    1    1    2  501    0  0.19775402437E+02  0.17144355096E+02  0.15956496614E+04  0.15958642916E+04  0.00000000000E+00 0.  1.
         21    1    1    2  503  501 -0.19775402437E+02 -0.17144355096E+02 -0.31907084810E+03  0.32014247072E+03  0.00000000000E+00 0. -1.
</event>
<event>
 4    1  0.2285999E+005  0.2895936E+02  0.7546771E-02  0.1428860E+00
          2   -1    0    0  503    0  0.00000000000E+00  0.00000000000E+00  0.11602610703E+04  0.11602610703E+04  0.00000000000E+00 0.  1.
         21   -1    0    0  501  502 -0.00000000000E+00 -0.00000000000E+00 -0.19758541372E+01  0.19758541372E+01  0.00000000000E+00 0. -1.
          2    1    1    2  501    0  0.25688751750E+02  0.13369085116E+02  0.10419187914E+04  0.10423211656E+04  0.00000000000E+00 0.  1.
         21    1    1    2  503  502 -0.25688751750E+02 -0.13369085116E+02  0.11636642476E+03  0.11991575882E+03  0.00000000000E+00 0. -1.
</event>
<event>
 4    1  0.2285999E+005  0.2225106E+02  0.7546771E-02  0.1502123E+00
          2   -1    0    0  503    0  0.00000000000E+00  0.00000000000E+00  0.40255030510E+02  0.40255030510E+02  0.00000000000E+00 0.  1.
         21   -1    0    0  501  502 -0.00000000000E+00 -0.00000000000E+00 -0.15617579132E+02  0.15617579132E+02  0.00000000000E+00 0.  1.
          2    1    1    2  501    0 -0.20362422932E+02  0.89711410206E+01  0.25195794891E+02  0.33614546242E+02  0.00000000000E+00 0.  1.
         21    1    1    2  503  502  0.20362422932E+02 -0.89711410206E+01 -0.55834351228E+00  0.22258063400E+02  0.00000000000E+00 0.  1.
</event>
<event>
 4    1  0.2285999E+005  0.4919048E+02  0.7546771E-02  0.1301721E+00
          2   -1    0    0  503    0  0.00000000000E+00  0.00000000000E+00  0.82877196003E+03  0.82877196003E+03  0.00000000000E+00 0.  1.
         21   -1    0    0  501  502 -0.00000000000E+00 -0.00000000000E+00 -0.30564964354E+01  0.30564964354E+01  0.00000000000E+00 0.  1.
          2    1    1    2  501    0  0.25915773448E+02 -0.41809995201E+02  0.32484431980E+03  0.32854761469E+03  0.00000000000E+00 0.  1.
         21    1    1    2  503  502 -0.25915773448E+02  0.41809995201E+02  0.50087114380E+03  0.50328084178E+03  0.00000000000E+00 0.  1.
</event>
<event>
 4    1  0.2285999E+005  0.2766467E+02  0.7546771E-02  0.1441043E+00
          2   -1    0    0  502    0  0.00000000000E+00  0.00000000000E+00  0.23413789303E+03  0.23413789303E+03  0.00000000000E+00 0. -1.
         21   -1    0    0  503  502 -0.00000000000E+00 -0.00000000000E+00 -0.11283473544E+02  0.11283473544E+02  0.00000000000E+00 0.  1.
          2    1    1    2  501    0 -0.24453669260E+02 -0.12936451401E+02  0.21484750267E+03  0.21662128963E+03  0.00000000000E+00 0. -1.
         21    1    1    2  503  501  0.24453669260E+02  0.12936451401E+02  0.80069168108E+01  0.28800076944E+02  0.00000000000E+00 0.  1.
</event>
<event>
 4    1  0.2285999E+005  0.5463222E+02  0.7546771E-02  0.1279248E+00
          2   -1    0    0  502    0  0.00000000000E+00  0.00000000000E+00  0.19318347287E+04  0.19318347287E+04  0.00000000000E+00 0. -1.
         21   -1    0    0  503  502 -0.00000000000E+00 -0.00000000000E+00 -0.85895151403E+01  0.85895151403E+01  0.00000000000E+00 0.  1.
          2    1    1    2  501    0 -0.49720772374E+02  0.22639002390E+02  0.18402566074E+04  0.18410673700E+04  0.00000000000E+00 0. -1.
         21    1    1    2  503  501  0.49720772374E+02 -0.22639002390E+02  0.82988606122E+02  0.99356873847E+02  0.00000000000E+00 0.  1.
</event>
<event>
 4    1  0.2285999E+005  0.2771677E+02  0.7546771E-02  0.1440538E+00
          2   -1    0    0  502    0  0.00000000000E+00  0.00000000000E+00  0.54151984850E+03  0.54151984850E+03  0.00000000000E+00 0. -1.
         21   -1    0    0  503  502 -0.00000000000E+00 -0.00000000000E+00 -0.84866602157E+01  0.84866602157E+01  0.00000000000E+00 0.  1.
          2    1    1    2  501    0  0.18144440358E+02  0.20952297225E+02  0.51748464906E+03  0.51822638054E+03  0.00000000000E+00 0. -1.
         21    1    1    2  503  501 -0.18144440358E+02 -0.20952297225E+02  0.15548539225E+02  0.31780128177E+02  0.00000000000E+00 0.  1.
</event>
<event>
 4    1  0.2285999E+005  0.2211001E+02  0.7546771E-02  0.1503987E+00
          2   -1    0    0  503    0  0.00000000000E+00  0.00000000000E+00  0.52748875076E+03  0.52748875076E+03  0.00000000000E+00 0. -1.
         21   -1    0    0  501  502 -0.00000000000E+00 -0.00000000000E+00 -0.21095646464E+01  0.21095646464E+01  0.00000000000E+00 0. -1.
          2    1    1    2  501    0 -0.15999948625E+02  0.15259561401E+02  0.46096904135E+03  0.46149898121E+03  0.00000000000E+00 0. -1.
         21    1    1    2  503  502  0.15999948625E+02 -0.15259561401E+02  0.64410144759E+02  0.68099334197E+02  0.00000000000E+00 0. -1.
</event>
<event>
 4    1  0.2285999E+005  0.2846761E+02  0.7546771E-02  0.1433398E+00
          2   -1    0    0  503    0  0.00000000000E+00  0.00000000000E+00  0.85710584884E+02  0.85710584884E+02  0.00000000000E+00 0. -1.
         21   -1    0    0  501  502 -0.00000000000E+00 -0.00000000000E+00 -0.34500272721E+02  0.34500272721E+02  0.00000000000E+00 0.  1.
          2    1    1    2  501    0  0.25115570178E+01  0.28356605747E+02  0.76816262903E+02  0.81921567700E+02  0.00000000000E+00 0. -1.
         21    1    1    2  503  502 -0.25115570178E+01 -0.28356605747E+02 -0.25605950739E+02  0.38289289905E+02  0.00000000000E+00 0.  1.
</event>
<event>
 4    1  0.2285999E+005  0.2151165E+02  0.7546771E-02  0.1512084E+00
          2   -1    0    0  502    0  0.00000000000E+00  0.00000000000E+00  0.32605227574E+03  0.32605227574E+03  0.00000000000E+00 0. -1.
         21   -1    0    0  503  502 -0.00000000000E+00 -0.00000000000E+00 -0.59325335350E+01  0.59325335350E+01  0.00000000000E+00 0. -1.
          2    1    1    2  501    0 -0.14657599750E+02  0.15745023894E+02  0.30484175728E+03  0.30559981674E+03  0.00000000000E+00 0. -1.
         21    1    1    2  503  501  0.14657599750E+02 -0.15745023894E+02  0.15277984923E+02  0.26384992536E+02  0.00000000000E+00 0. -1.
</event>
<event>
 4    1  0.2285999E+005  0.3022328E+02  0.7546771E-02  0.1417666E+00
          2   -1    0    0  503    0  0.00000000000E+00  0.00000000000E+00  0.41307921760E+03  0.41307921760E+03  0.00000000000E+00 0. -1.
         21   -1    0    0  501  502 -0.00000000000E+00 -0.00000000000E+00 -0.47743609099E+01  0.47743609099E+01  0.00000000000E+00 0. -1.
          2    1    1    2  501    0  0.17125855357E+02  0.24902845963E+02  0.35723122180E+03  0.35850745109E+03  0.00000000000E+00 0. -1.
         21    1    1    2  503  502 -0.17125855357E+02 -0.24902845963E+02  0.51073634888E+02  0.59346127418E+02  0.00000000000E+00 0. -1.
</event>
<event>
 4    1  0.2285999E+005  0.2128702E+02  0.7546771E-02  0.1515206E+00
          2   -1    0    0  503    0  0.00000000000E+00  0.00000000000E+00  0.18692518983E+04  0.18692518983E+04  0.00000000000E+00 0. -1.
         21   -1    0    0  501  502 -0.00000000000E+00 -0.00000000000E+00 -0.26325430159E+00  0.26325430159E+00  0.00000000000E+00 0. -1.
          2    1    1    2  501    0  0.12258330057E+02  0.17403177890E+02  0.67150471977E+03  0.67184203942E+03  0.00000000000E+00 0. -1.
         21    1    1    2  503  502 -0.12258330057E+02 -0.17403177890E+02  0.11974839242E+04  0.11976731132E+04  0.00000000000E+00 0. -1.
</event>
<event>
 4    1  0.2285999E+005  0.4191244E+02  0.7546771E-02  0.1337629E+00
          2   -1    0    0  502    0  0.00000000000E+00  0.00000000000E+00  0.95320278668E+03  0.95320278668E+03  0.00000000000E+00 0.  1.
         21   -1    0    0  503  502 -0.00000000000E+00 -0.00000000000E+00 -0.36541933172E+01  0.36541933172E+01  0.00000000000E+00 0. -1.
          2    1    1    2  501    0  0.41879721155E+02 -0.16557767313E+01  0.81160856375E+03  0.81269004755E+03  0.00000000000E+00 0.  1.
         21    1    1    2  503  501 -0.41879721155E+02  0.16557767313E+01  0.13794002961E+03  0.14416693244E+03  0.00000000000E+00 0. -1.
</event>
<event>
 4    1  0.2285999E+005  0.2227376E+02  0.7546771E-02  0.1501825E+00
          2   -1    0    0  502    0  0.00000000000E+00  0.00000000000E+00  0.40418180368E+03  0.40418180368E+03  0.00000000000E+00 0.  1.
         21   -1    0    0  503  502 -0.00000000000E+00 -0.00000000000E+00 -0.91805118415E+02  0.91805118415E+02  0.00000000000E+00 0.  1.
          2    1    1    2  501    0  0.16807309229E+02  0.14616255920E+02  0.40251834190E+03  0.40313414162E+03  0.00000000000E+00 0.  1.
         21    1    1    2  503  501 -0.16807309229E+02 -0.14616255920E+02 -0.90141656632E+02  0.92852780470E+02  0.00000000000E+00 0.  1.
</event>
<event>
 4    1  0.2285999E+005  0.2718162E+02  0.7546771E-02  0.1445792E+00
          2   -1    0    0  503    0  0.00000000000E+00  0.00000000000E+00  0.32331960072E+01  0.32331960072E+01  0.00000000000E+00 0.  1.
         21   -1    0    0  501  502 -0.00000000000E+00 -0.00000000000E+00 -0.36952477793E+03  0.36952477793E+03  0.00000000000E+00 0. -1.
          2    1    1    2  501    0 -0.26686085258E+02 -0.51665816402E+01 -0.68013676779E+02  0.73244118817E+02  0.00000000000E+00 0.  1.
         21    1    1    2  503  502  0.26686085258E+02  0.51665816402E+01 -0.29827790515E+03  0.29951385512E+03  0.00000000000E+00 0. -1.
</event>
<event>
 4    1  0.2285999E+005  0.4477609E+02  0.7546771E-02  0.1322563E+00
          2   -1    0    0  503    0  0.00000000000E+00  0.00000000000E+00  0.11955061217E+04  0.11955061217E+04  0.00000000000E+00 0.  1.
         21   -1    0    0  501  502 -0.00000000000E+00 -0.00000000000E+00 -0.23808761400E+01  0.23808761400E+01  0.00000000000E+00 0. -1.
          2    1    1    2  501    0 -0.27112973574E+02  0.35634045093E+02  0.92221676832E+03  0.92330312806E+03  0.00000000000E+00 0.  1.
         21    1    1    2  503  502  0.27112973574E+02 -0.35634045093E+02  0.27090847727E+03  0.27458386982E+03  0.00000000000E+00 0. -1.
</event>
<event>
 4    1  0.2285999E+005  0.2004093E+02  0.7546771E-02  0.1533411E+00
          2   -1    0    0  503    0  0.00000000000E+00  0.00000000000E+00  0.81305144174E+01  0.81305144174E+01  0.00000000000E+00 0. -1.
         21   -1    0    0  501  502 -0.00000000000E+00 -0.00000000000E+00 -0.54464890538E+02  0.54464890538E+02  0.00000000000E+00 0. -1.
          2    1    1    2  501    0 -0.17332440307E+02 -0.10061081641E+02 -0.13622003883E+02  0.24232165412E+02  0.00000000000E+00 0. -1.
         21    1    1    2  503  502  0.17332440307E+02  0.10061081641E+02 -0.32712372238E+02  0.38363239543E+02  0.00000000000E+00 0. -1.
</event>
<event>
 4    1  0.2285999E+005  0.3457640E+02  0.7546771E-02  0.1383566E+00
          2   -1    0    0  502    0  0.00000000000E+00  0.00000000000E+00  0.10962415725E+04  0.10962415725E+04  0.00000000000E+00 0.  1.
         21   -1    0    0  503  502 -0.00000000000E+00 -0.00000000000E+00 -0.13518328224E+02  0.13518328224E+02  0.00000000000E+00 0.  1.
          2    1    1    2  501    0 -0.33618046671E+02  0.80842242102E+01  0.10733889539E+04  0.10739457035E+04  0.00000000000E+00 0.  1.
         21    1    1    2  503  501  0.33618046671E+02 -0.80842242102E+01  0.93342903411E+01  0.35814197174E+02  0.00000000000E+00 0.  1.
</event>
<event>
 4    1  0.2285999E+005  0.2364558E+02  0.7546771E-02  0.1484547E+00
          2   -1    0    0  502    0  0.00000000000E+00  0.00000000000E+00  0.33965304486E+02  0.33965304486E+02  0.00000000000E+00 0.  1.
         21   -1    0    0  503  502 -0.00000000000E+00 -0.00000000000E+00 -0.77229581442E+02  0.77229581442E+02  0.00000000000E+00 0. -1.
          2    1    1    2  501    0  0.15105345282E+02 -0.18191809290E+02  0.27685403346E+02  0.36408720655E+02  0.00000000000E+00 0.  1.
         21    1    1    2  503  501 -0.15105345282E+02  0.18191809290E+02 -0.70949680302E+02  0.74786165274E+02  0.00000000000E+00 0. -1.
</event>
<event>
 4    1  0.2285999E+005  0.2799129E+02  0.7546771E-02  0.1437897E+00
          2   -1    0    0  503    0  0.00000000000E+00  0.00000000000E+00  0.58905361280E+03  0.58905361280E+03  0.00000000000E+00 0.  1.
         21   -1    0    0  501  502 -0.00000000000E+00 -0.00000000000E+00 -0.43544481635E+01  0.43544481635E+01  0.00000000000E+00 0.  1.
          2    1    1    2  501    0  0.15537854405E+02 -0.23282767773E+02  0.53961951780E+03  0.54034501588E+03  0.00000000000E+00 0.  1.
         21    1    1    2  503  502 -0.15537854405E+02  0.23282767773E+02  0.45079646831E+02  0.53063045079E+02  0.00000000000E+00 0.  1.
</event>
<event>
 4    1  0.2285999E+005  0.2179709E+02  0.7546771E-02  0.1508182E+00
          2   -1    0    0  503    0  0.00000000000E+00  0.00000000000E+00  0.37321458480E+03  0.37321458480E+03  0.00000000000E+00 0.  1.
         21   -1    0    0  501  502 -0.00000000000E+00 -0.00000000000E+00 -0.45660851000E+01  0.45660851000E+01  0.00000000000E+00 0. -1.
          2    1    1    2  501    0  0.20964824469E+02  0.59656771528E+01  0.34473640331E+03  0.34542481227E+03  0.00000000000E+00 0.  1.
         21    1    1    2  503  502 -0.20964824469E+02 -0.59656771528E+01  0.23912096397E+02  0.32355857631E+02  0.00000000000E+00 0. -1.
</event>
<event>
 4    1  0.2285999E+005  0.2362460E+02  0.7546771E-02  0.1484800E+00
          2   -1    0    0  502    0  0.00000000000E+00  0.00000000000E+00  0.13011403086E+03  0.13011403086E+03  0.00000000000E+00 0.  1.
         21   -1    0    0  503  502 -0.00000000000E+00 -0.00000000000E+00 -0.87938553043E+01  0.87938553043E+01  0.00000000000E+00 0. -1.
          2    1    1    2  501    0 -0.23588650519E+02 -0.13028429397E+01  0.11036787405E+03  0.11286801786E+03  0.00000000000E+00 0.  1.
         21    1    1    2  503  501  0.23588650519E+02  0.13028429397E+01  0.10952301503E+02  0.26039868303E+02  0.00000000000E+00 0. -1.
</event>
<event>
 4    1  0.2285999E+005  0.2003279E+03  0.7546771E-02  0.1054904E+00
          2   -1    0    0  503    0  0.00000000000E+00  0.00000000000E+00  0.73432225181E+03  0.73432225181E+03  0.00000000000E+00 0. -1.
         21   -1    0    0  501  502 -0.00000000000E+00 -0.00000000000E+00 -0.60931610998E+02  0.60931610998E+02  0.00000000000E+00 0. -1.
          2    1    1    2  501    0 -0.82914283693E+02  0.18236359789E+03  0.46435804947E+03  0.50572686145E+03  0.00000000000E+00 0. -1.
         21    1    1    2  503  502  0.82914283693E+02 -0.18236359789E+03  0.20903259134E+03  0.28952700137E+03  0.00000000000E+00 0. -1.
</event>
<event>
 4    1  0.2285999E+005  0.2751710E+02  0.7546771E-02  0.1442482E+00
          2   -1    0    0  502    0  0.00000000000E+00  0.00000000000E+00  0.20891486112E+01  0.20891486112E+01  0.00000000000E+00 0. -1.
         21   -1    0    0  503  502 -0.00000000000E+00 -0.00000000000E+00 -0.12549086506E+04  0.12549086506E+04  0.00000000000E+00 0.  1.
          2    1    1    2  501    0 -0.15097901896E+02  0.23005306046E+02 -0.96386426304E+02  0.10023738785E+03  0.00000000000E+00 0. -1.
         21    1    1    2  503  501  0.15097901896E+02 -0.23005306046E+02 -0.11564330757E+04  0.11567604113E+04  0.00000000000E+00 0.  1.
</event>
<event>
 4    1  0.2285999E+005  0.2567906E+02  0.7546771E-02  0.1461348E+00
          2   -1    0    0  502    0  0.00000000000E+00  0.00000000000E+00  0.22305933952E+02  0.22305933952E+02  0.00000000000E+00 0.  1.
         21   -1    0    0  503  502 -0.00000000000E+00 -0.00000000000E+00 -0.11369636059E+03  0.11369636059E+03  0.00000000000E+00 0.  1.
          2    1    1    2  501    0 -0.65529454316E+01  0.24828870164E+02  0.12801165016E+02  0.28692920960E+02  0.00000000000E+00 0.  1.
         21    1    1    2  503  501  0.65529454316E+01 -0.24828870164E+02 -0.10419159165E+03  0.10730937358E+03  0.00000000000E+00 0.  1.
</event>
<event>
 4    1  0.2285999E+005  0.2272192E+02  0.7546771E-02  0.1496020E+00
          2   -1    0    0  502    0  0.00000000000E+00  0.00000000000E+00  0.68790201432E+01  0.68790201432E+01  0.00000000000E+00 0.  1.
         21   -1    0    0  503  502 -0.00000000000E+00 -0.00000000000E+00 -0.10410876041E+03  0.10410876041E+03  0.00000000000E+00 0. -1.
          2    1    1    2  501    0 -0.19492042815E+02 -0.11676733655E+02 -0.19297610895E+02  0.29810797175E+02  0.00000000000E+00 0.  1.
         21    1    1    2  503  501  0.19492042815E+02  0.11676733655E+02 -0.77932129376E+02  0.81176983382E+02  0.00000000000E+00 0. -1.
</event>
<event>
 4    1  0.2285999E+005  0.2634884E+02  0.7546771E-02  0.1454261E+00
          2   -1    0    0  503    0  0.00000000000E+00  0.00000000000E+00  0.21486247006E+03  0.21486247006E+03  0.00000000000E+00 0. -1.
         21   -1    0    0  501  502 -0.00000000000E+00 -0.00000000000E+00 -0.57124859828E+02  0.57124859828E+02  0.00000000000E+00 0.  1.
          2    1    1    2  501    0 -0.25741434314E+02 -0.56249463369E+01  0.21096033888E+03  0.21259944977E+03  0.00000000000E+00 0. -1.
         21    1    1    2  503  502  0.25741434314E+02  0.56249463369E+01 -0.53222728641E+02  0.59387880126E+02  0.00000000000E+00 0.  1.
</event>
<event>
 4    1  0.2285999E+005  0.3706108E+02  0.7546771E-02  0.1366625E+00
          2   -1    0    0  502    0  0.00000000000E+00  0.00000000000E+00  0.14760443432E+04  0.14760443432E+04  0.00000000000E+00 0.  1.
         21   -1    0    0  503  502 -0.00000000000E+00 -0.00000000000E+00 -0.36522951470E+01  0.36522951470E+01  0.00000000000E+00 0.  1.
          2    1    1    2  501    0  0.56981834465E+01 -0.36620410452E+02  0.13748770144E+04  0.13753764316E+04  0.00000000000E+00 0.  1.
         21    1    1    2  503  501 -0.56981834465E+01  0.36620410452E+02  0.97515033643E+02  0.10432020678E+03  0.00000000000E+00 0.  1.
</event>
<event>
 4    1  0.2285999E+005  0.2240694E+02  0.7546771E-02  0.1500083E+00
          2   -1    0    0  503    0  0.00000000000E+00  0.00000000000E+00  0.18458668853E+04  0.18458668853E+04  0.00000000000E+00 0. -1.
         21   -1    0    0  501  502 -0.00000000000E+00 -0.00000000000E+00 -0.57557027877E+00  0.57557027877E+00  0.00000000000E+00 0.  1.
          2    1    1    2  501    0  0.21100133456E+02 -0.75402440117E+01  0.15931291936E+04  0.15932867597E+04  0.00000000000E+00 0. -1.
         21    1    1    2  503  502 -0.21100133456E+02  0.75402440117E+01  0.25216212139E+03  0.25315569592E+03  0.00000000000E+00 0.  1.
</event>
<event>
 4    1  0.2285999E+005  0.3052655E+02  0.7546771E-02  0.1415075E+00
          2   -1    0    0  503    0  0.00000000000E+00  0.00000000000E+00  0.85660448395E+03  0.85660448395E+03  0.00000000000E+00 0. -1.
         21   -1    0    0  501  502 -0.00000000000E+00 -0.00000000000E+00 -0.23938150134E+02  0.23938150134E+02  0.00000000000E+00 0. -1.
          2    1    1    2  501    0  0.26118318075E+02 -0.15802009966E+02  0.84648414150E+03  0.84703439828E+03  0.00000000000E+00 0. -1.
         21    1    1    2  503  502 -0.26118318075E+02  0.15802009966E+02 -0.13817807679E+02  0.33508235810E+02  0.00000000000E+00 0. -1.
</event>
<event>
 4    1  0.2285999E+005  0.2181287E+02  0.7546771E-02  0.1507968E+00
          2   -1    0    0  503    0  0.00000000000E+00  0.00000000000E+00  0.19892771620E+03  0.19892771620E+03  0.00000000000E+00 0.  1.
         21   -1    0    0  501  502 -0.00000000000E+00 -0.00000000000E+00 -0.37219153336E+02  0.37219153336E+02  0.00000000000E+00 0. -1.
          2    1    1    2  501    0  0.13137006134E+02  0.17413229170E+02  0.19507082017E+03  0.19628659241E+03  0.00000000000E+00 0.  1.
         21    1    1    2  503  502 -0.13137006134E+02 -0.17413229170E+02 -0.33362257301E+02  0.39860277125E+02  0.00000000000E+00 0. -1.
</event>
<event>
 4    1  0.2285999E+005  0.3220797E+02  0.7546771E-02  0.1401332E+00
          2   -1    0    0  502    0  0.00000000000E+00  0.00000000000E+00  0.98776170234E+02  0.98776170234E+02  0.00000000000E+00 0. -1.
         21   -1    0    0  503  502 -0.00000000000E+00 -0.00000000000E+00 -0.11324434233E+02  0.11324434233E+02  0.00000000000E+00 0. -1.
          2    1    1    2  501    0  0.30704352635E+02  0.97260667152E+01  0.58560787267E+02  0.66833520405E+02  0.00000000000E+00 0. -1.
         21    1    1    2  503  501 -0.30704352635E+02 -0.97260667152E+01  0.28890948734E+02  0.43267084061E+02  0.00000000000E+00 0. -1.
</event>
<event>
 4    1  0.2285999E+005  0.2323543E+02  0.7546771E-02  0.1489563E+00
          2   -1    0    0  503    0  0.00000000000E+00  0.00000000000E+00  0.61711485782E+03  0.61711485782E+03  0.00000000000E+00 0.  1.
         21   -1    0    0  501  502 -0.00000000000E+00 -0.00000000000E+00 -0.68199055095E+01  0.68199055095E+01  0.00000000000E+00 0.  1.
          2    1    1    2  501    0 -0.58922720728E+01 -0.22475906101E+02  0.59641886762E+03  0.59687130177E+03  0.00000000000E+00 0.  1.
         21    1    1    2  503  502  0.58922720728E+01  0.22475906101E+02  0.13876084693E+02  0.27063461561E+02  0.00000000000E+00 0.  1.
</event>
<event>
 4    1  0.2285999E+005  0.2957755E+02  0.7546771E-02  0.1423304E+00
          2   -1    0    0  503    0  0.00000000000E+00  0.00000000000E+00  0.22930969340E+02  0.22930969340E+02  0.00000000000E+00 0. -1.
         21   -1    0    0  501  502 -0.00000000000E+00 -0.00000000000E+00 -0.46866601286E+03  0.46866601286E+03  0.00000000000E+00 0. -1.
          2    1    1    2  501    0  0.18701707801E+02  0.22914567068E+02  0.12714319683E+02  0.32194489957E+02  0.00000000000E+00 0. -1.
         21    1    1    2  503  502 -0.18701707801E+02 -0.22914567068E+02 -0.45844936320E+03  0.45940249224E+03  0.00000000000E+00 0. -1.
</event>
<event>
 4    1  0.2285999E+005  0.3887282E+02  0.7546771E-02  0.1355221E+00
          2   -1    0    0  503    0  0.00000000000E+00  0.00000000000E+00  0.62506877376E+03  0.62506877376E+03  0.00000000000E+00 0. -1.
         21   -1    0    0  501  502 -0.00000000000E+00 -0.00000000000E+00 -0.10785387186E+02  0.10785387186E+02  0.00000000000E+00 0. -1.
          2    1    1    2  501    0  0.38520783751E+02 -0.52197097321E+01  0.58718027914E+03  0.58846561188E+03  0.00000000000E+00 0. -1.
         21    1    1    2  503  502 -0.38520783751E+02  0.52197097321E+01  0.27103107439E+02  0.47388549074E+02  0.00000000000E+00 0. -1.
</event>
<event>
 4    1  0.2285999E+005  0.2112302E+02  0.7546771E-02  0.1517516E+00
          2   -1    0    0  503    0  0.00000000000E+00  0.00000000000E+00  0.16536401760E+04  0.16536401760E+04  0.00000000000E+00 0.  1.
         21   -1    0    0  501  502 -0.00000000000E+00 -0.00000000000E+00 -0.39056889038E+00  0.39056889038E+00  0.00000000000E+00 0.  1.
          2    1    1    2  501    0 -0.21123001032E+02  0.24673184540E-01  0.12864682928E+04  0.12866416946E+04  0.00000000000E+00 0.  1.
         21    1    1    2  503  502  0.21123001032E+02 -0.24673184540E-01  0.36678131425E+03  0.36738905028E+03  0.00000000000E+00 0.  1.
</event>
<event>
 4    1  0.2285999E+005  0.2313904E+02  0.7546771E-02  0.1490760E+00
          2   -1    0    0  503    0  0.00000000000E+00  0.00000000000E+00  0.34408102338E+03  0.34408102338E+03  0.00000000000E+00 0. -1.
         21   -1    0    0  501  502 -0.00000000000E+00 -0.00000000000E+00 -0.40711241257E+01  0.40711241257E+01  0.00000000000E+00 0. -1.
          2    1    1    2  501    0 -0.46604189598E+00  0.23134350440E+02  0.30682674210E+03  0.30769800947E+03  0.00000000000E+00 0. -1.
         21    1    1    2  503  502  0.46604189598E+00 -0.23134350440E+02  0.33183157156E+02  0.40454138035E+02  0.00000000000E+00 0. -1.
</event>
<event>
 4    1  0.2285999E+005  0.4428695E+02  0.7546771E-02  0.1325044E+00
          2   -1    0    0  503    0  0.00000000000E+00  0.00000000000E+00  0.41489119137E+03  0.41489119137E+03  0.00000000000E+00 0.  1.
         21   -1    0    0  501  502 -0.00000000000E+00 -0.00000000000E+00 -0.10574898547E+02  0.10574898547E+02  0.00000000000E+00 0.  1.
          2    1    1    2  501    0 -0.42569980148E+02  0.12211916670E+02  0.36034993148E+03  0.36306116184E+03  0.00000000000E+00 0.  1.
         21    1    1    2  503  502  0.42569980148E+02 -0.12211916670E+02  0.43966361344E+02  0.62404928078E+02  0.00000000000E+00 0.  1.
</event>
<event>
 4    1  0.2285999E+005  0.2390031E+02  0.7546771E-02  0.1481492E+00
          2   -1    0    0  502    0  0.00000000000E+00  0.00000000000E+00  0.70570286701E+03  0.70570286701E+03  0.00000000000E+00 0. -1.
         21   -1    0    0  503  502 -0.00000000000E+00 -0.00000000000E+00 -0.14918955177E+01  0.14918955177E+01  0.00000000000E+00 0. -1.
          2    1    1    2  501    0 -0.22239982787E+01  0.23796608274E+02  0.59125898365E+03  0.59174184446E+03  0.00000000000E+00 0. -1.
         21    1    1    2  503  501  0.22239982787E+01 -0.23796608274E+02  0.11295198784E+03  0.11545291807E+03  0.00000000000E+00 0. -1.
</event>
<event>
 4    1  0.2285999E+005  0.2262501E+02  0.7546771E-02  0.1497261E+00
          2   -1    0    0  503    0  0.00000000000E+00  0.00000000000E+00  0.16722155820E+04  0.16722155820E+04  0.00000000000E+00 0. -1.
         21   -1    0    0  501  502 -0.00000000000E+00 -0.00000000000E+00 -0.15933962889E+01  0.15933962889E+01  0.00000000000E+00 0. -1.
          2    1    1    2  501    0 -0.14906044685E+02 -0.17020598407E+02  0.15875411071E+04  0.15877023202E+04  0.00000000000E+00 0. -1.
         21    1    1    2  503  502  0.14906044685E+02  0.17020598407E+02  0.83081078573E+02  0.86106658019E+02  0.00000000000E+00 0. -1.
</event>
<event>
 4    1  0.2285999E+005  0.2117222E+02  0.7546771E-02  0.1516820E+00
          2   -1    0    0  503    0  0.00000000000E+00  0.00000000000E+00  0.19527246611E+02  0.19527246611E+02  0.00000000000E+00 0. -1.
         21   -1    0    0  501  502 -0.00000000000E+00 -0.00000000000E+00 -0.10719648839E+03  0.10719648839E+03  0.00000000000E+00 0. -1.
          2    1    1    2  501    0  0.20725790345E+02  0.43248874526E+01  0.12334640527E+02  0.24503191503E+02  0.00000000000E+00 0. -1.
         21    1    1    2  503  502 -0.20725790345E+02 -0.43248874526E+01 -0.10000388231E+03  0.10222054350E+03  0.00000000000E+00 0. -1.
</event>
<event>
 4    1  0.2285999E+005  0.3274450E+02  0.7546771E-02  0.1397153E+00
          2   -1    0    0  503    0  0.00000000000E+00  0.00000000000E+00  0.66248252727E+03  0.66248252727E+03  0.00000000000E+00 0. -1.
         21   -1    0    0  501  502 -0.00000000000E+00 -0.00000000000E+00 -0.38937840903E+02  0.38937840903E+02  0.00000000000E+00 0. -1.
          2    1    1    2  501    0  0.11699854183E+02  0.30582929470E+02  0.65511649414E+03  0.65593431307E+03  0.00000000000E+00 0. -1.
         21    1    1    2  503  502 -0.11699854183E+02 -0.30582929470E+02 -0.31571807775E+02  0.45486055106E+02  0.00000000000E+00 0. -1.
</event>
<event>
 4    1  0.2285999E+005  0.2482872E+02  0.7546771E-02  0.1470729E+00
          2   -1    0    0  503    0  0.00000000000E+00  0.00000000000E+00  0.13643356872E+02  0.13643356872E+02  0.00000000000E+00 0. -1.
         21   -1    0    0  501  502 -0.00000000000E+00 -0.00000000000E+00 -0.34378375269E+03  0.34378375269E+03  0.00000000000E+00 0. -1.
          2    1    1    2  501    0 -0.18184670958E+02 -0.16905116135E+02  0.14854407932E+01  0.24873112868E+02  0.00000000000E+00 0. -1.
         21    1    1    2  503  502  0.18184670958E+02  0.16905116135E+02 -0.33162583661E+03  0.33255399669E+03  0.00000000000E+00 0. -1.
</event>
<event>
 4    1  0.2285999E+005  0.2104822E+02  0.7546771E-02  0.1518577E+00
          2   -1    0    0  503    0  0.00000000000E+00  0.00000000000E+00  0.37405344392E+02  0.37405344392E+02  0.00000000000E+00 0.  1.
         21   -1    0    0  501  502 -0.00000000000E+00 -0.00000000000E+00 -0.10579853812E+03  0.10579853812E+03  0.00000000000E+00 0.  1.
          2    1    1    2  501    0 -0.19667743846E+02 -0.74971663988E+01  0.33278562902E+02  0.39376266974E+02  0.00000000000E+00 0.  1.
         21    1    1    2  503  502  0.19667743846E+02  0.74971663988E+01 -0.10167175663E+03  0.10382761554E+03  0.00000000000E+00 0.  1.
</event>
<event>
 4    1  0.2285999E+005  0.2963731E+02  0.7546771E-02  0.1422775E+00
          2   -1    0    0  503    0  0.00000000000E+00  0.00000000000E+00  0.22723587850E+02  0.22723587850E+02  0.00000000000E+00 0.  1.
         21   -1    0    0  501  502 -0.00000000000E+00 -0.00000000000E+00 -0.28896618614E+03  0.28896618614E+03  0.00000000000E+00 0.  1.
          2    1    1    2  501    0 -0.20814142818E+02  0.21098383859E+02  0.11925969183E+02  0.31946816487E+02  0.00000000000E+00 0.  1.
         21    1    1    2  503  502  0.20814142818E+02 -0.21098383859E+02 -0.27816856747E+03  0.27974295751E+03  0.00000000000E+00 0.  1.
</event>
<event>
 4    1  0.2285999E+005  0.2585348E+02  0.7546771E-02  0.1459478E+00
          2   -1    0    0  503    0  0.00000000000E+00  0.00000000000E+00  0.72977110057E+00  0.72977110057E+00  0.00000000000E+00 0.  1.
         21   -1    0    0  501  502 -0.00000000000E+00 -0.00000000000E+00 -0.92553514205E+03  0.92553514205E+03  0.00000000000E+00 0.  1.
          2    1    1    2  501    0 -0.13228943769E+02  0.22212549056E+02 -0.41516536249E+03  0.41596956679E+03  0.00000000000E+00 0.  1.
         21    1    1    2  503  502  0.13228943769E+02 -0.22212549056E+02 -0.50964000846E+03  0.51029534636E+03  0.00000000000E+00 0.  1.
</event>
<event>
 4    1  0.2285999E+005  0.4359107E+02  0.7546771E-02  0.1328637E+00
          2   -1    0    0  502    0  0.00000000000E+00  0.00000000000E+00  0.14169480156E+04  0.14169480156E+04  0.00000000000E+00 0. -1.
         21   -1    0    0  503  502 -0.00000000000E+00 -0.00000000000E+00 -0.44105652104E+01  0.44105652104E+01  0.00000000000E+00 0. -1.
          2    1    1    2  501    0 -0.14540079469E+02 -0.41094618157E+02  0.12991425259E+04  0.12998736416E+04  0.00000000000E+00 0. -1.
         21    1    1    2  503  501  0.14540079469E+02  0.41094618157E+02  0.11339492449E+03  0.12148493920E+03  0.00000000000E+00 0. -1.
</event>
<event>
 4    1  0.2285999E+005  0.3524768E+02  0.7546771E-02  0.1378830E+00
          2   -1    0    0  503    0  0.00000000000E+00  0.00000000000E+00  0.75044727817E+01  0.75044727817E+01  0.00000000000E+00 0.  1.
         21   -1    0    0  501  502 -0.00000000000E+00 -0.00000000000E+00 -0.26312310637E+03  0.26312310637E+03  0.00000000000E+00 0. -1.
          2    1    1    2  501    0 -0.10869866457E+01 -0.35230917897E+02 -0.45411130830E+02  0.57485388744E+02  0.00000000000E+00 0.  1.
         21    1    1    2  503  502  0.10869866457E+01  0.35230917897E+02 -0.21020750275E+03  0.21314219040E+03  0.00000000000E+00 0. -1.
</event>
<event>
 4    1  0.2285999E+005  0.2966714E+02  0.7546771E-02  0.1422511E+00
          2   -1    0    0  502    0  0.00000000000E+00  0.00000000000E+00  0.79303071835E+02  0.79303071835E+02  0.00000000000E+00 0.  1.
         21   -1    0    0  503  502 -0.00000000000E+00 -0.00000000000E+00 -0.12621314419E+02  0.12621314419E+02  0.00000000000E+00 0.  1.
          2    1    1    2  501    0 -0.24007660381E+02  0.17429035970E+02  0.49306392249E+02  0.57543543238E+02  0.00000000000E+00 0.  1.
         21    1    1    2  503  501  0.24007660381E+02 -0.17429035970E+02  0.17375365167E+02  0.34380843016E+02  0.00000000000E+00 0.  1.
</event>
<event>
 4    1  0.2285999E+005  0.3883097E+02  0.7546771E-02  0.1355476E+00
          2   -1    0    0  503    0  0.00000000000E+00  0.00000000000E+00  0.17114570207E+04  0.17114570207E+04  0.00000000000E+00 0. -1.
         21   -1    0    0  501  502 -0.00000000000E+00 -0.00000000000E+00 -0.73629723166E+01  0.73629723166E+01  0.00000000000E+00 0.  1.
          2    1    1    2  501    0 -0.38758300245E+02 -0.23745205349E+01  0.16584022664E+04  0.16588568116E+04  0.00000000000E+00 0. -1.
         21    1    1    2  503  502  0.38758300245E+02  0.23745205349E+01  0.45691782007E+02  0.59963181442E+02  0.00000000000E+00 0.  1.
</event>
<event>
 4    1  0.2285999E+005  0.2355492E+02  0.7546771E-02  0.1485645E+00
          2   -1    0    0  503    0  0.00000000000E+00  0.00000000000E+00  0.17340830949E+03  0.17340830949E+03  0.00000000000E+00 0.  1.
         21   -1    0    0  501  502 -0.00000000000E+00 -0.00000000000E+00 -0.94542623079E+01  0.94542623079E+01  0.00000000000E+00 0. -1.
          2    1    1    2  501    0 -0.15342886755E+02 -0.17872600808E+02  0.15634459117E+03  0.15810902954E+03  0.00000000000E+00 0.  1.
         21    1    1    2  503  502  0.15342886755E+02  0.17872600808E+02  0.76094560130E+01  0.24753542260E+02  0.00000000000E+00 0. -1.
</event>
<event>
 4    1  0.2285999E+005  0.2296472E+02  0.7546771E-02  0.1492942E+00
          2   -1    0    0  502    0  0.00000000000E+00  0.00000000000E+00  0.11958539626E+04  0.11958539626E+04  0.00000000000E+00 0.  1.
         21   -1    0    0  503  502 -0.00000000000E+00 -0.00000000000E+00 -0.62341515312E+00  0.62341515312E+00  0.00000000000E+00 0.  1.
          2    1    1    2  501    0  0.12385887027E+01 -0.22931299338E+02  0.92121586978E+03  0.92150206583E+03  0.00000000000E+00 0.  1.
         21    1    1    2  503  501 -0.12385887027E+01  0.22931299338E+02  0.27401467769E+03  0.27497531195E+03  0.00000000000E+00 0.  1.
</event>
<event>
 4    1  0.2285999E+005  0.3378573E+02  0.7546771E-02  0.1389307E+00
          2   -1    0    0  502    0  0.00000000000E+00  0.00000000000E+00  0.31318886215E+03  0.31318886215E+03  0.00000000000E+00 0.  1.
         21   -1    0    0  503  502 -0.00000000000E+00 -0.00000000000E+00 -0.91135322255E+01  0.91135322255E+01  0.00000000000E+00 0. -1.
          2    1    1    2  501    0 -0.81144579802E+01 -0.32796816645E+02  0.27687312204E+03  0.27892687451E+03  0.00000000000E+00 0.  1.
         21    1    1    2  503  501  0.81144579802E+01  0.32796816645E+02  0.27202207875E+02  0.43375519866E+02  0.00000000000E+00 0. -1.
</event>
<event>
 4    1  0.2285999E+005  0.2692108E+02  0.7546771E-02  0.1448403E+00
          2   -1    0    0  502    0  0.00000000000E+00  0.00000000000E+00  0.42662140524E+03  0.42662140524E+03  0.00000000000E+00 0. -1.
         21   -1    0    0  503  502 -0.00000000000E+00 -0.00000000000E+00 -0.43726651185E+01  0.43726651185E+01  0.00000000000E+00 0.  1.
          2    1    1    2  501    0 -0.25641117380E+02 -0.82022806456E+01  0.37963913698E+03  0.38059245741E+03  0.00000000000E+00 0. -1.
         21    1    1    2  503  501  0.25641117380E+02  0.82022806456E+01  0.42609603145E+02  0.50401612954E+02  0.00000000000E+00 0.  1.
</event>
<event>
 4    1  0.2285999E+005  0.4924870E+02  0.7546771E-02  0.1301463E+00
          2   -1    0    0  503    0  0.00000000000E+00  0.00000000000E+00  0.38956047616E+03  0.38956047616E+03  0.00000000000E+00 0.  1.
         21   -1    0    0  501  502 -0.00000000000E+00 -0.00000000000E+00 -0.16840896470E+02  0.16840896470E+02  0.00000000000E+00 0. -1.
          2    1    1    2  501    0  0.45470528874E+02  0.18917327659E+02  0.34768373484E+03  0.35115440159E+03  0.00000000000E+00 0.  1.
         21    1    1    2  503  502 -0.45470528874E+02 -0.18917327659E+02  0.25035844847E+02  0.55246971040E+02  0.00000000000E+00 0. -1.
</event>
