<event>
 4    1  0.1727273E+004  0.2242311E+02  0.7546771E-02  0.1499872E+00
         21   -1    0    0  503  502  0.00000000000E+00  0.00000000000E+00  0.16843264117E+02  0.16843264117E+02  0.00000000000E+00 0.  1.
         21   -1    0    0  501  503 -0.00000000000E+00 -0.00000000000E+00 -0.55481889547E+02  0.55481889547E+02  0.00000000000E+00 0. -1.
          2    1    1    2  501    0  0.21630016014E+02  0.59108585697E+01 -0.43898175338E+02  0.49293464473E+02  0.00000000000E+00 0. -1.
         -2    1    1    2    0  502 -0.21630016014E+02 -0.59108585697E+01  0.52595499072E+01  0.23031689191E+02  0.00000000000E+00 0.  1.
</event>
<event>
 4    1  0.1727273E+004  0.2516631E+02  0.7546771E-02  0.1466951E+00
         21   -1    0    0  503  502  0.00000000000E+00  0.00000000000E+00  0.15702874389E+02  0.15702874389E+02  0.00000000000E+00 0. -1.
         21   -1    0    0  501  503 -0.00000000000E+00 -0.00000000000E+00 -0.40991272420E+02  0.40991272420E+02  0.00000000000E+00 0.  1.
          2    1    1    2  501    0  0.71416766745E+01 -0.24131715660E+02 -0.16236575755E+02  0.29949451392E+02  0.00000000000E+00 0.  1.
         -2    1    1    2    0  502 -0.71416766745E+01  0.24131715660E+02 -0.90518222759E+01  0.26744695417E+02  0.00000000000E+00 0. -1.
</event>
<event>
 4    1  0.1727273E+004  0.2723001E+02  0.7546771E-02  0.1445311E+00
         21   -1    0    0  501  502  0.00000000000E+00  0.00000000000E+00  0.48836068213E+03  0.48836068213E+03  0.00000000000E+00 0.  1.
         21   -1    0    0  502  503 -0.00000000000E+00 -0.00000000000E+00 -0.15303078561E+01  0.15303078561E+01  0.00000000000E+00 0. -1.
          2    1    1    2  501    0 -0.23390839221E+02  0.13940658600E+02  0.26512153869E+03  0.26651623515E+03  0.00000000000E+00 0.  1.
         -2    1    1    2    0  503  0.23390839221E+02 -0.13940658600E+02  0.22170883559E+03  0.22337475484E+03  0.00000000000E+00 0. -1.
</event>
<event>
 4    1  0.1727273E+004  0.4244207E+02  0.7546771E-02  0.1334740E+00
         21   -1    0    0  501  502  0.00000000000E+00  0.00000000000E+00  0.14860559073E+03  0.14860559073E+03  0.00000000000E+00 0.  1.
         21   -1    0    0  502  503 -0.00000000000E+00 -0.00000000000E+00 -0.19746876950E+02  0.19746876950E+02  0.00000000000E+00 0. -1.
          2    1    1    2  501    0 -0.39338526223E+02  0.15931411419E+02  0.11673753905E+03  0.12421345555E+03  0.00000000000E+00 0.  1.
         -2    1    1    2    0  503  0.39338526223E+02 -0.15931411419E+02  0.12121174728E+02  0.44139012133E+02  0.00000000000E+00 0. -1.
</event>
<event>
 4    1  0.1727273E+004  0.2218766E+02  0.7546771E-02  0.1502959E+00
         21   -1    0    0  503  502  0.00000000000E+00  0.00000000000E+00  0.14867790909E+03  0.14867790909E+03  0.00000000000E+00 0. -1.
         21   -1    0    0  501  503 -0.00000000000E+00 -0.00000000000E+00 -0.44237216433E+01  0.44237216433E+01  0.00000000000E+00 0.  1.
          2    1    1    2  501    0 -0.14526786602E+02 -0.16770952663E+02  0.33736646688E+02  0.40378877052E+02  0.00000000000E+00 0.  1.
         -2    1    1    2    0  502  0.14526786602E+02  0.16770952663E+02  0.11051754076E+03  0.11272275368E+03  0.00000000000E+00 0. -1.
</event>
<event>
 4    1  0.1727273E+004  0.2140720E+02  0.7546771E-02  0.1513530E+00
         21   -1    0    0  501  502  0.00000000000E+00  0.00000000000E+00  0.20616592618E+03  0.20616592618E+03  0.00000000000E+00 0.  1.
         21   -1    0    0  502  503 -0.00000000000E+00 -0.00000000000E+00 -0.22445357586E+01  0.22445357586E+01  0.00000000000E+00 0. -1.
          2    1    1    2  501    0  0.21400281114E+02  0.54418482867E+00  0.11221225962E+03  0.11423598110E+03  0.00000000000E+00 0.  1.
         -2    1    1    2    0  503 -0.21400281114E+02 -0.54418482867E+00  0.91709130802E+02  0.94174480840E+02  0.00000000000E+00 0. -1.
</event>
<event>
 4    1  0.1727273E+004  0.2382999E+02  0.7546771E-02  0.1482331E+00
         21   -1    0    0  501  502  0.00000000000E+00  0.00000000000E+00  0.42319284587E+01  0.42319284587E+01  0.00000000000E+00 0. -1.
         21   -1    0    0  502  503 -0.00000000000E+00 -0.00000000000E+00 -0.17731330024E+03  0.17731330024E+03  0.00000000000E+00 0.  1.
          2    1    1    2  501    0 -0.49982767294E+01  0.23299908714E+02 -0.13130756270E+03  0.13345240552E+03  0.00000000000E+00 0.  1.
         -2    1    1    2    0  503  0.49982767294E+01 -0.23299908714E+02 -0.41773809082E+02  0.48092823182E+02  0.00000000000E+00 0. -1.
</event>
<event>
 4    1  0.1727273E+004  0.2216015E+02  0.7546771E-02  0.1503322E+00
         21   -1    0    0  503  502  0.00000000000E+00  0.00000000000E+00  0.54876427775E+01  0.54876427775E+01  0.00000000000E+00 0.  1.
         21   -1    0    0  501  503 -0.00000000000E+00 -0.00000000000E+00 -0.10313214270E+03  0.10313214270E+03  0.00000000000E+00 0. -1.
          2    1    1    2  501    0 -0.11759081854E+02 -0.18782872827E+02 -0.68577022934E+02  0.72068581172E+02  0.00000000000E+00 0. -1.
         -2    1    1    2    0  502  0.11759081854E+02  0.18782872827E+02 -0.29067476985E+02  0.36551204302E+02  0.00000000000E+00 0.  1.
</event>
<event>
 4    1  0.1727273E+004  0.2145748E+02  0.7546771E-02  0.1512832E+00
         21   -1    0    0  503  502  0.00000000000E+00  0.00000000000E+00  0.38323705193E+01  0.38323705193E+01  0.00000000000E+00 0.  1.
         21   -1    0    0  501  503 -0.00000000000E+00 -0.00000000000E+00 -0.35804757273E+03  0.35804757273E+03  0.00000000000E+00 0. -1.
          2    1    1    2  501    0 -0.21448251431E+02  0.62921383909E+00 -0.32459934517E+03  0.32530779007E+03  0.00000000000E+00 0. -1.
         -2    1    1    2    0  502  0.21448251431E+02 -0.62921383909E+00 -0.29615857046E+02  0.36572153178E+02  0.00000000000E+00 0.  1.
</event>
<event>
 4    1  0.1727273E+004  0.2055854E+02  0.7546771E-02  0.1525662E+00
         21   -1    0    0  501  502  0.00000000000E+00  0.00000000000E+00  0.26520438590E+01  0.26520438590E+01  0.00000000000E+00 0. -1.
         21   -1    0    0  502  503 -0.00000000000E+00 -0.00000000000E+00 -0.16555548843E+03  0.16555548843E+03  0.00000000000E+00 0.  1.
          2    1    1    2  501    0  0.16710955494E+02 -0.11974873829E+02 -0.97709641986E+02  0.99849024902E+02  0.00000000000E+00 0.  1.
         -2    1    1    2    0  503 -0.16710955494E+02  0.11974873829E+02 -0.65193802581E+02  0.68358507384E+02  0.00000000000E+00 0. -1.
</event>
<event>
 4    1  0.1727273E+004  0.3820462E+02  0.7546771E-02  0.1359340E+00
         21   -1    0    0  503  502  0.00000000000E+00  0.00000000000E+00  0.10693328974E+04  0.10693328974E+04  0.00000000000E+00 0. -1.
         21   -1    0    0  501  503 -0.00000000000E+00 -0.00000000000E+00 -0.14057460757E+01  0.14057460757E+01  0.00000000000E+00 0.  1.
          2    1    1    2  501    0  0.35326395973E+02  0.14547815263E+02  0.62515902759E+03  0.62632531719E+03  0.00000000000E+00 0. -1.
         -2    1    1    2    0  502 -0.35326395973E+02 -0.14547815263E+02  0.44276812378E+03  0.44441332633E+03  0.00000000000E+00 0.  1.
</event>
<event>
 4    1  0.1727273E+004  0.4016428E+02  0.7546771E-02  0.1347526E+00
         21   -1    0    0  503  502  0.00000000000E+00  0.00000000000E+00  0.20050086905E+04  0.20050086905E+04  0.00000000000E+00 0.  1.
         21   -1    0    0  501  503 -0.00000000000E+00 -0.00000000000E+00 -0.11942506889E+01  0.11942506889E+01  0.00000000000E+00 0. -1.
          2    1    1    2  501    0 -0.37828012047E+02  0.13498540024E+02  0.42891098096E+03  0.43078741703E+03  0.00000000000E+00 0. -1.
         -2    1    1    2    0  502  0.37828012047E+02 -0.13498540024E+02  0.15749034588E+04  0.15754155242E+04  0.00000000000E+00 0.  1.
</event>
<event>
 4    1  0.1727273E+004  0.2298050E+02  0.7546771E-02  0.1492743E+00
         21   -1    0    0  503  502  0.00000000000E+00  0.00000000000E+00  0.27672848249E+02  0.27672848249E+02  0.00000000000E+00 0. -1.
         21   -1    0    0  501  503 -0.00000000000E+00 -0.00000000000E+00 -0.20169219085E+02  0.20169219085E+02  0.00000000000E+00 0.  1.
          2    1    1    2  501    0 -0.13438687995E+02 -0.18641486612E+02 -0.17974096162E+01  0.23050684143E+02  0.00000000000E+00 0.  1.
         -2    1    1    2    0  502  0.13438687995E+02  0.18641486612E+02  0.93010387800E+01  0.24791383191E+02  0.00000000000E+00 0. -1.
</event>
<event>
 4    1  0.1727273E+004  0.3380949E+02  0.7546771E-02  0.1389132E+00
         21   -1    0    0  503  502  0.00000000000E+00  0.00000000000E+00  0.89155813581E+01  0.89155813581E+01  0.00000000000E+00 0. -1.
         21   -1    0    0  501  503 -0.00000000000E+00 -0.00000000000E+00 -0.13633011350E+03  0.13633011350E+03  0.00000000000E+00 0.  1.
          2    1    1    2  501    0  0.25043609636E+02  0.22713410609E+02 -0.81429328846E+02  0.88169252018E+02  0.00000000000E+00 0.  1.
         -2    1    1    2    0  502 -0.25043609636E+02 -0.22713410609E+02 -0.45985203295E+02  0.57076442839E+02  0.00000000000E+00 0. -1.
</event>
<event>
 4    1  0.1727273E+004  0.2752218E+02  0.7546771E-02  0.1442432E+00
         21   -1    0    0  501  502  0.00000000000E+00  0.00000000000E+00  0.44264081721E+02  0.44264081721E+02  0.00000000000E+00 0. -1.
         21   -1    0    0  502  503 -0.00000000000E+00 -0.00000000000E+00 -0.27407023326E+02  0.27407023326E+02  0.00000000000E+00 0.  1.
          2    1    1    2  501    0  0.19871409980E+02 -0.19041997488E+02  0.30391221355E+02  0.41001182158E+02  0.00000000000E+00 0. -1.
         -2    1    1    2    0  503 -0.19871409980E+02  0.19041997488E+02 -0.13534162960E+02  0.30669922888E+02  0.00000000000E+00 0.  1.
</event>
<event>
 4    1  0.1727273E+004  0.3553407E+02  0.7546771E-02  0.1376847E+00
         21   -1    0    0  501  502  0.00000000000E+00  0.00000000000E+00  0.23529855511E+02  0.23529855511E+02  0.00000000000E+00 0.  1.
         21   -1    0    0  502  503 -0.00000000000E+00 -0.00000000000E+00 -0.99285520902E+02  0.99285520902E+02  0.00000000000E+00 0. -1.
          2    1    1    2  501    0 -0.33598778571E+01 -0.35374869634E+02  0.37488638938E+01  0.35731277074E+02  0.00000000000E+00 0.  1.
         -2    1    1    2    0  503  0.33598778571E+01  0.35374869634E+02 -0.79504529285E+02  0.87084099339E+02  0.00000000000E+00 0. -1.
</event>
<event>
 4    1  0.1727273E+004  0.2455816E+02  0.7546771E-02  0.1473807E+00
         21   -1    0    0  503  502  0.00000000000E+00  0.00000000000E+00  0.17557784585E+02  0.17557784585E+02  0.00000000000E+00 0.  1.
         21   -1    0    0  501  503 -0.00000000000E+00 -0.00000000000E+00 -0.18894211417E+03  0.18894211417E+03  0.00000000000E+00 0. -1.
          2    1    1    2  501    0  0.19466101018E+02 -0.14972448656E+02 -0.17908631135E+03  0.18076230309E+03  0.00000000000E+00 0. -1.
         -2    1    1    2    0  502 -0.19466101018E+02  0.14972448656E+02  0.77019817587E+01  0.25737595665E+02  0.00000000000E+00 0.  1.
</event>
<event>
 4    1  0.1727273E+004  0.2030097E+02  0.7546771E-02  0.1529483E+00
         21   -1    0    0  503  502  0.00000000000E+00  0.00000000000E+00  0.32798156342E+01  0.32798156342E+01  0.00000000000E+00 0.  1.
         21   -1    0    0  501  503 -0.00000000000E+00 -0.00000000000E+00 -0.12895982925E+03  0.12895982925E+03  0.00000000000E+00 0. -1.
          2    1    1    2  501    0  0.91615020465E+01 -0.18116188001E+02 -0.73422688498E+02  0.76177559516E+02  0.00000000000E+00 0.  1.
         -2    1    1    2    0  502 -0.91615020465E+01  0.18116188001E+02 -0.52257325116E+02  0.56062085368E+02  0.00000000000E+00 0. -1.
</event>
<event>
 4    1  0.1727273E+004  0.3791001E+02  0.7546771E-02  0.1361188E+00
         21   -1    0    0  503  502  0.00000000000E+00  0.00000000000E+00  0.20751017473E+03  0.20751017473E+03  0.00000000000E+00 0. -1.
         21   -1    0    0  501  503 -0.00000000000E+00 -0.00000000000E+00 -0.12011419368E+02  0.12011419368E+02  0.00000000000E+00 0.  1.
          2    1    1    2  501    0 -0.18718002460E+02 -0.32966725455E+02  0.26328839730E+02  0.46156000746E+02  0.00000000000E+00 0.  1.
         -2    1    1    2    0  502  0.18718002460E+02  0.32966725455E+02  0.16916991563E+03  0.17336559335E+03  0.00000000000E+00 0. -1.
</event>
<event>
 4    1  0.1727273E+004  0.2493700E+02  0.7546771E-02  0.1469509E+00
         21   -1    0    0  503  502  0.00000000000E+00  0.00000000000E+00  0.10012742308E+02  0.10012742308E+02  0.00000000000E+00 0. -1.
         21   -1    0    0  501  503 -0.00000000000E+00 -0.00000000000E+00 -0.12380162062E+03  0.12380162062E+03  0.00000000000E+00 0.  1.
          2    1    1    2  501    0 -0.13076896660E+02 -0.21233197045E+02 -0.10412638707E+03  0.10707081006E+03  0.00000000000E+00 0.  1.
         -2    1    1    2    0  502  0.13076896660E+02  0.21233197045E+02 -0.96624912432E+01  0.26743552868E+02  0.00000000000E+00 0. -1.
</event>
<event>
 4    1  0.1727273E+004  0.2078982E+02  0.7546771E-02  0.1522287E+00
         21   -1    0    0  501  502  0.00000000000E+00  0.00000000000E+00  0.46705289368E+02  0.46705289368E+02  0.00000000000E+00 0.  1.
         21   -1    0    0  502  503 -0.00000000000E+00 -0.00000000000E+00 -0.10578212012E+02  0.10578212012E+02  0.00000000000E+00 0. -1.
          2    1    1    2  501    0 -0.17510654087E+02  0.11206850027E+02  0.28196864619E+02  0.35032551555E+02  0.00000000000E+00 0. -1.
         -2    1    1    2    0  503  0.17510654087E+02 -0.11206850027E+02  0.79302127362E+01  0.22250949825E+02  0.00000000000E+00 0.  1.
</event>
<event>
 4    1  0.1727273E+004  0.2201977E+02  0.7546771E-02  0.1505188E+00
         21   -1    0    0  503  502  0.00000000000E+00  0.00000000000E+00  0.31882711657E+02  0.31882711657E+02  0.00000000000E+00 0.  1.
         21   -1    0    0  501  503 -0.00000000000E+00 -0.00000000000E+00 -0.13894763851E+03  0.13894763851E+03  0.00000000000E+00 0. -1.
          2    1    1    2  501    0 -0.17758758863E+02 -0.13019099733E+02 -0.13413783257E+03  0.13593317696E+03  0.00000000000E+00 0. -1.
         -2    1    1    2    0  502  0.17758758863E+02  0.13019099733E+02  0.27072905709E+02  0.34897173206E+02  0.00000000000E+00 0.  1.
</event>
<event>
 4    1  0.1727273E+004  0.2393529E+02  0.7546771E-02  0.1481076E+00
         21   -1    0    0  503  502  0.00000000000E+00  0.00000000000E+00  0.15743416517E+02  0.15743416517E+02  0.00000000000E+00 0. -1.
         21   -1    0    0  501  503 -0.00000000000E+00 -0.00000000000E+00 -0.13748375829E+03  0.13748375829E+03  0.00000000000E+00 0.  1.
          2    1    1    2  501    0  0.20194655564E+02  0.12848109670E+02 -0.12656677772E+03  0.12881012094E+03  0.00000000000E+00 0.  1.
         -2    1    1    2    0  502 -0.20194655564E+02 -0.12848109670E+02  0.48264359452E+01  0.24417053864E+02  0.00000000000E+00 0. -1.
</event>
<event>
 4    1  0.1727273E+004  0.2014569E+02  0.7546771E-02  0.1531820E+00
         21   -1    0    0  503  502  0.00000000000E+00  0.00000000000E+00  0.67175499882E+02  0.67175499882E+02  0.00000000000E+00 0.  1.
         21   -1    0    0  501  503 -0.00000000000E+00 -0.00000000000E+00 -0.76234429559E+01  0.76234429559E+01  0.00000000000E+00 0. -1.
          2    1    1    2  501    0 -0.14346476411E+02 -0.14143103538E+02  0.12739975243E+02  0.23836017543E+02  0.00000000000E+00 0.  1.
         -2    1    1    2    0  502  0.14346476411E+02  0.14143103538E+02  0.46812081683E+02  0.50962925295E+02  0.00000000000E+00 0. -1.
</event>
<event>
 4    1  0.1727273E+004  0.3032639E+02  0.7546771E-02  0.1416781E+00
         21   -1    0    0  501  502  0.00000000000E+00  0.00000000000E+00  0.71936702489E+01  0.71936702489E+01  0.00000000000E+00 0.  1.
         21   -1    0    0  502  503 -0.00000000000E+00 -0.00000000000E+00 -0.19100313095E+03  0.19100313095E+03  0.00000000000E+00 0. -1.
          2    1    1    2  501    0  0.49566316972E+01 -0.29918585088E+02 -0.34920617451E+02  0.46250831934E+02  0.00000000000E+00 0.  1.
         -2    1    1    2    0  503 -0.49566316972E+01  0.29918585088E+02 -0.14888884325E+03  0.15194596927E+03  0.00000000000E+00 0. -1.
</event>
<event>
 4    1  0.1727273E+004  0.2683691E+02  0.7546771E-02  0.1449253E+00
         21   -1    0    0  503  502  0.00000000000E+00  0.00000000000E+00  0.37503892473E+02  0.37503892473E+02  0.00000000000E+00 0. -1.
         21   -1    0    0  501  503 -0.00000000000E+00 -0.00000000000E+00 -0.25456078084E+02  0.25456078084E+02  0.00000000000E+00 0.  1.
          2    1    1    2  501    0  0.13077179015E+02  0.23435172856E+02 -0.95772002386E+01  0.28494608301E+02  0.00000000000E+00 0.  1.
         -2    1    1    2    0  502 -0.13077179015E+02 -0.23435172856E+02  0.21625014628E+02  0.34465362256E+02  0.00000000000E+00 0. -1.
</event>
<event>
 4    1  0.1727273E+004  0.2186093E+02  0.7546771E-02  0.1507319E+00
         21   -1    0    0  501  502  0.00000000000E+00  0.00000000000E+00  0.94472320845E+03  0.94472320845E+03  0.00000000000E+00 0. -1.
         21   -1    0    0  502  503 -0.00000000000E+00 -0.00000000000E+00 -0.13523030698E+01  0.13523030698E+01  0.00000000000E+00 0.  1.
          2    1    1    2  501    0  0.13405435861E+02  0.17268308654E+02  0.84593129412E+03  0.84621371683E+03  0.00000000000E+00 0. -1.
         -2    1    1    2    0  503 -0.13405435861E+02 -0.17268308654E+02  0.97439611265E+02  0.99861794686E+02  0.00000000000E+00 0.  1.
</event>
<event>
 4    1  0.1727273E+004  0.3366811E+02  0.7546771E-02  0.1390176E+00
         21   -1    0    0  503  502  0.00000000000E+00  0.00000000000E+00  0.20237171679E+02  0.20237171679E+02  0.00000000000E+00 0.  1.
         21   -1    0    0  501  503 -0.00000000000E+00 -0.00000000000E+00 -0.14336487266E+03  0.14336487266E+03  0.00000000000E+00 0. -1.
          2    1    1    2  501    0  0.11718126609E+02  0.31563064087E+02 -0.12541575506E+03  0.12985627872E+03  0.00000000000E+00 0. -1.
         -2    1    1    2    0  502 -0.11718126609E+02 -0.31563064087E+02  0.22880540792E+01  0.33745765619E+02  0.00000000000E+00 0.  1.
</event>
<event>
 4    1  0.1727273E+004  0.2797109E+02  0.7546771E-02  0.1438090E+00
         21   -1    0    0  503  502  0.00000000000E+00  0.00000000000E+00  0.20303429033E+01  0.20303429033E+01  0.00000000000E+00 0.  1.
         21   -1    0    0  501  503 -0.00000000000E+00 -0.00000000000E+00 -0.50145250277E+03  0.50145250277E+03  0.00000000000E+00 0. -1.
          2    1    1    2  501    0 -0.24903160266E+01 -0.27860015633E+02 -0.37084624551E+03  0.37189961005E+03  0.00000000000E+00 0.  1.
         -2    1    1    2    0  502  0.24903160266E+01  0.27860015633E+02 -0.12857591436E+03  0.13158323563E+03  0.00000000000E+00 0. -1.
</event>
<event>
 4    1  0.1727273E+004  0.2069470E+02  0.7546771E-02  0.1523669E+00
         21   -1    0    0  501  502  0.00000000000E+00  0.00000000000E+00  0.64780249153E+02  0.64780249153E+02  0.00000000000E+00 0.  1.
         21   -1    0    0  502  503 -0.00000000000E+00 -0.00000000000E+00 -0.73938450570E+01  0.73938450570E+01  0.00000000000E+00 0. -1.
          2    1    1    2  501    0  0.20127818538E+02  0.48105691798E+01  0.16951853224E+02  0.26751373473E+02  0.00000000000E+00 0. -1.
         -2    1    1    2    0  503 -0.20127818538E+02 -0.48105691798E+01  0.40434550872E+02  0.45422720737E+02  0.00000000000E+00 0.  1.
</event>
<event>
 4    1  0.1727273E+004  0.2250113E+02  0.7546771E-02  0.1498859E+00
         21   -1    0    0  503  502  0.00000000000E+00  0.00000000000E+00  0.20532740561E+03  0.20532740561E+03  0.00000000000E+00 0. -1.
         21   -1    0    0  501  503 -0.00000000000E+00 -0.00000000000E+00 -0.67798637641E+01  0.67798637641E+01  0.00000000000E+00 0.  1.
          2    1    1    2  501    0 -0.21509909229E+02 -0.66049008099E+01  0.14676329622E+02  0.26864392063E+02  0.00000000000E+00 0.  1.
         -2    1    1    2    0  502  0.21509909229E+02  0.66049008099E+01  0.18387121223E+03  0.18524287731E+03  0.00000000000E+00 0. -1.
</event>
<event>
 4    1  0.1727273E+004  0.2720659E+02  0.7546771E-02  0.1445544E+00
         21   -1    0    0  501  502  0.00000000000E+00  0.00000000000E+00  0.27950727784E+03  0.27950727784E+03  0.00000000000E+00 0. -1.
         21   -1    0    0  502  503 -0.00000000000E+00 -0.00000000000E+00 -0.27493500292E+01  0.27493500292E+01  0.00000000000E+00 0.  1.
          2    1    1    2  501    0 -0.10518973641E+02 -0.25090828061E+02  0.16544509451E+03  0.16766716362E+03  0.00000000000E+00 0. -1.
         -2    1    1    2    0  503  0.10518973641E+02  0.25090828061E+02  0.11131283330E+03  0.11458946424E+03  0.00000000000E+00 0.  1.
</event>
<event>
 4    1  0.1727273E+004  0.2143893E+02  0.7546771E-02  0.1513089E+00
         21   -1    0    0  501  502  0.00000000000E+00  0.00000000000E+00  0.25128236447E+02  0.25128236447E+02  0.00000000000E+00 0.  1.
         21   -1    0    0  502  503 -0.00000000000E+00 -0.00000000000E+00 -0.18887177755E+02  0.18887177755E+02  0.00000000000E+00 0. -1.
          2    1    1    2  501    0 -0.14474089238E+02  0.15815449846E+02 -0.78856025417E+00  0.21453427241E+02  0.00000000000E+00 0. -1.
         -2    1    1    2    0  503  0.14474089238E+02 -0.15815449846E+02  0.70296189460E+01  0.22561986961E+02  0.00000000000E+00 0.  1.
</event>
<event>
 4    1  0.1727273E+004  0.2048908E+02  0.7546771E-02  0.1526686E+00
         21   -1    0    0  503  502  0.00000000000E+00  0.00000000000E+00  0.11608211818E+02  0.11608211818E+02  0.00000000000E+00 0. -1.
         21   -1    0    0  501  503 -0.00000000000E+00 -0.00000000000E+00 -0.67916377819E+02  0.67916377819E+02  0.00000000000E+00 0.  1.
          2    1    1    2  501    0 -0.17016576154E+02 -0.11412216165E+02 -0.55341656144E+02  0.59012722752E+02  0.00000000000E+00 0.  1.
         -2    1    1    2    0  502  0.17016576154E+02  0.11412216165E+02 -0.96650985663E+00  0.20511866885E+02  0.00000000000E+00 0. -1.
</event>
<event>
 4    1  0.1727273E+004  0.2559285E+02  0.7546771E-02  0.1462279E+00
         21   -1    0    0  503  502  0.00000000000E+00  0.00000000000E+00  0.48036177469E+03  0.48036177469E+03  0.00000000000E+00 0. -1.
         21   -1    0    0  501  503 -0.00000000000E+00 -0.00000000000E+00 -0.20449076188E+01  0.20449076188E+01  0.00000000000E+00 0.  1.
          2    1    1    2  501    0 -0.77382383794E+01 -0.24394949115E+02  0.99927318361E+02  0.10315261912E+03  0.00000000000E+00 0.  1.
         -2    1    1    2    0  502  0.77382383794E+01  0.24394949115E+02  0.37838954871E+03  0.37925406319E+03  0.00000000000E+00 0. -1.
</event>
<event>
 4    1  0.1727273E+004  0.2886873E+02  0.7546771E-02  0.1429688E+00
         21   -1    0    0  501  502  0.00000000000E+00  0.00000000000E+00  0.11680769015E+03  0.11680769015E+03  0.00000000000E+00 0. -1.
         21   -1    0    0  502  503 -0.00000000000E+00 -0.00000000000E+00 -0.11104922825E+02  0.11104922825E+02  0.00000000000E+00 0.  1.
          2    1    1    2  501    0 -0.14124325365E+02  0.25177514152E+02  0.91092060536E+02  0.95557141431E+02  0.00000000000E+00 0. -1.
         -2    1    1    2    0  503  0.14124325365E+02 -0.25177514152E+02  0.14610706787E+02  0.32355471542E+02  0.00000000000E+00 0.  1.
</event>
<event>
 4    1  0.1727273E+004  0.2589535E+02  0.7546771E-02  0.1459031E+00
         21   -1    0    0  501  502  0.00000000000E+00  0.00000000000E+00  0.24860349591E+03  0.24860349591E+03  0.00000000000E+00 0. -1.
         21   -1    0    0  502  503 -0.00000000000E+00 -0.00000000000E+00 -0.31737812302E+01  0.31737812302E+01  0.00000000000E+00 0.  1.
          2    1    1    2  501    0  0.23093513395E+02  0.11715759678E+02  0.17149021391E+03  0.17343431856E+03  0.00000000000E+00 0. -1.
         -2    1    1    2    0  503 -0.23093513395E+02 -0.11715759678E+02  0.73939500770E+02  0.78342958586E+02  0.00000000000E+00 0.  1.
</event>
<event>
 4    1  0.1727273E+004  0.3310177E+02  0.7546771E-02  0.1394423E+00
         21   -1    0    0  501  502  0.00000000000E+00  0.00000000000E+00  0.61319204352E+02  0.61319204352E+02  0.00000000000E+00 0. -1.
         21   -1    0    0  502  503 -0.00000000000E+00 -0.00000000000E+00 -0.29081870720E+02  0.29081870720E+02  0.00000000000E+00 0.  1.
          2    1    1    2  501    0  0.28475520990E+02  0.16878149552E+02  0.44185040313E+02  0.55209102650E+02  0.00000000000E+00 0. -1.
         -2    1    1    2    0  503 -0.28475520990E+02 -0.16878149552E+02 -0.11947706682E+02  0.35191972422E+02  0.00000000000E+00 0.  1.
</event>
<event>
 4    1  0.1727273E+004  0.3685999E+02  0.7546771E-02  0.1367938E+00
         21   -1    0    0  501  502  0.00000000000E+00  0.00000000000E+00  0.21251127759E+01  0.21251127759E+01  0.00000000000E+00 0.  1.
         21   -1    0    0  502  503 -0.00000000000E+00 -0.00000000000E+00 -0.11381591264E+04  0.11381591264E+04  0.00000000000E+00 0. -1.
          2    1    1    2  501    0 -0.12431197770E+02  0.34700490255E+02 -0.19057049606E+03  0.19410247982E+03  0.00000000000E+00 0.  1.
         -2    1    1    2    0  503  0.12431197770E+02 -0.34700490255E+02 -0.94546351753E+03  0.94618175933E+03  0.00000000000E+00 0. -1.
</event>
<event>
 4    1  0.1727273E+004  0.2438287E+02  0.7546771E-02  0.1475827E+00
         21   -1    0    0  501  502  0.00000000000E+00  0.00000000000E+00  0.19908371949E+02  0.19908371949E+02  0.00000000000E+00 0. -1.
         21   -1    0    0  502  503 -0.00000000000E+00 -0.00000000000E+00 -0.81240732800E+02  0.81240732800E+02  0.00000000000E+00 0.  1.
          2    1    1    2  501    0 -0.68935704636E+01  0.23388096418E+02  0.95529299585E+01  0.26187455749E+02  0.00000000000E+00 0. -1.
         -2    1    1    2    0  503  0.68935704636E+01 -0.23388096418E+02 -0.70885290810E+02  0.74961649001E+02  0.00000000000E+00 0.  1.
</event>
<event>
 4    1  0.1727273E+004  0.2575994E+02  0.7546771E-02  0.1460479E+00
         21   -1    0    0  501  502  0.00000000000E+00  0.00000000000E+00  0.19742134151E+03  0.19742134151E+03  0.00000000000E+00 0.  1.
         21   -1    0    0  502  503 -0.00000000000E+00 -0.00000000000E+00 -0.34367999898E+01  0.34367999898E+01  0.00000000000E+00 0. -1.
          2    1    1    2  501    0 -0.80902166285E+01 -0.24456555771E+02  0.82098232990E+02  0.86044724332E+02  0.00000000000E+00 0.  1.
         -2    1    1    2    0  503  0.80902166285E+01  0.24456555771E+02  0.11188630853E+03  0.11481341717E+03  0.00000000000E+00 0. -1.
</event>
<event>
 4    1  0.1727273E+004  0.3004624E+02  0.7546771E-02  0.1419195E+00
         21   -1    0    0  503  502  0.00000000000E+00  0.00000000000E+00  0.23212970067E+01  0.23212970067E+01  0.00000000000E+00 0. -1.
         21   -1    0    0  501  503 -0.00000000000E+00 -0.00000000000E+00 -0.96256746380E+03  0.96256746380E+03  0.00000000000E+00 0.  1.
          2    1    1    2  501    0  0.28883463426E+02 -0.82778030549E+01 -0.85256439422E+03  0.85309367761E+03  0.00000000000E+00 0. -1.
         -2    1    1    2    0  502 -0.28883463426E+02  0.82778030549E+01 -0.10768177257E+03  0.11179508320E+03  0.00000000000E+00 0.  1.
</event>
<event>
 4    1  0.1727273E+004  0.3006191E+02  0.7546771E-02  0.1419059E+00
         21   -1    0    0  501  502  0.00000000000E+00  0.00000000000E+00  0.23825871818E+02  0.23825871818E+02  0.00000000000E+00 0. -1.
         21   -1    0    0  502  503 -0.00000000000E+00 -0.00000000000E+00 -0.89592104240E+02  0.89592104240E+02  0.00000000000E+00 0.  1.
          2    1    1    2  501    0 -0.29708139499E+02 -0.45983708113E+01  0.10179707258E+02  0.31738698878E+02  0.00000000000E+00 0. -1.
         -2    1    1    2    0  503  0.29708139499E+02  0.45983708113E+01 -0.75945939681E+02  0.81679277180E+02  0.00000000000E+00 0.  1.
</event>
<event>
 4    1  0.1727273E+004  0.2939763E+02  0.7546771E-02  0.1424904E+00
         21   -1    0    0  501  502  0.00000000000E+00  0.00000000000E+00  0.68519668368E+02  0.68519668368E+02  0.00000000000E+00 0. -1.
         21   -1    0    0  502  503 -0.00000000000E+00 -0.00000000000E+00 -0.17592201660E+02  0.17592201660E+02  0.00000000000E+00 0.  1.
          2    1    1    2  501    0  0.96779254012E+01  0.27758930427E+02  0.48370527716E+02  0.56603254412E+02  0.00000000000E+00 0.  1.
         -2    1    1    2    0  503 -0.96779254012E+01 -0.27758930427E+02  0.25569389914E+01  0.29508615616E+02  0.00000000000E+00 0. -1.
</event>
<event>
 4    1  0.1727273E+004  0.3195094E+02  0.7546771E-02  0.1403368E+00
         21   -1    0    0  503  502  0.00000000000E+00  0.00000000000E+00  0.20565297871E+03  0.20565297871E+03  0.00000000000E+00 0.  1.
         21   -1    0    0  501  503 -0.00000000000E+00 -0.00000000000E+00 -0.85892105847E+01  0.85892105847E+01  0.00000000000E+00 0. -1.
          2    1    1    2  501    0  0.22097310242E+02 -0.23077503664E+02  0.28939016548E+02  0.43108339959E+02  0.00000000000E+00 0. -1.
         -2    1    1    2    0  502 -0.22097310242E+02  0.23077503664E+02  0.16812475157E+03  0.17113384933E+03  0.00000000000E+00 0.  1.
</event>
<event>
 4    1  0.1727273E+004  0.2154722E+02  0.7546771E-02  0.1511593E+00
         21   -1    0    0  501  502  0.00000000000E+00  0.00000000000E+00  0.53164440699E+00  0.53164440699E+00  0.00000000000E+00 0.  1.
         21   -1    0    0  502  503 -0.00000000000E+00 -0.00000000000E+00 -0.88268144628E+03  0.88268144628E+03  0.00000000000E+00 0. -1.
          2    1    1    2  501    0 -0.21390838501E+02 -0.25912615001E+01 -0.48661302743E+03  0.48708984908E+03  0.00000000000E+00 0. -1.
         -2    1    1    2    0  503  0.21390838501E+02  0.25912615001E+01 -0.39553677444E+03  0.39612324161E+03  0.00000000000E+00 0.  1.
</event>
<event>
 4    1  0.1727273E+004  0.2074142E+02  0.7546771E-02  0.1522989E+00
         21   -1    0    0  503  502  0.00000000000E+00  0.00000000000E+00  0.87058349864E+01  0.87058349864E+01  0.00000000000E+00 0.  1.
         21   -1    0    0  501  503 -0.00000000000E+00 -0.00000000000E+00 -0.57607175082E+02  0.57607175082E+02  0.00000000000E+00 0. -1.
          2    1    1    2  501    0 -0.19878543265E+02 -0.59203130727E+01 -0.36953446363E+02  0.42376453218E+02  0.00000000000E+00 0. -1.
         -2    1    1    2    0  502  0.19878543265E+02  0.59203130727E+01 -0.11947893733E+02  0.23936556851E+02  0.00000000000E+00 0.  1.
</event>
<event>
 4    1  0.1727273E+004  0.2122625E+02  0.7546771E-02  0.1516059E+00
         21   -1    0    0  503  502  0.00000000000E+00  0.00000000000E+00  0.15435500543E+03  0.15435500543E+03  0.00000000000E+00 0. -1.
         21   -1    0    0  501  503 -0.00000000000E+00 -0.00000000000E+00 -0.80473227076E+01  0.80473227076E+01  0.00000000000E+00 0.  1.
          2    1    1    2  501    0 -0.11296195075E+02  0.17970799094E+02  0.83312209024E+01  0.22802694687E+02  0.00000000000E+00 0.  1.
         -2    1    1    2    0  502  0.11296195075E+02 -0.17970799094E+02  0.13797646182E+03  0.13959963345E+03  0.00000000000E+00 0. -1.
</event>
<event>
 4    1  0.1727273E+004  0.2478281E+02  0.7546771E-02  0.1471248E+00
         21   -1    0    0  501  502  0.00000000000E+00  0.00000000000E+00  0.11576117325E+02  0.11576117325E+02  0.00000000000E+00 0.  1.
         21   -1    0    0  502  503 -0.00000000000E+00 -0.00000000000E+00 -0.65152118964E+02  0.65152118964E+02  0.00000000000E+00 0. -1.
          2    1    1    2  501    0 -0.70031096986E+01 -0.23772759469E+02 -0.10257882056E+02  0.26821852704E+02  0.00000000000E+00 0. -1.
         -2    1    1    2    0  503  0.70031096986E+01  0.23772759469E+02 -0.43318119584E+02  0.49906383585E+02  0.00000000000E+00 0.  1.
</event>
<event>
 4    1  0.1727273E+004  0.3595047E+02  0.7546771E-02  0.1374001E+00
         21   -1    0    0  503  502  0.00000000000E+00  0.00000000000E+00  0.97711850745E+02  0.97711850745E+02  0.00000000000E+00 0. -1.
         21   -1    0    0  501  503 -0.00000000000E+00 -0.00000000000E+00 -0.17567345525E+02  0.17567345525E+02  0.00000000000E+00 0.  1.
          2    1    1    2  501    0  0.39332482639E+01 -0.35734663015E+02  0.11421961775E+02  0.37721317494E+02  0.00000000000E+00 0.  1.
         -2    1    1    2    0  502 -0.39332482639E+01  0.35734663015E+02  0.68722543446E+02  0.77557878777E+02  0.00000000000E+00 0. -1.
</event>
<event>
 4    1  0.1727273E+004  0.2988167E+02  0.7546771E-02  0.1420628E+00
         21   -1    0    0  503  502  0.00000000000E+00  0.00000000000E+00  0.14358211406E+03  0.14358211406E+03  0.00000000000E+00 0.  1.
         21   -1    0    0  501  503 -0.00000000000E+00 -0.00000000000E+00 -0.97998597556E+01  0.97998597556E+01  0.00000000000E+00 0. -1.
          2    1    1    2  501    0  0.70665462307E+01 -0.29034085249E+02  0.20531732125E+02  0.36255567930E+02  0.00000000000E+00 0.  1.
         -2    1    1    2    0  502 -0.70665462307E+01  0.29034085249E+02  0.11325052218E+03  0.11712640589E+03  0.00000000000E+00 0. -1.
</event>
<event>
 4    1  0.1727273E+004  0.2017167E+02  0.7546771E-02  0.1531427E+00
         21   -1    0    0  503  502  0.00000000000E+00  0.00000000000E+00  0.49239136688E+02  0.49239136688E+02  0.00000000000E+00 0.  1.
         21   -1    0    0  501  503 -0.00000000000E+00 -0.00000000000E+00 -0.19460006192E+02  0.19460006192E+02  0.00000000000E+00 0. -1.
          2    1    1    2  501    0 -0.65763158141E+01 -0.19069569484E+02 -0.11165227954E+02  0.23055557362E+02  0.00000000000E+00 0. -1.
         -2    1    1    2    0  502  0.65763158141E+01  0.19069569484E+02  0.40944358451E+02  0.45643585518E+02  0.00000000000E+00 0.  1.
</event>
<event>
 4    1  0.1727273E+004  0.3823546E+02  0.7546771E-02  0.1359148E+00
         21   -1    0    0  503  502  0.00000000000E+00  0.00000000000E+00  0.17586442690E+02  0.17586442690E+02  0.00000000000E+00 0.  1.
         21   -1    0    0  501  503 -0.00000000000E+00 -0.00000000000E+00 -0.40698231766E+03  0.40698231766E+03  0.00000000000E+00 0. -1.
          2    1    1    2  501    0  0.30383605857E+02 -0.23211786076E+02 -0.38406488270E+03  0.38596344988E+03  0.00000000000E+00 0. -1.
         -2    1    1    2    0  502 -0.30383605857E+02  0.23211786076E+02 -0.53309922644E+01  0.38605310467E+02  0.00000000000E+00 0.  1.
</event>
<event>
 4    1  0.1727273E+004  0.2232539E+02  0.7546771E-02  0.1501148E+00
         21   -1    0    0  501  502  0.00000000000E+00  0.00000000000E+00  0.30303314198E+02  0.30303314198E+02  0.00000000000E+00 0.  1.
         21   -1    0    0  502  503 -0.00000000000E+00 -0.00000000000E+00 -0.28034123600E+02  0.28034123600E+02  0.00000000000E+00 0. -1.
          2    1    1    2  501    0 -0.19907214517E+02 -0.10105724070E+02  0.19886556329E+02  0.29898126553E+02  0.00000000000E+00 0.  1.
         -2    1    1    2    0  503  0.19907214517E+02  0.10105724070E+02 -0.17617365731E+02  0.28439311245E+02  0.00000000000E+00 0. -1.
</event>
<event>
 4    1  0.1727273E+004  0.2083683E+02  0.7546771E-02  0.1521607E+00
         21   -1    0    0  503  502  0.00000000000E+00  0.00000000000E+00  0.20717834392E+02  0.20717834392E+02  0.00000000000E+00 0. -1.
         21   -1    0    0  501  503 -0.00000000000E+00 -0.00000000000E+00 -0.30809762429E+02  0.30809762429E+02  0.00000000000E+00 0.  1.
          2    1    1    2  501    0 -0.24871609512E+01 -0.20687860910E+02 -0.19615826867E+02  0.28617376230E+02  0.00000000000E+00 0.  1.
         -2    1    1    2    0  502  0.24871609512E+01  0.20687860910E+02  0.95238988297E+01  0.22910220592E+02  0.00000000000E+00 0. -1.
</event>
<event>
 4    1  0.1727273E+004  0.2037676E+02  0.7546771E-02  0.1528352E+00
         21   -1    0    0  503  502  0.00000000000E+00  0.00000000000E+00  0.41123642070E+02  0.41123642070E+02  0.00000000000E+00 0.  1.
         21   -1    0    0  501  503 -0.00000000000E+00 -0.00000000000E+00 -0.42025838490E+02  0.42025838490E+02  0.00000000000E+00 0. -1.
          2    1    1    2  501    0 -0.19841149461E+02 -0.46412286068E+01 -0.36689171093E+02  0.41967934073E+02  0.00000000000E+00 0. -1.
         -2    1    1    2    0  502  0.19841149461E+02  0.46412286068E+01  0.35786974672E+02  0.41181546488E+02  0.00000000000E+00 0.  1.
</event>
<event>
 4    1  0.1727273E+004  0.2774514E+02  0.7546771E-02  0.1440263E+00
         21   -1    0    0  501  502  0.00000000000E+00  0.00000000000E+00  0.27843288512E+03  0.27843288512E+03  0.00000000000E+00 0.  1.
         21   -1    0    0  502  503 -0.00000000000E+00 -0.00000000000E+00 -0.45907909817E+01  0.45907909817E+01  0.00000000000E+00 0. -1.
          2    1    1    2  501    0 -0.27076036221E+02 -0.60564821340E+01  0.22617063902E+03  0.22786608056E+03  0.00000000000E+00 0.  1.
         -2    1    1    2    0  503  0.27076036221E+02  0.60564821340E+01  0.47671455118E+02  0.55157595546E+02  0.00000000000E+00 0. -1.
</event>
<event>
 4    1  0.1727273E+004  0.5652646E+02  0.7546771E-02  0.1272114E+00
         21   -1    0    0  503  502  0.00000000000E+00  0.00000000000E+00  0.48559613502E+03  0.48559613502E+03  0.00000000000E+00 0. -1.
         21   -1    0    0  501  503 -0.00000000000E+00 -0.00000000000E+00 -0.40149284683E+02  0.40149284683E+02  0.00000000000E+00 0.  1.
          2    1    1    2  501    0 -0.54080555596E+02  0.16447932703E+02 -0.17644986847E+02  0.59216438128E+02  0.00000000000E+00 0.  1.
         -2    1    1    2    0  502  0.54080555596E+02 -0.16447932703E+02  0.46309183718E+03  0.46652898157E+03  0.00000000000E+00 0. -1.
</event>
<event>
 4    1  0.1727273E+004  0.3007466E+02  0.7546771E-02  0.1418949E+00
         21   -1    0    0  501  502  0.00000000000E+00  0.00000000000E+00  0.25786966473E+01  0.25786966473E+01  0.00000000000E+00 0. -1.
         21   -1    0    0  502  503 -0.00000000000E+00 -0.00000000000E+00 -0.43308015845E+03  0.43308015845E+03  0.00000000000E+00 0.  1.
          2    1    1    2  501    0 -0.23761748986E+02 -0.18435407330E+02 -0.12027675687E+03  0.12397976933E+03  0.00000000000E+00 0. -1.
         -2    1    1    2    0  503  0.23761748986E+02  0.18435407330E+02 -0.31022470493E+03  0.31167908577E+03  0.00000000000E+00 0.  1.
</event>
<event>
 4    1  0.1727273E+004  0.2029363E+02  0.7546771E-02  0.1529593E+00
         21   -1    0    0  501  502  0.00000000000E+00  0.00000000000E+00  0.30547585111E+02  0.30547585111E+02  0.00000000000E+00 0. -1.
         21   -1    0    0  502  503 -0.00000000000E+00 -0.00000000000E+00 -0.16180867061E+02  0.16180867061E+02  0.00000000000E+00 0.  1.
          2    1    1    2  501    0  0.11014064474E+02 -0.17044703915E+02  0.16726035678E+02  0.26298133342E+02  0.00000000000E+00 0. -1.
         -2    1    1    2    0  503 -0.11014064474E+02  0.17044703915E+02 -0.23593176279E+01  0.20430318829E+02  0.00000000000E+00 0.  1.
</event>
<event>
 4    1  0.1727273E+004  0.2456238E+02  0.7546771E-02  0.1473759E+00
         21   -1    0    0  503  502  0.00000000000E+00  0.00000000000E+00  0.26155127114E+03  0.26155127114E+03  0.00000000000E+00 0. -1.
         21   -1    0    0  501  503 -0.00000000000E+00 -0.00000000000E+00 -0.65033738961E+01  0.65033738961E+01  0.00000000000E+00 0.  1.
          2    1    1    2  501    0  0.23437796906E+02  0.73471223127E+01  0.19857961156E+02  0.31585584550E+02  0.00000000000E+00 0.  1.
         -2    1    1    2    0  502 -0.23437796906E+02 -0.73471223127E+01  0.23518993609E+03  0.23646906049E+03  0.00000000000E+00 0. -1.
</event>
<event>
 4    1  0.1727273E+004  0.2998306E+02  0.7546771E-02  0.1419744E+00
         21   -1    0    0  503  502  0.00000000000E+00  0.00000000000E+00  0.66390082918E+02  0.66390082918E+02  0.00000000000E+00 0. -1.
         21   -1    0    0  501  503 -0.00000000000E+00 -0.00000000000E+00 -0.39505392734E+02  0.39505392734E+02  0.00000000000E+00 0.  1.
          2    1    1    2  501    0  0.75325738904E+01  0.29021440213E+02 -0.29482512547E+02  0.42049996522E+02  0.00000000000E+00 0.  1.
         -2    1    1    2    0  502 -0.75325738904E+01 -0.29021440213E+02  0.56367202732E+02  0.63845479129E+02  0.00000000000E+00 0. -1.
</event>
<event>
 4    1  0.1727273E+004  0.2026625E+02  0.7546771E-02  0.1530004E+00
         21   -1    0    0  501  502  0.00000000000E+00  0.00000000000E+00  0.37117697017E+03  0.37117697017E+03  0.00000000000E+00 0. -1.
         21   -1    0    0  502  503 -0.00000000000E+00 -0.00000000000E+00 -0.16027163657E+01  0.16027163657E+01  0.00000000000E+00 0.  1.
          2    1    1    2  501    0  0.15330898499E+02  0.13254598470E+02  0.28849542765E+03  0.28920638410E+03  0.00000000000E+00 0. -1.
         -2    1    1    2    0  503 -0.15330898499E+02 -0.13254598470E+02  0.81078826158E+02  0.83573302439E+02  0.00000000000E+00 0.  1.
</event>
<event>
 4    1  0.1727273E+004  0.2376794E+02  0.7546771E-02  0.1483074E+00
         21   -1    0    0  501  502  0.00000000000E+00  0.00000000000E+00  0.76233777233E+02  0.76233777233E+02  0.00000000000E+00 0.  1.
         21   -1    0    0  502  503 -0.00000000000E+00 -0.00000000000E+00 -0.85652284169E+01  0.85652284169E+01  0.00000000000E+00 0. -1.
          2    1    1    2  501    0  0.10452069307E+02 -0.21346411965E+02  0.49403574043E+02  0.54823609739E+02  0.00000000000E+00 0.  1.
         -2    1    1    2    0  503 -0.10452069307E+02  0.21346411965E+02  0.18264974773E+02  0.29975395911E+02  0.00000000000E+00 0. -1.
</event>
<event>
 4    1  0.1727273E+004  0.2212865E+02  0.7546771E-02  0.1503739E+00
         21   -1    0    0  503  502  0.00000000000E+00  0.00000000000E+00  0.18692563718E+01  0.18692563718E+01  0.00000000000E+00 0. -1.
         21   -1    0    0  501  503 -0.00000000000E+00 -0.00000000000E+00 -0.36366494166E+03  0.36366494166E+03  0.00000000000E+00 0.  1.
          2    1    1    2  501    0  0.20345655917E+02 -0.87023886437E+01 -0.27754975813E+03  0.27843050393E+03  0.00000000000E+00 0.  1.
         -2    1    1    2    0  502 -0.20345655917E+02  0.87023886437E+01 -0.84245927162E+02  0.87103694102E+02  0.00000000000E+00 0. -1.
</event>
<event>
 4    1  0.1727273E+004  0.2656750E+02  0.7546771E-02  0.1452002E+00
         21   -1    0    0  503  502  0.00000000000E+00  0.00000000000E+00  0.86365169413E+01  0.86365169413E+01  0.00000000000E+00 0. -1.
         21   -1    0    0  501  503 -0.00000000000E+00 -0.00000000000E+00 -0.81942771534E+02  0.81942771534E+02  0.00000000000E+00 0.  1.
          2    1    1    2  501    0 -0.26169059768E+02 -0.45839102690E+01 -0.34326175651E+02  0.43406431060E+02  0.00000000000E+00 0. -1.
         -2    1    1    2    0  502  0.26169059768E+02  0.45839102690E+01 -0.38980078941E+02  0.47172857416E+02  0.00000000000E+00 0.  1.
</event>
<event>
 4    1  0.1727273E+004  0.2426094E+02  0.7546771E-02  0.1477244E+00
         21   -1    0    0  501  502  0.00000000000E+00  0.00000000000E+00  0.16951876630E+02  0.16951876630E+02  0.00000000000E+00 0. -1.
         21   -1    0    0  502  503 -0.00000000000E+00 -0.00000000000E+00 -0.10548295034E+03  0.10548295034E+03  0.00000000000E+00 0.  1.
          2    1    1    2  501    0 -0.13689844506E+01 -0.24222285347E+02  0.58742462225E+01  0.24961970967E+02  0.00000000000E+00 0. -1.
         -2    1    1    2    0  503  0.13689844506E+01  0.24222285347E+02 -0.94405319934E+02  0.97472856005E+02  0.00000000000E+00 0.  1.
</event>
<event>
 4    1  0.1727273E+004  0.3793320E+02  0.7546771E-02  0.1361042E+00
         21   -1    0    0  503  502  0.00000000000E+00  0.00000000000E+00  0.10831990253E+03  0.10831990253E+03  0.00000000000E+00 0.  1.
         21   -1    0    0  501  503 -0.00000000000E+00 -0.00000000000E+00 -0.22007086611E+02  0.22007086611E+02  0.00000000000E+00 0. -1.
          2    1    1    2  501    0  0.24321606829E+02  0.29109913193E+02  0.21306324700E+01  0.37992988822E+02  0.00000000000E+00 0. -1.
         -2    1    1    2    0  502 -0.24321606829E+02 -0.29109913193E+02  0.84182183448E+02  0.92334000319E+02  0.00000000000E+00 0.  1.
</event>
<event>
 4    1  0.1727273E+004  0.2547371E+02  0.7546771E-02  0.1463573E+00
         21   -1    0    0  503  502  0.00000000000E+00  0.00000000000E+00  0.29415809629E+03  0.29415809629E+03  0.00000000000E+00 0.  1.
         21   -1    0    0  501  503 -0.00000000000E+00 -0.00000000000E+00 -0.26170945696E+01  0.26170945696E+01  0.00000000000E+00 0. -1.
          2    1    1    2  501    0 -0.24442256174E+02  0.71753668612E+01  0.86958748853E+02  0.90613099376E+02  0.00000000000E+00 0. -1.
         -2    1    1    2    0  502  0.24442256174E+02 -0.71753668612E+01  0.20458225286E+03  0.20616209148E+03  0.00000000000E+00 0.  1.
</event>
<event>
 4    1  0.1727273E+004  0.2151400E+02  0.7546771E-02  0.1512051E+00
         21   -1    0    0  501  502  0.00000000000E+00  0.00000000000E+00  0.27961765087E+02  0.27961765087E+02  0.00000000000E+00 0. -1.
         21   -1    0    0  502  503 -0.00000000000E+00 -0.00000000000E+00 -0.26035973442E+03  0.26035973442E+03  0.00000000000E+00 0.  1.
          2    1    1    2  501    0 -0.33226161877E+01 -0.21255883430E+02  0.23303817399E+02  0.31716246059E+02  0.00000000000E+00 0. -1.
         -2    1    1    2    0  503  0.33226161877E+01  0.21255883430E+02 -0.25570178674E+03  0.25660525345E+03  0.00000000000E+00 0.  1.
</event>
<event>
 4    1  0.1727273E+004  0.2396049E+02  0.7546771E-02  0.1480777E+00
         21   -1    0    0  501  502  0.00000000000E+00  0.00000000000E+00  0.66680195846E+02  0.66680195846E+02  0.00000000000E+00 0.  1.
         21   -1    0    0  502  503 -0.00000000000E+00 -0.00000000000E+00 -0.26922311485E+02  0.26922311485E+02  0.00000000000E+00 0. -1.
          2    1    1    2  501    0  0.13594917714E+02 -0.19730261700E+02  0.58477843039E+02  0.63196227268E+02  0.00000000000E+00 0.  1.
         -2    1    1    2    0  503 -0.13594917714E+02  0.19730261700E+02 -0.18719958678E+02  0.30406280063E+02  0.00000000000E+00 0. -1.
</event>
<event>
 4    1  0.1727273E+004  0.2425019E+02  0.7546771E-02  0.1477369E+00
         21   -1    0    0  503  502  0.00000000000E+00  0.00000000000E+00  0.14858703958E+02  0.14858703958E+02  0.00000000000E+00 0.  1.
         21   -1    0    0  501  503 -0.00000000000E+00 -0.00000000000E+00 -0.39618259296E+02  0.39618259296E+02  0.00000000000E+00 0. -1.
          2    1    1    2  501    0  0.43901436341E+01  0.23849491954E+02 -0.11507023177E+02  0.26841818306E+02  0.00000000000E+00 0.  1.
         -2    1    1    2    0  502 -0.43901436341E+01 -0.23849491954E+02 -0.13252532161E+02  0.27635144947E+02  0.00000000000E+00 0. -1.
</event>
<event>
 4    1  0.1727273E+004  0.2245601E+02  0.7546771E-02  0.1499444E+00
         21   -1    0    0  501  502  0.00000000000E+00  0.00000000000E+00  0.38568165877E+01  0.38568165877E+01  0.00000000000E+00 0. -1.
         21   -1    0    0  502  503 -0.00000000000E+00 -0.00000000000E+00 -0.36639210062E+03  0.36639210062E+03  0.00000000000E+00 0.  1.
          2    1    1    2  501    0 -0.10062884302E+02 -0.20075123853E+02 -0.32804463706E+02  0.39754308914E+02  0.00000000000E+00 0. -1.
         -2    1    1    2    0  503  0.10062884302E+02  0.20075123853E+02 -0.32973082033E+03  0.33049460830E+03  0.00000000000E+00 0.  1.
</event>
<event>
 4    1  0.1727273E+004  0.4831287E+02  0.7546771E-02  0.1305658E+00
         21   -1    0    0  501  502  0.00000000000E+00  0.00000000000E+00  0.75745575404E+02  0.75745575404E+02  0.00000000000E+00 0.  1.
         21   -1    0    0  502  503 -0.00000000000E+00 -0.00000000000E+00 -0.36416186474E+02  0.36416186474E+02  0.00000000000E+00 0. -1.
          2    1    1    2  501    0  0.44257746783E+02 -0.19374849180E+02  0.41658010108E+02  0.63792811015E+02  0.00000000000E+00 0.  1.
         -2    1    1    2    0  503 -0.44257746783E+02  0.19374849180E+02 -0.23286211784E+01  0.48368950863E+02  0.00000000000E+00 0. -1.
</event>
<event>
 4    1  0.1727273E+004  0.2432079E+02  0.7546771E-02  0.1476547E+00
         21   -1    0    0  501  502  0.00000000000E+00  0.00000000000E+00  0.13876990567E+02  0.13876990567E+02  0.00000000000E+00 0. -1.
         21   -1    0    0  502  503 -0.00000000000E+00 -0.00000000000E+00 -0.84049563875E+02  0.84049563875E+02  0.00000000000E+00 0.  1.
          2    1    1    2  501    0 -0.16443504408E+01 -0.24265142840E+02 -0.71198662396E+00  0.24331213911E+02  0.00000000000E+00 0. -1.
         -2    1    1    2    0  503  0.16443504408E+01  0.24265142840E+02 -0.69460586684E+02  0.73595340531E+02  0.00000000000E+00 0.  1.
</event>
<event>
 4    1  0.1727273E+004  0.4241460E+02  0.7546771E-02  0.1334889E+00
         21   -1    0    0  503  502  0.00000000000E+00  0.00000000000E+00  0.94817652516E+02  0.94817652516E+02  0.00000000000E+00 0.  1.
         21   -1    0    0  501  503 -0.00000000000E+00 -0.00000000000E+00 -0.19263585564E+02  0.19263585564E+02  0.00000000000E+00 0. -1.
          2    1    1    2  501    0 -0.28418612728E+02 -0.31486199360E+02  0.44779830078E+02  0.61678452326E+02  0.00000000000E+00 0.  1.
         -2    1    1    2    0  502  0.28418612728E+02  0.31486199360E+02  0.30774236874E+02  0.52402785753E+02  0.00000000000E+00 0. -1.
</event>
<event>
 4    1  0.1727273E+004  0.2107795E+02  0.7546771E-02  0.1518155E+00
         21   -1    0    0  501  502  0.00000000000E+00  0.00000000000E+00  0.12197357944E+03  0.12197357944E+03  0.00000000000E+00 0.  1.
         21   -1    0    0  502  503 -0.00000000000E+00 -0.00000000000E+00 -0.36708801163E+01  0.36708801163E+01  0.00000000000E+00 0. -1.
          2    1    1    2  501    0 -0.20981528174E+02  0.20138469255E+01  0.64682020869E+02  0.68029728264E+02  0.00000000000E+00 0. -1.
         -2    1    1    2    0  503  0.20981528174E+02 -0.20138469255E+01  0.53620678454E+02  0.57614731292E+02  0.00000000000E+00 0.  1.
</event>
<event>
 4    1  0.1727273E+004  0.2123833E+02  0.7546771E-02  0.1515889E+00
         21   -1    0    0  501  502  0.00000000000E+00  0.00000000000E+00  0.90280811936E+02  0.90280811936E+02  0.00000000000E+00 0.  1.
         21   -1    0    0  502  503 -0.00000000000E+00 -0.00000000000E+00 -0.55646132173E+01  0.55646132173E+01  0.00000000000E+00 0. -1.
          2    1    1    2  501    0 -0.16467929859E+02 -0.13411702744E+02  0.57673654580E+02  0.61459880547E+02  0.00000000000E+00 0.  1.
         -2    1    1    2    0  503  0.16467929859E+02  0.13411702744E+02  0.27042544139E+02  0.34385544605E+02  0.00000000000E+00 0. -1.
</event>
<event>
 4    1  0.1727273E+004  0.2273838E+02  0.7546771E-02  0.1495810E+00
         21   -1    0    0  501  502  0.00000000000E+00  0.00000000000E+00  0.13433789923E+02  0.13433789923E+02  0.00000000000E+00 0.  1.
         21   -1    0    0  502  503 -0.00000000000E+00 -0.00000000000E+00 -0.81560008915E+02  0.81560008915E+02  0.00000000000E+00 0. -1.
          2    1    1    2  501    0  0.59782786059E+01 -0.21938414221E+02  0.45336222865E+00  0.22742897154E+02  0.00000000000E+00 0.  1.
         -2    1    1    2    0  503 -0.59782786059E+01  0.21938414221E+02 -0.68579581221E+02  0.72250901683E+02  0.00000000000E+00 0. -1.
</event>
<event>
 4    1  0.1727273E+004  0.2119736E+02  0.7546771E-02  0.1516466E+00
         21   -1    0    0  501  502  0.00000000000E+00  0.00000000000E+00  0.48699498240E+01  0.48699498240E+01  0.00000000000E+00 0. -1.
         21   -1    0    0  502  503 -0.00000000000E+00 -0.00000000000E+00 -0.10632689277E+03  0.10632689277E+03  0.00000000000E+00 0.  1.
          2    1    1    2  501    0  0.43145424895E+01  0.20753617097E+02 -0.30509618484E+02  0.37150568226E+02  0.00000000000E+00 0.  1.
         -2    1    1    2    0  503 -0.43145424895E+01 -0.20753617097E+02 -0.70947324465E+02  0.74046274371E+02  0.00000000000E+00 0. -1.
</event>
<event>
 4    1  0.1727273E+004  0.2234641E+02  0.7546771E-02  0.1500873E+00
         21   -1    0    0  501  502  0.00000000000E+00  0.00000000000E+00  0.41354214795E+03  0.41354214795E+03  0.00000000000E+00 0. -1.
         21   -1    0    0  502  503 -0.00000000000E+00 -0.00000000000E+00 -0.21446993118E+01  0.21446993118E+01  0.00000000000E+00 0.  1.
          2    1    1    2  501    0 -0.20096388719E+02 -0.97722622441E+01  0.34309139581E+03  0.34381836459E+03  0.00000000000E+00 0. -1.
         -2    1    1    2    0  503  0.20096388719E+02  0.97722622441E+01  0.68306052828E+02  0.71868482674E+02  0.00000000000E+00 0.  1.
</event>
<event>
 4    1  0.1727273E+004  0.3343438E+02  0.7546771E-02  0.1391917E+00
         21   -1    0    0  503  502  0.00000000000E+00  0.00000000000E+00  0.17373921156E+02  0.17373921156E+02  0.00000000000E+00 0.  1.
         21   -1    0    0  501  503 -0.00000000000E+00 -0.00000000000E+00 -0.35035045945E+03  0.35035045945E+03  0.00000000000E+00 0. -1.
          2    1    1    2  501    0  0.25683815625E+01  0.33335586020E+02 -0.33261180898E+03  0.33428800959E+03  0.00000000000E+00 0. -1.
         -2    1    1    2    0  502 -0.25683815625E+01 -0.33335586020E+02 -0.36472930685E+00  0.33436371014E+02  0.00000000000E+00 0.  1.
</event>
<event>
 4    1  0.1727273E+004  0.4721218E+02  0.7546771E-02  0.1310734E+00
         21   -1    0    0  503  502  0.00000000000E+00  0.00000000000E+00  0.63264615807E+02  0.63264615807E+02  0.00000000000E+00 0.  1.
         21   -1    0    0  501  503 -0.00000000000E+00 -0.00000000000E+00 -0.39968790911E+02  0.39968790911E+02  0.00000000000E+00 0. -1.
          2    1    1    2  501    0 -0.36929644441E+02  0.29414140598E+02  0.29415752871E+02  0.55626224235E+02  0.00000000000E+00 0. -1.
         -2    1    1    2    0  502  0.36929644441E+02 -0.29414140598E+02 -0.61199279752E+01  0.47607182484E+02  0.00000000000E+00 0.  1.
</event>
<event>
 4    1  0.1727273E+004  0.3238643E+02  0.7546771E-02  0.1399931E+00
         21   -1    0    0  503  502  0.00000000000E+00  0.00000000000E+00  0.67666934224E+01  0.67666934224E+01  0.00000000000E+00 0.  1.
         21   -1    0    0  501  503 -0.00000000000E+00 -0.00000000000E+00 -0.17826626789E+03  0.17826626789E+03  0.00000000000E+00 0. -1.
          2    1    1    2  501    0  0.32317267284E+02 -0.21154555869E+01 -0.11916836479E+03  0.12349080971E+03  0.00000000000E+00 0.  1.
         -2    1    1    2    0  502 -0.32317267284E+02  0.21154555869E+01 -0.52331209677E+02  0.61542151598E+02  0.00000000000E+00 0. -1.
</event>
<event>
 4    1  0.1727273E+004  0.2088110E+02  0.7546771E-02  0.1520969E+00
         21   -1    0    0  503  502  0.00000000000E+00  0.00000000000E+00  0.51646884512E+01  0.51646884512E+01  0.00000000000E+00 0. -1.
         21   -1    0    0  501  503 -0.00000000000E+00 -0.00000000000E+00 -0.13051642302E+03  0.13051642302E+03  0.00000000000E+00 0.  1.
          2    1    1    2  501    0 -0.15363258775E+02 -0.14141802796E+02 -0.10299160786E+03  0.10508706674E+03  0.00000000000E+00 0.  1.
         -2    1    1    2    0  502  0.15363258775E+02  0.14141802796E+02 -0.22360126704E+02  0.30594044727E+02  0.00000000000E+00 0. -1.
</event>
<event>
 4    1  0.1727273E+004  0.2087137E+02  0.7546771E-02  0.1521109E+00
         21   -1    0    0  501  502  0.00000000000E+00  0.00000000000E+00  0.28107391892E+02  0.28107391892E+02  0.00000000000E+00 0.  1.
         21   -1    0    0  502  503 -0.00000000000E+00 -0.00000000000E+00 -0.30049770312E+02  0.30049770312E+02  0.00000000000E+00 0. -1.
          2    1    1    2  501    0  0.85977352194E+01  0.19018229056E+02  0.19264011079E+02  0.28402750046E+02  0.00000000000E+00 0.  1.
         -2    1    1    2    0  503 -0.85977352194E+01 -0.19018229056E+02 -0.21206389498E+02  0.29754412158E+02  0.00000000000E+00 0. -1.
</event>
<event>
 4    1  0.1727273E+004  0.2493235E+02  0.7546771E-02  0.1469562E+00
         21   -1    0    0  501  502  0.00000000000E+00  0.00000000000E+00  0.15576172267E+03  0.15576172267E+03  0.00000000000E+00 0.  1.
         21   -1    0    0  502  503 -0.00000000000E+00 -0.00000000000E+00 -0.49093830705E+01  0.49093830705E+01  0.00000000000E+00 0. -1.
          2    1    1    2  501    0 -0.16197135165E+02  0.18954548376E+02  0.11017507182E+03  0.11296091599E+03  0.00000000000E+00 0.  1.
         -2    1    1    2    0  503  0.16197135165E+02 -0.18954548376E+02  0.40677267781E+02  0.47710189748E+02  0.00000000000E+00 0. -1.
</event>
<event>
 4    1  0.1727273E+004  0.2018259E+02  0.7546771E-02  0.1531263E+00
         21   -1    0    0  503  502  0.00000000000E+00  0.00000000000E+00  0.20945075095E+01  0.20945075095E+01  0.00000000000E+00 0. -1.
         21   -1    0    0  501  503 -0.00000000000E+00 -0.00000000000E+00 -0.27861612949E+03  0.27861612949E+03  0.00000000000E+00 0.  1.
          2    1    1    2  501    0 -0.15409174352E+02 -0.13034357263E+02 -0.21539027878E+03  0.21633379143E+03  0.00000000000E+00 0.  1.
         -2    1    1    2    0  502  0.15409174352E+02  0.13034357263E+02 -0.61131343207E+02  0.64376845571E+02  0.00000000000E+00 0. -1.
</event>
<event>
 4    1  0.1727273E+004  0.2283665E+02  0.7546771E-02  0.1494560E+00
         21   -1    0    0  503  502  0.00000000000E+00  0.00000000000E+00  0.27031975282E+03  0.27031975282E+03  0.00000000000E+00 0. -1.
         21   -1    0    0  501  503 -0.00000000000E+00 -0.00000000000E+00 -0.22931244435E+01  0.22931244435E+01  0.00000000000E+00 0.  1.
          2    1    1    2  501    0 -0.80853764431E+01  0.21357417120E+02  0.79715503309E+02  0.82922096248E+02  0.00000000000E+00 0. -1.
         -2    1    1    2    0  502  0.80853764431E+01 -0.21357417120E+02  0.18831112507E+03  0.18969078102E+03  0.00000000000E+00 0.  1.
</event>
<event>
 4    1  0.1727273E+004  0.2072100E+02  0.7546771E-02  0.1523286E+00
         21   -1    0    0  501  502  0.00000000000E+00  0.00000000000E+00  0.68891512011E+01  0.68891512011E+01  0.00000000000E+00 0.  1.
         21   -1    0    0  502  503 -0.00000000000E+00 -0.00000000000E+00 -0.63890843486E+02  0.63890843486E+02  0.00000000000E+00 0. -1.
          2    1    1    2  501    0 -0.77634625894E+01 -0.19211675932E+02 -0.22958848945E+02  0.30926826354E+02  0.00000000000E+00 0. -1.
         -2    1    1    2    0  503  0.77634625894E+01  0.19211675932E+02 -0.34042843340E+02  0.39853168333E+02  0.00000000000E+00 0.  1.
</event>
<event>
 4    1  0.1727273E+004  0.2544871E+02  0.7546771E-02  0.1463846E+00
         21   -1    0    0  503  502  0.00000000000E+00  0.00000000000E+00  0.13886507705E+03  0.13886507705E+03  0.00000000000E+00 0. -1.
         21   -1    0    0  501  503 -0.00000000000E+00 -0.00000000000E+00 -0.55459356421E+01  0.55459356421E+01  0.00000000000E+00 0.  1.
          2    1    1    2  501    0 -0.22338287457E+02  0.12191713406E+02  0.37862115788E+02  0.45619916421E+02  0.00000000000E+00 0. -1.
         -2    1    1    2    0  502  0.22338287457E+02 -0.12191713406E+02  0.95457025621E+02  0.98791096273E+02  0.00000000000E+00 0.  1.
</event>
<event>
 4    1  0.1727273E+004  0.2024924E+02  0.7546771E-02  0.1530259E+00
         21   -1    0    0  501  502  0.00000000000E+00  0.00000000000E+00  0.13487596157E+03  0.13487596157E+03  0.00000000000E+00 0.  1.
         21   -1    0    0  502  503 -0.00000000000E+00 -0.00000000000E+00 -0.44992421012E+01  0.44992421012E+01  0.00000000000E+00 0. -1.
          2    1    1    2  501    0  0.20249193048E+02  0.43588678616E-01  0.25502133042E+02  0.32563637831E+02  0.00000000000E+00 0. -1.
         -2    1    1    2    0  503 -0.20249193048E+02 -0.43588678616E-01  0.10487458643E+03  0.10681156584E+03  0.00000000000E+00 0.  1.
</event>
<event>
 4    1  0.1727273E+004  0.2028764E+02  0.7546771E-02  0.1529683E+00
         21   -1    0    0  503  502  0.00000000000E+00  0.00000000000E+00  0.11191495329E+03  0.11191495329E+03  0.00000000000E+00 0. -1.
         21   -1    0    0  501  503 -0.00000000000E+00 -0.00000000000E+00 -0.37149715344E+01  0.37149715344E+01  0.00000000000E+00 0.  1.
          2    1    1    2  501    0 -0.18778918808E+02 -0.76772773861E+01  0.59891822022E+02  0.63234632321E+02  0.00000000000E+00 0.  1.
         -2    1    1    2    0  502  0.18778918808E+02  0.76772773861E+01  0.48308159735E+02  0.52395292504E+02  0.00000000000E+00 0. -1.
</event>
<event>
 4    1  0.1727273E+004  0.2298919E+02  0.7546771E-02  0.1492634E+00
         21   -1    0    0  503  502  0.00000000000E+00  0.00000000000E+00  0.24473316883E+03  0.24473316883E+03  0.00000000000E+00 0. -1.
         21   -1    0    0  501  503 -0.00000000000E+00 -0.00000000000E+00 -0.25811027594E+01  0.25811027594E+01  0.00000000000E+00 0.  1.
          2    1    1    2  501    0 -0.52590583357E+01  0.22379574136E+02  0.71099679608E+02  0.74723941769E+02  0.00000000000E+00 0. -1.
         -2    1    1    2    0  502  0.52590583357E+01 -0.22379574136E+02  0.17105238646E+03  0.17259032982E+03  0.00000000000E+00 0.  1.
</event>
<event>
 4    1  0.1727273E+004  0.2469567E+02  0.7546771E-02  0.1472237E+00
         21   -1    0    0  501  502  0.00000000000E+00  0.00000000000E+00  0.73532100329E+03  0.73532100329E+03  0.00000000000E+00 0.  1.
         21   -1    0    0  502  503 -0.00000000000E+00 -0.00000000000E+00 -0.98100279940E+00  0.98100279940E+00  0.00000000000E+00 0. -1.
          2    1    1    2  501    0  0.24591316501E+02  0.22678907967E+01  0.51189469835E+03  0.51249005686E+03  0.00000000000E+00 0. -1.
         -2    1    1    2    0  503 -0.24591316501E+02 -0.22678907967E+01  0.22244530214E+03  0.22381194924E+03  0.00000000000E+00 0.  1.
</event>
<event>
 4    1  0.1727273E+004  0.3271105E+02  0.7546771E-02  0.1397411E+00
         21   -1    0    0  503  502  0.00000000000E+00  0.00000000000E+00  0.69156136537E+03  0.69156136537E+03  0.00000000000E+00 0. -1.
         21   -1    0    0  501  503 -0.00000000000E+00 -0.00000000000E+00 -0.43605677678E+01  0.43605677678E+01  0.00000000000E+00 0.  1.
          2    1    1    2  501    0 -0.29173861516E+02  0.14795225453E+02  0.64108638442E+02  0.71971733443E+02  0.00000000000E+00 0.  1.
         -2    1    1    2    0  502  0.29173861516E+02 -0.14795225453E+02  0.62309215916E+03  0.62395019970E+03  0.00000000000E+00 0. -1.
</event>
<event>
 4    1  0.1727273E+004  0.2045209E+02  0.7546771E-02  0.1527233E+00
         21   -1    0    0  501  502  0.00000000000E+00  0.00000000000E+00  0.22781451675E+02  0.22781451675E+02  0.00000000000E+00 0. -1.
         21   -1    0    0  502  503 -0.00000000000E+00 -0.00000000000E+00 -0.29825253038E+02  0.29825253038E+02  0.00000000000E+00 0.  1.
          2    1    1    2  501    0  0.16991735971E+02 -0.11382836971E+02  0.12785836973E+02  0.24119819566E+02  0.00000000000E+00 0. -1.
         -2    1    1    2    0  503 -0.16991735971E+02  0.11382836971E+02 -0.19829638336E+02  0.28486885146E+02  0.00000000000E+00 0.  1.
</event>
<event>
 4    1  0.1727273E+004  0.4107049E+02  0.7546771E-02  0.1342324E+00
         21   -1    0    0  501  502  0.00000000000E+00  0.00000000000E+00  0.49862110495E+01  0.49862110495E+01  0.00000000000E+00 0.  1.
         21   -1    0    0  502  503 -0.00000000000E+00 -0.00000000000E+00 -0.33874305220E+03  0.33874305220E+03  0.00000000000E+00 0. -1.
          2    1    1    2  501    0 -0.81062965549E+01  0.40262555810E+02 -0.16059327948E+03  0.16576183777E+03  0.00000000000E+00 0.  1.
         -2    1    1    2    0  503  0.81062965549E+01 -0.40262555810E+02 -0.17316356166E+03  0.17796742548E+03  0.00000000000E+00 0. -1.
</event>
<event>
 4    1  0.1727273E+004  0.2677775E+02  0.7546771E-02  0.1449853E+00
         21   -1    0    0  501  502  0.00000000000E+00  0.00000000000E+00  0.50212596259E+02  0.50212596259E+02  0.00000000000E+00 0. -1.
         21   -1    0    0  502  503 -0.00000000000E+00 -0.00000000000E+00 -0.19355091000E+02  0.19355091000E+02  0.00000000000E+00 0.  1.
          2    1    1    2  501    0 -0.29247500615E+01 -0.26617547214E+02  0.33239886199E+02  0.42684165883E+02  0.00000000000E+00 0. -1.
         -2    1    1    2    0  503  0.29247500615E+01  0.26617547214E+02 -0.23823809400E+01  0.26883521376E+02  0.00000000000E+00 0.  1.
</event>
<event>
 4    1  0.1727273E+004  0.3508579E+02  0.7546771E-02  0.1379961E+00
         21   -1    0    0  503  502  0.00000000000E+00  0.00000000000E+00  0.29955879915E+02  0.29955879915E+02  0.00000000000E+00 0. -1.
         21   -1    0    0  501  503 -0.00000000000E+00 -0.00000000000E+00 -0.41348428954E+02  0.41348428954E+02  0.00000000000E+00 0.  1.
          2    1    1    2  501    0  0.14167512444E+02  0.32098196788E+02 -0.84918846367E+01  0.36098819241E+02  0.00000000000E+00 0.  1.
         -2    1    1    2    0  502 -0.14167512444E+02 -0.32098196788E+02 -0.29006644023E+01  0.35205489627E+02  0.00000000000E+00 0. -1.
</event>
<event>
 4    1  0.1727273E+004  0.2184244E+02  0.7546771E-02  0.1507569E+00
         21   -1    0    0  503  502  0.00000000000E+00  0.00000000000E+00  0.84531553314E+03  0.84531553314E+03  0.00000000000E+00 0.  1.
         21   -1    0    0  501  503 -0.00000000000E+00 -0.00000000000E+00 -0.14958947851E+01  0.14958947851E+01  0.00000000000E+00 0. -1.
          2    1    1    2  501    0  0.21815008072E+02  0.10944211519E+01  0.87793691643E+02  0.90470020598E+02  0.00000000000E+00 0. -1.
         -2    1    1    2    0  502 -0.21815008072E+02 -0.10944211519E+01  0.75602594671E+03  0.75634140733E+03  0.00000000000E+00 0.  1.
</event>
<event>
 4    1  0.1727273E+004  0.4019654E+02  0.7546771E-02  0.1347338E+00
         21   -1    0    0  501  502  0.00000000000E+00  0.00000000000E+00  0.29637149783E+01  0.29637149783E+01  0.00000000000E+00 0. -1.
         21   -1    0    0  502  503 -0.00000000000E+00 -0.00000000000E+00 -0.96533675768E+03  0.96533675768E+03  0.00000000000E+00 0.  1.
          2    1    1    2  501    0  0.39818678358E+02 -0.54985840352E+01 -0.16177851137E+03  0.16669747543E+03  0.00000000000E+00 0. -1.
         -2    1    1    2    0  503 -0.39818678358E+02  0.54985840352E+01 -0.80059453133E+03  0.80160299723E+03  0.00000000000E+00 0.  1.
</event>
<event>
 4    1  0.1727273E+004  0.2965400E+02  0.7546771E-02  0.1422627E+00
         21   -1    0    0  501  502  0.00000000000E+00  0.00000000000E+00  0.16940605328E+02  0.16940605328E+02  0.00000000000E+00 0. -1.
         21   -1    0    0  502  503 -0.00000000000E+00 -0.00000000000E+00 -0.16022930190E+03  0.16022930190E+03  0.00000000000E+00 0.  1.
          2    1    1    2  501    0 -0.24631187749E+02 -0.16512550633E+02  0.11914900110E+01  0.29677927603E+02  0.00000000000E+00 0. -1.
         -2    1    1    2    0  503  0.24631187749E+02  0.16512550633E+02 -0.14448018658E+03  0.14749197962E+03  0.00000000000E+00 0.  1.
</event>
<event>
 4    1  0.1727273E+004  0.2228856E+02  0.7546771E-02  0.1501630E+00
         21   -1    0    0  501  502  0.00000000000E+00  0.00000000000E+00  0.17487634635E+04  0.17487634635E+04  0.00000000000E+00 0. -1.
         21   -1    0    0  502  503 -0.00000000000E+00 -0.00000000000E+00 -0.28407819513E+00  0.28407819513E+00  0.00000000000E+00 0.  1.
          2    1    1    2  501    0 -0.21020572309E+02  0.74104941551E+01  0.87128142571E+03  0.87156646486E+03  0.00000000000E+00 0. -1.
         -2    1    1    2    0  503  0.21020572309E+02 -0.74104941551E+01  0.87719795956E+03  0.87748107680E+03  0.00000000000E+00 0.  1.
</event>
<event>
 4    1  0.1727273E+004  0.2438308E+02  0.7546771E-02  0.1475825E+00
         21   -1    0    0  503  502  0.00000000000E+00  0.00000000000E+00  0.30681474211E+02  0.30681474211E+02  0.00000000000E+00 0.  1.
         21   -1    0    0  501  503 -0.00000000000E+00 -0.00000000000E+00 -0.20632412125E+02  0.20632412125E+02  0.00000000000E+00 0. -1.
          2    1    1    2  501    0 -0.22615010304E+02 -0.91157042988E+01  0.11351726449E+02  0.26896030363E+02  0.00000000000E+00 0.  1.
         -2    1    1    2    0  502  0.22615010304E+02  0.91157042988E+01 -0.13026643631E+01  0.24417855974E+02  0.00000000000E+00 0. -1.
</event>
<event>
 4    1  0.1727273E+004  0.2115501E+02  0.7546771E-02  0.1517063E+00
         21   -1    0    0  503  502  0.00000000000E+00  0.00000000000E+00  0.10881639718E+02  0.10881639718E+02  0.00000000000E+00 0. -1.
         21   -1    0    0  501  503 -0.00000000000E+00 -0.00000000000E+00 -0.45312724727E+02  0.45312724727E+02  0.00000000000E+00 0.  1.
          2    1    1    2  501    0 -0.38816718901E+01  0.20795846087E+02 -0.25754646278E+02  0.33329212353E+02  0.00000000000E+00 0.  1.
         -2    1    1    2    0  502  0.38816718901E+01 -0.20795846087E+02 -0.86764387308E+01  0.22865152092E+02  0.00000000000E+00 0. -1.
</event>
<event>
 4    1  0.1727273E+004  0.2163193E+02  0.7546771E-02  0.1510431E+00
         21   -1    0    0  503  502  0.00000000000E+00  0.00000000000E+00  0.15544475213E+03  0.15544475213E+03  0.00000000000E+00 0. -1.
         21   -1    0    0  501  503 -0.00000000000E+00 -0.00000000000E+00 -0.40070436052E+01  0.40070436052E+01  0.00000000000E+00 0.  1.
          2    1    1    2  501    0 -0.72532203660E+01  0.20379676148E+02  0.35956507315E+02  0.41962016442E+02  0.00000000000E+00 0.  1.
         -2    1    1    2    0  502  0.72532203660E+01 -0.20379676148E+02  0.11548120121E+03  0.11748977929E+03  0.00000000000E+00 0. -1.
</event>
<event>
 4    1  0.1727273E+004  0.2289019E+02  0.7546771E-02  0.1493882E+00
         21   -1    0    0  501  502  0.00000000000E+00  0.00000000000E+00  0.65696794304E+03  0.65696794304E+03  0.00000000000E+00 0.  1.
         21   -1    0    0  502  503 -0.00000000000E+00 -0.00000000000E+00 -0.10177920211E+01  0.10177920211E+01  0.00000000000E+00 0. -1.
          2    1    1    2  501    0 -0.13729163643E+02 -0.18315859405E+02  0.48101800527E+03  0.48156233453E+03  0.00000000000E+00 0.  1.
         -2    1    1    2    0  503  0.13729163643E+02  0.18315859405E+02  0.17493214575E+03  0.17642340054E+03  0.00000000000E+00 0. -1.
</event>
<event>
 4    1  0.1727273E+004  0.2083043E+02  0.7546771E-02  0.1521700E+00
         21   -1    0    0  503  502  0.00000000000E+00  0.00000000000E+00  0.30848837758E+01  0.30848837758E+01  0.00000000000E+00 0. -1.
         21   -1    0    0  501  503 -0.00000000000E+00 -0.00000000000E+00 -0.14142989269E+03  0.14142989269E+03  0.00000000000E+00 0.  1.
          2    1    1    2  501    0 -0.10972905572E+02 -0.17705992135E+02 -0.74518227202E+02  0.77374886104E+02  0.00000000000E+00 0.  1.
         -2    1    1    2    0  502  0.10972905572E+02  0.17705992135E+02 -0.63826781717E+02  0.67139890367E+02  0.00000000000E+00 0. -1.
</event>
<event>
 4    1  0.1727273E+004  0.2027321E+02  0.7546771E-02  0.1529899E+00
         21   -1    0    0  503  502  0.00000000000E+00  0.00000000000E+00  0.38638667113E+03  0.38638667113E+03  0.00000000000E+00 0. -1.
         21   -1    0    0  501  503 -0.00000000000E+00 -0.00000000000E+00 -0.14086600916E+01  0.14086600916E+01  0.00000000000E+00 0.  1.
          2    1    1    2  501    0  0.12518150696E+02 -0.15946751705E+02  0.96538288361E+02  0.98644027222E+02  0.00000000000E+00 0.  1.
         -2    1    1    2    0  502 -0.12518150696E+02  0.15946751705E+02  0.28843972268E+03  0.28915130400E+03  0.00000000000E+00 0. -1.
</event>
<event>
 4    1  0.1727273E+004  0.2087122E+02  0.7546771E-02  0.1521111E+00
         21   -1    0    0  501  502  0.00000000000E+00  0.00000000000E+00  0.16985096923E+02  0.16985096923E+02  0.00000000000E+00 0. -1.
         21   -1    0    0  502  503 -0.00000000000E+00 -0.00000000000E+00 -0.25973127536E+02  0.25973127536E+02  0.00000000000E+00 0.  1.
          2    1    1    2  501    0 -0.19528796593E+02 -0.73643772090E+01 -0.20852531711E+01  0.20975133583E+02  0.00000000000E+00 0.  1.
         -2    1    1    2    0  503  0.19528796593E+02  0.73643772090E+01 -0.69027774415E+01  0.21983090876E+02  0.00000000000E+00 0. -1.
</event>
<event>
 4    1  0.1727273E+004  0.2098251E+02  0.7546771E-02  0.1519515E+00
         21   -1    0    0  501  502  0.00000000000E+00  0.00000000000E+00  0.34948826364E+02  0.34948826364E+02  0.00000000000E+00 0. -1.
         21   -1    0    0  502  503 -0.00000000000E+00 -0.00000000000E+00 -0.64409067771E+02  0.64409067771E+02  0.00000000000E+00 0.  1.
          2    1    1    2  501    0 -0.12369139833E+02  0.16949043499E+02  0.29826526116E+02  0.36467620650E+02  0.00000000000E+00 0. -1.
         -2    1    1    2    0  503  0.12369139833E+02 -0.16949043499E+02 -0.59286767523E+02  0.62890273485E+02  0.00000000000E+00 0.  1.
</event>
<event>
 4    1  0.1727273E+004  0.4094165E+02  0.7546771E-02  0.1343054E+00
         21   -1    0    0  501  502  0.00000000000E+00  0.00000000000E+00  0.47538525116E+02  0.47538525116E+02  0.00000000000E+00 0. -1.
         21   -1    0    0  502  503 -0.00000000000E+00 -0.00000000000E+00 -0.67090952223E+02  0.67090952223E+02  0.00000000000E+00 0.  1.
          2    1    1    2  501    0 -0.40512140694E+02 -0.59148476096E+01  0.29702013194E+02  0.50580910961E+02  0.00000000000E+00 0. -1.
         -2    1    1    2    0  503  0.40512140694E+02  0.59148476096E+01 -0.49254440300E+02  0.64048566378E+02  0.00000000000E+00 0.  1.
</event>
<event>
 4    1  0.1727273E+004  0.2353460E+02  0.7546771E-02  0.1485892E+00
         21   -1    0    0  501  502  0.00000000000E+00  0.00000000000E+00  0.10431828061E+02  0.10431828061E+02  0.00000000000E+00 0. -1.
         21   -1    0    0  502  503 -0.00000000000E+00 -0.00000000000E+00 -0.56195846796E+02  0.56195846796E+02  0.00000000000E+00 0.  1.
          2    1    1    2  501    0 -0.14904814898E+02  0.18213286689E+02 -0.15056426781E+02  0.27938742036E+02  0.00000000000E+00 0. -1.
         -2    1    1    2    0  503  0.14904814898E+02 -0.18213286689E+02 -0.30707591955E+02  0.38688932821E+02  0.00000000000E+00 0.  1.
</event>
<event>
 4    1  0.1727273E+004  0.2180629E+02  0.7546771E-02  0.1508057E+00
         21   -1    0    0  503  502  0.00000000000E+00  0.00000000000E+00  0.27959329845E+02  0.27959329845E+02  0.00000000000E+00 0. -1.
         21   -1    0    0  501  503 -0.00000000000E+00 -0.00000000000E+00 -0.23620311616E+02  0.23620311616E+02  0.00000000000E+00 0.  1.
          2    1    1    2  501    0  0.20097310695E+02  0.84624008883E+01 -0.11476431981E+02  0.24641887447E+02  0.00000000000E+00 0. -1.
         -2    1    1    2    0  502 -0.20097310695E+02 -0.84624008883E+01  0.15815450211E+02  0.26937754014E+02  0.00000000000E+00 0.  1.
</event>
<event>
 4    1  0.1727273E+004  0.2215463E+02  0.7546771E-02  0.1503395E+00
         21   -1    0    0  501  502  0.00000000000E+00  0.00000000000E+00  0.70347792301E+00  0.70347792301E+00  0.00000000000E+00 0.  1.
         21   -1    0    0  502  503 -0.00000000000E+00 -0.00000000000E+00 -0.74436277160E+03  0.74436277160E+03  0.00000000000E+00 0. -1.
          2    1    1    2  501    0 -0.10164207644E+02  0.19685442232E+02 -0.27857216221E+03  0.27945174416E+03  0.00000000000E+00 0. -1.
         -2    1    1    2    0  503  0.10164207644E+02 -0.19685442232E+02 -0.46508713147E+03  0.46561450537E+03  0.00000000000E+00 0.  1.
</event>
<event>
 4    1  0.1727273E+004  0.2821905E+02  0.7546771E-02  0.1435732E+00
         21   -1    0    0  503  502  0.00000000000E+00  0.00000000000E+00  0.14709951457E+03  0.14709951457E+03  0.00000000000E+00 0. -1.
         21   -1    0    0  501  503 -0.00000000000E+00 -0.00000000000E+00 -0.71781831841E+01  0.71781831841E+01  0.00000000000E+00 0.  1.
          2    1    1    2  501    0  0.28187880945E+02 -0.13258901347E+01  0.31712865919E+02  0.42450211797E+02  0.00000000000E+00 0.  1.
         -2    1    1    2    0  502 -0.28187880945E+02  0.13258901347E+01  0.10820846547E+03  0.11182748596E+03  0.00000000000E+00 0. -1.
</event>
<event>
 4    1  0.1727273E+004  0.2098353E+02  0.7546771E-02  0.1519500E+00
         21   -1    0    0  501  502  0.00000000000E+00  0.00000000000E+00  0.71831768482E+01  0.71831768482E+01  0.00000000000E+00 0. -1.
         21   -1    0    0  502  503 -0.00000000000E+00 -0.00000000000E+00 -0.23689809360E+03  0.23689809360E+03  0.00000000000E+00 0.  1.
          2    1    1    2  501    0 -0.20467844425E+02  0.46234163660E+01 -0.97854493418E+01  0.23153048463E+02  0.00000000000E+00 0. -1.
         -2    1    1    2    0  503  0.20467844425E+02 -0.46234163660E+01 -0.21992946741E+03  0.22092822199E+03  0.00000000000E+00 0.  1.
</event>
<event>
 4    1  0.1727273E+004  0.2812405E+02  0.7546771E-02  0.1436632E+00
         21   -1    0    0  501  502  0.00000000000E+00  0.00000000000E+00  0.40689920271E+02  0.40689920271E+02  0.00000000000E+00 0.  1.
         21   -1    0    0  502  503 -0.00000000000E+00 -0.00000000000E+00 -0.28549089232E+02  0.28549089232E+02  0.00000000000E+00 0. -1.
          2    1    1    2  501    0  0.32303211536E+01  0.27937917211E+02  0.25626927902E+02  0.38048674439E+02  0.00000000000E+00 0.  1.
         -2    1    1    2    0  503 -0.32303211536E+01 -0.27937917211E+02 -0.13486096862E+02  0.31190335064E+02  0.00000000000E+00 0. -1.
</event>
<event>
 4    1  0.1727273E+004  0.3391161E+02  0.7546771E-02  0.1388381E+00
         21   -1    0    0  503  502  0.00000000000E+00  0.00000000000E+00  0.42892598955E+02  0.42892598955E+02  0.00000000000E+00 0. -1.
         21   -1    0    0  501  503 -0.00000000000E+00 -0.00000000000E+00 -0.27144743079E+02  0.27144743079E+02  0.00000000000E+00 0.  1.
          2    1    1    2  501    0 -0.30507451759E+02  0.14808526832E+02  0.39914573704E+01  0.34145699754E+02  0.00000000000E+00 0. -1.
         -2    1    1    2    0  502  0.30507451759E+02 -0.14808526832E+02  0.11756398506E+02  0.35891642281E+02  0.00000000000E+00 0.  1.
</event>
<event>
 4    1  0.1727273E+004  0.2949441E+02  0.7546771E-02  0.1424042E+00
         21   -1    0    0  501  502  0.00000000000E+00  0.00000000000E+00  0.12291555887E+03  0.12291555887E+03  0.00000000000E+00 0. -1.
         21   -1    0    0  502  503 -0.00000000000E+00 -0.00000000000E+00 -0.84688130153E+01  0.84688130153E+01  0.00000000000E+00 0.  1.
          2    1    1    2  501    0  0.29283629987E+02 -0.35198664676E+01  0.30595702191E+02  0.42497263885E+02  0.00000000000E+00 0.  1.
         -2    1    1    2    0  503 -0.29283629987E+02  0.35198664676E+01  0.83851043667E+02  0.88887108003E+02  0.00000000000E+00 0. -1.
</event>
<event>
 4    1  0.1727273E+004  0.2445753E+02  0.7546771E-02  0.1474964E+00
         21   -1    0    0  503  502  0.00000000000E+00  0.00000000000E+00  0.11186287053E+03  0.11186287053E+03  0.00000000000E+00 0. -1.
         21   -1    0    0  501  503 -0.00000000000E+00 -0.00000000000E+00 -0.54379836668E+01  0.54379836668E+01  0.00000000000E+00 0.  1.
          2    1    1    2  501    0  0.48868876210E+01  0.23964331024E+02  0.45641020850E+02  0.51781015984E+02  0.00000000000E+00 0.  1.
         -2    1    1    2    0  502 -0.48868876210E+01 -0.23964331024E+02  0.60783866017E+02  0.65519838217E+02  0.00000000000E+00 0. -1.
</event>
<event>
 4    1  0.1727273E+004  0.2272988E+02  0.7546771E-02  0.1495918E+00
         21   -1    0    0  503  502  0.00000000000E+00  0.00000000000E+00  0.19126997428E+03  0.19126997428E+03  0.00000000000E+00 0.  1.
         21   -1    0    0  501  503 -0.00000000000E+00 -0.00000000000E+00 -0.46839639551E+01  0.46839639551E+01  0.00000000000E+00 0. -1.
          2    1    1    2  501    0  0.19581548478E+02  0.11541674838E+02  0.29546097313E+02  0.37277596024E+02  0.00000000000E+00 0. -1.
         -2    1    1    2    0  502 -0.19581548478E+02 -0.11541674838E+02  0.15703991301E+03  0.15867634221E+03  0.00000000000E+00 0.  1.
</event>
<event>
 4    1  0.1727273E+004  0.2207713E+02  0.7546771E-02  0.1504424E+00
         21   -1    0    0  503  502  0.00000000000E+00  0.00000000000E+00  0.12883115932E+02  0.12883115932E+02  0.00000000000E+00 0. -1.
         21   -1    0    0  501  503 -0.00000000000E+00 -0.00000000000E+00 -0.89414163405E+02  0.89414163405E+02  0.00000000000E+00 0.  1.
          2    1    1    2  501    0 -0.20157059362E+02 -0.90051506431E+01 -0.77114433054E+02  0.80212440217E+02  0.00000000000E+00 0.  1.
         -2    1    1    2    0  502  0.20157059362E+02  0.90051506431E+01  0.58338558185E+00  0.22084839120E+02  0.00000000000E+00 0. -1.
</event>
<event>
 4    1  0.1727273E+004  0.2647645E+02  0.7546771E-02  0.1452939E+00
         21   -1    0    0  503  502  0.00000000000E+00  0.00000000000E+00  0.11832174975E+02  0.11832174975E+02  0.00000000000E+00 0.  1.
         21   -1    0    0  501  503 -0.00000000000E+00 -0.00000000000E+00 -0.66619956455E+02  0.66619956455E+02  0.00000000000E+00 0. -1.
          2    1    1    2  501    0 -0.97284294099E+01  0.24624378204E+02 -0.14343018671E+02  0.30111866852E+02  0.00000000000E+00 0.  1.
         -2    1    1    2    0  502  0.97284294099E+01 -0.24624378204E+02 -0.40444762809E+02  0.48340264578E+02  0.00000000000E+00 0. -1.
</event>
<event>
 4    1  0.1727273E+004  0.2290040E+02  0.7546771E-02  0.1493753E+00
         21   -1    0    0  503  502  0.00000000000E+00  0.00000000000E+00  0.13581996080E+03  0.13581996080E+03  0.00000000000E+00 0. -1.
         21   -1    0    0  501  503 -0.00000000000E+00 -0.00000000000E+00 -0.39304076739E+01  0.39304076739E+01  0.00000000000E+00 0.  1.
          2    1    1    2  501    0  0.10347001027E+02  0.20429586373E+02  0.56672804345E+02  0.61124750977E+02  0.00000000000E+00 0.  1.
         -2    1    1    2    0  502 -0.10347001027E+02 -0.20429586373E+02  0.75216748780E+02  0.78625617496E+02  0.00000000000E+00 0. -1.
</event>
<event>
 4    1  0.1727273E+004  0.3617216E+02  0.7546771E-02  0.1372505E+00
         21   -1    0    0  503  502  0.00000000000E+00  0.00000000000E+00  0.15243506895E+04  0.15243506895E+04  0.00000000000E+00 0.  1.
         21   -1    0    0  501  503 -0.00000000000E+00 -0.00000000000E+00 -0.51848022080E+01  0.51848022080E+01  0.00000000000E+00 0. -1.
          2    1    1    2  501    0  0.82677568380E+01  0.35214614770E+02  0.60981511113E+02  0.70902535880E+02  0.00000000000E+00 0. -1.
         -2    1    1    2    0  502 -0.82677568380E+01 -0.35214614770E+02  0.14581843762E+04  0.14586329558E+04  0.00000000000E+00 0.  1.
</event>
<event>
 4    1  0.1727273E+004  0.3698072E+02  0.7546771E-02  0.1367149E+00
         21   -1    0    0  501  502  0.00000000000E+00  0.00000000000E+00  0.78414986689E+02  0.78414986689E+02  0.00000000000E+00 0.  1.
         21   -1    0    0  502  503 -0.00000000000E+00 -0.00000000000E+00 -0.17570496744E+02  0.17570496744E+02  0.00000000000E+00 0. -1.
          2    1    1    2  501    0  0.27583432728E+01 -0.36877708921E+02  0.34554935189E+02  0.50612423562E+02  0.00000000000E+00 0.  1.
         -2    1    1    2    0  503 -0.27583432728E+01  0.36877708921E+02  0.26289554755E+02  0.45373059871E+02  0.00000000000E+00 0. -1.
</event>
<event>
 4    1  0.1727273E+004  0.3881090E+02  0.7546771E-02  0.1355598E+00
         21   -1    0    0  503  502  0.00000000000E+00  0.00000000000E+00  0.85512713781E+01  0.85512713781E+01  0.00000000000E+00 0. -1.
         21   -1    0    0  501  503 -0.00000000000E+00 -0.00000000000E+00 -0.17781766902E+03  0.17781766902E+03  0.00000000000E+00 0.  1.
          2    1    1    2  501    0  0.37520007500E+02  0.99264866059E+01 -0.93663884461E+02  0.10138643574E+03  0.00000000000E+00 0.  1.
         -2    1    1    2    0  502 -0.37520007500E+02 -0.99264866059E+01 -0.75602513178E+02  0.84982504659E+02  0.00000000000E+00 0. -1.
</event>
<event>
 4    1  0.1727273E+004  0.2888202E+02  0.7546771E-02  0.1429567E+00
         21   -1    0    0  501  502  0.00000000000E+00  0.00000000000E+00  0.17373869111E+03  0.17373869111E+03  0.00000000000E+00 0. -1.
         21   -1    0    0  502  503 -0.00000000000E+00 -0.00000000000E+00 -0.32709219121E+02  0.32709219121E+02  0.00000000000E+00 0.  1.
          2    1    1    2  501    0 -0.28582735266E+02  0.41470536065E+01  0.16586220509E+03  0.16835807639E+03  0.00000000000E+00 0. -1.
         -2    1    1    2    0  503  0.28582735266E+02 -0.41470536065E+01 -0.24832733099E+02  0.38089833842E+02  0.00000000000E+00 0.  1.
</event>
<event>
 4    1  0.1727273E+004  0.2035137E+02  0.7546771E-02  0.1528730E+00
         21   -1    0    0  501  502  0.00000000000E+00  0.00000000000E+00  0.17948897002E+03  0.17948897002E+03  0.00000000000E+00 0.  1.
         21   -1    0    0  502  503 -0.00000000000E+00 -0.00000000000E+00 -0.49435558326E+01  0.49435558326E+01  0.00000000000E+00 0. -1.
          2    1    1    2  501    0 -0.29946402261E+01  0.20129840766E+02  0.15461092657E+03  0.15594459585E+03  0.00000000000E+00 0.  1.
         -2    1    1    2    0  503  0.29946402261E+01 -0.20129840766E+02  0.19934487614E+02  0.28487930002E+02  0.00000000000E+00 0. -1.
</event>
<event>
 4    1  0.1727273E+004  0.2694720E+02  0.7546771E-02  0.1448139E+00
         21   -1    0    0  503  502  0.00000000000E+00  0.00000000000E+00  0.15011487176E+02  0.15011487176E+02  0.00000000000E+00 0.  1.
         21   -1    0    0  501  503 -0.00000000000E+00 -0.00000000000E+00 -0.59765574434E+02  0.59765574434E+02  0.00000000000E+00 0. -1.
          2    1    1    2  501    0  0.21521248151E+02  0.16216883340E+02 -0.38700902279E+02  0.47158363675E+02  0.00000000000E+00 0. -1.
         -2    1    1    2    0  502 -0.21521248151E+02 -0.16216883340E+02 -0.60531849784E+01  0.27618697935E+02  0.00000000000E+00 0.  1.
</event>
<event>
 4    1  0.1727273E+004  0.2360648E+02  0.7546771E-02  0.1485020E+00
         21   -1    0    0  501  502  0.00000000000E+00  0.00000000000E+00  0.23052305054E+03  0.23052305054E+03  0.00000000000E+00 0.  1.
         21   -1    0    0  502  503 -0.00000000000E+00 -0.00000000000E+00 -0.27101685683E+01  0.27101685683E+01  0.00000000000E+00 0. -1.
          2    1    1    2  501    0  0.23606478462E+02 -0.77898447281E-02  0.75577553945E+02  0.79178485376E+02  0.00000000000E+00 0. -1.
         -2    1    1    2    0  503 -0.23606478462E+02  0.77898447281E-02  0.15223532802E+03  0.15405473373E+03  0.00000000000E+00 0.  1.
</event>
<event>
 4    1  0.1727273E+004  0.2253910E+02  0.7546771E-02  0.1498368E+00
         21   -1    0    0  501  502  0.00000000000E+00  0.00000000000E+00  0.24067985424E+02  0.24067985424E+02  0.00000000000E+00 0. -1.
         21   -1    0    0  502  503 -0.00000000000E+00 -0.00000000000E+00 -0.54438807388E+02  0.54438807388E+02  0.00000000000E+00 0.  1.
          2    1    1    2  501    0 -0.20885242364E+02 -0.84745439417E+01  0.15529561511E+02  0.27371125741E+02  0.00000000000E+00 0. -1.
         -2    1    1    2    0  503  0.20885242364E+02  0.84745439417E+01 -0.45900383476E+02  0.51135667071E+02  0.00000000000E+00 0.  1.
</event>
<event>
 4    1  0.1727273E+004  0.2007251E+02  0.7546771E-02  0.1532930E+00
         21   -1    0    0  503  502  0.00000000000E+00  0.00000000000E+00  0.54370563555E+01  0.54370563555E+01  0.00000000000E+00 0.  1.
         21   -1    0    0  501  503 -0.00000000000E+00 -0.00000000000E+00 -0.11418783025E+03  0.11418783025E+03  0.00000000000E+00 0. -1.
          2    1    1    2  501    0  0.17225781069E+02 -0.10304283901E+02 -0.89813293416E+02  0.92028981709E+02  0.00000000000E+00 0. -1.
         -2    1    1    2    0  502 -0.17225781069E+02  0.10304283901E+02 -0.18937480478E+02  0.27595904896E+02  0.00000000000E+00 0.  1.
</event>
<event>
 4    1  0.1727273E+004  0.2947301E+02  0.7546771E-02  0.1424232E+00
         21   -1    0    0  501  502  0.00000000000E+00  0.00000000000E+00  0.51311549943E+02  0.51311549943E+02  0.00000000000E+00 0. -1.
         21   -1    0    0  502  503 -0.00000000000E+00 -0.00000000000E+00 -0.20343557328E+02  0.20343557328E+02  0.00000000000E+00 0.  1.
          2    1    1    2  501    0  0.25023625106E+02  0.15571661253E+02  0.30161913817E+02  0.42171074123E+02  0.00000000000E+00 0. -1.
         -2    1    1    2    0  503 -0.25023625106E+02 -0.15571661253E+02  0.80607879857E+00  0.29484033148E+02  0.00000000000E+00 0.  1.
</event>
<event>
 4    1  0.1727273E+004  0.2594381E+02  0.7546771E-02  0.1458516E+00
         21   -1    0    0  503  502  0.00000000000E+00  0.00000000000E+00  0.14623165850E+02  0.14623165850E+02  0.00000000000E+00 0. -1.
         21   -1    0    0  501  503 -0.00000000000E+00 -0.00000000000E+00 -0.10700032204E+03  0.10700032204E+03  0.00000000000E+00 0.  1.
          2    1    1    2  501    0 -0.24970960626E+02 -0.70379294035E+01 -0.92093553788E+02  0.95678126937E+02  0.00000000000E+00 0.  1.
         -2    1    1    2    0  502  0.24970960626E+02  0.70379294035E+01 -0.28360240607E+00  0.25945360957E+02  0.00000000000E+00 0. -1.
</event>
<event>
 4    1  0.1727273E+004  0.2343706E+02  0.7546771E-02  0.1487082E+00
         21   -1    0    0  501  502  0.00000000000E+00  0.00000000000E+00  0.52653638525E+03  0.52653638525E+03  0.00000000000E+00 0. -1.
         21   -1    0    0  502  503 -0.00000000000E+00 -0.00000000000E+00 -0.12387705924E+01  0.12387705924E+01  0.00000000000E+00 0.  1.
          2    1    1    2  501    0  0.12679714875E+02 -0.19710929188E+02  0.36749376895E+03  0.36824036460E+03  0.00000000000E+00 0. -1.
         -2    1    1    2    0  503 -0.12679714875E+02  0.19710929188E+02  0.15780384570E+03  0.15953479124E+03  0.00000000000E+00 0.  1.
</event>
<event>
 4    1  0.1727273E+004  0.3112547E+02  0.7546771E-02  0.1410062E+00
         21   -1    0    0  501  502  0.00000000000E+00  0.00000000000E+00  0.70872995676E+02  0.70872995676E+02  0.00000000000E+00 0. -1.
         21   -1    0    0  502  503 -0.00000000000E+00 -0.00000000000E+00 -0.21124963392E+02  0.21124963392E+02  0.00000000000E+00 0.  1.
          2    1    1    2  501    0  0.29973156916E+02  0.83907361223E+01  0.52200836895E+02  0.60775998229E+02  0.00000000000E+00 0. -1.
         -2    1    1    2    0  503 -0.29973156916E+02 -0.83907361223E+01 -0.24528046112E+01  0.31221960839E+02  0.00000000000E+00 0.  1.
</event>
<event>
 4    1  0.1727273E+004  0.2520402E+02  0.7546771E-02  0.1466534E+00
         21   -1    0    0  501  502  0.00000000000E+00  0.00000000000E+00  0.46000810801E+01  0.46000810801E+01  0.00000000000E+00 0. -1.
         21   -1    0    0  502  503 -0.00000000000E+00 -0.00000000000E+00 -0.21080700426E+03  0.21080700426E+03  0.00000000000E+00 0.  1.
          2    1    1    2  501    0 -0.20482646797E+02  0.14686854905E+02 -0.39848556383E+02  0.47150291331E+02  0.00000000000E+00 0. -1.
         -2    1    1    2    0  503  0.20482646797E+02 -0.14686854905E+02 -0.16635836680E+03  0.16825679401E+03  0.00000000000E+00 0.  1.
</event>
<event>
 4    1  0.1727273E+004  0.2303922E+02  0.7546771E-02  0.1492006E+00
         21   -1    0    0  503  502  0.00000000000E+00  0.00000000000E+00  0.68901745464E+01  0.68901745464E+01  0.00000000000E+00 0. -1.
         21   -1    0    0  501  503 -0.00000000000E+00 -0.00000000000E+00 -0.89184840158E+02  0.89184840158E+02  0.00000000000E+00 0.  1.
          2    1    1    2  501    0  0.21862719202E+02  0.72682260977E+01 -0.58875577377E+02  0.63222932651E+02  0.00000000000E+00 0. -1.
         -2    1    1    2    0  502 -0.21862719202E+02 -0.72682260977E+01 -0.23419088234E+02  0.32852082053E+02  0.00000000000E+00 0.  1.
</event>
<event>
 4    1  0.1727273E+004  0.4931523E+02  0.7546771E-02  0.1301169E+00
         21   -1    0    0  501  502  0.00000000000E+00  0.00000000000E+00  0.25255173530E+02  0.25255173530E+02  0.00000000000E+00 0. -1.
         21   -1    0    0  502  503 -0.00000000000E+00 -0.00000000000E+00 -0.18517072335E+03  0.18517072335E+03  0.00000000000E+00 0.  1.
          2    1    1    2  501    0  0.22808141886E+02  0.43723914091E+02 -0.70673899061E+01  0.49819072651E+02  0.00000000000E+00 0. -1.
         -2    1    1    2    0  503 -0.22808141886E+02 -0.43723914091E+02 -0.15284815992E+03  0.16060682423E+03  0.00000000000E+00 0.  1.
</event>
<event>
 4    1  0.1727273E+004  0.2089493E+02  0.7546771E-02  0.1520770E+00
         21   -1    0    0  501  502  0.00000000000E+00  0.00000000000E+00  0.53674007515E+01  0.53674007515E+01  0.00000000000E+00 0.  1.
         21   -1    0    0  502  503 -0.00000000000E+00 -0.00000000000E+00 -0.14053780548E+03  0.14053780548E+03  0.00000000000E+00 0. -1.
          2    1    1    2  501    0 -0.18618122680E+02  0.94849085313E+01 -0.20238720371E+02  0.29089582057E+02  0.00000000000E+00 0.  1.
         -2    1    1    2    0  503  0.18618122680E+02 -0.94849085313E+01 -0.11493168436E+03  0.11681562417E+03  0.00000000000E+00 0. -1.
</event>
<event>
 4    1  0.1727273E+004  0.3040991E+02  0.7546771E-02  0.1416067E+00
         21   -1    0    0  503  502  0.00000000000E+00  0.00000000000E+00  0.60431055551E+02  0.60431055551E+02  0.00000000000E+00 0. -1.
         21   -1    0    0  501  503 -0.00000000000E+00 -0.00000000000E+00 -0.87007691539E+02  0.87007691539E+02  0.00000000000E+00 0.  1.
          2    1    1    2  501    0 -0.23595749966E+02  0.19183410652E+02 -0.80211608985E+02  0.85782660699E+02  0.00000000000E+00 0.  1.
         -2    1    1    2    0  502  0.23595749966E+02 -0.19183410652E+02  0.53634972996E+02  0.61656086391E+02  0.00000000000E+00 0. -1.
</event>
<event>
 4    1  0.1727273E+004  0.2024828E+02  0.7546771E-02  0.1530274E+00
         21   -1    0    0  501  502  0.00000000000E+00  0.00000000000E+00  0.10293425859E+04  0.10293425859E+04  0.00000000000E+00 0.  1.
         21   -1    0    0  502  503 -0.00000000000E+00 -0.00000000000E+00 -0.17054215817E+01  0.17054215817E+01  0.00000000000E+00 0. -1.
          2    1    1    2  501    0 -0.17717383634E+02 -0.98024009188E+01  0.96514432337E+03  0.96535669972E+03  0.00000000000E+00 0.  1.
         -2    1    1    2    0  503  0.17717383634E+02  0.98024009188E+01  0.62492840944E+02  0.65691307765E+02  0.00000000000E+00 0. -1.
</event>
<event>
 4    1  0.1727273E+004  0.3052102E+02  0.7546771E-02  0.1415122E+00
         21   -1    0    0  503  502  0.00000000000E+00  0.00000000000E+00  0.19609665290E+03  0.19609665290E+03  0.00000000000E+00 0.  1.
         21   -1    0    0  501  503 -0.00000000000E+00 -0.00000000000E+00 -0.64362303954E+01  0.64362303954E+01  0.00000000000E+00 0. -1.
          2    1    1    2  501    0 -0.30474441827E+02 -0.16855056365E+01  0.43002743876E+02  0.52732992659E+02  0.00000000000E+00 0. -1.
         -2    1    1    2    0  502  0.30474441827E+02  0.16855056365E+01  0.14665767862E+03  0.14979989063E+03  0.00000000000E+00 0.  1.
</event>
<event>
 4    1  0.1727273E+004  0.2063144E+02  0.7546771E-02  0.1524593E+00
         21   -1    0    0  501  502  0.00000000000E+00  0.00000000000E+00  0.39804849935E+01  0.39804849935E+01  0.00000000000E+00 0.  1.
         21   -1    0    0  502  503 -0.00000000000E+00 -0.00000000000E+00 -0.15745935619E+03  0.15745935619E+03  0.00000000000E+00 0. -1.
          2    1    1    2  501    0  0.19869248116E+02 -0.55560077865E+01 -0.31015504851E+02  0.37250742065E+02  0.00000000000E+00 0. -1.
         -2    1    1    2    0  503 -0.19869248116E+02  0.55560077865E+01 -0.12246336635E+03  0.12418909912E+03  0.00000000000E+00 0.  1.
</event>
<event>
 4    1  0.1727273E+004  0.2454845E+02  0.7546771E-02  0.1473919E+00
         21   -1    0    0  501  502  0.00000000000E+00  0.00000000000E+00  0.31621647158E+03  0.31621647158E+03  0.00000000000E+00 0.  1.
         21   -1    0    0  502  503 -0.00000000000E+00 -0.00000000000E+00 -0.27711843829E+01  0.27711843829E+01  0.00000000000E+00 0. -1.
          2    1    1    2  501    0 -0.93340073853E+01  0.22704681956E+02  0.24585406508E+03  0.24707660268E+03  0.00000000000E+00 0.  1.
         -2    1    1    2    0  503  0.93340073853E+01 -0.22704681956E+02  0.67591222113E+02  0.71911053277E+02  0.00000000000E+00 0. -1.
</event>
<event>
 4    1  0.1727273E+004  0.2657942E+02  0.7546771E-02  0.1451879E+00
         21   -1    0    0  503  502  0.00000000000E+00  0.00000000000E+00  0.66379838543E+01  0.66379838543E+01  0.00000000000E+00 0. -1.
         21   -1    0    0  501  503 -0.00000000000E+00 -0.00000000000E+00 -0.13797806731E+03  0.13797806731E+03  0.00000000000E+00 0.  1.
          2    1    1    2  501    0 -0.26059292760E+02  0.52324685114E+01 -0.10024674384E+03  0.10371053523E+03  0.00000000000E+00 0.  1.
         -2    1    1    2    0  502  0.26059292760E+02 -0.52324685114E+01 -0.31093339613E+02  0.40905515938E+02  0.00000000000E+00 0. -1.
</event>
<event>
 4    1  0.1727273E+004  0.2221852E+02  0.7546771E-02  0.1502552E+00
         21   -1    0    0  501  502  0.00000000000E+00  0.00000000000E+00  0.38968933763E+03  0.38968933763E+03  0.00000000000E+00 0. -1.
         21   -1    0    0  502  503 -0.00000000000E+00 -0.00000000000E+00 -0.46018028648E+01  0.46018028648E+01  0.00000000000E+00 0.  1.
          2    1    1    2  501    0  0.49961177545E+01 -0.21649509382E+02  0.36037410030E+03  0.36105838117E+03  0.00000000000E+00 0. -1.
         -2    1    1    2    0  503 -0.49961177545E+01  0.21649509382E+02  0.24713434470E+02  0.33232759325E+02  0.00000000000E+00 0.  1.
</event>
<event>
 4    1  0.1727273E+004  0.3061101E+02  0.7546771E-02  0.1414360E+00
         21   -1    0    0  501  502  0.00000000000E+00  0.00000000000E+00  0.98235035145E+01  0.98235035145E+01  0.00000000000E+00 0. -1.
         21   -1    0    0  502  503 -0.00000000000E+00 -0.00000000000E+00 -0.15457374748E+03  0.15457374748E+03  0.00000000000E+00 0.  1.
          2    1    1    2  501    0 -0.15685985697E+01  0.30570791093E+02 -0.21511274463E+02  0.37413482845E+02  0.00000000000E+00 0. -1.
         -2    1    1    2    0  503  0.15685985697E+01 -0.30570791093E+02 -0.12323896951E+03  0.12698376815E+03  0.00000000000E+00 0.  1.
</event>
<event>
 4    1  0.1727273E+004  0.3322802E+02  0.7546771E-02  0.1393468E+00
         21   -1    0    0  501  502  0.00000000000E+00  0.00000000000E+00  0.20372492182E+03  0.20372492182E+03  0.00000000000E+00 0. -1.
         21   -1    0    0  502  503 -0.00000000000E+00 -0.00000000000E+00 -0.60292304492E+01  0.60292304492E+01  0.00000000000E+00 0.  1.
          2    1    1    2  501    0 -0.12315448506E+02 -0.30861479646E+02  0.13219771404E+03  0.13630970910E+03  0.00000000000E+00 0. -1.
         -2    1    1    2    0  503  0.12315448506E+02  0.30861479646E+02  0.65497977333E+02  0.73444443170E+02  0.00000000000E+00 0.  1.
</event>
<event>
 4    1  0.1727273E+004  0.3314909E+02  0.7546771E-02  0.1394064E+00
         21   -1    0    0  503  502  0.00000000000E+00  0.00000000000E+00  0.50845518859E+01  0.50845518859E+01  0.00000000000E+00 0.  1.
         21   -1    0    0  501  503 -0.00000000000E+00 -0.00000000000E+00 -0.34996218367E+03  0.34996218367E+03  0.00000000000E+00 0. -1.
          2    1    1    2  501    0 -0.32818800400E+02  0.46677834459E+01 -0.28222435605E+03  0.28416447528E+03  0.00000000000E+00 0. -1.
         -2    1    1    2    0  502  0.32818800400E+02 -0.46677834459E+01 -0.62653275736E+02  0.70882260280E+02  0.00000000000E+00 0.  1.
</event>
<event>
 4    1  0.1727273E+004  0.2714415E+02  0.7546771E-02  0.1446165E+00
         21   -1    0    0  503  502  0.00000000000E+00  0.00000000000E+00  0.53076682812E+02  0.53076682812E+02  0.00000000000E+00 0.  1.
         21   -1    0    0  501  503 -0.00000000000E+00 -0.00000000000E+00 -0.13883680714E+02  0.13883680714E+02  0.00000000000E+00 0. -1.
          2    1    1    2  501    0  0.24485876945E+02  0.11715238803E+02  0.19216904926E+02  0.33257997909E+02  0.00000000000E+00 0. -1.
         -2    1    1    2    0  502 -0.24485876945E+02 -0.11715238803E+02  0.19976097172E+02  0.33702365617E+02  0.00000000000E+00 0.  1.
</event>
<event>
 4    1  0.1727273E+004  0.6280147E+02  0.7546771E-02  0.1250600E+00
         21   -1    0    0  503  502  0.00000000000E+00  0.00000000000E+00  0.11619292681E+03  0.11619292681E+03  0.00000000000E+00 0.  1.
         21   -1    0    0  501  503 -0.00000000000E+00 -0.00000000000E+00 -0.36494982764E+02  0.36494982764E+02  0.00000000000E+00 0. -1.
          2    1    1    2  501    0 -0.43706689770E+02 -0.45097113913E+02  0.19663795052E+02  0.65807972539E+02  0.00000000000E+00 0.  1.
         -2    1    1    2    0  502  0.43706689770E+02  0.45097113913E+02  0.60034148999E+02  0.86879937039E+02  0.00000000000E+00 0. -1.
</event>
<event>
 4    1  0.1727273E+004  0.3453821E+02  0.7546771E-02  0.1383839E+00
         21   -1    0    0  501  502  0.00000000000E+00  0.00000000000E+00  0.56148216361E+01  0.56148216361E+01  0.00000000000E+00 0. -1.
         21   -1    0    0  502  503 -0.00000000000E+00 -0.00000000000E+00 -0.21732581872E+03  0.21732581872E+03  0.00000000000E+00 0.  1.
          2    1    1    2  501    0 -0.15660006270E+02  0.30783957301E+02 -0.89164709486E+02  0.95620255392E+02  0.00000000000E+00 0. -1.
         -2    1    1    2    0  503  0.15660006270E+02 -0.30783957301E+02 -0.12254628760E+03  0.12732038496E+03  0.00000000000E+00 0.  1.
</event>
<event>
 4    1  0.1727273E+004  0.3684812E+02  0.7546771E-02  0.1368016E+00
         21   -1    0    0  501  502  0.00000000000E+00  0.00000000000E+00  0.22794027959E+03  0.22794027959E+03  0.00000000000E+00 0.  1.
         21   -1    0    0  502  503 -0.00000000000E+00 -0.00000000000E+00 -0.76653602521E+01  0.76653602521E+01  0.00000000000E+00 0. -1.
          2    1    1    2  501    0  0.28335710930E+02 -0.23555713087E+02  0.16575482589E+03  0.16980119681E+03  0.00000000000E+00 0. -1.
         -2    1    1    2    0  503 -0.28335710930E+02  0.23555713087E+02  0.54520093450E+02  0.65804443032E+02  0.00000000000E+00 0.  1.
</event>
<event>
 4    1  0.1727273E+004  0.2124430E+02  0.7546771E-02  0.1515805E+00
         21   -1    0    0  503  502  0.00000000000E+00  0.00000000000E+00  0.92101640474E+01  0.92101640474E+01  0.00000000000E+00 0.  1.
         21   -1    0    0  501  503 -0.00000000000E+00 -0.00000000000E+00 -0.12853572230E+03  0.12853572230E+03  0.00000000000E+00 0. -1.
          2    1    1    2  501    0 -0.51780251643E+01 -0.20603604278E+02 -0.11383930987E+03  0.11580461530E+03  0.00000000000E+00 0. -1.
         -2    1    1    2    0  502  0.51780251643E+01  0.20603604278E+02 -0.54862483864E+01  0.21941271048E+02  0.00000000000E+00 0.  1.
</event>
<event>
 4    1  0.1727273E+004  0.4873557E+02  0.7546771E-02  0.1303750E+00
         21   -1    0    0  501  502  0.00000000000E+00  0.00000000000E+00  0.14629560900E+03  0.14629560900E+03  0.00000000000E+00 0.  1.
         21   -1    0    0  502  503 -0.00000000000E+00 -0.00000000000E+00 -0.47952574828E+02  0.47952574828E+02  0.00000000000E+00 0. -1.
          2    1    1    2  501    0 -0.99053766793E+01  0.47718335645E+02  0.12816091443E+03  0.13711446325E+03  0.00000000000E+00 0.  1.
         -2    1    1    2    0  503  0.99053766793E+01 -0.47718335645E+02 -0.29817880260E+02  0.57133720579E+02  0.00000000000E+00 0. -1.
</event>
<event>
 4    1  0.1727273E+004  0.3497373E+02  0.7546771E-02  0.1380748E+00
         21   -1    0    0  501  502  0.00000000000E+00  0.00000000000E+00  0.10294392964E+02  0.10294392964E+02  0.00000000000E+00 0. -1.
         21   -1    0    0  502  503 -0.00000000000E+00 -0.00000000000E+00 -0.54150923497E+03  0.54150923497E+03  0.00000000000E+00 0.  1.
          2    1    1    2  501    0  0.28814403800E+02  0.19821498914E+02 -0.21847040949E+02  0.41236572163E+02  0.00000000000E+00 0. -1.
         -2    1    1    2    0  503 -0.28814403800E+02 -0.19821498914E+02 -0.50936780106E+03  0.51056705577E+03  0.00000000000E+00 0.  1.
</event>
<event>
 4    1  0.1727273E+004  0.4147512E+02  0.7546771E-02  0.1340052E+00
         21   -1    0    0  501  502  0.00000000000E+00  0.00000000000E+00  0.37645708812E+03  0.37645708812E+03  0.00000000000E+00 0.  1.
         21   -1    0    0  502  503 -0.00000000000E+00 -0.00000000000E+00 -0.55193479984E+01  0.55193479984E+01  0.00000000000E+00 0. -1.
          2    1    1    2  501    0  0.16628523430E+02 -0.37995759996E+02  0.26470277410E+03  0.26793235002E+03  0.00000000000E+00 0.  1.
         -2    1    1    2    0  503 -0.16628523430E+02  0.37995759996E+02  0.10623496602E+03  0.11404408610E+03  0.00000000000E+00 0. -1.
</event>
<event>
 4    1  0.1727273E+004  0.3147723E+02  0.7546771E-02  0.1407179E+00
         21   -1    0    0  501  502  0.00000000000E+00  0.00000000000E+00  0.31458422948E+02  0.31458422948E+02  0.00000000000E+00 0.  1.
         21   -1    0    0  502  503 -0.00000000000E+00 -0.00000000000E+00 -0.99430360551E+02  0.99430360551E+02  0.00000000000E+00 0. -1.
          2    1    1    2  501    0 -0.25122833366E+02  0.18964688712E+02  0.20109078296E+02  0.37352258355E+02  0.00000000000E+00 0.  1.
         -2    1    1    2    0  503  0.25122833366E+02 -0.18964688712E+02 -0.88081015899E+02  0.93536525144E+02  0.00000000000E+00 0. -1.
</event>
<event>
 4    1  0.1727273E+004  0.2914641E+02  0.7546771E-02  0.1427162E+00
         21   -1    0    0  501  502  0.00000000000E+00  0.00000000000E+00  0.32962647340E+02  0.32962647340E+02  0.00000000000E+00 0.  1.
         21   -1    0    0  502  503 -0.00000000000E+00 -0.00000000000E+00 -0.27137575979E+02  0.27137575979E+02  0.00000000000E+00 0. -1.
          2    1    1    2  501    0 -0.20780943126E+02  0.20436867655E+02 -0.38283881116E+01  0.29396763636E+02  0.00000000000E+00 0. -1.
         -2    1    1    2    0  503  0.20780943126E+02 -0.20436867655E+02  0.96534594730E+01  0.30703459683E+02  0.00000000000E+00 0.  1.
</event>
<event>
 4    1  0.1727273E+004  0.1559198E+03  0.7546771E-02  0.1091700E+00
         21   -1    0    0  501  502  0.00000000000E+00  0.00000000000E+00  0.77191232794E+02  0.77191232794E+02  0.00000000000E+00 0.  1.
         21   -1    0    0  502  503 -0.00000000000E+00 -0.00000000000E+00 -0.32005333167E+03  0.32005333167E+03  0.00000000000E+00 0. -1.
          2    1    1    2  501    0  0.43556306812E+02  0.14971253718E+03 -0.96337923209E+02  0.18328118043E+03  0.00000000000E+00 0. -1.
         -2    1    1    2    0  503 -0.43556306812E+02 -0.14971253718E+03 -0.14652417567E+03  0.21396338404E+03  0.00000000000E+00 0.  1.
</event>
<event>
 4    1  0.1727273E+004  0.2645799E+02  0.7546771E-02  0.1453130E+00
         21   -1    0    0  501  502  0.00000000000E+00  0.00000000000E+00  0.12853312047E+02  0.12853312047E+02  0.00000000000E+00 0. -1.
         21   -1    0    0  502  503 -0.00000000000E+00 -0.00000000000E+00 -0.44807206894E+03  0.44807206894E+03  0.00000000000E+00 0.  1.
          2    1    1    2  501    0 -0.23989372291E+02 -0.11159528910E+02 -0.16065448792E+01  0.26506717165E+02  0.00000000000E+00 0. -1.
         -2    1    1    2    0  503  0.23989372291E+02  0.11159528910E+02 -0.43361221201E+03  0.43441866382E+03  0.00000000000E+00 0.  1.
</event>
<event>
 4    1  0.1727273E+004  0.2511581E+02  0.7546771E-02  0.1467512E+00
         21   -1    0    0  501  502  0.00000000000E+00  0.00000000000E+00  0.91246149976E+01  0.91246149976E+01  0.00000000000E+00 0. -1.
         21   -1    0    0  502  503 -0.00000000000E+00 -0.00000000000E+00 -0.11188190852E+03  0.11188190852E+03  0.00000000000E+00 0.  1.
          2    1    1    2  501    0  0.25098912599E+02  0.92103746475E+00 -0.13979130692E+02  0.28744039706E+02  0.00000000000E+00 0. -1.
         -2    1    1    2    0  503 -0.25098912599E+02 -0.92103746475E+00 -0.88778162826E+02  0.92262483808E+02  0.00000000000E+00 0.  1.
</event>
<event>
 4    1  0.1727273E+004  0.3228163E+02  0.7546771E-02  0.1400752E+00
         21   -1    0    0  503  502  0.00000000000E+00  0.00000000000E+00  0.91705658649E+01  0.91705658649E+01  0.00000000000E+00 0.  1.
         21   -1    0    0  501  503 -0.00000000000E+00 -0.00000000000E+00 -0.27877098224E+03  0.27877098224E+03  0.00000000000E+00 0. -1.
          2    1    1    2  501    0  0.18999895886E+02 -0.26098032038E+02 -0.24560806215E+03  0.24772045437E+03  0.00000000000E+00 0. -1.
         -2    1    1    2    0  502 -0.18999895886E+02  0.26098032038E+02 -0.23992354222E+02  0.40221093732E+02  0.00000000000E+00 0.  1.
</event>
<event>
 4    1  0.1727273E+004  0.2161837E+02  0.7546771E-02  0.1510616E+00
         21   -1    0    0  501  502  0.00000000000E+00  0.00000000000E+00  0.52287887335E+03  0.52287887335E+03  0.00000000000E+00 0. -1.
         21   -1    0    0  502  503 -0.00000000000E+00 -0.00000000000E+00 -0.59254489479E+01  0.59254489479E+01  0.00000000000E+00 0.  1.
          2    1    1    2  501    0 -0.13787611125E+02  0.16650991001E+02  0.50212264076E+03  0.50258780336E+03  0.00000000000E+00 0. -1.
         -2    1    1    2    0  503  0.13787611125E+02 -0.16650991001E+02  0.14830783643E+02  0.26216518940E+02  0.00000000000E+00 0.  1.
</event>
<event>
 4    1  0.1727273E+004  0.2054435E+02  0.7546771E-02  0.1525871E+00
         21   -1    0    0  503  502  0.00000000000E+00  0.00000000000E+00  0.49972466450E+02  0.49972466450E+02  0.00000000000E+00 0. -1.
         21   -1    0    0  501  503 -0.00000000000E+00 -0.00000000000E+00 -0.16854706444E+02  0.16854706444E+02  0.00000000000E+00 0.  1.
          2    1    1    2  501    0 -0.14176036388E+02  0.14869781034E+02 -0.70418573009E+01  0.21717692095E+02  0.00000000000E+00 0.  1.
         -2    1    1    2    0  502  0.14176036388E+02 -0.14869781034E+02  0.40159617307E+02  0.45109480799E+02  0.00000000000E+00 0. -1.
</event>
<event>
 4    1  0.1727273E+004  0.2142968E+02  0.7546771E-02  0.1513218E+00
         21   -1    0    0  503  502  0.00000000000E+00  0.00000000000E+00  0.74726025899E+02  0.74726025899E+02  0.00000000000E+00 0.  1.
         21   -1    0    0  501  503 -0.00000000000E+00 -0.00000000000E+00 -0.19684612867E+02  0.19684612867E+02  0.00000000000E+00 0. -1.
          2    1    1    2  501    0 -0.19663603954E+02 -0.85190384787E+01 -0.11628418450E+02  0.24381375119E+02  0.00000000000E+00 0. -1.
         -2    1    1    2    0  502  0.19663603954E+02  0.85190384787E+01  0.66669831482E+02  0.70029263647E+02  0.00000000000E+00 0.  1.
</event>
<event>
 4    1  0.1727273E+004  0.3088793E+02  0.7546771E-02  0.1412034E+00
         21   -1    0    0  501  502  0.00000000000E+00  0.00000000000E+00  0.20103486484E+03  0.20103486484E+03  0.00000000000E+00 0.  1.
         21   -1    0    0  502  503 -0.00000000000E+00 -0.00000000000E+00 -0.21150723363E+02  0.21150723363E+02  0.00000000000E+00 0. -1.
          2    1    1    2  501    0  0.10792360754E+02  0.28941130116E+02 -0.78966699839E+01  0.31881365401E+02  0.00000000000E+00 0. -1.
         -2    1    1    2    0  503 -0.10792360754E+02 -0.28941130116E+02  0.18778081147E+03  0.19030422281E+03  0.00000000000E+00 0.  1.
</event>
<event>
 4    1  0.1727273E+004  0.2785670E+02  0.7546771E-02  0.1439187E+00
         21   -1    0    0  503  502  0.00000000000E+00  0.00000000000E+00  0.20816141703E+02  0.20816141703E+02  0.00000000000E+00 0. -1.
         21   -1    0    0  501  503 -0.00000000000E+00 -0.00000000000E+00 -0.44560893591E+02  0.44560893591E+02  0.00000000000E+00 0.  1.
          2    1    1    2  501    0  0.25809912037E+02 -0.10480652013E+02 -0.25086969106E+02  0.37488020018E+02  0.00000000000E+00 0.  1.
         -2    1    1    2    0  502 -0.25809912037E+02  0.10480652013E+02  0.13422172188E+01  0.27889015275E+02  0.00000000000E+00 0. -1.
</event>
<event>
 4    1  0.1727273E+004  0.2470617E+02  0.7546771E-02  0.1472117E+00
         21   -1    0    0  503  502  0.00000000000E+00  0.00000000000E+00  0.12077588651E+02  0.12077588651E+02  0.00000000000E+00 0.  1.
         21   -1    0    0  501  503 -0.00000000000E+00 -0.00000000000E+00 -0.62172110895E+02  0.62172110895E+02  0.00000000000E+00 0. -1.
          2    1    1    2  501    0 -0.21458559304E+02  0.12244382520E+02 -0.89887062958E+01  0.26290521326E+02  0.00000000000E+00 0.  1.
         -2    1    1    2    0  502  0.21458559304E+02 -0.12244382520E+02 -0.41105815948E+02  0.47959178220E+02  0.00000000000E+00 0. -1.
</event>
<event>
 4    1  0.1727273E+004  0.2101023E+02  0.7546771E-02  0.1519119E+00
         21   -1    0    0  501  502  0.00000000000E+00  0.00000000000E+00  0.25275112505E+02  0.25275112505E+02  0.00000000000E+00 0. -1.
         21   -1    0    0  502  503 -0.00000000000E+00 -0.00000000000E+00 -0.18301302007E+02  0.18301302007E+02  0.00000000000E+00 0.  1.
          2    1    1    2  501    0 -0.15847307654E+02 -0.13794652523E+02  0.81445306577E+01  0.22533596645E+02  0.00000000000E+00 0. -1.
         -2    1    1    2    0  503  0.15847307654E+02  0.13794652523E+02 -0.11707201600E+01  0.21042817868E+02  0.00000000000E+00 0.  1.
</event>
<event>
 4    1  0.1727273E+004  0.2712389E+02  0.7546771E-02  0.1446368E+00
         21   -1    0    0  501  502  0.00000000000E+00  0.00000000000E+00  0.18549226201E+02  0.18549226201E+02  0.00000000000E+00 0.  1.
         21   -1    0    0  502  503 -0.00000000000E+00 -0.00000000000E+00 -0.40782491260E+02  0.40782491260E+02  0.00000000000E+00 0. -1.
          2    1    1    2  501    0 -0.23916901824E+02 -0.12794033012E+02 -0.16033187748E+02  0.31508230400E+02  0.00000000000E+00 0. -1.
         -2    1    1    2    0  503  0.23916901824E+02  0.12794033012E+02 -0.62000773117E+01  0.27823487061E+02  0.00000000000E+00 0.  1.
</event>
<event>
 4    1  0.1727273E+004  0.3021228E+02  0.7546771E-02  0.1417761E+00
         21   -1    0    0  503  502  0.00000000000E+00  0.00000000000E+00  0.96249744873E+02  0.96249744873E+02  0.00000000000E+00 0.  1.
         21   -1    0    0  501  503 -0.00000000000E+00 -0.00000000000E+00 -0.10936435458E+02  0.10936435458E+02  0.00000000000E+00 0. -1.
          2    1    1    2  501    0  0.27486480494E+02 -0.12540931998E+02  0.23122324718E+02  0.38045019197E+02  0.00000000000E+00 0. -1.
         -2    1    1    2    0  502 -0.27486480494E+02  0.12540931998E+02  0.62190984697E+02  0.69141161133E+02  0.00000000000E+00 0.  1.
</event>
<event>
 4    1  0.1727273E+004  0.3337402E+02  0.7546771E-02  0.1392369E+00
         21   -1    0    0  501  502  0.00000000000E+00  0.00000000000E+00  0.16507661537E+02  0.16507661537E+02  0.00000000000E+00 0. -1.
         21   -1    0    0  502  503 -0.00000000000E+00 -0.00000000000E+00 -0.74035365154E+02  0.74035365154E+02  0.00000000000E+00 0.  1.
          2    1    1    2  501    0 -0.26031090817E+02 -0.20885585158E+02 -0.15285780174E+02  0.36708043152E+02  0.00000000000E+00 0. -1.
         -2    1    1    2    0  503  0.26031090817E+02  0.20885585158E+02 -0.42241923442E+02  0.53834983539E+02  0.00000000000E+00 0.  1.
</event>
<event>
 4    1  0.1727273E+004  0.2001383E+02  0.7546771E-02  0.1533824E+00
         21   -1    0    0  503  502  0.00000000000E+00  0.00000000000E+00  0.89919996755E+01  0.89919996755E+01  0.00000000000E+00 0. -1.
         21   -1    0    0  501  503 -0.00000000000E+00 -0.00000000000E+00 -0.17258214471E+03  0.17258214471E+03  0.00000000000E+00 0.  1.
          2    1    1    2  501    0  0.27720816230E+01 -0.19820925784E+02 -0.15999262209E+03  0.16123955054E+03  0.00000000000E+00 0.  1.
         -2    1    1    2    0  502 -0.27720816230E+01  0.19820925784E+02 -0.35975229444E+01  0.20334593844E+02  0.00000000000E+00 0. -1.
</event>
<event>
 4    1  0.1727273E+004  0.2549442E+02  0.7546771E-02  0.1463348E+00
         21   -1    0    0  501  502  0.00000000000E+00  0.00000000000E+00  0.15285600399E+02  0.15285600399E+02  0.00000000000E+00 0. -1.
         21   -1    0    0  502  503 -0.00000000000E+00 -0.00000000000E+00 -0.14589104690E+03  0.14589104690E+03  0.00000000000E+00 0.  1.
          2    1    1    2  501    0  0.24208876532E+02 -0.79934860909E+01  0.25323446095E+01  0.25619880797E+02  0.00000000000E+00 0. -1.
         -2    1    1    2    0  503 -0.24208876532E+02  0.79934860909E+01 -0.13313779111E+03  0.13555676650E+03  0.00000000000E+00 0.  1.
</event>
<event>
 4    1  0.1727273E+004  0.2008014E+02  0.7546771E-02  0.1532814E+00
         21   -1    0    0  501  502  0.00000000000E+00  0.00000000000E+00  0.11828809417E+02  0.11828809417E+02  0.00000000000E+00 0. -1.
         21   -1    0    0  502  503 -0.00000000000E+00 -0.00000000000E+00 -0.76045623262E+02  0.76045623262E+02  0.00000000000E+00 0.  1.
          2    1    1    2  501    0 -0.12136939727E+02 -0.15997086156E+02  0.52816495017E+00  0.20087086141E+02  0.00000000000E+00 0. -1.
         -2    1    1    2    0  503  0.12136939727E+02  0.15997086156E+02 -0.64744978795E+02  0.67787346537E+02  0.00000000000E+00 0.  1.
</event>
<event>
 4    1  0.1727273E+004  0.2218522E+02  0.7546771E-02  0.1502991E+00
         21   -1    0    0  503  502  0.00000000000E+00  0.00000000000E+00  0.13308489812E+02  0.13308489812E+02  0.00000000000E+00 0. -1.
         21   -1    0    0  501  503 -0.00000000000E+00 -0.00000000000E+00 -0.37324939841E+02  0.37324939841E+02  0.00000000000E+00 0.  1.
          2    1    1    2  501    0 -0.53233173210E+01 -0.21537095919E+02 -0.14432365220E+02  0.26466533089E+02  0.00000000000E+00 0. -1.
         -2    1    1    2    0  502  0.53233173210E+01  0.21537095919E+02 -0.95840848085E+01  0.24166896564E+02  0.00000000000E+00 0.  1.
</event>
<event>
 4    1  0.1727273E+004  0.2065503E+02  0.7546771E-02  0.1524248E+00
         21   -1    0    0  503  502  0.00000000000E+00  0.00000000000E+00  0.13520957151E+04  0.13520957151E+04  0.00000000000E+00 0.  1.
         21   -1    0    0  501  503 -0.00000000000E+00 -0.00000000000E+00 -0.98485752414E+00  0.98485752414E+00  0.00000000000E+00 0. -1.
          2    1    1    2  501    0 -0.66797926239E+01  0.19545095385E+02  0.11782359643E+03  0.11962035889E+03  0.00000000000E+00 0. -1.
         -2    1    1    2    0  502  0.66797926239E+01 -0.19545095385E+02  0.12332872612E+04  0.12334602138E+04  0.00000000000E+00 0.  1.
</event>
<event>
 4    1  0.1727273E+004  0.2093610E+02  0.7546771E-02  0.1520179E+00
         21   -1    0    0  501  502  0.00000000000E+00  0.00000000000E+00  0.18089228898E+01  0.18089228898E+01  0.00000000000E+00 0.  1.
         21   -1    0    0  502  503 -0.00000000000E+00 -0.00000000000E+00 -0.51125357107E+03  0.51125357107E+03  0.00000000000E+00 0. -1.
          2    1    1    2  501    0  0.16378505101E+02 -0.13040892409E+02 -0.68662506926E+02  0.71783425396E+02  0.00000000000E+00 0.  1.
         -2    1    1    2    0  503 -0.16378505101E+02  0.13040892409E+02 -0.44078214125E+03  0.44127906856E+03  0.00000000000E+00 0. -1.
</event>
<event>
 4    1  0.1727273E+004  0.2117589E+02  0.7546771E-02  0.1516768E+00
         21   -1    0    0  501  502  0.00000000000E+00  0.00000000000E+00  0.45469889634E+02  0.45469889634E+02  0.00000000000E+00 0.  1.
         21   -1    0    0  502  503 -0.00000000000E+00 -0.00000000000E+00 -0.10122490738E+02  0.10122490738E+02  0.00000000000E+00 0. -1.
          2    1    1    2  501    0 -0.20693306630E+02  0.44950360863E+01  0.13213612255E+02  0.24960325269E+02  0.00000000000E+00 0. -1.
         -2    1    1    2    0  503  0.20693306630E+02 -0.44950360863E+01  0.22133786641E+02  0.30632055102E+02  0.00000000000E+00 0.  1.
</event>
<event>
 4    1  0.1727273E+004  0.2887889E+02  0.7546771E-02  0.1429595E+00
         21   -1    0    0  501  502  0.00000000000E+00  0.00000000000E+00  0.11005639702E+04  0.11005639702E+04  0.00000000000E+00 0.  1.
         21   -1    0    0  502  503 -0.00000000000E+00 -0.00000000000E+00 -0.18629218939E+01  0.18629218939E+01  0.00000000000E+00 0. -1.
          2    1    1    2  501    0  0.27681689309E+02 -0.82288644681E+01  0.97390228807E+03  0.97433036329E+03  0.00000000000E+00 0.  1.
         -2    1    1    2    0  503 -0.27681689309E+02  0.82288644681E+01  0.12479876023E+03  0.12809652879E+03  0.00000000000E+00 0. -1.
</event>
<event>
 4    1  0.1727273E+004  0.2194733E+02  0.7546771E-02  0.1506157E+00
         21   -1    0    0  503  502  0.00000000000E+00  0.00000000000E+00  0.18163914007E+02  0.18163914007E+02  0.00000000000E+00 0.  1.
         21   -1    0    0  501  503 -0.00000000000E+00 -0.00000000000E+00 -0.28170845495E+02  0.28170845495E+02  0.00000000000E+00 0. -1.
          2    1    1    2  501    0 -0.16653328904E+02 -0.14295173056E+02 -0.10613777723E+02  0.24379040462E+02  0.00000000000E+00 0. -1.
         -2    1    1    2    0  502  0.16653328904E+02  0.14295173056E+02  0.60684623543E+00  0.21955719041E+02  0.00000000000E+00 0.  1.
</event>
<event>
 4    1  0.1727273E+004  0.2179305E+02  0.7546771E-02  0.1508237E+00
         21   -1    0    0  501  502  0.00000000000E+00  0.00000000000E+00  0.13324418656E+01  0.13324418656E+01  0.00000000000E+00 0.  1.
         21   -1    0    0  502  503 -0.00000000000E+00 -0.00000000000E+00 -0.78346585352E+03  0.78346585352E+03  0.00000000000E+00 0. -1.
          2    1    1    2  501    0 -0.20482161450E+02  0.74443232898E+01 -0.10136930127E+03  0.10368544800E+03  0.00000000000E+00 0.  1.
         -2    1    1    2    0  503  0.20482161450E+02 -0.74443232898E+01 -0.68076411039E+03  0.68111284739E+03  0.00000000000E+00 0. -1.
</event>
<event>
 4    1  0.1727273E+004  0.2167280E+02  0.7546771E-02  0.1509872E+00
         21   -1    0    0  501  502  0.00000000000E+00  0.00000000000E+00  0.63132989699E+01  0.63132989699E+01  0.00000000000E+00 0. -1.
         21   -1    0    0  502  503 -0.00000000000E+00 -0.00000000000E+00 -0.13766368828E+03  0.13766368828E+03  0.00000000000E+00 0.  1.
          2    1    1    2  501    0 -0.45678994441E+01  0.21185950905E+02 -0.16874026652E+02  0.27467125742E+02  0.00000000000E+00 0. -1.
         -2    1    1    2    0  503  0.45678994441E+01 -0.21185950905E+02 -0.11447636266E+03  0.11650986151E+03  0.00000000000E+00 0.  1.
</event>
<event>
 4    1  0.1727273E+004  0.2466927E+02  0.7546771E-02  0.1472537E+00
         21   -1    0    0  503  502  0.00000000000E+00  0.00000000000E+00  0.12260625668E+03  0.12260625668E+03  0.00000000000E+00 0. -1.
         21   -1    0    0  501  503 -0.00000000000E+00 -0.00000000000E+00 -0.79587957330E+01  0.79587957330E+01  0.00000000000E+00 0.  1.
          2    1    1    2  501    0 -0.11465231419E+02 -0.21843106779E+02  0.97371954111E+02  0.10044834639E+03  0.00000000000E+00 0. -1.
         -2    1    1    2    0  502  0.11465231419E+02  0.21843106779E+02  0.17275506839E+02  0.30116706025E+02  0.00000000000E+00 0.  1.
</event>
<event>
 4    1  0.1727273E+004  0.2087904E+02  0.7546771E-02  0.1520999E+00
         21   -1    0    0  503  502  0.00000000000E+00  0.00000000000E+00  0.53069451229E+01  0.53069451229E+01  0.00000000000E+00 0.  1.
         21   -1    0    0  501  503 -0.00000000000E+00 -0.00000000000E+00 -0.86842450941E+02  0.86842450941E+02  0.00000000000E+00 0. -1.
          2    1    1    2  501    0  0.19214080972E+02  0.81702711622E+01 -0.30050854300E+02  0.36592186087E+02  0.00000000000E+00 0.  1.
         -2    1    1    2    0  502 -0.19214080972E+02 -0.81702711622E+01 -0.51484651518E+02  0.55557209977E+02  0.00000000000E+00 0. -1.
</event>
<event>
 4    1  0.1727273E+004  0.2420058E+02  0.7546771E-02  0.1477949E+00
         21   -1    0    0  501  502  0.00000000000E+00  0.00000000000E+00  0.53376459172E+03  0.53376459172E+03  0.00000000000E+00 0.  1.
         21   -1    0    0  502  503 -0.00000000000E+00 -0.00000000000E+00 -0.21503095492E+02  0.21503095492E+02  0.00000000000E+00 0. -1.
          2    1    1    2  501    0 -0.73944062806E+01 -0.23043241461E+02  0.52658842293E+03  0.52714422636E+03  0.00000000000E+00 0.  1.
         -2    1    1    2    0  503  0.73944062806E+01  0.23043241461E+02 -0.14326926706E+02  0.28123460848E+02  0.00000000000E+00 0. -1.
</event>
<event>
 4    1  0.1727273E+004  0.2374333E+02  0.7546771E-02  0.1483369E+00
         21   -1    0    0  501  502  0.00000000000E+00  0.00000000000E+00  0.43855284155E+02  0.43855284155E+02  0.00000000000E+00 0. -1.
         21   -1    0    0  502  503 -0.00000000000E+00 -0.00000000000E+00 -0.24069962319E+02  0.24069962319E+02  0.00000000000E+00 0.  1.
          2    1    1    2  501    0 -0.16684106710E+02 -0.16893373921E+02  0.33075610533E+02  0.40715371929E+02  0.00000000000E+00 0. -1.
         -2    1    1    2    0  503  0.16684106710E+02  0.16893373921E+02 -0.13290288697E+02  0.27209874546E+02  0.00000000000E+00 0.  1.
</event>
<event>
 4    1  0.1727273E+004  0.5883355E+02  0.7546771E-02  0.1263848E+00
         21   -1    0    0  501  502  0.00000000000E+00  0.00000000000E+00  0.93087400394E+01  0.93087400394E+01  0.00000000000E+00 0.  1.
         21   -1    0    0  502  503 -0.00000000000E+00 -0.00000000000E+00 -0.61177981309E+03  0.61177981309E+03  0.00000000000E+00 0. -1.
          2    1    1    2  501    0  0.48498768723E+02 -0.33305502610E+02 -0.10675566062E+03  0.12189404475E+03  0.00000000000E+00 0.  1.
         -2    1    1    2    0  503 -0.48498768723E+02  0.33305502610E+02 -0.49571541243E+03  0.49919450838E+03  0.00000000000E+00 0. -1.
</event>
<event>
 4    1  0.1727273E+004  0.2084008E+02  0.7546771E-02  0.1521560E+00
         21   -1    0    0  503  502  0.00000000000E+00  0.00000000000E+00  0.39959320369E+03  0.39959320369E+03  0.00000000000E+00 0.  1.
         21   -1    0    0  501  503 -0.00000000000E+00 -0.00000000000E+00 -0.18108005590E+01  0.18108005590E+01  0.00000000000E+00 0. -1.
          2    1    1    2  501    0  0.47774931061E+00  0.20834601987E+02  0.71990920647E+02  0.74946657964E+02  0.00000000000E+00 0. -1.
         -2    1    1    2    0  502 -0.47774931061E+00 -0.20834601987E+02  0.32579148249E+03  0.32645734629E+03  0.00000000000E+00 0.  1.
</event>
<event>
 4    1  0.1727273E+004  0.3388667E+02  0.7546771E-02  0.1388564E+00
         21   -1    0    0  501  502  0.00000000000E+00  0.00000000000E+00  0.54276336832E+01  0.54276336832E+01  0.00000000000E+00 0. -1.
         21   -1    0    0  502  503 -0.00000000000E+00 -0.00000000000E+00 -0.22902802519E+03  0.22902802519E+03  0.00000000000E+00 0.  1.
          2    1    1    2  501    0  0.31568065011E+02  0.12319249590E+02 -0.79431529894E+02  0.86357828715E+02  0.00000000000E+00 0. -1.
         -2    1    1    2    0  503 -0.31568065011E+02 -0.12319249590E+02 -0.14416886161E+03  0.14809783016E+03  0.00000000000E+00 0.  1.
</event>
<event>
 4    1  0.1727273E+004  0.2163383E+02  0.7546771E-02  0.1510405E+00
         21   -1    0    0  501  502  0.00000000000E+00  0.00000000000E+00  0.11321378737E+02  0.11321378737E+02  0.00000000000E+00 0. -1.
         21   -1    0    0  502  503 -0.00000000000E+00 -0.00000000000E+00 -0.58094024329E+02  0.58094024329E+02  0.00000000000E+00 0.  1.
          2    1    1    2  501    0  0.88045488311E+01  0.19761140324E+02 -0.47472980274E+01  0.22148579765E+02  0.00000000000E+00 0.  1.
         -2    1    1    2    0  503 -0.88045488311E+01 -0.19761140324E+02 -0.42025347565E+02  0.47266823301E+02  0.00000000000E+00 0. -1.
</event>
<event>
 4    1  0.1727273E+004  0.2250085E+02  0.7546771E-02  0.1498863E+00
         21   -1    0    0  503  502  0.00000000000E+00  0.00000000000E+00  0.68740669771E+03  0.68740669771E+03  0.00000000000E+00 0. -1.
         21   -1    0    0  501  503 -0.00000000000E+00 -0.00000000000E+00 -0.13028926437E+01  0.13028926437E+01  0.00000000000E+00 0.  1.
          2    1    1    2  501    0  0.10666481616E+02 -0.19811979431E+02  0.11601147888E+03  0.11817339629E+03  0.00000000000E+00 0.  1.
         -2    1    1    2    0  502 -0.10666481616E+02  0.19811979431E+02  0.57009232619E+03  0.57053619406E+03  0.00000000000E+00 0. -1.
</event>
<event>
 4    1  0.1727273E+004  0.2429071E+02  0.7546771E-02  0.1476897E+00
         21   -1    0    0  503  502  0.00000000000E+00  0.00000000000E+00  0.30792677837E+03  0.30792677837E+03  0.00000000000E+00 0.  1.
         21   -1    0    0  501  503 -0.00000000000E+00 -0.00000000000E+00 -0.99816204661E+01  0.99816204661E+01  0.00000000000E+00 0. -1.
          2    1    1    2  501    0 -0.48688356656E+01  0.23797753679E+02  0.60878163567E+01  0.25041967752E+02  0.00000000000E+00 0. -1.
         -2    1    1    2    0  502  0.48688356656E+01 -0.23797753679E+02  0.29185734154E+03  0.29286643108E+03  0.00000000000E+00 0.  1.
</event>
<event>
 4    1  0.1727273E+004  0.3243586E+02  0.7546771E-02  0.1399545E+00
         21   -1    0    0  501  502  0.00000000000E+00  0.00000000000E+00  0.71782840412E+02  0.71782840412E+02  0.00000000000E+00 0.  1.
         21   -1    0    0  502  503 -0.00000000000E+00 -0.00000000000E+00 -0.14921174135E+02  0.14921174135E+02  0.00000000000E+00 0. -1.
          2    1    1    2  501    0  0.13285338612E+02  0.29590285123E+02  0.34204656828E+02  0.47138558998E+02  0.00000000000E+00 0.  1.
         -2    1    1    2    0  503 -0.13285338612E+02 -0.29590285123E+02  0.22657009449E+02  0.39565455549E+02  0.00000000000E+00 0. -1.
</event>
<event>
 4    1  0.1727273E+004  0.5192415E+02  0.7546771E-02  0.1290039E+00
         21   -1    0    0  501  502  0.00000000000E+00  0.00000000000E+00  0.20055540000E+03  0.20055540000E+03  0.00000000000E+00 0. -1.
         21   -1    0    0  502  503 -0.00000000000E+00 -0.00000000000E+00 -0.20295614032E+03  0.20295614032E+03  0.00000000000E+00 0.  1.
          2    1    1    2  501    0  0.32397713526E+02 -0.40577152622E+02  0.19375905690E+03  0.20059583566E+03  0.00000000000E+00 0. -1.
         -2    1    1    2    0  503 -0.32397713526E+02  0.40577152622E+02 -0.19615979721E+03  0.20291570466E+03  0.00000000000E+00 0.  1.
</event>
<event>
 4    1  0.1727273E+004  0.3579518E+02  0.7546771E-02  0.1375057E+00
         21   -1    0    0  503  502  0.00000000000E+00  0.00000000000E+00  0.26994179980E+02  0.26994179980E+02  0.00000000000E+00 0. -1.
         21   -1    0    0  501  503 -0.00000000000E+00 -0.00000000000E+00 -0.73804193521E+02  0.73804193521E+02  0.00000000000E+00 0.  1.
          2    1    1    2  501    0 -0.34387135842E+02 -0.99408069963E+01 -0.53512830064E+02  0.64381035535E+02  0.00000000000E+00 0.  1.
         -2    1    1    2    0  502  0.34387135842E+02  0.99408069963E+01  0.67028165221E+01  0.36417337965E+02  0.00000000000E+00 0. -1.
</event>
<event>
 4    1  0.1727273E+004  0.2320830E+02  0.7546771E-02  0.1489899E+00
         21   -1    0    0  503  502  0.00000000000E+00  0.00000000000E+00  0.89989448189E+03  0.89989448189E+03  0.00000000000E+00 0.  1.
         21   -1    0    0  501  503 -0.00000000000E+00 -0.00000000000E+00 -0.10528873332E+01  0.10528873332E+01  0.00000000000E+00 0. -1.
          2    1    1    2  501    0  0.20460687804E+02  0.10953786330E+02  0.15350290450E+03  0.15524743757E+03  0.00000000000E+00 0. -1.
         -2    1    1    2    0  502 -0.20460687804E+02 -0.10953786330E+02  0.74533869005E+03  0.74569993165E+03  0.00000000000E+00 0.  1.
</event>
<event>
 4    1  0.1727273E+004  0.2723588E+02  0.7546771E-02  0.1445253E+00
         21   -1    0    0  501  502  0.00000000000E+00  0.00000000000E+00  0.14511655624E+02  0.14511655624E+02  0.00000000000E+00 0.  1.
         21   -1    0    0  502  503 -0.00000000000E+00 -0.00000000000E+00 -0.56620622601E+02  0.56620622601E+02  0.00000000000E+00 0. -1.
          2    1    1    2  501    0  0.26969270489E+02  0.38014919369E+01 -0.99660009198E+01  0.29001966588E+02  0.00000000000E+00 0.  1.
         -2    1    1    2    0  503 -0.26969270489E+02 -0.38014919369E+01 -0.32142966058E+02  0.42130311637E+02  0.00000000000E+00 0. -1.
</event>
<event>
 4    1  0.1727273E+004  0.2491748E+02  0.7546771E-02  0.1469729E+00
         21   -1    0    0  503  502  0.00000000000E+00  0.00000000000E+00  0.26932890368E+01  0.26932890368E+01  0.00000000000E+00 0. -1.
         21   -1    0    0  501  503 -0.00000000000E+00 -0.00000000000E+00 -0.23240942719E+03  0.23240942719E+03  0.00000000000E+00 0.  1.
          2    1    1    2  501    0  0.15350867495E+02  0.19627314779E+02 -0.10428368216E+03  0.10721924726E+03  0.00000000000E+00 0.  1.
         -2    1    1    2    0  502 -0.15350867495E+02 -0.19627314779E+02 -0.12543245599E+03  0.12788346896E+03  0.00000000000E+00 0. -1.
</event>
<event>
 4    1  0.1727273E+004  0.2310240E+02  0.7546771E-02  0.1491216E+00
         21   -1    0    0  503  502  0.00000000000E+00  0.00000000000E+00  0.11267904771E+03  0.11267904771E+03  0.00000000000E+00 0. -1.
         21   -1    0    0  501  503 -0.00000000000E+00 -0.00000000000E+00 -0.10394661278E+02  0.10394661278E+02  0.00000000000E+00 0.  1.
          2    1    1    2  501    0 -0.15879891812E+02 -0.16779448056E+02  0.57415346389E+01  0.23805168788E+02  0.00000000000E+00 0.  1.
         -2    1    1    2    0  502  0.15879891812E+02  0.16779448056E+02  0.96542851789E+02  0.99268540196E+02  0.00000000000E+00 0. -1.
</event>
<event>
 4    1  0.1727273E+004  0.2260660E+02  0.7546771E-02  0.1497498E+00
         21   -1    0    0  503  502  0.00000000000E+00  0.00000000000E+00  0.63381625728E+03  0.63381625728E+03  0.00000000000E+00 0.  1.
         21   -1    0    0  501  503 -0.00000000000E+00 -0.00000000000E+00 -0.17269303383E+01  0.17269303383E+01  0.00000000000E+00 0. -1.
          2    1    1    2  501    0 -0.20360825758E+02  0.98231977173E+01  0.84029861467E+02  0.87017676693E+02  0.00000000000E+00 0. -1.
         -2    1    1    2    0  502  0.20360825758E+02 -0.98231977173E+01  0.54805946547E+03  0.54852551092E+03  0.00000000000E+00 0.  1.
</event>
<event>
 4    1  0.1727273E+004  0.2166678E+02  0.7546771E-02  0.1509954E+00
         21   -1    0    0  501  502  0.00000000000E+00  0.00000000000E+00  0.17404979538E+03  0.17404979538E+03  0.00000000000E+00 0.  1.
         21   -1    0    0  502  503 -0.00000000000E+00 -0.00000000000E+00 -0.28486309762E+01  0.28486309762E+01  0.00000000000E+00 0. -1.
          2    1    1    2  501    0 -0.54830530132E+01  0.20961519530E+02  0.65208280899E+02  0.68713674542E+02  0.00000000000E+00 0.  1.
         -2    1    1    2    0  503  0.54830530132E+01 -0.20961519530E+02  0.10599288350E+03  0.10818475181E+03  0.00000000000E+00 0. -1.
</event>
<event>
 4    1  0.1727273E+004  0.2112514E+02  0.7546771E-02  0.1517486E+00
         21   -1    0    0  501  502  0.00000000000E+00  0.00000000000E+00  0.11508530099E+03  0.11508530099E+03  0.00000000000E+00 0. -1.
         21   -1    0    0  502  503 -0.00000000000E+00 -0.00000000000E+00 -0.39335360335E+01  0.39335360335E+01  0.00000000000E+00 0.  1.
          2    1    1    2  501    0  0.13221224451E+02 -0.16476365339E+02  0.62663142433E+02  0.66128214934E+02  0.00000000000E+00 0. -1.
         -2    1    1    2    0  503 -0.13221224451E+02  0.16476365339E+02  0.48488622522E+02  0.52890622088E+02  0.00000000000E+00 0.  1.
</event>
<event>
 4    1  0.1727273E+004  0.3992668E+02  0.7546771E-02  0.1348916E+00
         21   -1    0    0  503  502  0.00000000000E+00  0.00000000000E+00  0.15150674202E+02  0.15150674202E+02  0.00000000000E+00 0. -1.
         21   -1    0    0  501  503 -0.00000000000E+00 -0.00000000000E+00 -0.23077492936E+03  0.23077492936E+03  0.00000000000E+00 0.  1.
          2    1    1    2  501    0 -0.25542300436E+02 -0.30687633827E+02 -0.19851017015E+03  0.20248562328E+03  0.00000000000E+00 0.  1.
         -2    1    1    2    0  502  0.25542300436E+02  0.30687633827E+02 -0.17114085011E+02  0.43439980285E+02  0.00000000000E+00 0. -1.
</event>
<event>
 4    1  0.1727273E+004  0.3123310E+02  0.7546771E-02  0.1409175E+00
         21   -1    0    0  503  502  0.00000000000E+00  0.00000000000E+00  0.26847637395E+01  0.26847637395E+01  0.00000000000E+00 0. -1.
         21   -1    0    0  501  503 -0.00000000000E+00 -0.00000000000E+00 -0.38518855921E+03  0.38518855921E+03  0.00000000000E+00 0.  1.
          2    1    1    2  501    0 -0.31119987403E+02 -0.26557729584E+01 -0.14507303726E+03  0.14839707843E+03  0.00000000000E+00 0. -1.
         -2    1    1    2    0  502  0.31119987403E+02  0.26557729584E+01 -0.23743075821E+03  0.23947624452E+03  0.00000000000E+00 0.  1.
</event>
<event>
 4    1  0.1727273E+004  0.2411404E+02  0.7546771E-02  0.1478964E+00
         21   -1    0    0  501  502  0.00000000000E+00  0.00000000000E+00  0.98582298315E+01  0.98582298315E+01  0.00000000000E+00 0. -1.
         21   -1    0    0  502  503 -0.00000000000E+00 -0.00000000000E+00 -0.88363397076E+02  0.88363397076E+02  0.00000000000E+00 0.  1.
          2    1    1    2  501    0 -0.30035827433E+01 -0.23926252818E+02 -0.10935049894E+02  0.26477582960E+02  0.00000000000E+00 0. -1.
         -2    1    1    2    0  503  0.30035827433E+01  0.23926252818E+02 -0.67570117351E+02  0.71744043948E+02  0.00000000000E+00 0.  1.
</event>
<event>
 4    1  0.1727273E+004  0.2005555E+02  0.7546771E-02  0.1533188E+00
         21   -1    0    0  501  502  0.00000000000E+00  0.00000000000E+00  0.22958885182E+03  0.22958885182E+03  0.00000000000E+00 0. -1.
         21   -1    0    0  502  503 -0.00000000000E+00 -0.00000000000E+00 -0.22362684669E+02  0.22362684669E+02  0.00000000000E+00 0.  1.
          2    1    1    2  501    0  0.89508997267E+01  0.17947330003E+02  0.22455362713E+03  0.22544745889E+03  0.00000000000E+00 0. -1.
         -2    1    1    2    0  503 -0.89508997267E+01 -0.17947330003E+02 -0.17327459982E+02  0.26504077603E+02  0.00000000000E+00 0.  1.
</event>
<event>
 4    1  0.1727273E+004  0.2351214E+02  0.7546771E-02  0.1486165E+00
         21   -1    0    0  503  502  0.00000000000E+00  0.00000000000E+00  0.65449581055E+03  0.65449581055E+03  0.00000000000E+00 0.  1.
         21   -1    0    0  501  503 -0.00000000000E+00 -0.00000000000E+00 -0.86031928825E+00  0.86031928825E+00  0.00000000000E+00 0. -1.
          2    1    1    2  501    0 -0.14389882447E+02  0.18594413316E+02  0.37103789612E+03  0.37178211533E+03  0.00000000000E+00 0.  1.
         -2    1    1    2    0  502  0.14389882447E+02 -0.18594413316E+02  0.28259759514E+03  0.28357401451E+03  0.00000000000E+00 0. -1.
</event>
<event>
 4    1  0.1727273E+004  0.2009931E+02  0.7546771E-02  0.1532523E+00
         21   -1    0    0  503  502  0.00000000000E+00  0.00000000000E+00  0.13211520885E+02  0.13211520885E+02  0.00000000000E+00 0. -1.
         21   -1    0    0  501  503 -0.00000000000E+00 -0.00000000000E+00 -0.86361026637E+02  0.86361026637E+02  0.00000000000E+00 0.  1.
          2    1    1    2  501    0 -0.39414018752E+01 -0.19709069413E+02 -0.76587807651E+02  0.79181275227E+02  0.00000000000E+00 0.  1.
         -2    1    1    2    0  502  0.39414018752E+01  0.19709069413E+02  0.34383018992E+01  0.20391272295E+02  0.00000000000E+00 0. -1.
</event>
<event>
 4    1  0.1727273E+004  0.2778157E+02  0.7546771E-02  0.1439911E+00
         21   -1    0    0  501  502  0.00000000000E+00  0.00000000000E+00  0.67038475294E+01  0.67038475294E+01  0.00000000000E+00 0. -1.
         21   -1    0    0  502  503 -0.00000000000E+00 -0.00000000000E+00 -0.21664513459E+03  0.21664513459E+03  0.00000000000E+00 0.  1.
          2    1    1    2  501    0 -0.27780003065E+02  0.29530002631E+00 -0.28526479999E+02  0.39819289717E+02  0.00000000000E+00 0. -1.
         -2    1    1    2    0  503  0.27780003065E+02 -0.29530002631E+00 -0.18141480706E+03  0.18352969240E+03  0.00000000000E+00 0.  1.
</event>
<event>
 4    1  0.1727273E+004  0.3506595E+02  0.7546771E-02  0.1380100E+00
         21   -1    0    0  503  502  0.00000000000E+00  0.00000000000E+00  0.18285760197E+03  0.18285760197E+03  0.00000000000E+00 0. -1.
         21   -1    0    0  501  503 -0.00000000000E+00 -0.00000000000E+00 -0.94661586170E+01  0.94661586170E+01  0.00000000000E+00 0.  1.
          2    1    1    2  501    0  0.10504698624E+02  0.33455526944E+02  0.34943988581E+02  0.49504578720E+02  0.00000000000E+00 0.  1.
         -2    1    1    2    0  502 -0.10504698624E+02 -0.33455526944E+02  0.13844745477E+03  0.14281918186E+03  0.00000000000E+00 0. -1.
</event>
<event>
 4    1  0.1727273E+004  0.2161252E+02  0.7546771E-02  0.1510697E+00
         21   -1    0    0  501  502  0.00000000000E+00  0.00000000000E+00  0.29556650909E+02  0.29556650909E+02  0.00000000000E+00 0. -1.
         21   -1    0    0  502  503 -0.00000000000E+00 -0.00000000000E+00 -0.25447145439E+02  0.25447145439E+02  0.00000000000E+00 0.  1.
          2    1    1    2  501    0  0.15202916081E+02 -0.15361386205E+02  0.18984948916E+02  0.28766806024E+02  0.00000000000E+00 0. -1.
         -2    1    1    2    0  503 -0.15202916081E+02  0.15361386205E+02 -0.14875443446E+02  0.26236990323E+02  0.00000000000E+00 0.  1.
</event>
<event>
 4    1  0.1727273E+004  0.2844676E+02  0.7546771E-02  0.1433592E+00
         21   -1    0    0  501  502  0.00000000000E+00  0.00000000000E+00  0.64154502340E+01  0.64154502340E+01  0.00000000000E+00 0. -1.
         21   -1    0    0  502  503 -0.00000000000E+00 -0.00000000000E+00 -0.25097251884E+03  0.25097251884E+03  0.00000000000E+00 0.  1.
          2    1    1    2  501    0  0.21378181069E+02 -0.18766771846E+02 -0.31513991179E+02  0.42454092752E+02  0.00000000000E+00 0. -1.
         -2    1    1    2    0  503 -0.21378181069E+02  0.18766771846E+02 -0.21304307743E+03  0.21493387632E+03  0.00000000000E+00 0.  1.
</event>
<event>
 4    1  0.1727273E+004  0.2273897E+02  0.7546771E-02  0.1495802E+00
         21   -1    0    0  501  502  0.00000000000E+00  0.00000000000E+00  0.36737438490E+00  0.36737438490E+00  0.00000000000E+00 0. -1.
         21   -1    0    0  502  503 -0.00000000000E+00 -0.00000000000E+00 -0.14213269372E+04  0.14213269372E+04  0.00000000000E+00 0.  1.
          2    1    1    2  501    0 -0.47670462577E+01 -0.22233665573E+02 -0.78072160471E+03  0.78105267727E+03  0.00000000000E+00 0.  1.
         -2    1    1    2    0  503  0.47670462577E+01  0.22233665573E+02 -0.64023795810E+03  0.64064163431E+03  0.00000000000E+00 0. -1.
</event>
<event>
 4    1  0.1727273E+004  0.2608258E+02  0.7546771E-02  0.1457048E+00
         21   -1    0    0  503  502  0.00000000000E+00  0.00000000000E+00  0.46707041901E+01  0.46707041901E+01  0.00000000000E+00 0. -1.
         21   -1    0    0  501  503 -0.00000000000E+00 -0.00000000000E+00 -0.35777016977E+03  0.35777016977E+03  0.00000000000E+00 0.  1.
          2    1    1    2  501    0  0.29390792473E+01 -0.25916453616E+02 -0.31608799549E+03  0.31716229544E+03  0.00000000000E+00 0.  1.
         -2    1    1    2    0  502 -0.29390792473E+01  0.25916453616E+02 -0.37011470095E+02  0.45278578527E+02  0.00000000000E+00 0. -1.
</event>
<event>
 4    1  0.1727273E+004  0.3333529E+02  0.7546771E-02  0.1392660E+00
         21   -1    0    0  503  502  0.00000000000E+00  0.00000000000E+00  0.82564427998E+02  0.82564427998E+02  0.00000000000E+00 0.  1.
         21   -1    0    0  501  503 -0.00000000000E+00 -0.00000000000E+00 -0.23960717058E+02  0.23960717058E+02  0.00000000000E+00 0. -1.
          2    1    1    2  501    0  0.32457155919E+02 -0.76009723291E+01 -0.59596303321E+01  0.33863829441E+02  0.00000000000E+00 0. -1.
         -2    1    1    2    0  502 -0.32457155919E+02  0.76009723291E+01  0.64563341272E+02  0.72661315615E+02  0.00000000000E+00 0.  1.
</event>
<event>
 4    1  0.1727273E+004  0.2074863E+02  0.7546771E-02  0.1522884E+00
         21   -1    0    0  503  502  0.00000000000E+00  0.00000000000E+00  0.42425287641E+02  0.42425287641E+02  0.00000000000E+00 0. -1.
         21   -1    0    0  501  503 -0.00000000000E+00 -0.00000000000E+00 -0.17953327821E+02  0.17953327821E+02  0.00000000000E+00 0.  1.
          2    1    1    2  501    0 -0.20697892368E+02 -0.14501205099E+01 -0.76704528643E+01  0.22121063381E+02  0.00000000000E+00 0.  1.
         -2    1    1    2    0  502  0.20697892368E+02  0.14501205099E+01  0.32142412684E+02  0.38257552080E+02  0.00000000000E+00 0. -1.
</event>
<event>
 4    1  0.1727273E+004  0.2652618E+02  0.7546771E-02  0.1452427E+00
         21   -1    0    0  503  502  0.00000000000E+00  0.00000000000E+00  0.72830205903E+01  0.72830205903E+01  0.00000000000E+00 0.  1.
         21   -1    0    0  501  503 -0.00000000000E+00 -0.00000000000E+00 -0.96833148583E+02  0.96833148583E+02  0.00000000000E+00 0. -1.
          2    1    1    2  501    0  0.38167437005E+01  0.26250159495E+02 -0.42295929136E+02  0.49925785196E+02  0.00000000000E+00 0.  1.
         -2    1    1    2    0  502 -0.38167437005E+01 -0.26250159495E+02 -0.47254198856E+02  0.54190383977E+02  0.00000000000E+00 0. -1.
</event>
<event>
 4    1  0.1727273E+004  0.2684794E+02  0.7546771E-02  0.1449142E+00
         21   -1    0    0  501  502  0.00000000000E+00  0.00000000000E+00  0.86619703264E+01  0.86619703264E+01  0.00000000000E+00 0.  1.
         21   -1    0    0  502  503 -0.00000000000E+00 -0.00000000000E+00 -0.83925745787E+02  0.83925745787E+02  0.00000000000E+00 0. -1.
          2    1    1    2  501    0  0.24322447089E+02 -0.11367953370E+02 -0.33373713158E+02  0.42832423772E+02  0.00000000000E+00 0. -1.
         -2    1    1    2    0  503 -0.24322447089E+02  0.11367953370E+02 -0.41890062303E+02  0.49755292341E+02  0.00000000000E+00 0.  1.
</event>
<event>
 4    1  0.1727273E+004  0.2472920E+02  0.7546771E-02  0.1471856E+00
         21   -1    0    0  501  502  0.00000000000E+00  0.00000000000E+00  0.11339686659E+03  0.11339686659E+03  0.00000000000E+00 0.  1.
         21   -1    0    0  502  503 -0.00000000000E+00 -0.00000000000E+00 -0.56551683064E+01  0.56551683064E+01  0.00000000000E+00 0. -1.
          2    1    1    2  501    0 -0.16613031755E+02 -0.18317761442E+02  0.66690956741E+02  0.71128172473E+02  0.00000000000E+00 0. -1.
         -2    1    1    2    0  503  0.16613031755E+02  0.18317761442E+02  0.41050741538E+02  0.47923862419E+02  0.00000000000E+00 0.  1.
</event>
<event>
 4    1  0.1727273E+004  0.2162976E+02  0.7546771E-02  0.1510460E+00
         21   -1    0    0  503  502  0.00000000000E+00  0.00000000000E+00  0.58097103912E+03  0.58097103912E+03  0.00000000000E+00 0. -1.
         21   -1    0    0  501  503 -0.00000000000E+00 -0.00000000000E+00 -0.17821494689E+01  0.17821494689E+01  0.00000000000E+00 0.  1.
          2    1    1    2  501    0  0.13587291969E+02  0.16829499750E+02  0.50531921948E+03  0.50578192943E+03  0.00000000000E+00 0. -1.
         -2    1    1    2    0  502 -0.13587291969E+02 -0.16829499750E+02  0.73869670170E+02  0.76971259155E+02  0.00000000000E+00 0.  1.
</event>
<event>
 4    1  0.1727273E+004  0.2794079E+02  0.7546771E-02  0.1438380E+00
         21   -1    0    0  503  502  0.00000000000E+00  0.00000000000E+00  0.23441820533E+03  0.23441820533E+03  0.00000000000E+00 0.  1.
         21   -1    0    0  501  503 -0.00000000000E+00 -0.00000000000E+00 -0.57236951402E+01  0.57236951402E+01  0.00000000000E+00 0. -1.
          2    1    1    2  501    0  0.62009282826E+01  0.27244007823E+02  0.36703746571E+02  0.46128651467E+02  0.00000000000E+00 0. -1.
         -2    1    1    2    0  502 -0.62009282826E+01 -0.27244007823E+02  0.19199076362E+03  0.19401324901E+03  0.00000000000E+00 0.  1.
</event>
<event>
 4    1  0.1727273E+004  0.4044662E+02  0.7546771E-02  0.1345888E+00
         21   -1    0    0  503  502  0.00000000000E+00  0.00000000000E+00  0.22812869212E+02  0.22812869212E+02  0.00000000000E+00 0. -1.
         21   -1    0    0  501  503 -0.00000000000E+00 -0.00000000000E+00 -0.14587716331E+03  0.14587716331E+03  0.00000000000E+00 0.  1.
          2    1    1    2  501    0 -0.10650203577E+02 -0.39019252829E+02 -0.12167295884E+03  0.12821949087E+03  0.00000000000E+00 0.  1.
         -2    1    1    2    0  502  0.10650203577E+02  0.39019252829E+02 -0.13913352610E+01  0.40470541649E+02  0.00000000000E+00 0. -1.
</event>
<event>
 4    1  0.1727273E+004  0.2953417E+02  0.7546771E-02  0.1423688E+00
         21   -1    0    0  503  502  0.00000000000E+00  0.00000000000E+00  0.13417999366E+03  0.13417999366E+03  0.00000000000E+00 0.  1.
         21   -1    0    0  501  503 -0.00000000000E+00 -0.00000000000E+00 -0.74054704601E+01  0.74054704601E+01  0.00000000000E+00 0. -1.
          2    1    1    2  501    0  0.25809949453E+02  0.14356651098E+02  0.88131615641E+02  0.92948634186E+02  0.00000000000E+00 0.  1.
         -2    1    1    2    0  502 -0.25809949453E+02 -0.14356651098E+02  0.38642907562E+02  0.48636829937E+02  0.00000000000E+00 0. -1.
</event>
<event>
 4    1  0.1727273E+004  0.2630481E+02  0.7546771E-02  0.1454719E+00
         21   -1    0    0  501  502  0.00000000000E+00  0.00000000000E+00  0.64278320734E+01  0.64278320734E+01  0.00000000000E+00 0.  1.
         21   -1    0    0  502  503 -0.00000000000E+00 -0.00000000000E+00 -0.13325370217E+03  0.13325370217E+03  0.00000000000E+00 0. -1.
          2    1    1    2  501    0 -0.39076534586E+01 -0.26012940371E+02 -0.32797651174E+02  0.42043177149E+02  0.00000000000E+00 0.  1.
         -2    1    1    2    0  503  0.39076534586E+01  0.26012940371E+02 -0.94028218920E+02  0.97638357091E+02  0.00000000000E+00 0. -1.
</event>
<event>
 4    1  0.1727273E+004  0.2268525E+02  0.7546771E-02  0.1496489E+00
         21   -1    0    0  501  502  0.00000000000E+00  0.00000000000E+00  0.83280562644E+02  0.83280562644E+02  0.00000000000E+00 0. -1.
         21   -1    0    0  502  503 -0.00000000000E+00 -0.00000000000E+00 -0.15478655644E+02  0.15478655644E+02  0.00000000000E+00 0.  1.
          2    1    1    2  501    0 -0.14758048009E+02  0.17228485898E+02  0.72175144508E+02  0.75656276621E+02  0.00000000000E+00 0. -1.
         -2    1    1    2    0  503  0.14758048009E+02 -0.17228485898E+02 -0.43732375079E+01  0.23102941667E+02  0.00000000000E+00 0.  1.
</event>
<event>
 4    1  0.1727273E+004  0.2330563E+02  0.7546771E-02  0.1488696E+00
         21   -1    0    0  501  502  0.00000000000E+00  0.00000000000E+00  0.32266507168E+02  0.32266507168E+02  0.00000000000E+00 0. -1.
         21   -1    0    0  502  503 -0.00000000000E+00 -0.00000000000E+00 -0.38733181086E+02  0.38733181086E+02  0.00000000000E+00 0.  1.
          2    1    1    2  501    0  0.19498211442E+01 -0.23223922617E+02  0.23460165435E+02  0.33068591540E+02  0.00000000000E+00 0. -1.
         -2    1    1    2    0  503 -0.19498211442E+01  0.23223922617E+02 -0.29926839354E+02  0.37931096714E+02  0.00000000000E+00 0.  1.
</event>
<event>
 4    1  0.1727273E+004  0.2327491E+02  0.7546771E-02  0.1489075E+00
         21   -1    0    0  501  502  0.00000000000E+00  0.00000000000E+00  0.13205476319E+02  0.13205476319E+02  0.00000000000E+00 0.  1.
         21   -1    0    0  502  503 -0.00000000000E+00 -0.00000000000E+00 -0.17038641434E+03  0.17038641434E+03  0.00000000000E+00 0. -1.
          2    1    1    2  501    0 -0.22727003725E+01 -0.23163686768E+02  0.13952777290E+01  0.23316696841E+02  0.00000000000E+00 0.  1.
         -2    1    1    2    0  503  0.22727003725E+01  0.23163686768E+02 -0.15857621575E+03  0.16027519381E+03  0.00000000000E+00 0. -1.
</event>
<event>
 4    1  0.1727273E+004  0.2570030E+02  0.7546771E-02  0.1461120E+00
         21   -1    0    0  503  502  0.00000000000E+00  0.00000000000E+00  0.19862137070E+02  0.19862137070E+02  0.00000000000E+00 0. -1.
         21   -1    0    0  501  503 -0.00000000000E+00 -0.00000000000E+00 -0.47619711408E+02  0.47619711408E+02  0.00000000000E+00 0.  1.
          2    1    1    2  501    0 -0.23592525160E+02  0.10193038646E+02 -0.32410677671E+02  0.41363719699E+02  0.00000000000E+00 0. -1.
         -2    1    1    2    0  502  0.23592525160E+02 -0.10193038646E+02  0.46531033332E+01  0.26118128778E+02  0.00000000000E+00 0.  1.
</event>
<event>
 4    1  0.1727273E+004  0.2822704E+02  0.7546771E-02  0.1435657E+00
         21   -1    0    0  503  502  0.00000000000E+00  0.00000000000E+00  0.30219261743E+02  0.30219261743E+02  0.00000000000E+00 0.  1.
         21   -1    0    0  501  503 -0.00000000000E+00 -0.00000000000E+00 -0.28022465521E+02  0.28022465521E+02  0.00000000000E+00 0. -1.
          2    1    1    2  501    0  0.10338830518E+02 -0.26265456656E+02 -0.59814254270E+01  0.28853822623E+02  0.00000000000E+00 0. -1.
         -2    1    1    2    0  502 -0.10338830518E+02  0.26265456656E+02  0.81782216491E+01  0.29387904641E+02  0.00000000000E+00 0.  1.
</event>
<event>
 4    1  0.1727273E+004  0.2012561E+02  0.7546771E-02  0.1532124E+00
         21   -1    0    0  501  502  0.00000000000E+00  0.00000000000E+00  0.18646814174E+03  0.18646814174E+03  0.00000000000E+00 0.  1.
         21   -1    0    0  502  503 -0.00000000000E+00 -0.00000000000E+00 -0.22314113712E+01  0.22314113712E+01  0.00000000000E+00 0. -1.
          2    1    1    2  501    0  0.20119725294E+02  0.48664525657E+00  0.76744956593E+02  0.79339955457E+02  0.00000000000E+00 0. -1.
         -2    1    1    2    0  503 -0.20119725294E+02 -0.48664525657E+00  0.10749177378E+03  0.10935959766E+03  0.00000000000E+00 0.  1.
</event>
<event>
 4    1  0.1727273E+004  0.2697111E+02  0.7546771E-02  0.1447898E+00
         21   -1    0    0  503  502  0.00000000000E+00  0.00000000000E+00  0.26336516579E+01  0.26336516579E+01  0.00000000000E+00 0. -1.
         21   -1    0    0  501  503 -0.00000000000E+00 -0.00000000000E+00 -0.39636398355E+03  0.39636398355E+03  0.00000000000E+00 0.  1.
          2    1    1    2  501    0 -0.20667441675E+02  0.17329103873E+02 -0.30670560954E+03  0.30788922020E+03  0.00000000000E+00 0.  1.
         -2    1    1    2    0  502  0.20667441675E+02 -0.17329103873E+02 -0.87024722345E+02  0.91108415010E+02  0.00000000000E+00 0. -1.
</event>
<event>
 4    1  0.1727273E+004  0.2069335E+02  0.7546771E-02  0.1523688E+00
         21   -1    0    0  503  502  0.00000000000E+00  0.00000000000E+00  0.12585893887E+03  0.12585893887E+03  0.00000000000E+00 0.  1.
         21   -1    0    0  501  503 -0.00000000000E+00 -0.00000000000E+00 -0.40061727623E+01  0.40061727623E+01  0.00000000000E+00 0. -1.
          2    1    1    2  501    0  0.15713700450E+02  0.13464560905E+02  0.35717341185E+02  0.41278847410E+02  0.00000000000E+00 0. -1.
         -2    1    1    2    0  502 -0.15713700450E+02 -0.13464560905E+02  0.86135424926E+02  0.88586264225E+02  0.00000000000E+00 0.  1.
</event>
<event>
 4    1  0.1727273E+004  0.2067567E+02  0.7546771E-02  0.1523946E+00
         21   -1    0    0  501  502  0.00000000000E+00  0.00000000000E+00  0.17801903121E+02  0.17801903121E+02  0.00000000000E+00 0.  1.
         21   -1    0    0  502  503 -0.00000000000E+00 -0.00000000000E+00 -0.27178895411E+02  0.27178895411E+02  0.00000000000E+00 0. -1.
          2    1    1    2  501    0 -0.20211845039E+02  0.43548268434E+01  0.29869928442E+01  0.20890316488E+02  0.00000000000E+00 0.  1.
         -2    1    1    2    0  503  0.20211845039E+02 -0.43548268434E+01 -0.12363985134E+02  0.24090482044E+02  0.00000000000E+00 0. -1.
</event>
<event>
 4    1  0.1727273E+004  0.3884211E+02  0.7546771E-02  0.1355408E+00
         21   -1    0    0  501  502  0.00000000000E+00  0.00000000000E+00  0.49305773795E+02  0.49305773795E+02  0.00000000000E+00 0. -1.
         21   -1    0    0  502  503 -0.00000000000E+00 -0.00000000000E+00 -0.39539301488E+02  0.39539301488E+02  0.00000000000E+00 0.  1.
          2    1    1    2  501    0  0.35684428282E+02  0.15340514088E+02  0.26006632933E+02  0.46744569212E+02  0.00000000000E+00 0. -1.
         -2    1    1    2    0  503 -0.35684428282E+02 -0.15340514088E+02 -0.16240160626E+02  0.42100506071E+02  0.00000000000E+00 0.  1.
</event>
<event>
 4    1  0.1727273E+004  0.2402059E+02  0.7546771E-02  0.1480065E+00
         21   -1    0    0  503  502  0.00000000000E+00  0.00000000000E+00  0.11685185748E+02  0.11685185748E+02  0.00000000000E+00 0. -1.
         21   -1    0    0  501  503 -0.00000000000E+00 -0.00000000000E+00 -0.53382511878E+02  0.53382511878E+02  0.00000000000E+00 0.  1.
          2    1    1    2  501    0  0.18879980779E+02  0.14850422392E+02 -0.29759567580E+02  0.38244222857E+02  0.00000000000E+00 0.  1.
         -2    1    1    2    0  502 -0.18879980779E+02 -0.14850422392E+02 -0.11937758551E+02  0.26823474769E+02  0.00000000000E+00 0. -1.
</event>
<event>
 4    1  0.1727273E+004  0.2161327E+02  0.7546771E-02  0.1510686E+00
         21   -1    0    0  503  502  0.00000000000E+00  0.00000000000E+00  0.19298430436E+02  0.19298430436E+02  0.00000000000E+00 0. -1.
         21   -1    0    0  501  503 -0.00000000000E+00 -0.00000000000E+00 -0.35899013799E+02  0.35899013799E+02  0.00000000000E+00 0.  1.
          2    1    1    2  501    0  0.15105613198E+02 -0.15458132049E+02 -0.24051547684E+02  0.32335898665E+02  0.00000000000E+00 0.  1.
         -2    1    1    2    0  502 -0.15105613198E+02  0.15458132049E+02  0.74509643203E+01  0.22861545569E+02  0.00000000000E+00 0. -1.
</event>
<event>
 4    1  0.1727273E+004  0.2106391E+02  0.7546771E-02  0.1518354E+00
         21   -1    0    0  503  502  0.00000000000E+00  0.00000000000E+00  0.61606815206E+00  0.61606815206E+00  0.00000000000E+00 0.  1.
         21   -1    0    0  501  503 -0.00000000000E+00 -0.00000000000E+00 -0.72904733048E+03  0.72904733048E+03  0.00000000000E+00 0. -1.
          2    1    1    2  501    0 -0.59993175223E+01 -0.20191491447E+02 -0.40442117318E+03  0.40496934879E+03  0.00000000000E+00 0. -1.
         -2    1    1    2    0  502  0.59993175223E+01  0.20191491447E+02 -0.32401008914E+03  0.32469404985E+03  0.00000000000E+00 0.  1.
</event>
<event>
 4    1  0.1727273E+004  0.2023180E+02  0.7546771E-02  0.1530521E+00
         21   -1    0    0  501  502  0.00000000000E+00  0.00000000000E+00  0.13298795184E+03  0.13298795184E+03  0.00000000000E+00 0. -1.
         21   -1    0    0  502  503 -0.00000000000E+00 -0.00000000000E+00 -0.42254735334E+01  0.42254735334E+01  0.00000000000E+00 0.  1.
          2    1    1    2  501    0  0.53992611771E+01  0.19498043127E+02  0.10013454511E+03  0.10215797978E+03  0.00000000000E+00 0. -1.
         -2    1    1    2    0  503 -0.53992611771E+01 -0.19498043127E+02  0.28627933193E+02  0.35055445596E+02  0.00000000000E+00 0.  1.
</event>
<event>
 4    1  0.1727273E+004  0.2270249E+02  0.7546771E-02  0.1496268E+00
         21   -1    0    0  501  502  0.00000000000E+00  0.00000000000E+00  0.10479952042E+03  0.10479952042E+03  0.00000000000E+00 0. -1.
         21   -1    0    0  502  503 -0.00000000000E+00 -0.00000000000E+00 -0.88939872335E+01  0.88939872335E+01  0.00000000000E+00 0.  1.
          2    1    1    2  501    0 -0.22343891821E+02 -0.40191747637E+01  0.85961230044E+02  0.88908584164E+02  0.00000000000E+00 0. -1.
         -2    1    1    2    0  503  0.22343891821E+02  0.40191747637E+01  0.99443031473E+01  0.24784923494E+02  0.00000000000E+00 0.  1.
</event>
<event>
 4    1  0.1727273E+004  0.2248828E+02  0.7546771E-02  0.1499026E+00
         21   -1    0    0  503  502  0.00000000000E+00  0.00000000000E+00  0.46918666063E+01  0.46918666063E+01  0.00000000000E+00 0.  1.
         21   -1    0    0  501  503 -0.00000000000E+00 -0.00000000000E+00 -0.11331294802E+03  0.11331294802E+03  0.00000000000E+00 0. -1.
          2    1    1    2  501    0  0.22029047372E+02  0.45215005086E+01 -0.67340040892E+02  0.70995802709E+02  0.00000000000E+00 0. -1.
         -2    1    1    2    0  502 -0.22029047372E+02 -0.45215005086E+01 -0.41281040526E+02  0.47009011922E+02  0.00000000000E+00 0.  1.
</event>
<event>
 4    1  0.1727273E+004  0.2295287E+02  0.7546771E-02  0.1493091E+00
         21   -1    0    0  503  502  0.00000000000E+00  0.00000000000E+00  0.27621007681E+03  0.27621007681E+03  0.00000000000E+00 0.  1.
         21   -1    0    0  501  503 -0.00000000000E+00 -0.00000000000E+00 -0.38754655612E+01  0.38754655612E+01  0.00000000000E+00 0. -1.
          2    1    1    2  501    0 -0.19260030169E+02  0.12485406354E+02  0.36369241317E+02  0.43006462862E+02  0.00000000000E+00 0. -1.
         -2    1    1    2    0  502  0.19260030169E+02 -0.12485406354E+02  0.23596536993E+03  0.23707907951E+03  0.00000000000E+00 0.  1.
</event>
<event>
 4    1  0.1727273E+004  0.2407444E+02  0.7546771E-02  0.1479430E+00
         21   -1    0    0  503  502  0.00000000000E+00  0.00000000000E+00  0.13531273663E+03  0.13531273663E+03  0.00000000000E+00 0. -1.
         21   -1    0    0  501  503 -0.00000000000E+00 -0.00000000000E+00 -0.48854302327E+02  0.48854302327E+02  0.00000000000E+00 0.  1.
          2    1    1    2  501    0  0.15389181696E+02  0.18513556893E+02 -0.44725053334E+02  0.50792805572E+02  0.00000000000E+00 0.  1.
         -2    1    1    2    0  502 -0.15389181696E+02 -0.18513556893E+02  0.13118348763E+03  0.13337423338E+03  0.00000000000E+00 0. -1.
</event>
<event>
 4    1  0.1727273E+004  0.2039214E+02  0.7546771E-02  0.1528123E+00
         21   -1    0    0  501  502  0.00000000000E+00  0.00000000000E+00  0.16531170033E+03  0.16531170033E+03  0.00000000000E+00 0. -1.
         21   -1    0    0  502  503 -0.00000000000E+00 -0.00000000000E+00 -0.25168005712E+01  0.25168005712E+01  0.00000000000E+00 0.  1.
          2    1    1    2  501    0  0.83046263438E+01 -0.18624512216E+02  0.79479676801E+02  0.82053996237E+02  0.00000000000E+00 0. -1.
         -2    1    1    2    0  503 -0.83046263438E+01  0.18624512216E+02  0.83315222961E+02  0.85774504668E+02  0.00000000000E+00 0.  1.
</event>
<event>
 4    1  0.1727273E+004  0.2059282E+02  0.7546771E-02  0.1525158E+00
         21   -1    0    0  501  502  0.00000000000E+00  0.00000000000E+00  0.17695928055E+03  0.17695928055E+03  0.00000000000E+00 0. -1.
         21   -1    0    0  502  503 -0.00000000000E+00 -0.00000000000E+00 -0.26149788427E+01  0.26149788427E+01  0.00000000000E+00 0.  1.
          2    1    1    2  501    0 -0.16091834830E+02 -0.12849793724E+02  0.11313121075E+03  0.11499015259E+03  0.00000000000E+00 0. -1.
         -2    1    1    2    0  503  0.16091834830E+02  0.12849793724E+02  0.61213090959E+02  0.64584106804E+02  0.00000000000E+00 0.  1.
</event>
<event>
 4    1  0.1727273E+004  0.8051945E+02  0.7546771E-02  0.1202647E+00
         21   -1    0    0  501  502  0.00000000000E+00  0.00000000000E+00  0.25455869724E+03  0.25455869724E+03  0.00000000000E+00 0. -1.
         21   -1    0    0  502  503 -0.00000000000E+00 -0.00000000000E+00 -0.39496863029E+02  0.39496863029E+02  0.00000000000E+00 0.  1.
          2    1    1    2  501    0  0.66517756025E+02 -0.45373676963E+02  0.19515272641E+03  0.21111127173E+03  0.00000000000E+00 0. -1.
         -2    1    1    2    0  503 -0.66517756025E+02  0.45373676963E+02  0.19909107806E+02  0.82944288540E+02  0.00000000000E+00 0.  1.
</event>
<event>
 4    1  0.1727273E+004  0.2825208E+02  0.7546771E-02  0.1435421E+00
         21   -1    0    0  503  502  0.00000000000E+00  0.00000000000E+00  0.44145533694E+01  0.44145533694E+01  0.00000000000E+00 0. -1.
         21   -1    0    0  501  503 -0.00000000000E+00 -0.00000000000E+00 -0.18125552661E+03  0.18125552661E+03  0.00000000000E+00 0.  1.
          2    1    1    2  501    0 -0.25605889369E+02 -0.11938110817E+02 -0.83799980155E+02  0.88434250911E+02  0.00000000000E+00 0.  1.
         -2    1    1    2    0  502  0.25605889369E+02  0.11938110817E+02 -0.93040993090E+02  0.97235829073E+02  0.00000000000E+00 0. -1.
</event>
<event>
 4    1  0.1727273E+004  0.3130796E+02  0.7546771E-02  0.1408561E+00
         21   -1    0    0  501  502  0.00000000000E+00  0.00000000000E+00  0.19609532367E+02  0.19609532367E+02  0.00000000000E+00 0.  1.
         21   -1    0    0  502  503 -0.00000000000E+00 -0.00000000000E+00 -0.15756529780E+03  0.15756529780E+03  0.00000000000E+00 0. -1.
          2    1    1    2  501    0 -0.26660756178E+02 -0.16413185171E+02  0.42215113685E+01  0.31591291928E+02  0.00000000000E+00 0.  1.
         -2    1    1    2    0  503  0.26660756178E+02  0.16413185171E+02 -0.14217727680E+03  0.14558353824E+03  0.00000000000E+00 0. -1.
</event>
<event>
 4    1  0.1727273E+004  0.2492495E+02  0.7546771E-02  0.1469645E+00
         21   -1    0    0  503  502  0.00000000000E+00  0.00000000000E+00  0.15910046983E+01  0.15910046983E+01  0.00000000000E+00 0. -1.
         21   -1    0    0  501  503 -0.00000000000E+00 -0.00000000000E+00 -0.39050620241E+03  0.39050620241E+03  0.00000000000E+00 0.  1.
          2    1    1    2  501    0 -0.18350932325E+02 -0.16867025459E+02 -0.19610626519E+03  0.19768389037E+03  0.00000000000E+00 0.  1.
         -2    1    1    2    0  502  0.18350932325E+02  0.16867025459E+02 -0.19280893253E+03  0.19441331674E+03  0.00000000000E+00 0. -1.
</event>
<event>
 4    1  0.1727273E+004  0.2027081E+02  0.7546771E-02  0.1529935E+00
         21   -1    0    0  503  502  0.00000000000E+00  0.00000000000E+00  0.43604243238E+01  0.43604243238E+01  0.00000000000E+00 0.  1.
         21   -1    0    0  501  503 -0.00000000000E+00 -0.00000000000E+00 -0.26071959100E+03  0.26071959100E+03  0.00000000000E+00 0. -1.
          2    1    1    2  501    0 -0.79856183716E+01 -0.18631577715E+02 -0.23409198599E+03  0.23496800568E+03  0.00000000000E+00 0. -1.
         -2    1    1    2    0  502  0.79856183716E+01  0.18631577715E+02 -0.22267180680E+02  0.30112009637E+02  0.00000000000E+00 0.  1.
</event>
<event>
 4    1  0.1727273E+004  0.3232002E+02  0.7546771E-02  0.1400451E+00
         21   -1    0    0  501  502  0.00000000000E+00  0.00000000000E+00  0.33861839161E+02  0.33861839161E+02  0.00000000000E+00 0. -1.
         21   -1    0    0  502  503 -0.00000000000E+00 -0.00000000000E+00 -0.56272345552E+02  0.56272345552E+02  0.00000000000E+00 0.  1.
          2    1    1    2  501    0 -0.28477118780E+02  0.15285191645E+02  0.19087137596E+02  0.37535345999E+02  0.00000000000E+00 0. -1.
         -2    1    1    2    0  503  0.28477118780E+02 -0.15285191645E+02 -0.41497643987E+02  0.52598838714E+02  0.00000000000E+00 0.  1.
</event>
<event>
 4    1  0.1727273E+004  0.3207407E+02  0.7546771E-02  0.1402389E+00
         21   -1    0    0  501  502  0.00000000000E+00  0.00000000000E+00  0.33418895407E+03  0.33418895407E+03  0.00000000000E+00 0.  1.
         21   -1    0    0  502  503 -0.00000000000E+00 -0.00000000000E+00 -0.31148241139E+01  0.31148241139E+01  0.00000000000E+00 0. -1.
          2    1    1    2  501    0 -0.31484286631E+02 -0.61225558146E+01  0.18379065370E+03  0.18656835311E+03  0.00000000000E+00 0. -1.
         -2    1    1    2    0  503  0.31484286631E+02  0.61225558146E+01  0.14728347626E+03  0.15073542508E+03  0.00000000000E+00 0.  1.
</event>
<event>
 4    1  0.1727273E+004  0.2707400E+02  0.7546771E-02  0.1446866E+00
         21   -1    0    0  503  502  0.00000000000E+00  0.00000000000E+00  0.76038884948E+01  0.76038884948E+01  0.00000000000E+00 0.  1.
         21   -1    0    0  501  503 -0.00000000000E+00 -0.00000000000E+00 -0.22417216178E+03  0.22417216178E+03  0.00000000000E+00 0. -1.
          2    1    1    2  501    0 -0.26789917756E+02 -0.39117616633E+01 -0.19577623069E+03  0.19763940416E+03  0.00000000000E+00 0. -1.
         -2    1    1    2    0  502  0.26789917756E+02  0.39117616633E+01 -0.20792042590E+02  0.34136646111E+02  0.00000000000E+00 0.  1.
</event>
<event>
 4    1  0.1727273E+004  0.2729791E+02  0.7546771E-02  0.1444638E+00
         21   -1    0    0  501  502  0.00000000000E+00  0.00000000000E+00  0.11061749632E+03  0.11061749632E+03  0.00000000000E+00 0.  1.
         21   -1    0    0  502  503 -0.00000000000E+00 -0.00000000000E+00 -0.15016812726E+02  0.15016812726E+02  0.00000000000E+00 0. -1.
          2    1    1    2  501    0  0.13643449352E+02  0.23643859659E+02  0.94446136797E+02  0.98311996042E+02  0.00000000000E+00 0.  1.
         -2    1    1    2    0  503 -0.13643449352E+02 -0.23643859659E+02  0.11545468015E+01  0.27322313008E+02  0.00000000000E+00 0. -1.
</event>
<event>
 4    1  0.1727273E+004  0.2413314E+02  0.7546771E-02  0.1478739E+00
         21   -1    0    0  503  502  0.00000000000E+00  0.00000000000E+00  0.97250976589E+02  0.97250976589E+02  0.00000000000E+00 0. -1.
         21   -1    0    0  501  503 -0.00000000000E+00 -0.00000000000E+00 -0.97478821707E+01  0.97478821707E+01  0.00000000000E+00 0.  1.
          2    1    1    2  501    0  0.11374106985E+02 -0.21284689857E+02  0.10528469355E+02  0.26329774002E+02  0.00000000000E+00 0.  1.
         -2    1    1    2    0  502 -0.11374106985E+02  0.21284689857E+02  0.76974625064E+02  0.80669084758E+02  0.00000000000E+00 0. -1.
</event>
<event>
 4    1  0.1727273E+004  0.2895326E+02  0.7546771E-02  0.1428916E+00
         21   -1    0    0  503  502  0.00000000000E+00  0.00000000000E+00  0.28329290803E+03  0.28329290803E+03  0.00000000000E+00 0.  1.
         21   -1    0    0  501  503 -0.00000000000E+00 -0.00000000000E+00 -0.33269307056E+01  0.33269307056E+01  0.00000000000E+00 0. -1.
          2    1    1    2  501    0  0.21815612854E+01 -0.28870952504E+02  0.92331078473E+02  0.96764245256E+02  0.00000000000E+00 0.  1.
         -2    1    1    2    0  502 -0.21815612854E+01  0.28870952504E+02  0.18763489885E+03  0.18985559348E+03  0.00000000000E+00 0. -1.
</event>
<event>
 4    1  0.1727273E+004  0.2426684E+02  0.7546771E-02  0.1477175E+00
         21   -1    0    0  503  502  0.00000000000E+00  0.00000000000E+00  0.28196374745E+01  0.28196374745E+01  0.00000000000E+00 0.  1.
         21   -1    0    0  501  503 -0.00000000000E+00 -0.00000000000E+00 -0.17762339179E+04  0.17762339179E+04  0.00000000000E+00 0. -1.
          2    1    1    2  501    0 -0.24248711957E+02 -0.93786194817E+00 -0.17223038517E+04  0.17224748001E+04  0.00000000000E+00 0. -1.
         -2    1    1    2    0  502  0.24248711957E+02  0.93786194817E+00 -0.51110428709E+02  0.56578755195E+02  0.00000000000E+00 0.  1.
</event>
<event>
 4    1  0.1727273E+004  0.2051522E+02  0.7546771E-02  0.1526300E+00
         21   -1    0    0  501  502  0.00000000000E+00  0.00000000000E+00  0.17092207806E+01  0.17092207806E+01  0.00000000000E+00 0.  1.
         21   -1    0    0  502  503 -0.00000000000E+00 -0.00000000000E+00 -0.25575623727E+03  0.25575623727E+03  0.00000000000E+00 0. -1.
          2    1    1    2  501    0 -0.84056964419E+01  0.18714130267E+02 -0.10218854649E+03  0.10422750807E+03  0.00000000000E+00 0.  1.
         -2    1    1    2    0  503  0.84056964419E+01 -0.18714130267E+02 -0.15185847000E+03  0.15323794998E+03  0.00000000000E+00 0. -1.
</event>
<event>
 4    1  0.1727273E+004  0.2745940E+02  0.7546771E-02  0.1443047E+00
         21   -1    0    0  501  502  0.00000000000E+00  0.00000000000E+00  0.38774765607E+03  0.38774765607E+03  0.00000000000E+00 0.  1.
         21   -1    0    0  502  503 -0.00000000000E+00 -0.00000000000E+00 -0.63349946175E+01  0.63349946175E+01  0.00000000000E+00 0. -1.
          2    1    1    2  501    0  0.77075567749E+01 -0.26355496442E+02  0.35474090485E+03  0.35580209134E+03  0.00000000000E+00 0.  1.
         -2    1    1    2    0  503 -0.77075567749E+01  0.26355496442E+02  0.26671756604E+02  0.38280559355E+02  0.00000000000E+00 0. -1.
</event>
<event>
 4    1  0.1727273E+004  0.2718042E+02  0.7546771E-02  0.1445804E+00
         21   -1    0    0  501  502  0.00000000000E+00  0.00000000000E+00  0.41178834426E+02  0.41178834426E+02  0.00000000000E+00 0. -1.
         21   -1    0    0  502  503 -0.00000000000E+00 -0.00000000000E+00 -0.20105194442E+02  0.20105194442E+02  0.00000000000E+00 0.  1.
          2    1    1    2  501    0  0.24207170531E+02  0.12360739800E+02  0.20590998216E+02  0.34099328454E+02  0.00000000000E+00 0. -1.
         -2    1    1    2    0  503 -0.24207170531E+02 -0.12360739800E+02  0.48264176767E+00  0.27184700414E+02  0.00000000000E+00 0.  1.
</event>
<event>
 4    1  0.1727273E+004  0.2270325E+02  0.7546771E-02  0.1496259E+00
         21   -1    0    0  503  502  0.00000000000E+00  0.00000000000E+00  0.89402429316E+01  0.89402429316E+01  0.00000000000E+00 0. -1.
         21   -1    0    0  501  503 -0.00000000000E+00 -0.00000000000E+00 -0.24521584022E+03  0.24521584022E+03  0.00000000000E+00 0.  1.
          2    1    1    2  501    0  0.11060440606E+02 -0.19826850285E+02 -0.22927742673E+03  0.23039873209E+03  0.00000000000E+00 0.  1.
         -2    1    1    2    0  502 -0.11060440606E+02  0.19826850285E+02 -0.69981705610E+01  0.23757351069E+02  0.00000000000E+00 0. -1.
</event>
<event>
 4    1  0.1727273E+004  0.2058828E+02  0.7546771E-02  0.1525225E+00
         21   -1    0    0  503  502  0.00000000000E+00  0.00000000000E+00  0.71381489675E+00  0.71381489675E+00  0.00000000000E+00 0. -1.
         21   -1    0    0  501  503 -0.00000000000E+00 -0.00000000000E+00 -0.79877544694E+03  0.79877544694E+03  0.00000000000E+00 0.  1.
          2    1    1    2  501    0  0.58995511099E+01 -0.19724921560E+02 -0.60151938227E+03  0.60187161794E+03  0.00000000000E+00 0.  1.
         -2    1    1    2    0  502 -0.58995511099E+01  0.19724921560E+02 -0.19654224977E+03  0.19761764390E+03  0.00000000000E+00 0. -1.
</event>
<event>
 4    1  0.1727273E+004  0.2271579E+02  0.7546771E-02  0.1496098E+00
         21   -1    0    0  503  502  0.00000000000E+00  0.00000000000E+00  0.14684304284E+02  0.14684304284E+02  0.00000000000E+00 0.  1.
         21   -1    0    0  501  503 -0.00000000000E+00 -0.00000000000E+00 -0.36643325879E+02  0.36643325879E+02  0.00000000000E+00 0. -1.
          2    1    1    2  501    0 -0.21952993156E+02 -0.58372444531E+01 -0.16177575696E+02  0.27887654737E+02  0.00000000000E+00 0. -1.
         -2    1    1    2    0  502  0.21952993156E+02  0.58372444531E+01 -0.57814458993E+01  0.23439975427E+02  0.00000000000E+00 0.  1.
</event>
<event>
 4    1  0.1727273E+004  0.2373133E+02  0.7546771E-02  0.1483513E+00
         21   -1    0    0  503  502  0.00000000000E+00  0.00000000000E+00  0.15763302040E+02  0.15763302040E+02  0.00000000000E+00 0.  1.
         21   -1    0    0  501  503 -0.00000000000E+00 -0.00000000000E+00 -0.62595552864E+02  0.62595552864E+02  0.00000000000E+00 0. -1.
          2    1    1    2  501    0 -0.22384631383E+02  0.78806270700E+01 -0.49085082282E+02  0.54520833704E+02  0.00000000000E+00 0. -1.
         -2    1    1    2    0  502  0.22384631383E+02 -0.78806270700E+01  0.22528314567E+01  0.23838021200E+02  0.00000000000E+00 0.  1.
</event>
<event>
 4    1  0.1727273E+004  0.2297366E+02  0.7546771E-02  0.1492829E+00
         21   -1    0    0  501  502  0.00000000000E+00  0.00000000000E+00  0.38232260986E+02  0.38232260986E+02  0.00000000000E+00 0. -1.
         21   -1    0    0  502  503 -0.00000000000E+00 -0.00000000000E+00 -0.13071384725E+03  0.13071384725E+03  0.00000000000E+00 0.  1.
          2    1    1    2  501    0 -0.15202723549E+02 -0.17224004637E+02  0.33647186469E+02  0.40742143983E+02  0.00000000000E+00 0. -1.
         -2    1    1    2    0  503  0.15202723549E+02  0.17224004637E+02 -0.12612877274E+03  0.12820396426E+03  0.00000000000E+00 0.  1.
</event>
<event>
 4    1  0.1727273E+004  0.2256753E+02  0.7546771E-02  0.1498001E+00
         21   -1    0    0  501  502  0.00000000000E+00  0.00000000000E+00  0.12639349786E+03  0.12639349786E+03  0.00000000000E+00 0. -1.
         21   -1    0    0  502  503 -0.00000000000E+00 -0.00000000000E+00 -0.46621066594E+01  0.46621066594E+01  0.00000000000E+00 0.  1.
          2    1    1    2  501    0  0.10417905714E+02  0.20019006814E+02  0.85005090559E+02  0.87949751644E+02  0.00000000000E+00 0.  1.
         -2    1    1    2    0  503 -0.10417905714E+02 -0.20019006814E+02  0.36726300641E+02  0.43105852875E+02  0.00000000000E+00 0. -1.
</event>
<event>
 4    1  0.1727273E+004  0.3333709E+02  0.7546771E-02  0.1392646E+00
         21   -1    0    0  503  502  0.00000000000E+00  0.00000000000E+00  0.40007338406E+02  0.40007338406E+02  0.00000000000E+00 0.  1.
         21   -1    0    0  501  503 -0.00000000000E+00 -0.00000000000E+00 -0.36506970127E+02  0.36506970127E+02  0.00000000000E+00 0. -1.
          2    1    1    2  501    0  0.30440955567E+02  0.13590794916E+02 -0.16955899298E+02  0.37401390392E+02  0.00000000000E+00 0. -1.
         -2    1    1    2    0  502 -0.30440955567E+02 -0.13590794916E+02  0.20456267577E+02  0.39112918141E+02  0.00000000000E+00 0.  1.
</event>
<event>
 4    1  0.1727273E+004  0.2234004E+02  0.7546771E-02  0.1500956E+00
         21   -1    0    0  503  502  0.00000000000E+00  0.00000000000E+00  0.11390400641E+04  0.11390400641E+04  0.00000000000E+00 0.  1.
         21   -1    0    0  501  503 -0.00000000000E+00 -0.00000000000E+00 -0.60232005220E+00  0.60232005220E+00  0.00000000000E+00 0. -1.
          2    1    1    2  501    0 -0.22093200996E+02 -0.33117697882E+01  0.27173471690E+03  0.27265148765E+03  0.00000000000E+00 0. -1.
         -2    1    1    2    0  502  0.22093200996E+02  0.33117697882E+01  0.86670302715E+03  0.86699089650E+03  0.00000000000E+00 0.  1.
</event>
<event>
 4    1  0.1727273E+004  0.2351209E+02  0.7546771E-02  0.1486166E+00
         21   -1    0    0  501  502  0.00000000000E+00  0.00000000000E+00  0.86837459921E+02  0.86837459921E+02  0.00000000000E+00 0. -1.
         21   -1    0    0  502  503 -0.00000000000E+00 -0.00000000000E+00 -0.72905931423E+01  0.72905931423E+01  0.00000000000E+00 0.  1.
          2    1    1    2  501    0 -0.59377824003E+01 -0.22749970509E+02  0.56532615877E+02  0.61227077963E+02  0.00000000000E+00 0. -1.
         -2    1    1    2    0  503  0.59377824003E+01  0.22749970509E+02  0.23014250902E+02  0.32900975100E+02  0.00000000000E+00 0.  1.
</event>
<event>
 4    1  0.1727273E+004  0.2728219E+02  0.7546771E-02  0.1444794E+00
         21   -1    0    0  501  502  0.00000000000E+00  0.00000000000E+00  0.77497218126E+01  0.77497218126E+01  0.00000000000E+00 0. -1.
         21   -1    0    0  502  503 -0.00000000000E+00 -0.00000000000E+00 -0.13204273709E+03  0.13204273709E+03  0.00000000000E+00 0.  1.
          2    1    1    2  501    0  0.24670329326E+02 -0.11648711726E+02 -0.25651159348E+02  0.37447291088E+02  0.00000000000E+00 0. -1.
         -2    1    1    2    0  503 -0.24670329326E+02  0.11648711726E+02 -0.98641855929E+02  0.10234516781E+03  0.00000000000E+00 0.  1.
</event>
<event>
 4    1  0.1727273E+004  0.2317202E+02  0.7546771E-02  0.1490349E+00
         21   -1    0    0  501  502  0.00000000000E+00  0.00000000000E+00  0.22957250885E+02  0.22957250885E+02  0.00000000000E+00 0.  1.
         21   -1    0    0  502  503 -0.00000000000E+00 -0.00000000000E+00 -0.35256966105E+02  0.35256966105E+02  0.00000000000E+00 0. -1.
          2    1    1    2  501    0 -0.22917927010E+02  0.34221422147E+01 -0.23037479407E+02  0.32675187731E+02  0.00000000000E+00 0. -1.
         -2    1    1    2    0  503  0.22917927010E+02 -0.34221422147E+01  0.10737764187E+02  0.25539029260E+02  0.00000000000E+00 0.  1.
</event>
<event>
 4    1  0.1727273E+004  0.5589398E+02  0.7546771E-02  0.1274460E+00
         21   -1    0    0  503  502  0.00000000000E+00  0.00000000000E+00  0.26153188254E+02  0.26153188254E+02  0.00000000000E+00 0. -1.
         21   -1    0    0  501  503 -0.00000000000E+00 -0.00000000000E+00 -0.16088151476E+03  0.16088151476E+03  0.00000000000E+00 0.  1.
          2    1    1    2  501    0  0.55503698389E+02 -0.65936359906E+01 -0.11481860048E+03  0.12770061702E+03  0.00000000000E+00 0.  1.
         -2    1    1    2    0  502 -0.55503698389E+02  0.65936359906E+01 -0.19909726024E+02  0.59334085995E+02  0.00000000000E+00 0. -1.
</event>
<event>
 4    1  0.1727273E+004  0.2071688E+02  0.7546771E-02  0.1523346E+00
         21   -1    0    0  501  502  0.00000000000E+00  0.00000000000E+00  0.60418947997E+00  0.60418947997E+00  0.00000000000E+00 0. -1.
         21   -1    0    0  502  503 -0.00000000000E+00 -0.00000000000E+00 -0.12334484885E+04  0.12334484885E+04  0.00000000000E+00 0.  1.
          2    1    1    2  501    0  0.20051341762E+02 -0.52089289789E+01 -0.10182432085E+04  0.10184539365E+04  0.00000000000E+00 0.  1.
         -2    1    1    2    0  503 -0.20051341762E+02  0.52089289789E+01 -0.21460109056E+03  0.21559874145E+03  0.00000000000E+00 0. -1.
</event>
<event>
 4    1  0.1727273E+004  0.3324241E+02  0.7546771E-02  0.1393359E+00
         21   -1    0    0  501  502  0.00000000000E+00  0.00000000000E+00  0.68737310829E+01  0.68737310829E+01  0.00000000000E+00 0. -1.
         21   -1    0    0  502  503 -0.00000000000E+00 -0.00000000000E+00 -0.20361247778E+03  0.20361247778E+03  0.00000000000E+00 0.  1.
          2    1    1    2  501    0 -0.31629630535E+02  0.10228605789E+02 -0.50091045003E+02  0.60117973134E+02  0.00000000000E+00 0. -1.
         -2    1    1    2    0  503  0.31629630535E+02 -0.10228605789E+02 -0.14664770170E+03  0.15036823573E+03  0.00000000000E+00 0.  1.
</event>
<event>
 4    1  0.1727273E+004  0.2167986E+02  0.7546771E-02  0.1509776E+00
         21   -1    0    0  501  502  0.00000000000E+00  0.00000000000E+00  0.20055244127E+02  0.20055244127E+02  0.00000000000E+00 0.  1.
         21   -1    0    0  502  503 -0.00000000000E+00 -0.00000000000E+00 -0.70102256181E+02  0.70102256181E+02  0.00000000000E+00 0. -1.
          2    1    1    2  501    0 -0.19577251591E+02 -0.93138270052E+01  0.11756094852E+02  0.24662155614E+02  0.00000000000E+00 0.  1.
         -2    1    1    2    0  503  0.19577251591E+02  0.93138270052E+01 -0.61803106906E+02  0.65495344694E+02  0.00000000000E+00 0. -1.
</event>
<event>
 4    1  0.1727273E+004  0.2956686E+02  0.7546771E-02  0.1423398E+00
         21   -1    0    0  503  502  0.00000000000E+00  0.00000000000E+00  0.52313931403E+03  0.52313931403E+03  0.00000000000E+00 0. -1.
         21   -1    0    0  501  503 -0.00000000000E+00 -0.00000000000E+00 -0.10295751513E+02  0.10295751513E+02  0.00000000000E+00 0.  1.
          2    1    1    2  501    0 -0.95811400109E+01  0.27971432185E+02  0.12306917369E+02  0.32025918840E+02  0.00000000000E+00 0.  1.
         -2    1    1    2    0  502  0.95811400109E+01 -0.27971432185E+02  0.50053664515E+03  0.50140914670E+03  0.00000000000E+00 0. -1.
</event>
<event>
 4    1  0.1727273E+004  0.2354119E+02  0.7546771E-02  0.1485812E+00
         21   -1    0    0  501  502  0.00000000000E+00  0.00000000000E+00  0.19042483979E+01  0.19042483979E+01  0.00000000000E+00 0.  1.
         21   -1    0    0  502  503 -0.00000000000E+00 -0.00000000000E+00 -0.47664028217E+03  0.47664028217E+03  0.00000000000E+00 0. -1.
          2    1    1    2  501    0  0.10532680370E+02  0.21053508815E+02 -0.88053655173E+02  0.91146221965E+02  0.00000000000E+00 0.  1.
         -2    1    1    2    0  503 -0.10532680370E+02 -0.21053508815E+02 -0.38668237860E+03  0.38739830860E+03  0.00000000000E+00 0. -1.
</event>
<event>
 4    1  0.1727273E+004  0.2350878E+02  0.7546771E-02  0.1486206E+00
         21   -1    0    0  503  502  0.00000000000E+00  0.00000000000E+00  0.76269202354E+01  0.76269202354E+01  0.00000000000E+00 0. -1.
         21   -1    0    0  501  503 -0.00000000000E+00 -0.00000000000E+00 -0.89295776658E+02  0.89295776658E+02  0.00000000000E+00 0.  1.
          2    1    1    2  501    0 -0.84793335745E+01  0.21926324595E+02 -0.61875568374E+02  0.66191002181E+02  0.00000000000E+00 0.  1.
         -2    1    1    2    0  502  0.84793335745E+01 -0.21926324595E+02 -0.19793288048E+02  0.30731694712E+02  0.00000000000E+00 0. -1.
</event>
<event>
 4    1  0.1727273E+004  0.3443871E+02  0.7546771E-02  0.1384553E+00
         21   -1    0    0  503  502  0.00000000000E+00  0.00000000000E+00  0.23106278915E+03  0.23106278915E+03  0.00000000000E+00 0.  1.
         21   -1    0    0  501  503 -0.00000000000E+00 -0.00000000000E+00 -0.18851789638E+03  0.18851789638E+03  0.00000000000E+00 0. -1.
          2    1    1    2  501    0  0.33998188517E+02  0.54907204113E+01 -0.18564213039E+03  0.18880949502E+03  0.00000000000E+00 0. -1.
         -2    1    1    2    0  502 -0.33998188517E+02 -0.54907204113E+01  0.22818702316E+03  0.23077119052E+03  0.00000000000E+00 0.  1.
</event>
<event>
 4    1  0.1727273E+004  0.2167621E+02  0.7546771E-02  0.1509825E+00
         21   -1    0    0  503  502  0.00000000000E+00  0.00000000000E+00  0.12456967260E+02  0.12456967260E+02  0.00000000000E+00 0.  1.
         21   -1    0    0  501  503 -0.00000000000E+00 -0.00000000000E+00 -0.47139686955E+02  0.47139686955E+02  0.00000000000E+00 0. -1.
          2    1    1    2  501    0 -0.56520616015E+01 -0.20926352760E+02 -0.30662809698E+02  0.37550844714E+02  0.00000000000E+00 0. -1.
         -2    1    1    2    0  502  0.56520616015E+01  0.20926352760E+02 -0.40199099970E+01  0.22045809501E+02  0.00000000000E+00 0.  1.
</event>
<event>
 4    1  0.1727273E+004  0.2576865E+02  0.7546771E-02  0.1460385E+00
         21   -1    0    0  501  502  0.00000000000E+00  0.00000000000E+00  0.39026134259E+02  0.39026134259E+02  0.00000000000E+00 0. -1.
         21   -1    0    0  502  503 -0.00000000000E+00 -0.00000000000E+00 -0.24524373867E+02  0.24524373867E+02  0.00000000000E+00 0.  1.
          2    1    1    2  501    0  0.14638703844E+02  0.21206873543E+02  0.24834034039E+02  0.35787600958E+02  0.00000000000E+00 0. -1.
         -2    1    1    2    0  503 -0.14638703844E+02 -0.21206873543E+02 -0.10332273647E+02  0.27762907168E+02  0.00000000000E+00 0.  1.
</event>
<event>
 4    1  0.1727273E+004  0.2702782E+02  0.7546771E-02  0.1447329E+00
         21   -1    0    0  503  502  0.00000000000E+00  0.00000000000E+00  0.21346415215E+03  0.21346415215E+03  0.00000000000E+00 0. -1.
         21   -1    0    0  501  503 -0.00000000000E+00 -0.00000000000E+00 -0.34489905909E+01  0.34489905909E+01  0.00000000000E+00 0.  1.
          2    1    1    2  501    0  0.26779414911E+02 -0.36559537138E+01  0.11457798918E+03  0.11772263446E+03  0.00000000000E+00 0.  1.
         -2    1    1    2    0  502 -0.26779414911E+02  0.36559537138E+01  0.95437172378E+02  0.99190508276E+02  0.00000000000E+00 0. -1.
</event>
<event>
 4    1  0.1727273E+004  0.2302818E+02  0.7546771E-02  0.1492145E+00
         21   -1    0    0  503  502  0.00000000000E+00  0.00000000000E+00  0.14900168323E+03  0.14900168323E+03  0.00000000000E+00 0. -1.
         21   -1    0    0  501  503 -0.00000000000E+00 -0.00000000000E+00 -0.46570432501E+01  0.46570432501E+01  0.00000000000E+00 0.  1.
          2    1    1    2  501    0 -0.22238670169E+02 -0.59781700397E+01  0.34866048053E+02  0.41784426222E+02  0.00000000000E+00 0.  1.
         -2    1    1    2    0  502  0.22238670169E+02  0.59781700397E+01  0.10947859193E+03  0.11187430026E+03  0.00000000000E+00 0. -1.
</event>
<event>
 4    1  0.1727273E+004  0.2524612E+02  0.7546771E-02  0.1466069E+00
         21   -1    0    0  501  502  0.00000000000E+00  0.00000000000E+00  0.31508495573E+03  0.31508495573E+03  0.00000000000E+00 0. -1.
         21   -1    0    0  502  503 -0.00000000000E+00 -0.00000000000E+00 -0.28879758380E+01  0.28879758380E+01  0.00000000000E+00 0.  1.
          2    1    1    2  501    0 -0.20405842937E+02 -0.14864994512E+02  0.24311576923E+03  0.24442308347E+03  0.00000000000E+00 0. -1.
         -2    1    1    2    0  503  0.20405842937E+02  0.14864994512E+02  0.69081210667E+02  0.73549848097E+02  0.00000000000E+00 0.  1.
</event>
<event>
 4    1  0.1727273E+004  0.2065673E+02  0.7546771E-02  0.1524223E+00
         21   -1    0    0  501  502  0.00000000000E+00  0.00000000000E+00  0.28117782744E+03  0.28117782744E+03  0.00000000000E+00 0.  1.
         21   -1    0    0  502  503 -0.00000000000E+00 -0.00000000000E+00 -0.16626204081E+01  0.16626204081E+01  0.00000000000E+00 0. -1.
          2    1    1    2  501    0  0.19879991321E+02  0.56112946982E+01  0.97983391782E+02  0.10013713471E+03  0.00000000000E+00 0. -1.
         -2    1    1    2    0  503 -0.19879991321E+02 -0.56112946982E+01  0.18153181525E+03  0.18270331314E+03  0.00000000000E+00 0.  1.
</event>
<event>
 4    1  0.1727273E+004  0.3097453E+02  0.7546771E-02  0.1411312E+00
         21   -1    0    0  503  502  0.00000000000E+00  0.00000000000E+00  0.30876407957E+03  0.30876407957E+03  0.00000000000E+00 0. -1.
         21   -1    0    0  501  503 -0.00000000000E+00 -0.00000000000E+00 -0.38997127023E+01  0.38997127023E+01  0.00000000000E+00 0.  1.
          2    1    1    2  501    0  0.69753400928E+01 -0.30178905014E+02  0.81961603770E+02  0.87619211191E+02  0.00000000000E+00 0.  1.
         -2    1    1    2    0  502 -0.69753400928E+01  0.30178905014E+02  0.22290276310E+03  0.22504458108E+03  0.00000000000E+00 0. -1.
</event>
<event>
 4    1  0.1727273E+004  0.2457114E+02  0.7546771E-02  0.1473659E+00
         21   -1    0    0  503  502  0.00000000000E+00  0.00000000000E+00  0.50057333670E+01  0.50057333670E+01  0.00000000000E+00 0.  1.
         21   -1    0    0  501  503 -0.00000000000E+00 -0.00000000000E+00 -0.12281434375E+03  0.12281434375E+03  0.00000000000E+00 0. -1.
          2    1    1    2  501    0  0.14356828657E+02  0.19940472476E+02 -0.67466687548E+02  0.71801775051E+02  0.00000000000E+00 0.  1.
         -2    1    1    2    0  502 -0.14356828657E+02 -0.19940472476E+02 -0.50341922832E+02  0.56018302064E+02  0.00000000000E+00 0. -1.
</event>
<event>
 4    1  0.1727273E+004  0.2182694E+02  0.7546771E-02  0.1507778E+00
         21   -1    0    0  501  502  0.00000000000E+00  0.00000000000E+00  0.10050652520E+04  0.10050652520E+04  0.00000000000E+00 0. -1.
         21   -1    0    0  502  503 -0.00000000000E+00 -0.00000000000E+00 -0.47414655598E+00  0.47414655598E+00  0.00000000000E+00 0.  1.
          2    1    1    2  501    0  0.14945515600E+02 -0.15907450538E+02  0.51068877610E+03  0.51115500727E+03  0.00000000000E+00 0. -1.
         -2    1    1    2    0  503 -0.14945515600E+02  0.15907450538E+02  0.49390232935E+03  0.49438439129E+03  0.00000000000E+00 0.  1.
</event>
<event>
 4    1  0.1727273E+004  0.2785121E+02  0.7546771E-02  0.1439240E+00
         21   -1    0    0  503  502  0.00000000000E+00  0.00000000000E+00  0.28413538975E+02  0.28413538975E+02  0.00000000000E+00 0.  1.
         21   -1    0    0  501  503 -0.00000000000E+00 -0.00000000000E+00 -0.30981534954E+02  0.30981534954E+02  0.00000000000E+00 0. -1.
          2    1    1    2  501    0  0.20415879466E+02 -0.18944170177E+02 -0.11521245756E+02  0.30140152983E+02  0.00000000000E+00 0. -1.
         -2    1    1    2    0  502 -0.20415879466E+02  0.18944170177E+02  0.89532497768E+01  0.29254920947E+02  0.00000000000E+00 0.  1.
</event>
<event>
 4    1  0.1727273E+004  0.3457768E+02  0.7546771E-02  0.1383557E+00
         21   -1    0    0  503  502  0.00000000000E+00  0.00000000000E+00  0.18889725532E+02  0.18889725532E+02  0.00000000000E+00 0. -1.
         21   -1    0    0  501  503 -0.00000000000E+00 -0.00000000000E+00 -0.69401831712E+02  0.69401831712E+02  0.00000000000E+00 0.  1.
          2    1    1    2  501    0  0.34344547391E+02  0.40085354998E+01 -0.38351743984E+02  0.51637898475E+02  0.00000000000E+00 0.  1.
         -2    1    1    2    0  502 -0.34344547391E+02 -0.40085354998E+01 -0.12160362197E+02  0.36653658768E+02  0.00000000000E+00 0. -1.
</event>
<event>
 4    1  0.1727273E+004  0.2359149E+02  0.7546771E-02  0.1485201E+00
         21   -1    0    0  503  502  0.00000000000E+00  0.00000000000E+00  0.60779558598E+03  0.60779558598E+03  0.00000000000E+00 0.  1.
         21   -1    0    0  501  503 -0.00000000000E+00 -0.00000000000E+00 -0.91580077675E+00  0.91580077675E+00  0.00000000000E+00 0. -1.
          2    1    1    2  501    0  0.22070523714E+02  0.83336787916E+01  0.30024199215E+03  0.30116741536E+03  0.00000000000E+00 0. -1.
         -2    1    1    2    0  502 -0.22070523714E+02 -0.83336787916E+01  0.30663779305E+03  0.30754397140E+03  0.00000000000E+00 0.  1.
</event>
<event>
 4    1  0.1727273E+004  0.2143810E+02  0.7546771E-02  0.1513101E+00
         21   -1    0    0  503  502  0.00000000000E+00  0.00000000000E+00  0.14718170504E+02  0.14718170504E+02  0.00000000000E+00 0.  1.
         21   -1    0    0  501  503 -0.00000000000E+00 -0.00000000000E+00 -0.60516380728E+02  0.60516380728E+02  0.00000000000E+00 0. -1.
          2    1    1    2  501    0  0.99042152652E+01 -0.19013114836E+02 -0.49069613150E+02  0.53548286158E+02  0.00000000000E+00 0. -1.
         -2    1    1    2    0  502 -0.99042152652E+01  0.19013114836E+02  0.32714029259E+01  0.21686265075E+02  0.00000000000E+00 0.  1.
</event>
<event>
 4    1  0.1727273E+004  0.2283532E+02  0.7546771E-02  0.1494576E+00
         21   -1    0    0  501  502  0.00000000000E+00  0.00000000000E+00  0.58815674076E+02  0.58815674076E+02  0.00000000000E+00 0. -1.
         21   -1    0    0  502  503 -0.00000000000E+00 -0.00000000000E+00 -0.15265117105E+02  0.15265117105E+02  0.00000000000E+00 0.  1.
          2    1    1    2  501    0 -0.77376639838E+01  0.21484422784E+02  0.45757539922E+02  0.51139068490E+02  0.00000000000E+00 0. -1.
         -2    1    1    2    0  503  0.77376639838E+01 -0.21484422784E+02 -0.22069829512E+01  0.22941722691E+02  0.00000000000E+00 0.  1.
</event>
<event>
 4    1  0.1727273E+004  0.3104375E+02  0.7546771E-02  0.1410738E+00
         21   -1    0    0  501  502  0.00000000000E+00  0.00000000000E+00  0.10518489781E+02  0.10518489781E+02  0.00000000000E+00 0.  1.
         21   -1    0    0  502  503 -0.00000000000E+00 -0.00000000000E+00 -0.13567993068E+03  0.13567993068E+03  0.00000000000E+00 0. -1.
          2    1    1    2  501    0 -0.29290108992E+02 -0.10286093444E+02 -0.20925252449E+02  0.37437686803E+02  0.00000000000E+00 0.  1.
         -2    1    1    2    0  503  0.29290108992E+02  0.10286093444E+02 -0.10423618845E+03  0.10876073366E+03  0.00000000000E+00 0. -1.
</event>
<event>
 4    1  0.1727273E+004  0.2514932E+02  0.7546771E-02  0.1467140E+00
         21   -1    0    0  503  502  0.00000000000E+00  0.00000000000E+00  0.16694410593E+03  0.16694410593E+03  0.00000000000E+00 0.  1.
         21   -1    0    0  501  503 -0.00000000000E+00 -0.00000000000E+00 -0.42105692522E+01  0.42105692522E+01  0.00000000000E+00 0. -1.
          2    1    1    2  501    0  0.22937651439E+02  0.10312725200E+02  0.54276249961E+02  0.59819724711E+02  0.00000000000E+00 0. -1.
         -2    1    1    2    0  502 -0.22937651439E+02 -0.10312725200E+02  0.10845728672E+03  0.11133495047E+03  0.00000000000E+00 0.  1.
</event>
<event>
 4    1  0.1727273E+004  0.2573198E+02  0.7546771E-02  0.1460779E+00
         21   -1    0    0  501  502  0.00000000000E+00  0.00000000000E+00  0.36612104658E+03  0.36612104658E+03  0.00000000000E+00 0. -1.
         21   -1    0    0  502  503 -0.00000000000E+00 -0.00000000000E+00 -0.18460979329E+01  0.18460979329E+01  0.00000000000E+00 0.  1.
          2    1    1    2  501    0 -0.19381650460E+02  0.16925906117E+02  0.20838924288E+03  0.20997192960E+03  0.00000000000E+00 0.  1.
         -2    1    1    2    0  503  0.19381650460E+02 -0.16925906117E+02  0.15588570577E+03  0.15799521491E+03  0.00000000000E+00 0. -1.
</event>
<event>
 4    1  0.1727273E+004  0.3462733E+02  0.7546771E-02  0.1383202E+00
         21   -1    0    0  503  502  0.00000000000E+00  0.00000000000E+00  0.63182566341E+02  0.63182566341E+02  0.00000000000E+00 0.  1.
         21   -1    0    0  501  503 -0.00000000000E+00 -0.00000000000E+00 -0.33562560721E+02  0.33562560721E+02  0.00000000000E+00 0. -1.
          2    1    1    2  501    0  0.24111822306E+02  0.24853001346E+02 -0.17077801790E+02  0.38609622697E+02  0.00000000000E+00 0. -1.
         -2    1    1    2    0  502 -0.24111822306E+02 -0.24853001346E+02  0.46697807411E+02  0.58135504365E+02  0.00000000000E+00 0.  1.
</event>
<event>
 4    1  0.1727273E+004  0.2430408E+02  0.7546771E-02  0.1476741E+00
         21   -1    0    0  503  502  0.00000000000E+00  0.00000000000E+00  0.21475226795E+02  0.21475226795E+02  0.00000000000E+00 0.  1.
         21   -1    0    0  501  503 -0.00000000000E+00 -0.00000000000E+00 -0.57753608126E+02  0.57753608126E+02  0.00000000000E+00 0. -1.
          2    1    1    2  501    0  0.19555605434E+02 -0.14431451519E+02 -0.46808172610E+02  0.52741762579E+02  0.00000000000E+00 0. -1.
         -2    1    1    2    0  502 -0.19555605434E+02  0.14431451519E+02  0.10529791279E+02  0.26487072341E+02  0.00000000000E+00 0.  1.
</event>
<event>
 4    1  0.1727273E+004  0.2851748E+02  0.7546771E-02  0.1432933E+00
         21   -1    0    0  501  502  0.00000000000E+00  0.00000000000E+00  0.23979679005E+03  0.23979679005E+03  0.00000000000E+00 0. -1.
         21   -1    0    0  502  503 -0.00000000000E+00 -0.00000000000E+00 -0.46245458531E+01  0.46245458531E+01  0.00000000000E+00 0.  1.
          2    1    1    2  501    0 -0.27379968534E+02 -0.79739647897E+01  0.18069374581E+03  0.18293025055E+03  0.00000000000E+00 0. -1.
         -2    1    1    2    0  503  0.27379968534E+02  0.79739647897E+01  0.54478498386E+02  0.61491085352E+02  0.00000000000E+00 0.  1.
</event>
<event>
 4    1  0.1727273E+004  0.2027503E+02  0.7546771E-02  0.1529872E+00
         21   -1    0    0  503  502  0.00000000000E+00  0.00000000000E+00  0.23975075443E+03  0.23975075443E+03  0.00000000000E+00 0.  1.
         21   -1    0    0  501  503 -0.00000000000E+00 -0.00000000000E+00 -0.36788032301E+01  0.36788032301E+01  0.00000000000E+00 0. -1.
          2    1    1    2  501    0 -0.10806963413E+02  0.17154778078E+02  0.29098839363E+02  0.35465748566E+02  0.00000000000E+00 0. -1.
         -2    1    1    2    0  502  0.10806963413E+02 -0.17154778078E+02  0.20697311184E+03  0.20796380909E+03  0.00000000000E+00 0.  1.
</event>
<event>
 4    1  0.1727273E+004  0.2057625E+02  0.7546771E-02  0.1525402E+00
         21   -1    0    0  501  502  0.00000000000E+00  0.00000000000E+00  0.99900060533E+00  0.99900060533E+00  0.00000000000E+00 0.  1.
         21   -1    0    0  502  503 -0.00000000000E+00 -0.00000000000E+00 -0.81942384645E+03  0.81942384645E+03  0.00000000000E+00 0. -1.
          2    1    1    2  501    0 -0.24193313189E-01 -0.20576233565E+02 -0.12418171543E+03  0.12587486016E+03  0.00000000000E+00 0.  1.
         -2    1    1    2    0  503  0.24193313189E-01  0.20576233565E+02 -0.69424313041E+03  0.69454798689E+03  0.00000000000E+00 0. -1.
</event>
<event>
 4    1  0.1727273E+004  0.5803667E+02  0.7546771E-02  0.1266653E+00
         21   -1    0    0  501  502  0.00000000000E+00  0.00000000000E+00  0.22000524854E+03  0.22000524854E+03  0.00000000000E+00 0. -1.
         21   -1    0    0  502  503 -0.00000000000E+00 -0.00000000000E+00 -0.15322139898E+02  0.15322139898E+02  0.00000000000E+00 0.  1.
          2    1    1    2  501    0 -0.57917844460E+02 -0.37119439120E+01  0.10566909313E+03  0.12055792167E+03  0.00000000000E+00 0.  1.
         -2    1    1    2    0  503  0.57917844460E+02  0.37119439120E+01  0.99014015513E+02  0.11476946677E+03  0.00000000000E+00 0. -1.
</event>
<event>
 4    1  0.1727273E+004  0.2968921E+02  0.7546771E-02  0.1422317E+00
         21   -1    0    0  503  502  0.00000000000E+00  0.00000000000E+00  0.94749867094E+01  0.94749867094E+01  0.00000000000E+00 0.  1.
         21   -1    0    0  501  503 -0.00000000000E+00 -0.00000000000E+00 -0.10006427812E+03  0.10006427812E+03  0.00000000000E+00 0. -1.
          2    1    1    2  501    0 -0.26626221755E+02 -0.13133667457E+02 -0.30772200991E+02  0.42759528291E+02  0.00000000000E+00 0.  1.
         -2    1    1    2    0  502  0.26626221755E+02  0.13133667457E+02 -0.59817090416E+02  0.66779736535E+02  0.00000000000E+00 0. -1.
</event>
<event>
 4    1  0.1727273E+004  0.2095301E+02  0.7546771E-02  0.1519937E+00
         21   -1    0    0  501  502  0.00000000000E+00  0.00000000000E+00  0.34106371920E+02  0.34106371920E+02  0.00000000000E+00 0. -1.
         21   -1    0    0  502  503 -0.00000000000E+00 -0.00000000000E+00 -0.19105634955E+02  0.19105634955E+02  0.00000000000E+00 0.  1.
          2    1    1    2  501    0 -0.11038688516E+02 -0.17809439095E+02  0.22697366107E+02  0.30890114814E+02  0.00000000000E+00 0. -1.
         -2    1    1    2    0  503  0.11038688516E+02  0.17809439095E+02 -0.76966291422E+01  0.22321892061E+02  0.00000000000E+00 0.  1.
</event>
<event>
 4    1  0.1727273E+004  0.2032448E+02  0.7546771E-02  0.1529132E+00
         21   -1    0    0  501  502  0.00000000000E+00  0.00000000000E+00  0.12806831530E+02  0.12806831530E+02  0.00000000000E+00 0. -1.
         21   -1    0    0  502  503 -0.00000000000E+00 -0.00000000000E+00 -0.44897124416E+02  0.44897124416E+02  0.00000000000E+00 0.  1.
          2    1    1    2  501    0 -0.18106000216E+02 -0.92334813020E+01 -0.73510855844E+00  0.20337767955E+02  0.00000000000E+00 0. -1.
         -2    1    1    2    0  503  0.18106000216E+02  0.92334813020E+01 -0.31355184327E+02  0.37366187991E+02  0.00000000000E+00 0.  1.
</event>
<event>
 4    1  0.1727273E+004  0.2958203E+02  0.7546771E-02  0.1423264E+00
         21   -1    0    0  501  502  0.00000000000E+00  0.00000000000E+00  0.12052219394E+02  0.12052219394E+02  0.00000000000E+00 0.  1.
         21   -1    0    0  502  503 -0.00000000000E+00 -0.00000000000E+00 -0.15449929456E+03  0.15449929456E+03  0.00000000000E+00 0. -1.
          2    1    1    2  501    0 -0.29556055507E+02 -0.12394358660E+01 -0.10595681514E+02  0.31422366001E+02  0.00000000000E+00 0.  1.
         -2    1    1    2    0  503  0.29556055507E+02  0.12394358660E+01 -0.13185139366E+03  0.13512914796E+03  0.00000000000E+00 0. -1.
</event>
<event>
 4    1  0.1727273E+004  0.2425884E+02  0.7546771E-02  0.1477268E+00
         21   -1    0    0  501  502  0.00000000000E+00  0.00000000000E+00  0.53149390147E+02  0.53149390147E+02  0.00000000000E+00 0.  1.
         21   -1    0    0  502  503 -0.00000000000E+00 -0.00000000000E+00 -0.11909030607E+02  0.11909030607E+02  0.00000000000E+00 0. -1.
          2    1    1    2  501    0  0.92732092143E+01  0.22416492812E+02  0.11998319880E+02  0.27063836370E+02  0.00000000000E+00 0. -1.
         -2    1    1    2    0  503 -0.92732092143E+01 -0.22416492812E+02  0.29242039660E+02  0.37994584385E+02  0.00000000000E+00 0.  1.
</event>
<event>
 4    1  0.1727273E+004  0.2100857E+02  0.7546771E-02  0.1519143E+00
         21   -1    0    0  503  502  0.00000000000E+00  0.00000000000E+00  0.37187967558E+01  0.37187967558E+01  0.00000000000E+00 0.  1.
         21   -1    0    0  501  503 -0.00000000000E+00 -0.00000000000E+00 -0.12231685406E+03  0.12231685406E+03  0.00000000000E+00 0. -1.
          2    1    1    2  501    0 -0.11560831981E+02 -0.17541578600E+02 -0.70160135941E+02  0.73237998956E+02  0.00000000000E+00 0.  1.
         -2    1    1    2    0  502  0.11560831981E+02  0.17541578600E+02 -0.48437921360E+02  0.52797651856E+02  0.00000000000E+00 0. -1.
</event>
<event>
 4    1  0.1727273E+004  0.2419225E+02  0.7546771E-02  0.1478046E+00
         21   -1    0    0  501  502  0.00000000000E+00  0.00000000000E+00  0.21201735109E+03  0.21201735109E+03  0.00000000000E+00 0. -1.
         21   -1    0    0  502  503 -0.00000000000E+00 -0.00000000000E+00 -0.39706412036E+01  0.39706412036E+01  0.00000000000E+00 0.  1.
          2    1    1    2  501    0 -0.24182182447E+02  0.69800480794E+00  0.16364373081E+03  0.16542229533E+03  0.00000000000E+00 0. -1.
         -2    1    1    2    0  503  0.24182182447E+02 -0.69800480794E+00  0.44402979074E+02  0.50565696962E+02  0.00000000000E+00 0.  1.
</event>
<event>
 4    1  0.1727273E+004  0.4429415E+02  0.7546771E-02  0.1325007E+00
         21   -1    0    0  501  502  0.00000000000E+00  0.00000000000E+00  0.87244995521E+02  0.87244995521E+02  0.00000000000E+00 0. -1.
         21   -1    0    0  502  503 -0.00000000000E+00 -0.00000000000E+00 -0.29207952953E+02  0.29207952953E+02  0.00000000000E+00 0.  1.
          2    1    1    2  501    0  0.35418491291E+02 -0.26598909421E+02  0.56947226948E+02  0.72145396006E+02  0.00000000000E+00 0. -1.
         -2    1    1    2    0  503 -0.35418491291E+02  0.26598909421E+02  0.10898156202E+01  0.44307552469E+02  0.00000000000E+00 0.  1.
</event>
<event>
 4    1  0.1727273E+004  0.7907755E+02  0.7546771E-02  0.1206005E+00
         21   -1    0    0  501  502  0.00000000000E+00  0.00000000000E+00  0.31037604144E+02  0.31037604144E+02  0.00000000000E+00 0. -1.
         21   -1    0    0  502  503 -0.00000000000E+00 -0.00000000000E+00 -0.20697809464E+03  0.20697809464E+03  0.00000000000E+00 0.  1.
          2    1    1    2  501    0  0.69993435230E+02  0.36799146853E+02 -0.68562650886E+02  0.10466181386E+03  0.00000000000E+00 0. -1.
         -2    1    1    2    0  503 -0.69993435230E+02 -0.36799146853E+02 -0.10737783961E+03  0.13335388492E+03  0.00000000000E+00 0.  1.
</event>
<event>
 4    1  0.1727273E+004  0.2351077E+02  0.7546771E-02  0.1486182E+00
         21   -1    0    0  501  502  0.00000000000E+00  0.00000000000E+00  0.18096618792E+02  0.18096618792E+02  0.00000000000E+00 0. -1.
         21   -1    0    0  502  503 -0.00000000000E+00 -0.00000000000E+00 -0.31991421585E+02  0.31991421585E+02  0.00000000000E+00 0.  1.
          2    1    1    2  501    0  0.22848448963E+02 -0.55411946220E+01 -0.16217316248E+01  0.23566638948E+02  0.00000000000E+00 0. -1.
         -2    1    1    2    0  503 -0.22848448963E+02  0.55411946220E+01 -0.12273071168E+02  0.26521401429E+02  0.00000000000E+00 0.  1.
</event>
<event>
 4    1  0.1727273E+004  0.2056503E+02  0.7546771E-02  0.1525567E+00
         21   -1    0    0  503  502  0.00000000000E+00  0.00000000000E+00  0.62071822489E+01  0.62071822489E+01  0.00000000000E+00 0.  1.
         21   -1    0    0  501  503 -0.00000000000E+00 -0.00000000000E+00 -0.69158362913E+02  0.69158362913E+02  0.00000000000E+00 0. -1.
          2    1    1    2  501    0  0.19058501212E+02 -0.77262009212E+01 -0.36061553444E+02  0.41513326606E+02  0.00000000000E+00 0.  1.
         -2    1    1    2    0  502 -0.19058501212E+02  0.77262009212E+01 -0.26889627220E+02  0.33852218556E+02  0.00000000000E+00 0. -1.
</event>
<event>
 4    1  0.1727273E+004  0.2765441E+02  0.7546771E-02  0.1441143E+00
         21   -1    0    0  501  502  0.00000000000E+00  0.00000000000E+00  0.14715445846E+03  0.14715445846E+03  0.00000000000E+00 0. -1.
         21   -1    0    0  502  503 -0.00000000000E+00 -0.00000000000E+00 -0.60485483675E+01  0.60485483675E+01  0.00000000000E+00 0.  1.
          2    1    1    2  501    0  0.15584819449E+02 -0.22844688950E+02  0.99294376795E+02  0.10307346736E+03  0.00000000000E+00 0. -1.
         -2    1    1    2    0  503 -0.15584819449E+02  0.22844688950E+02  0.41811533294E+02  0.50129539464E+02  0.00000000000E+00 0.  1.
</event>
<event>
 4    1  0.1727273E+004  0.2525690E+02  0.7546771E-02  0.1465950E+00
         21   -1    0    0  503  502  0.00000000000E+00  0.00000000000E+00  0.93419471597E+02  0.93419471597E+02  0.00000000000E+00 0.  1.
         21   -1    0    0  501  503 -0.00000000000E+00 -0.00000000000E+00 -0.18331922090E+02  0.18331922090E+02  0.00000000000E+00 0. -1.
          2    1    1    2  501    0  0.23158805645E+02  0.10078735010E+02 -0.67184483599E+01  0.26135200912E+02  0.00000000000E+00 0. -1.
         -2    1    1    2    0  502 -0.23158805645E+02 -0.10078735010E+02  0.81805997867E+02  0.85616192776E+02  0.00000000000E+00 0.  1.
</event>
<event>
 4    1  0.1727273E+004  0.2608170E+02  0.7546771E-02  0.1457057E+00
         21   -1    0    0  501  502  0.00000000000E+00  0.00000000000E+00  0.18375150862E+01  0.18375150862E+01  0.00000000000E+00 0.  1.
         21   -1    0    0  502  503 -0.00000000000E+00 -0.00000000000E+00 -0.49851219459E+03  0.49851219459E+03  0.00000000000E+00 0. -1.
          2    1    1    2  501    0 -0.24681346898E+02 -0.84312481477E+01 -0.12141633033E+03  0.12418607048E+03  0.00000000000E+00 0.  1.
         -2    1    1    2    0  503  0.24681346898E+02  0.84312481477E+01 -0.37525834917E+03  0.37616363919E+03  0.00000000000E+00 0. -1.
</event>
<event>
 4    1  0.1727273E+004  0.2435614E+02  0.7546771E-02  0.1476137E+00
         21   -1    0    0  503  502  0.00000000000E+00  0.00000000000E+00  0.20495699160E+01  0.20495699160E+01  0.00000000000E+00 0.  1.
         21   -1    0    0  501  503 -0.00000000000E+00 -0.00000000000E+00 -0.31126805472E+03  0.31126805472E+03  0.00000000000E+00 0. -1.
          2    1    1    2  501    0  0.10058631930E+02 -0.22182097791E+02 -0.19609739373E+03  0.19760417345E+03  0.00000000000E+00 0. -1.
         -2    1    1    2    0  502 -0.10058631930E+02  0.22182097791E+02 -0.11312109108E+03  0.11571345119E+03  0.00000000000E+00 0.  1.
</event>
<event>
 4    1  0.1727273E+004  0.2599585E+02  0.7546771E-02  0.1457964E+00
         21   -1    0    0  501  502  0.00000000000E+00  0.00000000000E+00  0.29942048890E+00  0.29942048890E+00  0.00000000000E+00 0. -1.
         21   -1    0    0  502  503 -0.00000000000E+00 -0.00000000000E+00 -0.26167610456E+04  0.26167610456E+04  0.00000000000E+00 0.  1.
          2    1    1    2  501    0  0.20190381661E+02  0.16374753197E+02 -0.82302622117E+03  0.82343666714E+03  0.00000000000E+00 0. -1.
         -2    1    1    2    0  503 -0.20190381661E+02 -0.16374753197E+02 -0.17934354039E+04  0.17936237990E+04  0.00000000000E+00 0.  1.
</event>
<event>
 4    1  0.1727273E+004  0.3592169E+02  0.7546771E-02  0.1374197E+00
         21   -1    0    0  501  502  0.00000000000E+00  0.00000000000E+00  0.44743131918E+01  0.44743131918E+01  0.00000000000E+00 0. -1.
         21   -1    0    0  502  503 -0.00000000000E+00 -0.00000000000E+00 -0.35243273369E+03  0.35243273369E+03  0.00000000000E+00 0.  1.
          2    1    1    2  501    0 -0.34353073017E+02 -0.10499261596E+02 -0.97910496821E+02  0.10429205870E+03  0.00000000000E+00 0. -1.
         -2    1    1    2    0  503  0.34353073017E+02  0.10499261596E+02 -0.25004792367E+03  0.25261498818E+03  0.00000000000E+00 0.  1.
</event>
<event>
 4    1  0.1727273E+004  0.3405977E+02  0.7546771E-02  0.1387296E+00
         21   -1    0    0  503  502  0.00000000000E+00  0.00000000000E+00  0.20055174758E+02  0.20055174758E+02  0.00000000000E+00 0. -1.
         21   -1    0    0  501  503 -0.00000000000E+00 -0.00000000000E+00 -0.63502999404E+02  0.63502999404E+02  0.00000000000E+00 0.  1.
          2    1    1    2  501    0  0.84799837130E+01  0.32987233029E+02 -0.34195996690E+02  0.48264208854E+02  0.00000000000E+00 0.  1.
         -2    1    1    2    0  502 -0.84799837130E+01 -0.32987233029E+02 -0.92518279555E+01  0.35293965308E+02  0.00000000000E+00 0. -1.
</event>
<event>
 4    1  0.1727273E+004  0.2473099E+02  0.7546771E-02  0.1471835E+00
         21   -1    0    0  503  502  0.00000000000E+00  0.00000000000E+00  0.18307616412E+02  0.18307616412E+02  0.00000000000E+00 0. -1.
         21   -1    0    0  501  503 -0.00000000000E+00 -0.00000000000E+00 -0.42970510862E+02  0.42970510862E+02  0.00000000000E+00 0.  1.
          2    1    1    2  501    0 -0.16646908106E+02 -0.18289402839E+02 -0.26785013374E+02  0.36456257997E+02  0.00000000000E+00 0. -1.
         -2    1    1    2    0  502  0.16646908106E+02  0.18289402839E+02  0.21221189234E+01  0.24821869277E+02  0.00000000000E+00 0.  1.
</event>
<event>
 4    1  0.1727273E+004  0.3665918E+02  0.7546771E-02  0.1369259E+00
         21   -1    0    0  501  502  0.00000000000E+00  0.00000000000E+00  0.51852728665E+03  0.51852728665E+03  0.00000000000E+00 0. -1.
         21   -1    0    0  502  503 -0.00000000000E+00 -0.00000000000E+00 -0.38248524570E+01  0.38248524570E+01  0.00000000000E+00 0.  1.
          2    1    1    2  501    0  0.36085181127E+02 -0.64618043903E+01  0.40564566815E+03  0.40729878873E+03  0.00000000000E+00 0. -1.
         -2    1    1    2    0  503 -0.36085181127E+02  0.64618043903E+01  0.10905676604E+03  0.11505335037E+03  0.00000000000E+00 0.  1.
</event>
<event>
 4    1  0.1727273E+004  0.2806940E+02  0.7546771E-02  0.1437152E+00
         21   -1    0    0  503  502  0.00000000000E+00  0.00000000000E+00  0.73204531240E+03  0.73204531240E+03  0.00000000000E+00 0.  1.
         21   -1    0    0  501  503 -0.00000000000E+00 -0.00000000000E+00 -0.31763514997E+02  0.31763514997E+02  0.00000000000E+00 0. -1.
          2    1    1    2  501    0 -0.27988977704E+02  0.21232605243E+01 -0.25237456546E+02  0.37746792196E+02  0.00000000000E+00 0. -1.
         -2    1    1    2    0  502  0.27988977704E+02 -0.21232605243E+01  0.72551925394E+03  0.72606203520E+03  0.00000000000E+00 0.  1.
</event>
<event>
 4    1  0.1727273E+004  0.2242717E+02  0.7546771E-02  0.1499819E+00
         21   -1    0    0  501  502  0.00000000000E+00  0.00000000000E+00  0.31006724944E+01  0.31006724944E+01  0.00000000000E+00 0. -1.
         21   -1    0    0  502  503 -0.00000000000E+00 -0.00000000000E+00 -0.17446516346E+03  0.17446516346E+03  0.00000000000E+00 0.  1.
          2    1    1    2  501    0  0.23165151858E+01 -0.22307209037E+02 -0.10920744160E+03  0.11148651541E+03  0.00000000000E+00 0.  1.
         -2    1    1    2    0  503 -0.23165151858E+01  0.22307209037E+02 -0.62157049363E+02  0.66079320541E+02  0.00000000000E+00 0. -1.
</event>
<event>
 4    1  0.1727273E+004  0.2378797E+02  0.7546771E-02  0.1482834E+00
         21   -1    0    0  501  502  0.00000000000E+00  0.00000000000E+00  0.30760245465E+02  0.30760245465E+02  0.00000000000E+00 0. -1.
         21   -1    0    0  502  503 -0.00000000000E+00 -0.00000000000E+00 -0.18901669033E+02  0.18901669033E+02  0.00000000000E+00 0.  1.
          2    1    1    2  501    0  0.51886813806E+01 -0.23215196115E+02  0.99903993806E+01  0.25800694272E+02  0.00000000000E+00 0.  1.
         -2    1    1    2    0  503 -0.51886813806E+01  0.23215196115E+02  0.18681770517E+01  0.23861220225E+02  0.00000000000E+00 0. -1.
</event>
<event>
 4    1  0.1727273E+004  0.2361262E+02  0.7546771E-02  0.1484945E+00
         21   -1    0    0  501  502  0.00000000000E+00  0.00000000000E+00  0.30840975958E+03  0.30840975958E+03  0.00000000000E+00 0.  1.
         21   -1    0    0  502  503 -0.00000000000E+00 -0.00000000000E+00 -0.17040542595E+02  0.17040542595E+02  0.00000000000E+00 0. -1.
          2    1    1    2  501    0 -0.22557694026E+02 -0.69789836685E+01  0.29953600501E+03  0.30046526267E+03  0.00000000000E+00 0.  1.
         -2    1    1    2    0  503  0.22557694026E+02  0.69789836685E+01 -0.81667880200E+01  0.24985039512E+02  0.00000000000E+00 0. -1.
</event>
<event>
 4    1  0.1727273E+004  0.2048108E+02  0.7546771E-02  0.1526804E+00
         21   -1    0    0  503  502  0.00000000000E+00  0.00000000000E+00  0.42921823906E+00  0.42921823906E+00  0.00000000000E+00 0.  1.
         21   -1    0    0  501  503 -0.00000000000E+00 -0.00000000000E+00 -0.12550221185E+04  0.12550221185E+04  0.00000000000E+00 0. -1.
          2    1    1    2  501    0 -0.20117661383E+02 -0.38411270158E+01 -0.92258745223E+03  0.92281476016E+03  0.00000000000E+00 0. -1.
         -2    1    1    2    0  502  0.20117661383E+02  0.38411270158E+01 -0.33200544803E+03  0.33263657658E+03  0.00000000000E+00 0.  1.
</event>
<event>
 4    1  0.1727273E+004  0.2162225E+02  0.7546771E-02  0.1510563E+00
         21   -1    0    0  503  502  0.00000000000E+00  0.00000000000E+00  0.87998528030E+03  0.87998528030E+03  0.00000000000E+00 0.  1.
         21   -1    0    0  501  503 -0.00000000000E+00 -0.00000000000E+00 -0.80200470589E+00  0.80200470589E+00  0.00000000000E+00 0. -1.
          2    1    1    2  501    0 -0.19863697287E+02 -0.85413829986E+01  0.18372498384E+03  0.18499294954E+03  0.00000000000E+00 0. -1.
         -2    1    1    2    0  502  0.19863697287E+02  0.85413829986E+01  0.69545829175E+03  0.69579433546E+03  0.00000000000E+00 0.  1.
</event>
<event>
 4    1  0.1727273E+004  0.2459268E+02  0.7546771E-02  0.1473412E+00
         21   -1    0    0  501  502  0.00000000000E+00  0.00000000000E+00  0.36541669759E+02  0.36541669759E+02  0.00000000000E+00 0. -1.
         21   -1    0    0  502  503 -0.00000000000E+00 -0.00000000000E+00 -0.24184748374E+02  0.24184748374E+02  0.00000000000E+00 0.  1.
          2    1    1    2  501    0  0.19292102249E+02 -0.15251714176E+02 -0.10880270409E+02  0.26892011429E+02  0.00000000000E+00 0.  1.
         -2    1    1    2    0  503 -0.19292102249E+02  0.15251714176E+02  0.23237191795E+02  0.33834406704E+02  0.00000000000E+00 0. -1.
</event>
<event>
 4    1  0.1727273E+004  0.2213993E+02  0.7546771E-02  0.1503590E+00
         21   -1    0    0  501  502  0.00000000000E+00  0.00000000000E+00  0.11124502014E+01  0.11124502014E+01  0.00000000000E+00 0. -1.
         21   -1    0    0  502  503 -0.00000000000E+00 -0.00000000000E+00 -0.45161831772E+03  0.45161831772E+03  0.00000000000E+00 0.  1.
          2    1    1    2  501    0 -0.16355429800E+02  0.14922353291E+02 -0.18994036692E+03  0.19122635723E+03  0.00000000000E+00 0. -1.
         -2    1    1    2    0  503  0.16355429800E+02 -0.14922353291E+02 -0.26056550059E+03  0.26150441069E+03  0.00000000000E+00 0.  1.
</event>
<event>
 4    1  0.1727273E+004  0.2116827E+02  0.7546771E-02  0.1516876E+00
         21   -1    0    0  501  502  0.00000000000E+00  0.00000000000E+00  0.26818695446E+01  0.26818695446E+01  0.00000000000E+00 0.  1.
         21   -1    0    0  502  503 -0.00000000000E+00 -0.00000000000E+00 -0.17650914743E+03  0.17650914743E+03  0.00000000000E+00 0. -1.
          2    1    1    2  501    0  0.19845667717E+02  0.73651398167E+01 -0.66209311266E+02  0.69510925112E+02  0.00000000000E+00 0.  1.
         -2    1    1    2    0  503 -0.19845667717E+02 -0.73651398167E+01 -0.10761796662E+03  0.10968009186E+03  0.00000000000E+00 0. -1.
</event>
<event>
 4    1  0.1727273E+004  0.2359934E+02  0.7546771E-02  0.1485106E+00
         21   -1    0    0  501  502  0.00000000000E+00  0.00000000000E+00  0.75583003679E+00  0.75583003679E+00  0.00000000000E+00 0. -1.
         21   -1    0    0  502  503 -0.00000000000E+00 -0.00000000000E+00 -0.77973197759E+03  0.77973197759E+03  0.00000000000E+00 0.  1.
          2    1    1    2  501    0  0.23593095642E+02 -0.54302184155E+00 -0.48101099032E+03  0.48158955745E+03  0.00000000000E+00 0. -1.
         -2    1    1    2    0  503 -0.23593095642E+02  0.54302184155E+00 -0.29796515723E+03  0.29889825018E+03  0.00000000000E+00 0.  1.
</event>
<event>
 4    1  0.1727273E+004  0.2276240E+02  0.7546771E-02  0.1495504E+00
         21   -1    0    0  501  502  0.00000000000E+00  0.00000000000E+00  0.26776448770E+01  0.26776448770E+01  0.00000000000E+00 0. -1.
         21   -1    0    0  502  503 -0.00000000000E+00 -0.00000000000E+00 -0.42609146746E+03  0.42609146746E+03  0.00000000000E+00 0.  1.
          2    1    1    2  501    0 -0.37575672857E+01  0.22450107291E+02 -0.53313121783E+02  0.57969091623E+02  0.00000000000E+00 0. -1.
         -2    1    1    2    0  503  0.37575672857E+01 -0.22450107291E+02 -0.37010070080E+03  0.37080002072E+03  0.00000000000E+00 0.  1.
</event>
<event>
 4    1  0.1727273E+004  0.2039211E+02  0.7546771E-02  0.1528124E+00
         21   -1    0    0  501  502  0.00000000000E+00  0.00000000000E+00  0.82047645436E+03  0.82047645436E+03  0.00000000000E+00 0.  1.
         21   -1    0    0  502  503 -0.00000000000E+00 -0.00000000000E+00 -0.15086579384E+01  0.15086579384E+01  0.00000000000E+00 0. -1.
          2    1    1    2  501    0 -0.41959034223E+01  0.19955763463E+02  0.74440012201E+03  0.74467938051E+03  0.00000000000E+00 0.  1.
         -2    1    1    2    0  503  0.41959034223E+01 -0.19955763463E+02  0.74567674406E+02  0.77305731788E+02  0.00000000000E+00 0. -1.
</event>
<event>
 4    1  0.1727273E+004  0.2093229E+02  0.7546771E-02  0.1520234E+00
         21   -1    0    0  501  502  0.00000000000E+00  0.00000000000E+00  0.61716584489E+02  0.61716584489E+02  0.00000000000E+00 0.  1.
         21   -1    0    0  502  503 -0.00000000000E+00 -0.00000000000E+00 -0.74583569305E+01  0.74583569305E+01  0.00000000000E+00 0. -1.
          2    1    1    2  501    0  0.19537267976E+02  0.75137060492E+01  0.19542965155E+02  0.28637180476E+02  0.00000000000E+00 0.  1.
         -2    1    1    2    0  503 -0.19537267976E+02 -0.75137060492E+01  0.34715262403E+02  0.40537760943E+02  0.00000000000E+00 0. -1.
</event>
<event>
 4    1  0.1727273E+004  0.2483298E+02  0.7546771E-02  0.1470681E+00
         21   -1    0    0  503  502  0.00000000000E+00  0.00000000000E+00  0.10095414271E+03  0.10095414271E+03  0.00000000000E+00 0.  1.
         21   -1    0    0  501  503 -0.00000000000E+00 -0.00000000000E+00 -0.11985119183E+02  0.11985119183E+02  0.00000000000E+00 0. -1.
          2    1    1    2  501    0 -0.17335962725E+02  0.17780355593E+02  0.49425529798E+01  0.25320060793E+02  0.00000000000E+00 0. -1.
         -2    1    1    2    0  502  0.17335962725E+02 -0.17780355593E+02  0.84026470548E+02  0.87619201100E+02  0.00000000000E+00 0.  1.
</event>
<event>
 4    1  0.1727273E+004  0.2895414E+02  0.7546771E-02  0.1428908E+00
         21   -1    0    0  503  502  0.00000000000E+00  0.00000000000E+00  0.39412601329E+02  0.39412601329E+02  0.00000000000E+00 0.  1.
         21   -1    0    0  501  503 -0.00000000000E+00 -0.00000000000E+00 -0.25746066001E+02  0.25746066001E+02  0.00000000000E+00 0. -1.
          2    1    1    2  501    0  0.26419259892E+02  0.11847580606E+02  0.20416094186E+02  0.35428228311E+02  0.00000000000E+00 0.  1.
         -2    1    1    2    0  502 -0.26419259892E+02 -0.11847580606E+02 -0.67495588582E+01  0.29730439019E+02  0.00000000000E+00 0. -1.
</event>
<event>
 4    1  0.1727273E+004  0.2714347E+02  0.7546771E-02  0.1446172E+00
         21   -1    0    0  503  502  0.00000000000E+00  0.00000000000E+00  0.13975301207E+03  0.13975301207E+03  0.00000000000E+00 0. -1.
         21   -1    0    0  501  503 -0.00000000000E+00 -0.00000000000E+00 -0.66480934430E+01  0.66480934430E+01  0.00000000000E+00 0.  1.
          2    1    1    2  501    0  0.11505874427E+02  0.24584198817E+02  0.33248110542E+02  0.42920913695E+02  0.00000000000E+00 0.  1.
         -2    1    1    2    0  502 -0.11505874427E+02 -0.24584198817E+02  0.99856808087E+02  0.10348019182E+03  0.00000000000E+00 0. -1.
</event>
<event>
 4    1  0.1727273E+004  0.2350263E+02  0.7546771E-02  0.1486281E+00
         21   -1    0    0  501  502  0.00000000000E+00  0.00000000000E+00  0.65789300632E+02  0.65789300632E+02  0.00000000000E+00 0. -1.
         21   -1    0    0  502  503 -0.00000000000E+00 -0.00000000000E+00 -0.10019887969E+02  0.10019887969E+02  0.00000000000E+00 0.  1.
          2    1    1    2  501    0  0.20363213630E+01 -0.23414251881E+02  0.43143653654E+02  0.49129916003E+02  0.00000000000E+00 0. -1.
         -2    1    1    2    0  503 -0.20363213630E+01  0.23414251881E+02  0.12625759009E+02  0.26679272598E+02  0.00000000000E+00 0.  1.
</event>
<event>
 4    1  0.1727273E+004  0.4452248E+02  0.7546771E-02  0.1323845E+00
         21   -1    0    0  503  502  0.00000000000E+00  0.00000000000E+00  0.39079601328E+02  0.39079601328E+02  0.00000000000E+00 0. -1.
         21   -1    0    0  501  503 -0.00000000000E+00 -0.00000000000E+00 -0.58583809133E+02  0.58583809133E+02  0.00000000000E+00 0.  1.
          2    1    1    2  501    0 -0.36821649537E+02 -0.25028334774E+02 -0.27638994004E+02  0.52403868233E+02  0.00000000000E+00 0.  1.
         -2    1    1    2    0  502  0.36821649537E+02  0.25028334774E+02  0.81347861991E+01  0.45259542228E+02  0.00000000000E+00 0. -1.
</event>
<event>
 4    1  0.1727273E+004  0.4083478E+02  0.7546771E-02  0.1343662E+00
         21   -1    0    0  503  502  0.00000000000E+00  0.00000000000E+00  0.15586232180E+03  0.15586232180E+03  0.00000000000E+00 0.  1.
         21   -1    0    0  501  503 -0.00000000000E+00 -0.00000000000E+00 -0.30906202937E+02  0.30906202937E+02  0.00000000000E+00 0. -1.
          2    1    1    2  501    0  0.23530020220E+02 -0.33373897881E+02 -0.13032956952E+02  0.42864167765E+02  0.00000000000E+00 0. -1.
         -2    1    1    2    0  502 -0.23530020220E+02  0.33373897881E+02  0.13798907582E+03  0.14390435697E+03  0.00000000000E+00 0.  1.
</event>
<event>
 4    1  0.1727273E+004  0.2385465E+02  0.7546771E-02  0.1482036E+00
         21   -1    0    0  501  502  0.00000000000E+00  0.00000000000E+00  0.62325224318E+01  0.62325224318E+01  0.00000000000E+00 0. -1.
         21   -1    0    0  502  503 -0.00000000000E+00 -0.00000000000E+00 -0.15923345452E+03  0.15923345452E+03  0.00000000000E+00 0.  1.
          2    1    1    2  501    0 -0.18504733471E+02 -0.15053878635E+02 -0.22462916552E+02  0.32766248531E+02  0.00000000000E+00 0. -1.
         -2    1    1    2    0  503  0.18504733471E+02  0.15053878635E+02 -0.13053801553E+03  0.13269972842E+03  0.00000000000E+00 0.  1.
</event>
<event>
 4    1  0.1727273E+004  0.2393590E+02  0.7546771E-02  0.1481069E+00
         21   -1    0    0  501  502  0.00000000000E+00  0.00000000000E+00  0.90719175331E+01  0.90719175331E+01  0.00000000000E+00 0.  1.
         21   -1    0    0  502  503 -0.00000000000E+00 -0.00000000000E+00 -0.87571761030E+02  0.87571761030E+02  0.00000000000E+00 0. -1.
          2    1    1    2  501    0 -0.22094914704E+02  0.92055343030E+01 -0.13733775558E+02  0.27596081401E+02  0.00000000000E+00 0.  1.
         -2    1    1    2    0  503  0.22094914704E+02 -0.92055343030E+01 -0.64766067939E+02  0.69047597162E+02  0.00000000000E+00 0. -1.
</event>
<event>
 4    1  0.1727273E+004  0.2652060E+02  0.7546771E-02  0.1452484E+00
         21   -1    0    0  503  502  0.00000000000E+00  0.00000000000E+00  0.64730746153E+01  0.64730746153E+01  0.00000000000E+00 0.  1.
         21   -1    0    0  501  503 -0.00000000000E+00 -0.00000000000E+00 -0.11085855105E+03  0.11085855105E+03  0.00000000000E+00 0. -1.
          2    1    1    2  501    0 -0.26153411374E+02 -0.43978731287E+01 -0.60460830380E+02  0.66021619374E+02  0.00000000000E+00 0. -1.
         -2    1    1    2    0  502  0.26153411374E+02  0.43978731287E+01 -0.43924646052E+02  0.51310006289E+02  0.00000000000E+00 0.  1.
</event>
<event>
 4    1  0.1727273E+004  0.2020635E+02  0.7546771E-02  0.1530904E+00
         21   -1    0    0  503  502  0.00000000000E+00  0.00000000000E+00  0.26634576470E+01  0.26634576470E+01  0.00000000000E+00 0.  1.
         21   -1    0    0  501  503 -0.00000000000E+00 -0.00000000000E+00 -0.34018940227E+03  0.34018940227E+03  0.00000000000E+00 0. -1.
          2    1    1    2  501    0  0.17725918158E+02  0.96999235821E+01 -0.29582467950E+03  0.29651397554E+03  0.00000000000E+00 0. -1.
         -2    1    1    2    0  502 -0.17725918158E+02 -0.96999235821E+01 -0.41701265126E+02  0.46338884376E+02  0.00000000000E+00 0.  1.
</event>
<event>
 4    1  0.1727273E+004  0.3125688E+02  0.7546771E-02  0.1408980E+00
         21   -1    0    0  503  502  0.00000000000E+00  0.00000000000E+00  0.59554441299E+03  0.59554441299E+03  0.00000000000E+00 0. -1.
         21   -1    0    0  501  503 -0.00000000000E+00 -0.00000000000E+00 -0.54642672256E+01  0.54642672256E+01  0.00000000000E+00 0.  1.
          2    1    1    2  501    0  0.83288166525E+01  0.30126790501E+02  0.43660312250E+02  0.53695582299E+02  0.00000000000E+00 0.  1.
         -2    1    1    2    0  502 -0.83288166525E+01 -0.30126790501E+02  0.54641983352E+03  0.54731309792E+03  0.00000000000E+00 0. -1.
</event>
<event>
 4    1  0.1727273E+004  0.2145952E+02  0.7546771E-02  0.1512804E+00
         21   -1    0    0  503  502  0.00000000000E+00  0.00000000000E+00  0.53798064731E+01  0.53798064731E+01  0.00000000000E+00 0. -1.
         21   -1    0    0  501  503 -0.00000000000E+00 -0.00000000000E+00 -0.12234434106E+03  0.12234434106E+03  0.00000000000E+00 0.  1.
          2    1    1    2  501    0  0.21250727668E+02  0.29862103093E+01 -0.93480564600E+02  0.95912078678E+02  0.00000000000E+00 0. -1.
         -2    1    1    2    0  502 -0.21250727668E+02 -0.29862103093E+01 -0.23483969983E+02  0.31812068851E+02  0.00000000000E+00 0.  1.
</event>
<event>
 4    1  0.1727273E+004  0.2314724E+02  0.7546771E-02  0.1490658E+00
         21   -1    0    0  501  502  0.00000000000E+00  0.00000000000E+00  0.17142443949E+02  0.17142443949E+02  0.00000000000E+00 0.  1.
         21   -1    0    0  502  503 -0.00000000000E+00 -0.00000000000E+00 -0.31336780413E+02  0.31336780413E+02  0.00000000000E+00 0. -1.
          2    1    1    2  501    0  0.55777265533E+00 -0.23140515887E+02 -0.83321435444E+01  0.24601203261E+02  0.00000000000E+00 0.  1.
         -2    1    1    2    0  503 -0.55777265533E+00  0.23140515887E+02 -0.58621929192E+01  0.23878021101E+02  0.00000000000E+00 0. -1.
</event>
<event>
 4    1  0.1727273E+004  0.2449739E+02  0.7546771E-02  0.1474505E+00
         21   -1    0    0  501  502  0.00000000000E+00  0.00000000000E+00  0.24429347390E+01  0.24429347390E+01  0.00000000000E+00 0.  1.
         21   -1    0    0  502  503 -0.00000000000E+00 -0.00000000000E+00 -0.42289800121E+03  0.42289800121E+03  0.00000000000E+00 0. -1.
          2    1    1    2  501    0  0.27044225393E+01  0.24347656042E+02 -0.72547059381E+02  0.76571522649E+02  0.00000000000E+00 0.  1.
         -2    1    1    2    0  503 -0.27044225393E+01 -0.24347656042E+02 -0.34790800709E+03  0.34876941330E+03  0.00000000000E+00 0. -1.
</event>
<event>
 4    1  0.1727273E+004  0.2041166E+02  0.7546771E-02  0.1527833E+00
         21   -1    0    0  501  502  0.00000000000E+00  0.00000000000E+00  0.35555243803E+02  0.35555243803E+02  0.00000000000E+00 0. -1.
         21   -1    0    0  502  503 -0.00000000000E+00 -0.00000000000E+00 -0.62463685327E+02  0.62463685327E+02  0.00000000000E+00 0.  1.
          2    1    1    2  501    0 -0.18493840919E+02  0.86379134833E+01  0.30719684421E+02  0.36882715629E+02  0.00000000000E+00 0. -1.
         -2    1    1    2    0  503  0.18493840919E+02 -0.86379134833E+01 -0.57628125945E+02  0.61136213500E+02  0.00000000000E+00 0.  1.
</event>
<event>
 4    1  0.1727273E+004  0.2203977E+02  0.7546771E-02  0.1504921E+00
         21   -1    0    0  501  502  0.00000000000E+00  0.00000000000E+00  0.86348000763E+00  0.86348000763E+00  0.00000000000E+00 0. -1.
         21   -1    0    0  502  503 -0.00000000000E+00 -0.00000000000E+00 -0.76244344643E+03  0.76244344643E+03  0.00000000000E+00 0.  1.
          2    1    1    2  501    0  0.86981503076E+01 -0.20250765422E+02 -0.57620766709E+03  0.57662902019E+03  0.00000000000E+00 0.  1.
         -2    1    1    2    0  503 -0.86981503076E+01  0.20250765422E+02 -0.18537229933E+03  0.18667790624E+03  0.00000000000E+00 0. -1.
</event>
<event>
 4    1  0.1727273E+004  0.2545942E+02  0.7546771E-02  0.1463729E+00
         21   -1    0    0  501  502  0.00000000000E+00  0.00000000000E+00  0.12043657872E+02  0.12043657872E+02  0.00000000000E+00 0. -1.
         21   -1    0    0  502  503 -0.00000000000E+00 -0.00000000000E+00 -0.94187642280E+02  0.94187642280E+02  0.00000000000E+00 0.  1.
          2    1    1    2  501    0 -0.24873174854E+02 -0.54320693411E+01 -0.62987197406E+01  0.26227010410E+02  0.00000000000E+00 0. -1.
         -2    1    1    2    0  503  0.24873174854E+02  0.54320693411E+01 -0.75845264667E+02  0.80004289742E+02  0.00000000000E+00 0.  1.
</event>
<event>
 4    1  0.1727273E+004  0.3628367E+02  0.7546771E-02  0.1371756E+00
         21   -1    0    0  503  502  0.00000000000E+00  0.00000000000E+00  0.24545370893E+02  0.24545370893E+02  0.00000000000E+00 0. -1.
         21   -1    0    0  501  503 -0.00000000000E+00 -0.00000000000E+00 -0.16888721716E+03  0.16888721716E+03  0.00000000000E+00 0.  1.
          2    1    1    2  501    0  0.35439291119E+02  0.77821172185E+01 -0.15206688823E+03  0.15633567475E+03  0.00000000000E+00 0.  1.
         -2    1    1    2    0  502 -0.35439291119E+02 -0.77821172185E+01  0.77250419622E+01  0.37096913304E+02  0.00000000000E+00 0. -1.
</event>
<event>
 4    1  0.1727273E+004  0.4502475E+02  0.7546771E-02  0.1321316E+00
         21   -1    0    0  503  502  0.00000000000E+00  0.00000000000E+00  0.98805120782E+01  0.98805120782E+01  0.00000000000E+00 0.  1.
         21   -1    0    0  501  503 -0.00000000000E+00 -0.00000000000E+00 -0.30198199563E+03  0.30198199563E+03  0.00000000000E+00 0. -1.
          2    1    1    2  501    0  0.45024082926E+02  0.24557398642E+00 -0.23433785453E+03  0.23862409437E+03  0.00000000000E+00 0. -1.
         -2    1    1    2    0  502 -0.45024082926E+02 -0.24557398642E+00 -0.57763629017E+02  0.73238413330E+02  0.00000000000E+00 0.  1.
</event>
<event>
 4    1  0.1727273E+004  0.2651272E+02  0.7546771E-02  0.1452565E+00
         21   -1    0    0  501  502  0.00000000000E+00  0.00000000000E+00  0.15362521955E+02  0.15362521955E+02  0.00000000000E+00 0. -1.
         21   -1    0    0  502  503 -0.00000000000E+00 -0.00000000000E+00 -0.52476126793E+02  0.52476126793E+02  0.00000000000E+00 0.  1.
          2    1    1    2  501    0 -0.25895536021E+02  0.56872941863E+01 -0.64183783946E+01  0.27278557187E+02  0.00000000000E+00 0. -1.
         -2    1    1    2    0  503  0.25895536021E+02 -0.56872941863E+01 -0.30695226444E+02  0.40560091561E+02  0.00000000000E+00 0.  1.
</event>
<event>
 4    1  0.1727273E+004  0.2832247E+02  0.7546771E-02  0.1434758E+00
         21   -1    0    0  503  502  0.00000000000E+00  0.00000000000E+00  0.23610829603E+03  0.23610829603E+03  0.00000000000E+00 0.  1.
         21   -1    0    0  501  503 -0.00000000000E+00 -0.00000000000E+00 -0.36334604975E+02  0.36334604975E+02  0.00000000000E+00 0. -1.
          2    1    1    2  501    0 -0.27834836835E+02 -0.52329759056E+01 -0.29809706596E+02  0.41119104876E+02  0.00000000000E+00 0. -1.
         -2    1    1    2    0  502  0.27834836835E+02  0.52329759056E+01  0.22958339765E+03  0.23132379612E+03  0.00000000000E+00 0.  1.
</event>
<event>
 4    1  0.1727273E+004  0.2374232E+02  0.7546771E-02  0.1483381E+00
         21   -1    0    0  501  502  0.00000000000E+00  0.00000000000E+00  0.36491099815E+01  0.36491099815E+01  0.00000000000E+00 0.  1.
         21   -1    0    0  502  503 -0.00000000000E+00 -0.00000000000E+00 -0.17330568586E+03  0.17330568586E+03  0.00000000000E+00 0. -1.
          2    1    1    2  501    0 -0.76945426809E+01 -0.22460889046E+02 -0.55663755029E+02  0.60515709925E+02  0.00000000000E+00 0.  1.
         -2    1    1    2    0  503  0.76945426809E+01  0.22460889046E+02 -0.11399282085E+03  0.11643908592E+03  0.00000000000E+00 0. -1.
</event>
<event>
 4    1  0.1727273E+004  0.3044817E+02  0.7546771E-02  0.1415741E+00
         21   -1    0    0  503  502  0.00000000000E+00  0.00000000000E+00  0.28878203443E+01  0.28878203443E+01  0.00000000000E+00 0. -1.
         21   -1    0    0  501  503 -0.00000000000E+00 -0.00000000000E+00 -0.33918346587E+03  0.33918346587E+03  0.00000000000E+00 0.  1.
          2    1    1    2  501    0  0.26568232129E+02  0.14873468124E+02 -0.20771097352E+03  0.20993079701E+03  0.00000000000E+00 0. -1.
         -2    1    1    2    0  502 -0.26568232129E+02 -0.14873468124E+02 -0.12858467201E+03  0.13214048921E+03  0.00000000000E+00 0.  1.
</event>
<event>
 4    1  0.1727273E+004  0.4395319E+02  0.7546771E-02  0.1326757E+00
         21   -1    0    0  503  502  0.00000000000E+00  0.00000000000E+00  0.20771791688E+03  0.20771791688E+03  0.00000000000E+00 0. -1.
         21   -1    0    0  501  503 -0.00000000000E+00 -0.00000000000E+00 -0.27437840668E+02  0.27437840668E+02  0.00000000000E+00 0.  1.
          2    1    1    2  501    0 -0.37808396778E+02  0.22414463458E+02 -0.54554321404E+01  0.44290459231E+02  0.00000000000E+00 0.  1.
         -2    1    1    2    0  502  0.37808396778E+02 -0.22414463458E+02  0.18573550836E+03  0.19086529832E+03  0.00000000000E+00 0. -1.
</event>
<event>
 4    1  0.1727273E+004  0.2585243E+02  0.7546771E-02  0.1459489E+00
         21   -1    0    0  503  502  0.00000000000E+00  0.00000000000E+00  0.18569206386E+02  0.18569206386E+02  0.00000000000E+00 0.  1.
         21   -1    0    0  501  503 -0.00000000000E+00 -0.00000000000E+00 -0.80438020514E+02  0.80438020514E+02  0.00000000000E+00 0. -1.
          2    1    1    2  501    0  0.17344464367E+02  0.19170747003E+02 -0.67732160971E+02  0.72498231804E+02  0.00000000000E+00 0. -1.
         -2    1    1    2    0  502 -0.17344464367E+02 -0.19170747003E+02  0.58633468437E+01  0.26508995097E+02  0.00000000000E+00 0.  1.
</event>
<event>
 4    1  0.1727273E+004  0.2351262E+02  0.7546771E-02  0.1486159E+00
         21   -1    0    0  503  502  0.00000000000E+00  0.00000000000E+00  0.16014097413E+01  0.16014097413E+01  0.00000000000E+00 0.  1.
         21   -1    0    0  501  503 -0.00000000000E+00 -0.00000000000E+00 -0.41485301538E+03  0.41485301538E+03  0.00000000000E+00 0. -1.
          2    1    1    2  501    0 -0.16191171797E+01 -0.23456811039E+02 -0.29193355707E+03  0.29287889181E+03  0.00000000000E+00 0. -1.
         -2    1    1    2    0  502  0.16191171797E+01  0.23456811039E+02 -0.12131804858E+03  0.12357553332E+03  0.00000000000E+00 0.  1.
</event>
<event>
 4    1  0.1727273E+004  0.2292671E+02  0.7546771E-02  0.1493420E+00
         21   -1    0    0  503  502  0.00000000000E+00  0.00000000000E+00  0.15482127581E+02  0.15482127581E+02  0.00000000000E+00 0. -1.
         21   -1    0    0  501  503 -0.00000000000E+00 -0.00000000000E+00 -0.33974363902E+02  0.33974363902E+02  0.00000000000E+00 0.  1.
          2    1    1    2  501    0  0.73260465608E+01  0.21724712279E+02 -0.85979777271E+01  0.24485900082E+02  0.00000000000E+00 0.  1.
         -2    1    1    2    0  502 -0.73260465608E+01 -0.21724712279E+02 -0.98942585944E+01  0.24970591401E+02  0.00000000000E+00 0. -1.
</event>
<event>
 4    1  0.1727273E+004  0.2045160E+02  0.7546771E-02  0.1527240E+00
         21   -1    0    0  501  502  0.00000000000E+00  0.00000000000E+00  0.47586151085E+01  0.47586151085E+01  0.00000000000E+00 0. -1.
         21   -1    0    0  502  503 -0.00000000000E+00 -0.00000000000E+00 -0.10937498119E+03  0.10937498119E+03  0.00000000000E+00 0.  1.
          2    1    1    2  501    0 -0.62564702962E+01 -0.19471125194E+02 -0.27019807518E+02  0.33887138197E+02  0.00000000000E+00 0. -1.
         -2    1    1    2    0  503  0.62564702962E+01  0.19471125194E+02 -0.77596558561E+02  0.80246458099E+02  0.00000000000E+00 0.  1.
</event>
<event>
 4    1  0.1727273E+004  0.2127823E+02  0.7546771E-02  0.1515329E+00
         21   -1    0    0  503  502  0.00000000000E+00  0.00000000000E+00  0.28318723604E+02  0.28318723604E+02  0.00000000000E+00 0.  1.
         21   -1    0    0  501  503 -0.00000000000E+00 -0.00000000000E+00 -0.17598548170E+02  0.17598548170E+02  0.00000000000E+00 0. -1.
          2    1    1    2  501    0  0.20969529222E+02 -0.36113793216E+01 -0.15850046967E+01  0.21337184825E+02  0.00000000000E+00 0. -1.
         -2    1    1    2    0  502 -0.20969529222E+02  0.36113793216E+01  0.12305180130E+02  0.24580086949E+02  0.00000000000E+00 0.  1.
</event>
<event>
 4    1  0.1727273E+004  0.5133350E+02  0.7546771E-02  0.1292492E+00
         21   -1    0    0  503  502  0.00000000000E+00  0.00000000000E+00  0.12672204181E+02  0.12672204181E+02  0.00000000000E+00 0. -1.
         21   -1    0    0  501  503 -0.00000000000E+00 -0.00000000000E+00 -0.43843907525E+03  0.43843907525E+03  0.00000000000E+00 0.  1.
          2    1    1    2  501    0  0.23496213086E+02 -0.45640511295E+02 -0.37642511055E+03  0.37990918935E+03  0.00000000000E+00 0.  1.
         -2    1    1    2    0  502 -0.23496213086E+02  0.45640511295E+02 -0.49341760519E+02  0.71202090080E+02  0.00000000000E+00 0. -1.
</event>
<event>
 4    1  0.1727273E+004  0.2261671E+02  0.7546771E-02  0.1497368E+00
         21   -1    0    0  501  502  0.00000000000E+00  0.00000000000E+00  0.10902598891E+03  0.10902598891E+03  0.00000000000E+00 0. -1.
         21   -1    0    0  502  503 -0.00000000000E+00 -0.00000000000E+00 -0.17797651058E+02  0.17797651058E+02  0.00000000000E+00 0.  1.
          2    1    1    2  501    0  0.10633594462E+02 -0.19961020501E+02  0.10002976395E+03  0.10255471392E+03  0.00000000000E+00 0. -1.
         -2    1    1    2    0  503 -0.10633594462E+02  0.19961020501E+02 -0.88014260929E+01  0.24268926056E+02  0.00000000000E+00 0.  1.
</event>
<event>
 4    1  0.1727273E+004  0.2490459E+02  0.7546771E-02  0.1469874E+00
         21   -1    0    0  503  502  0.00000000000E+00  0.00000000000E+00  0.76901429964E+02  0.76901429964E+02  0.00000000000E+00 0. -1.
         21   -1    0    0  501  503 -0.00000000000E+00 -0.00000000000E+00 -0.13581293562E+02  0.13581293562E+02  0.00000000000E+00 0.  1.
          2    1    1    2  501    0 -0.46731797676E+01 -0.24462216544E+02  0.28281101489E+01  0.25064653486E+02  0.00000000000E+00 0.  1.
         -2    1    1    2    0  502  0.46731797676E+01  0.24462216544E+02  0.60492026254E+02  0.65418070039E+02  0.00000000000E+00 0. -1.
</event>
<event>
 4    1  0.1727273E+004  0.2116661E+02  0.7546771E-02  0.1516899E+00
         21   -1    0    0  503  502  0.00000000000E+00  0.00000000000E+00  0.36133981971E+01  0.36133981971E+01  0.00000000000E+00 0.  1.
         21   -1    0    0  501  503 -0.00000000000E+00 -0.00000000000E+00 -0.57245728524E+03  0.57245728524E+03  0.00000000000E+00 0. -1.
          2    1    1    2  501    0 -0.20657486865E+02  0.46144994788E+01 -0.53936289489E+03  0.53977806343E+03  0.00000000000E+00 0. -1.
         -2    1    1    2    0  502  0.20657486865E+02 -0.46144994788E+01 -0.29480992144E+02  0.36292620005E+02  0.00000000000E+00 0.  1.
</event>
<event>
 4    1  0.1727273E+004  0.3844116E+02  0.7546771E-02  0.1357871E+00
         21   -1    0    0  501  502  0.00000000000E+00  0.00000000000E+00  0.74999222457E+01  0.74999222457E+01  0.00000000000E+00 0. -1.
         21   -1    0    0  502  503 -0.00000000000E+00 -0.00000000000E+00 -0.19815873591E+03  0.19815873591E+03  0.00000000000E+00 0.  1.
          2    1    1    2  501    0 -0.12114570234E+02  0.36482319008E+02 -0.87574443919E+02  0.95639979297E+02  0.00000000000E+00 0.  1.
         -2    1    1    2    0  503  0.12114570234E+02 -0.36482319008E+02 -0.10308436975E+03  0.11001867886E+03  0.00000000000E+00 0. -1.
</event>
<event>
 4    1  0.1727273E+004  0.2580514E+02  0.7546771E-02  0.1459994E+00
         21   -1    0    0  503  502  0.00000000000E+00  0.00000000000E+00  0.10242106012E+02  0.10242106012E+02  0.00000000000E+00 0.  1.
         21   -1    0    0  501  503 -0.00000000000E+00 -0.00000000000E+00 -0.16252001197E+03  0.16252001197E+03  0.00000000000E+00 0. -1.
          2    1    1    2  501    0 -0.13665091093E+02 -0.21889967525E+02 -0.14304653539E+03  0.14535548384E+03  0.00000000000E+00 0. -1.
         -2    1    1    2    0  502  0.13665091093E+02  0.21889967525E+02 -0.92313705666E+01  0.27406634149E+02  0.00000000000E+00 0.  1.
</event>
<event>
 4    1  0.1727273E+004  0.2484609E+02  0.7546771E-02  0.1470533E+00
         21   -1    0    0  501  502  0.00000000000E+00  0.00000000000E+00  0.98570648254E+00  0.98570648254E+00  0.00000000000E+00 0. -1.
         21   -1    0    0  502  503 -0.00000000000E+00 -0.00000000000E+00 -0.63211039779E+03  0.63211039779E+03  0.00000000000E+00 0.  1.
          2    1    1    2  501    0  0.24681572312E+02  0.28544944815E+01 -0.28516075883E+03  0.28624113354E+03  0.00000000000E+00 0. -1.
         -2    1    1    2    0  503 -0.24681572312E+02 -0.28544944815E+01 -0.34596393248E+03  0.34685497074E+03  0.00000000000E+00 0.  1.
</event>
<event>
 4    1  0.1727273E+004  0.2442541E+02  0.7546771E-02  0.1475335E+00
         21   -1    0    0  503  502  0.00000000000E+00  0.00000000000E+00  0.81892616805E+03  0.81892616805E+03  0.00000000000E+00 0. -1.
         21   -1    0    0  501  503 -0.00000000000E+00 -0.00000000000E+00 -0.95111224166E+00  0.95111224166E+00  0.00000000000E+00 0.  1.
          2    1    1    2  501    0 -0.18818689895E+02 -0.15571052010E+02  0.21066960604E+03  0.21208084227E+03  0.00000000000E+00 0.  1.
         -2    1    1    2    0  502  0.18818689895E+02  0.15571052010E+02  0.60730544977E+03  0.60779643802E+03  0.00000000000E+00 0. -1.
</event>
<event>
 4    1  0.1727273E+004  0.2596866E+02  0.7546771E-02  0.1458253E+00
         21   -1    0    0  501  502  0.00000000000E+00  0.00000000000E+00  0.84896625445E+01  0.84896625445E+01  0.00000000000E+00 0. -1.
         21   -1    0    0  502  503 -0.00000000000E+00 -0.00000000000E+00 -0.22659606415E+03  0.22659606415E+03  0.00000000000E+00 0.  1.
          2    1    1    2  501    0 -0.55468848994E+01  0.25369336732E+02 -0.14327583845E+02  0.29658908226E+02  0.00000000000E+00 0. -1.
         -2    1    1    2    0  503  0.55468848994E+01 -0.25369336732E+02 -0.20377881776E+03  0.20542681847E+03  0.00000000000E+00 0.  1.
</event>
<event>
 4    1  0.1727273E+004  0.2926064E+02  0.7546771E-02  0.1426132E+00
         21   -1    0    0  503  502  0.00000000000E+00  0.00000000000E+00  0.54595638637E+02  0.54595638637E+02  0.00000000000E+00 0. -1.
         21   -1    0    0  501  503 -0.00000000000E+00 -0.00000000000E+00 -0.16936846336E+02  0.16936846336E+02  0.00000000000E+00 0.  1.
          2    1    1    2  501    0  0.18415538413E+01  0.29202629823E+02  0.90951736949E+01  0.30641590913E+02  0.00000000000E+00 0.  1.
         -2    1    1    2    0  502 -0.18415538413E+01 -0.29202629823E+02  0.28563618605E+02  0.40890894060E+02  0.00000000000E+00 0. -1.
</event>
<event>
 4    1  0.1727273E+004  0.2584801E+02  0.7546771E-02  0.1459536E+00
         21   -1    0    0  501  502  0.00000000000E+00  0.00000000000E+00  0.85939145773E+02  0.85939145773E+02  0.00000000000E+00 0.  1.
         21   -1    0    0  502  503 -0.00000000000E+00 -0.00000000000E+00 -0.25654830570E+02  0.25654830570E+02  0.00000000000E+00 0. -1.
          2    1    1    2  501    0 -0.19531533306E+02 -0.16930408154E+02  0.76723927415E+02  0.80960981661E+02  0.00000000000E+00 0.  1.
         -2    1    1    2    0  503  0.19531533306E+02  0.16930408154E+02 -0.16439612212E+02  0.30632994682E+02  0.00000000000E+00 0. -1.
</event>
<event>
 4    1  0.1727273E+004  0.2075937E+02  0.7546771E-02  0.1522728E+00
         21   -1    0    0  501  502  0.00000000000E+00  0.00000000000E+00  0.24237325045E+02  0.24237325045E+02  0.00000000000E+00 0.  1.
         21   -1    0    0  502  503 -0.00000000000E+00 -0.00000000000E+00 -0.39320730249E+02  0.39320730249E+02  0.00000000000E+00 0. -1.
          2    1    1    2  501    0 -0.20017152205E+02  0.55013584714E+01  0.15979264102E+02  0.26197103059E+02  0.00000000000E+00 0.  1.
         -2    1    1    2    0  503  0.20017152205E+02 -0.55013584714E+01 -0.31062669306E+02  0.37360952235E+02  0.00000000000E+00 0. -1.
</event>
<event>
 4    1  0.1727273E+004  0.3462571E+02  0.7546771E-02  0.1383214E+00
         21   -1    0    0  503  502  0.00000000000E+00  0.00000000000E+00  0.60746480432E+02  0.60746480432E+02  0.00000000000E+00 0. -1.
         21   -1    0    0  501  503 -0.00000000000E+00 -0.00000000000E+00 -0.55264060910E+02  0.55264060910E+02  0.00000000000E+00 0.  1.
          2    1    1    2  501    0  0.29764313205E+02 -0.17692533816E+02 -0.43766722146E+02  0.55807401487E+02  0.00000000000E+00 0.  1.
         -2    1    1    2    0  502 -0.29764313205E+02  0.17692533816E+02  0.49249141668E+02  0.60203139855E+02  0.00000000000E+00 0. -1.
</event>
<event>
 4    1  0.1727273E+004  0.2160609E+02  0.7546771E-02  0.1510785E+00
         21   -1    0    0  501  502  0.00000000000E+00  0.00000000000E+00  0.13321023966E+03  0.13321023966E+03  0.00000000000E+00 0. -1.
         21   -1    0    0  502  503 -0.00000000000E+00 -0.00000000000E+00 -0.10525189113E+02  0.10525189113E+02  0.00000000000E+00 0.  1.
          2    1    1    2  501    0 -0.21170899883E+02 -0.43146374165E+01  0.12003894073E+03  0.12196790721E+03  0.00000000000E+00 0. -1.
         -2    1    1    2    0  503  0.21170899883E+02  0.43146374165E+01  0.26461098209E+01  0.21767521565E+02  0.00000000000E+00 0.  1.
</event>
<event>
 4    1  0.1727273E+004  0.5477057E+02  0.7546771E-02  0.1278716E+00
         21   -1    0    0  503  502  0.00000000000E+00  0.00000000000E+00  0.70277013916E+01  0.70277013916E+01  0.00000000000E+00 0. -1.
         21   -1    0    0  501  503 -0.00000000000E+00 -0.00000000000E+00 -0.58832462147E+03  0.58832462147E+03  0.00000000000E+00 0.  1.
          2    1    1    2  501    0  0.13502085577E+02 -0.53080216737E+02 -0.44659644340E+03  0.44994243963E+03  0.00000000000E+00 0.  1.
         -2    1    1    2    0  502 -0.13502085577E+02  0.53080216737E+02 -0.13470047668E+03  0.14540988324E+03  0.00000000000E+00 0. -1.
</event>
<event>
 4    1  0.1727273E+004  0.2132544E+02  0.7546771E-02  0.1514669E+00
         21   -1    0    0  503  502  0.00000000000E+00  0.00000000000E+00  0.36421841756E+01  0.36421841756E+01  0.00000000000E+00 0. -1.
         21   -1    0    0  501  503 -0.00000000000E+00 -0.00000000000E+00 -0.15214460979E+03  0.15214460979E+03  0.00000000000E+00 0.  1.
          2    1    1    2  501    0 -0.13438616160E+02  0.16558322571E+02 -0.10723545143E+03  0.10933533964E+03  0.00000000000E+00 0.  1.
         -2    1    1    2    0  502  0.13438616160E+02 -0.16558322571E+02 -0.41266974182E+02  0.46451454324E+02  0.00000000000E+00 0. -1.
</event>
<event>
 4    1  0.1727273E+004  0.2531623E+02  0.7546771E-02  0.1465297E+00
         21   -1    0    0  501  502  0.00000000000E+00  0.00000000000E+00  0.20351296723E+02  0.20351296723E+02  0.00000000000E+00 0. -1.
         21   -1    0    0  502  503 -0.00000000000E+00 -0.00000000000E+00 -0.43991999138E+02  0.43991999138E+02  0.00000000000E+00 0.  1.
          2    1    1    2  501    0 -0.14846861577E+02 -0.20505659981E+02  0.53284718448E+01  0.25870910346E+02  0.00000000000E+00 0. -1.
         -2    1    1    2    0  503  0.14846861577E+02  0.20505659981E+02 -0.28969174260E+02  0.38472385515E+02  0.00000000000E+00 0.  1.
</event>
<event>
 4    1  0.1727273E+004  0.2441102E+02  0.7546771E-02  0.1475501E+00
         21   -1    0    0  503  502  0.00000000000E+00  0.00000000000E+00  0.36736420677E+02  0.36736420677E+02  0.00000000000E+00 0.  1.
         21   -1    0    0  501  503 -0.00000000000E+00 -0.00000000000E+00 -0.16305850224E+02  0.16305850224E+02  0.00000000000E+00 0. -1.
          2    1    1    2  501    0  0.49422460102E+01 -0.23905486374E+02  0.83010998729E+01  0.25783838611E+02  0.00000000000E+00 0.  1.
         -2    1    1    2    0  502 -0.49422460102E+01  0.23905486374E+02  0.12129470580E+02  0.27258432291E+02  0.00000000000E+00 0. -1.
</event>
<event>
 4    1  0.1727273E+004  0.3034382E+02  0.7546771E-02  0.1416632E+00
         21   -1    0    0  503  502  0.00000000000E+00  0.00000000000E+00  0.58129591876E+01  0.58129591876E+01  0.00000000000E+00 0.  1.
         21   -1    0    0  501  503 -0.00000000000E+00 -0.00000000000E+00 -0.28675599174E+03  0.28675599174E+03  0.00000000000E+00 0. -1.
          2    1    1    2  501    0 -0.23047403076E+02  0.19737386254E+02 -0.23834329733E+03  0.24026709010E+03  0.00000000000E+00 0. -1.
         -2    1    1    2    0  502  0.23047403076E+02 -0.19737386254E+02 -0.42599735227E+02  0.52301860828E+02  0.00000000000E+00 0.  1.
</event>
<event>
 4    1  0.1727273E+004  0.3595098E+02  0.7546771E-02  0.1373998E+00
         21   -1    0    0  503  502  0.00000000000E+00  0.00000000000E+00  0.15733218120E+03  0.15733218120E+03  0.00000000000E+00 0. -1.
         21   -1    0    0  501  503 -0.00000000000E+00 -0.00000000000E+00 -0.93727156111E+01  0.93727156111E+01  0.00000000000E+00 0.  1.
          2    1    1    2  501    0 -0.31708770112E+02 -0.16941870620E+02  0.44684331935E+02  0.57351221457E+02  0.00000000000E+00 0. -1.
         -2    1    1    2    0  502  0.31708770112E+02  0.16941870620E+02  0.10327513365E+03  0.10935367535E+03  0.00000000000E+00 0.  1.
</event>
<event>
 4    1  0.1727273E+004  0.2259987E+02  0.7546771E-02  0.1497585E+00
         21   -1    0    0  501  502  0.00000000000E+00  0.00000000000E+00  0.84321807052E+03  0.84321807052E+03  0.00000000000E+00 0.  1.
         21   -1    0    0  502  503 -0.00000000000E+00 -0.00000000000E+00 -0.60736817526E+00  0.60736817526E+00  0.00000000000E+00 0. -1.
          2    1    1    2  501    0  0.17826376433E+01  0.22529459034E+02  0.44328171551E+03  0.44385744741E+03  0.00000000000E+00 0. -1.
         -2    1    1    2    0  503 -0.17826376433E+01 -0.22529459034E+02  0.39932898684E+03  0.39996799128E+03  0.00000000000E+00 0.  1.
</event>
<event>
 4    1  0.1727273E+004  0.3998919E+02  0.7546771E-02  0.1348549E+00
         21   -1    0    0  501  502  0.00000000000E+00  0.00000000000E+00  0.72256556811E+01  0.72256556811E+01  0.00000000000E+00 0.  1.
         21   -1    0    0  502  503 -0.00000000000E+00 -0.00000000000E+00 -0.24020620559E+03  0.24020620559E+03  0.00000000000E+00 0. -1.
          2    1    1    2  501    0 -0.52274326775E+00  0.39985774389E+02 -0.81794214082E+02  0.91046300701E+02  0.00000000000E+00 0.  1.
         -2    1    1    2    0  503  0.52274326775E+00 -0.39985774389E+02 -0.15118633583E+03  0.15638556057E+03  0.00000000000E+00 0. -1.
</event>
<event>
 4    1  0.1727273E+004  0.2304408E+02  0.7546771E-02  0.1491945E+00
         21   -1    0    0  501  502  0.00000000000E+00  0.00000000000E+00  0.95373207095E+02  0.95373207095E+02  0.00000000000E+00 0.  1.
         21   -1    0    0  502  503 -0.00000000000E+00 -0.00000000000E+00 -0.68457076862E+01  0.68457076862E+01  0.00000000000E+00 0. -1.
          2    1    1    2  501    0  0.97596378181E+01 -0.20875325368E+02  0.22182553420E+02  0.31985862749E+02  0.00000000000E+00 0. -1.
         -2    1    1    2    0  503 -0.97596378181E+01  0.20875325368E+02  0.66344945989E+02  0.70233052033E+02  0.00000000000E+00 0.  1.
</event>
<event>
 4    1  0.1727273E+004  0.2127095E+02  0.7546771E-02  0.1515431E+00
         21   -1    0    0  501  502  0.00000000000E+00  0.00000000000E+00  0.38613736154E+02  0.38613736154E+02  0.00000000000E+00 0.  1.
         21   -1    0    0  502  503 -0.00000000000E+00 -0.00000000000E+00 -0.19252416626E+02  0.19252416626E+02  0.00000000000E+00 0. -1.
          2    1    1    2  501    0  0.10176637613E+02  0.18678576830E+02  0.27781288164E+02  0.34989329195E+02  0.00000000000E+00 0.  1.
         -2    1    1    2    0  503 -0.10176637613E+02 -0.18678576830E+02 -0.84199686357E+01  0.22876823584E+02  0.00000000000E+00 0. -1.
</event>
<event>
 4    1  0.1727273E+004  0.2417495E+02  0.7546771E-02  0.1478249E+00
         21   -1    0    0  503  502  0.00000000000E+00  0.00000000000E+00  0.38551696351E+01  0.38551696351E+01  0.00000000000E+00 0. -1.
         21   -1    0    0  501  503 -0.00000000000E+00 -0.00000000000E+00 -0.19019298890E+03  0.19019298890E+03  0.00000000000E+00 0.  1.
          2    1    1    2  501    0 -0.23103175565E+02  0.71184035760E+01 -0.49461119134E+02  0.55052980815E+02  0.00000000000E+00 0. -1.
         -2    1    1    2    0  502  0.23103175565E+02 -0.71184035760E+01 -0.13687670013E+03  0.13899517772E+03  0.00000000000E+00 0.  1.
</event>
<event>
 4    1  0.1727273E+004  0.3719307E+02  0.7546771E-02  0.1365769E+00
         21   -1    0    0  501  502  0.00000000000E+00  0.00000000000E+00  0.39922677099E+02  0.39922677099E+02  0.00000000000E+00 0. -1.
         21   -1    0    0  502  503 -0.00000000000E+00 -0.00000000000E+00 -0.76165852039E+02  0.76165852039E+02  0.00000000000E+00 0.  1.
          2    1    1    2  501    0  0.13212077443E+02  0.34767302249E+02  0.24731851071E+02  0.44665296971E+02  0.00000000000E+00 0. -1.
         -2    1    1    2    0  503 -0.13212077443E+02 -0.34767302249E+02 -0.60975026012E+02  0.71423232167E+02  0.00000000000E+00 0.  1.
</event>
<event>
 4    1  0.1727273E+004  0.2093738E+02  0.7546771E-02  0.1520161E+00
         21   -1    0    0  503  502  0.00000000000E+00  0.00000000000E+00  0.79860499538E+01  0.79860499538E+01  0.00000000000E+00 0. -1.
         21   -1    0    0  501  503 -0.00000000000E+00 -0.00000000000E+00 -0.73604567159E+02  0.73604567159E+02  0.00000000000E+00 0.  1.
          2    1    1    2  501    0  0.10603621993E+02 -0.18053723002E+02 -0.53378558002E+02  0.57337981897E+02  0.00000000000E+00 0.  1.
         -2    1    1    2    0  502 -0.10603621993E+02  0.18053723002E+02 -0.12239959203E+02  0.24252635216E+02  0.00000000000E+00 0. -1.
</event>
<event>
 4    1  0.1727273E+004  0.6999346E+02  0.7546771E-02  0.1229202E+00
         21   -1    0    0  503  502  0.00000000000E+00  0.00000000000E+00  0.62912191321E+03  0.62912191321E+03  0.00000000000E+00 0.  1.
         21   -1    0    0  501  503 -0.00000000000E+00 -0.00000000000E+00 -0.20829489396E+02  0.20829489396E+02  0.00000000000E+00 0. -1.
          2    1    1    2  501    0  0.78219922260E+01  0.69555025071E+02  0.46994843165E+02  0.84306585502E+02  0.00000000000E+00 0. -1.
         -2    1    1    2    0  502 -0.78219922260E+01 -0.69555025071E+02  0.56129758065E+03  0.56564481710E+03  0.00000000000E+00 0.  1.
</event>
<event>
 4    1  0.1727273E+004  0.4120911E+02  0.7546771E-02  0.1341543E+00
         21   -1    0    0  501  502  0.00000000000E+00  0.00000000000E+00  0.86010164951E+01  0.86010164951E+01  0.00000000000E+00 0. -1.
         21   -1    0    0  502  503 -0.00000000000E+00 -0.00000000000E+00 -0.19777350569E+03  0.19777350569E+03  0.00000000000E+00 0.  1.
          2    1    1    2  501    0  0.37479549218E+02  0.17131083388E+02 -0.98819205128E+02  0.10706738967E+03  0.00000000000E+00 0. -1.
         -2    1    1    2    0  503 -0.37479549218E+02 -0.17131083388E+02 -0.90353284066E+02  0.99307132519E+02  0.00000000000E+00 0.  1.
</event>
<event>
 4    1  0.1727273E+004  0.6123174E+02  0.7546771E-02  0.1255704E+00
         21   -1    0    0  503  502  0.00000000000E+00  0.00000000000E+00  0.69763207461E+03  0.69763207461E+03  0.00000000000E+00 0. -1.
         21   -1    0    0  501  503 -0.00000000000E+00 -0.00000000000E+00 -0.14734112300E+02  0.14734112300E+02  0.00000000000E+00 0.  1.
          2    1    1    2  501    0 -0.58179375615E+02  0.19091514125E+02  0.57563292029E+02  0.84040812989E+02  0.00000000000E+00 0.  1.
         -2    1    1    2    0  502  0.58179375615E+02 -0.19091514125E+02  0.62533467028E+03  0.62832537392E+03  0.00000000000E+00 0. -1.
</event>
<event>
 4    1  0.1727273E+004  0.2025281E+02  0.7546771E-02  0.1530206E+00
         21   -1    0    0  501  502  0.00000000000E+00  0.00000000000E+00  0.12699817127E+03  0.12699817127E+03  0.00000000000E+00 0. -1.
         21   -1    0    0  502  503 -0.00000000000E+00 -0.00000000000E+00 -0.49065934597E+01  0.49065934597E+01  0.00000000000E+00 0.  1.
          2    1    1    2  501    0  0.13483841993E+02 -0.15111657943E+02  0.99600972701E+02  0.10163921469E+03  0.00000000000E+00 0. -1.
         -2    1    1    2    0  503 -0.13483841993E+02  0.15111657943E+02  0.22490605105E+02  0.30265550031E+02  0.00000000000E+00 0.  1.
</event>
<event>
 4    1  0.1727273E+004  0.2581106E+02  0.7546771E-02  0.1459931E+00
         21   -1    0    0  501  502  0.00000000000E+00  0.00000000000E+00  0.16658322421E+02  0.16658322421E+02  0.00000000000E+00 0.  1.
         21   -1    0    0  502  503 -0.00000000000E+00 -0.00000000000E+00 -0.51722843748E+02  0.51722843748E+02  0.00000000000E+00 0. -1.
          2    1    1    2  501    0  0.25318408770E+02  0.50188743210E+01 -0.33814621957E+02  0.42539858723E+02  0.00000000000E+00 0. -1.
         -2    1    1    2    0  503 -0.25318408770E+02 -0.50188743210E+01 -0.12498993702E+01  0.25841307447E+02  0.00000000000E+00 0.  1.
</event>
<event>
 4    1  0.1727273E+004  0.2196541E+02  0.7546771E-02  0.1505915E+00
         21   -1    0    0  503  502  0.00000000000E+00  0.00000000000E+00  0.11428232202E+02  0.11428232202E+02  0.00000000000E+00 0. -1.
         21   -1    0    0  501  503 -0.00000000000E+00 -0.00000000000E+00 -0.45513012805E+02  0.45513012805E+02  0.00000000000E+00 0.  1.
          2    1    1    2  501    0 -0.20083987040E+02  0.88945386879E+01 -0.24702672464E+02  0.33056033954E+02  0.00000000000E+00 0.  1.
         -2    1    1    2    0  502  0.20083987040E+02 -0.88945386879E+01 -0.93821081382E+01  0.23885211052E+02  0.00000000000E+00 0. -1.
</event>
<event>
 4    1  0.1727273E+004  0.3939709E+02  0.7546771E-02  0.1352055E+00
         21   -1    0    0  501  502  0.00000000000E+00  0.00000000000E+00  0.49462688160E+03  0.49462688160E+03  0.00000000000E+00 0. -1.
         21   -1    0    0  502  503 -0.00000000000E+00 -0.00000000000E+00 -0.21613878237E+02  0.21613878237E+02  0.00000000000E+00 0.  1.
          2    1    1    2  501    0 -0.22380931382E+02  0.32422595662E+02  0.47515499105E+03  0.47678548250E+03  0.00000000000E+00 0. -1.
         -2    1    1    2    0  503  0.22380931382E+02 -0.32422595662E+02 -0.21419876851E+01  0.39455277343E+02  0.00000000000E+00 0.  1.
</event>
<event>
 4    1  0.1727273E+004  0.2035543E+02  0.7546771E-02  0.1528670E+00
         21   -1    0    0  503  502  0.00000000000E+00  0.00000000000E+00  0.75422601693E+02  0.75422601693E+02  0.00000000000E+00 0.  1.
         21   -1    0    0  501  503 -0.00000000000E+00 -0.00000000000E+00 -0.57666088412E+01  0.57666088412E+01  0.00000000000E+00 0. -1.
          2    1    1    2  501    0 -0.17109541053E+02  0.11027562246E+02  0.43660344761E+02  0.48172286938E+02  0.00000000000E+00 0.  1.
         -2    1    1    2    0  502  0.17109541053E+02 -0.11027562246E+02  0.25995648090E+02  0.33016923596E+02  0.00000000000E+00 0. -1.
</event>
<event>
 4    1  0.1727273E+004  0.2730564E+02  0.7546771E-02  0.1444562E+00
         21   -1    0    0  501  502  0.00000000000E+00  0.00000000000E+00  0.10849701481E+02  0.10849701481E+02  0.00000000000E+00 0.  1.
         21   -1    0    0  502  503 -0.00000000000E+00 -0.00000000000E+00 -0.13834537933E+03  0.13834537933E+03  0.00000000000E+00 0. -1.
          2    1    1    2  501    0  0.20624563914E+01  0.27227632742E+02 -0.10827309930E+02  0.29373940005E+02  0.00000000000E+00 0.  1.
         -2    1    1    2    0  503 -0.20624563914E+01 -0.27227632742E+02 -0.11666836792E+03  0.11982114080E+03  0.00000000000E+00 0. -1.
</event>
<event>
 4    1  0.1727273E+004  0.3115697E+02  0.7546771E-02  0.1409802E+00
         21   -1    0    0  503  502  0.00000000000E+00  0.00000000000E+00  0.33568098185E+02  0.33568098185E+02  0.00000000000E+00 0.  1.
         21   -1    0    0  501  503 -0.00000000000E+00 -0.00000000000E+00 -0.30542016648E+02  0.30542016648E+02  0.00000000000E+00 0. -1.
          2    1    1    2  501    0  0.30900157863E+02  0.39921519943E+01 -0.58762779756E+01  0.31706271877E+02  0.00000000000E+00 0. -1.
         -2    1    1    2    0  502 -0.30900157863E+02 -0.39921519943E+01  0.89023595122E+01  0.32403842957E+02  0.00000000000E+00 0.  1.
</event>
<event>
 4    1  0.1727273E+004  0.2356063E+02  0.7546771E-02  0.1485576E+00
         21   -1    0    0  501  502  0.00000000000E+00  0.00000000000E+00  0.65383956399E+01  0.65383956399E+01  0.00000000000E+00 0.  1.
         21   -1    0    0  502  503 -0.00000000000E+00 -0.00000000000E+00 -0.21994246641E+03  0.21994246641E+03  0.00000000000E+00 0. -1.
          2    1    1    2  501    0 -0.18491680441E+02 -0.14600030244E+02 -0.17969316896E+02  0.29631055978E+02  0.00000000000E+00 0.  1.
         -2    1    1    2    0  503  0.18491680441E+02  0.14600030244E+02 -0.19543475388E+03  0.19684980608E+03  0.00000000000E+00 0. -1.
</event>
<event>
 4    1  0.1727273E+004  0.2538004E+02  0.7546771E-02  0.1464596E+00
         21   -1    0    0  503  502  0.00000000000E+00  0.00000000000E+00  0.34381629697E+02  0.34381629697E+02  0.00000000000E+00 0. -1.
         21   -1    0    0  501  503 -0.00000000000E+00 -0.00000000000E+00 -0.20428080005E+02  0.20428080005E+02  0.00000000000E+00 0.  1.
          2    1    1    2  501    0 -0.58484114721E+01  0.24697015891E+02  0.14865876600E+02  0.29413275876E+02  0.00000000000E+00 0. -1.
         -2    1    1    2    0  502  0.58484114721E+01 -0.24697015891E+02 -0.91232690876E+00  0.25396433825E+02  0.00000000000E+00 0.  1.
</event>
<event>
 4    1  0.1727273E+004  0.2308804E+02  0.7546771E-02  0.1491396E+00
         21   -1    0    0  501  502  0.00000000000E+00  0.00000000000E+00  0.54455335866E+03  0.54455335866E+03  0.00000000000E+00 0. -1.
         21   -1    0    0  502  503 -0.00000000000E+00 -0.00000000000E+00 -0.10192680442E+01  0.10192680442E+01  0.00000000000E+00 0.  1.
          2    1    1    2  501    0  0.18443073648E+02  0.13889225114E+02  0.21747278152E+03  0.21869492047E+03  0.00000000000E+00 0.  1.
         -2    1    1    2    0  503 -0.18443073648E+02 -0.13889225114E+02  0.32606130910E+03  0.32687770623E+03  0.00000000000E+00 0. -1.
</event>
<event>
 4    1  0.1727273E+004  0.2354912E+02  0.7546771E-02  0.1485716E+00
         21   -1    0    0  501  502  0.00000000000E+00  0.00000000000E+00  0.15830921262E+01  0.15830921262E+01  0.00000000000E+00 0.  1.
         21   -1    0    0  502  503 -0.00000000000E+00 -0.00000000000E+00 -0.10537919062E+04  0.10537919062E+04  0.00000000000E+00 0. -1.
          2    1    1    2  501    0  0.17585662324E+02  0.15662234710E+02 -0.94954635533E+02  0.97831201182E+02  0.00000000000E+00 0.  1.
         -2    1    1    2    0  503 -0.17585662324E+02 -0.15662234710E+02 -0.95725417856E+03  0.95754379717E+03  0.00000000000E+00 0. -1.
</event>
<event>
 4    1  0.1727273E+004  0.2811852E+02  0.7546771E-02  0.1436685E+00
         21   -1    0    0  503  502  0.00000000000E+00  0.00000000000E+00  0.28757707753E+03  0.28757707753E+03  0.00000000000E+00 0. -1.
         21   -1    0    0  501  503 -0.00000000000E+00 -0.00000000000E+00 -0.35938542419E+01  0.35938542419E+01  0.00000000000E+00 0.  1.
          2    1    1    2  501    0  0.12229953489E+02  0.25319547185E+02  0.71418764091E+02  0.76754746409E+02  0.00000000000E+00 0.  1.
         -2    1    1    2    0  502 -0.12229953489E+02 -0.25319547185E+02  0.21256445920E+03  0.21441618537E+03  0.00000000000E+00 0. -1.
</event>
<event>
 4    1  0.1727273E+004  0.4423071E+02  0.7546771E-02  0.1325331E+00
         21   -1    0    0  501  502  0.00000000000E+00  0.00000000000E+00  0.61539520046E+03  0.61539520046E+03  0.00000000000E+00 0.  1.
         21   -1    0    0  502  503 -0.00000000000E+00 -0.00000000000E+00 -0.32379701264E+01  0.32379701264E+01  0.00000000000E+00 0. -1.
          2    1    1    2  501    0  0.35652845626E+02  0.26176900007E+02  0.34781339381E+03  0.35061447832E+03  0.00000000000E+00 0. -1.
         -2    1    1    2    0  503 -0.35652845626E+02 -0.26176900007E+02  0.26434383652E+03  0.26801869226E+03  0.00000000000E+00 0.  1.
</event>
<event>
 4    1  0.1727273E+004  0.2375293E+02  0.7546771E-02  0.1483254E+00
         21   -1    0    0  503  502  0.00000000000E+00  0.00000000000E+00  0.40758262105E+03  0.40758262105E+03  0.00000000000E+00 0. -1.
         21   -1    0    0  501  503 -0.00000000000E+00 -0.00000000000E+00 -0.27298984739E+01  0.27298984739E+01  0.00000000000E+00 0.  1.
          2    1    1    2  501    0  0.11183809496E+02  0.20955291827E+02  0.58389013325E+02  0.63035535434E+02  0.00000000000E+00 0.  1.
         -2    1    1    2    0  502 -0.11183809496E+02 -0.20955291827E+02  0.34646370925E+03  0.34727698409E+03  0.00000000000E+00 0. -1.
</event>
<event>
 4    1  0.1727273E+004  0.2864792E+02  0.7546771E-02  0.1431722E+00
         21   -1    0    0  503  502  0.00000000000E+00  0.00000000000E+00  0.12291248671E+02  0.12291248671E+02  0.00000000000E+00 0.  1.
         21   -1    0    0  501  503 -0.00000000000E+00 -0.00000000000E+00 -0.12484641169E+03  0.12484641169E+03  0.00000000000E+00 0. -1.
          2    1    1    2  501    0  0.27934574686E+02 -0.63531925797E+01 -0.10304393105E+03  0.10695211660E+03  0.00000000000E+00 0. -1.
         -2    1    1    2    0  502 -0.27934574686E+02  0.63531925797E+01 -0.95112319725E+01  0.30185543766E+02  0.00000000000E+00 0.  1.
</event>
<event>
 4    1  0.1727273E+004  0.2141099E+02  0.7546771E-02  0.1513477E+00
         21   -1    0    0  501  502  0.00000000000E+00  0.00000000000E+00  0.26194413519E+02  0.26194413519E+02  0.00000000000E+00 0.  1.
         21   -1    0    0  502  503 -0.00000000000E+00 -0.00000000000E+00 -0.28292005394E+02  0.28292005394E+02  0.00000000000E+00 0. -1.
          2    1    1    2  501    0 -0.19279024788E+02  0.93139403303E+01  0.15776237528E+02  0.26595487433E+02  0.00000000000E+00 0.  1.
         -2    1    1    2    0  503  0.19279024788E+02 -0.93139403303E+01 -0.17873829404E+02  0.27890931480E+02  0.00000000000E+00 0. -1.
</event>
<event>
 4    1  0.1727273E+004  0.2050371E+02  0.7546771E-02  0.1526470E+00
         21   -1    0    0  501  502  0.00000000000E+00  0.00000000000E+00  0.13363541562E+01  0.13363541562E+01  0.00000000000E+00 0. -1.
         21   -1    0    0  502  503 -0.00000000000E+00 -0.00000000000E+00 -0.38024101504E+03  0.38024101504E+03  0.00000000000E+00 0.  1.
          2    1    1    2  501    0  0.61999927386E+01 -0.19543855943E+02 -0.11017529207E+03  0.11206693177E+03  0.00000000000E+00 0. -1.
         -2    1    1    2    0  503 -0.61999927386E+01  0.19543855943E+02 -0.26872936882E+03  0.26951043743E+03  0.00000000000E+00 0.  1.
</event>
<event>
 4    1  0.1727273E+004  0.2507961E+02  0.7546771E-02  0.1467915E+00
         21   -1    0    0  501  502  0.00000000000E+00  0.00000000000E+00  0.69471946453E+02  0.69471946453E+02  0.00000000000E+00 0. -1.
         21   -1    0    0  502  503 -0.00000000000E+00 -0.00000000000E+00 -0.29844024925E+02  0.29844024925E+02  0.00000000000E+00 0.  1.
          2    1    1    2  501    0 -0.15915349665E+02  0.19382681578E+02  0.61260641590E+02  0.66195565623E+02  0.00000000000E+00 0. -1.
         -2    1    1    2    0  503  0.15915349665E+02 -0.19382681578E+02 -0.21632720062E+02  0.33120405755E+02  0.00000000000E+00 0.  1.
</event>
<event>
 4    1  0.1727273E+004  0.2114524E+02  0.7546771E-02  0.1517201E+00
         21   -1    0    0  503  502  0.00000000000E+00  0.00000000000E+00  0.91899571312E+02  0.91899571312E+02  0.00000000000E+00 0.  1.
         21   -1    0    0  501  503 -0.00000000000E+00 -0.00000000000E+00 -0.50437716326E+01  0.50437716326E+01  0.00000000000E+00 0. -1.
          2    1    1    2  501    0  0.20873211459E+01  0.21041963614E+02  0.34310598394E+02  0.40303080582E+02  0.00000000000E+00 0. -1.
         -2    1    1    2    0  502 -0.20873211459E+01 -0.21041963614E+02  0.52545201286E+02  0.56640262363E+02  0.00000000000E+00 0.  1.
</event>
<event>
 4    1  0.1727273E+004  0.4479294E+02  0.7546771E-02  0.1322478E+00
         21   -1    0    0  501  502  0.00000000000E+00  0.00000000000E+00  0.15298137925E+03  0.15298137925E+03  0.00000000000E+00 0.  1.
         21   -1    0    0  502  503 -0.00000000000E+00 -0.00000000000E+00 -0.14755808302E+02  0.14755808302E+02  0.00000000000E+00 0. -1.
          2    1    1    2  501    0 -0.42912340776E+02 -0.12842851705E+02  0.97076665473E+02  0.10691251943E+03  0.00000000000E+00 0.  1.
         -2    1    1    2    0  503  0.42912340776E+02  0.12842851705E+02  0.41148905475E+02  0.60824668125E+02  0.00000000000E+00 0. -1.
</event>
<event>
 4    1  0.1727273E+004  0.5137580E+02  0.7546771E-02  0.1292315E+00
         21   -1    0    0  501  502  0.00000000000E+00  0.00000000000E+00  0.16331851256E+03  0.16331851256E+03  0.00000000000E+00 0. -1.
         21   -1    0    0  502  503 -0.00000000000E+00 -0.00000000000E+00 -0.24388401552E+02  0.24388401552E+02  0.00000000000E+00 0.  1.
          2    1    1    2  501    0 -0.42011433704E+02 -0.29572153176E+02  0.12397511406E+03  0.13419873961E+03  0.00000000000E+00 0. -1.
         -2    1    1    2    0  503  0.42011433704E+02  0.29572153176E+02  0.14954996948E+02  0.53508174507E+02  0.00000000000E+00 0.  1.
</event>
<event>
 4    1  0.1727273E+004  0.2088421E+02  0.7546771E-02  0.1520925E+00
         21   -1    0    0  501  502  0.00000000000E+00  0.00000000000E+00  0.10290678129E+02  0.10290678129E+02  0.00000000000E+00 0. -1.
         21   -1    0    0  502  503 -0.00000000000E+00 -0.00000000000E+00 -0.43914590660E+02  0.43914590660E+02  0.00000000000E+00 0.  1.
          2    1    1    2  501    0  0.12743025987E+02  0.16545856369E+02 -0.11750507841E+02  0.23962982052E+02  0.00000000000E+00 0. -1.
         -2    1    1    2    0  503 -0.12743025987E+02 -0.16545856369E+02 -0.21873404690E+02  0.30242286736E+02  0.00000000000E+00 0.  1.
</event>
<event>
 4    1  0.1727273E+004  0.2485576E+02  0.7546771E-02  0.1470424E+00
         21   -1    0    0  501  502  0.00000000000E+00  0.00000000000E+00  0.64324266863E+02  0.64324266863E+02  0.00000000000E+00 0. -1.
         21   -1    0    0  502  503 -0.00000000000E+00 -0.00000000000E+00 -0.14268093082E+02  0.14268093082E+02  0.00000000000E+00 0.  1.
          2    1    1    2  501    0 -0.23361329429E+02 -0.84886452427E+01  0.47493947843E+02  0.53604886834E+02  0.00000000000E+00 0.  1.
         -2    1    1    2    0  503  0.23361329429E+02  0.84886452427E+01  0.25622259371E+01  0.24987473111E+02  0.00000000000E+00 0. -1.
</event>
<event>
 4    1  0.1727273E+004  0.2100841E+02  0.7546771E-02  0.1519145E+00
         21   -1    0    0  503  502  0.00000000000E+00  0.00000000000E+00  0.37590878666E+00  0.37590878666E+00  0.00000000000E+00 0.  1.
         21   -1    0    0  501  503 -0.00000000000E+00 -0.00000000000E+00 -0.15654924678E+04  0.15654924678E+04  0.00000000000E+00 0. -1.
          2    1    1    2  501    0 -0.14062173234E+02 -0.15607963666E+02 -0.11740367284E+04  0.11742246773E+04  0.00000000000E+00 0.  1.
         -2    1    1    2    0  502  0.14062173234E+02  0.15607963666E+02 -0.39107983069E+03  0.39164369932E+03  0.00000000000E+00 0. -1.
</event>
<event>
 4    1  0.1727273E+004  0.2055401E+02  0.7546771E-02  0.1525729E+00
         21   -1    0    0  501  502  0.00000000000E+00  0.00000000000E+00  0.25707182870E+02  0.25707182870E+02  0.00000000000E+00 0. -1.
         21   -1    0    0  502  503 -0.00000000000E+00 -0.00000000000E+00 -0.26693364285E+02  0.26693364285E+02  0.00000000000E+00 0.  1.
          2    1    1    2  501    0  0.19261788460E+02 -0.71729282193E+01  0.15749977135E+02  0.25894578075E+02  0.00000000000E+00 0. -1.
         -2    1    1    2    0  503 -0.19261788460E+02  0.71729282193E+01 -0.16736158550E+02  0.26505969081E+02  0.00000000000E+00 0.  1.
</event>
<event>
 4    1  0.1727273E+004  0.2112724E+02  0.7546771E-02  0.1517456E+00
         21   -1    0    0  501  502  0.00000000000E+00  0.00000000000E+00  0.32799748745E+01  0.32799748745E+01  0.00000000000E+00 0. -1.
         21   -1    0    0  502  503 -0.00000000000E+00 -0.00000000000E+00 -0.21827329119E+03  0.21827329119E+03  0.00000000000E+00 0.  1.
          2    1    1    2  501    0 -0.12535465278E+02  0.17006536430E+02 -0.39521695246E+02  0.44814334383E+02  0.00000000000E+00 0. -1.
         -2    1    1    2    0  503  0.12535465278E+02 -0.17006536430E+02 -0.17547162107E+03  0.17673893168E+03  0.00000000000E+00 0.  1.
</event>
<event>
 4    1  0.1727273E+004  0.3163245E+02  0.7546771E-02  0.1405922E+00
         21   -1    0    0  503  502  0.00000000000E+00  0.00000000000E+00  0.14976446041E+02  0.14976446041E+02  0.00000000000E+00 0. -1.
         21   -1    0    0  501  503 -0.00000000000E+00 -0.00000000000E+00 -0.10305482188E+03  0.10305482188E+03  0.00000000000E+00 0.  1.
          2    1    1    2  501    0  0.31338582444E+02  0.43017374589E+01 -0.79037070320E+02  0.85132074917E+02  0.00000000000E+00 0.  1.
         -2    1    1    2    0  502 -0.31338582444E+02 -0.43017374589E+01 -0.90413055176E+01  0.32899193003E+02  0.00000000000E+00 0. -1.
</event>
<event>
 4    1  0.1727273E+004  0.2214883E+02  0.7546771E-02  0.1503472E+00
         21   -1    0    0  501  502  0.00000000000E+00  0.00000000000E+00  0.11368069728E+02  0.11368069728E+02  0.00000000000E+00 0.  1.
         21   -1    0    0  502  503 -0.00000000000E+00 -0.00000000000E+00 -0.45573691724E+02  0.45573691724E+02  0.00000000000E+00 0. -1.
          2    1    1    2  501    0 -0.10944169460E+02  0.19256064093E+02 -0.10541694657E+02  0.24529536803E+02  0.00000000000E+00 0.  1.
         -2    1    1    2    0  503  0.10944169460E+02 -0.19256064093E+02 -0.23663927339E+02  0.32412224648E+02  0.00000000000E+00 0. -1.
</event>
<event>
 4    1  0.1727273E+004  0.2000283E+02  0.7546771E-02  0.1533992E+00
         21   -1    0    0  503  502  0.00000000000E+00  0.00000000000E+00  0.30165868979E+02  0.30165868979E+02  0.00000000000E+00 0.  1.
         21   -1    0    0  501  503 -0.00000000000E+00 -0.00000000000E+00 -0.13735085217E+02  0.13735085217E+02  0.00000000000E+00 0. -1.
          2    1    1    2  501    0 -0.18516253467E+02  0.75671412294E+01  0.12281530405E+02  0.23472308321E+02  0.00000000000E+00 0.  1.
         -2    1    1    2    0  502  0.18516253467E+02 -0.75671412294E+01  0.41492533580E+01  0.20428645875E+02  0.00000000000E+00 0. -1.
</event>
<event>
 4    1  0.1727273E+004  0.3168990E+02  0.7546771E-02  0.1405458E+00
         21   -1    0    0  501  502  0.00000000000E+00  0.00000000000E+00  0.41125570826E+03  0.41125570826E+03  0.00000000000E+00 0.  1.
         21   -1    0    0  502  503 -0.00000000000E+00 -0.00000000000E+00 -0.24456106352E+01  0.24456106352E+01  0.00000000000E+00 0. -1.
          2    1    1    2  501    0  0.28734953512E+02 -0.13362335803E+02  0.19635903594E+03  0.19889977518E+03  0.00000000000E+00 0.  1.
         -2    1    1    2    0  503 -0.28734953512E+02  0.13362335803E+02  0.21245106168E+03  0.21480154371E+03  0.00000000000E+00 0. -1.
</event>
<event>
 4    1  0.1727273E+004  0.3267934E+02  0.7546771E-02  0.1397656E+00
         21   -1    0    0  501  502  0.00000000000E+00  0.00000000000E+00  0.51866402055E+02  0.51866402055E+02  0.00000000000E+00 0.  1.
         21   -1    0    0  502  503 -0.00000000000E+00 -0.00000000000E+00 -0.20918223955E+02  0.20918223955E+02  0.00000000000E+00 0. -1.
          2    1    1    2  501    0 -0.28031446131E+02  0.16798137010E+02  0.20031337923E+02  0.38330064938E+02  0.00000000000E+00 0. -1.
         -2    1    1    2    0  503  0.28031446131E+02 -0.16798137010E+02  0.10916840177E+02  0.34454561072E+02  0.00000000000E+00 0.  1.
</event>
<event>
 4    1  0.1727273E+004  0.2133215E+02  0.7546771E-02  0.1514575E+00
         21   -1    0    0  503  502  0.00000000000E+00  0.00000000000E+00  0.54150297286E+01  0.54150297286E+01  0.00000000000E+00 0. -1.
         21   -1    0    0  501  503 -0.00000000000E+00 -0.00000000000E+00 -0.12736827706E+03  0.12736827706E+03  0.00000000000E+00 0.  1.
          2    1    1    2  501    0  0.13942885242E+01 -0.21286530414E+02 -0.99701126060E+02  0.10195771160E+03  0.00000000000E+00 0.  1.
         -2    1    1    2    0  502 -0.13942885242E+01  0.21286530414E+02 -0.22252121275E+02  0.30825595190E+02  0.00000000000E+00 0. -1.
</event>
<event>
 4    1  0.1727273E+004  0.3732177E+02  0.7546771E-02  0.1364938E+00
         21   -1    0    0  503  502  0.00000000000E+00  0.00000000000E+00  0.70338446125E+01  0.70338446125E+01  0.00000000000E+00 0. -1.
         21   -1    0    0  501  503 -0.00000000000E+00 -0.00000000000E+00 -0.25278818656E+03  0.25278818656E+03  0.00000000000E+00 0.  1.
          2    1    1    2  501    0 -0.23048608771E+02 -0.29354320552E+02 -0.18334033210E+03  0.18710048604E+03  0.00000000000E+00 0.  1.
         -2    1    1    2    0  502  0.23048608771E+02  0.29354320552E+02 -0.62414009846E+02  0.72721545132E+02  0.00000000000E+00 0. -1.
</event>
<event>
 4    1  0.1727273E+004  0.2987741E+02  0.7546771E-02  0.1420665E+00
         21   -1    0    0  501  502  0.00000000000E+00  0.00000000000E+00  0.33264423795E+03  0.33264423795E+03  0.00000000000E+00 0. -1.
         21   -1    0    0  502  503 -0.00000000000E+00 -0.00000000000E+00 -0.65087164300E+01  0.65087164300E+01  0.00000000000E+00 0.  1.
          2    1    1    2  501    0 -0.27187690875E+02 -0.12389065587E+02  0.29306809247E+03  0.29458711157E+03  0.00000000000E+00 0. -1.
         -2    1    1    2    0  503  0.27187690875E+02  0.12389065587E+02  0.33067429058E+02  0.44565842814E+02  0.00000000000E+00 0.  1.
</event>
<event>
 4    1  0.1727273E+004  0.2286209E+02  0.7546771E-02  0.1494237E+00
         21   -1    0    0  501  502  0.00000000000E+00  0.00000000000E+00  0.30152929657E+02  0.30152929657E+02  0.00000000000E+00 0.  1.
         21   -1    0    0  502  503 -0.00000000000E+00 -0.00000000000E+00 -0.46155487675E+02  0.46155487675E+02  0.00000000000E+00 0. -1.
          2    1    1    2  501    0  0.22152121674E+01 -0.22754519901E+02  0.22148758831E+02  0.31831475910E+02  0.00000000000E+00 0.  1.
         -2    1    1    2    0  503 -0.22152121674E+01  0.22754519901E+02 -0.38151316849E+02  0.44476941421E+02  0.00000000000E+00 0. -1.
</event>
<event>
 4    1  0.1727273E+004  0.2181008E+02  0.7546771E-02  0.1508006E+00
         21   -1    0    0  501  502  0.00000000000E+00  0.00000000000E+00  0.23081812183E+03  0.23081812183E+03  0.00000000000E+00 0.  1.
         21   -1    0    0  502  503 -0.00000000000E+00 -0.00000000000E+00 -0.38520169937E+01  0.38520169937E+01  0.00000000000E+00 0. -1.
          2    1    1    2  501    0  0.18368792194E+01  0.21732593363E+02  0.19349460814E+03  0.19471990940E+03  0.00000000000E+00 0.  1.
         -2    1    1    2    0  503 -0.18368792194E+01 -0.21732593363E+02  0.33471496702E+02  0.39950229424E+02  0.00000000000E+00 0. -1.
</event>
<event>
 4    1  0.1727273E+004  0.2139375E+02  0.7546771E-02  0.1513717E+00
         21   -1    0    0  501  502  0.00000000000E+00  0.00000000000E+00  0.10554717902E+03  0.10554717902E+03  0.00000000000E+00 0. -1.
         21   -1    0    0  502  503 -0.00000000000E+00 -0.00000000000E+00 -0.25236224156E+02  0.25236224156E+02  0.00000000000E+00 0.  1.
          2    1    1    2  501    0 -0.26385042262E+01 -0.21230418444E+02  0.99664388616E+02  0.10193469836E+03  0.00000000000E+00 0. -1.
         -2    1    1    2    0  503  0.26385042262E+01  0.21230418444E+02 -0.19353433749E+02  0.28848704819E+02  0.00000000000E+00 0.  1.
</event>
<event>
 4    1  0.1727273E+004  0.2697430E+02  0.7546771E-02  0.1447866E+00
         21   -1    0    0  503  502  0.00000000000E+00  0.00000000000E+00  0.61465967831E+01  0.61465967831E+01  0.00000000000E+00 0.  1.
         21   -1    0    0  501  503 -0.00000000000E+00 -0.00000000000E+00 -0.18239220536E+03  0.18239220536E+03  0.00000000000E+00 0. -1.
          2    1    1    2  501    0 -0.96860890039E+01  0.25175236895E+02 -0.14397120426E+03  0.14647634802E+03  0.00000000000E+00 0. -1.
         -2    1    1    2    0  502  0.96860890039E+01 -0.25175236895E+02 -0.32274404317E+02  0.42062454124E+02  0.00000000000E+00 0.  1.
</event>
<event>
 4    1  0.1727273E+004  0.2469932E+02  0.7546771E-02  0.1472195E+00
         21   -1    0    0  501  502  0.00000000000E+00  0.00000000000E+00  0.95179108049E+01  0.95179108049E+01  0.00000000000E+00 0.  1.
         21   -1    0    0  502  503 -0.00000000000E+00 -0.00000000000E+00 -0.79862395418E+02  0.79862395418E+02  0.00000000000E+00 0. -1.
          2    1    1    2  501    0 -0.25631780630E+01  0.24565962536E+02 -0.55029172676E+02  0.60318042429E+02  0.00000000000E+00 0.  1.
         -2    1    1    2    0  503  0.25631780630E+01 -0.24565962536E+02 -0.15315311938E+02  0.29062263794E+02  0.00000000000E+00 0. -1.
</event>
<event>
 4    1  0.1727273E+004  0.2050483E+02  0.7546771E-02  0.1526453E+00
         21   -1    0    0  503  502  0.00000000000E+00  0.00000000000E+00  0.13130469292E+02  0.13130469292E+02  0.00000000000E+00 0.  1.
         21   -1    0    0  501  503 -0.00000000000E+00 -0.00000000000E+00 -0.41809719739E+02  0.41809719739E+02  0.00000000000E+00 0. -1.
          2    1    1    2  501    0  0.12664998257E+02 -0.16125943086E+02 -0.27631577002E+02  0.34408607482E+02  0.00000000000E+00 0. -1.
         -2    1    1    2    0  502 -0.12664998257E+02  0.16125943086E+02 -0.10476734451E+01  0.20531581549E+02  0.00000000000E+00 0.  1.
</event>
<event>
 4    1  0.1727273E+004  0.2360858E+02  0.7546771E-02  0.1484994E+00
         21   -1    0    0  503  502  0.00000000000E+00  0.00000000000E+00  0.21268101864E+03  0.21268101864E+03  0.00000000000E+00 0. -1.
         21   -1    0    0  501  503 -0.00000000000E+00 -0.00000000000E+00 -0.28720752312E+01  0.28720752312E+01  0.00000000000E+00 0.  1.
          2    1    1    2  501    0 -0.13905121921E+02 -0.19079117611E+02  0.73016999281E+02  0.76738825430E+02  0.00000000000E+00 0. -1.
         -2    1    1    2    0  502  0.13905121921E+02  0.19079117611E+02  0.13679194413E+03  0.13881426844E+03  0.00000000000E+00 0.  1.
</event>
<event>
 4    1  0.1727273E+004  0.2681446E+02  0.7546771E-02  0.1449481E+00
         21   -1    0    0  503  502  0.00000000000E+00  0.00000000000E+00  0.26687360734E+03  0.26687360734E+03  0.00000000000E+00 0.  1.
         21   -1    0    0  501  503 -0.00000000000E+00 -0.00000000000E+00 -0.34717266043E+01  0.34717266043E+01  0.00000000000E+00 0. -1.
          2    1    1    2  501    0 -0.22987290413E+02 -0.13805795857E+02  0.67732039311E+02  0.72846720373E+02  0.00000000000E+00 0.  1.
         -2    1    1    2    0  502  0.22987290413E+02  0.13805795857E+02  0.19566984143E+03  0.19749861358E+03  0.00000000000E+00 0. -1.
</event>
<event>
 4    1  0.1727273E+004  0.2902051E+02  0.7546771E-02  0.1428303E+00
         21   -1    0    0  501  502  0.00000000000E+00  0.00000000000E+00  0.21274832799E+02  0.21274832799E+02  0.00000000000E+00 0. -1.
         21   -1    0    0  502  503 -0.00000000000E+00 -0.00000000000E+00 -0.46247280321E+02  0.46247280321E+02  0.00000000000E+00 0.  1.
          2    1    1    2  501    0  0.99293248268E+01 -0.27269004529E+02  0.32659802328E+00  0.29022349419E+02  0.00000000000E+00 0.  1.
         -2    1    1    2    0  503 -0.99293248268E+01  0.27269004529E+02 -0.25299045545E+02  0.38499763701E+02  0.00000000000E+00 0. -1.
</event>
<event>
 4    1  0.1727273E+004  0.2057422E+02  0.7546771E-02  0.1525432E+00
         21   -1    0    0  503  502  0.00000000000E+00  0.00000000000E+00  0.48257149747E+03  0.48257149747E+03  0.00000000000E+00 0.  1.
         21   -1    0    0  501  503 -0.00000000000E+00 -0.00000000000E+00 -0.12746121708E+01  0.12746121708E+01  0.00000000000E+00 0. -1.
          2    1    1    2  501    0  0.20146355778E+02 -0.41740507805E+01  0.10555821207E+03  0.10754456977E+03  0.00000000000E+00 0. -1.
         -2    1    1    2    0  502 -0.20146355778E+02  0.41740507805E+01  0.37573867323E+03  0.37630153987E+03  0.00000000000E+00 0.  1.
</event>
<event>
 4    1  0.1727273E+004  0.3088652E+02  0.7546771E-02  0.1412046E+00
         21   -1    0    0  503  502  0.00000000000E+00  0.00000000000E+00  0.50677333287E+01  0.50677333287E+01  0.00000000000E+00 0.  1.
         21   -1    0    0  501  503 -0.00000000000E+00 -0.00000000000E+00 -0.20636902344E+03  0.20636902344E+03  0.00000000000E+00 0. -1.
          2    1    1    2  501    0  0.15540852799E+02  0.26691932481E+02 -0.13197997038E+03  0.13554589609E+03  0.00000000000E+00 0. -1.
         -2    1    1    2    0  502 -0.15540852799E+02 -0.26691932481E+02 -0.69321319732E+02  0.75890860680E+02  0.00000000000E+00 0.  1.
</event>
<event>
 4    1  0.1727273E+004  0.2708872E+02  0.7546771E-02  0.1446719E+00
         21   -1    0    0  501  502  0.00000000000E+00  0.00000000000E+00  0.31985972438E+02  0.31985972438E+02  0.00000000000E+00 0.  1.
         21   -1    0    0  502  503 -0.00000000000E+00 -0.00000000000E+00 -0.27657029411E+02  0.27657029411E+02  0.00000000000E+00 0. -1.
          2    1    1    2  501    0  0.25245166264E+02 -0.98224475961E+01  0.14478565282E+02  0.30715268989E+02  0.00000000000E+00 0.  1.
         -2    1    1    2    0  503 -0.25245166264E+02  0.98224475961E+01 -0.10149622255E+02  0.28927732859E+02  0.00000000000E+00 0. -1.
</event>
<event>
 4    1  0.1727273E+004  0.4685546E+02  0.7546771E-02  0.1312414E+00
         21   -1    0    0  501  502  0.00000000000E+00  0.00000000000E+00  0.26781741325E+02  0.26781741325E+02  0.00000000000E+00 0.  1.
         21   -1    0    0  502  503 -0.00000000000E+00 -0.00000000000E+00 -0.17772561342E+03  0.17772561342E+03  0.00000000000E+00 0. -1.
          2    1    1    2  501    0  0.23109034860E+02 -0.40760360527E+02 -0.41780480329E+00  0.46857326464E+02  0.00000000000E+00 0.  1.
         -2    1    1    2    0  503 -0.23109034860E+02  0.40760360527E+02 -0.15052606729E+03  0.15765002828E+03  0.00000000000E+00 0. -1.
</event>
<event>
 4    1  0.1727273E+004  0.2872930E+02  0.7546771E-02  0.1430970E+00
         21   -1    0    0  501  502  0.00000000000E+00  0.00000000000E+00  0.11736513614E+03  0.11736513614E+03  0.00000000000E+00 0. -1.
         21   -1    0    0  502  503 -0.00000000000E+00 -0.00000000000E+00 -0.85562018071E+01  0.85562018071E+01  0.00000000000E+00 0.  1.
          2    1    1    2  501    0  0.28520578397E+02 -0.34568090843E+01  0.80973494575E+02  0.85919030167E+02  0.00000000000E+00 0.  1.
         -2    1    1    2    0  503 -0.28520578397E+02  0.34568090843E+01  0.27835439757E+02  0.40002307779E+02  0.00000000000E+00 0. -1.
</event>
<event>
 4    1  0.1727273E+004  0.2106503E+02  0.7546771E-02  0.1518338E+00
         21   -1    0    0  501  502  0.00000000000E+00  0.00000000000E+00  0.13283630482E+03  0.13283630482E+03  0.00000000000E+00 0. -1.
         21   -1    0    0  502  503 -0.00000000000E+00 -0.00000000000E+00 -0.84036732321E+01  0.84036732321E+01  0.00000000000E+00 0.  1.
          2    1    1    2  501    0  0.19966697897E+02  0.67131633910E+01  0.11703211881E+03  0.11891279334E+03  0.00000000000E+00 0. -1.
         -2    1    1    2    0  503 -0.19966697897E+02 -0.67131633910E+01  0.74005127785E+01  0.22327184709E+02  0.00000000000E+00 0.  1.
</event>
<event>
 4    1  0.1727273E+004  0.2482909E+02  0.7546771E-02  0.1470724E+00
         21   -1    0    0  501  502  0.00000000000E+00  0.00000000000E+00  0.68655495923E+03  0.68655495923E+03  0.00000000000E+00 0. -1.
         21   -1    0    0  502  503 -0.00000000000E+00 -0.00000000000E+00 -0.92493684877E+00  0.92493684877E+00  0.00000000000E+00 0.  1.
          2    1    1    2  501    0  0.18739688992E+02  0.16288269128E+02  0.40154340707E+03  0.40231031732E+03  0.00000000000E+00 0. -1.
         -2    1    1    2    0  503 -0.18739688992E+02 -0.16288269128E+02  0.28408661531E+03  0.28516957876E+03  0.00000000000E+00 0.  1.
</event>
<event>
 4    1  0.1727273E+004  0.2196440E+02  0.7546771E-02  0.1505928E+00
         21   -1    0    0  503  502  0.00000000000E+00  0.00000000000E+00  0.13017466780E+03  0.13017466780E+03  0.00000000000E+00 0.  1.
         21   -1    0    0  501  503 -0.00000000000E+00 -0.00000000000E+00 -0.68962020548E+01  0.68962020548E+01  0.00000000000E+00 0. -1.
          2    1    1    2  501    0 -0.11208128352E+02 -0.18889488347E+02  0.15025346882E+02  0.26611951452E+02  0.00000000000E+00 0. -1.
         -2    1    1    2    0  502  0.11208128352E+02  0.18889488347E+02  0.10825311887E+03  0.11045891841E+03  0.00000000000E+00 0.  1.
</event>
<event>
 4    1  0.1727273E+004  0.2591404E+02  0.7546771E-02  0.1458833E+00
         21   -1    0    0  503  502  0.00000000000E+00  0.00000000000E+00  0.14595598311E+03  0.14595598311E+03  0.00000000000E+00 0.  1.
         21   -1    0    0  501  503 -0.00000000000E+00 -0.00000000000E+00 -0.11013407457E+02  0.11013407457E+02  0.00000000000E+00 0. -1.
          2    1    1    2  501    0 -0.13969080763E+02  0.21826637344E+02  0.75837982607E+01  0.27000950191E+02  0.00000000000E+00 0. -1.
         -2    1    1    2    0  502  0.13969080763E+02 -0.21826637344E+02  0.12735877739E+03  0.12996844038E+03  0.00000000000E+00 0.  1.
</event>
<event>
 4    1  0.1727273E+004  0.2019538E+02  0.7546771E-02  0.1531070E+00
         21   -1    0    0  501  502  0.00000000000E+00  0.00000000000E+00  0.64824665759E+02  0.64824665759E+02  0.00000000000E+00 0.  1.
         21   -1    0    0  502  503 -0.00000000000E+00 -0.00000000000E+00 -0.67146346078E+01  0.67146346078E+01  0.00000000000E+00 0. -1.
          2    1    1    2  501    0  0.14791832118E+02 -0.13749734113E+02  0.20077199290E+02  0.28477138496E+02  0.00000000000E+00 0. -1.
         -2    1    1    2    0  503 -0.14791832118E+02  0.13749734113E+02  0.38032831861E+02  0.43062161871E+02  0.00000000000E+00 0.  1.
</event>
<event>
 4    1  0.1727273E+004  0.2125397E+02  0.7546771E-02  0.1515670E+00
         21   -1    0    0  501  502  0.00000000000E+00  0.00000000000E+00  0.80871675642E+01  0.80871675642E+01  0.00000000000E+00 0.  1.
         21   -1    0    0  502  503 -0.00000000000E+00 -0.00000000000E+00 -0.24161938284E+03  0.24161938284E+03  0.00000000000E+00 0. -1.
          2    1    1    2  501    0 -0.21123360268E+02 -0.23526339142E+01 -0.72918452553E+01  0.22470029875E+02  0.00000000000E+00 0.  1.
         -2    1    1    2    0  503  0.21123360268E+02  0.23526339142E+01 -0.22624037002E+03  0.22723652053E+03  0.00000000000E+00 0. -1.
</event>
<event>
 4    1  0.1727273E+004  0.2041730E+02  0.7546771E-02  0.1527749E+00
         21   -1    0    0  503  502  0.00000000000E+00  0.00000000000E+00  0.38624742146E+02  0.38624742146E+02  0.00000000000E+00 0.  1.
         21   -1    0    0  501  503 -0.00000000000E+00 -0.00000000000E+00 -0.10832709579E+02  0.10832709579E+02  0.00000000000E+00 0. -1.
          2    1    1    2  501    0  0.17216778661E+02  0.10974904260E+02  0.15398506596E+02  0.25573032600E+02  0.00000000000E+00 0.  1.
         -2    1    1    2    0  502 -0.17216778661E+02 -0.10974904260E+02  0.12393525970E+02  0.23884419125E+02  0.00000000000E+00 0. -1.
</event>
<event>
 4    1  0.1727273E+004  0.2206809E+02  0.7546771E-02  0.1504544E+00
         21   -1    0    0  503  502  0.00000000000E+00  0.00000000000E+00  0.21639914556E+03  0.21639914556E+03  0.00000000000E+00 0. -1.
         21   -1    0    0  501  503 -0.00000000000E+00 -0.00000000000E+00 -0.23333645886E+02  0.23333645886E+02  0.00000000000E+00 0.  1.
          2    1    1    2  501    0 -0.19765806498E+02  0.98139350110E+01 -0.17406703308E+02  0.28106827408E+02  0.00000000000E+00 0.  1.
         -2    1    1    2    0  502  0.19765806498E+02 -0.98139350110E+01  0.21047220298E+03  0.21162596403E+03  0.00000000000E+00 0. -1.
</event>
<event>
 4    1  0.1727273E+004  0.4911317E+02  0.7546771E-02  0.1302064E+00
         21   -1    0    0  503  502  0.00000000000E+00  0.00000000000E+00  0.19565983906E+02  0.19565983906E+02  0.00000000000E+00 0. -1.
         21   -1    0    0  501  503 -0.00000000000E+00 -0.00000000000E+00 -0.12474757741E+03  0.12474757741E+03  0.00000000000E+00 0.  1.
          2    1    1    2  501    0  0.29587670508E+02  0.39200418098E+02 -0.60416026326E+02  0.77860126266E+02  0.00000000000E+00 0.  1.
         -2    1    1    2    0  502 -0.29587670508E+02 -0.39200418098E+02 -0.44765567178E+02  0.66453435050E+02  0.00000000000E+00 0. -1.
</event>
<event>
 4    1  0.1727273E+004  0.2362268E+02  0.7546771E-02  0.1484824E+00
         21   -1    0    0  503  502  0.00000000000E+00  0.00000000000E+00  0.81585645351E+01  0.81585645351E+01  0.00000000000E+00 0. -1.
         21   -1    0    0  501  503 -0.00000000000E+00 -0.00000000000E+00 -0.68422150452E+02  0.68422150452E+02  0.00000000000E+00 0.  1.
          2    1    1    2  501    0  0.22238122064E+02  0.79685048674E+01 -0.29415431226E+02  0.37726631668E+02  0.00000000000E+00 0.  1.
         -2    1    1    2    0  502 -0.22238122064E+02 -0.79685048674E+01 -0.30848154691E+02  0.38854083320E+02  0.00000000000E+00 0. -1.
</event>
<event>
 4    1  0.1727273E+004  0.2304603E+02  0.7546771E-02  0.1491921E+00
         21   -1    0    0  501  502  0.00000000000E+00  0.00000000000E+00  0.64556920062E+01  0.64556920062E+01  0.00000000000E+00 0. -1.
         21   -1    0    0  502  503 -0.00000000000E+00 -0.00000000000E+00 -0.20150253105E+03  0.20150253105E+03  0.00000000000E+00 0.  1.
          2    1    1    2  501    0 -0.21568973045E+02  0.81178224786E+01 -0.17539911194E+02  0.28961493827E+02  0.00000000000E+00 0. -1.
         -2    1    1    2    0  503  0.21568973045E+02 -0.81178224786E+01 -0.17750692785E+03  0.17899672922E+03  0.00000000000E+00 0.  1.
</event>
<event>
 4    1  0.1727273E+004  0.2674826E+02  0.7546771E-02  0.1450153E+00
         21   -1    0    0  501  502  0.00000000000E+00  0.00000000000E+00  0.16481841080E+02  0.16481841080E+02  0.00000000000E+00 0. -1.
         21   -1    0    0  502  503 -0.00000000000E+00 -0.00000000000E+00 -0.71845677221E+02  0.71845677221E+02  0.00000000000E+00 0.  1.
          2    1    1    2  501    0 -0.18850168723E+02 -0.18977363922E+02 -0.55466315527E+02  0.61579065928E+02  0.00000000000E+00 0.  1.
         -2    1    1    2    0  503  0.18850168723E+02  0.18977363922E+02  0.10247938673E+00  0.26748452373E+02  0.00000000000E+00 0. -1.
</event>
<event>
 4    1  0.1727273E+004  0.2085751E+02  0.7546771E-02  0.1521309E+00
         21   -1    0    0  503  502  0.00000000000E+00  0.00000000000E+00  0.12008577264E+03  0.12008577264E+03  0.00000000000E+00 0. -1.
         21   -1    0    0  501  503 -0.00000000000E+00 -0.00000000000E+00 -0.95628471810E+01  0.95628471810E+01  0.00000000000E+00 0.  1.
          2    1    1    2  501    0 -0.11267307748E+02 -0.17552302653E+02  0.41706693871E+01  0.21270402804E+02  0.00000000000E+00 0.  1.
         -2    1    1    2    0  502  0.11267307748E+02  0.17552302653E+02  0.10635225607E+03  0.10837821702E+03  0.00000000000E+00 0. -1.
</event>
<event>
 4    1  0.1727273E+004  0.2089333E+02  0.7546771E-02  0.1520793E+00
         21   -1    0    0  501  502  0.00000000000E+00  0.00000000000E+00  0.58354243459E+02  0.58354243459E+02  0.00000000000E+00 0. -1.
         21   -1    0    0  502  503 -0.00000000000E+00 -0.00000000000E+00 -0.18747397164E+02  0.18747397164E+02  0.00000000000E+00 0.  1.
          2    1    1    2  501    0 -0.31448251979E+01 -0.20655301063E+02  0.49688968175E+02  0.53902921496E+02  0.00000000000E+00 0. -1.
         -2    1    1    2    0  503  0.31448251979E+01  0.20655301063E+02 -0.10082121880E+02  0.23198719127E+02  0.00000000000E+00 0.  1.
</event>
<event>
 4    1  0.1727273E+004  0.2527859E+02  0.7546771E-02  0.1465711E+00
         21   -1    0    0  501  502  0.00000000000E+00  0.00000000000E+00  0.22674540115E+03  0.22674540115E+03  0.00000000000E+00 0. -1.
         21   -1    0    0  502  503 -0.00000000000E+00 -0.00000000000E+00 -0.28482410269E+01  0.28482410269E+01  0.00000000000E+00 0.  1.
          2    1    1    2  501    0 -0.76115024201E+01 -0.24105437893E+02  0.12374404461E+03  0.12629962661E+03  0.00000000000E+00 0. -1.
         -2    1    1    2    0  503  0.76115024201E+01  0.24105437893E+02  0.10015311551E+03  0.10329401556E+03  0.00000000000E+00 0.  1.
</event>
<event>
 4    1  0.1727273E+004  0.2409752E+02  0.7546771E-02  0.1479158E+00
         21   -1    0    0  503  502  0.00000000000E+00  0.00000000000E+00  0.17327114390E+02  0.17327114390E+02  0.00000000000E+00 0.  1.
         21   -1    0    0  501  503 -0.00000000000E+00 -0.00000000000E+00 -0.15282829212E+03  0.15282829212E+03  0.00000000000E+00 0. -1.
          2    1    1    2  501    0 -0.89431965418E+01  0.22376545733E+02 -0.14292347053E+03  0.14494070854E+03  0.00000000000E+00 0. -1.
         -2    1    1    2    0  502  0.89431965418E+01 -0.22376545733E+02  0.74222928005E+01  0.25214697971E+02  0.00000000000E+00 0.  1.
</event>
<event>
 4    1  0.1727273E+004  0.2346662E+02  0.7546771E-02  0.1486720E+00
         21   -1    0    0  503  502  0.00000000000E+00  0.00000000000E+00  0.55599342290E+01  0.55599342290E+01  0.00000000000E+00 0.  1.
         21   -1    0    0  501  503 -0.00000000000E+00 -0.00000000000E+00 -0.30187075405E+03  0.30187075405E+03  0.00000000000E+00 0. -1.
          2    1    1    2  501    0  0.23413657000E+02  0.15756765112E+01 -0.27415483360E+03  0.27515732750E+03  0.00000000000E+00 0. -1.
         -2    1    1    2    0  502 -0.23413657000E+02 -0.15756765112E+01 -0.22155986222E+02  0.32273360780E+02  0.00000000000E+00 0.  1.
</event>
<event>
 4    1  0.1727273E+004  0.2156716E+02  0.7546771E-02  0.1511319E+00
         21   -1    0    0  501  502  0.00000000000E+00  0.00000000000E+00  0.72522362227E+02  0.72522362227E+02  0.00000000000E+00 0. -1.
         21   -1    0    0  502  503 -0.00000000000E+00 -0.00000000000E+00 -0.82645948546E+01  0.82645948546E+01  0.00000000000E+00 0.  1.
          2    1    1    2  501    0  0.86337435154E+01 -0.19763622131E+02  0.51244234170E+02  0.55597786129E+02  0.00000000000E+00 0.  1.
         -2    1    1    2    0  503 -0.86337435154E+01  0.19763622131E+02  0.13013533202E+02  0.25189170952E+02  0.00000000000E+00 0. -1.
</event>
<event>
 4    1  0.1727273E+004  0.3014435E+02  0.7546771E-02  0.1418346E+00
         21   -1    0    0  503  502  0.00000000000E+00  0.00000000000E+00  0.23984943703E+02  0.23984943703E+02  0.00000000000E+00 0. -1.
         21   -1    0    0  501  503 -0.00000000000E+00 -0.00000000000E+00 -0.37886229616E+02  0.37886229616E+02  0.00000000000E+00 0.  1.
          2    1    1    2  501    0  0.29885988458E+02 -0.39382106885E+01 -0.68157602075E+01  0.30905281049E+02  0.00000000000E+00 0.  1.
         -2    1    1    2    0  502 -0.29885988458E+02  0.39382106885E+01 -0.70855257048E+01  0.30965892270E+02  0.00000000000E+00 0. -1.
</event>
<event>
 4    1  0.1727273E+004  0.3137134E+02  0.7546771E-02  0.1408042E+00
         21   -1    0    0  503  502  0.00000000000E+00  0.00000000000E+00  0.14497460325E+02  0.14497460325E+02  0.00000000000E+00 0. -1.
         21   -1    0    0  501  503 -0.00000000000E+00 -0.00000000000E+00 -0.15784310785E+03  0.15784310785E+03  0.00000000000E+00 0.  1.
          2    1    1    2  501    0  0.30839611470E+02  0.57514598479E+01 -0.13672543448E+03  0.14027831394E+03  0.00000000000E+00 0.  1.
         -2    1    1    2    0  502 -0.30839611470E+02 -0.57514598479E+01 -0.66202130387E+01  0.32062254236E+02  0.00000000000E+00 0. -1.
</event>
<event>
 4    1  0.1727273E+004  0.2390643E+02  0.7546771E-02  0.1481419E+00
         21   -1    0    0  503  502  0.00000000000E+00  0.00000000000E+00  0.42403307767E+03  0.42403307767E+03  0.00000000000E+00 0. -1.
         21   -1    0    0  501  503 -0.00000000000E+00 -0.00000000000E+00 -0.25660962449E+01  0.25660962449E+01  0.00000000000E+00 0.  1.
          2    1    1    2  501    0  0.23233332885E+02 -0.56329189810E+01  0.63763868010E+02  0.68098079244E+02  0.00000000000E+00 0.  1.
         -2    1    1    2    0  502 -0.23233332885E+02  0.56329189810E+01  0.35770311341E+03  0.35850109467E+03  0.00000000000E+00 0. -1.
</event>
<event>
 4    1  0.1727273E+004  0.2556416E+02  0.7546771E-02  0.1462590E+00
         21   -1    0    0  501  502  0.00000000000E+00  0.00000000000E+00  0.42133108812E+02  0.42133108812E+02  0.00000000000E+00 0. -1.
         21   -1    0    0  502  503 -0.00000000000E+00 -0.00000000000E+00 -0.24114491148E+02  0.24114491148E+02  0.00000000000E+00 0.  1.
          2    1    1    2  501    0  0.53851832438E+01 -0.24990521506E+02  0.28794426272E+02  0.38505134048E+02  0.00000000000E+00 0. -1.
         -2    1    1    2    0  503 -0.53851832438E+01  0.24990521506E+02 -0.10775808608E+02  0.27742465912E+02  0.00000000000E+00 0.  1.
</event>
<event>
 4    1  0.1727273E+004  0.2881684E+02  0.7546771E-02  0.1430164E+00
         21   -1    0    0  501  502  0.00000000000E+00  0.00000000000E+00  0.26896758299E+02  0.26896758299E+02  0.00000000000E+00 0. -1.
         21   -1    0    0  502  503 -0.00000000000E+00 -0.00000000000E+00 -0.39280948207E+02  0.39280948207E+02  0.00000000000E+00 0.  1.
          2    1    1    2  501    0  0.14737570220E+02 -0.24763167713E+02  0.91156064716E+01  0.30224240810E+02  0.00000000000E+00 0. -1.
         -2    1    1    2    0  503 -0.14737570220E+02  0.24763167713E+02 -0.21499796379E+02  0.35953465696E+02  0.00000000000E+00 0.  1.
</event>
<event>
 4    1  0.1727273E+004  0.3098049E+02  0.7546771E-02  0.1411263E+00
         21   -1    0    0  503  502  0.00000000000E+00  0.00000000000E+00  0.25024633678E+02  0.25024633678E+02  0.00000000000E+00 0.  1.
         21   -1    0    0  501  503 -0.00000000000E+00 -0.00000000000E+00 -0.85731688453E+02  0.85731688453E+02  0.00000000000E+00 0. -1.
          2    1    1    2  501    0 -0.30531845081E+02 -0.52533289504E+01 -0.71521119518E+02  0.77942681287E+02  0.00000000000E+00 0. -1.
         -2    1    1    2    0  502  0.30531845081E+02  0.52533289504E+01  0.10814064743E+02  0.32813640843E+02  0.00000000000E+00 0.  1.
</event>
<event>
 4    1  0.1727273E+004  0.3070917E+02  0.7546771E-02  0.1413532E+00
         21   -1    0    0  501  502  0.00000000000E+00  0.00000000000E+00  0.75795362653E+02  0.75795362653E+02  0.00000000000E+00 0.  1.
         21   -1    0    0  502  503 -0.00000000000E+00 -0.00000000000E+00 -0.20297079897E+02  0.20297079897E+02  0.00000000000E+00 0. -1.
          2    1    1    2  501    0  0.12784320453E+01 -0.30682546867E+02  0.57638400167E+02  0.65308791479E+02  0.00000000000E+00 0.  1.
         -2    1    1    2    0  503 -0.12784320453E+01  0.30682546867E+02 -0.21401174103E+01  0.30783651071E+02  0.00000000000E+00 0. -1.
</event>
<event>
 4    1  0.1727273E+004  0.2036860E+02  0.7546771E-02  0.1528474E+00
         21   -1    0    0  501  502  0.00000000000E+00  0.00000000000E+00  0.36755992553E+02  0.36755992553E+02  0.00000000000E+00 0. -1.
         21   -1    0    0  502  503 -0.00000000000E+00 -0.00000000000E+00 -0.30458470034E+02  0.30458470034E+02  0.00000000000E+00 0.  1.
          2    1    1    2  501    0  0.18398912710E+02  0.87384167433E+01  0.29811316558E+02  0.36105325245E+02  0.00000000000E+00 0. -1.
         -2    1    1    2    0  503 -0.18398912710E+02 -0.87384167433E+01 -0.23513794039E+02  0.31109137343E+02  0.00000000000E+00 0.  1.
</event>
<event>
 4    1  0.1727273E+004  0.2730817E+02  0.7546771E-02  0.1444537E+00
         21   -1    0    0  501  502  0.00000000000E+00  0.00000000000E+00  0.11755129882E+03  0.11755129882E+03  0.00000000000E+00 0. -1.
         21   -1    0    0  502  503 -0.00000000000E+00 -0.00000000000E+00 -0.66365462404E+01  0.66365462404E+01  0.00000000000E+00 0.  1.
          2    1    1    2  501    0 -0.80557602992E+01 -0.26092929577E+02  0.68496047273E+02  0.73739031320E+02  0.00000000000E+00 0. -1.
         -2    1    1    2    0  503  0.80557602992E+01  0.26092929577E+02  0.42418705305E+02  0.50448813739E+02  0.00000000000E+00 0.  1.
</event>
<event>
 4    1  0.1727273E+004  0.3522037E+02  0.7546771E-02  0.1379021E+00
         21   -1    0    0  501  502  0.00000000000E+00  0.00000000000E+00  0.11755894634E+02  0.11755894634E+02  0.00000000000E+00 0. -1.
         21   -1    0    0  502  503 -0.00000000000E+00 -0.00000000000E+00 -0.11129605498E+03  0.11129605498E+03  0.00000000000E+00 0.  1.
          2    1    1    2  501    0  0.90306791329E+01 -0.34042935397E+02 -0.35752989101E+02  0.50187158175E+02  0.00000000000E+00 0. -1.
         -2    1    1    2    0  503 -0.90306791329E+01  0.34042935397E+02 -0.63787171247E+02  0.72864791441E+02  0.00000000000E+00 0.  1.
</event>
<event>
 4    1  0.1727273E+004  0.3590790E+02  0.7546771E-02  0.1374290E+00
         21   -1    0    0  501  502  0.00000000000E+00  0.00000000000E+00  0.42324424455E+03  0.42324424455E+03  0.00000000000E+00 0. -1.
         21   -1    0    0  502  503 -0.00000000000E+00 -0.00000000000E+00 -0.53923027092E+01  0.53923027092E+01  0.00000000000E+00 0.  1.
          2    1    1    2  501    0  0.27488382929E+02  0.23103375310E+02  0.35028572551E+03  0.35212138055E+03  0.00000000000E+00 0. -1.
         -2    1    1    2    0  503 -0.27488382929E+02 -0.23103375310E+02  0.67566216331E+02  0.76515166706E+02  0.00000000000E+00 0.  1.
</event>
<event>
 4    1  0.1727273E+004  0.2858277E+02  0.7546771E-02  0.1432325E+00
         21   -1    0    0  501  502  0.00000000000E+00  0.00000000000E+00  0.36840571335E+03  0.36840571335E+03  0.00000000000E+00 0.  1.
         21   -1    0    0  502  503 -0.00000000000E+00 -0.00000000000E+00 -0.86643969317E+01  0.86643969317E+01  0.00000000000E+00 0. -1.
          2    1    1    2  501    0  0.27702882217E+02  0.70374046789E+01  0.34249857495E+03  0.34368917439E+03  0.00000000000E+00 0.  1.
         -2    1    1    2    0  503 -0.27702882217E+02 -0.70374046789E+01  0.17242741464E+02  0.33380935891E+02  0.00000000000E+00 0. -1.
</event>
<event>
 4    1  0.1727273E+004  0.2078228E+02  0.7546771E-02  0.1522396E+00
         21   -1    0    0  503  502  0.00000000000E+00  0.00000000000E+00  0.19529853964E+03  0.19529853964E+03  0.00000000000E+00 0.  1.
         21   -1    0    0  501  503 -0.00000000000E+00 -0.00000000000E+00 -0.26901273069E+01  0.26901273069E+01  0.00000000000E+00 0. -1.
          2    1    1    2  501    0 -0.17348901890E+02 -0.11441970502E+02  0.54547925603E+02  0.58372761399E+02  0.00000000000E+00 0. -1.
         -2    1    1    2    0  502  0.17348901890E+02  0.11441970502E+02  0.13806048673E+03  0.13961590555E+03  0.00000000000E+00 0.  1.
</event>
<event>
 4    1  0.1727273E+004  0.2168687E+02  0.7546771E-02  0.1509680E+00
         21   -1    0    0  501  502  0.00000000000E+00  0.00000000000E+00  0.46585142598E+02  0.46585142598E+02  0.00000000000E+00 0.  1.
         21   -1    0    0  502  503 -0.00000000000E+00 -0.00000000000E+00 -0.12213802591E+02  0.12213802591E+02  0.00000000000E+00 0. -1.
          2    1    1    2  501    0 -0.11328549837E+02  0.18492814036E+02  0.29428005707E+02  0.36555816668E+02  0.00000000000E+00 0.  1.
         -2    1    1    2    0  503  0.11328549837E+02 -0.18492814036E+02  0.49433343004E+01  0.22243128521E+02  0.00000000000E+00 0. -1.
</event>
<event>
 4    1  0.1727273E+004  0.2372977E+02  0.7546771E-02  0.1483532E+00
         21   -1    0    0  501  502  0.00000000000E+00  0.00000000000E+00  0.19773229123E+03  0.19773229123E+03  0.00000000000E+00 0. -1.
         21   -1    0    0  502  503 -0.00000000000E+00 -0.00000000000E+00 -0.28481226230E+01  0.28481226230E+01  0.00000000000E+00 0.  1.
          2    1    1    2  501    0  0.22203293666E+02 -0.83735041500E+01  0.98511135099E+02  0.10132889795E+03  0.00000000000E+00 0.  1.
         -2    1    1    2    0  503 -0.22203293666E+02  0.83735041500E+01  0.96373033507E+02  0.99251515901E+02  0.00000000000E+00 0. -1.
</event>
<event>
 4    1  0.1727273E+004  0.2423394E+02  0.7546771E-02  0.1477559E+00
         21   -1    0    0  501  502  0.00000000000E+00  0.00000000000E+00  0.64327976678E+02  0.64327976678E+02  0.00000000000E+00 0.  1.
         21   -1    0    0  502  503 -0.00000000000E+00 -0.00000000000E+00 -0.39061115457E+02  0.39061115457E+02  0.00000000000E+00 0. -1.
          2    1    1    2  501    0 -0.19569165363E+02  0.14294457275E+02  0.57885382559E+02  0.62753495965E+02  0.00000000000E+00 0.  1.
         -2    1    1    2    0  503  0.19569165363E+02 -0.14294457275E+02 -0.32618521338E+02  0.40635596170E+02  0.00000000000E+00 0. -1.
</event>
<event>
 4    1  0.1727273E+004  0.2368700E+02  0.7546771E-02  0.1484047E+00
         21   -1    0    0  503  502  0.00000000000E+00  0.00000000000E+00  0.18628613798E+02  0.18628613798E+02  0.00000000000E+00 0.  1.
         21   -1    0    0  501  503 -0.00000000000E+00 -0.00000000000E+00 -0.71655467825E+02  0.71655467825E+02  0.00000000000E+00 0. -1.
          2    1    1    2  501    0 -0.19750616554E+02 -0.13076201470E+02 -0.60882805025E+02  0.65328323466E+02  0.00000000000E+00 0. -1.
         -2    1    1    2    0  502  0.19750616554E+02  0.13076201470E+02  0.78559509984E+01  0.24955758158E+02  0.00000000000E+00 0.  1.
</event>
<event>
 4    1  0.1727273E+004  0.3327899E+02  0.7546771E-02  0.1393083E+00
         21   -1    0    0  501  502  0.00000000000E+00  0.00000000000E+00  0.26933295821E+03  0.26933295821E+03  0.00000000000E+00 0. -1.
         21   -1    0    0  502  503 -0.00000000000E+00 -0.00000000000E+00 -0.99720574533E+01  0.99720574533E+01  0.00000000000E+00 0.  1.
          2    1    1    2  501    0  0.20914719316E+02 -0.25885633212E+02  0.23673572380E+03  0.23906336904E+03  0.00000000000E+00 0. -1.
         -2    1    1    2    0  503 -0.20914719316E+02  0.25885633212E+02  0.22625176949E+02  0.40241646621E+02  0.00000000000E+00 0.  1.
</event>
<event>
 4    1  0.1727273E+004  0.4660990E+02  0.7546771E-02  0.1313580E+00
         21   -1    0    0  503  502  0.00000000000E+00  0.00000000000E+00  0.72834750075E+01  0.72834750075E+01  0.00000000000E+00 0.  1.
         21   -1    0    0  501  503 -0.00000000000E+00 -0.00000000000E+00 -0.34716947563E+03  0.34716947563E+03  0.00000000000E+00 0. -1.
          2    1    1    2  501    0  0.30592007517E+02  0.35165497129E+02 -0.23645269013E+03  0.24100281695E+03  0.00000000000E+00 0. -1.
         -2    1    1    2    0  502 -0.30592007517E+02 -0.35165497129E+02 -0.10343331049E+03  0.11345013368E+03  0.00000000000E+00 0.  1.
</event>
<event>
 4    1  0.1727273E+004  0.2744815E+02  0.7546771E-02  0.1443158E+00
         21   -1    0    0  501  502  0.00000000000E+00  0.00000000000E+00  0.19914291206E+03  0.19914291206E+03  0.00000000000E+00 0.  1.
         21   -1    0    0  502  503 -0.00000000000E+00 -0.00000000000E+00 -0.49879534038E+01  0.49879534038E+01  0.00000000000E+00 0. -1.
          2    1    1    2  501    0  0.25083122867E+02 -0.11146201056E+02  0.14723816955E+03  0.14977476230E+03  0.00000000000E+00 0.  1.
         -2    1    1    2    0  503 -0.25083122867E+02  0.11146201056E+02  0.46916789107E+02  0.54356103161E+02  0.00000000000E+00 0. -1.
</event>
<event>
 4    1  0.1727273E+004  0.2172007E+02  0.7546771E-02  0.1509228E+00
         21   -1    0    0  501  502  0.00000000000E+00  0.00000000000E+00  0.65367372313E+03  0.65367372313E+03  0.00000000000E+00 0.  1.
         21   -1    0    0  502  503 -0.00000000000E+00 -0.00000000000E+00 -0.10203185899E+01  0.10203185899E+01  0.00000000000E+00 0. -1.
          2    1    1    2  501    0 -0.22628260330E+01 -0.21601880182E+02  0.50341629377E+03  0.50388463605E+03  0.00000000000E+00 0.  1.
         -2    1    1    2    0  503  0.22628260330E+01  0.21601880182E+02  0.14923711077E+03  0.15080940568E+03  0.00000000000E+00 0. -1.
</event>
<event>
 4    1  0.1727273E+004  0.2410960E+02  0.7546771E-02  0.1479016E+00
         21   -1    0    0  503  502  0.00000000000E+00  0.00000000000E+00  0.13945405534E+03  0.13945405534E+03  0.00000000000E+00 0.  1.
         21   -1    0    0  501  503 -0.00000000000E+00 -0.00000000000E+00 -0.42422987007E+01  0.42422987007E+01  0.00000000000E+00 0. -1.
          2    1    1    2  501    0  0.16710410676E+02 -0.17379149687E+02  0.77101308438E+02  0.80782946416E+02  0.00000000000E+00 0.  1.
         -2    1    1    2    0  502 -0.16710410676E+02  0.17379149687E+02  0.58110448204E+02  0.62913407627E+02  0.00000000000E+00 0. -1.
</event>
<event>
 4    1  0.1727273E+004  0.3715980E+02  0.7546771E-02  0.1365984E+00
         21   -1    0    0  503  502  0.00000000000E+00  0.00000000000E+00  0.11514558328E+02  0.11514558328E+02  0.00000000000E+00 0.  1.
         21   -1    0    0  501  503 -0.00000000000E+00 -0.00000000000E+00 -0.13609974412E+03  0.13609974412E+03  0.00000000000E+00 0. -1.
          2    1    1    2  501    0 -0.18819747040E+02  0.32041652798E+02 -0.87739030264E+02  0.95283722767E+02  0.00000000000E+00 0.  1.
         -2    1    1    2    0  502  0.18819747040E+02 -0.32041652798E+02 -0.36846155531E+02  0.52330579685E+02  0.00000000000E+00 0. -1.
</event>
<event>
 4    1  0.1727273E+004  0.2452533E+02  0.7546771E-02  0.1474184E+00
         21   -1    0    0  501  502  0.00000000000E+00  0.00000000000E+00  0.26015289196E+01  0.26015289196E+01  0.00000000000E+00 0.  1.
         21   -1    0    0  502  503 -0.00000000000E+00 -0.00000000000E+00 -0.32840610852E+03  0.32840610852E+03  0.00000000000E+00 0. -1.
          2    1    1    2  501    0 -0.35295856468E+00 -0.24522791718E+02 -0.72862726976E+02  0.76879573853E+02  0.00000000000E+00 0.  1.
         -2    1    1    2    0  503  0.35295856468E+00  0.24522791718E+02 -0.25294185262E+03  0.25412806359E+03  0.00000000000E+00 0. -1.
</event>
<event>
 4    1  0.1727273E+004  0.2996919E+02  0.7546771E-02  0.1419864E+00
         21   -1    0    0  501  502  0.00000000000E+00  0.00000000000E+00  0.17127557133E+03  0.17127557133E+03  0.00000000000E+00 0.  1.
         21   -1    0    0  502  503 -0.00000000000E+00 -0.00000000000E+00 -0.53662754473E+01  0.53662754473E+01  0.00000000000E+00 0. -1.
          2    1    1    2  501    0  0.18425326008E+02 -0.23635987615E+02  0.96291958132E+02  0.10084787430E+03  0.00000000000E+00 0.  1.
         -2    1    1    2    0  503 -0.18425326008E+02  0.23635987615E+02  0.69617337752E+02  0.75793972483E+02  0.00000000000E+00 0. -1.
</event>
<event>
 4    1  0.1727273E+004  0.2853991E+02  0.7546771E-02  0.1432724E+00
         21   -1    0    0  503  502  0.00000000000E+00  0.00000000000E+00  0.86229127203E+01  0.86229127203E+01  0.00000000000E+00 0. -1.
         21   -1    0    0  501  503 -0.00000000000E+00 -0.00000000000E+00 -0.15087472224E+03  0.15087472224E+03  0.00000000000E+00 0.  1.
          2    1    1    2  501    0 -0.19380434470E+02  0.20950541641E+02 -0.11989104916E+03  0.12324118672E+03  0.00000000000E+00 0.  1.
         -2    1    1    2    0  502  0.19380434470E+02 -0.20950541641E+02 -0.22360760365E+02  0.36256448246E+02  0.00000000000E+00 0. -1.
</event>
<event>
 4    1  0.1727273E+004  0.2011210E+02  0.7546771E-02  0.1532329E+00
         21   -1    0    0  503  502  0.00000000000E+00  0.00000000000E+00  0.74497038169E+02  0.74497038169E+02  0.00000000000E+00 0.  1.
         21   -1    0    0  501  503 -0.00000000000E+00 -0.00000000000E+00 -0.62247044912E+01  0.62247044912E+01  0.00000000000E+00 0. -1.
          2    1    1    2  501    0  0.19836336292E+02 -0.33190686875E+01  0.19712144977E+02  0.28161411791E+02  0.00000000000E+00 0. -1.
         -2    1    1    2    0  502 -0.19836336292E+02  0.33190686875E+01  0.48560188700E+02  0.52560330869E+02  0.00000000000E+00 0.  1.
</event>
<event>
 4    1  0.1727273E+004  0.3382872E+02  0.7546771E-02  0.1388990E+00
         21   -1    0    0  501  502  0.00000000000E+00  0.00000000000E+00  0.39928720453E+03  0.39928720453E+03  0.00000000000E+00 0. -1.
         21   -1    0    0  502  503 -0.00000000000E+00 -0.00000000000E+00 -0.50545130539E+01  0.50545130539E+01  0.00000000000E+00 0.  1.
          2    1    1    2  501    0  0.40348120238E+01 -0.33587238455E+02  0.64087074666E+02  0.72467478460E+02  0.00000000000E+00 0.  1.
         -2    1    1    2    0  503 -0.40348120238E+01  0.33587238455E+02  0.33014561681E+03  0.33187423912E+03  0.00000000000E+00 0. -1.
</event>
<event>
 4    1  0.1727273E+004  0.2357900E+02  0.7546771E-02  0.1485353E+00
         21   -1    0    0  501  502  0.00000000000E+00  0.00000000000E+00  0.49484885101E+02  0.49484885101E+02  0.00000000000E+00 0. -1.
         21   -1    0    0  502  503 -0.00000000000E+00 -0.00000000000E+00 -0.21783048551E+02  0.21783048551E+02  0.00000000000E+00 0.  1.
          2    1    1    2  501    0 -0.19541461104E+02 -0.13194716008E+02  0.38647292233E+02  0.45272314162E+02  0.00000000000E+00 0. -1.
         -2    1    1    2    0  503  0.19541461104E+02  0.13194716008E+02 -0.10945455683E+02  0.25995619491E+02  0.00000000000E+00 0.  1.
</event>
<event>
 4    1  0.1727273E+004  0.2163868E+02  0.7546771E-02  0.1510338E+00
         21   -1    0    0  501  502  0.00000000000E+00  0.00000000000E+00  0.27138177236E+02  0.27138177236E+02  0.00000000000E+00 0. -1.
         21   -1    0    0  502  503 -0.00000000000E+00 -0.00000000000E+00 -0.17637670946E+02  0.17637670946E+02  0.00000000000E+00 0.  1.
          2    1    1    2  501    0 -0.15540963363E+02  0.15056924485E+02  0.80537403795E+01  0.23088855565E+02  0.00000000000E+00 0. -1.
         -2    1    1    2    0  503  0.15540963363E+02 -0.15056924485E+02  0.14467659110E+01  0.21686992617E+02  0.00000000000E+00 0.  1.
</event>
<event>
 4    1  0.1727273E+004  0.2129235E+02  0.7546771E-02  0.1515132E+00
         21   -1    0    0  503  502  0.00000000000E+00  0.00000000000E+00  0.83164307652E+02  0.83164307652E+02  0.00000000000E+00 0.  1.
         21   -1    0    0  501  503 -0.00000000000E+00 -0.00000000000E+00 -0.13147538779E+02  0.13147538779E+02  0.00000000000E+00 0. -1.
          2    1    1    2  501    0 -0.19385862738E+02  0.88063860486E+01 -0.18353107793E+01  0.21371300264E+02  0.00000000000E+00 0. -1.
         -2    1    1    2    0  502  0.19385862738E+02 -0.88063860486E+01  0.71852079652E+02  0.74940546166E+02  0.00000000000E+00 0.  1.
</event>
<event>
 4    1  0.1727273E+004  0.2071522E+02  0.7546771E-02  0.1523370E+00
         21   -1    0    0  501  502  0.00000000000E+00  0.00000000000E+00  0.35805889287E+02  0.35805889287E+02  0.00000000000E+00 0. -1.
         21   -1    0    0  502  503 -0.00000000000E+00 -0.00000000000E+00 -0.14106524513E+02  0.14106524513E+02  0.00000000000E+00 0.  1.
          2    1    1    2  501    0 -0.10263411439E+02 -0.17993963435E+02  0.20528681716E+02  0.29164140781E+02  0.00000000000E+00 0. -1.
         -2    1    1    2    0  503  0.10263411439E+02  0.17993963435E+02  0.11706830576E+01  0.20748273019E+02  0.00000000000E+00 0.  1.
</event>
<event>
 4    1  0.1727273E+004  0.3341468E+02  0.7546771E-02  0.1392065E+00
         21   -1    0    0  501  502  0.00000000000E+00  0.00000000000E+00  0.21106047933E+03  0.21106047933E+03  0.00000000000E+00 0.  1.
         21   -1    0    0  502  503 -0.00000000000E+00 -0.00000000000E+00 -0.10736783737E+02  0.10736783737E+02  0.00000000000E+00 0. -1.
          2    1    1    2  501    0  0.30948425473E+02  0.12599035677E+02  0.17914843178E+03  0.18223803485E+03  0.00000000000E+00 0.  1.
         -2    1    1    2    0  503 -0.30948425473E+02 -0.12599035677E+02  0.21175263820E+02  0.39559228217E+02  0.00000000000E+00 0. -1.
</event>
<event>
 4    1  0.1727273E+004  0.2189047E+02  0.7546771E-02  0.1506921E+00
         21   -1    0    0  503  502  0.00000000000E+00  0.00000000000E+00  0.20977569601E+01  0.20977569601E+01  0.00000000000E+00 0.  1.
         21   -1    0    0  501  503 -0.00000000000E+00 -0.00000000000E+00 -0.22944341688E+03  0.22944341688E+03  0.00000000000E+00 0. -1.
          2    1    1    2  501    0 -0.15865779687E+02 -0.15082101769E+02 -0.12136300396E+03  0.12332141537E+03  0.00000000000E+00 0.  1.
         -2    1    1    2    0  502  0.15865779687E+02  0.15082101769E+02 -0.10598265596E+03  0.10821975847E+03  0.00000000000E+00 0. -1.
</event>
<event>
 4    1  0.1727273E+004  0.6413626E+02  0.7546771E-02  0.1246391E+00
         21   -1    0    0  503  502  0.00000000000E+00  0.00000000000E+00  0.39574025226E+03  0.39574025226E+03  0.00000000000E+00 0. -1.
         21   -1    0    0  501  503 -0.00000000000E+00 -0.00000000000E+00 -0.10419289413E+02  0.10419289413E+02  0.00000000000E+00 0.  1.
          2    1    1    2  501    0 -0.63659872882E+02 -0.78026229286E+01  0.18272377513E+03  0.19365288104E+03  0.00000000000E+00 0.  1.
         -2    1    1    2    0  502  0.63659872882E+02  0.78026229286E+01  0.20259718772E+03  0.21250666063E+03  0.00000000000E+00 0. -1.
</event>
<event>
 4    1  0.1727273E+004  0.2298890E+02  0.7546771E-02  0.1492638E+00
         21   -1    0    0  503  502  0.00000000000E+00  0.00000000000E+00  0.40873336568E+01  0.40873336568E+01  0.00000000000E+00 0. -1.
         21   -1    0    0  501  503 -0.00000000000E+00 -0.00000000000E+00 -0.16617198339E+03  0.16617198339E+03  0.00000000000E+00 0.  1.
          2    1    1    2  501    0  0.10377019738E+01  0.22965469754E+02 -0.12114321451E+03  0.12330518257E+03  0.00000000000E+00 0.  1.
         -2    1    1    2    0  502 -0.10377019738E+01 -0.22965469754E+02 -0.40941435217E+02  0.46954134472E+02  0.00000000000E+00 0. -1.
</event>
<event>
 4    1  0.1727273E+004  0.2461366E+02  0.7546771E-02  0.1473172E+00
         21   -1    0    0  501  502  0.00000000000E+00  0.00000000000E+00  0.26633705361E+02  0.26633705361E+02  0.00000000000E+00 0. -1.
         21   -1    0    0  502  503 -0.00000000000E+00 -0.00000000000E+00 -0.45121013656E+02  0.45121013656E+02  0.00000000000E+00 0.  1.
          2    1    1    2  501    0  0.14912594361E+02 -0.19581795322E+02  0.16020497355E+02  0.29368154762E+02  0.00000000000E+00 0. -1.
         -2    1    1    2    0  503 -0.14912594361E+02  0.19581795322E+02 -0.34507805650E+02  0.42386564255E+02  0.00000000000E+00 0.  1.
</event>
<event>
 4    1  0.1727273E+004  0.3594675E+02  0.7546771E-02  0.1374027E+00
         21   -1    0    0  501  502  0.00000000000E+00  0.00000000000E+00  0.13392962417E+03  0.13392962417E+03  0.00000000000E+00 0. -1.
         21   -1    0    0  502  503 -0.00000000000E+00 -0.00000000000E+00 -0.96493280282E+01  0.96493280282E+01  0.00000000000E+00 0.  1.
          2    1    1    2  501    0 -0.29150708662E+02  0.21033420366E+02  0.62944632918E+02  0.72485828967E+02  0.00000000000E+00 0. -1.
         -2    1    1    2    0  503  0.29150708662E+02 -0.21033420366E+02  0.61335663228E+02  0.71093123236E+02  0.00000000000E+00 0.  1.
</event>
<event>
 4    1  0.1727273E+004  0.2010455E+02  0.7546771E-02  0.1532444E+00
         21   -1    0    0  503  502  0.00000000000E+00  0.00000000000E+00  0.73747234579E+02  0.73747234579E+02  0.00000000000E+00 0.  1.
         21   -1    0    0  501  503 -0.00000000000E+00 -0.00000000000E+00 -0.29929072487E+02  0.29929072487E+02  0.00000000000E+00 0. -1.
          2    1    1    2  501    0  0.19823716839E+02 -0.33485948894E+01 -0.24942807818E+02  0.32036486993E+02  0.00000000000E+00 0. -1.
         -2    1    1    2    0  502 -0.19823716839E+02  0.33485948894E+01  0.68760969910E+02  0.71639820072E+02  0.00000000000E+00 0.  1.
</event>
<event>
 4    1  0.1727273E+004  0.2351118E+02  0.7546771E-02  0.1486177E+00
         21   -1    0    0  501  502  0.00000000000E+00  0.00000000000E+00  0.39263492244E+02  0.39263492244E+02  0.00000000000E+00 0. -1.
         21   -1    0    0  502  503 -0.00000000000E+00 -0.00000000000E+00 -0.28948505699E+02  0.28948505699E+02  0.00000000000E+00 0.  1.
          2    1    1    2  501    0 -0.23507779025E+02 -0.40016736011E+00  0.29601450012E+02  0.37802402720E+02  0.00000000000E+00 0. -1.
         -2    1    1    2    0  503  0.23507779025E+02  0.40016736011E+00 -0.19286463467E+02  0.30409595224E+02  0.00000000000E+00 0.  1.
</event>
<event>
 4    1  0.1727273E+004  0.2063980E+02  0.7546771E-02  0.1524470E+00
         21   -1    0    0  503  502  0.00000000000E+00  0.00000000000E+00  0.52819974808E+02  0.52819974808E+02  0.00000000000E+00 0. -1.
         21   -1    0    0  501  503 -0.00000000000E+00 -0.00000000000E+00 -0.82202425894E+01  0.82202425894E+01  0.00000000000E+00 0.  1.
          2    1    1    2  501    0 -0.10220193958E+00  0.20639544492E+02  0.26491983072E+02  0.33583126852E+02  0.00000000000E+00 0. -1.
         -2    1    1    2    0  502  0.10220193958E+00 -0.20639544492E+02  0.18107749147E+02  0.27457090546E+02  0.00000000000E+00 0.  1.
</event>
<event>
 4    1  0.1727273E+004  0.2209230E+02  0.7546771E-02  0.1504222E+00
         21   -1    0    0  501  502  0.00000000000E+00  0.00000000000E+00  0.18377588600E+01  0.18377588600E+01  0.00000000000E+00 0. -1.
         21   -1    0    0  502  503 -0.00000000000E+00 -0.00000000000E+00 -0.37076980051E+03  0.37076980051E+03  0.00000000000E+00 0.  1.
          2    1    1    2  501    0  0.23804827893E+01  0.21963673502E+02 -0.85232376677E+02  0.88049007297E+02  0.00000000000E+00 0. -1.
         -2    1    1    2    0  503 -0.23804827893E+01 -0.21963673502E+02 -0.28369966497E+03  0.28455855207E+03  0.00000000000E+00 0.  1.
</event>
<event>
 4    1  0.1727273E+004  0.3188076E+02  0.7546771E-02  0.1403927E+00
         21   -1    0    0  501  502  0.00000000000E+00  0.00000000000E+00  0.32098340997E+02  0.32098340997E+02  0.00000000000E+00 0. -1.
         21   -1    0    0  502  503 -0.00000000000E+00 -0.00000000000E+00 -0.14324148248E+03  0.14324148248E+03  0.00000000000E+00 0.  1.
          2    1    1    2  501    0 -0.22073189234E+02  0.23003414455E+02  0.21803877562E+02  0.38623721161E+02  0.00000000000E+00 0. -1.
         -2    1    1    2    0  503  0.22073189234E+02 -0.23003414455E+02 -0.13294701904E+03  0.13671610231E+03  0.00000000000E+00 0.  1.
</event>
<event>
 4    1  0.1727273E+004  0.2850126E+02  0.7546771E-02  0.1433084E+00
         21   -1    0    0  503  502  0.00000000000E+00  0.00000000000E+00  0.42885546913E+01  0.42885546913E+01  0.00000000000E+00 0. -1.
         21   -1    0    0  501  503 -0.00000000000E+00 -0.00000000000E+00 -0.35674178290E+03  0.35674178290E+03  0.00000000000E+00 0.  1.
          2    1    1    2  501    0  0.21790163583E+02  0.18371462831E+02 -0.29985489857E+03  0.30120637788E+03  0.00000000000E+00 0.  1.
         -2    1    1    2    0  502 -0.21790163583E+02 -0.18371462831E+02 -0.52598329641E+02  0.59823959720E+02  0.00000000000E+00 0. -1.
</event>
<event>
 4    1  0.1727273E+004  0.2100648E+02  0.7546771E-02  0.1519172E+00
         21   -1    0    0  501  502  0.00000000000E+00  0.00000000000E+00  0.35331322131E+01  0.35331322131E+01  0.00000000000E+00 0.  1.
         21   -1    0    0  502  503 -0.00000000000E+00 -0.00000000000E+00 -0.12498112090E+03  0.12498112090E+03  0.00000000000E+00 0. -1.
          2    1    1    2  501    0 -0.74904787409E+01  0.19625618859E+02 -0.59041784824E+02  0.62667412126E+02  0.00000000000E+00 0.  1.
         -2    1    1    2    0  503  0.74904787409E+01 -0.19625618859E+02 -0.62406203860E+02  0.65846840984E+02  0.00000000000E+00 0. -1.
</event>
<event>
 4    1  0.1727273E+004  0.2000155E+02  0.7546771E-02  0.1534012E+00
         21   -1    0    0  503  502  0.00000000000E+00  0.00000000000E+00  0.35415787639E+02  0.35415787639E+02  0.00000000000E+00 0.  1.
         21   -1    0    0  501  503 -0.00000000000E+00 -0.00000000000E+00 -0.16052799766E+02  0.16052799766E+02  0.00000000000E+00 0. -1.
          2    1    1    2  501    0 -0.23718789730E+01  0.19860420583E+02 -0.43268682349E+01  0.20464210327E+02  0.00000000000E+00 0. -1.
         -2    1    1    2    0  502  0.23718789730E+01 -0.19860420583E+02  0.23689856107E+02  0.31004377078E+02  0.00000000000E+00 0.  1.
</event>
<event>
 4    1  0.1727273E+004  0.2521674E+02  0.7546771E-02  0.1466393E+00
         21   -1    0    0  503  502  0.00000000000E+00  0.00000000000E+00  0.45926699771E+02  0.45926699771E+02  0.00000000000E+00 0. -1.
         21   -1    0    0  501  503 -0.00000000000E+00 -0.00000000000E+00 -0.19998305843E+02  0.19998305843E+02  0.00000000000E+00 0.  1.
          2    1    1    2  501    0 -0.22622777394E+02 -0.11139747888E+02 -0.53191471881E+01  0.25771638808E+02  0.00000000000E+00 0.  1.
         -2    1    1    2    0  502  0.22622777394E+02  0.11139747888E+02  0.31247541116E+02  0.40153366806E+02  0.00000000000E+00 0. -1.
</event>
<event>
 4    1  0.1727273E+004  0.2902202E+02  0.7546771E-02  0.1428290E+00
         21   -1    0    0  501  502  0.00000000000E+00  0.00000000000E+00  0.13313417889E+03  0.13313417889E+03  0.00000000000E+00 0.  1.
         21   -1    0    0  502  503 -0.00000000000E+00 -0.00000000000E+00 -0.75132068730E+02  0.75132068730E+02  0.00000000000E+00 0. -1.
          2    1    1    2  501    0  0.28976234604E+02  0.16295228562E+01  0.12865349111E+03  0.13188630820E+03  0.00000000000E+00 0.  1.
         -2    1    1    2    0  503 -0.28976234604E+02 -0.16295228562E+01 -0.70651380945E+02  0.76379939422E+02  0.00000000000E+00 0. -1.
</event>
<event>
 4    1  0.1727273E+004  0.2137930E+02  0.7546771E-02  0.1513918E+00
         21   -1    0    0  501  502  0.00000000000E+00  0.00000000000E+00  0.12065604579E+03  0.12065604579E+03  0.00000000000E+00 0. -1.
         21   -1    0    0  502  503 -0.00000000000E+00 -0.00000000000E+00 -0.57472262730E+01  0.57472262730E+01  0.00000000000E+00 0.  1.
          2    1    1    2  501    0  0.88537610303E+01  0.19459844324E+02  0.94353388681E+02  0.96745214771E+02  0.00000000000E+00 0. -1.
         -2    1    1    2    0  503 -0.88537610303E+01 -0.19459844324E+02  0.20555430838E+02  0.29658057294E+02  0.00000000000E+00 0.  1.
</event>
<event>
 4    1  0.1727273E+004  0.2215465E+02  0.7546771E-02  0.1503395E+00
         21   -1    0    0  503  502  0.00000000000E+00  0.00000000000E+00  0.18940944571E+03  0.18940944571E+03  0.00000000000E+00 0. -1.
         21   -1    0    0  501  503 -0.00000000000E+00 -0.00000000000E+00 -0.71225463986E+01  0.71225463986E+01  0.00000000000E+00 0.  1.
          2    1    1    2  501    0  0.10297226642E+01 -0.22130707816E+02  0.12765940822E+02  0.25569470121E+02  0.00000000000E+00 0.  1.
         -2    1    1    2    0  502 -0.10297226642E+01  0.22130707816E+02  0.16952095849E+03  0.17096252199E+03  0.00000000000E+00 0. -1.
</event>
<event>
 4    1  0.1727273E+004  0.2285466E+02  0.7546771E-02  0.1494331E+00
         21   -1    0    0  501  502  0.00000000000E+00  0.00000000000E+00  0.47963832400E+01  0.47963832400E+01  0.00000000000E+00 0. -1.
         21   -1    0    0  502  503 -0.00000000000E+00 -0.00000000000E+00 -0.35133416088E+03  0.35133416088E+03  0.00000000000E+00 0.  1.
          2    1    1    2  501    0 -0.18118440578E+02  0.13930461723E+02 -0.25353224536E+02  0.34133878291E+02  0.00000000000E+00 0. -1.
         -2    1    1    2    0  503  0.18118440578E+02 -0.13930461723E+02 -0.32118455310E+03  0.32199666582E+03  0.00000000000E+00 0.  1.
</event>
<event>
 4    1  0.1727273E+004  0.3424709E+02  0.7546771E-02  0.1385935E+00
         21   -1    0    0  501  502  0.00000000000E+00  0.00000000000E+00  0.49634871959E+02  0.49634871959E+02  0.00000000000E+00 0. -1.
         21   -1    0    0  502  503 -0.00000000000E+00 -0.00000000000E+00 -0.45436393961E+02  0.45436393961E+02  0.00000000000E+00 0.  1.
          2    1    1    2  501    0 -0.32949375830E+02 -0.93381900395E+01  0.35030704513E+02  0.48989931817E+02  0.00000000000E+00 0. -1.
         -2    1    1    2    0  503  0.32949375830E+02  0.93381900395E+01 -0.30832226516E+02  0.46081334103E+02  0.00000000000E+00 0.  1.
</event>
<event>
 4    1  0.1727273E+004  0.2124950E+02  0.7546771E-02  0.1515732E+00
         21   -1    0    0  503  502  0.00000000000E+00  0.00000000000E+00  0.73796709807E+02  0.73796709807E+02  0.00000000000E+00 0.  1.
         21   -1    0    0  501  503 -0.00000000000E+00 -0.00000000000E+00 -0.68291281223E+01  0.68291281223E+01  0.00000000000E+00 0. -1.
          2    1    1    2  501    0  0.15610940347E+02  0.14416652978E+02  0.20481621030E+02  0.29513355309E+02  0.00000000000E+00 0. -1.
         -2    1    1    2    0  502 -0.15610940347E+02 -0.14416652978E+02  0.46485960655E+02  0.51112482620E+02  0.00000000000E+00 0.  1.
</event>
<event>
 4    1  0.1727273E+004  0.2863585E+02  0.7546771E-02  0.1431833E+00
         21   -1    0    0  501  502  0.00000000000E+00  0.00000000000E+00  0.18884330303E+03  0.18884330303E+03  0.00000000000E+00 0. -1.
         21   -1    0    0  502  503 -0.00000000000E+00 -0.00000000000E+00 -0.14155951491E+02  0.14155951491E+02  0.00000000000E+00 0.  1.
          2    1    1    2  501    0  0.15751447856E+02 -0.23914507121E+02  0.17185414724E+03  0.17422359107E+03  0.00000000000E+00 0. -1.
         -2    1    1    2    0  503 -0.15751447856E+02  0.23914507121E+02  0.28332042931E+01  0.28775663450E+02  0.00000000000E+00 0.  1.
</event>
<event>
 4    1  0.1727273E+004  0.3949368E+02  0.7546771E-02  0.1351479E+00
         21   -1    0    0  503  502  0.00000000000E+00  0.00000000000E+00  0.74418847308E+03  0.74418847308E+03  0.00000000000E+00 0.  1.
         21   -1    0    0  501  503 -0.00000000000E+00 -0.00000000000E+00 -0.62079364630E+01  0.62079364630E+01  0.00000000000E+00 0. -1.
          2    1    1    2  501    0  0.10302018562E+02  0.38126360590E+02  0.63628157601E+02  0.74888539831E+02  0.00000000000E+00 0. -1.
         -2    1    1    2    0  502 -0.10302018562E+02 -0.38126360590E+02  0.67435237902E+03  0.67550786971E+03  0.00000000000E+00 0.  1.
</event>
<event>
 4    1  0.1727273E+004  0.2659507E+02  0.7546771E-02  0.1451719E+00
         21   -1    0    0  501  502  0.00000000000E+00  0.00000000000E+00  0.12673288235E+02  0.12673288235E+02  0.00000000000E+00 0.  1.
         21   -1    0    0  502  503 -0.00000000000E+00 -0.00000000000E+00 -0.17761297410E+03  0.17761297410E+03  0.00000000000E+00 0. -1.
          2    1    1    2  501    0  0.18219198548E+02 -0.19374165479E+02 -0.36802485299E+01  0.26848495544E+02  0.00000000000E+00 0.  1.
         -2    1    1    2    0  503 -0.18219198548E+02  0.19374165479E+02 -0.16125943733E+03  0.16343776679E+03  0.00000000000E+00 0. -1.
</event>
<event>
 4    1  0.1727273E+004  0.5781839E+02  0.7546771E-02  0.1267431E+00
         21   -1    0    0  501  502  0.00000000000E+00  0.00000000000E+00  0.33938636126E+03  0.33938636126E+03  0.00000000000E+00 0. -1.
         21   -1    0    0  502  503 -0.00000000000E+00 -0.00000000000E+00 -0.10666016009E+02  0.10666016009E+02  0.00000000000E+00 0.  1.
          2    1    1    2  501    0  0.53042446167E+02 -0.23010118859E+02  0.11594933143E+03  0.12956548200E+03  0.00000000000E+00 0.  1.
         -2    1    1    2    0  503 -0.53042446167E+02  0.23010118859E+02  0.21277101382E+03  0.22048689527E+03  0.00000000000E+00 0. -1.
</event>
<event>
 4    1  0.1727273E+004  0.3587651E+02  0.7546771E-02  0.1374504E+00
         21   -1    0    0  501  502  0.00000000000E+00  0.00000000000E+00  0.68848309344E+02  0.68848309344E+02  0.00000000000E+00 0.  1.
         21   -1    0    0  502  503 -0.00000000000E+00 -0.00000000000E+00 -0.53319793921E+02  0.53319793921E+02  0.00000000000E+00 0. -1.
          2    1    1    2  501    0  0.29409930101E+02 -0.20547016137E+02  0.56988243124E+02  0.67340802750E+02  0.00000000000E+00 0.  1.
         -2    1    1    2    0  503 -0.29409930101E+02  0.20547016137E+02 -0.41459727701E+02  0.54827300514E+02  0.00000000000E+00 0. -1.
</event>
<event>
 4    1  0.1727273E+004  0.2265269E+02  0.7546771E-02  0.1496906E+00
         21   -1    0    0  503  502  0.00000000000E+00  0.00000000000E+00  0.32979825181E+01  0.32979825181E+01  0.00000000000E+00 0.  1.
         21   -1    0    0  501  503 -0.00000000000E+00 -0.00000000000E+00 -0.15630513646E+03  0.15630513646E+03  0.00000000000E+00 0. -1.
          2    1    1    2  501    0  0.22633039341E+02 -0.94345265392E+00 -0.81888262507E+02  0.84963710542E+02  0.00000000000E+00 0. -1.
         -2    1    1    2    0  502 -0.22633039341E+02  0.94345265392E+00 -0.71118891440E+02  0.74639408440E+02  0.00000000000E+00 0.  1.
</event>
<event>
 4    1  0.1727273E+004  0.2679859E+02  0.7546771E-02  0.1449642E+00
         21   -1    0    0  503  502  0.00000000000E+00  0.00000000000E+00  0.40894475714E+02  0.40894475714E+02  0.00000000000E+00 0. -1.
         21   -1    0    0  501  503 -0.00000000000E+00 -0.00000000000E+00 -0.23986810517E+02  0.23986810517E+02  0.00000000000E+00 0.  1.
          2    1    1    2  501    0  0.23583873893E+02 -0.12726550327E+02  0.25243948273E+02  0.36816044266E+02  0.00000000000E+00 0.  1.
         -2    1    1    2    0  502 -0.23583873893E+02  0.12726550327E+02 -0.83362830755E+01  0.28065241965E+02  0.00000000000E+00 0. -1.
</event>
<event>
 4    1  0.1727273E+004  0.2141737E+02  0.7546771E-02  0.1513389E+00
         21   -1    0    0  501  502  0.00000000000E+00  0.00000000000E+00  0.62705575930E+02  0.62705575930E+02  0.00000000000E+00 0. -1.
         21   -1    0    0  502  503 -0.00000000000E+00 -0.00000000000E+00 -0.86910739197E+01  0.86910739197E+01  0.00000000000E+00 0.  1.
          2    1    1    2  501    0  0.20714972616E+02 -0.54399943641E+01  0.41210932942E+02  0.46443994479E+02  0.00000000000E+00 0. -1.
         -2    1    1    2    0  503 -0.20714972616E+02  0.54399943641E+01  0.12803569068E+02  0.24952655371E+02  0.00000000000E+00 0.  1.
</event>
<event>
 4    1  0.1727273E+004  0.2249475E+02  0.7546771E-02  0.1498942E+00
         21   -1    0    0  501  502  0.00000000000E+00  0.00000000000E+00  0.28564439447E+02  0.28564439447E+02  0.00000000000E+00 0. -1.
         21   -1    0    0  502  503 -0.00000000000E+00 -0.00000000000E+00 -0.23929342816E+02  0.23929342816E+02  0.00000000000E+00 0.  1.
          2    1    1    2  501    0 -0.24940114002E+00  0.22493364579E+02  0.15693253443E+02  0.27427939307E+02  0.00000000000E+00 0. -1.
         -2    1    1    2    0  503  0.24940114002E+00 -0.22493364579E+02 -0.11058156812E+02  0.25065842956E+02  0.00000000000E+00 0.  1.
</event>
<event>
 4    1  0.1727273E+004  0.2069149E+02  0.7546771E-02  0.1523715E+00
         21   -1    0    0  503  502  0.00000000000E+00  0.00000000000E+00  0.84614049131E+02  0.84614049131E+02  0.00000000000E+00 0.  1.
         21   -1    0    0  501  503 -0.00000000000E+00 -0.00000000000E+00 -0.36515147701E+02  0.36515147701E+02  0.00000000000E+00 0. -1.
          2    1    1    2  501    0  0.16404220100E+02  0.12611083961E+02 -0.32162534987E+02  0.38243516215E+02  0.00000000000E+00 0. -1.
         -2    1    1    2    0  502 -0.16404220100E+02 -0.12611083961E+02  0.80261436416E+02  0.82885680617E+02  0.00000000000E+00 0.  1.
</event>
<event>
 4    1  0.1727273E+004  0.2587470E+02  0.7546771E-02  0.1459252E+00
         21   -1    0    0  503  502  0.00000000000E+00  0.00000000000E+00  0.51835152514E+03  0.51835152514E+03  0.00000000000E+00 0. -1.
         21   -1    0    0  501  503 -0.00000000000E+00 -0.00000000000E+00 -0.13850586255E+01  0.13850586255E+01  0.00000000000E+00 0.  1.
          2    1    1    2  501    0 -0.12238980960E+02  0.22797092607E+02  0.19097741497E+03  0.19272226938E+03  0.00000000000E+00 0.  1.
         -2    1    1    2    0  502  0.12238980960E+02 -0.22797092607E+02  0.32598905154E+03  0.32701431438E+03  0.00000000000E+00 0. -1.
</event>
<event>
 4    1  0.1727273E+004  0.6544395E+02  0.7546771E-02  0.1242379E+00
         21   -1    0    0  501  502  0.00000000000E+00  0.00000000000E+00  0.67374142196E+03  0.67374142196E+03  0.00000000000E+00 0. -1.
         21   -1    0    0  502  503 -0.00000000000E+00 -0.00000000000E+00 -0.91105331272E+01  0.91105331272E+01  0.00000000000E+00 0.  1.
          2    1    1    2  501    0 -0.65420421034E+02 -0.17548500944E+01  0.52002104020E+03  0.52412287991E+03  0.00000000000E+00 0. -1.
         -2    1    1    2    0  503  0.65420421034E+02  0.17548500944E+01  0.14460984863E+03  0.15872907518E+03  0.00000000000E+00 0.  1.
</event>
<event>
 4    1  0.1727273E+004  0.2471310E+02  0.7546771E-02  0.1472039E+00
         21   -1    0    0  503  502  0.00000000000E+00  0.00000000000E+00  0.93727949349E+03  0.93727949349E+03  0.00000000000E+00 0. -1.
         21   -1    0    0  501  503 -0.00000000000E+00 -0.00000000000E+00 -0.55945192810E+01  0.55945192810E+01  0.00000000000E+00 0.  1.
          2    1    1    2  501    0  0.15899370578E+02 -0.18919497117E+02  0.22709827880E+02  0.33562980176E+02  0.00000000000E+00 0.  1.
         -2    1    1    2    0  502 -0.15899370578E+02  0.18919497117E+02  0.90897514633E+03  0.90931103259E+03  0.00000000000E+00 0. -1.
</event>
<event>
 4    1  0.1727273E+004  0.2964178E+02  0.7546771E-02  0.1422735E+00
         21   -1    0    0  503  502  0.00000000000E+00  0.00000000000E+00  0.25425078107E+02  0.25425078107E+02  0.00000000000E+00 0. -1.
         21   -1    0    0  501  503 -0.00000000000E+00 -0.00000000000E+00 -0.40022038481E+02  0.40022038481E+02  0.00000000000E+00 0.  1.
          2    1    1    2  501    0  0.13717855795E+01  0.29610024773E+02 -0.19389830575E+02  0.35420345742E+02  0.00000000000E+00 0.  1.
         -2    1    1    2    0  502 -0.13717855795E+01 -0.29610024773E+02  0.47928702003E+01  0.30026770847E+02  0.00000000000E+00 0. -1.
</event>
<event>
 4    1  0.1727273E+004  0.3015442E+02  0.7546771E-02  0.1418259E+00
         21   -1    0    0  501  502  0.00000000000E+00  0.00000000000E+00  0.14498272428E+02  0.14498272428E+02  0.00000000000E+00 0.  1.
         21   -1    0    0  502  503 -0.00000000000E+00 -0.00000000000E+00 -0.70958882416E+02  0.70958882416E+02  0.00000000000E+00 0. -1.
          2    1    1    2  501    0  0.16522521499E+02 -0.25224890245E+02 -0.13668102307E+02  0.33107488960E+02  0.00000000000E+00 0. -1.
         -2    1    1    2    0  503 -0.16522521499E+02  0.25224890245E+02 -0.42792507681E+02  0.52349665884E+02  0.00000000000E+00 0.  1.
</event>
<event>
 4    1  0.1727273E+004  0.2139960E+02  0.7546771E-02  0.1513635E+00
         21   -1    0    0  501  502  0.00000000000E+00  0.00000000000E+00  0.60274330868E+01  0.60274330868E+01  0.00000000000E+00 0.  1.
         21   -1    0    0  502  503 -0.00000000000E+00 -0.00000000000E+00 -0.10182018454E+03  0.10182018454E+03  0.00000000000E+00 0. -1.
          2    1    1    2  501    0 -0.20168548863E+02 -0.71535107885E+01 -0.20729412123E+02  0.29793482623E+02  0.00000000000E+00 0.  1.
         -2    1    1    2    0  503  0.20168548863E+02  0.71535107885E+01 -0.75063339331E+02  0.78054135005E+02  0.00000000000E+00 0. -1.
</event>
<event>
 4    1  0.1727273E+004  0.5574034E+02  0.7546771E-02  0.1275035E+00
         21   -1    0    0  501  502  0.00000000000E+00  0.00000000000E+00  0.43118649140E+01  0.43118649140E+01  0.00000000000E+00 0. -1.
         21   -1    0    0  502  503 -0.00000000000E+00 -0.00000000000E+00 -0.92391164808E+03  0.92391164808E+03  0.00000000000E+00 0.  1.
          2    1    1    2  501    0  0.45299054179E+02 -0.32480480494E+02 -0.24206695567E+03  0.24840168468E+03  0.00000000000E+00 0. -1.
         -2    1    1    2    0  503 -0.45299054179E+02  0.32480480494E+02 -0.67753282749E+03  0.67982182832E+03  0.00000000000E+00 0.  1.
</event>
<event>
 4    1  0.1727273E+004  0.2736950E+02  0.7546771E-02  0.1443931E+00
         21   -1    0    0  501  502  0.00000000000E+00  0.00000000000E+00  0.11613318247E+02  0.11613318247E+02  0.00000000000E+00 0. -1.
         21   -1    0    0  502  503 -0.00000000000E+00 -0.00000000000E+00 -0.85128332431E+02  0.85128332431E+02  0.00000000000E+00 0.  1.
          2    1    1    2  501    0 -0.12480638105E+02 -0.24358223572E+02 -0.12947968570E+02  0.30277702575E+02  0.00000000000E+00 0. -1.
         -2    1    1    2    0  503  0.12480638105E+02  0.24358223572E+02 -0.60567045614E+02  0.66463948103E+02  0.00000000000E+00 0.  1.
</event>
<event>
 4    1  0.1727273E+004  0.2023207E+02  0.7546771E-02  0.1530517E+00
         21   -1    0    0  503  502  0.00000000000E+00  0.00000000000E+00  0.18104736655E+02  0.18104736655E+02  0.00000000000E+00 0. -1.
         21   -1    0    0  501  503 -0.00000000000E+00 -0.00000000000E+00 -0.39844337689E+02  0.39844337689E+02  0.00000000000E+00 0.  1.
          2    1    1    2  501    0  0.18608418190E+02 -0.79412544890E+01 -0.29926092387E+02  0.36123506972E+02  0.00000000000E+00 0.  1.
         -2    1    1    2    0  502 -0.18608418190E+02  0.79412544890E+01  0.81864913531E+01  0.21825567371E+02  0.00000000000E+00 0. -1.
</event>
<event>
 4    1  0.1727273E+004  0.2483816E+02  0.7546771E-02  0.1470622E+00
         21   -1    0    0  501  502  0.00000000000E+00  0.00000000000E+00  0.97963387081E+03  0.97963387081E+03  0.00000000000E+00 0. -1.
         21   -1    0    0  502  503 -0.00000000000E+00 -0.00000000000E+00 -0.14918226697E+01  0.14918226697E+01  0.00000000000E+00 0.  1.
          2    1    1    2  501    0  0.24369463861E+02  0.48024248644E+01  0.86198230055E+03  0.86234008403E+03  0.00000000000E+00 0. -1.
         -2    1    1    2    0  503 -0.24369463861E+02 -0.48024248644E+01  0.11615974759E+03  0.11878560946E+03  0.00000000000E+00 0.  1.
</event>
<event>
 4    1  0.1727273E+004  0.2275100E+02  0.7546771E-02  0.1495649E+00
         21   -1    0    0  501  502  0.00000000000E+00  0.00000000000E+00  0.18203929039E+03  0.18203929039E+03  0.00000000000E+00 0.  1.
         21   -1    0    0  502  503 -0.00000000000E+00 -0.00000000000E+00 -0.25867127238E+02  0.25867127238E+02  0.00000000000E+00 0. -1.
          2    1    1    2  501    0 -0.20840847029E+02  0.91250873093E+01  0.17615959633E+03  0.17762266607E+03  0.00000000000E+00 0.  1.
         -2    1    1    2    0  503  0.20840847029E+02 -0.91250873093E+01 -0.19987433177E+02  0.30283751556E+02  0.00000000000E+00 0. -1.
</event>
<event>
 4    1  0.1727273E+004  0.2063252E+02  0.7546771E-02  0.1524577E+00
         21   -1    0    0  503  502  0.00000000000E+00  0.00000000000E+00  0.28785563186E+01  0.28785563186E+01  0.00000000000E+00 0. -1.
         21   -1    0    0  501  503 -0.00000000000E+00 -0.00000000000E+00 -0.98130052879E+03  0.98130052879E+03  0.00000000000E+00 0.  1.
          2    1    1    2  501    0  0.17487402751E+02 -0.10949500992E+02 -0.94270693680E+03  0.94293269618E+03  0.00000000000E+00 0.  1.
         -2    1    1    2    0  502 -0.17487402751E+02  0.10949500992E+02 -0.35715035670E+02  0.41246388931E+02  0.00000000000E+00 0. -1.
</event>
<event>
 4    1  0.1727273E+004  0.3971674E+02  0.7546771E-02  0.1350154E+00
         21   -1    0    0  501  502  0.00000000000E+00  0.00000000000E+00  0.16651219874E+03  0.16651219874E+03  0.00000000000E+00 0. -1.
         21   -1    0    0  502  503 -0.00000000000E+00 -0.00000000000E+00 -0.13330789175E+02  0.13330789175E+02  0.00000000000E+00 0.  1.
          2    1    1    2  501    0 -0.20321700280E+02  0.34124012032E+02  0.12496203686E+03  0.13112181495E+03  0.00000000000E+00 0.  1.
         -2    1    1    2    0  503  0.20321700280E+02 -0.34124012032E+02  0.28219372709E+02  0.48721172970E+02  0.00000000000E+00 0. -1.
</event>
<event>
 4    1  0.1727273E+004  0.2663520E+02  0.7546771E-02  0.1451307E+00
         21   -1    0    0  503  502  0.00000000000E+00  0.00000000000E+00  0.14016858942E+02  0.14016858942E+02  0.00000000000E+00 0. -1.
         21   -1    0    0  501  503 -0.00000000000E+00 -0.00000000000E+00 -0.61685569362E+02  0.61685569362E+02  0.00000000000E+00 0.  1.
          2    1    1    2  501    0  0.66343998492E+01 -0.25795706915E+02 -0.39871031565E+02  0.47949274391E+02  0.00000000000E+00 0. -1.
         -2    1    1    2    0  502 -0.66343998492E+01  0.25795706915E+02 -0.77976788553E+01  0.27753153914E+02  0.00000000000E+00 0.  1.
</event>
<event>
 4    1  0.1727273E+004  0.5660260E+02  0.7546771E-02  0.1271834E+00
         21   -1    0    0  503  502  0.00000000000E+00  0.00000000000E+00  0.21418914982E+03  0.21418914982E+03  0.00000000000E+00 0.  1.
         21   -1    0    0  501  503 -0.00000000000E+00 -0.00000000000E+00 -0.17084821212E+02  0.17084821212E+02  0.00000000000E+00 0. -1.
          2    1    1    2  501    0  0.45448591088E+02  0.33738403416E+02  0.57753040146E+02  0.80865740231E+02  0.00000000000E+00 0. -1.
         -2    1    1    2    0  502 -0.45448591088E+02 -0.33738403416E+02  0.13935128847E+03  0.15040823081E+03  0.00000000000E+00 0.  1.
</event>
<event>
 4    1  0.1727273E+004  0.3548600E+02  0.7546771E-02  0.1377178E+00
         21   -1    0    0  501  502  0.00000000000E+00  0.00000000000E+00  0.57447933802E+02  0.57447933802E+02  0.00000000000E+00 0. -1.
         21   -1    0    0  502  503 -0.00000000000E+00 -0.00000000000E+00 -0.41798911760E+02  0.41798911760E+02  0.00000000000E+00 0.  1.
          2    1    1    2  501    0  0.46730947497E+01 -0.35176961782E+02  0.42046162228E+02  0.55019416689E+02  0.00000000000E+00 0. -1.
         -2    1    1    2    0  503 -0.46730947497E+01  0.35176961782E+02 -0.26397140185E+02  0.44227428873E+02  0.00000000000E+00 0.  1.
</event>
<event>
 4    1  0.1727273E+004  0.2087917E+02  0.7546771E-02  0.1520997E+00
         21   -1    0    0  503  502  0.00000000000E+00  0.00000000000E+00  0.48350637736E+02  0.48350637736E+02  0.00000000000E+00 0.  1.
         21   -1    0    0  501  503 -0.00000000000E+00 -0.00000000000E+00 -0.18088043522E+02  0.18088043522E+02  0.00000000000E+00 0. -1.
          2    1    1    2  501    0 -0.20119088320E+02  0.55823052733E+01  0.38656998299E+02  0.43935217816E+02  0.00000000000E+00 0.  1.
         -2    1    1    2    0  502  0.20119088320E+02 -0.55823052733E+01 -0.83944040855E+01  0.22503463443E+02  0.00000000000E+00 0. -1.
</event>
<event>
 4    1  0.1727273E+004  0.5054751E+02  0.7546771E-02  0.1295816E+00
         21   -1    0    0  503  502  0.00000000000E+00  0.00000000000E+00  0.17737844976E+02  0.17737844976E+02  0.00000000000E+00 0.  1.
         21   -1    0    0  501  503 -0.00000000000E+00 -0.00000000000E+00 -0.14406247993E+03  0.14406247993E+03  0.00000000000E+00 0. -1.
          2    1    1    2  501    0 -0.10859339800E+02 -0.49367250678E+02 -0.62275244763E+02  0.80207585743E+02  0.00000000000E+00 0.  1.
         -2    1    1    2    0  502  0.10859339800E+02  0.49367250678E+02 -0.64049390190E+02  0.81592739162E+02  0.00000000000E+00 0. -1.
</event>
<event>
 4    1  0.1727273E+004  0.2324570E+02  0.7546771E-02  0.1489436E+00
         21   -1    0    0  501  502  0.00000000000E+00  0.00000000000E+00  0.11324697163E+04  0.11324697163E+04  0.00000000000E+00 0.  1.
         21   -1    0    0  502  503 -0.00000000000E+00 -0.00000000000E+00 -0.48125076001E+01  0.48125076001E+01  0.00000000000E+00 0. -1.
          2    1    1    2  501    0  0.20958853031E+02 -0.10054315500E+02  0.11035439785E+04  0.11037887820E+04  0.00000000000E+00 0.  1.
         -2    1    1    2    0  503 -0.20958853031E+02  0.10054315500E+02  0.24113230241E+02  0.33493441943E+02  0.00000000000E+00 0. -1.
</event>
<event>
 4    1  0.1727273E+004  0.2501257E+02  0.7546771E-02  0.1468663E+00
         21   -1    0    0  501  502  0.00000000000E+00  0.00000000000E+00  0.12939282201E+02  0.12939282201E+02  0.00000000000E+00 0. -1.
         21   -1    0    0  502  503 -0.00000000000E+00 -0.00000000000E+00 -0.52173283067E+02  0.52173283067E+02  0.00000000000E+00 0.  1.
          2    1    1    2  501    0 -0.10081098692E+02  0.22891043735E+02 -0.28428846052E+02  0.37865917683E+02  0.00000000000E+00 0.  1.
         -2    1    1    2    0  503  0.10081098692E+02 -0.22891043735E+02 -0.10805154813E+02  0.27246647585E+02  0.00000000000E+00 0. -1.
</event>
<event>
 4    1  0.1727273E+004  0.3521424E+02  0.7546771E-02  0.1379063E+00
         21   -1    0    0  501  502  0.00000000000E+00  0.00000000000E+00  0.23260026316E+03  0.23260026316E+03  0.00000000000E+00 0. -1.
         21   -1    0    0  502  503 -0.00000000000E+00 -0.00000000000E+00 -0.15414937495E+02  0.15414937495E+02  0.00000000000E+00 0.  1.
          2    1    1    2  501    0  0.34960234967E+02  0.42219605195E+01  0.82957021778E+01  0.36178193075E+02  0.00000000000E+00 0.  1.
         -2    1    1    2    0  503 -0.34960234967E+02 -0.42219605195E+01  0.20888962349E+03  0.21183700758E+03  0.00000000000E+00 0. -1.
</event>
<event>
 4    1  0.1727273E+004  0.2818224E+02  0.7546771E-02  0.1436081E+00
         21   -1    0    0  503  502  0.00000000000E+00  0.00000000000E+00  0.27719966262E+03  0.27719966262E+03  0.00000000000E+00 0.  1.
         21   -1    0    0  501  503 -0.00000000000E+00 -0.00000000000E+00 -0.34574175226E+01  0.34574175226E+01  0.00000000000E+00 0. -1.
          2    1    1    2  501    0  0.58202226138E+01  0.27574690682E+02  0.19494792151E+03  0.19697444164E+03  0.00000000000E+00 0.  1.
         -2    1    1    2    0  502 -0.58202226138E+01 -0.27574690682E+02  0.78794323589E+02  0.83682638506E+02  0.00000000000E+00 0. -1.
</event>
<event>
 4    1  0.1727273E+004  0.2533919E+02  0.7546771E-02  0.1465044E+00
         21   -1    0    0  503  502  0.00000000000E+00  0.00000000000E+00  0.59704218627E+01  0.59704218627E+01  0.00000000000E+00 0.  1.
         21   -1    0    0  501  503 -0.00000000000E+00 -0.00000000000E+00 -0.11597651359E+03  0.11597651359E+03  0.00000000000E+00 0. -1.
          2    1    1    2  501    0  0.93865014537E+01 -0.23536527648E+02 -0.38560423671E+02  0.46140880106E+02  0.00000000000E+00 0.  1.
         -2    1    1    2    0  502 -0.93865014537E+01  0.23536527648E+02 -0.71445668060E+02  0.75806055351E+02  0.00000000000E+00 0. -1.
</event>
<event>
 4    1  0.1727273E+004  0.2469976E+02  0.7546771E-02  0.1472190E+00
         21   -1    0    0  503  502  0.00000000000E+00  0.00000000000E+00  0.15478716909E+02  0.15478716909E+02  0.00000000000E+00 0. -1.
         21   -1    0    0  501  503 -0.00000000000E+00 -0.00000000000E+00 -0.16841321579E+03  0.16841321579E+03  0.00000000000E+00 0.  1.
          2    1    1    2  501    0 -0.22824906246E+02 -0.94393705054E+01 -0.15693801664E+03  0.15886981818E+03  0.00000000000E+00 0.  1.
         -2    1    1    2    0  502  0.22824906246E+02  0.94393705054E+01  0.40035177593E+01  0.25022114522E+02  0.00000000000E+00 0. -1.
</event>
<event>
 4    1  0.1727273E+004  0.3231106E+02  0.7546771E-02  0.1400521E+00
         21   -1    0    0  503  502  0.00000000000E+00  0.00000000000E+00  0.76561758278E+01  0.76561758278E+01  0.00000000000E+00 0.  1.
         21   -1    0    0  501  503 -0.00000000000E+00 -0.00000000000E+00 -0.15944248072E+03  0.15944248072E+03  0.00000000000E+00 0. -1.
          2    1    1    2  501    0 -0.28246069801E+02  0.15689622424E+02 -0.10768177027E+03  0.11242494545E+03  0.00000000000E+00 0. -1.
         -2    1    1    2    0  502  0.28246069801E+02 -0.15689622424E+02 -0.44104534624E+02  0.54673711099E+02  0.00000000000E+00 0.  1.
</event>
<event>
 4    1  0.1727273E+004  0.2114934E+02  0.7546771E-02  0.1517143E+00
         21   -1    0    0  501  502  0.00000000000E+00  0.00000000000E+00  0.19570288585E+02  0.19570288585E+02  0.00000000000E+00 0. -1.
         21   -1    0    0  502  503 -0.00000000000E+00 -0.00000000000E+00 -0.56091703970E+02  0.56091703970E+02  0.00000000000E+00 0.  1.
          2    1    1    2  501    0  0.19380695065E+02 -0.84666062358E+01  0.10860015491E+02  0.23774665062E+02  0.00000000000E+00 0. -1.
         -2    1    1    2    0  503 -0.19380695065E+02  0.84666062358E+01 -0.47381430877E+02  0.51887327492E+02  0.00000000000E+00 0.  1.
</event>
<event>
 4    1  0.1727273E+004  0.2128618E+02  0.7546771E-02  0.1515218E+00
         21   -1    0    0  503  502  0.00000000000E+00  0.00000000000E+00  0.54122320297E+02  0.54122320297E+02  0.00000000000E+00 0.  1.
         21   -1    0    0  501  503 -0.00000000000E+00 -0.00000000000E+00 -0.87726016479E+01  0.87726016479E+01  0.00000000000E+00 0. -1.
          2    1    1    2  501    0 -0.21271232458E+02 -0.79769935301E+00  0.15953114948E+02  0.26600818241E+02  0.00000000000E+00 0. -1.
         -2    1    1    2    0  502  0.21271232458E+02  0.79769935301E+00  0.29396603701E+02  0.36294103704E+02  0.00000000000E+00 0.  1.
</event>
<event>
 4    1  0.1727273E+004  0.2885913E+02  0.7546771E-02  0.1429776E+00
         21   -1    0    0  501  502  0.00000000000E+00  0.00000000000E+00  0.33218372942E+02  0.33218372942E+02  0.00000000000E+00 0.  1.
         21   -1    0    0  502  503 -0.00000000000E+00 -0.00000000000E+00 -0.26682874230E+02  0.26682874230E+02  0.00000000000E+00 0. -1.
          2    1    1    2  501    0  0.28473608927E+02 -0.47013981309E+01 -0.40913803043E+01  0.29147709044E+02  0.00000000000E+00 0.  1.
         -2    1    1    2    0  503 -0.28473608927E+02  0.47013981309E+01  0.10626879017E+02  0.30753538128E+02  0.00000000000E+00 0. -1.
</event>
<event>
 4    1  0.1727273E+004  0.2417280E+02  0.7546771E-02  0.1478274E+00
         21   -1    0    0  503  502  0.00000000000E+00  0.00000000000E+00  0.32133205131E+03  0.32133205131E+03  0.00000000000E+00 0. -1.
         21   -1    0    0  501  503 -0.00000000000E+00 -0.00000000000E+00 -0.15388562139E+02  0.15388562139E+02  0.00000000000E+00 0.  1.
          2    1    1    2  501    0  0.24134349353E+02 -0.13628755854E+01 -0.51284869258E+01  0.24710840267E+02  0.00000000000E+00 0.  1.
         -2    1    1    2    0  502 -0.24134349353E+02  0.13628755854E+01  0.31107197610E+03  0.31200977318E+03  0.00000000000E+00 0. -1.
</event>
<event>
 4    1  0.1727273E+004  0.2037062E+02  0.7546771E-02  0.1528443E+00
         21   -1    0    0  503  502  0.00000000000E+00  0.00000000000E+00  0.53124789493E+01  0.53124789493E+01  0.00000000000E+00 0. -1.
         21   -1    0    0  501  503 -0.00000000000E+00 -0.00000000000E+00 -0.64085039893E+03  0.64085039893E+03  0.00000000000E+00 0.  1.
          2    1    1    2  501    0  0.12903969778E+02 -0.15762288652E+02 -0.62052122634E+03  0.62085550213E+03  0.00000000000E+00 0.  1.
         -2    1    1    2    0  502 -0.12903969778E+02  0.15762288652E+02 -0.15016693635E+02  0.25307375749E+02  0.00000000000E+00 0. -1.
</event>
<event>
 4    1  0.1727273E+004  0.3363117E+02  0.7546771E-02  0.1390450E+00
         21   -1    0    0  503  502  0.00000000000E+00  0.00000000000E+00  0.10060228930E+03  0.10060228930E+03  0.00000000000E+00 0. -1.
         21   -1    0    0  501  503 -0.00000000000E+00 -0.00000000000E+00 -0.11366912665E+02  0.11366912665E+02  0.00000000000E+00 0.  1.
          2    1    1    2  501    0  0.19497612793E+01  0.33574608821E+02  0.50466625480E+02  0.60645990913E+02  0.00000000000E+00 0. -1.
         -2    1    1    2    0  502 -0.19497612793E+01 -0.33574608821E+02  0.38768751155E+02  0.51323211051E+02  0.00000000000E+00 0.  1.
</event>
<event>
 4    1  0.1727273E+004  0.2350574E+02  0.7546771E-02  0.1486243E+00
         21   -1    0    0  503  502  0.00000000000E+00  0.00000000000E+00  0.58692681235E+02  0.58692681235E+02  0.00000000000E+00 0.  1.
         21   -1    0    0  501  503 -0.00000000000E+00 -0.00000000000E+00 -0.24933201822E+02  0.24933201822E+02  0.00000000000E+00 0. -1.
          2    1    1    2  501    0 -0.17483506895E+02 -0.15711356809E+02 -0.16108528851E+02  0.28495691742E+02  0.00000000000E+00 0. -1.
         -2    1    1    2    0  502  0.17483506895E+02  0.15711356809E+02  0.49868008264E+02  0.55130191314E+02  0.00000000000E+00 0.  1.
</event>
<event>
 4    1  0.1727273E+004  0.5803452E+02  0.7546771E-02  0.1266661E+00
         21   -1    0    0  503  502  0.00000000000E+00  0.00000000000E+00  0.14361745672E+03  0.14361745672E+03  0.00000000000E+00 0. -1.
         21   -1    0    0  501  503 -0.00000000000E+00 -0.00000000000E+00 -0.24201677328E+02  0.24201677328E+02  0.00000000000E+00 0.  1.
          2    1    1    2  501    0 -0.22641810088E+02  0.53435507954E+02  0.44932098713E+02  0.73395494202E+02  0.00000000000E+00 0.  1.
         -2    1    1    2    0  502  0.22641810088E+02 -0.53435507954E+02  0.74483680683E+02  0.94423639849E+02  0.00000000000E+00 0. -1.
</event>
<event>
 4    1  0.1727273E+004  0.2660368E+02  0.7546771E-02  0.1451630E+00
         21   -1    0    0  501  502  0.00000000000E+00  0.00000000000E+00  0.15130953209E+03  0.15130953209E+03  0.00000000000E+00 0. -1.
         21   -1    0    0  502  503 -0.00000000000E+00 -0.00000000000E+00 -0.78427368210E+01  0.78427368210E+01  0.00000000000E+00 0.  1.
          2    1    1    2  501    0  0.18819541161E+02 -0.18803741716E+02  0.12228671163E+03  0.12514709615E+03  0.00000000000E+00 0. -1.
         -2    1    1    2    0  503 -0.18819541161E+02  0.18803741716E+02  0.21180083642E+02  0.34005172770E+02  0.00000000000E+00 0.  1.
</event>
<event>
 4    1  0.1727273E+004  0.3533430E+02  0.7546771E-02  0.1378228E+00
         21   -1    0    0  503  502  0.00000000000E+00  0.00000000000E+00  0.18430683631E+03  0.18430683631E+03  0.00000000000E+00 0.  1.
         21   -1    0    0  501  503 -0.00000000000E+00 -0.00000000000E+00 -0.89076206715E+01  0.89076206715E+01  0.00000000000E+00 0. -1.
          2    1    1    2  501    0  0.28627359826E+02  0.20711994256E+02  0.13497960819E+03  0.13952780033E+03  0.00000000000E+00 0.  1.
         -2    1    1    2    0  502 -0.28627359826E+02 -0.20711994256E+02  0.40419607453E+02  0.53686656660E+02  0.00000000000E+00 0. -1.
</event>
<event>
 4    1  0.1727273E+004  0.5065403E+02  0.7546771E-02  0.1295361E+00
         21   -1    0    0  503  502  0.00000000000E+00  0.00000000000E+00  0.58086707934E+03  0.58086707934E+03  0.00000000000E+00 0. -1.
         21   -1    0    0  501  503 -0.00000000000E+00 -0.00000000000E+00 -0.61129320694E+01  0.61129320694E+01  0.00000000000E+00 0.  1.
          2    1    1    2  501    0  0.14513835553E+02  0.48530194172E+02  0.13280123414E+03  0.14213373617E+03  0.00000000000E+00 0.  1.
         -2    1    1    2    0  502 -0.14513835553E+02 -0.48530194172E+02  0.44195291313E+03  0.44484627524E+03  0.00000000000E+00 0. -1.
</event>
<event>
 4    1  0.1727273E+004  0.2138090E+02  0.7546771E-02  0.1513896E+00
         21   -1    0    0  503  502  0.00000000000E+00  0.00000000000E+00  0.10573411819E+02  0.10573411819E+02  0.00000000000E+00 0. -1.
         21   -1    0    0  501  503 -0.00000000000E+00 -0.00000000000E+00 -0.45629338049E+02  0.45629338049E+02  0.00000000000E+00 0.  1.
          2    1    1    2  501    0  0.90267541672E+01 -0.19381965666E+02 -0.23965000112E+02  0.32116415028E+02  0.00000000000E+00 0. -1.
         -2    1    1    2    0  502 -0.90267541672E+01  0.19381965666E+02 -0.11090926118E+02  0.24086334840E+02  0.00000000000E+00 0.  1.
</event>
<event>
 4    1  0.1727273E+004  0.2769465E+02  0.7546771E-02  0.1440752E+00
         21   -1    0    0  503  502  0.00000000000E+00  0.00000000000E+00  0.23294958068E+02  0.23294958068E+02  0.00000000000E+00 0.  1.
         21   -1    0    0  501  503 -0.00000000000E+00 -0.00000000000E+00 -0.39552441418E+02  0.39552441418E+02  0.00000000000E+00 0. -1.
          2    1    1    2  501    0 -0.26191198067E+02  0.90008153233E+01 -0.20991488378E+02  0.34751059221E+02  0.00000000000E+00 0.  1.
         -2    1    1    2    0  502  0.26191198067E+02 -0.90008153233E+01  0.47340050284E+01  0.28096340264E+02  0.00000000000E+00 0. -1.
</event>
<event>
 4    1  0.1727273E+004  0.2117523E+02  0.7546771E-02  0.1516778E+00
         21   -1    0    0  503  502  0.00000000000E+00  0.00000000000E+00  0.42533605525E+02  0.42533605525E+02  0.00000000000E+00 0.  1.
         21   -1    0    0  501  503 -0.00000000000E+00 -0.00000000000E+00 -0.28163537785E+02  0.28163537785E+02  0.00000000000E+00 0. -1.
          2    1    1    2  501    0  0.17883329171E+02  0.11339184401E+02 -0.20775779006E+02  0.29665191023E+02  0.00000000000E+00 0. -1.
         -2    1    1    2    0  502 -0.17883329171E+02 -0.11339184401E+02  0.35145846745E+02  0.41031952288E+02  0.00000000000E+00 0.  1.
</event>
<event>
 4    1  0.1727273E+004  0.2124079E+02  0.7546771E-02  0.1515855E+00
         21   -1    0    0  501  502  0.00000000000E+00  0.00000000000E+00  0.87185198045E+01  0.87185198045E+01  0.00000000000E+00 0.  1.
         21   -1    0    0  502  503 -0.00000000000E+00 -0.00000000000E+00 -0.58047921481E+02  0.58047921481E+02  0.00000000000E+00 0. -1.
          2    1    1    2  501    0 -0.20055019507E+02  0.69976800123E+01 -0.13667523390E+02  0.25258118073E+02  0.00000000000E+00 0.  1.
         -2    1    1    2    0  503  0.20055019507E+02 -0.69976800123E+01 -0.35661878286E+02  0.41508323212E+02  0.00000000000E+00 0. -1.
</event>
<event>
 4    1  0.1727273E+004  0.2687563E+02  0.7546771E-02  0.1448861E+00
         21   -1    0    0  503  502  0.00000000000E+00  0.00000000000E+00  0.47783263418E+01  0.47783263418E+01  0.00000000000E+00 0. -1.
         21   -1    0    0  501  503 -0.00000000000E+00 -0.00000000000E+00 -0.32347057521E+03  0.32347057521E+03  0.00000000000E+00 0.  1.
          2    1    1    2  501    0  0.26562446831E+02 -0.40909835002E+01 -0.27913314785E+03  0.28042398962E+03  0.00000000000E+00 0.  1.
         -2    1    1    2    0  502 -0.26562446831E+02  0.40909835002E+01 -0.39559101023E+02  0.47824911933E+02  0.00000000000E+00 0. -1.
</event>
<event>
 4    1  0.1727273E+004  0.2287981E+02  0.7546771E-02  0.1494013E+00
         21   -1    0    0  501  502  0.00000000000E+00  0.00000000000E+00  0.31392018845E+03  0.31392018845E+03  0.00000000000E+00 0. -1.
         21   -1    0    0  502  503 -0.00000000000E+00 -0.00000000000E+00 -0.17433265621E+01  0.17433265621E+01  0.00000000000E+00 0.  1.
          2    1    1    2  501    0 -0.21447352471E+02 -0.79684981742E+01  0.12318835790E+03  0.12529508136E+03  0.00000000000E+00 0.  1.
         -2    1    1    2    0  503  0.21447352471E+02  0.79684981742E+01  0.18898850399E+03  0.19036843365E+03  0.00000000000E+00 0. -1.
</event>
<event>
 4    1  0.1727273E+004  0.2339527E+02  0.7546771E-02  0.1487594E+00
         21   -1    0    0  503  502  0.00000000000E+00  0.00000000000E+00  0.39484346971E+02  0.39484346971E+02  0.00000000000E+00 0. -1.
         21   -1    0    0  501  503 -0.00000000000E+00 -0.00000000000E+00 -0.17870458400E+02  0.17870458400E+02  0.00000000000E+00 0.  1.
          2    1    1    2  501    0  0.21646060737E+02  0.88761764986E+01 -0.27746835921E+01  0.23559230116E+02  0.00000000000E+00 0.  1.
         -2    1    1    2    0  502 -0.21646060737E+02 -0.88761764986E+01  0.24388572163E+02  0.33795575255E+02  0.00000000000E+00 0. -1.
</event>
<event>
 4    1  0.1727273E+004  0.3229977E+02  0.7546771E-02  0.1400610E+00
         21   -1    0    0  503  502  0.00000000000E+00  0.00000000000E+00  0.54694876566E+01  0.54694876566E+01  0.00000000000E+00 0. -1.
         21   -1    0    0  501  503 -0.00000000000E+00 -0.00000000000E+00 -0.25841370449E+03  0.25841370449E+03  0.00000000000E+00 0.  1.
          2    1    1    2  501    0  0.31907167103E+02 -0.50207533749E+01 -0.19399004362E+03  0.19666065265E+03  0.00000000000E+00 0.  1.
         -2    1    1    2    0  502 -0.31907167103E+02  0.50207533749E+01 -0.58954173209E+02  0.67222539492E+02  0.00000000000E+00 0. -1.
</event>
<event>
 4    1  0.1727273E+004  0.3607306E+02  0.7546771E-02  0.1373172E+00
         21   -1    0    0  501  502  0.00000000000E+00  0.00000000000E+00  0.69388525863E+01  0.69388525863E+01  0.00000000000E+00 0. -1.
         21   -1    0    0  502  503 -0.00000000000E+00 -0.00000000000E+00 -0.35670015347E+03  0.35670015347E+03  0.00000000000E+00 0.  1.
          2    1    1    2  501    0  0.28062763749E+01 -0.35963734543E+02 -0.49668477374E+02  0.61385853696E+02  0.00000000000E+00 0. -1.
         -2    1    1    2    0  503 -0.28062763749E+01  0.35963734543E+02 -0.30009282351E+03  0.30225315236E+03  0.00000000000E+00 0.  1.
</event>
<event>
 4    1  0.1727273E+004  0.2010456E+02  0.7546771E-02  0.1532443E+00
         21   -1    0    0  501  502  0.00000000000E+00  0.00000000000E+00  0.43394642399E+01  0.43394642399E+01  0.00000000000E+00 0.  1.
         21   -1    0    0  502  503 -0.00000000000E+00 -0.00000000000E+00 -0.95298485375E+02  0.95298485375E+02  0.00000000000E+00 0. -1.
          2    1    1    2  501    0 -0.13392464068E+02  0.14994501032E+02 -0.37988028626E+02  0.42980035760E+02  0.00000000000E+00 0. -1.
         -2    1    1    2    0  503  0.13392464068E+02 -0.14994501032E+02 -0.52970992509E+02  0.56657913855E+02  0.00000000000E+00 0.  1.
</event>
<event>
 4    1  0.1727273E+004  0.2189340E+02  0.7546771E-02  0.1506882E+00
         21   -1    0    0  503  502  0.00000000000E+00  0.00000000000E+00  0.32636073527E+02  0.32636073527E+02  0.00000000000E+00 0.  1.
         21   -1    0    0  501  503 -0.00000000000E+00 -0.00000000000E+00 -0.14988807370E+02  0.14988807370E+02  0.00000000000E+00 0. -1.
          2    1    1    2  501    0  0.42934680335E+01  0.21468286210E+02  0.12203439077E+02  0.25064818090E+02  0.00000000000E+00 0.  1.
         -2    1    1    2    0  502 -0.42934680335E+01 -0.21468286210E+02  0.54438270802E+01  0.22560062807E+02  0.00000000000E+00 0. -1.
</event>
<event>
 4    1  0.1727273E+004  0.2609630E+02  0.7546771E-02  0.1456903E+00
         21   -1    0    0  501  502  0.00000000000E+00  0.00000000000E+00  0.43251533638E+01  0.43251533638E+01  0.00000000000E+00 0. -1.
         21   -1    0    0  502  503 -0.00000000000E+00 -0.00000000000E+00 -0.32539957522E+03  0.32539957522E+03  0.00000000000E+00 0.  1.
          2    1    1    2  501    0 -0.21817070826E+01  0.26004945635E+02 -0.42097860473E+02  0.49530262463E+02  0.00000000000E+00 0. -1.
         -2    1    1    2    0  503  0.21817070826E+01 -0.26004945635E+02 -0.27897656138E+03  0.28019446612E+03  0.00000000000E+00 0.  1.
</event>
<event>
 4    1  0.1727273E+004  0.2208520E+02  0.7546771E-02  0.1504316E+00
         21   -1    0    0  501  502  0.00000000000E+00  0.00000000000E+00  0.71112395485E+02  0.71112395485E+02  0.00000000000E+00 0.  1.
         21   -1    0    0  502  503 -0.00000000000E+00 -0.00000000000E+00 -0.79385714913E+01  0.79385714913E+01  0.00000000000E+00 0. -1.
          2    1    1    2  501    0  0.20386450103E+02  0.84940412979E+01  0.17010770939E+02  0.27876915419E+02  0.00000000000E+00 0. -1.
         -2    1    1    2    0  503 -0.20386450103E+02 -0.84940412979E+01  0.46163053055E+02  0.51174051557E+02  0.00000000000E+00 0.  1.
</event>
<event>
 4    1  0.1727273E+004  0.2352596E+02  0.7546771E-02  0.1485997E+00
         21   -1    0    0  501  502  0.00000000000E+00  0.00000000000E+00  0.82847375655E+02  0.82847375655E+02  0.00000000000E+00 0. -1.
         21   -1    0    0  502  503 -0.00000000000E+00 -0.00000000000E+00 -0.16116118729E+02  0.16116118729E+02  0.00000000000E+00 0.  1.
          2    1    1    2  501    0 -0.18913315765E+02 -0.13991326282E+02  0.71227104033E+02  0.75011806226E+02  0.00000000000E+00 0. -1.
         -2    1    1    2    0  503  0.18913315765E+02  0.13991326282E+02 -0.44958471073E+01  0.23951688157E+02  0.00000000000E+00 0.  1.
</event>
<event>
 4    1  0.1727273E+004  0.3214294E+02  0.7546771E-02  0.1401845E+00
         21   -1    0    0  503  502  0.00000000000E+00  0.00000000000E+00  0.14834788797E+02  0.14834788797E+02  0.00000000000E+00 0. -1.
         21   -1    0    0  501  503 -0.00000000000E+00 -0.00000000000E+00 -0.69997401740E+02  0.69997401740E+02  0.00000000000E+00 0.  1.
          2    1    1    2  501    0  0.56599413774E+01  0.31640697933E+02 -0.24571659567E+02  0.40459055303E+02  0.00000000000E+00 0. -1.
         -2    1    1    2    0  502 -0.56599413774E+01 -0.31640697933E+02 -0.30590953376E+02  0.44373135235E+02  0.00000000000E+00 0.  1.
</event>
<event>
 4    1  0.1727273E+004  0.2192088E+02  0.7546771E-02  0.1506512E+00
         21   -1    0    0  501  502  0.00000000000E+00  0.00000000000E+00  0.61550862072E+00  0.61550862072E+00  0.00000000000E+00 0.  1.
         21   -1    0    0  502  503 -0.00000000000E+00 -0.00000000000E+00 -0.11737455143E+04  0.11737455143E+04  0.00000000000E+00 0. -1.
          2    1    1    2  501    0 -0.32390555101E+01  0.21680256149E+02 -0.24677671150E+03  0.24774840125E+03  0.00000000000E+00 0.  1.
         -2    1    1    2    0  503  0.32390555101E+01 -0.21680256149E+02 -0.92635329416E+03  0.92661262164E+03  0.00000000000E+00 0. -1.
</event>
<event>
 4    1  0.1727273E+004  0.2164856E+02  0.7546771E-02  0.1510203E+00
         21   -1    0    0  501  502  0.00000000000E+00  0.00000000000E+00  0.15901831864E+02  0.15901831864E+02  0.00000000000E+00 0.  1.
         21   -1    0    0  502  503 -0.00000000000E+00 -0.00000000000E+00 -0.53458120967E+02  0.53458120967E+02  0.00000000000E+00 0. -1.
          2    1    1    2  501    0 -0.20927462603E+02  0.55408757302E+01  0.44519657478E+01  0.22101583515E+02  0.00000000000E+00 0.  1.
         -2    1    1    2    0  503  0.20927462603E+02 -0.55408757302E+01 -0.42008254851E+02  0.47258369316E+02  0.00000000000E+00 0. -1.
</event>
<event>
 4    1  0.1727273E+004  0.2249018E+02  0.7546771E-02  0.1499001E+00
         21   -1    0    0  501  502  0.00000000000E+00  0.00000000000E+00  0.38243666426E+02  0.38243666426E+02  0.00000000000E+00 0.  1.
         21   -1    0    0  502  503 -0.00000000000E+00 -0.00000000000E+00 -0.13229483007E+02  0.13229483007E+02  0.00000000000E+00 0. -1.
          2    1    1    2  501    0 -0.20967992003E+02 -0.81333524321E+01  0.12085405981E+02  0.25531649930E+02  0.00000000000E+00 0.  1.
         -2    1    1    2    0  503  0.20967992003E+02  0.81333524321E+01  0.12928777438E+02  0.25941499503E+02  0.00000000000E+00 0. -1.
</event>
<event>
 4    1  0.1727273E+004  0.2486698E+02  0.7546771E-02  0.1470297E+00
         21   -1    0    0  503  502  0.00000000000E+00  0.00000000000E+00  0.14446745097E+03  0.14446745097E+03  0.00000000000E+00 0.  1.
         21   -1    0    0  501  503 -0.00000000000E+00 -0.00000000000E+00 -0.26962290660E+02  0.26962290660E+02  0.00000000000E+00 0. -1.
          2    1    1    2  501    0  0.17140918955E+02  0.18015425816E+02 -0.19864731801E+02  0.31827256235E+02  0.00000000000E+00 0. -1.
         -2    1    1    2    0  502 -0.17140918955E+02 -0.18015425816E+02  0.13736989211E+03  0.13960248539E+03  0.00000000000E+00 0.  1.
</event>
<event>
 4    1  0.1727273E+004  0.2054626E+02  0.7546771E-02  0.1525843E+00
         21   -1    0    0  503  502  0.00000000000E+00  0.00000000000E+00  0.54818237643E+03  0.54818237643E+03  0.00000000000E+00 0.  1.
         21   -1    0    0  501  503 -0.00000000000E+00 -0.00000000000E+00 -0.77098062032E+00  0.77098062032E+00  0.00000000000E+00 0. -1.
          2    1    1    2  501    0 -0.37277221081E+01  0.20205270241E+02  0.26436812998E+03  0.26516533900E+03  0.00000000000E+00 0. -1.
         -2    1    1    2    0  502  0.37277221081E+01 -0.20205270241E+02  0.28304326583E+03  0.28378801805E+03  0.00000000000E+00 0.  1.
</event>
<event>
 4    1  0.1727273E+004  0.2001185E+02  0.7546771E-02  0.1533855E+00
         21   -1    0    0  501  502  0.00000000000E+00  0.00000000000E+00  0.93890860909E+01  0.93890860909E+01  0.00000000000E+00 0.  1.
         21   -1    0    0  502  503 -0.00000000000E+00 -0.00000000000E+00 -0.48898390443E+02  0.48898390443E+02  0.00000000000E+00 0. -1.
          2    1    1    2  501    0  0.14037093769E+02  0.14263031380E+02 -0.93393307956E+01  0.22083866630E+02  0.00000000000E+00 0.  1.
         -2    1    1    2    0  503 -0.14037093769E+02 -0.14263031380E+02 -0.30169973557E+02  0.36203609904E+02  0.00000000000E+00 0. -1.
</event>
<event>
 4    1  0.1727273E+004  0.2371691E+02  0.7546771E-02  0.1483687E+00
         21   -1    0    0  503  502  0.00000000000E+00  0.00000000000E+00  0.60393884114E+02  0.60393884114E+02  0.00000000000E+00 0.  1.
         21   -1    0    0  501  503 -0.00000000000E+00 -0.00000000000E+00 -0.17561005765E+02  0.17561005765E+02  0.00000000000E+00 0. -1.
          2    1    1    2  501    0 -0.15964877386E+02  0.17538946304E+02 -0.52948038751E+01  0.24300759155E+02  0.00000000000E+00 0. -1.
         -2    1    1    2    0  502  0.15964877386E+02 -0.17538946304E+02  0.48127682224E+02  0.53654130723E+02  0.00000000000E+00 0.  1.
</event>
<event>
 4    1  0.1727273E+004  0.2861520E+02  0.7546771E-02  0.1432025E+00
         21   -1    0    0  503  502  0.00000000000E+00  0.00000000000E+00  0.11224783852E+02  0.11224783852E+02  0.00000000000E+00 0.  1.
         21   -1    0    0  501  503 -0.00000000000E+00 -0.00000000000E+00 -0.77826875965E+02  0.77826875965E+02  0.00000000000E+00 0. -1.
          2    1    1    2  501    0 -0.28112992363E+02 -0.53375647927E+01 -0.22153233820E+02  0.36188336604E+02  0.00000000000E+00 0.  1.
         -2    1    1    2    0  502  0.28112992363E+02  0.53375647927E+01 -0.44448858294E+02  0.52863323213E+02  0.00000000000E+00 0. -1.
</event>
<event>
 4    1  0.1727273E+004  0.2497152E+02  0.7546771E-02  0.1469122E+00
         21   -1    0    0  503  502  0.00000000000E+00  0.00000000000E+00  0.80308032665E+03  0.80308032665E+03  0.00000000000E+00 0.  1.
         21   -1    0    0  501  503 -0.00000000000E+00 -0.00000000000E+00 -0.81580148604E+00  0.81580148604E+00  0.00000000000E+00 0. -1.
          2    1    1    2  501    0 -0.24678362357E+02  0.38151089696E+01  0.31288788069E+03  0.31388278466E+03  0.00000000000E+00 0. -1.
         -2    1    1    2    0  502  0.24678362357E+02 -0.38151089696E+01  0.48937664447E+03  0.49001334347E+03  0.00000000000E+00 0.  1.
</event>
<event>
 4    1  0.1727273E+004  0.2835320E+02  0.7546771E-02  0.1434469E+00
         21   -1    0    0  503  502  0.00000000000E+00  0.00000000000E+00  0.62065363900E+01  0.62065363900E+01  0.00000000000E+00 0.  1.
         21   -1    0    0  501  503 -0.00000000000E+00 -0.00000000000E+00 -0.56197916893E+03  0.56197916893E+03  0.00000000000E+00 0. -1.
          2    1    1    2  501    0 -0.23157880234E+02  0.16358997762E+02 -0.52709893721E+03  0.52786096070E+03  0.00000000000E+00 0. -1.
         -2    1    1    2    0  502  0.23157880234E+02 -0.16358997762E+02 -0.28673695330E+02  0.40324744619E+02  0.00000000000E+00 0.  1.
</event>
<event>
 4    1  0.1727273E+004  0.2132673E+02  0.7546771E-02  0.1514651E+00
         21   -1    0    0  503  502  0.00000000000E+00  0.00000000000E+00  0.61246910814E+02  0.61246910814E+02  0.00000000000E+00 0. -1.
         21   -1    0    0  501  503 -0.00000000000E+00 -0.00000000000E+00 -0.10939755756E+02  0.10939755756E+02  0.00000000000E+00 0.  1.
          2    1    1    2  501    0  0.96305281130E+01  0.19028464434E+02  0.46986048862E+01  0.21838187157E+02  0.00000000000E+00 0.  1.
         -2    1    1    2    0  502 -0.96305281130E+01 -0.19028464434E+02  0.45608550171E+02  0.50348479413E+02  0.00000000000E+00 0. -1.
</event>
<event>
 4    1  0.1727273E+004  0.2421852E+02  0.7546771E-02  0.1477739E+00
         21   -1    0    0  503  502  0.00000000000E+00  0.00000000000E+00  0.12023972358E+02  0.12023972358E+02  0.00000000000E+00 0. -1.
         21   -1    0    0  501  503 -0.00000000000E+00 -0.00000000000E+00 -0.51118490119E+02  0.51118490119E+02  0.00000000000E+00 0.  1.
          2    1    1    2  501    0  0.15821781963E+02  0.18335968795E+02 -0.12795530800E+02  0.27390913540E+02  0.00000000000E+00 0.  1.
         -2    1    1    2    0  502 -0.15821781963E+02 -0.18335968795E+02 -0.26298986962E+02  0.35751548937E+02  0.00000000000E+00 0. -1.
</event>
<event>
 4    1  0.1727273E+004  0.2634989E+02  0.7546771E-02  0.1454250E+00
         21   -1    0    0  503  502  0.00000000000E+00  0.00000000000E+00  0.78961397538E+02  0.78961397538E+02  0.00000000000E+00 0. -1.
         21   -1    0    0  501  503 -0.00000000000E+00 -0.00000000000E+00 -0.21094888067E+02  0.21094888067E+02  0.00000000000E+00 0.  1.
          2    1    1    2  501    0  0.19888321420E+02  0.17285006425E+02 -0.92708120375E+01  0.27933219146E+02  0.00000000000E+00 0.  1.
         -2    1    1    2    0  502 -0.19888321420E+02 -0.17285006425E+02  0.67137321508E+02  0.72123066458E+02  0.00000000000E+00 0. -1.
</event>
<event>
 4    1  0.1727273E+004  0.3263503E+02  0.7546771E-02  0.1397998E+00
         21   -1    0    0  501  502  0.00000000000E+00  0.00000000000E+00  0.29279474118E+02  0.29279474118E+02  0.00000000000E+00 0. -1.
         21   -1    0    0  502  503 -0.00000000000E+00 -0.00000000000E+00 -0.59449714153E+02  0.59449714153E+02  0.00000000000E+00 0.  1.
          2    1    1    2  501    0  0.19400990178E+02 -0.26242075515E+02  0.12554271776E+02  0.34966479478E+02  0.00000000000E+00 0. -1.
         -2    1    1    2    0  503 -0.19400990178E+02  0.26242075515E+02 -0.42724511811E+02  0.53762708793E+02  0.00000000000E+00 0.  1.
</event>
<event>
 4    1  0.1727273E+004  0.2386463E+02  0.7546771E-02  0.1481917E+00
         21   -1    0    0  503  502  0.00000000000E+00  0.00000000000E+00  0.46384162567E+02  0.46384162567E+02  0.00000000000E+00 0.  1.
         21   -1    0    0  501  503 -0.00000000000E+00 -0.00000000000E+00 -0.55522425109E+02  0.55522425109E+02  0.00000000000E+00 0. -1.
          2    1    1    2  501    0 -0.33328330661E+01 -0.23630757389E+02 -0.49536907618E+02  0.54985686204E+02  0.00000000000E+00 0. -1.
         -2    1    1    2    0  502  0.33328330661E+01  0.23630757389E+02  0.40398645076E+02  0.46920901472E+02  0.00000000000E+00 0.  1.
</event>
<event>
 4    1  0.1727273E+004  0.2298147E+02  0.7546771E-02  0.1492731E+00
         21   -1    0    0  503  502  0.00000000000E+00  0.00000000000E+00  0.17469030954E+03  0.17469030954E+03  0.00000000000E+00 0. -1.
         21   -1    0    0  501  503 -0.00000000000E+00 -0.00000000000E+00 -0.88034296751E+01  0.88034296751E+01  0.00000000000E+00 0.  1.
          2    1    1    2  501    0  0.18719295939E+02 -0.13331763942E+02  0.86017133876E+01  0.24538489022E+02  0.00000000000E+00 0.  1.
         -2    1    1    2    0  502 -0.18719295939E+02  0.13331763942E+02  0.15728516648E+03  0.15895525020E+03  0.00000000000E+00 0. -1.
</event>
<event>
 4    1  0.1727273E+004  0.2207940E+02  0.7546771E-02  0.1504393E+00
         21   -1    0    0  503  502  0.00000000000E+00  0.00000000000E+00  0.88229137023E+00  0.88229137023E+00  0.00000000000E+00 0.  1.
         21   -1    0    0  501  503 -0.00000000000E+00 -0.00000000000E+00 -0.86000070621E+03  0.86000070621E+03  0.00000000000E+00 0. -1.
          2    1    1    2  501    0  0.12961750931E+02  0.17874365350E+02 -0.68693080699E+03  0.68728555457E+03  0.00000000000E+00 0. -1.
         -2    1    1    2    0  502 -0.12961750931E+02 -0.17874365350E+02 -0.17218760784E+03  0.17359744301E+03  0.00000000000E+00 0.  1.
</event>
<event>
 4    1  0.1727273E+004  0.2939929E+02  0.7546771E-02  0.1424889E+00
         21   -1    0    0  501  502  0.00000000000E+00  0.00000000000E+00  0.29113941433E+02  0.29113941433E+02  0.00000000000E+00 0.  1.
         21   -1    0    0  502  503 -0.00000000000E+00 -0.00000000000E+00 -0.31120475074E+02  0.31120475074E+02  0.00000000000E+00 0. -1.
          2    1    1    2  501    0 -0.29319734494E+02  0.21613415419E+01  0.54595352122E+01  0.29901918882E+02  0.00000000000E+00 0.  1.
         -2    1    1    2    0  503  0.29319734494E+02 -0.21613415419E+01 -0.74660688528E+01  0.30332497625E+02  0.00000000000E+00 0. -1.
</event>
<event>
 4    1  0.1727273E+004  0.9424465E+02  0.7546771E-02  0.1174173E+00
         21   -1    0    0  503  502  0.00000000000E+00  0.00000000000E+00  0.73210838336E+03  0.73210838336E+03  0.00000000000E+00 0.  1.
         21   -1    0    0  501  503 -0.00000000000E+00 -0.00000000000E+00 -0.14777214236E+02  0.14777214236E+02  0.00000000000E+00 0. -1.
          2    1    1    2  501    0 -0.91645937441E+02  0.21978981727E+02  0.20066984289E+03  0.22169898361E+03  0.00000000000E+00 0.  1.
         -2    1    1    2    0  502  0.91645937441E+02 -0.21978981727E+02  0.51666132624E+03  0.52518661399E+03  0.00000000000E+00 0. -1.
</event>
<event>
 4    1  0.1727273E+004  0.4738077E+02  0.7546771E-02  0.1309946E+00
         21   -1    0    0  503  502  0.00000000000E+00  0.00000000000E+00  0.15527391594E+02  0.15527391594E+02  0.00000000000E+00 0. -1.
         21   -1    0    0  501  503 -0.00000000000E+00 -0.00000000000E+00 -0.14467675322E+03  0.14467675322E+03  0.00000000000E+00 0.  1.
          2    1    1    2  501    0 -0.23584120895E+02 -0.41094117239E+02 -0.62494243114E+02  0.78424917294E+02  0.00000000000E+00 0.  1.
         -2    1    1    2    0  502  0.23584120895E+02  0.41094117239E+02 -0.66655118509E+02  0.81779227518E+02  0.00000000000E+00 0. -1.
</event>
<event>
 4    1  0.1727273E+004  0.3822787E+02  0.7546771E-02  0.1359195E+00
         21   -1    0    0  501  502  0.00000000000E+00  0.00000000000E+00  0.12492216990E+01  0.12492216990E+01  0.00000000000E+00 0. -1.
         21   -1    0    0  502  503 -0.00000000000E+00 -0.00000000000E+00 -0.12066509925E+04  0.12066509925E+04  0.00000000000E+00 0.  1.
          2    1    1    2  501    0 -0.28575953564E+02  0.25392613571E+02 -0.70821033653E+03  0.70924132050E+03  0.00000000000E+00 0. -1.
         -2    1    1    2    0  503  0.28575953564E+02 -0.25392613571E+02 -0.49719143430E+03  0.49865889372E+03  0.00000000000E+00 0.  1.
</event>
<event>
 4    1  0.1727273E+004  0.2018723E+02  0.7546771E-02  0.1531193E+00
         21   -1    0    0  501  502  0.00000000000E+00  0.00000000000E+00  0.35598349988E+02  0.35598349988E+02  0.00000000000E+00 0.  1.
         21   -1    0    0  502  503 -0.00000000000E+00 -0.00000000000E+00 -0.21136645996E+02  0.21136645996E+02  0.00000000000E+00 0. -1.
          2    1    1    2  501    0 -0.16831695896E+02  0.11145318863E+02  0.26436907786E+02  0.33263105877E+02  0.00000000000E+00 0.  1.
         -2    1    1    2    0  503  0.16831695896E+02 -0.11145318863E+02 -0.11975203794E+02  0.23471890107E+02  0.00000000000E+00 0. -1.
</event>
<event>
 4    1  0.1727273E+004  0.2254307E+02  0.7546771E-02  0.1498317E+00
         21   -1    0    0  501  502  0.00000000000E+00  0.00000000000E+00  0.16463578185E+04  0.16463578185E+04  0.00000000000E+00 0. -1.
         21   -1    0    0  502  503 -0.00000000000E+00 -0.00000000000E+00 -0.40442997138E+00  0.40442997138E+00  0.00000000000E+00 0.  1.
          2    1    1    2  501    0 -0.62487132357E+01  0.21659720292E+02  0.12236213500E+04  0.12238289906E+04  0.00000000000E+00 0. -1.
         -2    1    1    2    0  503  0.62487132357E+01 -0.21659720292E+02  0.42233203853E+03  0.42293325794E+03  0.00000000000E+00 0.  1.
</event>
<event>
 4    1  0.1727273E+004  0.2136705E+02  0.7546771E-02  0.1514088E+00
         21   -1    0    0  503  502  0.00000000000E+00  0.00000000000E+00  0.96979211527E+02  0.96979211527E+02  0.00000000000E+00 0.  1.
         21   -1    0    0  501  503 -0.00000000000E+00 -0.00000000000E+00 -0.74116794406E+01  0.74116794406E+01  0.00000000000E+00 0. -1.
          2    1    1    2  501    0 -0.17261952809E+02 -0.12592689284E+02  0.13257357913E+02  0.25145742722E+02  0.00000000000E+00 0. -1.
         -2    1    1    2    0  502  0.17261952809E+02  0.12592689284E+02  0.76310174173E+02  0.79245148246E+02  0.00000000000E+00 0.  1.
</event>
<event>
 4    1  0.1727273E+004  0.2084695E+02  0.7546771E-02  0.1521461E+00
         21   -1    0    0  503  502  0.00000000000E+00  0.00000000000E+00  0.14136948093E+02  0.14136948093E+02  0.00000000000E+00 0.  1.
         21   -1    0    0  501  503 -0.00000000000E+00 -0.00000000000E+00 -0.31273557710E+02  0.31273557710E+02  0.00000000000E+00 0. -1.
          2    1    1    2  501    0  0.65736981554E+01  0.19783377107E+02 -0.56076598769E+01  0.21587991257E+02  0.00000000000E+00 0.  1.
         -2    1    1    2    0  502 -0.65736981554E+01 -0.19783377107E+02 -0.11528949740E+02  0.23822514546E+02  0.00000000000E+00 0. -1.
</event>
<event>
 4    1  0.1727273E+004  0.3080715E+02  0.7546771E-02  0.1412709E+00
         21   -1    0    0  501  502  0.00000000000E+00  0.00000000000E+00  0.97168830158E+02  0.97168830158E+02  0.00000000000E+00 0. -1.
         21   -1    0    0  502  503 -0.00000000000E+00 -0.00000000000E+00 -0.16912583988E+02  0.16912583988E+02  0.00000000000E+00 0.  1.
          2    1    1    2  501    0 -0.17614610374E+01  0.30756755356E+02  0.77203752198E+02  0.83123402832E+02  0.00000000000E+00 0. -1.
         -2    1    1    2    0  503  0.17614610374E+01 -0.30756755356E+02  0.30524939724E+01  0.30958011313E+02  0.00000000000E+00 0.  1.
</event>
<event>
 4    1  0.1727273E+004  0.2636250E+02  0.7546771E-02  0.1454119E+00
         21   -1    0    0  503  502  0.00000000000E+00  0.00000000000E+00  0.41156343778E+01  0.41156343778E+01  0.00000000000E+00 0. -1.
         21   -1    0    0  501  503 -0.00000000000E+00 -0.00000000000E+00 -0.21742572785E+03  0.21742572785E+03  0.00000000000E+00 0.  1.
          2    1    1    2  501    0  0.24380374538E+02 -0.10028894821E+02 -0.15900515800E+03  0.16117574775E+03  0.00000000000E+00 0.  1.
         -2    1    1    2    0  502 -0.24380374538E+02  0.10028894821E+02 -0.54304935469E+02  0.60365614469E+02  0.00000000000E+00 0. -1.
</event>
<event>
 4    1  0.1727273E+004  0.3081432E+02  0.7546771E-02  0.1412649E+00
         21   -1    0    0  503  502  0.00000000000E+00  0.00000000000E+00  0.55702232065E+02  0.55702232065E+02  0.00000000000E+00 0. -1.
         21   -1    0    0  501  503 -0.00000000000E+00 -0.00000000000E+00 -0.18755562576E+02  0.18755562576E+02  0.00000000000E+00 0.  1.
          2    1    1    2  501    0 -0.12424669420E+02  0.28198405169E+02  0.72348707184E+01  0.31652264036E+02  0.00000000000E+00 0.  1.
         -2    1    1    2    0  502  0.12424669420E+02 -0.28198405169E+02  0.29711798770E+02  0.42805530606E+02  0.00000000000E+00 0. -1.
</event>
<event>
 4    1  0.1727273E+004  0.2180571E+02  0.7546771E-02  0.1508065E+00
         21   -1    0    0  503  502  0.00000000000E+00  0.00000000000E+00  0.13362738155E+02  0.13362738155E+02  0.00000000000E+00 0. -1.
         21   -1    0    0  501  503 -0.00000000000E+00 -0.00000000000E+00 -0.13489258466E+03  0.13489258466E+03  0.00000000000E+00 0.  1.
          2    1    1    2  501    0 -0.18622039498E+01 -0.21726048660E+02 -0.12436848038E+03  0.12626562440E+03  0.00000000000E+00 0.  1.
         -2    1    1    2    0  502  0.18622039498E+01  0.21726048660E+02  0.28386338762E+01  0.21989698411E+02  0.00000000000E+00 0. -1.
</event>
<event>
 4    1  0.1727273E+004  0.2449632E+02  0.7546771E-02  0.1474518E+00
         21   -1    0    0  501  502  0.00000000000E+00  0.00000000000E+00  0.11196127593E+02  0.11196127593E+02  0.00000000000E+00 0.  1.
         21   -1    0    0  502  503 -0.00000000000E+00 -0.00000000000E+00 -0.18901494662E+03  0.18901494662E+03  0.00000000000E+00 0. -1.
          2    1    1    2  501    0  0.16557517321E+02 -0.18053211603E+02 -0.41770246143E+01  0.24849896652E+02  0.00000000000E+00 0.  1.
         -2    1    1    2    0  503 -0.16557517321E+02  0.18053211603E+02 -0.17364179441E+03  0.17536117756E+03  0.00000000000E+00 0. -1.
</event>
<event>
 4    1  0.1727273E+004  0.2522490E+02  0.7546771E-02  0.1466303E+00
         21   -1    0    0  503  502  0.00000000000E+00  0.00000000000E+00  0.19600461138E+02  0.19600461138E+02  0.00000000000E+00 0.  1.
         21   -1    0    0  501  503 -0.00000000000E+00 -0.00000000000E+00 -0.52140668339E+02  0.52140668339E+02  0.00000000000E+00 0. -1.
          2    1    1    2  501    0 -0.13967330041E+02 -0.21004978895E+02 -0.38306142957E+02  0.45865630216E+02  0.00000000000E+00 0. -1.
         -2    1    1    2    0  502  0.13967330041E+02  0.21004978895E+02  0.57659357562E+01  0.25875499261E+02  0.00000000000E+00 0.  1.
</event>
<event>
 4    1  0.1727273E+004  0.3421119E+02  0.7546771E-02  0.1386195E+00
         21   -1    0    0  501  502  0.00000000000E+00  0.00000000000E+00  0.10770756536E+02  0.10770756536E+02  0.00000000000E+00 0.  1.
         21   -1    0    0  502  503 -0.00000000000E+00 -0.00000000000E+00 -0.11096672909E+03  0.11096672909E+03  0.00000000000E+00 0. -1.
          2    1    1    2  501    0 -0.86775511651E+01  0.33092375240E+02 -0.58864296997E+02  0.68083850171E+02  0.00000000000E+00 0. -1.
         -2    1    1    2    0  503  0.86775511651E+01 -0.33092375240E+02 -0.41331675558E+02  0.53653635456E+02  0.00000000000E+00 0.  1.
</event>
<event>
 4    1  0.1727273E+004  0.2420573E+02  0.7546771E-02  0.1477888E+00
         21   -1    0    0  503  502  0.00000000000E+00  0.00000000000E+00  0.41832259491E+01  0.41832259491E+01  0.00000000000E+00 0.  1.
         21   -1    0    0  501  503 -0.00000000000E+00 -0.00000000000E+00 -0.18559733466E+03  0.18559733466E+03  0.00000000000E+00 0. -1.
          2    1    1    2  501    0 -0.11910501084E+02  0.21072669740E+02 -0.13770758614E+03  0.13981879962E+03  0.00000000000E+00 0. -1.
         -2    1    1    2    0  502  0.11910501084E+02 -0.21072669740E+02 -0.43706522568E+02  0.49961760988E+02  0.00000000000E+00 0.  1.
</event>
<event>
 4    1  0.1727273E+004  0.2584546E+02  0.7546771E-02  0.1459563E+00
         21   -1    0    0  501  502  0.00000000000E+00  0.00000000000E+00  0.13870816631E+02  0.13870816631E+02  0.00000000000E+00 0.  1.
         21   -1    0    0  502  503 -0.00000000000E+00 -0.00000000000E+00 -0.73432612610E+02  0.73432612610E+02  0.00000000000E+00 0. -1.
          2    1    1    2  501    0  0.49594358272E+01  0.25365172924E+02 -0.41714158263E+01  0.26179929549E+02  0.00000000000E+00 0.  1.
         -2    1    1    2    0  503 -0.49594358272E+01 -0.25365172924E+02 -0.55390380152E+02  0.61123499692E+02  0.00000000000E+00 0. -1.
</event>
<event>
 4    1  0.1727273E+004  0.2746330E+02  0.7546771E-02  0.1443009E+00
         21   -1    0    0  503  502  0.00000000000E+00  0.00000000000E+00  0.21838111255E+02  0.21838111255E+02  0.00000000000E+00 0. -1.
         21   -1    0    0  501  503 -0.00000000000E+00 -0.00000000000E+00 -0.39005871139E+02  0.39005871139E+02  0.00000000000E+00 0.  1.
          2    1    1    2  501    0 -0.26573033837E+02  0.69358962987E+01 -0.18880612941E+02  0.33327321071E+02  0.00000000000E+00 0.  1.
         -2    1    1    2    0  502  0.26573033837E+02 -0.69358962987E+01  0.17128530572E+01  0.27516661323E+02  0.00000000000E+00 0. -1.
</event>
<event>
 4    1  0.1727273E+004  0.3100798E+02  0.7546771E-02  0.1411035E+00
         21   -1    0    0  503  502  0.00000000000E+00  0.00000000000E+00  0.55184593438E+01  0.55184593438E+01  0.00000000000E+00 0.  1.
         21   -1    0    0  501  503 -0.00000000000E+00 -0.00000000000E+00 -0.19441163308E+03  0.19441163308E+03  0.00000000000E+00 0. -1.
          2    1    1    2  501    0  0.18170498875E+02  0.25126236755E+02 -0.12665272271E+03  0.13039327810E+03  0.00000000000E+00 0. -1.
         -2    1    1    2    0  502 -0.18170498875E+02 -0.25126236755E+02 -0.62240451025E+02  0.69536814327E+02  0.00000000000E+00 0.  1.
</event>
<event>
 4    1  0.1727273E+004  0.2545523E+02  0.7546771E-02  0.1463775E+00
         21   -1    0    0  503  502  0.00000000000E+00  0.00000000000E+00  0.11975360914E+03  0.11975360914E+03  0.00000000000E+00 0. -1.
         21   -1    0    0  501  503 -0.00000000000E+00 -0.00000000000E+00 -0.13574603020E+02  0.13574603020E+02  0.00000000000E+00 0.  1.
          2    1    1    2  501    0  0.19922807105E+02 -0.15844573935E+02  0.13915401317E+01  0.25493237340E+02  0.00000000000E+00 0.  1.
         -2    1    1    2    0  502 -0.19922807105E+02  0.15844573935E+02  0.10478746599E+03  0.10783497482E+03  0.00000000000E+00 0. -1.
</event>
<event>
 4    1  0.1727273E+004  0.2776147E+02  0.7546771E-02  0.1440105E+00
         21   -1    0    0  503  502  0.00000000000E+00  0.00000000000E+00  0.15112251912E+04  0.15112251912E+04  0.00000000000E+00 0. -1.
         21   -1    0    0  501  503 -0.00000000000E+00 -0.00000000000E+00 -0.51625452738E+00  0.51625452738E+00  0.00000000000E+00 0.  1.
          2    1    1    2  501    0  0.14770380841E+02  0.23506059431E+02  0.67204271147E+03  0.67261586735E+03  0.00000000000E+00 0.  1.
         -2    1    1    2    0  502 -0.14770380841E+02 -0.23506059431E+02  0.83866622518E+03  0.83912557835E+03  0.00000000000E+00 0. -1.
</event>
<event>
 4    1  0.1727273E+004  0.2035036E+02  0.7546771E-02  0.1528745E+00
         21   -1    0    0  501  502  0.00000000000E+00  0.00000000000E+00  0.80320036156E+03  0.80320036156E+03  0.00000000000E+00 0. -1.
         21   -1    0    0  502  503 -0.00000000000E+00 -0.00000000000E+00 -0.18025475211E+01  0.18025475211E+01  0.00000000000E+00 0.  1.
          2    1    1    2  501    0 -0.14759568557E+02  0.14010437438E+02  0.74079607604E+03  0.74107554507E+03  0.00000000000E+00 0. -1.
         -2    1    1    2    0  503  0.14759568557E+02 -0.14010437438E+02  0.60601737997E+02  0.63927364011E+02  0.00000000000E+00 0.  1.
</event>
<event>
 4    1  0.1727273E+004  0.2039441E+02  0.7546771E-02  0.1528089E+00
         21   -1    0    0  503  502  0.00000000000E+00  0.00000000000E+00  0.27335083757E+03  0.27335083757E+03  0.00000000000E+00 0. -1.
         21   -1    0    0  501  503 -0.00000000000E+00 -0.00000000000E+00 -0.35055571464E+01  0.35055571464E+01  0.00000000000E+00 0.  1.
          2    1    1    2  501    0 -0.19094061607E+02 -0.71658030601E+01  0.30784056776E+02  0.36926820520E+02  0.00000000000E+00 0.  1.
         -2    1    1    2    0  502  0.19094061607E+02  0.71658030601E+01  0.23906122364E+03  0.23992957419E+03  0.00000000000E+00 0. -1.
</event>
<event>
 4    1  0.1727273E+004  0.2343781E+02  0.7546771E-02  0.1487073E+00
         21   -1    0    0  501  502  0.00000000000E+00  0.00000000000E+00  0.88164180680E+03  0.88164180680E+03  0.00000000000E+00 0.  1.
         21   -1    0    0  502  503 -0.00000000000E+00 -0.00000000000E+00 -0.12195569169E+02  0.12195569169E+02  0.00000000000E+00 0. -1.
          2    1    1    2  501    0 -0.79459869088E+01  0.22049764403E+02  0.87007550004E+03  0.87039112276E+03  0.00000000000E+00 0.  1.
         -2    1    1    2    0  503  0.79459869088E+01 -0.22049764403E+02 -0.62926240742E+00  0.23446253205E+02  0.00000000000E+00 0. -1.
</event>
<event>
 4    1  0.1727273E+004  0.2336427E+02  0.7546771E-02  0.1487974E+00
         21   -1    0    0  501  502  0.00000000000E+00  0.00000000000E+00  0.18202982884E+02  0.18202982884E+02  0.00000000000E+00 0.  1.
         21   -1    0    0  502  503 -0.00000000000E+00 -0.00000000000E+00 -0.38370921342E+02  0.38370921342E+02  0.00000000000E+00 0. -1.
          2    1    1    2  501    0  0.15960019698E+02 -0.17063609540E+02  0.31368142933E+01  0.23573896649E+02  0.00000000000E+00 0.  1.
         -2    1    1    2    0  503 -0.15960019698E+02  0.17063609540E+02 -0.23304752751E+02  0.33000007577E+02  0.00000000000E+00 0. -1.
</event>
<event>
 4    1  0.1727273E+004  0.2048940E+02  0.7546771E-02  0.1526681E+00
         21   -1    0    0  503  502  0.00000000000E+00  0.00000000000E+00  0.25016999457E+01  0.25016999457E+01  0.00000000000E+00 0.  1.
         21   -1    0    0  501  503 -0.00000000000E+00 -0.00000000000E+00 -0.18899410439E+03  0.18899410439E+03  0.00000000000E+00 0. -1.
          2    1    1    2  501    0 -0.20096101556E+02  0.39952557643E+01 -0.61191680495E+02  0.64530900568E+02  0.00000000000E+00 0.  1.
         -2    1    1    2    0  502  0.20096101556E+02 -0.39952557643E+01 -0.12530072395E+03  0.12696490377E+03  0.00000000000E+00 0. -1.
</event>
<event>
 4    1  0.1727273E+004  0.3010640E+02  0.7546771E-02  0.1418674E+00
         21   -1    0    0  503  502  0.00000000000E+00  0.00000000000E+00  0.10556697019E+03  0.10556697019E+03  0.00000000000E+00 0.  1.
         21   -1    0    0  501  503 -0.00000000000E+00 -0.00000000000E+00 -0.25700222465E+02  0.25700222465E+02  0.00000000000E+00 0. -1.
          2    1    1    2  501    0  0.19728688698E+02 -0.22741458527E+02 -0.13626148683E+02  0.33046437351E+02  0.00000000000E+00 0. -1.
         -2    1    1    2    0  502 -0.19728688698E+02  0.22741458527E+02  0.93492896413E+02  0.98220755308E+02  0.00000000000E+00 0.  1.
</event>
<event>
 4    1  0.1727273E+004  0.2361107E+02  0.7546771E-02  0.1484964E+00
         21   -1    0    0  501  502  0.00000000000E+00  0.00000000000E+00  0.25190606792E+02  0.25190606792E+02  0.00000000000E+00 0.  1.
         21   -1    0    0  502  503 -0.00000000000E+00 -0.00000000000E+00 -0.25178256275E+02  0.25178256275E+02  0.00000000000E+00 0. -1.
          2    1    1    2  501    0  0.59345693717E+01  0.22853090302E+02 -0.87558284020E+01  0.25182283077E+02  0.00000000000E+00 0. -1.
         -2    1    1    2    0  503 -0.59345693717E+01 -0.22853090302E+02  0.87681789192E+01  0.25186579989E+02  0.00000000000E+00 0.  1.
</event>
<event>
 4    1  0.1727273E+004  0.3578437E+02  0.7546771E-02  0.1375131E+00
         21   -1    0    0  503  502  0.00000000000E+00  0.00000000000E+00  0.39638110405E+02  0.39638110405E+02  0.00000000000E+00 0.  1.
         21   -1    0    0  501  503 -0.00000000000E+00 -0.00000000000E+00 -0.69930708747E+02  0.69930708747E+02  0.00000000000E+00 0. -1.
          2    1    1    2  501    0  0.34584578274E+01  0.35616849532E+02 -0.55331269806E+02  0.65894387618E+02  0.00000000000E+00 0. -1.
         -2    1    1    2    0  502 -0.34584578274E+01 -0.35616849532E+02  0.25038671464E+02  0.43674431534E+02  0.00000000000E+00 0.  1.
</event>
<event>
 4    1  0.1727273E+004  0.2153832E+02  0.7546771E-02  0.1511716E+00
         21   -1    0    0  503  502  0.00000000000E+00  0.00000000000E+00  0.55546914718E+03  0.55546914718E+03  0.00000000000E+00 0. -1.
         21   -1    0    0  501  503 -0.00000000000E+00 -0.00000000000E+00 -0.19047248069E+01  0.19047248069E+01  0.00000000000E+00 0.  1.
          2    1    1    2  501    0 -0.17988614233E+02  0.11845206081E+02  0.67945710975E+02  0.71277758024E+02  0.00000000000E+00 0.  1.
         -2    1    1    2    0  502  0.17988614233E+02 -0.11845206081E+02  0.48561871140E+03  0.48609611397E+03  0.00000000000E+00 0. -1.
</event>
<event>
 4    1  0.1727273E+004  0.2499936E+02  0.7546771E-02  0.1468811E+00
         21   -1    0    0  501  502  0.00000000000E+00  0.00000000000E+00  0.13371486079E+03  0.13371486079E+03  0.00000000000E+00 0.  1.
         21   -1    0    0  502  503 -0.00000000000E+00 -0.00000000000E+00 -0.70205852030E+01  0.70205852030E+01  0.00000000000E+00 0. -1.
          2    1    1    2  501    0 -0.80886019112E+01 -0.23654651424E+02  0.10403037983E+03  0.10699199943E+03  0.00000000000E+00 0.  1.
         -2    1    1    2    0  503  0.80886019112E+01  0.23654651424E+02  0.22663895753E+02  0.33743446557E+02  0.00000000000E+00 0. -1.
</event>
<event>
 4    1  0.1727273E+004  0.2470654E+02  0.7546771E-02  0.1472113E+00
         21   -1    0    0  503  502  0.00000000000E+00  0.00000000000E+00  0.35857775010E+03  0.35857775010E+03  0.00000000000E+00 0. -1.
         21   -1    0    0  501  503 -0.00000000000E+00 -0.00000000000E+00 -0.18511264396E+01  0.18511264396E+01  0.00000000000E+00 0.  1.
          2    1    1    2  501    0  0.21812812931E+02  0.11602343788E+02  0.22945920673E+03  0.23078548642E+03  0.00000000000E+00 0.  1.
         -2    1    1    2    0  502 -0.21812812931E+02 -0.11602343788E+02  0.12726741692E+03  0.12964339011E+03  0.00000000000E+00 0. -1.
</event>
<event>
 4    1  0.1727273E+004  0.2169990E+02  0.7546771E-02  0.1509502E+00
         21   -1    0    0  503  502  0.00000000000E+00  0.00000000000E+00  0.56720569835E+01  0.56720569835E+01  0.00000000000E+00 0. -1.
         21   -1    0    0  501  503 -0.00000000000E+00 -0.00000000000E+00 -0.84598384236E+02  0.84598384236E+02  0.00000000000E+00 0.  1.
          2    1    1    2  501    0  0.18756080988E+02  0.10913078840E+02 -0.45631134230E+02  0.50528074126E+02  0.00000000000E+00 0.  1.
         -2    1    1    2    0  502 -0.18756080988E+02 -0.10913078840E+02 -0.33295193023E+02  0.39742367094E+02  0.00000000000E+00 0. -1.
</event>
<event>
 4    1  0.1727273E+004  0.2076825E+02  0.7546771E-02  0.1522600E+00
         21   -1    0    0  501  502  0.00000000000E+00  0.00000000000E+00  0.61876048268E+01  0.61876048268E+01  0.00000000000E+00 0. -1.
         21   -1    0    0  502  503 -0.00000000000E+00 -0.00000000000E+00 -0.14518950858E+03  0.14518950858E+03  0.00000000000E+00 0.  1.
          2    1    1    2  501    0  0.35172438093E+01  0.20468247313E+02 -0.14926999835E+02  0.25576072336E+02  0.00000000000E+00 0. -1.
         -2    1    1    2    0  503 -0.35172438093E+01 -0.20468247313E+02 -0.12407490392E+03  0.12580104107E+03  0.00000000000E+00 0.  1.
</event>
<event>
 4    1  0.1727273E+004  0.2687602E+02  0.7546771E-02  0.1448857E+00
         21   -1    0    0  501  502  0.00000000000E+00  0.00000000000E+00  0.38025252672E+02  0.38025252672E+02  0.00000000000E+00 0. -1.
         21   -1    0    0  502  503 -0.00000000000E+00 -0.00000000000E+00 -0.24300734085E+02  0.24300734085E+02  0.00000000000E+00 0.  1.
          2    1    1    2  501    0  0.24831868547E+02  0.10280999972E+02  0.21422510326E+02  0.34369239221E+02  0.00000000000E+00 0. -1.
         -2    1    1    2    0  503 -0.24831868547E+02 -0.10280999972E+02 -0.76979917393E+01  0.27956747536E+02  0.00000000000E+00 0.  1.
</event>
<event>
 4    1  0.1727273E+004  0.3840687E+02  0.7546771E-02  0.1358083E+00
         21   -1    0    0  503  502  0.00000000000E+00  0.00000000000E+00  0.17017717009E+03  0.17017717009E+03  0.00000000000E+00 0. -1.
         21   -1    0    0  501  503 -0.00000000000E+00 -0.00000000000E+00 -0.15153404558E+02  0.15153404558E+02  0.00000000000E+00 0.  1.
          2    1    1    2  501    0  0.30741173646E+02  0.23023208420E+02  0.16889633780E+02  0.41956496664E+02  0.00000000000E+00 0.  1.
         -2    1    1    2    0  502 -0.30741173646E+02 -0.23023208420E+02  0.13813413175E+03  0.14337407798E+03  0.00000000000E+00 0. -1.
</event>
<event>
 4    1  0.1727273E+004  0.4045594E+02  0.7546771E-02  0.1345835E+00
         21   -1    0    0  501  502  0.00000000000E+00  0.00000000000E+00  0.18399364388E+03  0.18399364388E+03  0.00000000000E+00 0. -1.
         21   -1    0    0  502  503 -0.00000000000E+00 -0.00000000000E+00 -0.97000938924E+01  0.97000938924E+01  0.00000000000E+00 0.  1.
          2    1    1    2  501    0 -0.32055725518E+02 -0.24680222738E+02  0.59251304823E+02  0.71745383518E+02  0.00000000000E+00 0. -1.
         -2    1    1    2    0  503  0.32055725518E+02  0.24680222738E+02  0.11504224517E+03  0.12194835426E+03  0.00000000000E+00 0.  1.
</event>
<event>
 4    1  0.1727273E+004  0.2024133E+02  0.7546771E-02  0.1530378E+00
         21   -1    0    0  503  502  0.00000000000E+00  0.00000000000E+00  0.15079798054E+03  0.15079798054E+03  0.00000000000E+00 0.  1.
         21   -1    0    0  501  503 -0.00000000000E+00 -0.00000000000E+00 -0.45913427930E+01  0.45913427930E+01  0.00000000000E+00 0. -1.
          2    1    1    2  501    0  0.13501527538E+02 -0.15080462017E+02  0.23461138354E+02  0.30986070957E+02  0.00000000000E+00 0. -1.
         -2    1    1    2    0  502 -0.13501527538E+02  0.15080462017E+02  0.12274549939E+03  0.12440325238E+03  0.00000000000E+00 0.  1.
</event>
<event>
 4    1  0.1727273E+004  0.4231494E+02  0.7546771E-02  0.1335429E+00
         21   -1    0    0  503  502  0.00000000000E+00  0.00000000000E+00  0.88647578464E+02  0.88647578464E+02  0.00000000000E+00 0.  1.
         21   -1    0    0  501  503 -0.00000000000E+00 -0.00000000000E+00 -0.35703776641E+02  0.35703776641E+02  0.00000000000E+00 0. -1.
          2    1    1    2  501    0  0.42122966092E+02  0.40261135016E+01 -0.14501527024E+02  0.44730841131E+02  0.00000000000E+00 0. -1.
         -2    1    1    2    0  502 -0.42122966092E+02 -0.40261135016E+01  0.67445328847E+02  0.79620513974E+02  0.00000000000E+00 0.  1.
</event>
<event>
 4    1  0.1727273E+004  0.2437909E+02  0.7546771E-02  0.1475871E+00
         21   -1    0    0  503  502  0.00000000000E+00  0.00000000000E+00  0.42305824529E+02  0.42305824529E+02  0.00000000000E+00 0. -1.
         21   -1    0    0  501  503 -0.00000000000E+00 -0.00000000000E+00 -0.75524654149E+02  0.75524654149E+02  0.00000000000E+00 0.  1.
          2    1    1    2  501    0  0.70947147914E+01 -0.23323920645E+02 -0.69763426191E+02  0.73900445777E+02  0.00000000000E+00 0.  1.
         -2    1    1    2    0  502 -0.70947147914E+01  0.23323920645E+02  0.36544596571E+02  0.43930032902E+02  0.00000000000E+00 0. -1.
</event>
<event>
 4    1  0.1727273E+004  0.2370677E+02  0.7546771E-02  0.1483809E+00
         21   -1    0    0  503  502  0.00000000000E+00  0.00000000000E+00  0.63297599974E+01  0.63297599974E+01  0.00000000000E+00 0.  1.
         21   -1    0    0  501  503 -0.00000000000E+00 -0.00000000000E+00 -0.39437474487E+03  0.39437474487E+03  0.00000000000E+00 0. -1.
          2    1    1    2  501    0  0.55324544268E+01 -0.23052176699E+02 -0.37038508293E+03  0.37114299207E+03  0.00000000000E+00 0. -1.
         -2    1    1    2    0  502 -0.55324544268E+01  0.23052176699E+02 -0.17659901944E+02  0.29561512803E+02  0.00000000000E+00 0.  1.
</event>
<event>
 4    1  0.1727273E+004  0.2359103E+02  0.7546771E-02  0.1485207E+00
         21   -1    0    0  501  502  0.00000000000E+00  0.00000000000E+00  0.15570003055E+03  0.15570003055E+03  0.00000000000E+00 0.  1.
         21   -1    0    0  502  503 -0.00000000000E+00 -0.00000000000E+00 -0.10128098887E+02  0.10128098887E+02  0.00000000000E+00 0. -1.
          2    1    1    2  501    0  0.15488647688E+02 -0.17794341872E+02  0.13948306163E+03  0.14146399292E+03  0.00000000000E+00 0.  1.
         -2    1    1    2    0  503 -0.15488647688E+02  0.17794341872E+02  0.60888700232E+01  0.24364136513E+02  0.00000000000E+00 0. -1.
</event>
<event>
 4    1  0.1727273E+004  0.2102110E+02  0.7546771E-02  0.1518964E+00
         21   -1    0    0  501  502  0.00000000000E+00  0.00000000000E+00  0.16352494941E+02  0.16352494941E+02  0.00000000000E+00 0. -1.
         21   -1    0    0  502  503 -0.00000000000E+00 -0.00000000000E+00 -0.41004794766E+02  0.41004794766E+02  0.00000000000E+00 0.  1.
          2    1    1    2  501    0  0.20643036437E+02 -0.39688611577E+01  0.44205442821E+01  0.21480875773E+02  0.00000000000E+00 0. -1.
         -2    1    1    2    0  503 -0.20643036437E+02  0.39688611577E+01 -0.29072844107E+02  0.35876413934E+02  0.00000000000E+00 0.  1.
</event>
<event>
 4    1  0.1727273E+004  0.4620813E+02  0.7546771E-02  0.1315506E+00
         21   -1    0    0  503  502  0.00000000000E+00  0.00000000000E+00  0.14670369511E+02  0.14670369511E+02  0.00000000000E+00 0. -1.
         21   -1    0    0  501  503 -0.00000000000E+00 -0.00000000000E+00 -0.28416135057E+03  0.28416135057E+03  0.00000000000E+00 0.  1.
          2    1    1    2  501    0 -0.40753917355E+02 -0.21778650862E+02 -0.23910264485E+03  0.24352672582E+03  0.00000000000E+00 0.  1.
         -2    1    1    2    0  502  0.40753917355E+02  0.21778650862E+02 -0.30388336211E+02  0.55304994267E+02  0.00000000000E+00 0. -1.
</event>
<event>
 4    1  0.1727273E+004  0.2028582E+02  0.7546771E-02  0.1529710E+00
         21   -1    0    0  503  502  0.00000000000E+00  0.00000000000E+00  0.14077454965E+01  0.14077454965E+01  0.00000000000E+00 0. -1.
         21   -1    0    0  501  503 -0.00000000000E+00 -0.00000000000E+00 -0.31262001084E+03  0.31262001084E+03  0.00000000000E+00 0.  1.
          2    1    1    2  501    0  0.20258465141E+02  0.10531217898E+01 -0.19561536525E+03  0.19666439840E+03  0.00000000000E+00 0. -1.
         -2    1    1    2    0  502 -0.20258465141E+02 -0.10531217898E+01 -0.11559690009E+03  0.11736335794E+03  0.00000000000E+00 0.  1.
</event>
<event>
 4    1  0.1727273E+004  0.2528289E+02  0.7546771E-02  0.1465663E+00
         21   -1    0    0  503  502  0.00000000000E+00  0.00000000000E+00  0.29722454611E+03  0.29722454611E+03  0.00000000000E+00 0.  1.
         21   -1    0    0  501  503 -0.00000000000E+00 -0.00000000000E+00 -0.41607794299E+01  0.41607794299E+01  0.00000000000E+00 0. -1.
          2    1    1    2  501    0  0.25057298036E+02 -0.33699358472E+01  0.41790754523E+02  0.48843544262E+02  0.00000000000E+00 0. -1.
         -2    1    1    2    0  502 -0.25057298036E+02  0.33699358472E+01  0.25127301216E+03  0.25254178128E+03  0.00000000000E+00 0.  1.
</event>
<event>
 4    1  0.1727273E+004  0.2219772E+02  0.7546771E-02  0.1502826E+00
         21   -1    0    0  501  502  0.00000000000E+00  0.00000000000E+00  0.24320740406E+02  0.24320740406E+02  0.00000000000E+00 0. -1.
         21   -1    0    0  502  503 -0.00000000000E+00 -0.00000000000E+00 -0.28844429927E+02  0.28844429927E+02  0.00000000000E+00 0.  1.
          2    1    1    2  501    0  0.39594583069E+01  0.21841734631E+02  0.12239940284E+02  0.25348665052E+02  0.00000000000E+00 0. -1.
         -2    1    1    2    0  503 -0.39594583069E+01 -0.21841734631E+02 -0.16763629805E+02  0.27816505280E+02  0.00000000000E+00 0.  1.
</event>
<event>
 4    1  0.1727273E+004  0.4387694E+02  0.7546771E-02  0.1327151E+00
         21   -1    0    0  501  502  0.00000000000E+00  0.00000000000E+00  0.19647865970E+02  0.19647865970E+02  0.00000000000E+00 0.  1.
         21   -1    0    0  502  503 -0.00000000000E+00 -0.00000000000E+00 -0.14464618981E+03  0.14464618981E+03  0.00000000000E+00 0. -1.
          2    1    1    2  501    0  0.33733387276E+02 -0.28057875898E+02 -0.15841958182E+02  0.46649259973E+02  0.00000000000E+00 0. -1.
         -2    1    1    2    0  503 -0.33733387276E+02  0.28057875898E+02 -0.10915636566E+03  0.11764479581E+03  0.00000000000E+00 0.  1.
</event>
<event>
 4    1  0.1727273E+004  0.3666844E+02  0.7546771E-02  0.1369198E+00
         21   -1    0    0  501  502  0.00000000000E+00  0.00000000000E+00  0.24222316525E+02  0.24222316525E+02  0.00000000000E+00 0.  1.
         21   -1    0    0  502  503 -0.00000000000E+00 -0.00000000000E+00 -0.59797201727E+02  0.59797201727E+02  0.00000000000E+00 0. -1.
          2    1    1    2  501    0 -0.36601500555E+02 -0.22147207387E+01 -0.29036319951E+02  0.46772670515E+02  0.00000000000E+00 0. -1.
         -2    1    1    2    0  503  0.36601500555E+02  0.22147207387E+01 -0.65385652507E+01  0.37246847737E+02  0.00000000000E+00 0.  1.
</event>
<event>
 4    1  0.1727273E+004  0.3023742E+02  0.7546771E-02  0.1417544E+00
         21   -1    0    0  503  502  0.00000000000E+00  0.00000000000E+00  0.16172273384E+02  0.16172273384E+02  0.00000000000E+00 0. -1.
         21   -1    0    0  501  503 -0.00000000000E+00 -0.00000000000E+00 -0.12066906679E+03  0.12066906679E+03  0.00000000000E+00 0.  1.
          2    1    1    2  501    0  0.87933548363E+01  0.28930576262E+02 -0.10212918949E+03  0.10651137347E+03  0.00000000000E+00 0.  1.
         -2    1    1    2    0  502 -0.87933548363E+01 -0.28930576262E+02 -0.23676039168E+01  0.30329966707E+02  0.00000000000E+00 0. -1.
</event>
<event>
 4    1  0.1727273E+004  0.4103713E+02  0.7546771E-02  0.1342513E+00
         21   -1    0    0  503  502  0.00000000000E+00  0.00000000000E+00  0.10620761972E+03  0.10620761972E+03  0.00000000000E+00 0.  1.
         21   -1    0    0  501  503 -0.00000000000E+00 -0.00000000000E+00 -0.26040507344E+02  0.26040507344E+02  0.00000000000E+00 0. -1.
          2    1    1    2  501    0 -0.17350290226E+02 -0.37188892659E+02 -0.12688852157E+01  0.41056745826E+02  0.00000000000E+00 0. -1.
         -2    1    1    2    0  502  0.17350290226E+02  0.37188892659E+02  0.81435997587E+02  0.91191381233E+02  0.00000000000E+00 0.  1.
</event>
<event>
 4    1  0.1727273E+004  0.2199780E+02  0.7546771E-02  0.1505481E+00
         21   -1    0    0  501  502  0.00000000000E+00  0.00000000000E+00  0.11680889809E+01  0.11680889809E+01  0.00000000000E+00 0. -1.
         21   -1    0    0  502  503 -0.00000000000E+00 -0.00000000000E+00 -0.53469140538E+03  0.53469140538E+03  0.00000000000E+00 0.  1.
          2    1    1    2  501    0  0.20306905380E+02  0.84577141344E+01 -0.13960984766E+03  0.14133227833E+03  0.00000000000E+00 0. -1.
         -2    1    1    2    0  503 -0.20306905380E+02 -0.84577141344E+01 -0.39391346875E+03  0.39452721604E+03  0.00000000000E+00 0.  1.
</event>
<event>
 4    1  0.1727273E+004  0.2833372E+02  0.7546771E-02  0.1434652E+00
         21   -1    0    0  503  502  0.00000000000E+00  0.00000000000E+00  0.24623023912E+03  0.24623023912E+03  0.00000000000E+00 0. -1.
         21   -1    0    0  501  503 -0.00000000000E+00 -0.00000000000E+00 -0.60025114250E+01  0.60025114250E+01  0.00000000000E+00 0.  1.
          2    1    1    2  501    0 -0.78789705188E+01 -0.27216199299E+02  0.34872468196E+02  0.44932045567E+02  0.00000000000E+00 0.  1.
         -2    1    1    2    0  502  0.78789705188E+01  0.27216199299E+02  0.20535525950E+03  0.20730070497E+03  0.00000000000E+00 0. -1.
</event>
<event>
 4    1  0.1727273E+004  0.2010901E+02  0.7546771E-02  0.1532376E+00
         21   -1    0    0  501  502  0.00000000000E+00  0.00000000000E+00  0.71000403282E+03  0.71000403282E+03  0.00000000000E+00 0.  1.
         21   -1    0    0  502  503 -0.00000000000E+00 -0.00000000000E+00 -0.80767139690E+00  0.80767139690E+00  0.00000000000E+00 0. -1.
          2    1    1    2  501    0  0.18434049114E+02 -0.80347988847E+01  0.54758164381E+03  0.54795075399E+03  0.00000000000E+00 0.  1.
         -2    1    1    2    0  503 -0.18434049114E+02  0.80347988847E+01  0.16161471761E+03  0.16286095022E+03  0.00000000000E+00 0. -1.
</event>
<event>
 4    1  0.1727273E+004  0.2082565E+02  0.7546771E-02  0.1521769E+00
         21   -1    0    0  503  502  0.00000000000E+00  0.00000000000E+00  0.31091234202E+03  0.31091234202E+03  0.00000000000E+00 0.  1.
         21   -1    0    0  501  503 -0.00000000000E+00 -0.00000000000E+00 -0.16346445719E+01  0.16346445719E+01  0.00000000000E+00 0. -1.
          2    1    1    2  501    0  0.36543218518E+00 -0.20822446546E+02  0.94797570775E+02  0.97058164240E+02  0.00000000000E+00 0. -1.
         -2    1    1    2    0  502 -0.36543218518E+00  0.20822446546E+02  0.21448012667E+03  0.21548882235E+03  0.00000000000E+00 0.  1.
</event>
<event>
 4    1  0.1727273E+004  0.2250179E+02  0.7546771E-02  0.1498851E+00
         21   -1    0    0  501  502  0.00000000000E+00  0.00000000000E+00  0.13853415579E+03  0.13853415579E+03  0.00000000000E+00 0.  1.
         21   -1    0    0  502  503 -0.00000000000E+00 -0.00000000000E+00 -0.56706365841E+01  0.56706365841E+01  0.00000000000E+00 0. -1.
          2    1    1    2  501    0 -0.60385610959E+01  0.21676400425E+02  0.10941994072E+03  0.11170968616E+03  0.00000000000E+00 0. -1.
         -2    1    1    2    0  503  0.60385610959E+01 -0.21676400425E+02  0.23443578488E+02  0.32495106213E+02  0.00000000000E+00 0.  1.
</event>
<event>
 4    1  0.1727273E+004  0.2004206E+02  0.7546771E-02  0.1533394E+00
         21   -1    0    0  501  502  0.00000000000E+00  0.00000000000E+00  0.28388656072E+02  0.28388656072E+02  0.00000000000E+00 0. -1.
         21   -1    0    0  502  503 -0.00000000000E+00 -0.00000000000E+00 -0.25118894836E+02  0.25118894836E+02  0.00000000000E+00 0.  1.
          2    1    1    2  501    0  0.74468286835E+01  0.18607222266E+02  0.19314669008E+02  0.27834159171E+02  0.00000000000E+00 0. -1.
         -2    1    1    2    0  503 -0.74468286835E+01 -0.18607222266E+02 -0.16044907771E+02  0.25673391737E+02  0.00000000000E+00 0.  1.
</event>
<event>
 4    1  0.1727273E+004  0.2300130E+02  0.7546771E-02  0.1492482E+00
         21   -1    0    0  503  502  0.00000000000E+00  0.00000000000E+00  0.27208710247E+01  0.27208710247E+01  0.00000000000E+00 0. -1.
         21   -1    0    0  501  503 -0.00000000000E+00 -0.00000000000E+00 -0.24065054401E+03  0.24065054401E+03  0.00000000000E+00 0.  1.
          2    1    1    2  501    0 -0.22266468380E+02  0.57675196663E+01 -0.17228518332E+03  0.17381382076E+03  0.00000000000E+00 0.  1.
         -2    1    1    2    0  502  0.22266468380E+02 -0.57675196663E+01 -0.65644489672E+02  0.69557594276E+02  0.00000000000E+00 0. -1.
</event>
<event>
 4    1  0.1727273E+004  0.3086119E+02  0.7546771E-02  0.1412257E+00
         21   -1    0    0  503  502  0.00000000000E+00  0.00000000000E+00  0.35248909108E+02  0.35248909108E+02  0.00000000000E+00 0. -1.
         21   -1    0    0  501  503 -0.00000000000E+00 -0.00000000000E+00 -0.28178403868E+02  0.28178403868E+02  0.00000000000E+00 0.  1.
          2    1    1    2  501    0  0.36163572168E+01  0.30648575748E+02 -0.28958207879E+01  0.30996758103E+02  0.00000000000E+00 0.  1.
         -2    1    1    2    0  502 -0.36163572168E+01 -0.30648575748E+02  0.99663260285E+01  0.32430554873E+02  0.00000000000E+00 0. -1.
</event>
<event>
 4    1  0.1727273E+004  0.2438391E+02  0.7546771E-02  0.1475815E+00
         21   -1    0    0  501  502  0.00000000000E+00  0.00000000000E+00  0.54899439784E+02  0.54899439784E+02  0.00000000000E+00 0.  1.
         21   -1    0    0  502  503 -0.00000000000E+00 -0.00000000000E+00 -0.14248520191E+02  0.14248520191E+02  0.00000000000E+00 0. -1.
          2    1    1    2  501    0  0.23740421101E+02 -0.55648550004E+01  0.37259752244E+02  0.44529364946E+02  0.00000000000E+00 0.  1.
         -2    1    1    2    0  503 -0.23740421101E+02  0.55648550004E+01  0.33911673487E+01  0.24618595029E+02  0.00000000000E+00 0. -1.
</event>
<event>
 4    1  0.1727273E+004  0.2127918E+02  0.7546771E-02  0.1515316E+00
         21   -1    0    0  501  502  0.00000000000E+00  0.00000000000E+00  0.40460935442E+02  0.40460935442E+02  0.00000000000E+00 0.  1.
         21   -1    0    0  502  503 -0.00000000000E+00 -0.00000000000E+00 -0.12808265366E+02  0.12808265366E+02  0.00000000000E+00 0. -1.
          2    1    1    2  501    0 -0.19922936281E+02  0.74752885921E+01  0.23290342492E+02  0.31547478235E+02  0.00000000000E+00 0. -1.
         -2    1    1    2    0  503  0.19922936281E+02 -0.74752885921E+01  0.43623275842E+01  0.21721722574E+02  0.00000000000E+00 0.  1.
</event>
<event>
 4    1  0.1727273E+004  0.2009282E+02  0.7546771E-02  0.1532621E+00
         21   -1    0    0  501  502  0.00000000000E+00  0.00000000000E+00  0.38512409923E+02  0.38512409923E+02  0.00000000000E+00 0. -1.
         21   -1    0    0  502  503 -0.00000000000E+00 -0.00000000000E+00 -0.11168500134E+02  0.11168500134E+02  0.00000000000E+00 0.  1.
          2    1    1    2  501    0  0.24019461303E+01  0.19948739709E+02  0.19826543858E+02  0.28227883423E+02  0.00000000000E+00 0. -1.
         -2    1    1    2    0  503 -0.24019461303E+01 -0.19948739709E+02  0.75173659316E+01  0.21453026634E+02  0.00000000000E+00 0.  1.
</event>
<event>
 4    1  0.1727273E+004  0.2888366E+02  0.7546771E-02  0.1429552E+00
         21   -1    0    0  501  502  0.00000000000E+00  0.00000000000E+00  0.11225270415E+03  0.11225270415E+03  0.00000000000E+00 0.  1.
         21   -1    0    0  502  503 -0.00000000000E+00 -0.00000000000E+00 -0.88134238064E+01  0.88134238064E+01  0.00000000000E+00 0. -1.
          2    1    1    2  501    0 -0.26236597527E+02 -0.12079192980E+02  0.75684693442E+02  0.81008880835E+02  0.00000000000E+00 0.  1.
         -2    1    1    2    0  503  0.26236597527E+02  0.12079192980E+02  0.27754586902E+02  0.40057247121E+02  0.00000000000E+00 0. -1.
</event>
<event>
 4    1  0.1727273E+004  0.2229932E+02  0.7546771E-02  0.1501489E+00
         21   -1    0    0  501  502  0.00000000000E+00  0.00000000000E+00  0.17017231830E+02  0.17017231830E+02  0.00000000000E+00 0.  1.
         21   -1    0    0  502  503 -0.00000000000E+00 -0.00000000000E+00 -0.18898584394E+03  0.18898584394E+03  0.00000000000E+00 0. -1.
          2    1    1    2  501    0 -0.20411035316E+02  0.89804929839E+01  0.87200062226E+01  0.23943644781E+02  0.00000000000E+00 0.  1.
         -2    1    1    2    0  503  0.20411035316E+02 -0.89804929839E+01 -0.18068861834E+03  0.18205943099E+03  0.00000000000E+00 0. -1.
</event>
<event>
 4    1  0.1727273E+004  0.4290137E+02  0.7546771E-02  0.1332274E+00
         21   -1    0    0  503  502  0.00000000000E+00  0.00000000000E+00  0.32396679470E+02  0.32396679470E+02  0.00000000000E+00 0.  1.
         21   -1    0    0  501  503 -0.00000000000E+00 -0.00000000000E+00 -0.11286108912E+03  0.11286108912E+03  0.00000000000E+00 0. -1.
          2    1    1    2  501    0 -0.35567477672E+02 -0.23989206606E+02 -0.91414605827E+02  0.10098097672E+03  0.00000000000E+00 0. -1.
         -2    1    1    2    0  502  0.35567477672E+02  0.23989206606E+02  0.10950196179E+02  0.44276791865E+02  0.00000000000E+00 0.  1.
</event>
<event>
 4    1  0.1727273E+004  0.2804509E+02  0.7546771E-02  0.1437383E+00
         21   -1    0    0  501  502  0.00000000000E+00  0.00000000000E+00  0.85052158260E+02  0.85052158260E+02  0.00000000000E+00 0. -1.
         21   -1    0    0  502  503 -0.00000000000E+00 -0.00000000000E+00 -0.17179763578E+02  0.17179763578E+02  0.00000000000E+00 0.  1.
          2    1    1    2  501    0 -0.53787348513E+01 -0.27524465946E+02  0.68669349199E+02  0.74175511684E+02  0.00000000000E+00 0. -1.
         -2    1    1    2    0  503  0.53787348513E+01  0.27524465946E+02 -0.79695451733E+00  0.28056410154E+02  0.00000000000E+00 0.  1.
</event>
<event>
 4    1  0.1727273E+004  0.2013421E+02  0.7546771E-02  0.1531994E+00
         21   -1    0    0  503  502  0.00000000000E+00  0.00000000000E+00  0.19769997760E+03  0.19769997760E+03  0.00000000000E+00 0. -1.
         21   -1    0    0  501  503 -0.00000000000E+00 -0.00000000000E+00 -0.23616900355E+01  0.23616900355E+01  0.00000000000E+00 0.  1.
          2    1    1    2  501    0 -0.32140770675E+01 -0.19876014664E+02  0.61359110502E+02  0.64578066647E+02  0.00000000000E+00 0. -1.
         -2    1    1    2    0  502  0.32140770675E+01  0.19876014664E+02  0.13397917706E+03  0.13548360099E+03  0.00000000000E+00 0.  1.
</event>
<event>
 4    1  0.1727273E+004  0.5219835E+02  0.7546771E-02  0.1288913E+00
         21   -1    0    0  503  502  0.00000000000E+00  0.00000000000E+00  0.20811752752E+03  0.20811752752E+03  0.00000000000E+00 0.  1.
         21   -1    0    0  501  503 -0.00000000000E+00 -0.00000000000E+00 -0.13390498384E+02  0.13390498384E+02  0.00000000000E+00 0. -1.
          2    1    1    2  501    0 -0.14078964258E+02 -0.50263809753E+02  0.11390049023E+03  0.12529161775E+03  0.00000000000E+00 0. -1.
         -2    1    1    2    0  502  0.14078964258E+02  0.50263809753E+02  0.80826538911E+02  0.96216408153E+02  0.00000000000E+00 0.  1.
</event>
<event>
 4    1  0.1727273E+004  0.2185986E+02  0.7546771E-02  0.1507334E+00
         21   -1    0    0  501  502  0.00000000000E+00  0.00000000000E+00  0.54837821416E+01  0.54837821416E+01  0.00000000000E+00 0. -1.
         21   -1    0    0  502  503 -0.00000000000E+00 -0.00000000000E+00 -0.26974693000E+03  0.26974693000E+03  0.00000000000E+00 0.  1.
          2    1    1    2  501    0  0.14172670374E+02  0.16642989176E+02 -0.18905110389E+02  0.28900810941E+02  0.00000000000E+00 0. -1.
         -2    1    1    2    0  503 -0.14172670374E+02 -0.16642989176E+02 -0.24535803747E+03  0.24632990120E+03  0.00000000000E+00 0.  1.
</event>
<event>
 4    1  0.1727273E+004  0.2662459E+02  0.7546771E-02  0.1451416E+00
         21   -1    0    0  501  502  0.00000000000E+00  0.00000000000E+00  0.12061268069E+04  0.12061268069E+04  0.00000000000E+00 0.  1.
         21   -1    0    0  502  503 -0.00000000000E+00 -0.00000000000E+00 -0.13137510510E+01  0.13137510510E+01  0.00000000000E+00 0. -1.
          2    1    1    2  501    0  0.59857234266E+01 -0.25943009113E+02  0.10512096724E+04  0.10515467863E+04  0.00000000000E+00 0.  1.
         -2    1    1    2    0  503 -0.59857234266E+01  0.25943009113E+02  0.15360338352E+03  0.15589377164E+03  0.00000000000E+00 0. -1.
</event>
<event>
 4    1  0.1727273E+004  0.4083358E+02  0.7546771E-02  0.1343669E+00
         21   -1    0    0  501  502  0.00000000000E+00  0.00000000000E+00  0.17525859668E+03  0.17525859668E+03  0.00000000000E+00 0. -1.
         21   -1    0    0  502  503 -0.00000000000E+00 -0.00000000000E+00 -0.15974298840E+02  0.15974298840E+02  0.00000000000E+00 0.  1.
          2    1    1    2  501    0 -0.24969809098E+02  0.32309283827E+02  0.14044915041E+03  0.14626464042E+03  0.00000000000E+00 0. -1.
         -2    1    1    2    0  503  0.24969809098E+02 -0.32309283827E+02  0.18835147435E+02  0.44968255100E+02  0.00000000000E+00 0.  1.
</event>
<event>
 4    1  0.1727273E+004  0.2583192E+02  0.7546771E-02  0.1459708E+00
         21   -1    0    0  501  502  0.00000000000E+00  0.00000000000E+00  0.36274210824E+02  0.36274210824E+02  0.00000000000E+00 0.  1.
         21   -1    0    0  502  503 -0.00000000000E+00 -0.00000000000E+00 -0.30066073207E+02  0.30066073207E+02  0.00000000000E+00 0. -1.
          2    1    1    2  501    0  0.12111252003E+00 -0.25831631750E+02  0.23769867071E+02  0.35104051727E+02  0.00000000000E+00 0.  1.
         -2    1    1    2    0  503 -0.12111252003E+00  0.25831631750E+02 -0.17561729454E+02  0.31236232303E+02  0.00000000000E+00 0. -1.
</event>
<event>
 4    1  0.1727273E+004  0.2337298E+02  0.7546771E-02  0.1487867E+00
         21   -1    0    0  501  502  0.00000000000E+00  0.00000000000E+00  0.36421068052E+03  0.36421068052E+03  0.00000000000E+00 0. -1.
         21   -1    0    0  502  503 -0.00000000000E+00 -0.00000000000E+00 -0.18985339851E+01  0.18985339851E+01  0.00000000000E+00 0.  1.
          2    1    1    2  501    0  0.88539806031E+01 -0.21631074048E+02  0.26503127975E+03  0.26605990977E+03  0.00000000000E+00 0. -1.
         -2    1    1    2    0  503 -0.88539806031E+01  0.21631074048E+02  0.97280866781E+02  0.10004930474E+03  0.00000000000E+00 0.  1.
</event>
<event>
 4    1  0.1727273E+004  0.2172391E+02  0.7546771E-02  0.1509175E+00
         21   -1    0    0  501  502  0.00000000000E+00  0.00000000000E+00  0.17309545283E+02  0.17309545283E+02  0.00000000000E+00 0. -1.
         21   -1    0    0  502  503 -0.00000000000E+00 -0.00000000000E+00 -0.12790828185E+03  0.12790828185E+03  0.00000000000E+00 0.  1.
          2    1    1    2  501    0 -0.45582105974E+00  0.21719131366E+02  0.91079229107E+01  0.23555948291E+02  0.00000000000E+00 0. -1.
         -2    1    1    2    0  503  0.45582105974E+00 -0.21719131366E+02 -0.11970665948E+03  0.12166187885E+03  0.00000000000E+00 0.  1.
</event>
<event>
 4    1  0.1727273E+004  0.2038064E+02  0.7546771E-02  0.1528294E+00
         21   -1    0    0  501  502  0.00000000000E+00  0.00000000000E+00  0.11948211007E+02  0.11948211007E+02  0.00000000000E+00 0. -1.
         21   -1    0    0  502  503 -0.00000000000E+00 -0.00000000000E+00 -0.40742384802E+02  0.40742384802E+02  0.00000000000E+00 0.  1.
          2    1    1    2  501    0  0.19032088239E+02  0.72904128056E+01 -0.43054172586E+01  0.20830437330E+02  0.00000000000E+00 0. -1.
         -2    1    1    2    0  503 -0.19032088239E+02 -0.72904128056E+01 -0.24488756536E+02  0.31860158478E+02  0.00000000000E+00 0.  1.
</event>
<event>
 4    1  0.1727273E+004  0.2130421E+02  0.7546771E-02  0.1514966E+00
         21   -1    0    0  503  502  0.00000000000E+00  0.00000000000E+00  0.81084978988E+01  0.81084978988E+01  0.00000000000E+00 0. -1.
         21   -1    0    0  501  503 -0.00000000000E+00 -0.00000000000E+00 -0.56289188156E+02  0.56289188156E+02  0.00000000000E+00 0.  1.
          2    1    1    2  501    0  0.96735087637E+00 -0.21282241069E+02 -0.26497648258E+02  0.33999925233E+02  0.00000000000E+00 0.  1.
         -2    1    1    2    0  502 -0.96735087637E+00  0.21282241069E+02 -0.21683042000E+02  0.30397760822E+02  0.00000000000E+00 0. -1.
</event>
<event>
 4    1  0.1727273E+004  0.5052680E+02  0.7546771E-02  0.1295904E+00
         21   -1    0    0  503  502  0.00000000000E+00  0.00000000000E+00  0.21314270417E+03  0.21314270417E+03  0.00000000000E+00 0. -1.
         21   -1    0    0  501  503 -0.00000000000E+00 -0.00000000000E+00 -0.13351628719E+02  0.13351628719E+02  0.00000000000E+00 0.  1.
          2    1    1    2  501    0  0.28587263633E+02  0.41662046073E+02  0.63567366172E+02  0.81202018245E+02  0.00000000000E+00 0.  1.
         -2    1    1    2    0  502 -0.28587263633E+02 -0.41662046073E+02  0.13622370928E+03  0.14529231464E+03  0.00000000000E+00 0. -1.
</event>
<event>
 4    1  0.1727273E+004  0.2468069E+02  0.7546771E-02  0.1472407E+00
         21   -1    0    0  501  502  0.00000000000E+00  0.00000000000E+00  0.21002415123E+02  0.21002415123E+02  0.00000000000E+00 0. -1.
         21   -1    0    0  502  503 -0.00000000000E+00 -0.00000000000E+00 -0.46840782755E+02  0.46840782755E+02  0.00000000000E+00 0.  1.
          2    1    1    2  501    0  0.23105170682E+02  0.86768282845E+01 -0.33852248457E+02  0.41894044766E+02  0.00000000000E+00 0.  1.
         -2    1    1    2    0  503 -0.23105170682E+02 -0.86768282845E+01  0.80138808251E+01  0.25949153111E+02  0.00000000000E+00 0. -1.
</event>
<event>
 4    1  0.1727273E+004  0.2216200E+02  0.7546771E-02  0.1503298E+00
         21   -1    0    0  503  502  0.00000000000E+00  0.00000000000E+00  0.34582812549E+03  0.34582812549E+03  0.00000000000E+00 0.  1.
         21   -1    0    0  501  503 -0.00000000000E+00 -0.00000000000E+00 -0.22516573186E+01  0.22516573186E+01  0.00000000000E+00 0. -1.
          2    1    1    2  501    0 -0.69758021350E+01 -0.21035505989E+02  0.66030857249E+02  0.69650760489E+02  0.00000000000E+00 0. -1.
         -2    1    1    2    0  502  0.69758021350E+01  0.21035505989E+02  0.27754561092E+03  0.27842902232E+03  0.00000000000E+00 0.  1.
</event>
<event>
 4    1  0.1727273E+004  0.2938366E+02  0.7546771E-02  0.1425029E+00
         21   -1    0    0  503  502  0.00000000000E+00  0.00000000000E+00  0.21225095541E+02  0.21225095541E+02  0.00000000000E+00 0. -1.
         21   -1    0    0  501  503 -0.00000000000E+00 -0.00000000000E+00 -0.41815651341E+02  0.41815651341E+02  0.00000000000E+00 0.  1.
          2    1    1    2  501    0  0.64789689952E+01 -0.28660469651E+02 -0.15493806453E+02  0.33218332262E+02  0.00000000000E+00 0. -1.
         -2    1    1    2    0  502 -0.64789689952E+01  0.28660469651E+02 -0.50967493472E+01  0.29822414620E+02  0.00000000000E+00 0.  1.
</event>
<event>
 4    1  0.1727273E+004  0.2272175E+02  0.7546771E-02  0.1496022E+00
         21   -1    0    0  501  502  0.00000000000E+00  0.00000000000E+00  0.42516879358E+02  0.42516879358E+02  0.00000000000E+00 0.  1.
         21   -1    0    0  502  503 -0.00000000000E+00 -0.00000000000E+00 -0.30431405198E+02  0.30431405198E+02  0.00000000000E+00 0. -1.
          2    1    1    2  501    0  0.17300090229E+02 -0.14730405805E+02  0.34318429954E+02  0.41158627426E+02  0.00000000000E+00 0.  1.
         -2    1    1    2    0  503 -0.17300090229E+02  0.14730405805E+02 -0.22232955794E+02  0.31789657130E+02  0.00000000000E+00 0. -1.
</event>
<event>
 4    1  0.1727273E+004  0.3024683E+02  0.7546771E-02  0.1417463E+00
         21   -1    0    0  503  502  0.00000000000E+00  0.00000000000E+00  0.38091336966E+03  0.38091336966E+03  0.00000000000E+00 0. -1.
         21   -1    0    0  501  503 -0.00000000000E+00 -0.00000000000E+00 -0.36342352478E+01  0.36342352478E+01  0.00000000000E+00 0.  1.
          2    1    1    2  501    0 -0.19947417078E+02  0.22736997902E+02  0.30060887340E+03  0.30212673713E+03  0.00000000000E+00 0. -1.
         -2    1    1    2    0  502  0.19947417078E+02 -0.22736997902E+02  0.76670261017E+02  0.82420867783E+02  0.00000000000E+00 0.  1.
</event>
<event>
 4    1  0.1727273E+004  0.2884660E+02  0.7546771E-02  0.1429891E+00
         21   -1    0    0  503  502  0.00000000000E+00  0.00000000000E+00  0.88398671233E+01  0.88398671233E+01  0.00000000000E+00 0. -1.
         21   -1    0    0  501  503 -0.00000000000E+00 -0.00000000000E+00 -0.11183029964E+03  0.11183029964E+03  0.00000000000E+00 0.  1.
          2    1    1    2  501    0 -0.25553170553E+02  0.13385133355E+02 -0.75496770209E+02  0.80820100421E+02  0.00000000000E+00 0.  1.
         -2    1    1    2    0  502  0.25553170553E+02 -0.13385133355E+02 -0.27493662304E+02  0.39850066337E+02  0.00000000000E+00 0. -1.
</event>
<event>
 4    1  0.1727273E+004  0.2966346E+02  0.7546771E-02  0.1422544E+00
         21   -1    0    0  503  502  0.00000000000E+00  0.00000000000E+00  0.32150016030E+02  0.32150016030E+02  0.00000000000E+00 0. -1.
         21   -1    0    0  501  503 -0.00000000000E+00 -0.00000000000E+00 -0.41418244402E+02  0.41418244402E+02  0.00000000000E+00 0.  1.
          2    1    1    2  501    0 -0.12987675373E+02 -0.26669110030E+02 -0.26057474742E+02  0.39483073986E+02  0.00000000000E+00 0.  1.
         -2    1    1    2    0  502  0.12987675373E+02  0.26669110030E+02  0.16789246371E+02  0.34085186447E+02  0.00000000000E+00 0. -1.
</event>
<event>
 4    1  0.1727273E+004  0.6931376E+02  0.7546771E-02  0.1231098E+00
         21   -1    0    0  503  502  0.00000000000E+00  0.00000000000E+00  0.81726637271E+02  0.81726637271E+02  0.00000000000E+00 0.  1.
         21   -1    0    0  501  503 -0.00000000000E+00 -0.00000000000E+00 -0.93582082236E+02  0.93582082236E+02  0.00000000000E+00 0. -1.
          2    1    1    2  501    0  0.69028968016E+02  0.62768739410E+01 -0.59376916733E+02  0.91268920300E+02  0.00000000000E+00 0. -1.
         -2    1    1    2    0  502 -0.69028968016E+02 -0.62768739410E+01  0.47521471768E+02  0.84039799208E+02  0.00000000000E+00 0.  1.
</event>
<event>
 4    1  0.1727273E+004  0.2098148E+02  0.7546771E-02  0.1519529E+00
         21   -1    0    0  501  502  0.00000000000E+00  0.00000000000E+00  0.37171767294E+03  0.37171767294E+03  0.00000000000E+00 0. -1.
         21   -1    0    0  502  503 -0.00000000000E+00 -0.00000000000E+00 -0.31871720159E+01  0.31871720159E+01  0.00000000000E+00 0.  1.
          2    1    1    2  501    0  0.94445665611E+01 -0.18735597866E+02  0.33286419139E+03  0.33352480024E+03  0.00000000000E+00 0. -1.
         -2    1    1    2    0  503 -0.94445665611E+01  0.18735597866E+02  0.35666309529E+02  0.41380044712E+02  0.00000000000E+00 0.  1.
</event>
<event>
 4    1  0.1727273E+004  0.2260180E+02  0.7546771E-02  0.1497560E+00
         21   -1    0    0  501  502  0.00000000000E+00  0.00000000000E+00  0.97920747212E+02  0.97920747212E+02  0.00000000000E+00 0. -1.
         21   -1    0    0  502  503 -0.00000000000E+00 -0.00000000000E+00 -0.53521334179E+01  0.53521334179E+01  0.00000000000E+00 0.  1.
          2    1    1    2  501    0 -0.20275820297E+02 -0.99866108147E+01  0.54492712581E+02  0.58994042146E+02  0.00000000000E+00 0.  1.
         -2    1    1    2    0  503  0.20275820297E+02  0.99866108147E+01  0.38075901214E+02  0.44278838484E+02  0.00000000000E+00 0. -1.
</event>
<event>
 4    1  0.1727273E+004  0.2800037E+02  0.7546771E-02  0.1437810E+00
         21   -1    0    0  501  502  0.00000000000E+00  0.00000000000E+00  0.21023850710E+03  0.21023850710E+03  0.00000000000E+00 0.  1.
         21   -1    0    0  502  503 -0.00000000000E+00 -0.00000000000E+00 -0.28846268402E+02  0.28846268402E+02  0.00000000000E+00 0. -1.
          2    1    1    2  501    0  0.14596659137E+02  0.23894735511E+02  0.20224407232E+03  0.20417317559E+03  0.00000000000E+00 0.  1.
         -2    1    1    2    0  503 -0.14596659137E+02 -0.23894735511E+02 -0.20851833619E+02  0.34911599912E+02  0.00000000000E+00 0. -1.
</event>
<event>
 4    1  0.1727273E+004  0.3201946E+02  0.7546771E-02  0.1402823E+00
         21   -1    0    0  501  502  0.00000000000E+00  0.00000000000E+00  0.67066402650E+02  0.67066402650E+02  0.00000000000E+00 0.  1.
         21   -1    0    0  502  503 -0.00000000000E+00 -0.00000000000E+00 -0.48725234688E+02  0.48725234688E+02  0.00000000000E+00 0. -1.
          2    1    1    2  501    0 -0.32019427444E+02 -0.42403216031E-01  0.57131974014E+02  0.65492808663E+02  0.00000000000E+00 0.  1.
         -2    1    1    2    0  503  0.32019427444E+02  0.42403216031E-01 -0.38790806051E+02  0.50298828674E+02  0.00000000000E+00 0. -1.
</event>
<event>
 4    1  0.1727273E+004  0.3446187E+02  0.7546771E-02  0.1384386E+00
         21   -1    0    0  503  502  0.00000000000E+00  0.00000000000E+00  0.12374842682E+02  0.12374842682E+02  0.00000000000E+00 0.  1.
         21   -1    0    0  501  503 -0.00000000000E+00 -0.00000000000E+00 -0.37887990018E+03  0.37887990018E+03  0.00000000000E+00 0. -1.
          2    1    1    2  501    0  0.34457562597E+02 -0.54479281419E+00 -0.35229759088E+03  0.35397911373E+03  0.00000000000E+00 0. -1.
         -2    1    1    2    0  502 -0.34457562597E+02  0.54479281419E+00 -0.14207466619E+02  0.37275629131E+02  0.00000000000E+00 0.  1.
</event>
<event>
 4    1  0.1727273E+004  0.2257326E+02  0.7546771E-02  0.1497927E+00
         21   -1    0    0  501  502  0.00000000000E+00  0.00000000000E+00  0.17841148433E+03  0.17841148433E+03  0.00000000000E+00 0. -1.
         21   -1    0    0  502  503 -0.00000000000E+00 -0.00000000000E+00 -0.32625714096E+01  0.32625714096E+01  0.00000000000E+00 0.  1.
          2    1    1    2  501    0  0.20491829328E+02  0.94676802788E+01  0.11963898481E+03  0.12174990236E+03  0.00000000000E+00 0. -1.
         -2    1    1    2    0  503 -0.20491829328E+02 -0.94676802788E+01  0.55509928114E+02  0.59924153380E+02  0.00000000000E+00 0.  1.
</event>
<event>
 4    1  0.1727273E+004  0.2086228E+02  0.7546771E-02  0.1521240E+00
         21   -1    0    0  501  502  0.00000000000E+00  0.00000000000E+00  0.69709945397E+02  0.69709945397E+02  0.00000000000E+00 0.  1.
         21   -1    0    0  502  503 -0.00000000000E+00 -0.00000000000E+00 -0.62657518939E+01  0.62657518939E+01  0.00000000000E+00 0. -1.
          2    1    1    2  501    0 -0.19456405799E+02  0.75288074850E+01  0.29458734187E+02  0.36097807256E+02  0.00000000000E+00 0.  1.
         -2    1    1    2    0  503  0.19456405799E+02 -0.75288074850E+01  0.33985459316E+02  0.39877890035E+02  0.00000000000E+00 0. -1.
</event>
<event>
 4    1  0.1727273E+004  0.2339006E+02  0.7546771E-02  0.1487657E+00
         21   -1    0    0  503  502  0.00000000000E+00  0.00000000000E+00  0.36332337832E+02  0.36332337832E+02  0.00000000000E+00 0. -1.
         21   -1    0    0  501  503 -0.00000000000E+00 -0.00000000000E+00 -0.15266158229E+02  0.15266158229E+02  0.00000000000E+00 0.  1.
          2    1    1    2  501    0 -0.21974395175E+02  0.80137877706E+01  0.75210041242E+01  0.24569500214E+02  0.00000000000E+00 0.  1.
         -2    1    1    2    0  502  0.21974395175E+02 -0.80137877706E+01  0.13545175479E+02  0.27028995847E+02  0.00000000000E+00 0. -1.
</event>
<event>
 4    1  0.1727273E+004  0.2348466E+02  0.7546771E-02  0.1486500E+00
         21   -1    0    0  503  502  0.00000000000E+00  0.00000000000E+00  0.87180762737E+02  0.87180762737E+02  0.00000000000E+00 0. -1.
         21   -1    0    0  501  503 -0.00000000000E+00 -0.00000000000E+00 -0.95344880402E+01  0.95344880402E+01  0.00000000000E+00 0.  1.
          2    1    1    2  501    0 -0.23061995785E+02  0.44354951505E+01  0.10772157084E+02  0.25837349614E+02  0.00000000000E+00 0.  1.
         -2    1    1    2    0  502  0.23061995785E+02 -0.44354951505E+01  0.66874117612E+02  0.70877901163E+02  0.00000000000E+00 0. -1.
</event>
<event>
 4    1  0.1727273E+004  0.5001406E+02  0.7546771E-02  0.1298112E+00
         21   -1    0    0  503  502  0.00000000000E+00  0.00000000000E+00  0.72118371441E+01  0.72118371441E+01  0.00000000000E+00 0.  1.
         21   -1    0    0  501  503 -0.00000000000E+00 -0.00000000000E+00 -0.35236398361E+03  0.35236398361E+03  0.00000000000E+00 0. -1.
          2    1    1    2  501    0 -0.15868093013E+01  0.49988876447E+02 -0.15008000880E+03  0.15819423117E+03  0.00000000000E+00 0.  1.
         -2    1    1    2    0  502  0.15868093013E+01 -0.49988876447E+02 -0.19507213766E+03  0.20138158958E+03  0.00000000000E+00 0. -1.
</event>
<event>
 4    1  0.1727273E+004  0.2364523E+02  0.7546771E-02  0.1484551E+00
         21   -1    0    0  503  502  0.00000000000E+00  0.00000000000E+00  0.83018907183E+00  0.83018907183E+00  0.00000000000E+00 0. -1.
         21   -1    0    0  501  503 -0.00000000000E+00 -0.00000000000E+00 -0.67999711409E+03  0.67999711409E+03  0.00000000000E+00 0.  1.
          2    1    1    2  501    0  0.11181205883E+02  0.20834525658E+02 -0.37296749469E+03  0.37371626793E+03  0.00000000000E+00 0.  1.
         -2    1    1    2    0  502 -0.11181205883E+02 -0.20834525658E+02 -0.30619943033E+03  0.30711103522E+03  0.00000000000E+00 0. -1.
</event>
<event>
 4    1  0.1727273E+004  0.2189567E+02  0.7546771E-02  0.1506851E+00
         21   -1    0    0  501  502  0.00000000000E+00  0.00000000000E+00  0.21926112520E+03  0.21926112520E+03  0.00000000000E+00 0.  1.
         21   -1    0    0  502  503 -0.00000000000E+00 -0.00000000000E+00 -0.26943712785E+01  0.26943712785E+01  0.00000000000E+00 0. -1.
          2    1    1    2  501    0 -0.21514710471E+02 -0.40666598587E+01  0.15646398082E+03  0.15798860017E+03  0.00000000000E+00 0.  1.
         -2    1    1    2    0  503  0.21514710471E+02  0.40666598587E+01  0.60102773097E+02  0.63966896306E+02  0.00000000000E+00 0. -1.
</event>
<event>
 4    1  0.1727273E+004  0.4064111E+02  0.7546771E-02  0.1344769E+00
         21   -1    0    0  501  502  0.00000000000E+00  0.00000000000E+00  0.68892681771E+01  0.68892681771E+01  0.00000000000E+00 0.  1.
         21   -1    0    0  502  503 -0.00000000000E+00 -0.00000000000E+00 -0.24017478771E+03  0.24017478771E+03  0.00000000000E+00 0. -1.
          2    1    1    2  501    0  0.47577274329E+01 -0.40361666836E+02 -0.12183966327E+03  0.12843910489E+03  0.00000000000E+00 0. -1.
         -2    1    1    2    0  503 -0.47577274329E+01  0.40361666836E+02 -0.11144585626E+03  0.11862495099E+03  0.00000000000E+00 0.  1.
</event>
<event>
 4    1  0.1727273E+004  0.2190248E+02  0.7546771E-02  0.1506759E+00
         21   -1    0    0  503  502  0.00000000000E+00  0.00000000000E+00  0.24472236495E+03  0.24472236495E+03  0.00000000000E+00 0.  1.
         21   -1    0    0  501  503 -0.00000000000E+00 -0.00000000000E+00 -0.49020295194E+01  0.49020295194E+01  0.00000000000E+00 0. -1.
          2    1    1    2  501    0 -0.17330269722E+02  0.13393302312E+02  0.23221941965E+02  0.31921425157E+02  0.00000000000E+00 0. -1.
         -2    1    1    2    0  502  0.17330269722E+02 -0.13393302312E+02  0.21659839347E+03  0.21770296931E+03  0.00000000000E+00 0.  1.
</event>
<event>
 4    1  0.1727273E+004  0.2310169E+02  0.7546771E-02  0.1491225E+00
         21   -1    0    0  503  502  0.00000000000E+00  0.00000000000E+00  0.12924043375E+02  0.12924043375E+02  0.00000000000E+00 0.  1.
         21   -1    0    0  501  503 -0.00000000000E+00 -0.00000000000E+00 -0.96503686039E+02  0.96503686039E+02  0.00000000000E+00 0. -1.
          2    1    1    2  501    0  0.96984074272E-01  0.23101483947E+02 -0.83173806836E+02  0.86322477432E+02  0.00000000000E+00 0. -1.
         -2    1    1    2    0  502 -0.96984074272E-01 -0.23101483947E+02 -0.40583582830E+00  0.23105251982E+02  0.00000000000E+00 0.  1.
</event>
<event>
 4    1  0.1727273E+004  0.2451648E+02  0.7546771E-02  0.1474286E+00
         21   -1    0    0  503  502  0.00000000000E+00  0.00000000000E+00  0.39023817813E+02  0.39023817813E+02  0.00000000000E+00 0.  1.
         21   -1    0    0  501  503 -0.00000000000E+00 -0.00000000000E+00 -0.83091206225E+02  0.83091206225E+02  0.00000000000E+00 0. -1.
          2    1    1    2  501    0 -0.10182626942E+02 -0.22301832574E+02 -0.77142402470E+02  0.80944474095E+02  0.00000000000E+00 0. -1.
         -2    1    1    2    0  502  0.10182626942E+02  0.22301832574E+02  0.33075014059E+02  0.41170549943E+02  0.00000000000E+00 0.  1.
</event>
<event>
 4    1  0.1727273E+004  0.2365096E+02  0.7546771E-02  0.1484482E+00
         21   -1    0    0  503  502  0.00000000000E+00  0.00000000000E+00  0.29968238642E+01  0.29968238642E+01  0.00000000000E+00 0. -1.
         21   -1    0    0  501  503 -0.00000000000E+00 -0.00000000000E+00 -0.25477998254E+03  0.25477998254E+03  0.00000000000E+00 0.  1.
          2    1    1    2  501    0  0.14128759661E+02  0.18966977728E+02 -0.19253982415E+03  0.19398698920E+03  0.00000000000E+00 0.  1.
         -2    1    1    2    0  502 -0.14128759661E+02 -0.18966977728E+02 -0.59243334524E+02  0.63789817206E+02  0.00000000000E+00 0. -1.
</event>
<event>
 4    1  0.1727273E+004  0.2187674E+02  0.7546771E-02  0.1507106E+00
         21   -1    0    0  501  502  0.00000000000E+00  0.00000000000E+00  0.32936602202E+03  0.32936602202E+03  0.00000000000E+00 0.  1.
         21   -1    0    0  502  503 -0.00000000000E+00 -0.00000000000E+00 -0.46796362087E+01  0.46796362087E+01  0.00000000000E+00 0. -1.
          2    1    1    2  501    0 -0.38722101562E+01  0.21531317594E+02  0.30103158986E+03  0.30182546238E+03  0.00000000000E+00 0.  1.
         -2    1    1    2    0  503  0.38722101562E+01 -0.21531317594E+02  0.23654795950E+02  0.32220195845E+02  0.00000000000E+00 0. -1.
</event>
<event>
 4    1  0.1727273E+004  0.2090763E+02  0.7546771E-02  0.1520588E+00
         21   -1    0    0  501  502  0.00000000000E+00  0.00000000000E+00  0.35030423274E+01  0.35030423274E+01  0.00000000000E+00 0. -1.
         21   -1    0    0  502  503 -0.00000000000E+00 -0.00000000000E+00 -0.49889204170E+03  0.49889204170E+03  0.00000000000E+00 0.  1.
          2    1    1    2  501    0 -0.18777706814E+02 -0.91938459164E+01 -0.30169229112E+02  0.36705741528E+02  0.00000000000E+00 0. -1.
         -2    1    1    2    0  503  0.18777706814E+02  0.91938459164E+01 -0.46521977026E+03  0.46568934250E+03  0.00000000000E+00 0.  1.
</event>
<event>
 4    1  0.1727273E+004  0.2325254E+02  0.7546771E-02  0.1489351E+00
         21   -1    0    0  503  502  0.00000000000E+00  0.00000000000E+00  0.18769995444E+02  0.18769995444E+02  0.00000000000E+00 0.  1.
         21   -1    0    0  501  503 -0.00000000000E+00 -0.00000000000E+00 -0.29079179280E+02  0.29079179280E+02  0.00000000000E+00 0. -1.
          2    1    1    2  501    0  0.19936936569E+02  0.11966585643E+02 -0.74752469730E+01  0.24424576332E+02  0.00000000000E+00 0. -1.
         -2    1    1    2    0  502 -0.19936936569E+02 -0.11966585643E+02 -0.28339368634E+01  0.23424598392E+02  0.00000000000E+00 0.  1.
</event>
<event>
 4    1  0.1727273E+004  0.2541800E+02  0.7546771E-02  0.1464181E+00
         21   -1    0    0  503  502  0.00000000000E+00  0.00000000000E+00  0.19773402287E+03  0.19773402287E+03  0.00000000000E+00 0. -1.
         21   -1    0    0  501  503 -0.00000000000E+00 -0.00000000000E+00 -0.10546896791E+02  0.10546896791E+02  0.00000000000E+00 0.  1.
          2    1    1    2  501    0  0.17222682300E+02 -0.18693691240E+02  0.70752558008E+01  0.26384353743E+02  0.00000000000E+00 0.  1.
         -2    1    1    2    0  502 -0.17222682300E+02  0.18693691240E+02  0.18011187028E+03  0.18189656592E+03  0.00000000000E+00 0. -1.
</event>
<event>
 4    1  0.1727273E+004  0.4114396E+02  0.7546771E-02  0.1341910E+00
         21   -1    0    0  501  502  0.00000000000E+00  0.00000000000E+00  0.14776721252E+03  0.14776721252E+03  0.00000000000E+00 0. -1.
         21   -1    0    0  502  503 -0.00000000000E+00 -0.00000000000E+00 -0.15767731109E+02  0.15767731109E+02  0.00000000000E+00 0.  1.
          2    1    1    2  501    0  0.37668723684E+02  0.16549699112E+02  0.10875803826E+03  0.11628042041E+03  0.00000000000E+00 0. -1.
         -2    1    1    2    0  503 -0.37668723684E+02 -0.16549699112E+02  0.23241443146E+02  0.47254523214E+02  0.00000000000E+00 0.  1.
</event>
<event>
 4    1  0.1727273E+004  0.2703095E+02  0.7546771E-02  0.1447297E+00
         21   -1    0    0  501  502  0.00000000000E+00  0.00000000000E+00  0.11670272689E+02  0.11670272689E+02  0.00000000000E+00 0.  1.
         21   -1    0    0  502  503 -0.00000000000E+00 -0.00000000000E+00 -0.76483319496E+02  0.76483319496E+02  0.00000000000E+00 0. -1.
          2    1    1    2  501    0 -0.73324016378E+01 -0.26017458685E+02 -0.13634047909E+02  0.30274734228E+02  0.00000000000E+00 0. -1.
         -2    1    1    2    0  503  0.73324016378E+01  0.26017458685E+02 -0.51178998898E+02  0.57878857957E+02  0.00000000000E+00 0.  1.
</event>
<event>
 4    1  0.1727273E+004  0.3106576E+02  0.7546771E-02  0.1410556E+00
         21   -1    0    0  503  502  0.00000000000E+00  0.00000000000E+00  0.25859708525E+02  0.25859708525E+02  0.00000000000E+00 0.  1.
         21   -1    0    0  501  503 -0.00000000000E+00 -0.00000000000E+00 -0.14380033484E+03  0.14380033484E+03  0.00000000000E+00 0. -1.
          2    1    1    2  501    0 -0.27252063905E+02  0.14913297870E+02 -0.13196723729E+03  0.13557445615E+03  0.00000000000E+00 0. -1.
         -2    1    1    2    0  502  0.27252063905E+02 -0.14913297870E+02  0.14026610980E+02  0.34085587218E+02  0.00000000000E+00 0.  1.
</event>
<event>
 4    1  0.1727273E+004  0.2658069E+02  0.7546771E-02  0.1451866E+00
         21   -1    0    0  501  502  0.00000000000E+00  0.00000000000E+00  0.32857066644E+02  0.32857066644E+02  0.00000000000E+00 0. -1.
         21   -1    0    0  502  503 -0.00000000000E+00 -0.00000000000E+00 -0.36196029087E+02  0.36196029087E+02  0.00000000000E+00 0.  1.
          2    1    1    2  501    0  0.19093984778E+02 -0.18491970272E+02  0.20328098091E+02  0.33462886774E+02  0.00000000000E+00 0. -1.
         -2    1    1    2    0  503 -0.19093984778E+02  0.18491970272E+02 -0.23667060535E+02  0.35590208957E+02  0.00000000000E+00 0.  1.
</event>
<event>
 4    1  0.1727273E+004  0.2781784E+02  0.7546771E-02  0.1439561E+00
         21   -1    0    0  503  502  0.00000000000E+00  0.00000000000E+00  0.11601706019E+01  0.11601706019E+01  0.00000000000E+00 0.  1.
         21   -1    0    0  501  503 -0.00000000000E+00 -0.00000000000E+00 -0.84657406107E+03  0.84657406107E+03  0.00000000000E+00 0. -1.
          2    1    1    2  501    0 -0.25891814861E+02 -0.10170847411E+02 -0.61792531980E+03  0.61855115638E+03  0.00000000000E+00 0.  1.
         -2    1    1    2    0  502  0.25891814861E+02  0.10170847411E+02 -0.22748857067E+03  0.22918307529E+03  0.00000000000E+00 0. -1.
</event>
<event>
 4    1  0.1727273E+004  0.2557802E+02  0.7546771E-02  0.1462440E+00
         21   -1    0    0  501  502  0.00000000000E+00  0.00000000000E+00  0.39153275908E+02  0.39153275908E+02  0.00000000000E+00 0.  1.
         21   -1    0    0  502  503 -0.00000000000E+00 -0.00000000000E+00 -0.16822628715E+02  0.16822628715E+02  0.00000000000E+00 0. -1.
          2    1    1    2  501    0 -0.24613661728E+02 -0.69572043394E+01  0.13459597385E+02  0.28903214314E+02  0.00000000000E+00 0.  1.
         -2    1    1    2    0  503  0.24613661728E+02  0.69572043394E+01  0.88710498071E+01  0.27072690309E+02  0.00000000000E+00 0. -1.
</event>
<event>
 4    1  0.1727273E+004  0.3230860E+02  0.7546771E-02  0.1400541E+00
         21   -1    0    0  503  502  0.00000000000E+00  0.00000000000E+00  0.59515064561E+01  0.59515064561E+01  0.00000000000E+00 0. -1.
         21   -1    0    0  501  503 -0.00000000000E+00 -0.00000000000E+00 -0.30319071934E+03  0.30319071934E+03  0.00000000000E+00 0.  1.
          2    1    1    2  501    0 -0.27009379130E+02 -0.17729605779E+02 -0.24897343783E+03  0.25106098508E+03  0.00000000000E+00 0.  1.
         -2    1    1    2    0  502  0.27009379130E+02  0.17729605779E+02 -0.48265775051E+02  0.58081240718E+02  0.00000000000E+00 0. -1.
</event>
<event>
 4    1  0.1727273E+004  0.2820498E+02  0.7546771E-02  0.1435865E+00
         21   -1    0    0  501  502  0.00000000000E+00  0.00000000000E+00  0.35202717635E+02  0.35202717635E+02  0.00000000000E+00 0. -1.
         21   -1    0    0  502  503 -0.00000000000E+00 -0.00000000000E+00 -0.25137782913E+02  0.25137782913E+02  0.00000000000E+00 0.  1.
          2    1    1    2  501    0  0.77611337575E+00  0.28194297188E+02  0.14621837582E+02  0.31769779354E+02  0.00000000000E+00 0. -1.
         -2    1    1    2    0  503 -0.77611337575E+00 -0.28194297188E+02 -0.45569028593E+01  0.28570721195E+02  0.00000000000E+00 0.  1.
</event>
<event>
 4    1  0.1727273E+004  0.2537284E+02  0.7546771E-02  0.1464675E+00
         21   -1    0    0  503  502  0.00000000000E+00  0.00000000000E+00  0.80642450272E+02  0.80642450272E+02  0.00000000000E+00 0.  1.
         21   -1    0    0  501  503 -0.00000000000E+00 -0.00000000000E+00 -0.13664494677E+02  0.13664494677E+02  0.00000000000E+00 0. -1.
          2    1    1    2  501    0  0.99814504374E+01  0.23327053121E+02  0.30841554951E+01  0.25559592627E+02  0.00000000000E+00 0. -1.
         -2    1    1    2    0  502 -0.99814504374E+01 -0.23327053121E+02  0.63893800099E+02  0.68747352322E+02  0.00000000000E+00 0.  1.
</event>
<event>
 4    1  0.1727273E+004  0.2109313E+02  0.7546771E-02  0.1517939E+00
         21   -1    0    0  503  502  0.00000000000E+00  0.00000000000E+00  0.65681024742E+01  0.65681024742E+01  0.00000000000E+00 0.  1.
         21   -1    0    0  501  503 -0.00000000000E+00 -0.00000000000E+00 -0.28140978757E+03  0.28140978757E+03  0.00000000000E+00 0. -1.
          2    1    1    2  501    0 -0.10267049040E+02  0.18425740836E+02 -0.26288843949E+03  0.26373329679E+03  0.00000000000E+00 0. -1.
         -2    1    1    2    0  502  0.10267049040E+02 -0.18425740836E+02 -0.11953245609E+02  0.24244593252E+02  0.00000000000E+00 0.  1.
</event>
<event>
 4    1  0.1727273E+004  0.3538380E+02  0.7546771E-02  0.1377885E+00
         21   -1    0    0  501  502  0.00000000000E+00  0.00000000000E+00  0.53699022000E+01  0.53699022000E+01  0.00000000000E+00 0.  1.
         21   -1    0    0  502  503 -0.00000000000E+00 -0.00000000000E+00 -0.23471899608E+03  0.23471899608E+03  0.00000000000E+00 0. -1.
          2    1    1    2  501    0 -0.30406890465E+02 -0.18095148424E+02 -0.10487186100E+03  0.11068026298E+03  0.00000000000E+00 0.  1.
         -2    1    1    2    0  503  0.30406890465E+02  0.18095148424E+02 -0.12447723288E+03  0.12940863530E+03  0.00000000000E+00 0. -1.
</event>
<event>
 4    1  0.1727273E+004  0.2442637E+02  0.7546771E-02  0.1475324E+00
         21   -1    0    0  503  502  0.00000000000E+00  0.00000000000E+00  0.73094808900E+02  0.73094808900E+02  0.00000000000E+00 0.  1.
         21   -1    0    0  501  503 -0.00000000000E+00 -0.00000000000E+00 -0.15124556147E+02  0.15124556147E+02  0.00000000000E+00 0. -1.
          2    1    1    2  501    0  0.24319827779E+02 -0.22789067524E+01 -0.94142362976E+00  0.24444502810E+02  0.00000000000E+00 0. -1.
         -2    1    1    2    0  502 -0.24319827779E+02  0.22789067524E+01  0.58911676382E+02  0.63774862237E+02  0.00000000000E+00 0.  1.
</event>
<event>
 4    1  0.1727273E+004  0.2182217E+02  0.7546771E-02  0.1507843E+00
         21   -1    0    0  503  502  0.00000000000E+00  0.00000000000E+00  0.19008034381E+01  0.19008034381E+01  0.00000000000E+00 0.  1.
         21   -1    0    0  501  503 -0.00000000000E+00 -0.00000000000E+00 -0.45795450076E+03  0.45795450076E+03  0.00000000000E+00 0. -1.
          2    1    1    2  501    0  0.14666137735E+02 -0.16158943857E+02 -0.38276975125E+03  0.38339130081E+03  0.00000000000E+00 0. -1.
         -2    1    1    2    0  502 -0.14666137735E+02  0.16158943857E+02 -0.73283946062E+02  0.76464003381E+02  0.00000000000E+00 0.  1.
</event>
<event>
 4    1  0.1727273E+004  0.2474796E+02  0.7546771E-02  0.1471643E+00
         21   -1    0    0  503  502  0.00000000000E+00  0.00000000000E+00  0.37809348423E+03  0.37809348423E+03  0.00000000000E+00 0. -1.
         21   -1    0    0  501  503 -0.00000000000E+00 -0.00000000000E+00 -0.22417844734E+01  0.22417844734E+01  0.00000000000E+00 0.  1.
          2    1    1    2  501    0 -0.24055320298E+02 -0.58140450444E+01  0.87763226909E+02  0.91185774943E+02  0.00000000000E+00 0.  1.
         -2    1    1    2    0  502  0.24055320298E+02  0.58140450444E+01  0.28808847285E+03  0.28914949376E+03  0.00000000000E+00 0. -1.
</event>
<event>
 4    1  0.1727273E+004  0.3638525E+02  0.7546771E-02  0.1371078E+00
         21   -1    0    0  503  502  0.00000000000E+00  0.00000000000E+00  0.59052633364E+02  0.59052633364E+02  0.00000000000E+00 0. -1.
         21   -1    0    0  501  503 -0.00000000000E+00 -0.00000000000E+00 -0.12598734414E+03  0.12598734414E+03  0.00000000000E+00 0.  1.
          2    1    1    2  501    0  0.10706170396E+02 -0.34774474987E+02 -0.11735271147E+03  0.12286392915E+03  0.00000000000E+00 0.  1.
         -2    1    1    2    0  502 -0.10706170396E+02  0.34774474987E+02  0.50418000697E+02  0.62176048358E+02  0.00000000000E+00 0. -1.
</event>
<event>
 4    1  0.1727273E+004  0.2363051E+02  0.7546771E-02  0.1484729E+00
         21   -1    0    0  501  502  0.00000000000E+00  0.00000000000E+00  0.18833617363E+03  0.18833617363E+03  0.00000000000E+00 0. -1.
         21   -1    0    0  502  503 -0.00000000000E+00 -0.00000000000E+00 -0.99863710197E+01  0.99863710197E+01  0.00000000000E+00 0.  1.
          2    1    1    2  501    0 -0.83133935974E+01  0.22119868243E+02  0.17232289537E+03  0.17393556667E+03  0.00000000000E+00 0. -1.
         -2    1    1    2    0  503  0.83133935974E+01 -0.22119868243E+02  0.60269072427E+01  0.24386977982E+02  0.00000000000E+00 0.  1.
</event>
<event>
 4    1  0.1727273E+004  0.2177616E+02  0.7546771E-02  0.1508466E+00
         21   -1    0    0  503  502  0.00000000000E+00  0.00000000000E+00  0.82769938661E+01  0.82769938661E+01  0.00000000000E+00 0.  1.
         21   -1    0    0  501  503 -0.00000000000E+00 -0.00000000000E+00 -0.10853960422E+03  0.10853960422E+03  0.00000000000E+00 0. -1.
          2    1    1    2  501    0 -0.12558146314E+02 -0.17790284724E+02 -0.90265948542E+02  0.92855493836E+02  0.00000000000E+00 0. -1.
         -2    1    1    2    0  502  0.12558146314E+02  0.17790284724E+02 -0.99966618088E+01  0.23961104247E+02  0.00000000000E+00 0.  1.
</event>
<event>
 4    1  0.1727273E+004  0.2606513E+02  0.7546771E-02  0.1457232E+00
         21   -1    0    0  503  502  0.00000000000E+00  0.00000000000E+00  0.96529627023E+01  0.96529627023E+01  0.00000000000E+00 0. -1.
         21   -1    0    0  501  503 -0.00000000000E+00 -0.00000000000E+00 -0.10542901415E+03  0.10542901415E+03  0.00000000000E+00 0.  1.
          2    1    1    2  501    0 -0.95888646838E+01  0.24237255341E+02 -0.81064122668E+02  0.85151528797E+02  0.00000000000E+00 0.  1.
         -2    1    1    2    0  502  0.95888646838E+01 -0.24237255341E+02 -0.14711928779E+02  0.29930448056E+02  0.00000000000E+00 0. -1.
</event>
<event>
 4    1  0.1727273E+004  0.4016686E+02  0.7546771E-02  0.1347511E+00
         21   -1    0    0  503  502  0.00000000000E+00  0.00000000000E+00  0.55462983255E+01  0.55462983255E+01  0.00000000000E+00 0. -1.
         21   -1    0    0  501  503 -0.00000000000E+00 -0.00000000000E+00 -0.33341414193E+03  0.33341414193E+03  0.00000000000E+00 0.  1.
          2    1    1    2  501    0 -0.39811848436E+02 -0.53285369493E+01 -0.10340930792E+03  0.11093629499E+03  0.00000000000E+00 0. -1.
         -2    1    1    2    0  502  0.39811848436E+02  0.53285369493E+01 -0.22445853569E+03  0.22802414527E+03  0.00000000000E+00 0.  1.
</event>
<event>
 4    1  0.1727273E+004  0.3294835E+02  0.7546771E-02  0.1395590E+00
         21   -1    0    0  503  502  0.00000000000E+00  0.00000000000E+00  0.41085549961E+02  0.41085549961E+02  0.00000000000E+00 0.  1.
         21   -1    0    0  501  503 -0.00000000000E+00 -0.00000000000E+00 -0.37214502367E+02  0.37214502367E+02  0.00000000000E+00 0. -1.
          2    1    1    2  501    0 -0.13875747712E+02  0.29884067987E+02 -0.19146951583E+02  0.38107737389E+02  0.00000000000E+00 0. -1.
         -2    1    1    2    0  502  0.13875747712E+02 -0.29884067987E+02  0.23017999177E+02  0.40192314939E+02  0.00000000000E+00 0.  1.
</event>
<event>
 4    1  0.1727273E+004  0.3039612E+02  0.7546771E-02  0.1416185E+00
         21   -1    0    0  503  502  0.00000000000E+00  0.00000000000E+00  0.57987202876E+03  0.57987202876E+03  0.00000000000E+00 0. -1.
         21   -1    0    0  501  503 -0.00000000000E+00 -0.00000000000E+00 -0.59503728353E+01  0.59503728353E+01  0.00000000000E+00 0.  1.
          2    1    1    2  501    0 -0.30276258499E+02  0.26967198624E+01  0.36315222406E+02  0.47357359566E+02  0.00000000000E+00 0.  1.
         -2    1    1    2    0  502  0.30276258499E+02 -0.26967198624E+01  0.53760643352E+03  0.53846504203E+03  0.00000000000E+00 0. -1.
</event>
<event>
 4    1  0.1727273E+004  0.2136769E+02  0.7546771E-02  0.1514079E+00
         21   -1    0    0  501  502  0.00000000000E+00  0.00000000000E+00  0.16126615140E+02  0.16126615140E+02  0.00000000000E+00 0.  1.
         21   -1    0    0  502  503 -0.00000000000E+00 -0.00000000000E+00 -0.71395025972E+02  0.71395025972E+02  0.00000000000E+00 0. -1.
          2    1    1    2  501    0 -0.20830276065E+02  0.47621142860E+01  0.63599408672E+01  0.22294101939E+02  0.00000000000E+00 0.  1.
         -2    1    1    2    0  503  0.20830276065E+02 -0.47621142860E+01 -0.61628351699E+02  0.65227539173E+02  0.00000000000E+00 0. -1.
</event>
<event>
 4    1  0.1727273E+004  0.2472327E+02  0.7546771E-02  0.1471923E+00
         21   -1    0    0  501  502  0.00000000000E+00  0.00000000000E+00  0.68185382560E+01  0.68185382560E+01  0.00000000000E+00 0.  1.
         21   -1    0    0  502  503 -0.00000000000E+00 -0.00000000000E+00 -0.92505776884E+02  0.92505776884E+02  0.00000000000E+00 0. -1.
          2    1    1    2  501    0 -0.15839266430E+02 -0.18983084513E+02 -0.34108431926E+02  0.42126298047E+02  0.00000000000E+00 0.  1.
         -2    1    1    2    0  503  0.15839266430E+02  0.18983084513E+02 -0.51578806702E+02  0.57198017093E+02  0.00000000000E+00 0. -1.
</event>
<event>
 4    1  0.1727273E+004  0.2378419E+02  0.7546771E-02  0.1482879E+00
         21   -1    0    0  501  502  0.00000000000E+00  0.00000000000E+00  0.22378907184E+03  0.22378907184E+03  0.00000000000E+00 0.  1.
         21   -1    0    0  502  503 -0.00000000000E+00 -0.00000000000E+00 -0.42295478533E+01  0.42295478533E+01  0.00000000000E+00 0. -1.
          2    1    1    2  501    0 -0.12347720096E+02  0.20327846707E+02  0.18209746800E+03  0.18364415427E+03  0.00000000000E+00 0.  1.
         -2    1    1    2    0  503  0.12347720096E+02 -0.20327846707E+02  0.37462055983E+02  0.44374465425E+02  0.00000000000E+00 0. -1.
</event>
<event>
 4    1  0.1727273E+004  0.2472635E+02  0.7546771E-02  0.1471888E+00
         21   -1    0    0  503  502  0.00000000000E+00  0.00000000000E+00  0.19826447649E+02  0.19826447649E+02  0.00000000000E+00 0.  1.
         21   -1    0    0  501  503 -0.00000000000E+00 -0.00000000000E+00 -0.46332124883E+02  0.46332124883E+02  0.00000000000E+00 0. -1.
          2    1    1    2  501    0 -0.24510400603E+02  0.32607738528E+01 -0.32382601218E+02  0.40743407387E+02  0.00000000000E+00 0. -1.
         -2    1    1    2    0  502  0.24510400603E+02 -0.32607738528E+01  0.58769239837E+01  0.25415165145E+02  0.00000000000E+00 0.  1.
</event>
<event>
 4    1  0.1727273E+004  0.3345430E+02  0.7546771E-02  0.1391768E+00
         21   -1    0    0  501  502  0.00000000000E+00  0.00000000000E+00  0.88716349957E+02  0.88716349957E+02  0.00000000000E+00 0. -1.
         21   -1    0    0  502  503 -0.00000000000E+00 -0.00000000000E+00 -0.20506498145E+02  0.20506498145E+02  0.00000000000E+00 0.  1.
          2    1    1    2  501    0  0.23080767398E+02 -0.24217106100E+02  0.67982098092E+02  0.75767774895E+02  0.00000000000E+00 0. -1.
         -2    1    1    2    0  503 -0.23080767398E+02  0.24217106100E+02  0.22775372030E+00  0.33455073207E+02  0.00000000000E+00 0.  1.
</event>
<event>
 4    1  0.1727273E+004  0.2133369E+02  0.7546771E-02  0.1514554E+00
         21   -1    0    0  501  502  0.00000000000E+00  0.00000000000E+00  0.18370288383E+03  0.18370288383E+03  0.00000000000E+00 0.  1.
         21   -1    0    0  502  503 -0.00000000000E+00 -0.00000000000E+00 -0.36784577697E+01  0.36784577697E+01  0.00000000000E+00 0. -1.
          2    1    1    2  501    0 -0.18438169071E+02 -0.10731277745E+02  0.14354561741E+03  0.14512226114E+03  0.00000000000E+00 0. -1.
         -2    1    1    2    0  503  0.18438169071E+02  0.10731277745E+02  0.36478808649E+02  0.42259080459E+02  0.00000000000E+00 0.  1.
</event>
<event>
 4    1  0.1727273E+004  0.2116415E+02  0.7546771E-02  0.1516934E+00
         21   -1    0    0  501  502  0.00000000000E+00  0.00000000000E+00  0.37874902697E+00  0.37874902697E+00  0.00000000000E+00 0.  1.
         21   -1    0    0  502  503 -0.00000000000E+00 -0.00000000000E+00 -0.13918494168E+04  0.13918494168E+04  0.00000000000E+00 0. -1.
          2    1    1    2  501    0 -0.21164140788E+02 -0.17086470913E-01 -0.42584828840E+03  0.42637388040E+03  0.00000000000E+00 0. -1.
         -2    1    1    2    0  503  0.21164140788E+02  0.17086470913E-01 -0.96562237937E+03  0.96585428543E+03  0.00000000000E+00 0.  1.
</event>
<event>
 4    1  0.1727273E+004  0.2381138E+02  0.7546771E-02  0.1482553E+00
         21   -1    0    0  501  502  0.00000000000E+00  0.00000000000E+00  0.72826603445E+02  0.72826603445E+02  0.00000000000E+00 0.  1.
         21   -1    0    0  502  503 -0.00000000000E+00 -0.00000000000E+00 -0.13806772598E+02  0.13806772598E+02  0.00000000000E+00 0. -1.
          2    1    1    2  501    0  0.10910692126E+02  0.21164560934E+02  0.58115978689E+02  0.62804847115E+02  0.00000000000E+00 0.  1.
         -2    1    1    2    0  503 -0.10910692126E+02 -0.21164560934E+02  0.90385215851E+00  0.23828528929E+02  0.00000000000E+00 0. -1.
</event>
<event>
 4    1  0.1727273E+004  0.3968455E+02  0.7546771E-02  0.1350344E+00
         21   -1    0    0  501  502  0.00000000000E+00  0.00000000000E+00  0.10869154144E+02  0.10869154144E+02  0.00000000000E+00 0.  1.
         21   -1    0    0  502  503 -0.00000000000E+00 -0.00000000000E+00 -0.30502332101E+03  0.30502332101E+03  0.00000000000E+00 0. -1.
          2    1    1    2  501    0 -0.47128750073E+01  0.39403710360E+02 -0.32636610022E+02  0.51381046065E+02  0.00000000000E+00 0.  1.
         -2    1    1    2    0  503  0.47128750073E+01 -0.39403710360E+02 -0.26151755684E+03  0.26451142908E+03  0.00000000000E+00 0. -1.
</event>
<event>
 4    1  0.1727273E+004  0.3911179E+02  0.7546771E-02  0.1353771E+00
         21   -1    0    0  501  502  0.00000000000E+00  0.00000000000E+00  0.26895550387E+03  0.26895550387E+03  0.00000000000E+00 0.  1.
         21   -1    0    0  502  503 -0.00000000000E+00 -0.00000000000E+00 -0.47166154846E+02  0.47166154846E+02  0.00000000000E+00 0. -1.
          2    1    1    2  501    0 -0.30152570964E+02 -0.24910936531E+02  0.25911932001E+03  0.26205448727E+03  0.00000000000E+00 0.  1.
         -2    1    1    2    0  503  0.30152570964E+02  0.24910936531E+02 -0.37329970986E+02  0.54067171448E+02  0.00000000000E+00 0. -1.
</event>
<event>
 4    1  0.1727273E+004  0.2631925E+02  0.7546771E-02  0.1454569E+00
         21   -1    0    0  501  502  0.00000000000E+00  0.00000000000E+00  0.18297081155E+02  0.18297081155E+02  0.00000000000E+00 0. -1.
         21   -1    0    0  502  503 -0.00000000000E+00 -0.00000000000E+00 -0.91452308345E+02  0.91452308345E+02  0.00000000000E+00 0.  1.
          2    1    1    2  501    0 -0.23335783911E+02  0.12171437532E+02  0.54303378061E+01  0.26873616635E+02  0.00000000000E+00 0. -1.
         -2    1    1    2    0  503  0.23335783911E+02 -0.12171437532E+02 -0.78585564996E+02  0.82875772866E+02  0.00000000000E+00 0.  1.
</event>
<event>
 4    1  0.1727273E+004  0.2653312E+02  0.7546771E-02  0.1452355E+00
         21   -1    0    0  501  502  0.00000000000E+00  0.00000000000E+00  0.15487180938E+02  0.15487180938E+02  0.00000000000E+00 0. -1.
         21   -1    0    0  502  503 -0.00000000000E+00 -0.00000000000E+00 -0.99262254442E+02  0.99262254442E+02  0.00000000000E+00 0.  1.
          2    1    1    2  501    0  0.29716935418E+01  0.26366183633E+02  0.35396240059E+00  0.26535483626E+02  0.00000000000E+00 0. -1.
         -2    1    1    2    0  503 -0.29716935418E+01 -0.26366183633E+02 -0.84129035905E+02  0.88213951754E+02  0.00000000000E+00 0.  1.
</event>
<event>
 4    1  0.1727273E+004  0.2509687E+02  0.7546771E-02  0.1467723E+00
         21   -1    0    0  503  502  0.00000000000E+00  0.00000000000E+00  0.13385240641E+03  0.13385240641E+03  0.00000000000E+00 0. -1.
         21   -1    0    0  501  503 -0.00000000000E+00 -0.00000000000E+00 -0.54903955186E+01  0.54903955186E+01  0.00000000000E+00 0.  1.
          2    1    1    2  501    0  0.49194390538E+01  0.24610001370E+02  0.37839727162E+02  0.45405924720E+02  0.00000000000E+00 0. -1.
         -2    1    1    2    0  502 -0.49194390538E+01 -0.24610001370E+02  0.90522283728E+02  0.93936877207E+02  0.00000000000E+00 0.  1.
</event>
<event>
 4    1  0.1727273E+004  0.2683223E+02  0.7546771E-02  0.1449301E+00
         21   -1    0    0  501  502  0.00000000000E+00  0.00000000000E+00  0.58579016338E+01  0.58579016338E+01  0.00000000000E+00 0.  1.
         21   -1    0    0  502  503 -0.00000000000E+00 -0.00000000000E+00 -0.15269170047E+03  0.15269170047E+03  0.00000000000E+00 0. -1.
          2    1    1    2  501    0  0.26463921188E+02 -0.44304859351E+01 -0.38403441977E+02  0.46848614557E+02  0.00000000000E+00 0.  1.
         -2    1    1    2    0  503 -0.26463921188E+02  0.44304859351E+01 -0.10843035686E+03  0.11170098755E+03  0.00000000000E+00 0. -1.
</event>
<event>
 4    1  0.1727273E+004  0.2191744E+02  0.7546771E-02  0.1506558E+00
         21   -1    0    0  501  502  0.00000000000E+00  0.00000000000E+00  0.12231542611E+01  0.12231542611E+01  0.00000000000E+00 0.  1.
         21   -1    0    0  502  503 -0.00000000000E+00 -0.00000000000E+00 -0.13717377733E+04  0.13717377733E+04  0.00000000000E+00 0. -1.
          2    1    1    2  501    0 -0.72141822652E+01  0.20696127923E+02 -0.10531493872E+03  0.10757142025E+03  0.00000000000E+00 0.  1.
         -2    1    1    2    0  503  0.72141822652E+01 -0.20696127923E+02 -0.12651996803E+04  0.12653895073E+04  0.00000000000E+00 0. -1.
</event>
<event>
 4    1  0.1727273E+004  0.2022297E+02  0.7546771E-02  0.1530654E+00
         21   -1    0    0  501  502  0.00000000000E+00  0.00000000000E+00  0.80116156972E+02  0.80116156972E+02  0.00000000000E+00 0.  1.
         21   -1    0    0  502  503 -0.00000000000E+00 -0.00000000000E+00 -0.52382416097E+01  0.52382416097E+01  0.00000000000E+00 0. -1.
          2    1    1    2  501    0  0.12229328919E+02  0.16106270012E+02  0.44253271766E+02  0.48655117732E+02  0.00000000000E+00 0. -1.
         -2    1    1    2    0  503 -0.12229328919E+02 -0.16106270012E+02  0.30624643597E+02  0.36699280850E+02  0.00000000000E+00 0.  1.
</event>
<event>
 4    1  0.1727273E+004  0.3119763E+02  0.7546771E-02  0.1409467E+00
         21   -1    0    0  501  502  0.00000000000E+00  0.00000000000E+00  0.63315258192E+02  0.63315258192E+02  0.00000000000E+00 0.  1.
         21   -1    0    0  502  503 -0.00000000000E+00 -0.00000000000E+00 -0.15465913667E+02  0.15465913667E+02  0.00000000000E+00 0. -1.
          2    1    1    2  501    0  0.31089102853E+02  0.26000071327E+01  0.20857797240E+02  0.37527857106E+02  0.00000000000E+00 0.  1.
         -2    1    1    2    0  503 -0.31089102853E+02 -0.26000071327E+01  0.26991547285E+02  0.41253314753E+02  0.00000000000E+00 0. -1.
</event>
<event>
 4    1  0.1727273E+004  0.2522678E+02  0.7546771E-02  0.1466282E+00
         21   -1    0    0  501  502  0.00000000000E+00  0.00000000000E+00  0.28786387213E+03  0.28786387213E+03  0.00000000000E+00 0.  1.
         21   -1    0    0  502  503 -0.00000000000E+00 -0.00000000000E+00 -0.56659502623E+01  0.56659502623E+01  0.00000000000E+00 0. -1.
          2    1    1    2  501    0 -0.22226324739E+02 -0.11932341504E+02  0.25570922434E+03  0.25695057442E+03  0.00000000000E+00 0.  1.
         -2    1    1    2    0  503  0.22226324739E+02  0.11932341504E+02  0.26488697533E+02  0.36579247972E+02  0.00000000000E+00 0. -1.
</event>
<event>
 4    1  0.1727273E+004  0.2195731E+02  0.7546771E-02  0.1506023E+00
         21   -1    0    0  501  502  0.00000000000E+00  0.00000000000E+00  0.57634840031E+01  0.57634840031E+01  0.00000000000E+00 0.  1.
         21   -1    0    0  502  503 -0.00000000000E+00 -0.00000000000E+00 -0.14261621938E+03  0.14261621938E+03  0.00000000000E+00 0. -1.
          2    1    1    2  501    0  0.21885352266E+02 -0.17761891401E+01 -0.20722176333E+02  0.30191589618E+02  0.00000000000E+00 0.  1.
         -2    1    1    2    0  503 -0.21885352266E+02  0.17761891401E+01 -0.11613055905E+03  0.11818811377E+03  0.00000000000E+00 0. -1.
</event>
<event>
 4    1  0.1727273E+004  0.4905849E+02  0.7546771E-02  0.1302307E+00
         21   -1    0    0  503  502  0.00000000000E+00  0.00000000000E+00  0.36153348548E+03  0.36153348548E+03  0.00000000000E+00 0.  1.
         21   -1    0    0  501  503 -0.00000000000E+00 -0.00000000000E+00 -0.56609767061E+02  0.56609767061E+02  0.00000000000E+00 0. -1.
          2    1    1    2  501    0  0.48904154030E+02  0.38883562058E+01 -0.43932541776E+02  0.65854413840E+02  0.00000000000E+00 0. -1.
         -2    1    1    2    0  502 -0.48904154030E+02 -0.38883562058E+01  0.34885626019E+03  0.35228883870E+03  0.00000000000E+00 0.  1.
</event>
<event>
 4    1  0.1727273E+004  0.3508505E+02  0.7546771E-02  0.1379966E+00
         21   -1    0    0  501  502  0.00000000000E+00  0.00000000000E+00  0.94169437367E+01  0.94169437367E+01  0.00000000000E+00 0.  1.
         21   -1    0    0  502  503 -0.00000000000E+00 -0.00000000000E+00 -0.23962723625E+03  0.23962723625E+03  0.00000000000E+00 0. -1.
          2    1    1    2  501    0 -0.18693098066E+02 -0.29690552533E+02 -0.31156953461E+02  0.46922452771E+02  0.00000000000E+00 0.  1.
         -2    1    1    2    0  503  0.18693098066E+02  0.29690552533E+02 -0.19905333905E+03  0.20212172721E+03  0.00000000000E+00 0. -1.
</event>
<event>
 4    1  0.1727273E+004  0.3578100E+02  0.7546771E-02  0.1375154E+00
         21   -1    0    0  503  502  0.00000000000E+00  0.00000000000E+00  0.29867498907E+03  0.29867498907E+03  0.00000000000E+00 0.  1.
         21   -1    0    0  501  503 -0.00000000000E+00 -0.00000000000E+00 -0.63129084190E+01  0.63129084190E+01  0.00000000000E+00 0. -1.
          2    1    1    2  501    0  0.35663547729E+02 -0.28967971318E+01  0.23257788178E+03  0.23531415419E+03  0.00000000000E+00 0.  1.
         -2    1    1    2    0  502 -0.35663547729E+02  0.28967971318E+01  0.59784198874E+02  0.69673743299E+02  0.00000000000E+00 0. -1.
</event>
<event>
 4    1  0.1727273E+004  0.3254028E+02  0.7546771E-02  0.1398733E+00
         21   -1    0    0  501  502  0.00000000000E+00  0.00000000000E+00  0.29314273440E+01  0.29314273440E+01  0.00000000000E+00 0.  1.
         21   -1    0    0  502  503 -0.00000000000E+00 -0.00000000000E+00 -0.62750293109E+03  0.62750293109E+03  0.00000000000E+00 0. -1.
          2    1    1    2  501    0  0.26528717302E+02 -0.18844014226E+02 -0.10694300936E+03  0.11178406400E+03  0.00000000000E+00 0.  1.
         -2    1    1    2    0  503 -0.26528717302E+02  0.18844014226E+02 -0.51762849438E+03  0.51865029443E+03  0.00000000000E+00 0. -1.
</event>
<event>
 4    1  0.1727273E+004  0.2440230E+02  0.7546771E-02  0.1475602E+00
         21   -1    0    0  501  502  0.00000000000E+00  0.00000000000E+00  0.21482862191E+04  0.21482862191E+04  0.00000000000E+00 0. -1.
         21   -1    0    0  502  503 -0.00000000000E+00 -0.00000000000E+00 -0.38985484193E+00  0.38985484193E+00  0.00000000000E+00 0.  1.
          2    1    1    2  501    0  0.83115859630E+01  0.22943181349E+02  0.16515039723E+04  0.16516842442E+04  0.00000000000E+00 0. -1.
         -2    1    1    2    0  503 -0.83115859630E+01 -0.22943181349E+02  0.49639239194E+03  0.49699182972E+03  0.00000000000E+00 0.  1.
</event>
<event>
 4    1  0.1727273E+004  0.4562820E+02  0.7546771E-02  0.1318328E+00
         21   -1    0    0  503  502  0.00000000000E+00  0.00000000000E+00  0.62603157639E+02  0.62603157639E+02  0.00000000000E+00 0.  1.
         21   -1    0    0  501  503 -0.00000000000E+00 -0.00000000000E+00 -0.50054337315E+02  0.50054337315E+02  0.00000000000E+00 0. -1.
          2    1    1    2  501    0 -0.70572416155E+01  0.45079125659E+02 -0.26357466512E+02  0.52693911132E+02  0.00000000000E+00 0. -1.
         -2    1    1    2    0  502  0.70572416155E+01 -0.45079125659E+02  0.38906286836E+02  0.59963583822E+02  0.00000000000E+00 0.  1.
</event>
<event>
 4    1  0.1727273E+004  0.2544019E+02  0.7546771E-02  0.1463939E+00
         21   -1    0    0  503  502  0.00000000000E+00  0.00000000000E+00  0.35741949214E+01  0.35741949214E+01  0.00000000000E+00 0. -1.
         21   -1    0    0  501  503 -0.00000000000E+00 -0.00000000000E+00 -0.25263175573E+03  0.25263175573E+03  0.00000000000E+00 0.  1.
          2    1    1    2  501    0 -0.16360313332E+02  0.19481871049E+02 -0.19270542731E+03  0.19437742890E+03  0.00000000000E+00 0.  1.
         -2    1    1    2    0  502  0.16360313332E+02 -0.19481871049E+02 -0.56352133501E+02  0.61828521751E+02  0.00000000000E+00 0. -1.
</event>
<event>
 4    1  0.1727273E+004  0.2574083E+02  0.7546771E-02  0.1460684E+00
         21   -1    0    0  503  502  0.00000000000E+00  0.00000000000E+00  0.21314953527E+03  0.21314953527E+03  0.00000000000E+00 0. -1.
         21   -1    0    0  501  503 -0.00000000000E+00 -0.00000000000E+00 -0.68990631579E+01  0.68990631579E+01  0.00000000000E+00 0.  1.
          2    1    1    2  501    0 -0.24094744979E+02  0.90572463814E+01  0.21571970390E+02  0.33584823271E+02  0.00000000000E+00 0.  1.
         -2    1    1    2    0  502  0.24094744979E+02 -0.90572463814E+01  0.18467850172E+03  0.18646377515E+03  0.00000000000E+00 0. -1.
</event>
<event>
 4    1  0.1727273E+004  0.2869030E+02  0.7546771E-02  0.1431330E+00
         21   -1    0    0  501  502  0.00000000000E+00  0.00000000000E+00  0.55500626995E+03  0.55500626995E+03  0.00000000000E+00 0. -1.
         21   -1    0    0  502  503 -0.00000000000E+00 -0.00000000000E+00 -0.16032919114E+01  0.16032919114E+01  0.00000000000E+00 0.  1.
          2    1    1    2  501    0  0.24537975086E+02  0.14866780900E+02  0.20050406689E+03  0.20254632615E+03  0.00000000000E+00 0.  1.
         -2    1    1    2    0  503 -0.24537975086E+02 -0.14866780900E+02  0.35289891115E+03  0.35406323571E+03  0.00000000000E+00 0. -1.
</event>
<event>
 4    1  0.1727273E+004  0.2035806E+02  0.7546771E-02  0.1528631E+00
         21   -1    0    0  503  502  0.00000000000E+00  0.00000000000E+00  0.65487330324E+03  0.65487330324E+03  0.00000000000E+00 0. -1.
         21   -1    0    0  501  503 -0.00000000000E+00 -0.00000000000E+00 -0.10049261499E+01  0.10049261499E+01  0.00000000000E+00 0.  1.
          2    1    1    2  501    0 -0.86441058358E+01  0.18431762176E+02  0.12739430384E+03  0.12901069364E+03  0.00000000000E+00 0.  1.
         -2    1    1    2    0  502  0.86441058358E+01 -0.18431762176E+02  0.52647407325E+03  0.52686753575E+03  0.00000000000E+00 0. -1.
</event>
<event>
 4    1  0.1727273E+004  0.2568650E+02  0.7546771E-02  0.1461268E+00
         21   -1    0    0  501  502  0.00000000000E+00  0.00000000000E+00  0.66184867183E+01  0.66184867183E+01  0.00000000000E+00 0. -1.
         21   -1    0    0  502  503 -0.00000000000E+00 -0.00000000000E+00 -0.10694071629E+03  0.10694071629E+03  0.00000000000E+00 0.  1.
          2    1    1    2  501    0  0.22368000391E+02 -0.12628096535E+02 -0.64945876067E+02  0.69840984255E+02  0.00000000000E+00 0.  1.
         -2    1    1    2    0  503 -0.22368000391E+02  0.12628096535E+02 -0.35376353501E+02  0.43718218749E+02  0.00000000000E+00 0. -1.
</event>
<event>
 4    1  0.1727273E+004  0.2107190E+02  0.7546771E-02  0.1518241E+00
         21   -1    0    0  501  502  0.00000000000E+00  0.00000000000E+00  0.99514763985E+01  0.99514763985E+01  0.00000000000E+00 0. -1.
         21   -1    0    0  502  503 -0.00000000000E+00 -0.00000000000E+00 -0.76322725238E+03  0.76322725238E+03  0.00000000000E+00 0.  1.
          2    1    1    2  501    0  0.20865638595E+02 -0.29410698450E+01 -0.15188791832E+01  0.21126565262E+02  0.00000000000E+00 0. -1.
         -2    1    1    2    0  503 -0.20865638595E+02  0.29410698450E+01 -0.75175689680E+03  0.75205216352E+03  0.00000000000E+00 0.  1.
</event>
<event>
 4    1  0.1727273E+004  0.2079744E+02  0.7546771E-02  0.1522177E+00
         21   -1    0    0  503  502  0.00000000000E+00  0.00000000000E+00  0.65905659754E+01  0.65905659754E+01  0.00000000000E+00 0. -1.
         21   -1    0    0  501  503 -0.00000000000E+00 -0.00000000000E+00 -0.10735974376E+03  0.10735974376E+03  0.00000000000E+00 0.  1.
          2    1    1    2  501    0 -0.20542731573E+02 -0.32449718936E+01 -0.85906124452E+02  0.88387758663E+02  0.00000000000E+00 0.  1.
         -2    1    1    2    0  502  0.20542731573E+02  0.32449718936E+01 -0.14863053337E+02  0.25562551077E+02  0.00000000000E+00 0. -1.
</event>
<event>
 4    1  0.1727273E+004  0.2593901E+02  0.7546771E-02  0.1458567E+00
         21   -1    0    0  501  502  0.00000000000E+00  0.00000000000E+00  0.45718358930E+01  0.45718358930E+01  0.00000000000E+00 0. -1.
         21   -1    0    0  502  503 -0.00000000000E+00 -0.00000000000E+00 -0.15271213318E+03  0.15271213318E+03  0.00000000000E+00 0.  1.
          2    1    1    2  501    0  0.10485852792E+02  0.23725078955E+02 -0.59087256246E+02  0.64530119564E+02  0.00000000000E+00 0. -1.
         -2    1    1    2    0  503 -0.10485852792E+02 -0.23725078955E+02 -0.89053041040E+02  0.92753849508E+02  0.00000000000E+00 0.  1.
</event>
<event>
 4    1  0.1727273E+004  0.2188251E+02  0.7546771E-02  0.1507028E+00
         21   -1    0    0  503  502  0.00000000000E+00  0.00000000000E+00  0.17818923269E+02  0.17818923269E+02  0.00000000000E+00 0. -1.
         21   -1    0    0  501  503 -0.00000000000E+00 -0.00000000000E+00 -0.37268434280E+02  0.37268434280E+02  0.00000000000E+00 0.  1.
          2    1    1    2  501    0 -0.15753089750E+02  0.15188303211E+02 -0.24271869172E+02  0.32679780051E+02  0.00000000000E+00 0.  1.
         -2    1    1    2    0  502  0.15753089750E+02 -0.15188303211E+02  0.48223581606E+01  0.22407577498E+02  0.00000000000E+00 0. -1.
</event>
<event>
 4    1  0.1727273E+004  0.2009833E+02  0.7546771E-02  0.1532538E+00
         21   -1    0    0  503  502  0.00000000000E+00  0.00000000000E+00  0.12496091855E+01  0.12496091855E+01  0.00000000000E+00 0.  1.
         21   -1    0    0  501  503 -0.00000000000E+00 -0.00000000000E+00 -0.32637088785E+03  0.32637088785E+03  0.00000000000E+00 0. -1.
          2    1    1    2  501    0 -0.20074757890E+02  0.97319022521E+00 -0.17856519316E+03  0.17969271330E+03  0.00000000000E+00 0. -1.
         -2    1    1    2    0  502  0.20074757890E+02 -0.97319022521E+00 -0.14655608550E+03  0.14792778373E+03  0.00000000000E+00 0.  1.
</event>
<event>
 4    1  0.1727273E+004  0.2172909E+02  0.7546771E-02  0.1509105E+00
         21   -1    0    0  503  502  0.00000000000E+00  0.00000000000E+00  0.42847438809E+02  0.42847438809E+02  0.00000000000E+00 0. -1.
         21   -1    0    0  501  503 -0.00000000000E+00 -0.00000000000E+00 -0.16132786274E+02  0.16132786274E+02  0.00000000000E+00 0.  1.
          2    1    1    2  501    0 -0.29522831089E+01 -0.21527596940E+02 -0.32452584538E+01  0.21970095767E+02  0.00000000000E+00 0.  1.
         -2    1    1    2    0  502  0.29522831089E+01  0.21527596940E+02  0.29959910989E+02  0.37010129317E+02  0.00000000000E+00 0. -1.
</event>
<event>
 4    1  0.1727273E+004  0.2426630E+02  0.7546771E-02  0.1477181E+00
         21   -1    0    0  501  502  0.00000000000E+00  0.00000000000E+00  0.22732535215E+02  0.22732535215E+02  0.00000000000E+00 0.  1.
         21   -1    0    0  502  503 -0.00000000000E+00 -0.00000000000E+00 -0.30266113713E+02  0.30266113713E+02  0.00000000000E+00 0. -1.
          2    1    1    2  501    0 -0.77526334227E+01  0.22994565291E+02  0.62938916548E+01  0.25069232738E+02  0.00000000000E+00 0.  1.
         -2    1    1    2    0  503  0.77526334227E+01 -0.22994565291E+02 -0.13827470153E+02  0.27929416190E+02  0.00000000000E+00 0. -1.
</event>
<event>
 4    1  0.1727273E+004  0.2600519E+02  0.7546771E-02  0.1457865E+00
         21   -1    0    0  503  502  0.00000000000E+00  0.00000000000E+00  0.91121314285E+01  0.91121314285E+01  0.00000000000E+00 0.  1.
         21   -1    0    0  501  503 -0.00000000000E+00 -0.00000000000E+00 -0.74217616943E+02  0.74217616943E+02  0.00000000000E+00 0. -1.
          2    1    1    2  501    0 -0.25832286242E+02 -0.29938365147E+01 -0.32717775809E+02  0.41793814416E+02  0.00000000000E+00 0. -1.
         -2    1    1    2    0  502  0.25832286242E+02  0.29938365147E+01 -0.32387709705E+02  0.41535933955E+02  0.00000000000E+00 0.  1.
</event>
<event>
 4    1  0.1727273E+004  0.2205177E+02  0.7546771E-02  0.1504761E+00
         21   -1    0    0  503  502  0.00000000000E+00  0.00000000000E+00  0.16618166904E+02  0.16618166904E+02  0.00000000000E+00 0. -1.
         21   -1    0    0  501  503 -0.00000000000E+00 -0.00000000000E+00 -0.19530315705E+03  0.19530315705E+03  0.00000000000E+00 0.  1.
          2    1    1    2  501    0  0.13756907663E+02  0.17234502876E+02 -0.18704325067E+03  0.18833867956E+03  0.00000000000E+00 0.  1.
         -2    1    1    2    0  502 -0.13756907663E+02 -0.17234502876E+02  0.83582605198E+01  0.23582644397E+02  0.00000000000E+00 0. -1.
</event>
<event>
 4    1  0.1727273E+004  0.2133320E+02  0.7546771E-02  0.1514560E+00
         21   -1    0    0  501  502  0.00000000000E+00  0.00000000000E+00  0.36618395278E+02  0.36618395278E+02  0.00000000000E+00 0.  1.
         21   -1    0    0  502  503 -0.00000000000E+00 -0.00000000000E+00 -0.13139586586E+02  0.13139586586E+02  0.00000000000E+00 0. -1.
          2    1    1    2  501    0 -0.18914835738E+02 -0.98658144493E+01  0.17527779709E+02  0.27610294588E+02  0.00000000000E+00 0.  1.
         -2    1    1    2    0  503  0.18914835738E+02  0.98658144493E+01  0.59510289829E+01  0.22147687276E+02  0.00000000000E+00 0. -1.
</event>
<event>
 4    1  0.1727273E+004  0.2253607E+02  0.7546771E-02  0.1498407E+00
         21   -1    0    0  503  502  0.00000000000E+00  0.00000000000E+00  0.40923191271E+02  0.40923191271E+02  0.00000000000E+00 0.  1.
         21   -1    0    0  501  503 -0.00000000000E+00 -0.00000000000E+00 -0.17789295827E+02  0.17789295827E+02  0.00000000000E+00 0. -1.
          2    1    1    2  501    0  0.20975008345E+02 -0.82415578443E+01 -0.45753966053E+01  0.22995836686E+02  0.00000000000E+00 0. -1.
         -2    1    1    2    0  502 -0.20975008345E+02  0.82415578443E+01  0.27709292050E+02  0.35716650412E+02  0.00000000000E+00 0.  1.
</event>
<event>
 4    1  0.1727273E+004  0.2418257E+02  0.7546771E-02  0.1478159E+00
         21   -1    0    0  503  502  0.00000000000E+00  0.00000000000E+00  0.18138178842E+03  0.18138178842E+03  0.00000000000E+00 0.  1.
         21   -1    0    0  501  503 -0.00000000000E+00 -0.00000000000E+00 -0.69117513219E+01  0.69117513219E+01  0.00000000000E+00 0. -1.
          2    1    1    2  501    0  0.16100545194E+02  0.18043532783E+02  0.18467219240E+02  0.30427533868E+02  0.00000000000E+00 0. -1.
         -2    1    1    2    0  502 -0.16100545194E+02 -0.18043532783E+02  0.15600281786E+03  0.15786600587E+03  0.00000000000E+00 0.  1.
</event>
<event>
 4    1  0.1727273E+004  0.2565954E+02  0.7546771E-02  0.1461559E+00
         21   -1    0    0  503  502  0.00000000000E+00  0.00000000000E+00  0.13776817347E+03  0.13776817347E+03  0.00000000000E+00 0. -1.
         21   -1    0    0  501  503 -0.00000000000E+00 -0.00000000000E+00 -0.66544338587E+01  0.66544338587E+01  0.00000000000E+00 0.  1.
          2    1    1    2  501    0  0.25201123102E+02 -0.48285892319E+01  0.27222744053E+02  0.37409753719E+02  0.00000000000E+00 0.  1.
         -2    1    1    2    0  502 -0.25201123102E+02  0.48285892319E+01  0.10389099555E+03  0.10701285361E+03  0.00000000000E+00 0. -1.
</event>
<event>
 4    1  0.1727273E+004  0.2090431E+02  0.7546771E-02  0.1520635E+00
         21   -1    0    0  503  502  0.00000000000E+00  0.00000000000E+00  0.23977874996E+01  0.23977874996E+01  0.00000000000E+00 0. -1.
         21   -1    0    0  501  503 -0.00000000000E+00 -0.00000000000E+00 -0.38378864825E+03  0.38378864825E+03  0.00000000000E+00 0.  1.
          2    1    1    2  501    0 -0.18237782817E+02  0.10216330906E+02 -0.33062294121E+03  0.33128314083E+03  0.00000000000E+00 0.  1.
         -2    1    1    2    0  502  0.18237782817E+02 -0.10216330906E+02 -0.50767919533E+02  0.54903294919E+02  0.00000000000E+00 0. -1.
</event>
<event>
 4    1  0.1727273E+004  0.2046273E+02  0.7546771E-02  0.1527076E+00
         21   -1    0    0  503  502  0.00000000000E+00  0.00000000000E+00  0.12897040339E+02  0.12897040339E+02  0.00000000000E+00 0.  1.
         21   -1    0    0  501  503 -0.00000000000E+00 -0.00000000000E+00 -0.34463169453E+02  0.34463169453E+02  0.00000000000E+00 0. -1.
          2    1    1    2  501    0  0.14746282850E+02 -0.14186978047E+02 -0.16482697993E+02  0.26275512119E+02  0.00000000000E+00 0. -1.
         -2    1    1    2    0  502 -0.14746282850E+02  0.14186978047E+02 -0.50834311209E+01  0.21084697673E+02  0.00000000000E+00 0.  1.
</event>
<event>
 4    1  0.1727273E+004  0.2963342E+02  0.7546771E-02  0.1422809E+00
         21   -1    0    0  501  502  0.00000000000E+00  0.00000000000E+00  0.22173016124E+03  0.22173016124E+03  0.00000000000E+00 0. -1.
         21   -1    0    0  502  503 -0.00000000000E+00 -0.00000000000E+00 -0.39641341932E+01  0.39641341932E+01  0.00000000000E+00 0.  1.
          2    1    1    2  501    0 -0.23564061027E+02 -0.17968708597E+02  0.11234791110E+03  0.11619032915E+03  0.00000000000E+00 0.  1.
         -2    1    1    2    0  503  0.23564061027E+02  0.17968708597E+02  0.10541811595E+03  0.10950396628E+03  0.00000000000E+00 0. -1.
</event>
<event>
 4    1  0.1727273E+004  0.2206819E+02  0.7546771E-02  0.1504543E+00
         21   -1    0    0  503  502  0.00000000000E+00  0.00000000000E+00  0.15771254364E+03  0.15771254364E+03  0.00000000000E+00 0.  1.
         21   -1    0    0  501  503 -0.00000000000E+00 -0.00000000000E+00 -0.88010428245E+01  0.88010428245E+01  0.00000000000E+00 0. -1.
          2    1    1    2  501    0 -0.21035320369E+02 -0.66723511979E+01  0.14153513816E+03  0.14324524532E+03  0.00000000000E+00 0.  1.
         -2    1    1    2    0  502  0.21035320369E+02  0.66723511979E+01  0.73763626574E+01  0.23268341144E+02  0.00000000000E+00 0. -1.
</event>
<event>
 4    1  0.1727273E+004  0.2269856E+02  0.7546771E-02  0.1496318E+00
         21   -1    0    0  501  502  0.00000000000E+00  0.00000000000E+00  0.10831892033E+03  0.10831892033E+03  0.00000000000E+00 0. -1.
         21   -1    0    0  502  503 -0.00000000000E+00 -0.00000000000E+00 -0.29034367217E+02  0.29034367217E+02  0.00000000000E+00 0.  1.
          2    1    1    2  501    0  0.20001215495E+02 -0.10732009038E+02  0.10244199202E+03  0.10492657608E+03  0.00000000000E+00 0. -1.
         -2    1    1    2    0  503 -0.20001215495E+02  0.10732009038E+02 -0.23157438910E+02  0.32426711461E+02  0.00000000000E+00 0.  1.
</event>
<event>
 4    1  0.1727273E+004  0.3312716E+02  0.7546771E-02  0.1394230E+00
         21   -1    0    0  503  502  0.00000000000E+00  0.00000000000E+00  0.74850926306E+03  0.74850926306E+03  0.00000000000E+00 0.  1.
         21   -1    0    0  501  503 -0.00000000000E+00 -0.00000000000E+00 -0.15400641069E+01  0.15400641069E+01  0.00000000000E+00 0. -1.
          2    1    1    2  501    0 -0.31514917789E+02  0.10208748498E+02  0.29131223543E+03  0.29318974590E+03  0.00000000000E+00 0. -1.
         -2    1    1    2    0  502  0.31514917789E+02 -0.10208748498E+02  0.45565696353E+03  0.45685958128E+03  0.00000000000E+00 0.  1.
</event>
<event>
 4    1  0.1727273E+004  0.2299551E+02  0.7546771E-02  0.1492555E+00
         21   -1    0    0  503  502  0.00000000000E+00  0.00000000000E+00  0.11120424756E+02  0.11120424756E+02  0.00000000000E+00 0. -1.
         21   -1    0    0  501  503 -0.00000000000E+00 -0.00000000000E+00 -0.57736189799E+02  0.57736189799E+02  0.00000000000E+00 0.  1.
          2    1    1    2  501    0  0.22049010368E+02  0.65295104695E+01 -0.37767758864E+02  0.44217609329E+02  0.00000000000E+00 0.  1.
         -2    1    1    2    0  502 -0.22049010368E+02 -0.65295104695E+01 -0.88480061793E+01  0.24639005226E+02  0.00000000000E+00 0. -1.
</event>
<event>
 4    1  0.1727273E+004  0.2393865E+02  0.7546771E-02  0.1481036E+00
         21   -1    0    0  503  502  0.00000000000E+00  0.00000000000E+00  0.41451148992E+01  0.41451148992E+01  0.00000000000E+00 0. -1.
         21   -1    0    0  501  503 -0.00000000000E+00 -0.00000000000E+00 -0.22639499504E+03  0.22639499504E+03  0.00000000000E+00 0.  1.
          2    1    1    2  501    0 -0.20379271299E+02 -0.12559625288E+02 -0.39199281169E+02  0.45930845085E+02  0.00000000000E+00 0. -1.
         -2    1    1    2    0  502  0.20379271299E+02  0.12559625288E+02 -0.18305059897E+03  0.18460926485E+03  0.00000000000E+00 0.  1.
</event>
<event>
 4    1  0.1727273E+004  0.2548954E+02  0.7546771E-02  0.1463401E+00
         21   -1    0    0  503  502  0.00000000000E+00  0.00000000000E+00  0.21048090078E+01  0.21048090078E+01  0.00000000000E+00 0. -1.
         21   -1    0    0  501  503 -0.00000000000E+00 -0.00000000000E+00 -0.53739838572E+03  0.53739838572E+03  0.00000000000E+00 0.  1.
          2    1    1    2  501    0  0.23989922724E+02 -0.86139490907E+01 -0.44362728966E+03  0.44435896372E+03  0.00000000000E+00 0.  1.
         -2    1    1    2    0  502 -0.23989922724E+02  0.86139490907E+01 -0.91666287051E+02  0.95144231002E+02  0.00000000000E+00 0. -1.
</event>
<event>
 4    1  0.1727273E+004  0.4414181E+02  0.7546771E-02  0.1325787E+00
         21   -1    0    0  503  502  0.00000000000E+00  0.00000000000E+00  0.33414049846E+03  0.33414049846E+03  0.00000000000E+00 0. -1.
         21   -1    0    0  501  503 -0.00000000000E+00 -0.00000000000E+00 -0.15142242566E+02  0.15142242566E+02  0.00000000000E+00 0.  1.
          2    1    1    2  501    0  0.43769619254E+02  0.57201469899E+01  0.22553860274E+02  0.49569912896E+02  0.00000000000E+00 0.  1.
         -2    1    1    2    0  502 -0.43769619254E+02 -0.57201469899E+01  0.29644439562E+03  0.29971282813E+03  0.00000000000E+00 0. -1.
</event>
<event>
 4    1  0.1727273E+004  0.2240886E+02  0.7546771E-02  0.1500058E+00
         21   -1    0    0  501  502  0.00000000000E+00  0.00000000000E+00  0.19391631371E+01  0.19391631371E+01  0.00000000000E+00 0. -1.
         21   -1    0    0  502  503 -0.00000000000E+00 -0.00000000000E+00 -0.35558113168E+03  0.35558113168E+03  0.00000000000E+00 0.  1.
          2    1    1    2  501    0  0.18035985506E+02  0.13298875658E+02 -0.83635636403E+02  0.86585660150E+02  0.00000000000E+00 0. -1.
         -2    1    1    2    0  503 -0.18035985506E+02 -0.13298875658E+02 -0.27000633214E+03  0.27093463467E+03  0.00000000000E+00 0.  1.
</event>
<event>
 4    1  0.1727273E+004  0.2661284E+02  0.7546771E-02  0.1451536E+00
         21   -1    0    0  503  502  0.00000000000E+00  0.00000000000E+00  0.47433393739E+03  0.47433393739E+03  0.00000000000E+00 0.  1.
         21   -1    0    0  501  503 -0.00000000000E+00 -0.00000000000E+00 -0.62386981263E+01  0.62386981263E+01  0.00000000000E+00 0. -1.
          2    1    1    2  501    0  0.12050025360E+02 -0.23728461882E+02  0.24479080031E+02  0.36158932142E+02  0.00000000000E+00 0. -1.
         -2    1    1    2    0  502 -0.12050025360E+02  0.23728461882E+02  0.44361615923E+03  0.44441370338E+03  0.00000000000E+00 0.  1.
</event>
<event>
 4    1  0.1727273E+004  0.2652196E+02  0.7546771E-02  0.1452470E+00
         21   -1    0    0  501  502  0.00000000000E+00  0.00000000000E+00  0.34773208890E+03  0.34773208890E+03  0.00000000000E+00 0.  1.
         21   -1    0    0  502  503 -0.00000000000E+00 -0.00000000000E+00 -0.21018886854E+01  0.21018886854E+01  0.00000000000E+00 0. -1.
          2    1    1    2  501    0  0.13951673641E+01 -0.26485239156E+02  0.20673161377E+03  0.20842594492E+03  0.00000000000E+00 0.  1.
         -2    1    1    2    0  503 -0.13951673641E+01  0.26485239156E+02  0.13889858644E+03  0.14140803266E+03  0.00000000000E+00 0. -1.
</event>
<event>
 4    1  0.1727273E+004  0.2919160E+02  0.7546771E-02  0.1426754E+00
         21   -1    0    0  503  502  0.00000000000E+00  0.00000000000E+00  0.29924357673E+02  0.29924357673E+02  0.00000000000E+00 0. -1.
         21   -1    0    0  501  503 -0.00000000000E+00 -0.00000000000E+00 -0.73954643223E+02  0.73954643223E+02  0.00000000000E+00 0.  1.
          2    1    1    2  501    0 -0.28997282871E+02 -0.33626236410E+01 -0.62745200222E+02  0.69203394444E+02  0.00000000000E+00 0.  1.
         -2    1    1    2    0  502  0.28997282871E+02  0.33626236410E+01  0.18714914672E+02  0.34675606452E+02  0.00000000000E+00 0. -1.
</event>
<event>
 4    1  0.1727273E+004  0.2195263E+02  0.7546771E-02  0.1506086E+00
         21   -1    0    0  503  502  0.00000000000E+00  0.00000000000E+00  0.30284074622E+01  0.30284074622E+01  0.00000000000E+00 0. -1.
         21   -1    0    0  501  503 -0.00000000000E+00 -0.00000000000E+00 -0.19089900566E+03  0.19089900566E+03  0.00000000000E+00 0.  1.
          2    1    1    2  501    0  0.13520988734E+02  0.17294529106E+02 -0.13348948932E+03  0.13528252522E+03  0.00000000000E+00 0.  1.
         -2    1    1    2    0  502 -0.13520988734E+02 -0.17294529106E+02 -0.54381108883E+02  0.58644887899E+02  0.00000000000E+00 0. -1.
</event>
<event>
 4    1  0.1727273E+004  0.2189748E+02  0.7546771E-02  0.1506827E+00
         21   -1    0    0  503  502  0.00000000000E+00  0.00000000000E+00  0.39071267724E+02  0.39071267724E+02  0.00000000000E+00 0.  1.
         21   -1    0    0  501  503 -0.00000000000E+00 -0.00000000000E+00 -0.22035938390E+02  0.22035938390E+02  0.00000000000E+00 0. -1.
          2    1    1    2  501    0 -0.14210795472E+02 -0.16659920668E+02 -0.11819923917E+02  0.24883935903E+02  0.00000000000E+00 0. -1.
         -2    1    1    2    0  502  0.14210795472E+02  0.16659920668E+02  0.28855253250E+02  0.36223270211E+02  0.00000000000E+00 0.  1.
</event>
<event>
 4    1  0.1727273E+004  0.2990161E+02  0.7546771E-02  0.1420453E+00
         21   -1    0    0  501  502  0.00000000000E+00  0.00000000000E+00  0.78496605302E+03  0.78496605302E+03  0.00000000000E+00 0. -1.
         21   -1    0    0  502  503 -0.00000000000E+00 -0.00000000000E+00 -0.12458825843E+01  0.12458825843E+01  0.00000000000E+00 0.  1.
          2    1    1    2  501    0  0.29427462248E+02 -0.53038631942E+01  0.27674122891E+03  0.27835196116E+03  0.00000000000E+00 0.  1.
         -2    1    1    2    0  503 -0.29427462248E+02  0.53038631942E+01  0.50697894153E+03  0.50785997445E+03  0.00000000000E+00 0. -1.
</event>
<event>
 4    1  0.1727273E+004  0.2365710E+02  0.7546771E-02  0.1484408E+00
         21   -1    0    0  503  502  0.00000000000E+00  0.00000000000E+00  0.11566150066E+02  0.11566150066E+02  0.00000000000E+00 0.  1.
         21   -1    0    0  501  503 -0.00000000000E+00 -0.00000000000E+00 -0.19824778700E+03  0.19824778700E+03  0.00000000000E+00 0. -1.
          2    1    1    2  501    0  0.22403913099E+02  0.75975766627E+01 -0.18455098889E+03  0.18606108135E+03  0.00000000000E+00 0. -1.
         -2    1    1    2    0  502 -0.22403913099E+02 -0.75975766627E+01 -0.21306480387E+01  0.23752855709E+02  0.00000000000E+00 0.  1.
</event>
<event>
 4    1  0.1727273E+004  0.2965248E+02  0.7546771E-02  0.1422641E+00
         21   -1    0    0  501  502  0.00000000000E+00  0.00000000000E+00  0.37298109569E+02  0.37298109569E+02  0.00000000000E+00 0. -1.
         21   -1    0    0  502  503 -0.00000000000E+00 -0.00000000000E+00 -0.43266416422E+02  0.43266416422E+02  0.00000000000E+00 0.  1.
          2    1    1    2  501    0  0.29651591921E+02  0.22991784758E+00  0.24191918410E+02  0.38269030325E+02  0.00000000000E+00 0. -1.
         -2    1    1    2    0  503 -0.29651591921E+02 -0.22991784758E+00 -0.30160225264E+02  0.42295495666E+02  0.00000000000E+00 0.  1.
</event>
<event>
 4    1  0.1727273E+004  0.2970385E+02  0.7546771E-02  0.1422188E+00
         21   -1    0    0  503  502  0.00000000000E+00  0.00000000000E+00  0.22412347707E+01  0.22412347707E+01  0.00000000000E+00 0. -1.
         21   -1    0    0  501  503 -0.00000000000E+00 -0.00000000000E+00 -0.41977610791E+03  0.41977610791E+03  0.00000000000E+00 0.  1.
          2    1    1    2  501    0 -0.23756720707E+02 -0.17830789779E+02 -0.26138347569E+03  0.26306584766E+03  0.00000000000E+00 0. -1.
         -2    1    1    2    0  502  0.23756720707E+02  0.17830789779E+02 -0.15615139745E+03  0.15895149502E+03  0.00000000000E+00 0.  1.
</event>
<event>
 4    1  0.1727273E+004  0.2727738E+02  0.7546771E-02  0.1444841E+00
         21   -1    0    0  503  502  0.00000000000E+00  0.00000000000E+00  0.35275264389E+01  0.35275264389E+01  0.00000000000E+00 0. -1.
         21   -1    0    0  501  503 -0.00000000000E+00 -0.00000000000E+00 -0.51105147039E+03  0.51105147039E+03  0.00000000000E+00 0.  1.
          2    1    1    2  501    0  0.27046372098E+02 -0.35425150748E+01 -0.45093131941E+03  0.45175558711E+03  0.00000000000E+00 0.  1.
         -2    1    1    2    0  502 -0.27046372098E+02  0.35425150748E+01 -0.56592624537E+02  0.62823409719E+02  0.00000000000E+00 0. -1.
</event>
<event>
 4    1  0.1727273E+004  0.2263281E+02  0.7546771E-02  0.1497161E+00
         21   -1    0    0  501  502  0.00000000000E+00  0.00000000000E+00  0.10339187778E+02  0.10339187778E+02  0.00000000000E+00 0. -1.
         21   -1    0    0  502  503 -0.00000000000E+00 -0.00000000000E+00 -0.51795218866E+02  0.51795218866E+02  0.00000000000E+00 0.  1.
          2    1    1    2  501    0  0.18687184922E+02 -0.12768437219E+02 -0.14251012334E+02  0.26745751473E+02  0.00000000000E+00 0. -1.
         -2    1    1    2    0  503 -0.18687184922E+02  0.12768437219E+02 -0.27205018754E+02  0.35388655170E+02  0.00000000000E+00 0.  1.
</event>
<event>
 4    1  0.1727273E+004  0.2039117E+02  0.7546771E-02  0.1528138E+00
         21   -1    0    0  503  502  0.00000000000E+00  0.00000000000E+00  0.54882258752E+03  0.54882258752E+03  0.00000000000E+00 0.  1.
         21   -1    0    0  501  503 -0.00000000000E+00 -0.00000000000E+00 -0.10336311541E+01  0.10336311541E+01  0.00000000000E+00 0. -1.
          2    1    1    2  501    0 -0.18381114133E+02 -0.88280484782E+01  0.13182575419E+03  0.13339351283E+03  0.00000000000E+00 0. -1.
         -2    1    1    2    0  502  0.18381114133E+02  0.88280484782E+01  0.41596320217E+03  0.41646270584E+03  0.00000000000E+00 0.  1.
</event>
<event>
 4    1  0.1727273E+004  0.2767949E+02  0.7546771E-02  0.1440899E+00
         21   -1    0    0  503  502  0.00000000000E+00  0.00000000000E+00  0.33696245180E+03  0.33696245180E+03  0.00000000000E+00 0. -1.
         21   -1    0    0  501  503 -0.00000000000E+00 -0.00000000000E+00 -0.50511926378E+01  0.50511926378E+01  0.00000000000E+00 0.  1.
          2    1    1    2  501    0  0.26251679439E+02 -0.87751619075E+01  0.39148893922E+02  0.47945698818E+02  0.00000000000E+00 0.  1.
         -2    1    1    2    0  502 -0.26251679439E+02  0.87751619075E+01  0.29276236524E+03  0.29406794561E+03  0.00000000000E+00 0. -1.
</event>
<event>
 4    1  0.1727273E+004  0.2354359E+02  0.7546771E-02  0.1485783E+00
         21   -1    0    0  503  502  0.00000000000E+00  0.00000000000E+00  0.11029502641E+02  0.11029502641E+02  0.00000000000E+00 0. -1.
         21   -1    0    0  501  503 -0.00000000000E+00 -0.00000000000E+00 -0.18372230729E+03  0.18372230729E+03  0.00000000000E+00 0.  1.
          2    1    1    2  501    0 -0.19727621239E+02  0.12849970300E+02 -0.16934219462E+03  0.17097099068E+03  0.00000000000E+00 0.  1.
         -2    1    1    2    0  502  0.19727621239E+02 -0.12849970300E+02 -0.33506100262E+01  0.23780819246E+02  0.00000000000E+00 0. -1.
</event>
<event>
 4    1  0.1727273E+004  0.2430176E+02  0.7546771E-02  0.1476768E+00
         21   -1    0    0  501  502  0.00000000000E+00  0.00000000000E+00  0.27794697091E+02  0.27794697091E+02  0.00000000000E+00 0.  1.
         21   -1    0    0  502  503 -0.00000000000E+00 -0.00000000000E+00 -0.19630604541E+03  0.19630604541E+03  0.00000000000E+00 0. -1.
          2    1    1    2  501    0 -0.12228604982E+02  0.21000878350E+02  0.21557019505E+02  0.32485085212E+02  0.00000000000E+00 0.  1.
         -2    1    1    2    0  503  0.12228604982E+02 -0.21000878350E+02 -0.19006836783E+03  0.19161565729E+03  0.00000000000E+00 0. -1.
</event>
<event>
 4    1  0.1727273E+004  0.3628000E+02  0.7546771E-02  0.1371781E+00
         21   -1    0    0  503  502  0.00000000000E+00  0.00000000000E+00  0.18430958052E+02  0.18430958052E+02  0.00000000000E+00 0.  1.
         21   -1    0    0  501  503 -0.00000000000E+00 -0.00000000000E+00 -0.71564694688E+02  0.71564694688E+02  0.00000000000E+00 0. -1.
          2    1    1    2  501    0 -0.41413255341E+01  0.36042859237E+02 -0.28628069365E+02  0.46214766414E+02  0.00000000000E+00 0.  1.
         -2    1    1    2    0  502  0.41413255341E+01 -0.36042859237E+02 -0.24505667271E+02  0.43780886326E+02  0.00000000000E+00 0. -1.
</event>
<event>
 4    1  0.1727273E+004  0.3824210E+02  0.7546771E-02  0.1359107E+00
         21   -1    0    0  503  502  0.00000000000E+00  0.00000000000E+00  0.16724012598E+04  0.16724012598E+04  0.00000000000E+00 0. -1.
         21   -1    0    0  501  503 -0.00000000000E+00 -0.00000000000E+00 -0.11395690628E+01  0.11395690628E+01  0.00000000000E+00 0.  1.
          2    1    1    2  501    0 -0.11119081253E+02 -0.36589949732E+02  0.43203824709E+03  0.43372745514E+03  0.00000000000E+00 0. -1.
         -2    1    1    2    0  502  0.11119081253E+02  0.36589949732E+02  0.12392234437E+04  0.12398133737E+04  0.00000000000E+00 0.  1.
</event>
<event>
 4    1  0.1727273E+004  0.5891325E+02  0.7546771E-02  0.1263570E+00
         21   -1    0    0  503  502  0.00000000000E+00  0.00000000000E+00  0.57727568858E+02  0.57727568858E+02  0.00000000000E+00 0. -1.
         21   -1    0    0  501  503 -0.00000000000E+00 -0.00000000000E+00 -0.88703433669E+02  0.88703433669E+02  0.00000000000E+00 0.  1.
          2    1    1    2  501    0  0.22093911155E+02  0.54613462610E+02 -0.57046928540E+02  0.82006848886E+02  0.00000000000E+00 0.  1.
         -2    1    1    2    0  502 -0.22093911155E+02 -0.54613462610E+02  0.26071063729E+02  0.64424153641E+02  0.00000000000E+00 0. -1.
</event>
<event>
 4    1  0.1727273E+004  0.2213683E+02  0.7546771E-02  0.1503631E+00
         21   -1    0    0  503  502  0.00000000000E+00  0.00000000000E+00  0.18379369684E+01  0.18379369684E+01  0.00000000000E+00 0. -1.
         21   -1    0    0  501  503 -0.00000000000E+00 -0.00000000000E+00 -0.27198246397E+03  0.27198246397E+03  0.00000000000E+00 0.  1.
          2    1    1    2  501    0  0.20938894491E+02  0.71834402107E+01 -0.15428827509E+03  0.15586824868E+03  0.00000000000E+00 0.  1.
         -2    1    1    2    0  502 -0.20938894491E+02 -0.71834402107E+01 -0.11585625191E+03  0.11795215226E+03  0.00000000000E+00 0. -1.
</event>
<event>
 4    1  0.1727273E+004  0.4057840E+02  0.7546771E-02  0.1345129E+00
         21   -1    0    0  501  502  0.00000000000E+00  0.00000000000E+00  0.17694290527E+03  0.17694290527E+03  0.00000000000E+00 0.  1.
         21   -1    0    0  502  503 -0.00000000000E+00 -0.00000000000E+00 -0.14152681946E+03  0.14152681946E+03  0.00000000000E+00 0. -1.
          2    1    1    2  501    0  0.37950268968E+02  0.14366071975E+02  0.17161878280E+03  0.17635082520E+03  0.00000000000E+00 0.  1.
         -2    1    1    2    0  503 -0.37950268968E+02 -0.14366071975E+02 -0.13620269699E+03  0.14211889954E+03  0.00000000000E+00 0. -1.
</event>
<event>
 4    1  0.1727273E+004  0.2391044E+02  0.7546771E-02  0.1481372E+00
         21   -1    0    0  503  502  0.00000000000E+00  0.00000000000E+00  0.21652075771E+03  0.21652075771E+03  0.00000000000E+00 0. -1.
         21   -1    0    0  501  503 -0.00000000000E+00 -0.00000000000E+00 -0.38421043215E+01  0.38421043215E+01  0.00000000000E+00 0.  1.
          2    1    1    2  501    0  0.72728599024E+01  0.22777505772E+02  0.44720121682E+02  0.50710931204E+02  0.00000000000E+00 0.  1.
         -2    1    1    2    0  502 -0.72728599024E+01 -0.22777505772E+02  0.16795853171E+03  0.16965193083E+03  0.00000000000E+00 0. -1.
</event>
<event>
 4    1  0.1727273E+004  0.4445638E+02  0.7546771E-02  0.1324180E+00
         21   -1    0    0  503  502  0.00000000000E+00  0.00000000000E+00  0.44521134647E+03  0.44521134647E+03  0.00000000000E+00 0.  1.
         21   -1    0    0  501  503 -0.00000000000E+00 -0.00000000000E+00 -0.27364022526E+02  0.27364022526E+02  0.00000000000E+00 0. -1.
          2    1    1    2  501    0 -0.41480863403E+02 -0.15990861761E+02 -0.73503687547E+01  0.45059933526E+02  0.00000000000E+00 0. -1.
         -2    1    1    2    0  502  0.41480863403E+02  0.15990861761E+02  0.42519769270E+03  0.42751543547E+03  0.00000000000E+00 0.  1.
</event>
<event>
 4    1  0.1727273E+004  0.2276314E+02  0.7546771E-02  0.1495494E+00
         21   -1    0    0  503  502  0.00000000000E+00  0.00000000000E+00  0.42992600661E+02  0.42992600661E+02  0.00000000000E+00 0.  1.
         21   -1    0    0  501  503 -0.00000000000E+00 -0.00000000000E+00 -0.26041527130E+02  0.26041527130E+02  0.00000000000E+00 0. -1.
          2    1    1    2  501    0 -0.16076884731E+02  0.16115033987E+02 -0.16823103878E+02  0.28305076702E+02  0.00000000000E+00 0. -1.
         -2    1    1    2    0  502  0.16076884731E+02 -0.16115033987E+02  0.33774177408E+02  0.40729051090E+02  0.00000000000E+00 0.  1.
</event>
<event>
 4    1  0.1727273E+004  0.2342213E+02  0.7546771E-02  0.1487264E+00
         21   -1    0    0  503  502  0.00000000000E+00  0.00000000000E+00  0.10368188217E+02  0.10368188217E+02  0.00000000000E+00 0. -1.
         21   -1    0    0  501  503 -0.00000000000E+00 -0.00000000000E+00 -0.81588439120E+02  0.81588439120E+02  0.00000000000E+00 0.  1.
          2    1    1    2  501    0 -0.81119548609E+01  0.21972531282E+02 -0.62868844969E+02  0.67090145405E+02  0.00000000000E+00 0.  1.
         -2    1    1    2    0  502  0.81119548609E+01 -0.21972531282E+02 -0.83514059337E+01  0.24866481932E+02  0.00000000000E+00 0. -1.
</event>
<event>
 4    1  0.1727273E+004  0.2227409E+02  0.7546771E-02  0.1501820E+00
         21   -1    0    0  501  502  0.00000000000E+00  0.00000000000E+00  0.12688775740E+01  0.12688775740E+01  0.00000000000E+00 0. -1.
         21   -1    0    0  502  503 -0.00000000000E+00 -0.00000000000E+00 -0.39100612629E+03  0.39100612629E+03  0.00000000000E+00 0.  1.
          2    1    1    2  501    0 -0.21528578502E+02  0.57145002952E+01 -0.19540417565E+03  0.19666958857E+03  0.00000000000E+00 0.  1.
         -2    1    1    2    0  503  0.21528578502E+02 -0.57145002952E+01 -0.19433307306E+03  0.19560541529E+03  0.00000000000E+00 0. -1.
</event>
<event>
 4    1  0.1727273E+004  0.4322255E+02  0.7546771E-02  0.1330571E+00
         21   -1    0    0  503  502  0.00000000000E+00  0.00000000000E+00  0.13181825556E+02  0.13181825556E+02  0.00000000000E+00 0. -1.
         21   -1    0    0  501  503 -0.00000000000E+00 -0.00000000000E+00 -0.17579218939E+03  0.17579218939E+03  0.00000000000E+00 0.  1.
          2    1    1    2  501    0  0.13548285426E+02  0.41044274075E+02 -0.12290038434E+03  0.13027928824E+03  0.00000000000E+00 0.  1.
         -2    1    1    2    0  502 -0.13548285426E+02 -0.41044274075E+02 -0.39709979496E+02  0.58694726713E+02  0.00000000000E+00 0. -1.
</event>
<event>
 4    1  0.1727273E+004  0.2106987E+02  0.7546771E-02  0.1518269E+00
         21   -1    0    0  501  502  0.00000000000E+00  0.00000000000E+00  0.90931289650E+02  0.90931289650E+02  0.00000000000E+00 0. -1.
         21   -1    0    0  502  503 -0.00000000000E+00 -0.00000000000E+00 -0.22998014755E+02  0.22998014755E+02  0.00000000000E+00 0.  1.
          2    1    1    2  501    0 -0.19477433580E+02 -0.80354906346E+01  0.84524638993E+02  0.87111159592E+02  0.00000000000E+00 0. -1.
         -2    1    1    2    0  503  0.19477433580E+02  0.80354906346E+01 -0.16591364098E+02  0.26818144813E+02  0.00000000000E+00 0.  1.
</event>
<event>
 4    1  0.1727273E+004  0.2994776E+02  0.7546771E-02  0.1420051E+00
         21   -1    0    0  503  502  0.00000000000E+00  0.00000000000E+00  0.20914317740E+02  0.20914317740E+02  0.00000000000E+00 0. -1.
         21   -1    0    0  501  503 -0.00000000000E+00 -0.00000000000E+00 -0.54550470250E+02  0.54550470250E+02  0.00000000000E+00 0.  1.
          2    1    1    2  501    0  0.15975350374E+01  0.29905121662E+02 -0.34268408522E+02  0.45510353135E+02  0.00000000000E+00 0.  1.
         -2    1    1    2    0  502 -0.15975350374E+01 -0.29905121662E+02  0.63225601159E+00  0.29954434855E+02  0.00000000000E+00 0. -1.
</event>
<event>
 4    1  0.1727273E+004  0.2010261E+02  0.7546771E-02  0.1532473E+00
         21   -1    0    0  503  502  0.00000000000E+00  0.00000000000E+00  0.79539827856E+02  0.79539827856E+02  0.00000000000E+00 0.  1.
         21   -1    0    0  501  503 -0.00000000000E+00 -0.00000000000E+00 -0.94326296851E+01  0.94326296851E+01  0.00000000000E+00 0. -1.
          2    1    1    2  501    0  0.14763179511E+02  0.13644171405E+02  0.48365471462E+01  0.20676244119E+02  0.00000000000E+00 0. -1.
         -2    1    1    2    0  502 -0.14763179511E+02 -0.13644171405E+02  0.65270651025E+02  0.68296213422E+02  0.00000000000E+00 0.  1.
</event>
<event>
 4    1  0.1727273E+004  0.3517105E+02  0.7546771E-02  0.1379365E+00
         21   -1    0    0  503  502  0.00000000000E+00  0.00000000000E+00  0.17509294502E+03  0.17509294502E+03  0.00000000000E+00 0. -1.
         21   -1    0    0  501  503 -0.00000000000E+00 -0.00000000000E+00 -0.71467181124E+01  0.71467181124E+01  0.00000000000E+00 0.  1.
          2    1    1    2  501    0 -0.30583197100E+02 -0.17368669431E+02  0.93726578404E+02  0.10010831195E+03  0.00000000000E+00 0. -1.
         -2    1    1    2    0  502  0.30583197100E+02  0.17368669431E+02  0.74219648502E+02  0.82131351179E+02  0.00000000000E+00 0.  1.
</event>
<event>
 4    1  0.1727273E+004  0.2591370E+02  0.7546771E-02  0.1458836E+00
         21   -1    0    0  503  502  0.00000000000E+00  0.00000000000E+00  0.13145196248E+03  0.13145196248E+03  0.00000000000E+00 0.  1.
         21   -1    0    0  501  503 -0.00000000000E+00 -0.00000000000E+00 -0.55860265235E+01  0.55860265235E+01  0.00000000000E+00 0. -1.
          2    1    1    2  501    0  0.25763480462E+02  0.27862369920E+01  0.42899034907E+02  0.50118332355E+02  0.00000000000E+00 0. -1.
         -2    1    1    2    0  502 -0.25763480462E+02 -0.27862369920E+01  0.82966901046E+02  0.86919656645E+02  0.00000000000E+00 0.  1.
</event>
<event>
 4    1  0.1727273E+004  0.5267847E+02  0.7546771E-02  0.1286959E+00
         21   -1    0    0  503  502  0.00000000000E+00  0.00000000000E+00  0.40420760274E+02  0.40420760274E+02  0.00000000000E+00 0.  1.
         21   -1    0    0  501  503 -0.00000000000E+00 -0.00000000000E+00 -0.15582990864E+03  0.15582990864E+03  0.00000000000E+00 0. -1.
          2    1    1    2  501    0  0.21237622568E+02 -0.48207719580E+02 -0.13109773433E+03  0.14128565669E+03  0.00000000000E+00 0. -1.
         -2    1    1    2    0  502 -0.21237622568E+02  0.48207719580E+02  0.15688585964E+02  0.54965012226E+02  0.00000000000E+00 0.  1.
</event>
<event>
 4    1  0.1727273E+004  0.3347995E+02  0.7546771E-02  0.1391576E+00
         21   -1    0    0  501  502  0.00000000000E+00  0.00000000000E+00  0.88745112208E+02  0.88745112208E+02  0.00000000000E+00 0. -1.
         21   -1    0    0  502  503 -0.00000000000E+00 -0.00000000000E+00 -0.44649737202E+02  0.44649737202E+02  0.00000000000E+00 0.  1.
          2    1    1    2  501    0 -0.23517693521E+02  0.23829081812E+02  0.78528923580E+02  0.85368020284E+02  0.00000000000E+00 0. -1.
         -2    1    1    2    0  503  0.23517693521E+02 -0.23829081812E+02 -0.34433548574E+02  0.48026829126E+02  0.00000000000E+00 0.  1.
</event>
<event>
 4    1  0.1727273E+004  0.3720001E+02  0.7546771E-02  0.1365724E+00
         21   -1    0    0  501  502  0.00000000000E+00  0.00000000000E+00  0.96082638389E+02  0.96082638389E+02  0.00000000000E+00 0. -1.
         21   -1    0    0  502  503 -0.00000000000E+00 -0.00000000000E+00 -0.18321563172E+02  0.18321563172E+02  0.00000000000E+00 0.  1.
          2    1    1    2  501    0 -0.36639968231E+02 -0.64306789480E+01  0.65336019439E+02  0.75184016519E+02  0.00000000000E+00 0. -1.
         -2    1    1    2    0  503  0.36639968231E+02  0.64306789480E+01  0.12425055777E+02  0.39220185043E+02  0.00000000000E+00 0.  1.
</event>
<event>
 4    1  0.1727273E+004  0.5087538E+02  0.7546771E-02  0.1294421E+00
         21   -1    0    0  501  502  0.00000000000E+00  0.00000000000E+00  0.23186639513E+03  0.23186639513E+03  0.00000000000E+00 0.  1.
         21   -1    0    0  502  503 -0.00000000000E+00 -0.00000000000E+00 -0.12020611773E+02  0.12020611773E+02  0.00000000000E+00 0. -1.
          2    1    1    2  501    0  0.16133654065E+02  0.48249446290E+02  0.14249631190E+03  0.15130599052E+03  0.00000000000E+00 0.  1.
         -2    1    1    2    0  503 -0.16133654065E+02 -0.48249446290E+02  0.77349471456E+02  0.92581016387E+02  0.00000000000E+00 0. -1.
</event>
<event>
 4    1  0.1727273E+004  0.2170238E+02  0.7546771E-02  0.1509469E+00
         21   -1    0    0  501  502  0.00000000000E+00  0.00000000000E+00  0.16375924418E+03  0.16375924418E+03  0.00000000000E+00 0.  1.
         21   -1    0    0  502  503 -0.00000000000E+00 -0.00000000000E+00 -0.62389440887E+01  0.62389440887E+01  0.00000000000E+00 0. -1.
          2    1    1    2  501    0  0.15784203608E+02 -0.14894697196E+02  0.14116381487E+03  0.14282232220E+03  0.00000000000E+00 0.  1.
         -2    1    1    2    0  503 -0.15784203608E+02  0.14894697196E+02  0.16356485220E+02  0.27175866074E+02  0.00000000000E+00 0. -1.
</event>
<event>
 4    1  0.1727273E+004  0.3016438E+02  0.7546771E-02  0.1418173E+00
         21   -1    0    0  503  502  0.00000000000E+00  0.00000000000E+00  0.18170815484E+03  0.18170815484E+03  0.00000000000E+00 0.  1.
         21   -1    0    0  501  503 -0.00000000000E+00 -0.00000000000E+00 -0.57830412243E+01  0.57830412243E+01  0.00000000000E+00 0. -1.
          2    1    1    2  501    0  0.30131686909E+02  0.14041032583E+01  0.53630800508E+02  0.61531722104E+02  0.00000000000E+00 0.  1.
         -2    1    1    2    0  502 -0.30131686909E+02 -0.14041032583E+01  0.12229431311E+03  0.12595947396E+03  0.00000000000E+00 0. -1.
</event>
<event>
 4    1  0.1727273E+004  0.2965223E+02  0.7546771E-02  0.1422643E+00
         21   -1    0    0  501  502  0.00000000000E+00  0.00000000000E+00  0.69072191477E+03  0.69072191477E+03  0.00000000000E+00 0.  1.
         21   -1    0    0  502  503 -0.00000000000E+00 -0.00000000000E+00 -0.13160597884E+01  0.13160597884E+01  0.00000000000E+00 0. -1.
          2    1    1    2  501    0 -0.10866092940E+02  0.27589539159E+02  0.40732806818E+03  0.40840593748E+03  0.00000000000E+00 0.  1.
         -2    1    1    2    0  503  0.10866092940E+02 -0.27589539159E+02  0.28207778680E+03  0.28363203707E+03  0.00000000000E+00 0. -1.
</event>
<event>
 4    1  0.1727273E+004  0.2016716E+02  0.7546771E-02  0.1531496E+00
         21   -1    0    0  503  502  0.00000000000E+00  0.00000000000E+00  0.76747934555E+01  0.76747934555E+01  0.00000000000E+00 0.  1.
         21   -1    0    0  501  503 -0.00000000000E+00 -0.00000000000E+00 -0.82520504987E+02  0.82520504987E+02  0.00000000000E+00 0. -1.
          2    1    1    2  501    0  0.10160959070E+02  0.17420364426E+02 -0.64399172138E+02  0.67483090904E+02  0.00000000000E+00 0. -1.
         -2    1    1    2    0  502 -0.10160959070E+02 -0.17420364426E+02 -0.10446539393E+02  0.22712207538E+02  0.00000000000E+00 0.  1.
</event>
<event>
 4    1  0.1727273E+004  0.2841988E+02  0.7546771E-02  0.1433844E+00
         21   -1    0    0  501  502  0.00000000000E+00  0.00000000000E+00  0.82101540123E+01  0.82101540123E+01  0.00000000000E+00 0. -1.
         21   -1    0    0  502  503 -0.00000000000E+00 -0.00000000000E+00 -0.10096766265E+03  0.10096766265E+03  0.00000000000E+00 0.  1.
          2    1    1    2  501    0  0.28418640509E+02 -0.26525140471E+00 -0.37634410800E+02  0.47159711226E+02  0.00000000000E+00 0. -1.
         -2    1    1    2    0  503 -0.28418640509E+02  0.26525140471E+00 -0.55123097840E+02  0.62018105438E+02  0.00000000000E+00 0.  1.
</event>
<event>
 4    1  0.1727273E+004  0.2363253E+02  0.7546771E-02  0.1484705E+00
         21   -1    0    0  501  502  0.00000000000E+00  0.00000000000E+00  0.17702722561E+02  0.17702722561E+02  0.00000000000E+00 0.  1.
         21   -1    0    0  502  503 -0.00000000000E+00 -0.00000000000E+00 -0.12313908540E+03  0.12313908540E+03  0.00000000000E+00 0. -1.
          2    1    1    2  501    0  0.23152242104E+02  0.47402919156E+01  0.80153784811E+01  0.24954818655E+02  0.00000000000E+00 0.  1.
         -2    1    1    2    0  503 -0.23152242104E+02 -0.47402919156E+01 -0.11345174132E+03  0.11588698930E+03  0.00000000000E+00 0. -1.
</event>
<event>
 4    1  0.1727273E+004  0.4057660E+02  0.7546771E-02  0.1345140E+00
         21   -1    0    0  501  502  0.00000000000E+00  0.00000000000E+00  0.15185164787E+03  0.15185164787E+03  0.00000000000E+00 0. -1.
         21   -1    0    0  502  503 -0.00000000000E+00 -0.00000000000E+00 -0.10847695369E+02  0.10847695369E+02  0.00000000000E+00 0.  1.
          2    1    1    2  501    0  0.40258599713E+02 -0.50700628466E+01  0.68731733854E+02  0.79815484880E+02  0.00000000000E+00 0.  1.
         -2    1    1    2    0  503 -0.40258599713E+02  0.50700628466E+01  0.72272218647E+02  0.82883858358E+02  0.00000000000E+00 0. -1.
</event>
<event>
 4    1  0.1727273E+004  0.2360590E+02  0.7546771E-02  0.1485027E+00
         21   -1    0    0  503  502  0.00000000000E+00  0.00000000000E+00  0.64602878171E+02  0.64602878171E+02  0.00000000000E+00 0.  1.
         21   -1    0    0  501  503 -0.00000000000E+00 -0.00000000000E+00 -0.14090297731E+02  0.14090297731E+02  0.00000000000E+00 0. -1.
          2    1    1    2  501    0  0.23033909833E+02  0.51650410549E+01  0.75268287766E+00  0.23617899627E+02  0.00000000000E+00 0. -1.
         -2    1    1    2    0  502 -0.23033909833E+02 -0.51650410549E+01  0.49759897563E+02  0.55075276275E+02  0.00000000000E+00 0.  1.
</event>
<event>
 4    1  0.1727273E+004  0.2213486E+02  0.7546771E-02  0.1503657E+00
         21   -1    0    0  503  502  0.00000000000E+00  0.00000000000E+00  0.10156660167E+02  0.10156660167E+02  0.00000000000E+00 0.  1.
         21   -1    0    0  501  503 -0.00000000000E+00 -0.00000000000E+00 -0.71797137580E+02  0.71797137580E+02  0.00000000000E+00 0. -1.
          2    1    1    2  501    0 -0.15441111971E+02 -0.15859507275E+02 -0.54292323298E+02  0.58631120397E+02  0.00000000000E+00 0. -1.
         -2    1    1    2    0  502  0.15441111971E+02  0.15859507275E+02 -0.73481541151E+01  0.23322677350E+02  0.00000000000E+00 0.  1.
</event>
<event>
 4    1  0.1727273E+004  0.2134178E+02  0.7546771E-02  0.1514441E+00
         21   -1    0    0  501  502  0.00000000000E+00  0.00000000000E+00  0.66952065985E+02  0.66952065985E+02  0.00000000000E+00 0.  1.
         21   -1    0    0  502  503 -0.00000000000E+00 -0.00000000000E+00 -0.40810463718E+03  0.40810463718E+03  0.00000000000E+00 0. -1.
          2    1    1    2  501    0 -0.19913808668E+02 -0.76753971659E+01  0.64963992414E+02  0.68379761682E+02  0.00000000000E+00 0.  1.
         -2    1    1    2    0  503  0.19913808668E+02  0.76753971659E+01 -0.40611656361E+03  0.40667694148E+03  0.00000000000E+00 0. -1.
</event>
<event>
 4    1  0.1727273E+004  0.4171948E+02  0.7546771E-02  0.1338694E+00
         21   -1    0    0  501  502  0.00000000000E+00  0.00000000000E+00  0.60027004362E+01  0.60027004362E+01  0.00000000000E+00 0. -1.
         21   -1    0    0  502  503 -0.00000000000E+00 -0.00000000000E+00 -0.51435500321E+03  0.51435500321E+03  0.00000000000E+00 0.  1.
          2    1    1    2  501    0 -0.38246218084E+02  0.16665584196E+02 -0.82325321668E+02  0.92292867991E+02  0.00000000000E+00 0. -1.
         -2    1    1    2    0  503  0.38246218084E+02 -0.16665584196E+02 -0.42602698110E+03  0.42806483565E+03  0.00000000000E+00 0.  1.
</event>
<event>
 4    1  0.1727273E+004  0.2144120E+02  0.7546771E-02  0.1513058E+00
         21   -1    0    0  503  502  0.00000000000E+00  0.00000000000E+00  0.33186589342E+03  0.33186589342E+03  0.00000000000E+00 0. -1.
         21   -1    0    0  501  503 -0.00000000000E+00 -0.00000000000E+00 -0.75270223534E+01  0.75270223534E+01  0.00000000000E+00 0.  1.
          2    1    1    2  501    0  0.96868004488E+00  0.21419304438E+02  0.88817700705E+01  0.23207989642E+02  0.00000000000E+00 0.  1.
         -2    1    1    2    0  502 -0.96868004488E+00 -0.21419304438E+02  0.31545710099E+03  0.31618492613E+03  0.00000000000E+00 0. -1.
</event>
<event>
 4    1  0.1727273E+004  0.2096947E+02  0.7546771E-02  0.1519701E+00
         21   -1    0    0  501  502  0.00000000000E+00  0.00000000000E+00  0.75649063447E+03  0.75649063447E+03  0.00000000000E+00 0.  1.
         21   -1    0    0  502  503 -0.00000000000E+00 -0.00000000000E+00 -0.35031190114E+01  0.35031190114E+01  0.00000000000E+00 0. -1.
          2    1    1    2  501    0  0.15996426630E+02 -0.13558502693E+02  0.72353582318E+03  0.72383962732E+03  0.00000000000E+00 0.  1.
         -2    1    1    2    0  503 -0.15996426630E+02  0.13558502693E+02  0.29451692285E+02  0.36154126163E+02  0.00000000000E+00 0. -1.
</event>
<event>
 4    1  0.1727273E+004  0.2064006E+02  0.7546771E-02  0.1524466E+00
         21   -1    0    0  503  502  0.00000000000E+00  0.00000000000E+00  0.19123540819E+03  0.19123540819E+03  0.00000000000E+00 0. -1.
         21   -1    0    0  501  503 -0.00000000000E+00 -0.00000000000E+00 -0.22925057468E+01  0.22925057468E+01  0.00000000000E+00 0.  1.
          2    1    1    2  501    0 -0.11243712805E+02 -0.17308696168E+02  0.11074263273E+03  0.11264964600E+03  0.00000000000E+00 0. -1.
         -2    1    1    2    0  502  0.11243712805E+02  0.17308696168E+02  0.78200269716E+02  0.80878267936E+02  0.00000000000E+00 0.  1.
</event>
<event>
 4    1  0.1727273E+004  0.2504674E+02  0.7546771E-02  0.1468281E+00
         21   -1    0    0  503  502  0.00000000000E+00  0.00000000000E+00  0.47504292611E+02  0.47504292611E+02  0.00000000000E+00 0. -1.
         21   -1    0    0  501  503 -0.00000000000E+00 -0.00000000000E+00 -0.42567646607E+02  0.42567646607E+02  0.00000000000E+00 0.  1.
          2    1    1    2  501    0 -0.43721271364E+01  0.24662191140E+02 -0.34935009088E+02  0.42985974777E+02  0.00000000000E+00 0.  1.
         -2    1    1    2    0  502  0.43721271364E+01 -0.24662191140E+02  0.39871655093E+02  0.47085964441E+02  0.00000000000E+00 0. -1.
</event>
<event>
 4    1  0.1727273E+004  0.4883671E+02  0.7546771E-02  0.1303296E+00
         21   -1    0    0  501  502  0.00000000000E+00  0.00000000000E+00  0.89414195751E+03  0.89414195751E+03  0.00000000000E+00 0. -1.
         21   -1    0    0  502  503 -0.00000000000E+00 -0.00000000000E+00 -0.36884782784E+01  0.36884782784E+01  0.00000000000E+00 0.  1.
          2    1    1    2  501    0  0.14134367983E+02 -0.46746595384E+02  0.68142274213E+03  0.68317053364E+03  0.00000000000E+00 0. -1.
         -2    1    1    2    0  503 -0.14134367983E+02  0.46746595384E+02  0.20903073710E+03  0.21465990215E+03  0.00000000000E+00 0.  1.
</event>
<event>
 4    1  0.1727273E+004  0.3559248E+02  0.7546771E-02  0.1376445E+00
         21   -1    0    0  503  502  0.00000000000E+00  0.00000000000E+00  0.91945421757E+02  0.91945421757E+02  0.00000000000E+00 0. -1.
         21   -1    0    0  501  503 -0.00000000000E+00 -0.00000000000E+00 -0.67592689884E+02  0.67592689884E+02  0.00000000000E+00 0.  1.
          2    1    1    2  501    0  0.32517512891E+02 -0.14471905255E+02 -0.58999863659E+02  0.68904343826E+02  0.00000000000E+00 0.  1.
         -2    1    1    2    0  502 -0.32517512891E+02  0.14471905255E+02  0.83352595532E+02  0.90633767815E+02  0.00000000000E+00 0. -1.
</event>
<event>
 4    1  0.1727273E+004  0.2153564E+02  0.7546771E-02  0.1511753E+00
         21   -1    0    0  503  502  0.00000000000E+00  0.00000000000E+00  0.84503630849E+02  0.84503630849E+02  0.00000000000E+00 0.  1.
         21   -1    0    0  501  503 -0.00000000000E+00 -0.00000000000E+00 -0.99532516848E+01  0.99532516848E+01  0.00000000000E+00 0. -1.
          2    1    1    2  501    0 -0.21274342282E+02 -0.33445642562E+01  0.56430857009E+01  0.22262707962E+02  0.00000000000E+00 0. -1.
         -2    1    1    2    0  502  0.21274342282E+02  0.33445642562E+01  0.68907293463E+02  0.72194174571E+02  0.00000000000E+00 0.  1.
</event>
<event>
 4    1  0.1727273E+004  0.6827974E+02  0.7546771E-02  0.1234030E+00
         21   -1    0    0  503  502  0.00000000000E+00  0.00000000000E+00  0.36250935937E+02  0.36250935937E+02  0.00000000000E+00 0. -1.
         21   -1    0    0  501  503 -0.00000000000E+00 -0.00000000000E+00 -0.16951424052E+03  0.16951424052E+03  0.00000000000E+00 0.  1.
          2    1    1    2  501    0 -0.42644378551E+02 -0.53325230008E+02 -0.11717209213E+03  0.13561497834E+03  0.00000000000E+00 0.  1.
         -2    1    1    2    0  502  0.42644378551E+02  0.53325230008E+02 -0.16091212457E+02  0.70150198116E+02  0.00000000000E+00 0. -1.
</event>
<event>
 4    1  0.1727273E+004  0.2134776E+02  0.7546771E-02  0.1514357E+00
         21   -1    0    0  501  502  0.00000000000E+00  0.00000000000E+00  0.21422732027E+03  0.21422732027E+03  0.00000000000E+00 0. -1.
         21   -1    0    0  502  503 -0.00000000000E+00 -0.00000000000E+00 -0.69736419156E+01  0.69736419156E+01  0.00000000000E+00 0.  1.
          2    1    1    2  501    0 -0.12441145754E+02 -0.17347760279E+02  0.19582748996E+03  0.19698764611E+03  0.00000000000E+00 0. -1.
         -2    1    1    2    0  503  0.12441145754E+02  0.17347760279E+02  0.11426188396E+02  0.24213316081E+02  0.00000000000E+00 0.  1.
</event>
<event>
 4    1  0.1727273E+004  0.3713249E+02  0.7546771E-02  0.1366161E+00
         21   -1    0    0  501  502  0.00000000000E+00  0.00000000000E+00  0.17037965031E+03  0.17037965031E+03  0.00000000000E+00 0. -1.
         21   -1    0    0  502  503 -0.00000000000E+00 -0.00000000000E+00 -0.14081405947E+02  0.14081405947E+02  0.00000000000E+00 0.  1.
          2    1    1    2  501    0  0.30653721385E+02  0.20956403547E+02  0.13829699739E+03  0.14319525471E+03  0.00000000000E+00 0. -1.
         -2    1    1    2    0  503 -0.30653721385E+02 -0.20956403547E+02  0.18001246967E+02  0.41265801540E+02  0.00000000000E+00 0.  1.
</event>
<event>
 4    1  0.1727273E+004  0.2076952E+02  0.7546771E-02  0.1522581E+00
         21   -1    0    0  503  502  0.00000000000E+00  0.00000000000E+00  0.27872138812E+03  0.27872138812E+03  0.00000000000E+00 0.  1.
         21   -1    0    0  501  503 -0.00000000000E+00 -0.00000000000E+00 -0.20328648782E+01  0.20328648782E+01  0.00000000000E+00 0. -1.
          2    1    1    2  501    0 -0.10321127900E+02 -0.18023523304E+02  0.69764934030E+02  0.72790927276E+02  0.00000000000E+00 0. -1.
         -2    1    1    2    0  502  0.10321127900E+02  0.18023523304E+02  0.20692358921E+03  0.20796332572E+03  0.00000000000E+00 0.  1.
</event>
<event>
 4    1  0.1727273E+004  0.2035877E+02  0.7546771E-02  0.1528620E+00
         21   -1    0    0  501  502  0.00000000000E+00  0.00000000000E+00  0.10603060710E+03  0.10603060710E+03  0.00000000000E+00 0.  1.
         21   -1    0    0  502  503 -0.00000000000E+00 -0.00000000000E+00 -0.87966542184E+01  0.87966542184E+01  0.00000000000E+00 0. -1.
          2    1    1    2  501    0 -0.76697809950E+01  0.18858794429E+02  0.91413053730E+02  0.93652688482E+02  0.00000000000E+00 0.  1.
         -2    1    1    2    0  503  0.76697809950E+01 -0.18858794429E+02  0.58208991512E+01  0.21174572835E+02  0.00000000000E+00 0. -1.
</event>
<event>
 4    1  0.1727273E+004  0.2627640E+02  0.7546771E-02  0.1455015E+00
         21   -1    0    0  501  502  0.00000000000E+00  0.00000000000E+00  0.33208773548E+02  0.33208773548E+02  0.00000000000E+00 0.  1.
         21   -1    0    0  502  503 -0.00000000000E+00 -0.00000000000E+00 -0.13186121035E+03  0.13186121035E+03  0.00000000000E+00 0. -1.
          2    1    1    2  501    0 -0.26273556178E+02  0.38665640809E+00  0.26422981349E+02  0.37264234875E+02  0.00000000000E+00 0.  1.
         -2    1    1    2    0  503  0.26273556178E+02 -0.38665640809E+00 -0.12507541816E+03  0.12780574903E+03  0.00000000000E+00 0. -1.
</event>
<event>
 4    1  0.1727273E+004  0.2416274E+02  0.7546771E-02  0.1478392E+00
         21   -1    0    0  503  502  0.00000000000E+00  0.00000000000E+00  0.28584090740E+01  0.28584090740E+01  0.00000000000E+00 0. -1.
         21   -1    0    0  501  503 -0.00000000000E+00 -0.00000000000E+00 -0.73232600161E+03  0.73232600161E+03  0.00000000000E+00 0.  1.
          2    1    1    2  501    0 -0.69885745268E+01 -0.23130019425E+02 -0.67688221778E+03  0.67731335047E+03  0.00000000000E+00 0.  1.
         -2    1    1    2    0  502  0.69885745268E+01  0.23130019425E+02 -0.52585374755E+02  0.57871060218E+02  0.00000000000E+00 0. -1.
</event>
<event>
 4    1  0.1727273E+004  0.2495787E+02  0.7546771E-02  0.1469275E+00
         21   -1    0    0  501  502  0.00000000000E+00  0.00000000000E+00  0.20875771240E+02  0.20875771240E+02  0.00000000000E+00 0. -1.
         21   -1    0    0  502  503 -0.00000000000E+00 -0.00000000000E+00 -0.36366199712E+02  0.36366199712E+02  0.00000000000E+00 0.  1.
          2    1    1    2  501    0 -0.24860869545E+02  0.21982950096E+01  0.43810171028E+01  0.25339468155E+02  0.00000000000E+00 0. -1.
         -2    1    1    2    0  503  0.24860869545E+02 -0.21982950096E+01 -0.19871445575E+02  0.31902502798E+02  0.00000000000E+00 0.  1.
</event>
<event>
 4    1  0.1727273E+004  0.2308056E+02  0.7546771E-02  0.1491489E+00
         21   -1    0    0  501  502  0.00000000000E+00  0.00000000000E+00  0.23713648407E+03  0.23713648407E+03  0.00000000000E+00 0. -1.
         21   -1    0    0  502  503 -0.00000000000E+00 -0.00000000000E+00 -0.42788998343E+01  0.42788998343E+01  0.00000000000E+00 0.  1.
          2    1    1    2  501    0  0.49322710279E+01 -0.22547392373E+02  0.19962052666E+03  0.20095040897E+03  0.00000000000E+00 0. -1.
         -2    1    1    2    0  503 -0.49322710279E+01  0.22547392373E+02  0.33237057573E+02  0.40464974934E+02  0.00000000000E+00 0.  1.
</event>
<event>
 4    1  0.1727273E+004  0.4710255E+02  0.7546771E-02  0.1311248E+00
         21   -1    0    0  503  502  0.00000000000E+00  0.00000000000E+00  0.96645862537E+02  0.96645862537E+02  0.00000000000E+00 0. -1.
         21   -1    0    0  501  503 -0.00000000000E+00 -0.00000000000E+00 -0.24535134195E+02  0.24535134195E+02  0.00000000000E+00 0.  1.
          2    1    1    2  501    0  0.52919751562E+01 -0.46804333725E+02  0.20686166995E+02  0.51444806944E+02  0.00000000000E+00 0.  1.
         -2    1    1    2    0  502 -0.52919751562E+01  0.46804333725E+02  0.51424561347E+02  0.69736189789E+02  0.00000000000E+00 0. -1.
</event>
<event>
 4    1  0.1727273E+004  0.3528712E+02  0.7546771E-02  0.1378556E+00
         21   -1    0    0  501  502  0.00000000000E+00  0.00000000000E+00  0.99751636118E+02  0.99751636118E+02  0.00000000000E+00 0. -1.
         21   -1    0    0  502  503 -0.00000000000E+00 -0.00000000000E+00 -0.15670067906E+02  0.15670067906E+02  0.00000000000E+00 0.  1.
          2    1    1    2  501    0 -0.95789338844E+00 -0.35274120929E+02  0.68068157679E+02  0.76671084881E+02  0.00000000000E+00 0. -1.
         -2    1    1    2    0  503  0.95789338844E+00  0.35274120929E+02  0.16013410534E+02  0.38750619143E+02  0.00000000000E+00 0.  1.
</event>
<event>
 4    1  0.1727273E+004  0.5768906E+02  0.7546771E-02  0.1267893E+00
         21   -1    0    0  503  502  0.00000000000E+00  0.00000000000E+00  0.43396550158E+01  0.43396550158E+01  0.00000000000E+00 0. -1.
         21   -1    0    0  501  503 -0.00000000000E+00 -0.00000000000E+00 -0.77968269240E+03  0.77968269240E+03  0.00000000000E+00 0.  1.
          2    1    1    2  501    0 -0.16318536889E+02  0.55332927674E+02 -0.43788976699E+03  0.44167349430E+03  0.00000000000E+00 0. -1.
         -2    1    1    2    0  502  0.16318536889E+02 -0.55332927674E+02 -0.33745327040E+03  0.34234885312E+03  0.00000000000E+00 0.  1.
</event>
<event>
 4    1  0.1727273E+004  0.2008943E+02  0.7546771E-02  0.1532673E+00
         21   -1    0    0  503  502  0.00000000000E+00  0.00000000000E+00  0.25360116149E+02  0.25360116149E+02  0.00000000000E+00 0.  1.
         21   -1    0    0  501  503 -0.00000000000E+00 -0.00000000000E+00 -0.55216955545E+02  0.55216955545E+02  0.00000000000E+00 0. -1.
          2    1    1    2  501    0 -0.20624297405E+01  0.19983279642E+02 -0.48918872293E+02  0.52883278530E+02  0.00000000000E+00 0. -1.
         -2    1    1    2    0  502  0.20624297405E+01 -0.19983279642E+02  0.19062032896E+02  0.27693793164E+02  0.00000000000E+00 0.  1.
</event>
<event>
 4    1  0.1727273E+004  0.3495290E+02  0.7546771E-02  0.1380895E+00
         21   -1    0    0  503  502  0.00000000000E+00  0.00000000000E+00  0.31092051827E+02  0.31092051827E+02  0.00000000000E+00 0. -1.
         21   -1    0    0  501  503 -0.00000000000E+00 -0.00000000000E+00 -0.73081219930E+02  0.73081219930E+02  0.00000000000E+00 0.  1.
          2    1    1    2  501    0  0.13104952202E+02  0.32403171341E+02 -0.56411029926E+02  0.66361958851E+02  0.00000000000E+00 0.  1.
         -2    1    1    2    0  502 -0.13104952202E+02 -0.32403171341E+02  0.14421861824E+02  0.37811312906E+02  0.00000000000E+00 0. -1.
</event>
<event>
 4    1  0.1727273E+004  0.2179870E+02  0.7546771E-02  0.1508160E+00
         21   -1    0    0  501  502  0.00000000000E+00  0.00000000000E+00  0.24104462112E+02  0.24104462112E+02  0.00000000000E+00 0. -1.
         21   -1    0    0  502  503 -0.00000000000E+00 -0.00000000000E+00 -0.56905168745E+02  0.56905168745E+02  0.00000000000E+00 0.  1.
          2    1    1    2  501    0 -0.19366689749E+02  0.10005728364E+02  0.16345298710E+02  0.27246138476E+02  0.00000000000E+00 0. -1.
         -2    1    1    2    0  503  0.19366689749E+02 -0.10005728364E+02 -0.49146005343E+02  0.53763492382E+02  0.00000000000E+00 0.  1.
</event>
<event>
 4    1  0.1727273E+004  0.2024101E+02  0.7546771E-02  0.1530383E+00
         21   -1    0    0  501  502  0.00000000000E+00  0.00000000000E+00  0.17138273220E+03  0.17138273220E+03  0.00000000000E+00 0. -1.
         21   -1    0    0  502  503 -0.00000000000E+00 -0.00000000000E+00 -0.51804837760E+01  0.51804837760E+01  0.00000000000E+00 0.  1.
          2    1    1    2  501    0  0.19111677443E+02  0.66664909319E+01  0.14788729769E+03  0.14926604146E+03  0.00000000000E+00 0. -1.
         -2    1    1    2    0  503 -0.19111677443E+02 -0.66664909319E+01  0.18314950735E+02  0.27297174514E+02  0.00000000000E+00 0.  1.
</event>
<event>
 4    1  0.1727273E+004  0.2023781E+02  0.7546771E-02  0.1530431E+00
         21   -1    0    0  503  502  0.00000000000E+00  0.00000000000E+00  0.37660199947E+01  0.37660199947E+01  0.00000000000E+00 0.  1.
         21   -1    0    0  501  503 -0.00000000000E+00 -0.00000000000E+00 -0.12465648290E+03  0.12465648290E+03  0.00000000000E+00 0. -1.
          2    1    1    2  501    0  0.15851293038E+02 -0.12581947212E+02 -0.37510732483E+02  0.42621871592E+02  0.00000000000E+00 0.  1.
         -2    1    1    2    0  502 -0.15851293038E+02  0.12581947212E+02 -0.83379730427E+02  0.85800631307E+02  0.00000000000E+00 0. -1.
</event>
<event>
 4    1  0.1727273E+004  0.2099880E+02  0.7546771E-02  0.1519282E+00
         21   -1    0    0  501  502  0.00000000000E+00  0.00000000000E+00  0.64229129588E+00  0.64229129588E+00  0.00000000000E+00 0. -1.
         21   -1    0    0  502  503 -0.00000000000E+00 -0.00000000000E+00 -0.68838527454E+03  0.68838527454E+03  0.00000000000E+00 0.  1.
          2    1    1    2  501    0 -0.29201344901E+01 -0.20794773487E+02 -0.36177514063E+03  0.36238405341E+03  0.00000000000E+00 0.  1.
         -2    1    1    2    0  503  0.29201344901E+01  0.20794773487E+02 -0.32596784262E+03  0.32664351243E+03  0.00000000000E+00 0. -1.
</event>
<event>
 4    1  0.1727273E+004  0.2079483E+02  0.7546771E-02  0.1522214E+00
         21   -1    0    0  503  502  0.00000000000E+00  0.00000000000E+00  0.13478595318E+02  0.13478595318E+02  0.00000000000E+00 0.  1.
         21   -1    0    0  501  503 -0.00000000000E+00 -0.00000000000E+00 -0.43422363744E+02  0.43422363744E+02  0.00000000000E+00 0. -1.
          2    1    1    2  501    0  0.18742605170E+02 -0.90077630155E+01 -0.29511053968E+02  0.36101625301E+02  0.00000000000E+00 0. -1.
         -2    1    1    2    0  502 -0.18742605170E+02  0.90077630155E+01 -0.43271445855E+00  0.20799333761E+02  0.00000000000E+00 0.  1.
</event>
<event>
 4    1  0.1727273E+004  0.2612966E+02  0.7546771E-02  0.1456552E+00
         21   -1    0    0  501  502  0.00000000000E+00  0.00000000000E+00  0.10558324867E+03  0.10558324867E+03  0.00000000000E+00 0. -1.
         21   -1    0    0  502  503 -0.00000000000E+00 -0.00000000000E+00 -0.75678625711E+01  0.75678625711E+01  0.00000000000E+00 0.  1.
          2    1    1    2  501    0  0.38133372262E+01  0.25849904071E+02  0.27425378298E+02  0.37880211933E+02  0.00000000000E+00 0.  1.
         -2    1    1    2    0  503 -0.38133372262E+01 -0.25849904071E+02  0.70590007798E+02  0.75270899305E+02  0.00000000000E+00 0. -1.
</event>
<event>
 4    1  0.1727273E+004  0.2246895E+02  0.7546771E-02  0.1499276E+00
         21   -1    0    0  503  502  0.00000000000E+00  0.00000000000E+00  0.11322145743E+03  0.11322145743E+03  0.00000000000E+00 0.  1.
         21   -1    0    0  501  503 -0.00000000000E+00 -0.00000000000E+00 -0.47421087994E+01  0.47421087994E+01  0.00000000000E+00 0. -1.
          2    1    1    2  501    0 -0.36980143205E+01  0.22162542411E+02  0.39827987884E+02  0.45728789782E+02  0.00000000000E+00 0. -1.
         -2    1    1    2    0  502  0.36980143205E+01 -0.22162542411E+02  0.68651360752E+02  0.72234776452E+02  0.00000000000E+00 0.  1.
</event>
<event>
 4    1  0.1727273E+004  0.2051831E+02  0.7546771E-02  0.1526255E+00
         21   -1    0    0  503  502  0.00000000000E+00  0.00000000000E+00  0.13845763631E+02  0.13845763631E+02  0.00000000000E+00 0.  1.
         21   -1    0    0  501  503 -0.00000000000E+00 -0.00000000000E+00 -0.54130790597E+02  0.54130790597E+02  0.00000000000E+00 0. -1.
          2    1    1    2  501    0  0.12120923113E+02  0.16555484753E+02 -0.42643617147E+02  0.47323133201E+02  0.00000000000E+00 0. -1.
         -2    1    1    2    0  502 -0.12120923113E+02 -0.16555484753E+02  0.23585901821E+01  0.20653421028E+02  0.00000000000E+00 0.  1.
</event>
<event>
 4    1  0.1727273E+004  0.2372416E+02  0.7546771E-02  0.1483600E+00
         21   -1    0    0  501  502  0.00000000000E+00  0.00000000000E+00  0.13144945026E+03  0.13144945026E+03  0.00000000000E+00 0. -1.
         21   -1    0    0  502  503 -0.00000000000E+00 -0.00000000000E+00 -0.48713894653E+01  0.48713894653E+01  0.00000000000E+00 0.  1.
          2    1    1    2  501    0 -0.59463950675E+01  0.22966852943E+02  0.39575688803E+02  0.46141858357E+02  0.00000000000E+00 0. -1.
         -2    1    1    2    0  503  0.59463950675E+01 -0.22966852943E+02  0.87002371988E+02  0.90178981365E+02  0.00000000000E+00 0.  1.
</event>
<event>
 4    1  0.1727273E+004  0.2825020E+02  0.7546771E-02  0.1435438E+00
         21   -1    0    0  503  502  0.00000000000E+00  0.00000000000E+00  0.49647527074E+01  0.49647527074E+01  0.00000000000E+00 0. -1.
         21   -1    0    0  501  503 -0.00000000000E+00 -0.00000000000E+00 -0.17094863050E+03  0.17094863050E+03  0.00000000000E+00 0.  1.
          2    1    1    2  501    0  0.26851998809E+02  0.87774655198E+01 -0.10447771194E+03  0.10822969108E+03  0.00000000000E+00 0. -1.
         -2    1    1    2    0  502 -0.26851998809E+02 -0.87774655198E+01 -0.61506165859E+02  0.67683692125E+02  0.00000000000E+00 0.  1.
</event>
<event>
 4    1  0.1727273E+004  0.2119967E+02  0.7546771E-02  0.1516433E+00
         21   -1    0    0  503  502  0.00000000000E+00  0.00000000000E+00  0.62090370247E+02  0.62090370247E+02  0.00000000000E+00 0. -1.
         21   -1    0    0  501  503 -0.00000000000E+00 -0.00000000000E+00 -0.14193101801E+02  0.14193101801E+02  0.00000000000E+00 0.  1.
          2    1    1    2  501    0 -0.18078584809E+02  0.11072064361E+02 -0.27510195034E+01  0.21377416734E+02  0.00000000000E+00 0.  1.
         -2    1    1    2    0  502  0.18078584809E+02 -0.11072064361E+02  0.50648287950E+02  0.54906055314E+02  0.00000000000E+00 0. -1.
</event>
<event>
 4    1  0.1727273E+004  0.2436347E+02  0.7546771E-02  0.1476052E+00
         21   -1    0    0  503  502  0.00000000000E+00  0.00000000000E+00  0.54604668247E+03  0.54604668247E+03  0.00000000000E+00 0.  1.
         21   -1    0    0  501  503 -0.00000000000E+00 -0.00000000000E+00 -0.11240384878E+01  0.11240384878E+01  0.00000000000E+00 0. -1.
          2    1    1    2  501    0 -0.10590806454E+02  0.21941137302E+02  0.32209199443E+03  0.32301212293E+03  0.00000000000E+00 0. -1.
         -2    1    1    2    0  502  0.10590806454E+02 -0.21941137302E+02  0.22283064956E+03  0.22415859803E+03  0.00000000000E+00 0.  1.
</event>
<event>
 4    1  0.1727273E+004  0.2249544E+02  0.7546771E-02  0.1498933E+00
         21   -1    0    0  501  502  0.00000000000E+00  0.00000000000E+00  0.59917938112E+01  0.59917938112E+01  0.00000000000E+00 0. -1.
         21   -1    0    0  502  503 -0.00000000000E+00 -0.00000000000E+00 -0.84967371600E+02  0.84967371600E+02  0.00000000000E+00 0.  1.
          2    1    1    2  501    0  0.17739283281E+02  0.13833386192E+02 -0.35960584724E+02  0.42417076733E+02  0.00000000000E+00 0.  1.
         -2    1    1    2    0  503 -0.17739283281E+02 -0.13833386192E+02 -0.43014993065E+02  0.48542088678E+02  0.00000000000E+00 0. -1.
</event>
<event>
 4    1  0.1727273E+004  0.2871664E+02  0.7546771E-02  0.1431087E+00
         21   -1    0    0  501  502  0.00000000000E+00  0.00000000000E+00  0.17371563267E+03  0.17371563267E+03  0.00000000000E+00 0.  1.
         21   -1    0    0  502  503 -0.00000000000E+00 -0.00000000000E+00 -0.58679186636E+01  0.58679186636E+01  0.00000000000E+00 0. -1.
          2    1    1    2  501    0  0.23741308085E+02 -0.16155363501E+02  0.12316685650E+03  0.12647023373E+03  0.00000000000E+00 0.  1.
         -2    1    1    2    0  503 -0.23741308085E+02  0.16155363501E+02  0.44680857505E+02  0.53113317603E+02  0.00000000000E+00 0. -1.
</event>
<event>
 4    1  0.1727273E+004  0.2404711E+02  0.7546771E-02  0.1479752E+00
         21   -1    0    0  501  502  0.00000000000E+00  0.00000000000E+00  0.23876100160E+03  0.23876100160E+03  0.00000000000E+00 0.  1.
         21   -1    0    0  502  503 -0.00000000000E+00 -0.00000000000E+00 -0.35401136629E+01  0.35401136629E+01  0.00000000000E+00 0. -1.
          2    1    1    2  501    0 -0.23135909857E+01 -0.23935550595E+02  0.18569877548E+03  0.18724929506E+03  0.00000000000E+00 0.  1.
         -2    1    1    2    0  503  0.23135909857E+01  0.23935550595E+02  0.49522112463E+02  0.55051820210E+02  0.00000000000E+00 0. -1.
</event>
<event>
 4    1  0.1727273E+004  0.2151118E+02  0.7546771E-02  0.1512090E+00
         21   -1    0    0  503  502  0.00000000000E+00  0.00000000000E+00  0.20223912691E+03  0.20223912691E+03  0.00000000000E+00 0. -1.
         21   -1    0    0  501  503 -0.00000000000E+00 -0.00000000000E+00 -0.77956161435E+01  0.77956161435E+01  0.00000000000E+00 0.  1.
          2    1    1    2  501    0 -0.21506058604E+02 -0.46942674717E+00  0.89511239388E+01  0.23299217539E+02  0.00000000000E+00 0.  1.
         -2    1    1    2    0  502  0.21506058604E+02  0.46942674717E+00  0.18549238682E+03  0.18673552551E+03  0.00000000000E+00 0. -1.
</event>
<event>
 4    1  0.1727273E+004  0.2152443E+02  0.7546771E-02  0.1511907E+00
         21   -1    0    0  503  502  0.00000000000E+00  0.00000000000E+00  0.71379766848E+01  0.71379766848E+01  0.00000000000E+00 0. -1.
         21   -1    0    0  501  503 -0.00000000000E+00 -0.00000000000E+00 -0.65404928434E+02  0.65404928434E+02  0.00000000000E+00 0.  1.
          2    1    1    2  501    0  0.19898187757E+02 -0.82075105337E+01 -0.32299832327E+02  0.38814691465E+02  0.00000000000E+00 0.  1.
         -2    1    1    2    0  502 -0.19898187757E+02  0.82075105337E+01 -0.25967119422E+02  0.33728213654E+02  0.00000000000E+00 0. -1.
</event>
<event>
 4    1  0.1727273E+004  0.2038350E+02  0.7546771E-02  0.1528252E+00
         21   -1    0    0  503  502  0.00000000000E+00  0.00000000000E+00  0.55271434136E+02  0.55271434136E+02  0.00000000000E+00 0. -1.
         21   -1    0    0  501  503 -0.00000000000E+00 -0.00000000000E+00 -0.20057235578E+02  0.20057235578E+02  0.00000000000E+00 0.  1.
          2    1    1    2  501    0 -0.18237693993E+02 -0.91035018874E+01 -0.12174217558E+02  0.23742341964E+02  0.00000000000E+00 0.  1.
         -2    1    1    2    0  502  0.18237693993E+02  0.91035018874E+01  0.47388416115E+02  0.51586327750E+02  0.00000000000E+00 0. -1.
</event>
<event>
 4    1  0.1727273E+004  0.2186108E+02  0.7546771E-02  0.1507317E+00
         21   -1    0    0  501  502  0.00000000000E+00  0.00000000000E+00  0.14727480659E+02  0.14727480659E+02  0.00000000000E+00 0. -1.
         21   -1    0    0  502  503 -0.00000000000E+00 -0.00000000000E+00 -0.32692249755E+02  0.32692249755E+02  0.00000000000E+00 0.  1.
          2    1    1    2  501    0 -0.21561140908E+02  0.36088515682E+01 -0.11023402875E+02  0.24483096574E+02  0.00000000000E+00 0. -1.
         -2    1    1    2    0  503  0.21561140908E+02 -0.36088515682E+01 -0.69413662213E+01  0.22936633840E+02  0.00000000000E+00 0.  1.
</event>
<event>
 4    1  0.1727273E+004  0.2848634E+02  0.7546771E-02  0.1433223E+00
         21   -1    0    0  501  502  0.00000000000E+00  0.00000000000E+00  0.23219138721E+02  0.23219138721E+02  0.00000000000E+00 0. -1.
         21   -1    0    0  502  503 -0.00000000000E+00 -0.00000000000E+00 -0.36477463280E+02  0.36477463280E+02  0.00000000000E+00 0.  1.
          2    1    1    2  501    0 -0.22046726343E+02  0.18039211570E+02 -0.51801444110E+00  0.28491044829E+02  0.00000000000E+00 0. -1.
         -2    1    1    2    0  503  0.22046726343E+02 -0.18039211570E+02 -0.12740310117E+02  0.31205557172E+02  0.00000000000E+00 0.  1.
</event>
<event>
 4    1  0.1727273E+004  0.2086890E+02  0.7546771E-02  0.1521145E+00
         21   -1    0    0  503  502  0.00000000000E+00  0.00000000000E+00  0.16388948300E+02  0.16388948300E+02  0.00000000000E+00 0. -1.
         21   -1    0    0  501  503 -0.00000000000E+00 -0.00000000000E+00 -0.35719134731E+02  0.35719134731E+02  0.00000000000E+00 0.  1.
          2    1    1    2  501    0 -0.77591835587E+01  0.19372813158E+02 -0.22848658179E+02  0.30944660278E+02  0.00000000000E+00 0.  1.
         -2    1    1    2    0  502  0.77591835587E+01 -0.19372813158E+02  0.35184717476E+01  0.21163422753E+02  0.00000000000E+00 0. -1.
</event>
<event>
 4    1  0.1727273E+004  0.2063344E+02  0.7546771E-02  0.1524563E+00
         21   -1    0    0  503  502  0.00000000000E+00  0.00000000000E+00  0.41391590350E+01  0.41391590350E+01  0.00000000000E+00 0. -1.
         21   -1    0    0  501  503 -0.00000000000E+00 -0.00000000000E+00 -0.18860737831E+03  0.18860737831E+03  0.00000000000E+00 0.  1.
          2    1    1    2  501    0 -0.20384417174E+02 -0.31960235758E+01 -0.15721666293E+03  0.15856487043E+03  0.00000000000E+00 0.  1.
         -2    1    1    2    0  502  0.20384417174E+02  0.31960235758E+01 -0.27251556347E+02  0.34181666922E+02  0.00000000000E+00 0. -1.
</event>
<event>
 4    1  0.1727273E+004  0.2309178E+02  0.7546771E-02  0.1491349E+00
         21   -1    0    0  501  502  0.00000000000E+00  0.00000000000E+00  0.49144746135E+00  0.49144746135E+00  0.00000000000E+00 0. -1.
         21   -1    0    0  502  503 -0.00000000000E+00 -0.00000000000E+00 -0.12897527637E+04  0.12897527637E+04  0.00000000000E+00 0.  1.
          2    1    1    2  501    0  0.93082516106E+01  0.21132599019E+02 -0.38760147236E+03  0.38828872205E+03  0.00000000000E+00 0. -1.
         -2    1    1    2    0  503 -0.93082516106E+01 -0.21132599019E+02 -0.90165984385E+03  0.90195548909E+03  0.00000000000E+00 0.  1.
</event>
<event>
 4    1  0.1727273E+004  0.2091616E+02  0.7546771E-02  0.1520465E+00
         21   -1    0    0  503  502  0.00000000000E+00  0.00000000000E+00  0.52138482366E+02  0.52138482366E+02  0.00000000000E+00 0. -1.
         21   -1    0    0  501  503 -0.00000000000E+00 -0.00000000000E+00 -0.84583478560E+01  0.84583478560E+01  0.00000000000E+00 0.  1.
          2    1    1    2  501    0  0.18889344408E+02 -0.89821179193E+01  0.19133321631E+02  0.28347306241E+02  0.00000000000E+00 0. -1.
         -2    1    1    2    0  502 -0.18889344408E+02  0.89821179193E+01  0.24546812879E+02  0.32249523981E+02  0.00000000000E+00 0.  1.
</event>
<event>
 4    1  0.1727273E+004  0.2004118E+02  0.7546771E-02  0.1533407E+00
         21   -1    0    0  501  502  0.00000000000E+00  0.00000000000E+00  0.26973028662E+03  0.26973028662E+03  0.00000000000E+00 0.  1.
         21   -1    0    0  502  503 -0.00000000000E+00 -0.00000000000E+00 -0.29076092889E+01  0.29076092889E+01  0.00000000000E+00 0. -1.
          2    1    1    2  501    0  0.35318776289E+01 -0.19727512387E+02  0.22862690682E+03  0.22950361963E+03  0.00000000000E+00 0.  1.
         -2    1    1    2    0  503 -0.35318776289E+01  0.19727512387E+02  0.38195770516E+02  0.43134276276E+02  0.00000000000E+00 0. -1.
</event>
<event>
 4    1  0.1727273E+004  0.2861831E+02  0.7546771E-02  0.1431996E+00
         21   -1    0    0  501  502  0.00000000000E+00  0.00000000000E+00  0.66002826782E+01  0.66002826782E+01  0.00000000000E+00 0. -1.
         21   -1    0    0  502  503 -0.00000000000E+00 -0.00000000000E+00 -0.64692051730E+03  0.64692051730E+03  0.00000000000E+00 0.  1.
          2    1    1    2  501    0  0.77306935351E+01  0.27554388102E+02 -0.26404789587E+02  0.38938680503E+02  0.00000000000E+00 0. -1.
         -2    1    1    2    0  503 -0.77306935351E+01 -0.27554388102E+02 -0.61391544504E+03  0.61458211948E+03  0.00000000000E+00 0.  1.
</event>
<event>
 4    1  0.1727273E+004  0.2061444E+02  0.7546771E-02  0.1524842E+00
         21   -1    0    0  501  502  0.00000000000E+00  0.00000000000E+00  0.28502870983E+03  0.28502870983E+03  0.00000000000E+00 0.  1.
         21   -1    0    0  502  503 -0.00000000000E+00 -0.00000000000E+00 -0.14930806329E+01  0.14930806329E+01  0.00000000000E+00 0. -1.
          2    1    1    2  501    0  0.31626151277E+01  0.20370390584E+02  0.14721781629E+03  0.14865409641E+03  0.00000000000E+00 0.  1.
         -2    1    1    2    0  503 -0.31626151277E+01 -0.20370390584E+02  0.13631781291E+03  0.13786769405E+03  0.00000000000E+00 0. -1.
</event>
<event>
 4    1  0.1727273E+004  0.2125847E+02  0.7546771E-02  0.1515606E+00
         21   -1    0    0  501  502  0.00000000000E+00  0.00000000000E+00  0.14021853008E+04  0.14021853008E+04  0.00000000000E+00 0.  1.
         21   -1    0    0  502  503 -0.00000000000E+00 -0.00000000000E+00 -0.38697397586E+00  0.38697397586E+00  0.00000000000E+00 0. -1.
          2    1    1    2  501    0 -0.57397300721E+01  0.20468953314E+02  0.41420200000E+03  0.41474717522E+03  0.00000000000E+00 0. -1.
         -2    1    1    2    0  503  0.57397300721E+01 -0.20468953314E+02  0.98759632687E+03  0.98782509960E+03  0.00000000000E+00 0.  1.
</event>
<event>
 4    1  0.1727273E+004  0.2264287E+02  0.7546771E-02  0.1497032E+00
         21   -1    0    0  501  502  0.00000000000E+00  0.00000000000E+00  0.94544305986E+01  0.94544305986E+01  0.00000000000E+00 0.  1.
         21   -1    0    0  502  503 -0.00000000000E+00 -0.00000000000E+00 -0.67796158965E+03  0.67796158965E+03  0.00000000000E+00 0. -1.
          2    1    1    2  501    0 -0.17405402019E+02  0.14482794510E+02 -0.45782039390E+01  0.23101067238E+02  0.00000000000E+00 0.  1.
         -2    1    1    2    0  503  0.17405402019E+02 -0.14482794510E+02 -0.66392895511E+03  0.66431495301E+03  0.00000000000E+00 0. -1.
</event>
<event>
 4    1  0.1727273E+004  0.2481725E+02  0.7546771E-02  0.1470858E+00
         21   -1    0    0  501  502  0.00000000000E+00  0.00000000000E+00  0.20801297179E+03  0.20801297179E+03  0.00000000000E+00 0. -1.
         21   -1    0    0  502  503 -0.00000000000E+00 -0.00000000000E+00 -0.34799102197E+01  0.34799102197E+01  0.00000000000E+00 0.  1.
          2    1    1    2  501    0 -0.33463658172E+01  0.24590607121E+02  0.61426245010E+02  0.66250129802E+02  0.00000000000E+00 0. -1.
         -2    1    1    2    0  503  0.33463658172E+01 -0.24590607121E+02  0.14310681656E+03  0.14524275220E+03  0.00000000000E+00 0.  1.
</event>
<event>
 4    1  0.1727273E+004  0.2577090E+02  0.7546771E-02  0.1460361E+00
         21   -1    0    0  503  502  0.00000000000E+00  0.00000000000E+00  0.37753305369E+01  0.37753305369E+01  0.00000000000E+00 0.  1.
         21   -1    0    0  501  503 -0.00000000000E+00 -0.00000000000E+00 -0.29494282324E+03  0.29494282324E+03  0.00000000000E+00 0. -1.
          2    1    1    2  501    0 -0.19614063571E+02  0.16716089801E+02 -0.24046622975E+03  0.24184322772E+03  0.00000000000E+00 0. -1.
         -2    1    1    2    0  502  0.19614063571E+02 -0.16716089801E+02 -0.50701262959E+02  0.56874926054E+02  0.00000000000E+00 0.  1.
</event>
<event>
 4    1  0.1727273E+004  0.2064462E+02  0.7546771E-02  0.1524400E+00
         21   -1    0    0  503  502  0.00000000000E+00  0.00000000000E+00  0.10219390744E+01  0.10219390744E+01  0.00000000000E+00 0. -1.
         21   -1    0    0  501  503 -0.00000000000E+00 -0.00000000000E+00 -0.52755099462E+03  0.52755099462E+03  0.00000000000E+00 0.  1.
          2    1    1    2  501    0 -0.49225814230E+01 -0.20049150703E+02 -0.38421977602E+03  0.38477400710E+03  0.00000000000E+00 0. -1.
         -2    1    1    2    0  502  0.49225814230E+01  0.20049150703E+02 -0.14230927952E+03  0.14379892659E+03  0.00000000000E+00 0.  1.
</event>
<event>
 4    1  0.1727273E+004  0.2932876E+02  0.7546771E-02  0.1425521E+00
         21   -1    0    0  501  502  0.00000000000E+00  0.00000000000E+00  0.68935438800E+02  0.68935438800E+02  0.00000000000E+00 0. -1.
         21   -1    0    0  502  503 -0.00000000000E+00 -0.00000000000E+00 -0.13927450591E+02  0.13927450591E+02  0.00000000000E+00 0.  1.
          2    1    1    2  501    0  0.29316072630E+02 -0.86246021951E+00  0.40869855616E+02  0.50304284611E+02  0.00000000000E+00 0.  1.
         -2    1    1    2    0  503 -0.29316072630E+02  0.86246021951E+00  0.14138132593E+02  0.32558604781E+02  0.00000000000E+00 0. -1.
</event>
<event>
 4    1  0.1727273E+004  0.2112397E+02  0.7546771E-02  0.1517502E+00
         21   -1    0    0  503  502  0.00000000000E+00  0.00000000000E+00  0.51231381723E+01  0.51231381723E+01  0.00000000000E+00 0. -1.
         21   -1    0    0  501  503 -0.00000000000E+00 -0.00000000000E+00 -0.92957172551E+02  0.92957172551E+02  0.00000000000E+00 0.  1.
          2    1    1    2  501    0  0.20811733899E+02  0.36185569463E+01 -0.56227551898E+02  0.60064630313E+02  0.00000000000E+00 0.  1.
         -2    1    1    2    0  502 -0.20811733899E+02 -0.36185569463E+01 -0.31606482481E+02  0.38015680410E+02  0.00000000000E+00 0. -1.
</event>
<event>
 4    1  0.1727273E+004  0.3724741E+02  0.7546771E-02  0.1365417E+00
         21   -1    0    0  503  502  0.00000000000E+00  0.00000000000E+00  0.18984361407E+02  0.18984361407E+02  0.00000000000E+00 0. -1.
         21   -1    0    0  501  503 -0.00000000000E+00 -0.00000000000E+00 -0.14724431229E+03  0.14724431229E+03  0.00000000000E+00 0.  1.
          2    1    1    2  501    0  0.32209236050E+02 -0.18706549709E+02 -0.12311683622E+03  0.12862785565E+03  0.00000000000E+00 0.  1.
         -2    1    1    2    0  502 -0.32209236050E+02  0.18706549709E+02 -0.51431146592E+01  0.37600818041E+02  0.00000000000E+00 0. -1.
</event>
<event>
 4    1  0.1727273E+004  0.2160697E+02  0.7546771E-02  0.1510773E+00
         21   -1    0    0  503  502  0.00000000000E+00  0.00000000000E+00  0.30950030788E+02  0.30950030788E+02  0.00000000000E+00 0.  1.
         21   -1    0    0  501  503 -0.00000000000E+00 -0.00000000000E+00 -0.30150488920E+02  0.30150488920E+02  0.00000000000E+00 0. -1.
          2    1    1    2  501    0 -0.15390078732E+02  0.15165964074E+02 -0.21196002514E+02  0.30267664466E+02  0.00000000000E+00 0. -1.
         -2    1    1    2    0  502  0.15390078732E+02 -0.15165964074E+02  0.21995544382E+02  0.30832855241E+02  0.00000000000E+00 0.  1.
</event>
<event>
 4    1  0.1727273E+004  0.2487366E+02  0.7546771E-02  0.1470222E+00
         21   -1    0    0  503  502  0.00000000000E+00  0.00000000000E+00  0.11521531815E+03  0.11521531815E+03  0.00000000000E+00 0. -1.
         21   -1    0    0  501  503 -0.00000000000E+00 -0.00000000000E+00 -0.14843279493E+02  0.14843279493E+02  0.00000000000E+00 0.  1.
          2    1    1    2  501    0 -0.16222826664E+02 -0.18855203886E+02 -0.17652058596E+01  0.24936214033E+02  0.00000000000E+00 0.  1.
         -2    1    1    2    0  502  0.16222826664E+02  0.18855203886E+02  0.10213724452E+03  0.10512238361E+03  0.00000000000E+00 0. -1.
</event>
<event>
 4    1  0.1727273E+004  0.2536272E+02  0.7546771E-02  0.1464786E+00
         21   -1    0    0  503  502  0.00000000000E+00  0.00000000000E+00  0.28315871838E+02  0.28315871838E+02  0.00000000000E+00 0.  1.
         21   -1    0    0  501  503 -0.00000000000E+00 -0.00000000000E+00 -0.22728342285E+02  0.22728342285E+02  0.00000000000E+00 0. -1.
          2    1    1    2  501    0  0.22148873183E+02  0.12356986378E+02  0.33494914848E+01  0.25582939410E+02  0.00000000000E+00 0. -1.
         -2    1    1    2    0  502 -0.22148873183E+02 -0.12356986378E+02  0.22380380685E+01  0.25461274713E+02  0.00000000000E+00 0.  1.
</event>
<event>
 4    1  0.1727273E+004  0.2108689E+02  0.7546771E-02  0.1518028E+00
         21   -1    0    0  503  502  0.00000000000E+00  0.00000000000E+00  0.83700962836E+00  0.83700962836E+00  0.00000000000E+00 0.  1.
         21   -1    0    0  501  503 -0.00000000000E+00 -0.00000000000E+00 -0.14790480904E+04  0.14790480904E+04  0.00000000000E+00 0. -1.
          2    1    1    2  501    0 -0.39154366319E+01 -0.20720187884E+02 -0.13314386519E+04  0.13316056250E+04  0.00000000000E+00 0. -1.
         -2    1    1    2    0  502  0.39154366319E+01  0.20720187884E+02 -0.14677242892E+03  0.14827947505E+03  0.00000000000E+00 0.  1.
</event>
<event>
 4    1  0.1727273E+004  0.2305937E+02  0.7546771E-02  0.1491754E+00
         21   -1    0    0  503  502  0.00000000000E+00  0.00000000000E+00  0.90167062869E+01  0.90167062869E+01  0.00000000000E+00 0.  1.
         21   -1    0    0  501  503 -0.00000000000E+00 -0.00000000000E+00 -0.25269211114E+03  0.25269211114E+03  0.00000000000E+00 0. -1.
          2    1    1    2  501    0  0.12905988270E+02 -0.19109425355E+02 -0.23641001781E+03  0.23753195826E+03  0.00000000000E+00 0. -1.
         -2    1    1    2    0  502 -0.12905988270E+02  0.19109425355E+02 -0.72653870427E+01  0.24176859173E+02  0.00000000000E+00 0.  1.
</event>
<event>
 4    1  0.1727273E+004  0.4603198E+02  0.7546771E-02  0.1316358E+00
         21   -1    0    0  503  502  0.00000000000E+00  0.00000000000E+00  0.51151066455E+02  0.51151066455E+02  0.00000000000E+00 0. -1.
         21   -1    0    0  501  503 -0.00000000000E+00 -0.00000000000E+00 -0.53350670291E+02  0.53350670291E+02  0.00000000000E+00 0.  1.
          2    1    1    2  501    0  0.45925117002E+02 -0.31348261916E+01 -0.25803456471E+02  0.52770843017E+02  0.00000000000E+00 0. -1.
         -2    1    1    2    0  502 -0.45925117002E+02  0.31348261916E+01  0.23603852635E+02  0.51730893730E+02  0.00000000000E+00 0.  1.
</event>
<event>
 4    1  0.1727273E+004  0.2443704E+02  0.7546771E-02  0.1475201E+00
         21   -1    0    0  503  502  0.00000000000E+00  0.00000000000E+00  0.59515241875E+02  0.59515241875E+02  0.00000000000E+00 0.  1.
         21   -1    0    0  501  503 -0.00000000000E+00 -0.00000000000E+00 -0.24353083517E+03  0.24353083517E+03  0.00000000000E+00 0. -1.
          2    1    1    2  501    0  0.23191831061E+02  0.77011491069E+01 -0.24037650080E+03  0.24161546073E+03  0.00000000000E+00 0. -1.
         -2    1    1    2    0  502 -0.23191831061E+02 -0.77011491069E+01  0.56360907509E+02  0.61430616314E+02  0.00000000000E+00 0.  1.
</event>
<event>
 4    1  0.1727273E+004  0.2577610E+02  0.7546771E-02  0.1460305E+00
         21   -1    0    0  501  502  0.00000000000E+00  0.00000000000E+00  0.93407833491E+01  0.93407833491E+01  0.00000000000E+00 0.  1.
         21   -1    0    0  502  503 -0.00000000000E+00 -0.00000000000E+00 -0.90570086127E+02  0.90570086127E+02  0.00000000000E+00 0. -1.
          2    1    1    2  501    0  0.25266052844E+02 -0.51023245568E+01 -0.17470419815E+02  0.31138765401E+02  0.00000000000E+00 0.  1.
         -2    1    1    2    0  503 -0.25266052844E+02  0.51023245568E+01 -0.63758882963E+02  0.68772104075E+02  0.00000000000E+00 0. -1.
</event>
<event>
 4    1  0.1727273E+004  0.3062620E+02  0.7546771E-02  0.1414231E+00
         21   -1    0    0  501  502  0.00000000000E+00  0.00000000000E+00  0.14466947312E+03  0.14466947312E+03  0.00000000000E+00 0.  1.
         21   -1    0    0  502  503 -0.00000000000E+00 -0.00000000000E+00 -0.24622989441E+02  0.24622989441E+02  0.00000000000E+00 0. -1.
          2    1    1    2  501    0 -0.29542494093E+02  0.80749695759E+01  0.13267561469E+03  0.13616454320E+03  0.00000000000E+00 0.  1.
         -2    1    1    2    0  503  0.29542494093E+02 -0.80749695759E+01 -0.12629131015E+02  0.33127919359E+02  0.00000000000E+00 0. -1.
</event>
<event>
 4    1  0.1727273E+004  0.2251860E+02  0.7546771E-02  0.1498633E+00
         21   -1    0    0  501  502  0.00000000000E+00  0.00000000000E+00  0.14287916663E+03  0.14287916663E+03  0.00000000000E+00 0.  1.
         21   -1    0    0  502  503 -0.00000000000E+00 -0.00000000000E+00 -0.38392462839E+02  0.38392462839E+02  0.00000000000E+00 0. -1.
          2    1    1    2  501    0 -0.22380271191E+02  0.24921477841E+01  0.13858833550E+03  0.14040589046E+03  0.00000000000E+00 0.  1.
         -2    1    1    2    0  503  0.22380271191E+02 -0.24921477841E+01 -0.34101631712E+02  0.40865739007E+02  0.00000000000E+00 0. -1.
</event>
<event>
 4    1  0.1727273E+004  0.2274288E+02  0.7546771E-02  0.1495752E+00
         21   -1    0    0  503  502  0.00000000000E+00  0.00000000000E+00  0.11488402875E+03  0.11488402875E+03  0.00000000000E+00 0. -1.
         21   -1    0    0  501  503 -0.00000000000E+00 -0.00000000000E+00 -0.15176908354E+02  0.15176908354E+02  0.00000000000E+00 0.  1.
          2    1    1    2  501    0 -0.39089676311E+01 -0.22404428026E+02 -0.46847778952E+01  0.23220369658E+02  0.00000000000E+00 0.  1.
         -2    1    1    2    0  502  0.39089676311E+01  0.22404428026E+02  0.10439189829E+03  0.10684056744E+03  0.00000000000E+00 0. -1.
</event>
<event>
 4    1  0.1727273E+004  0.3272622E+02  0.7546771E-02  0.1397294E+00
         21   -1    0    0  501  502  0.00000000000E+00  0.00000000000E+00  0.46372023359E+02  0.46372023359E+02  0.00000000000E+00 0. -1.
         21   -1    0    0  502  503 -0.00000000000E+00 -0.00000000000E+00 -0.24940429453E+02  0.24940429453E+02  0.00000000000E+00 0.  1.
          2    1    1    2  501    0  0.32578375437E+02  0.31071870994E+01  0.20412459760E+02  0.38570372972E+02  0.00000000000E+00 0. -1.
         -2    1    1    2    0  503 -0.32578375437E+02 -0.31071870994E+01  0.10191341462E+01  0.32742079839E+02  0.00000000000E+00 0.  1.
</event>
<event>
 4    1  0.1727273E+004  0.3520295E+02  0.7546771E-02  0.1379142E+00
         21   -1    0    0  501  502  0.00000000000E+00  0.00000000000E+00  0.99774196944E+01  0.99774196944E+01  0.00000000000E+00 0. -1.
         21   -1    0    0  502  503 -0.00000000000E+00 -0.00000000000E+00 -0.14904307125E+03  0.14904307125E+03  0.00000000000E+00 0.  1.
          2    1    1    2  501    0 -0.34071464723E+01 -0.35037677080E+02 -0.10199101871E+03  0.10789539082E+03  0.00000000000E+00 0.  1.
         -2    1    1    2    0  503  0.34071464723E+01  0.35037677080E+02 -0.37074632842E+02  0.51125100123E+02  0.00000000000E+00 0. -1.
</event>
<event>
 4    1  0.1727273E+004  0.2182037E+02  0.7546771E-02  0.1507867E+00
         21   -1    0    0  501  502  0.00000000000E+00  0.00000000000E+00  0.15671408204E+01  0.15671408204E+01  0.00000000000E+00 0. -1.
         21   -1    0    0  502  503 -0.00000000000E+00 -0.00000000000E+00 -0.33043946193E+03  0.33043946193E+03  0.00000000000E+00 0.  1.
          2    1    1    2  501    0  0.45250947407E+01 -0.21346012039E+02 -0.21155238361E+03  0.21267472752E+03  0.00000000000E+00 0.  1.
         -2    1    1    2    0  503 -0.45250947407E+01  0.21346012039E+02 -0.11731993750E+03  0.11933187524E+03  0.00000000000E+00 0. -1.
</event>
<event>
 4    1  0.1727273E+004  0.2443314E+02  0.7546771E-02  0.1475246E+00
         21   -1    0    0  501  502  0.00000000000E+00  0.00000000000E+00  0.27301461089E+02  0.27301461089E+02  0.00000000000E+00 0. -1.
         21   -1    0    0  502  503 -0.00000000000E+00 -0.00000000000E+00 -0.59901224626E+02  0.59901224626E+02  0.00000000000E+00 0.  1.
          2    1    1    2  501    0 -0.24129429350E+02 -0.38404408235E+01  0.18443656571E+02  0.30612853741E+02  0.00000000000E+00 0. -1.
         -2    1    1    2    0  503  0.24129429350E+02  0.38404408235E+01 -0.51043420108E+02  0.56589831974E+02  0.00000000000E+00 0.  1.
</event>
<event>
 4    1  0.1727273E+004  0.3632005E+02  0.7546771E-02  0.1371513E+00
         21   -1    0    0  501  502  0.00000000000E+00  0.00000000000E+00  0.17613613749E+02  0.17613613749E+02  0.00000000000E+00 0. -1.
         21   -1    0    0  502  503 -0.00000000000E+00 -0.00000000000E+00 -0.12394955421E+03  0.12394955421E+03  0.00000000000E+00 0.  1.
          2    1    1    2  501    0 -0.21347258082E+02 -0.29384365918E+02 -0.86388826891E+01  0.37333318659E+02  0.00000000000E+00 0. -1.
         -2    1    1    2    0  503  0.21347258082E+02  0.29384365918E+02 -0.97697057776E+02  0.10422984930E+03  0.00000000000E+00 0.  1.
</event>
<event>
 4    1  0.1727273E+004  0.2548636E+02  0.7546771E-02  0.1463435E+00
         21   -1    0    0  501  502  0.00000000000E+00  0.00000000000E+00  0.17347872787E+03  0.17347872787E+03  0.00000000000E+00 0.  1.
         21   -1    0    0  502  503 -0.00000000000E+00 -0.00000000000E+00 -0.29827068037E+02  0.29827068037E+02  0.00000000000E+00 0. -1.
          2    1    1    2  501    0  0.16006924587E+02  0.19832628064E+02  0.16688442677E+03  0.16881933145E+03  0.00000000000E+00 0.  1.
         -2    1    1    2    0  503 -0.16006924587E+02 -0.19832628064E+02 -0.23232766945E+02  0.34486464455E+02  0.00000000000E+00 0. -1.
</event>
<event>
 4    1  0.1727273E+004  0.3295983E+02  0.7546771E-02  0.1395503E+00
         21   -1    0    0  501  502  0.00000000000E+00  0.00000000000E+00  0.30487004097E+02  0.30487004097E+02  0.00000000000E+00 0. -1.
         21   -1    0    0  502  503 -0.00000000000E+00 -0.00000000000E+00 -0.37055490815E+02  0.37055490815E+02  0.00000000000E+00 0.  1.
          2    1    1    2  501    0  0.32703696904E+02 -0.41010230919E+01  0.33320031747E+01  0.33127819529E+02  0.00000000000E+00 0.  1.
         -2    1    1    2    0  503 -0.32703696904E+02  0.41010230919E+01 -0.99004898919E+01  0.34414675383E+02  0.00000000000E+00 0. -1.
</event>
<event>
 4    1  0.1727273E+004  0.2325383E+02  0.7546771E-02  0.1489335E+00
         21   -1    0    0  503  502  0.00000000000E+00  0.00000000000E+00  0.14197720517E+04  0.14197720517E+04  0.00000000000E+00 0. -1.
         21   -1    0    0  501  503 -0.00000000000E+00 -0.00000000000E+00 -0.52319551586E+00  0.52319551586E+00  0.00000000000E+00 0.  1.
          2    1    1    2  501    0  0.21395880096E+02 -0.91080755290E+01  0.33922828371E+03  0.34002436559E+03  0.00000000000E+00 0.  1.
         -2    1    1    2    0  502 -0.21395880096E+02  0.91080755290E+01  0.10800205725E+04  0.10802708816E+04  0.00000000000E+00 0. -1.
</event>
<event>
 4    1  0.1727273E+004  0.4309766E+02  0.7546771E-02  0.1331231E+00
         21   -1    0    0  503  502  0.00000000000E+00  0.00000000000E+00  0.41580305156E+02  0.41580305156E+02  0.00000000000E+00 0.  1.
         21   -1    0    0  501  503 -0.00000000000E+00 -0.00000000000E+00 -0.11280543674E+03  0.11280543674E+03  0.00000000000E+00 0. -1.
          2    1    1    2  501    0 -0.27991269962E+01 -0.43006663671E+02 -0.95605136691E+02  0.10487015969E+03  0.00000000000E+00 0. -1.
         -2    1    1    2    0  502  0.27991269962E+01  0.43006663671E+02  0.24380005106E+02  0.49515582205E+02  0.00000000000E+00 0.  1.
</event>
<event>
 4    1  0.1727273E+004  0.2757659E+02  0.7546771E-02  0.1441901E+00
         21   -1    0    0  503  502  0.00000000000E+00  0.00000000000E+00  0.16848315635E+03  0.16848315635E+03  0.00000000000E+00 0.  1.
         21   -1    0    0  501  503 -0.00000000000E+00 -0.00000000000E+00 -0.47797312933E+01  0.47797312933E+01  0.00000000000E+00 0. -1.
          2    1    1    2  501    0  0.24560346330E+02 -0.12540236532E+02  0.61410373606E+02  0.67317918347E+02  0.00000000000E+00 0.  1.
         -2    1    1    2    0  502 -0.24560346330E+02  0.12540236532E+02  0.10229305145E+03  0.10594496929E+03  0.00000000000E+00 0. -1.
</event>
<event>
 4    1  0.1727273E+004  0.2753798E+02  0.7546771E-02  0.1442278E+00
         21   -1    0    0  501  502  0.00000000000E+00  0.00000000000E+00  0.16515507180E+02  0.16515507180E+02  0.00000000000E+00 0. -1.
         21   -1    0    0  502  503 -0.00000000000E+00 -0.00000000000E+00 -0.71029586665E+02  0.71029586665E+02  0.00000000000E+00 0.  1.
          2    1    1    2  501    0  0.26283018024E+02 -0.82184653484E+01 -0.12297396488E+01  0.27565421614E+02  0.00000000000E+00 0. -1.
         -2    1    1    2    0  503 -0.26283018024E+02  0.82184653484E+01 -0.53284339837E+02  0.59979672231E+02  0.00000000000E+00 0.  1.
</event>
<event>
 4    1  0.1727273E+004  0.2508447E+02  0.7546771E-02  0.1467861E+00
         21   -1    0    0  503  502  0.00000000000E+00  0.00000000000E+00  0.14457627665E+03  0.14457627665E+03  0.00000000000E+00 0.  1.
         21   -1    0    0  501  503 -0.00000000000E+00 -0.00000000000E+00 -0.12532779420E+02  0.12532779420E+02  0.00000000000E+00 0. -1.
          2    1    1    2  501    0  0.21309873430E+01 -0.24993787465E+02  0.25561294449E+01  0.25214367266E+02  0.00000000000E+00 0. -1.
         -2    1    1    2    0  502 -0.21309873430E+01  0.24993787465E+02  0.12948736778E+03  0.13189468880E+03  0.00000000000E+00 0.  1.
</event>
<event>
 4    1  0.1727273E+004  0.2621197E+02  0.7546771E-02  0.1455689E+00
         21   -1    0    0  503  502  0.00000000000E+00  0.00000000000E+00  0.29237428418E+02  0.29237428418E+02  0.00000000000E+00 0.  1.
         21   -1    0    0  501  503 -0.00000000000E+00 -0.00000000000E+00 -0.33621217955E+02  0.33621217955E+02  0.00000000000E+00 0. -1.
          2    1    1    2  501    0  0.12467790494E+02 -0.23056919115E+02 -0.19436516987E+02  0.32631970695E+02  0.00000000000E+00 0. -1.
         -2    1    1    2    0  502 -0.12467790494E+02  0.23056919115E+02  0.15052727450E+02  0.30226675678E+02  0.00000000000E+00 0.  1.
</event>
<event>
 4    1  0.1727273E+004  0.8062667E+02  0.7546771E-02  0.1202400E+00
         21   -1    0    0  501  502  0.00000000000E+00  0.00000000000E+00  0.68717540643E+02  0.68717540643E+02  0.00000000000E+00 0. -1.
         21   -1    0    0  502  503 -0.00000000000E+00 -0.00000000000E+00 -0.98210402137E+02  0.98210402137E+02  0.00000000000E+00 0.  1.
          2    1    1    2  501    0 -0.41084048930E+02 -0.69374059016E+02  0.12570986649E+01  0.80636464692E+02  0.00000000000E+00 0.  1.
         -2    1    1    2    0  503  0.41084048930E+02  0.69374059016E+02 -0.30749960159E+02  0.86291478089E+02  0.00000000000E+00 0. -1.
</event>
<event>
 4    1  0.1727273E+004  0.2178979E+02  0.7546771E-02  0.1508281E+00
         21   -1    0    0  501  502  0.00000000000E+00  0.00000000000E+00  0.18322554237E+03  0.18322554237E+03  0.00000000000E+00 0.  1.
         21   -1    0    0  502  503 -0.00000000000E+00 -0.00000000000E+00 -0.15529250177E+02  0.15529250177E+02  0.00000000000E+00 0. -1.
          2    1    1    2  501    0 -0.19735785455E+02  0.92354588724E+01  0.17455599573E+03  0.17591074604E+03  0.00000000000E+00 0.  1.
         -2    1    1    2    0  503  0.19735785455E+02 -0.92354588724E+01 -0.68597035368E+01  0.22844046505E+02  0.00000000000E+00 0. -1.
</event>
<event>
 4    1  0.1727273E+004  0.2383584E+02  0.7546771E-02  0.1482261E+00
         21   -1    0    0  501  502  0.00000000000E+00  0.00000000000E+00  0.13700691492E+04  0.13700691492E+04  0.00000000000E+00 0.  1.
         21   -1    0    0  502  503 -0.00000000000E+00 -0.00000000000E+00 -0.43961318206E+00  0.43961318206E+00  0.00000000000E+00 0. -1.
          2    1    1    2  501    0 -0.70139414704E+01 -0.22780511470E+02  0.84799294336E+03  0.84832787238E+03  0.00000000000E+00 0. -1.
         -2    1    1    2    0  503  0.70139414704E+01  0.22780511470E+02  0.52163659262E+03  0.52218088996E+03  0.00000000000E+00 0.  1.
</event>
<event>
 4    1  0.1727273E+004  0.2143441E+02  0.7546771E-02  0.1513152E+00
         21   -1    0    0  501  502  0.00000000000E+00  0.00000000000E+00  0.50088968529E+02  0.50088968529E+02  0.00000000000E+00 0. -1.
         21   -1    0    0  502  503 -0.00000000000E+00 -0.00000000000E+00 -0.92023983557E+01  0.92023983557E+01  0.00000000000E+00 0.  1.
          2    1    1    2  501    0 -0.20255137095E+02 -0.70116707696E+01  0.22137003413E+02  0.30813649992E+02  0.00000000000E+00 0. -1.
         -2    1    1    2    0  503  0.20255137095E+02  0.70116707696E+01  0.18749566760E+02  0.28477716893E+02  0.00000000000E+00 0.  1.
</event>
<event>
 4    1  0.1727273E+004  0.2587925E+02  0.7546771E-02  0.1459203E+00
         21   -1    0    0  501  502  0.00000000000E+00  0.00000000000E+00  0.32170402369E+02  0.32170402369E+02  0.00000000000E+00 0. -1.
         21   -1    0    0  502  503 -0.00000000000E+00 -0.00000000000E+00 -0.23910687439E+02  0.23910687439E+02  0.00000000000E+00 0.  1.
          2    1    1    2  501    0 -0.13002417227E+02  0.22375719809E+02  0.14213830742E+02  0.29525729035E+02  0.00000000000E+00 0.  1.
         -2    1    1    2    0  503  0.13002417227E+02 -0.22375719809E+02 -0.59541158115E+01  0.26555360773E+02  0.00000000000E+00 0. -1.
</event>
<event>
 4    1  0.1727273E+004  0.2027008E+02  0.7546771E-02  0.1529946E+00
         21   -1    0    0  503  502  0.00000000000E+00  0.00000000000E+00  0.37669143858E+03  0.37669143858E+03  0.00000000000E+00 0. -1.
         21   -1    0    0  501  503 -0.00000000000E+00 -0.00000000000E+00 -0.11066166139E+01  0.11066166139E+01  0.00000000000E+00 0.  1.
          2    1    1    2  501    0 -0.14935785010E+02  0.13703963366E+02  0.21041121585E+03  0.21138532598E+03  0.00000000000E+00 0. -1.
         -2    1    1    2    0  502  0.14935785010E+02 -0.13703963366E+02  0.16517360611E+03  0.16641272921E+03  0.00000000000E+00 0.  1.
</event>
<event>
 4    1  0.1727273E+004  0.2072891E+02  0.7546771E-02  0.1523171E+00
         21   -1    0    0  503  502  0.00000000000E+00  0.00000000000E+00  0.55623757568E+03  0.55623757568E+03  0.00000000000E+00 0. -1.
         21   -1    0    0  501  503 -0.00000000000E+00 -0.00000000000E+00 -0.35667791241E+01  0.35667791241E+01  0.00000000000E+00 0.  1.
          2    1    1    2  501    0  0.19373477348E+02 -0.73726591810E+01  0.28590983638E+02  0.35314757161E+02  0.00000000000E+00 0.  1.
         -2    1    1    2    0  502 -0.19373477348E+02  0.73726591810E+01  0.52407981292E+03  0.52448959765E+03  0.00000000000E+00 0. -1.
</event>
<event>
 4    1  0.1727273E+004  0.2275080E+02  0.7546771E-02  0.1495651E+00
         21   -1    0    0  501  502  0.00000000000E+00  0.00000000000E+00  0.58302124564E+02  0.58302124564E+02  0.00000000000E+00 0. -1.
         21   -1    0    0  502  503 -0.00000000000E+00 -0.00000000000E+00 -0.91893335953E+01  0.91893335953E+01  0.00000000000E+00 0.  1.
          2    1    1    2  501    0  0.68816731807E+01 -0.21685052831E+02  0.30769052104E+02  0.38266610895E+02  0.00000000000E+00 0. -1.
         -2    1    1    2    0  503 -0.68816731807E+01  0.21685052831E+02  0.18343738865E+02  0.29224847264E+02  0.00000000000E+00 0.  1.
</event>
<event>
 4    1  0.1727273E+004  0.2236965E+02  0.7546771E-02  0.1500569E+00
         21   -1    0    0  503  502  0.00000000000E+00  0.00000000000E+00  0.83239275855E+02  0.83239275855E+02  0.00000000000E+00 0. -1.
         21   -1    0    0  501  503 -0.00000000000E+00 -0.00000000000E+00 -0.44024674794E+02  0.44024674794E+02  0.00000000000E+00 0.  1.
          2    1    1    2  501    0 -0.18902093443E+02 -0.11962950063E+02 -0.39520785551E+02  0.45412485082E+02  0.00000000000E+00 0.  1.
         -2    1    1    2    0  502  0.18902093443E+02  0.11962950063E+02  0.78735386611E+02  0.81851465568E+02  0.00000000000E+00 0. -1.
</event>
<event>
 4    1  0.1727273E+004  0.3001140E+02  0.7546771E-02  0.1419497E+00
         21   -1    0    0  503  502  0.00000000000E+00  0.00000000000E+00  0.68375952642E+02  0.68375952642E+02  0.00000000000E+00 0.  1.
         21   -1    0    0  501  503 -0.00000000000E+00 -0.00000000000E+00 -0.17822415485E+02  0.17822415485E+02  0.00000000000E+00 0. -1.
          2    1    1    2  501    0 -0.10114618324E+02 -0.28255595619E+02  0.32623630036E+01  0.30188196368E+02  0.00000000000E+00 0. -1.
         -2    1    1    2    0  502  0.10114618324E+02  0.28255595619E+02  0.47291174153E+02  0.56010171758E+02  0.00000000000E+00 0.  1.
</event>
<event>
 4    1  0.1727273E+004  0.2611632E+02  0.7546771E-02  0.1456693E+00
         21   -1    0    0  501  502  0.00000000000E+00  0.00000000000E+00  0.20962787688E+03  0.20962787688E+03  0.00000000000E+00 0.  1.
         21   -1    0    0  502  503 -0.00000000000E+00 -0.00000000000E+00 -0.35750185269E+01  0.35750185269E+01  0.00000000000E+00 0. -1.
          2    1    1    2  501    0  0.21753043666E+02  0.14452233750E+02  0.71066518911E+02  0.75713354696E+02  0.00000000000E+00 0. -1.
         -2    1    1    2    0  503 -0.21753043666E+02 -0.14452233750E+02  0.13498633944E+03  0.13748954071E+03  0.00000000000E+00 0.  1.
</event>
<event>
 4    1  0.1727273E+004  0.2289290E+02  0.7546771E-02  0.1493847E+00
         21   -1    0    0  503  502  0.00000000000E+00  0.00000000000E+00  0.84649473389E+03  0.84649473389E+03  0.00000000000E+00 0.  1.
         21   -1    0    0  501  503 -0.00000000000E+00 -0.00000000000E+00 -0.69808668729E+00  0.69808668729E+00  0.00000000000E+00 0. -1.
          2    1    1    2  501    0 -0.22684284010E+02 -0.30835037418E+01  0.28043270194E+03  0.28136557191E+03  0.00000000000E+00 0. -1.
         -2    1    1    2    0  502  0.22684284010E+02  0.30835037418E+01  0.56536394526E+03  0.56582724867E+03  0.00000000000E+00 0.  1.
</event>
<event>
 4    1  0.1727273E+004  0.3471107E+02  0.7546771E-02  0.1382606E+00
         21   -1    0    0  503  502  0.00000000000E+00  0.00000000000E+00  0.40101734462E+02  0.40101734462E+02  0.00000000000E+00 0. -1.
         21   -1    0    0  501  503 -0.00000000000E+00 -0.00000000000E+00 -0.45023281037E+02  0.45023281037E+02  0.00000000000E+00 0.  1.
          2    1    1    2  501    0  0.31112508281E+01  0.34571350863E+02 -0.27010070158E+02  0.43981837981E+02  0.00000000000E+00 0.  1.
         -2    1    1    2    0  502 -0.31112508281E+01 -0.34571350863E+02  0.22088523583E+02  0.41143177518E+02  0.00000000000E+00 0. -1.
</event>
<event>
 4    1  0.1727273E+004  0.3154852E+02  0.7546771E-02  0.1406601E+00
         21   -1    0    0  501  502  0.00000000000E+00  0.00000000000E+00  0.55721606403E+02  0.55721606403E+02  0.00000000000E+00 0.  1.
         21   -1    0    0  502  503 -0.00000000000E+00 -0.00000000000E+00 -0.17935406396E+02  0.17935406396E+02  0.00000000000E+00 0. -1.
          2    1    1    2  501    0  0.30952131233E+02 -0.61052829825E+01  0.16539749821E+02  0.35621232885E+02  0.00000000000E+00 0.  1.
         -2    1    1    2    0  503 -0.30952131233E+02  0.61052829825E+01  0.21246450186E+02  0.38035779914E+02  0.00000000000E+00 0. -1.
</event>
<event>
 4    1  0.1727273E+004  0.2349583E+02  0.7546771E-02  0.1486364E+00
         21   -1    0    0  503  502  0.00000000000E+00  0.00000000000E+00  0.48924056016E+02  0.48924056016E+02  0.00000000000E+00 0. -1.
         21   -1    0    0  501  503 -0.00000000000E+00 -0.00000000000E+00 -0.16736301332E+02  0.16736301332E+02  0.00000000000E+00 0.  1.
          2    1    1    2  501    0 -0.82023746575E+01  0.22017604749E+02 -0.26447443769E+01  0.23644207361E+02  0.00000000000E+00 0.  1.
         -2    1    1    2    0  502  0.82023746575E+01 -0.22017604749E+02  0.34832499061E+02  0.42016149987E+02  0.00000000000E+00 0. -1.
</event>
<event>
 4    1  0.1727273E+004  0.2055805E+02  0.7546771E-02  0.1525669E+00
         21   -1    0    0  501  502  0.00000000000E+00  0.00000000000E+00  0.12486001850E+02  0.12486001850E+02  0.00000000000E+00 0. -1.
         21   -1    0    0  502  503 -0.00000000000E+00 -0.00000000000E+00 -0.42806310399E+02  0.42806310399E+02  0.00000000000E+00 0.  1.
          2    1    1    2  501    0 -0.12454582446E+02  0.16355934855E+02 -0.25133660232E+01  0.20711113868E+02  0.00000000000E+00 0.  1.
         -2    1    1    2    0  503  0.12454582446E+02 -0.16355934855E+02 -0.27806942525E+02  0.34581198381E+02  0.00000000000E+00 0. -1.
</event>
<event>
 4    1  0.1727273E+004  0.2547921E+02  0.7546771E-02  0.1463513E+00
         21   -1    0    0  501  502  0.00000000000E+00  0.00000000000E+00  0.33559275717E+03  0.33559275717E+03  0.00000000000E+00 0. -1.
         21   -1    0    0  502  503 -0.00000000000E+00 -0.00000000000E+00 -0.19593594169E+01  0.19593594169E+01  0.00000000000E+00 0.  1.
          2    1    1    2  501    0 -0.15487480450E+02  0.20231862886E+02  0.18584323670E+03  0.18758171273E+03  0.00000000000E+00 0. -1.
         -2    1    1    2    0  503  0.15487480450E+02 -0.20231862886E+02  0.14779016106E+03  0.14997040385E+03  0.00000000000E+00 0.  1.
</event>
<event>
 4    1  0.1727273E+004  0.2324860E+02  0.7546771E-02  0.1489400E+00
         21   -1    0    0  503  502  0.00000000000E+00  0.00000000000E+00  0.77850016093E+00  0.77850016093E+00  0.00000000000E+00 0.  1.
         21   -1    0    0  501  503 -0.00000000000E+00 -0.00000000000E+00 -0.69666140669E+03  0.69666140669E+03  0.00000000000E+00 0. -1.
          2    1    1    2  501    0 -0.55748142546E+01 -0.22570312270E+02 -0.36832731297E+03  0.36906030270E+03  0.00000000000E+00 0.  1.
         -2    1    1    2    0  502  0.55748142546E+01  0.22570312270E+02 -0.32755559356E+03  0.32837960415E+03  0.00000000000E+00 0. -1.
</event>
<event>
 4    1  0.1727273E+004  0.2399933E+02  0.7546771E-02  0.1480317E+00
         21   -1    0    0  503  502  0.00000000000E+00  0.00000000000E+00  0.91979017054E+01  0.91979017054E+01  0.00000000000E+00 0.  1.
         21   -1    0    0  501  503 -0.00000000000E+00 -0.00000000000E+00 -0.73803356347E+02  0.73803356347E+02  0.00000000000E+00 0. -1.
          2    1    1    2  501    0  0.23079572162E+02  0.65803770873E+01 -0.48457929456E+02  0.54075308052E+02  0.00000000000E+00 0. -1.
         -2    1    1    2    0  502 -0.23079572162E+02 -0.65803770873E+01 -0.16147525186E+02  0.28925950000E+02  0.00000000000E+00 0.  1.
</event>
<event>
 4    1  0.1727273E+004  0.2156914E+02  0.7546771E-02  0.1511292E+00
         21   -1    0    0  501  502  0.00000000000E+00  0.00000000000E+00  0.18361889573E+01  0.18361889573E+01  0.00000000000E+00 0. -1.
         21   -1    0    0  502  503 -0.00000000000E+00 -0.00000000000E+00 -0.86274069781E+03  0.86274069781E+03  0.00000000000E+00 0.  1.
          2    1    1    2  501    0 -0.16034291131E+02  0.14426684110E+02 -0.67143619790E+02  0.70522998979E+02  0.00000000000E+00 0. -1.
         -2    1    1    2    0  503  0.16034291131E+02 -0.14426684110E+02 -0.79376088906E+03  0.79405388778E+03  0.00000000000E+00 0.  1.
</event>
<event>
 4    1  0.1727273E+004  0.2170720E+02  0.7546771E-02  0.1509403E+00
         21   -1    0    0  501  502  0.00000000000E+00  0.00000000000E+00  0.65142630735E+00  0.65142630735E+00  0.00000000000E+00 0.  1.
         21   -1    0    0  502  503 -0.00000000000E+00 -0.00000000000E+00 -0.78522107811E+03  0.78522107811E+03  0.00000000000E+00 0. -1.
          2    1    1    2  501    0  0.21520612075E+02  0.28400213902E+01 -0.28197699359E+03  0.28281129288E+03  0.00000000000E+00 0. -1.
         -2    1    1    2    0  503 -0.21520612075E+02 -0.28400213902E+01 -0.50259265821E+03  0.50306121154E+03  0.00000000000E+00 0.  1.
</event>
<event>
 4    1  0.1727273E+004  0.2187545E+02  0.7546771E-02  0.1507123E+00
         21   -1    0    0  501  502  0.00000000000E+00  0.00000000000E+00  0.10607543688E+03  0.10607543688E+03  0.00000000000E+00 0. -1.
         21   -1    0    0  502  503 -0.00000000000E+00 -0.00000000000E+00 -0.16241081538E+02  0.16241081538E+02  0.00000000000E+00 0.  1.
          2    1    1    2  501    0 -0.20995029886E+02  0.61436285053E+01  0.96892006684E+02  0.99330742524E+02  0.00000000000E+00 0. -1.
         -2    1    1    2    0  503  0.20995029886E+02 -0.61436285053E+01 -0.70576513398E+01  0.22985775896E+02  0.00000000000E+00 0.  1.
</event>
<event>
 4    1  0.1727273E+004  0.3345901E+02  0.7546771E-02  0.1391733E+00
         21   -1    0    0  503  502  0.00000000000E+00  0.00000000000E+00  0.15709858773E+03  0.15709858773E+03  0.00000000000E+00 0. -1.
         21   -1    0    0  501  503 -0.00000000000E+00 -0.00000000000E+00 -0.30769453961E+02  0.30769453961E+02  0.00000000000E+00 0.  1.
          2    1    1    2  501    0  0.31662595051E+02  0.10815967364E+02 -0.19176649394E+02  0.38564866878E+02  0.00000000000E+00 0.  1.
         -2    1    1    2    0  502 -0.31662595051E+02 -0.10815967364E+02  0.14550578316E+03  0.14930317481E+03  0.00000000000E+00 0. -1.
</event>
<event>
 4    1  0.1727273E+004  0.2319241E+02  0.7546771E-02  0.1490096E+00
         21   -1    0    0  501  502  0.00000000000E+00  0.00000000000E+00  0.34019640057E+01  0.34019640057E+01  0.00000000000E+00 0.  1.
         21   -1    0    0  502  503 -0.00000000000E+00 -0.00000000000E+00 -0.15814137195E+03  0.15814137195E+03  0.00000000000E+00 0. -1.
          2    1    1    2  501    0  0.23135179856E+02  0.16283398495E+01 -0.76250914995E+02  0.79700000472E+02  0.00000000000E+00 0.  1.
         -2    1    1    2    0  503 -0.23135179856E+02 -0.16283398495E+01 -0.78488492949E+02  0.81843335484E+02  0.00000000000E+00 0. -1.
</event>
<event>
 4    1  0.1727273E+004  0.2026853E+02  0.7546771E-02  0.1529970E+00
         21   -1    0    0  501  502  0.00000000000E+00  0.00000000000E+00  0.10559652634E+03  0.10559652634E+03  0.00000000000E+00 0.  1.
         21   -1    0    0  502  503 -0.00000000000E+00 -0.00000000000E+00 -0.42198509067E+01  0.42198509067E+01  0.00000000000E+00 0. -1.
          2    1    1    2  501    0 -0.19630080822E+02  0.50471068364E+01  0.66030266299E+02  0.69071046235E+02  0.00000000000E+00 0. -1.
         -2    1    1    2    0  503  0.19630080822E+02 -0.50471068364E+01  0.35346409130E+02  0.40745331008E+02  0.00000000000E+00 0.  1.
</event>
<event>
 4    1  0.1727273E+004  0.4315024E+02  0.7546771E-02  0.1330953E+00
         21   -1    0    0  501  502  0.00000000000E+00  0.00000000000E+00  0.42760694717E+01  0.42760694717E+01  0.00000000000E+00 0. -1.
         21   -1    0    0  502  503 -0.00000000000E+00 -0.00000000000E+00 -0.10152083765E+04  0.10152083765E+04  0.00000000000E+00 0.  1.
          2    1    1    2  501    0 -0.29933316283E+02 -0.31079576965E+02 -0.12025155202E+03  0.12775906735E+03  0.00000000000E+00 0.  1.
         -2    1    1    2    0  503  0.29933316283E+02  0.31079576965E+02 -0.89068075502E+03  0.89172537863E+03  0.00000000000E+00 0. -1.
</event>
<event>
 4    1  0.1727273E+004  0.3590277E+02  0.7546771E-02  0.1374325E+00
         21   -1    0    0  501  502  0.00000000000E+00  0.00000000000E+00  0.69358902899E+02  0.69358902899E+02  0.00000000000E+00 0. -1.
         21   -1    0    0  502  503 -0.00000000000E+00 -0.00000000000E+00 -0.47760599569E+02  0.47760599569E+02  0.00000000000E+00 0.  1.
          2    1    1    2  501    0 -0.22711647410E+02 -0.27806294782E+02  0.56568744613E+02  0.67000237497E+02  0.00000000000E+00 0. -1.
         -2    1    1    2    0  503  0.22711647410E+02  0.27806294782E+02 -0.34970441284E+02  0.50119264970E+02  0.00000000000E+00 0.  1.
</event>
<event>
 4    1  0.1727273E+004  0.2420964E+02  0.7546771E-02  0.1477843E+00
         21   -1    0    0  503  502  0.00000000000E+00  0.00000000000E+00  0.20018123831E+02  0.20018123831E+02  0.00000000000E+00 0. -1.
         21   -1    0    0  501  503 -0.00000000000E+00 -0.00000000000E+00 -0.12081099910E+03  0.12081099910E+03  0.00000000000E+00 0.  1.
          2    1    1    2  501    0 -0.82966747723E+01  0.22743612350E+02 -0.11168736335E+03  0.11428111763E+03  0.00000000000E+00 0.  1.
         -2    1    1    2    0  502  0.82966747723E+01 -0.22743612350E+02  0.10894488079E+02  0.26548005302E+02  0.00000000000E+00 0. -1.
</event>
<event>
 4    1  0.1727273E+004  0.3197575E+02  0.7546771E-02  0.1403170E+00
         21   -1    0    0  503  502  0.00000000000E+00  0.00000000000E+00  0.17341519988E+02  0.17341519988E+02  0.00000000000E+00 0.  1.
         21   -1    0    0  501  503 -0.00000000000E+00 -0.00000000000E+00 -0.66554326079E+02  0.66554326079E+02  0.00000000000E+00 0. -1.
          2    1    1    2  501    0  0.10989370983E+02 -0.30028021134E+02 -0.10436084343E+02  0.33635698064E+02  0.00000000000E+00 0.  1.
         -2    1    1    2    0  502 -0.10989370983E+02  0.30028021134E+02 -0.38776721747E+02  0.50260148003E+02  0.00000000000E+00 0. -1.
</event>
<event>
 4    1  0.1727273E+004  0.7248050E+02  0.7546771E-02  0.1222470E+00
         21   -1    0    0  501  502  0.00000000000E+00  0.00000000000E+00  0.59171490595E+03  0.59171490595E+03  0.00000000000E+00 0. -1.
         21   -1    0    0  502  503 -0.00000000000E+00 -0.00000000000E+00 -0.88899376787E+01  0.88899376787E+01  0.00000000000E+00 0.  1.
          2    1    1    2  501    0 -0.69532120174E+02  0.20462348109E+02  0.30227703717E+03  0.31084534840E+03  0.00000000000E+00 0. -1.
         -2    1    1    2    0  503  0.69532120174E+02 -0.20462348109E+02  0.28054793111E+03  0.28975949523E+03  0.00000000000E+00 0.  1.
</event>
<event>
 4    1  0.1727273E+004  0.3377595E+02  0.7546771E-02  0.1389379E+00
         21   -1    0    0  501  502  0.00000000000E+00  0.00000000000E+00  0.11817506388E+02  0.11817506388E+02  0.00000000000E+00 0. -1.
         21   -1    0    0  502  503 -0.00000000000E+00 -0.00000000000E+00 -0.18520453807E+03  0.18520453807E+03  0.00000000000E+00 0.  1.
          2    1    1    2  501    0  0.91524378518E+01 -0.32512273412E+02 -0.15485573747E+03  0.15849641784E+03  0.00000000000E+00 0.  1.
         -2    1    1    2    0  503 -0.91524378518E+01  0.32512273412E+02 -0.18531294212E+02  0.38525626617E+02  0.00000000000E+00 0. -1.
</event>
<event>
 4    1  0.1727273E+004  0.2011709E+02  0.7546771E-02  0.1532253E+00
         21   -1    0    0  501  502  0.00000000000E+00  0.00000000000E+00  0.88176698938E+01  0.88176698938E+01  0.00000000000E+00 0. -1.
         21   -1    0    0  502  503 -0.00000000000E+00 -0.00000000000E+00 -0.16659356088E+03  0.16659356088E+03  0.00000000000E+00 0.  1.
          2    1    1    2  501    0  0.14192091277E+02  0.14257688040E+02 -0.42349451640E+01  0.20558012638E+02  0.00000000000E+00 0. -1.
         -2    1    1    2    0  503 -0.14192091277E+02 -0.14257688040E+02 -0.15354094582E+03  0.15485321813E+03  0.00000000000E+00 0.  1.
</event>
<event>
 4    1  0.1727273E+004  0.2080966E+02  0.7546771E-02  0.1522000E+00
         21   -1    0    0  501  502  0.00000000000E+00  0.00000000000E+00  0.51045476800E+01  0.51045476800E+01  0.00000000000E+00 0. -1.
         21   -1    0    0  502  503 -0.00000000000E+00 -0.00000000000E+00 -0.10465073681E+03  0.10465073681E+03  0.00000000000E+00 0.  1.
          2    1    1    2  501    0  0.19477151781E+02 -0.73268397392E+01 -0.73653093713E+02  0.76536398109E+02  0.00000000000E+00 0.  1.
         -2    1    1    2    0  503 -0.19477151781E+02  0.73268397392E+01 -0.25893095416E+02  0.33218886379E+02  0.00000000000E+00 0. -1.
</event>
<event>
 4    1  0.1727273E+004  0.3765965E+02  0.7546771E-02  0.1362774E+00
         21   -1    0    0  501  502  0.00000000000E+00  0.00000000000E+00  0.68757089646E+03  0.68757089646E+03  0.00000000000E+00 0.  1.
         21   -1    0    0  502  503 -0.00000000000E+00 -0.00000000000E+00 -0.22412278089E+01  0.22412278089E+01  0.00000000000E+00 0. -1.
          2    1    1    2  501    0 -0.10167213224E+02  0.36261230518E+02  0.24531912318E+03  0.24819291139E+03  0.00000000000E+00 0. -1.
         -2    1    1    2    0  503  0.10167213224E+02 -0.36261230518E+02  0.44001054547E+03  0.44161921289E+03  0.00000000000E+00 0.  1.
</event>
<event>
 4    1  0.1727273E+004  0.2695271E+02  0.7546771E-02  0.1448084E+00
         21   -1    0    0  501  502  0.00000000000E+00  0.00000000000E+00  0.11628075996E+03  0.11628075996E+03  0.00000000000E+00 0.  1.
         21   -1    0    0  502  503 -0.00000000000E+00 -0.00000000000E+00 -0.19008866193E+02  0.19008866193E+02  0.00000000000E+00 0. -1.
          2    1    1    2  501    0  0.26147524482E+02 -0.65387840453E+01  0.10406114075E+03  0.10749497545E+03  0.00000000000E+00 0.  1.
         -2    1    1    2    0  503 -0.26147524482E+02  0.65387840453E+01 -0.67892469776E+01  0.27794650705E+02  0.00000000000E+00 0. -1.
</event>
<event>
 4    1  0.1727273E+004  0.2234689E+02  0.7546771E-02  0.1500866E+00
         21   -1    0    0  501  502  0.00000000000E+00  0.00000000000E+00  0.31670188059E+03  0.31670188059E+03  0.00000000000E+00 0.  1.
         21   -1    0    0  502  503 -0.00000000000E+00 -0.00000000000E+00 -0.60294087380E+01  0.60294087380E+01  0.00000000000E+00 0. -1.
          2    1    1    2  501    0 -0.13998650991E+02  0.17418996391E+02  0.29400534589E+03  0.29485339930E+03  0.00000000000E+00 0.  1.
         -2    1    1    2    0  503  0.13998650991E+02 -0.17418996391E+02  0.16667125964E+02  0.27877890034E+02  0.00000000000E+00 0. -1.
</event>
<event>
 4    1  0.1727273E+004  0.2058792E+02  0.7546771E-02  0.1525230E+00
         21   -1    0    0  503  502  0.00000000000E+00  0.00000000000E+00  0.23961041988E+02  0.23961041988E+02  0.00000000000E+00 0.  1.
         21   -1    0    0  501  503 -0.00000000000E+00 -0.00000000000E+00 -0.20265901337E+02  0.20265901337E+02  0.00000000000E+00 0. -1.
          2    1    1    2  501    0 -0.16731246786E+02 -0.11996987218E+02 -0.60368273705E+01  0.21454733883E+02  0.00000000000E+00 0. -1.
         -2    1    1    2    0  502  0.16731246786E+02  0.11996987218E+02  0.97319680210E+01  0.22772209442E+02  0.00000000000E+00 0.  1.
</event>
<event>
 4    1  0.1727273E+004  0.2133312E+02  0.7546771E-02  0.1514562E+00
         21   -1    0    0  501  502  0.00000000000E+00  0.00000000000E+00  0.34922758016E+03  0.34922758016E+03  0.00000000000E+00 0. -1.
         21   -1    0    0  502  503 -0.00000000000E+00 -0.00000000000E+00 -0.13376354027E+01  0.13376354027E+01  0.00000000000E+00 0.  1.
          2    1    1    2  501    0  0.11534523295E+01 -0.21301911932E+02  0.14580784917E+03  0.14736020760E+03  0.00000000000E+00 0.  1.
         -2    1    1    2    0  503 -0.11534523295E+01  0.21301911932E+02  0.20208209558E+03  0.20320500796E+03  0.00000000000E+00 0. -1.
</event>
<event>
 4    1  0.1727273E+004  0.2420062E+02  0.7546771E-02  0.1477948E+00
         21   -1    0    0  501  502  0.00000000000E+00  0.00000000000E+00  0.84009691630E+02  0.84009691630E+02  0.00000000000E+00 0.  1.
         21   -1    0    0  502  503 -0.00000000000E+00 -0.00000000000E+00 -0.27768960210E+02  0.27768960210E+02  0.00000000000E+00 0. -1.
          2    1    1    2  501    0  0.23275344109E+02 -0.66278337073E+01  0.76487981350E+02  0.80225190021E+02  0.00000000000E+00 0.  1.
         -2    1    1    2    0  503 -0.23275344109E+02  0.66278337073E+01 -0.20247249929E+02  0.31553461819E+02  0.00000000000E+00 0. -1.
</event>
<event>
 4    1  0.1727273E+004  0.3460377E+02  0.7546771E-02  0.1383370E+00
         21   -1    0    0  503  502  0.00000000000E+00  0.00000000000E+00  0.30089786900E+02  0.30089786900E+02  0.00000000000E+00 0.  1.
         21   -1    0    0  501  503 -0.00000000000E+00 -0.00000000000E+00 -0.44069055552E+02  0.44069055552E+02  0.00000000000E+00 0. -1.
          2    1    1    2  501    0  0.30822279254E+02  0.15729203638E+02 -0.18537190422E+02  0.39256186445E+02  0.00000000000E+00 0.  1.
         -2    1    1    2    0  502 -0.30822279254E+02 -0.15729203638E+02  0.45579217697E+01  0.34902656007E+02  0.00000000000E+00 0. -1.
</event>
<event>
 4    1  0.1727273E+004  0.2074216E+02  0.7546771E-02  0.1522978E+00
         21   -1    0    0  503  502  0.00000000000E+00  0.00000000000E+00  0.40830270489E+02  0.40830270489E+02  0.00000000000E+00 0.  1.
         21   -1    0    0  501  503 -0.00000000000E+00 -0.00000000000E+00 -0.17941867233E+02  0.17941867233E+02  0.00000000000E+00 0. -1.
          2    1    1    2  501    0 -0.16928500008E+02  0.11985945184E+02 -0.74339840346E+01  0.22034089795E+02  0.00000000000E+00 0. -1.
         -2    1    1    2    0  502  0.16928500008E+02 -0.11985945184E+02  0.30322387291E+02  0.36738047927E+02  0.00000000000E+00 0.  1.
</event>
<event>
 4    1  0.1727273E+004  0.2545075E+02  0.7546771E-02  0.1463823E+00
         21   -1    0    0  503  502  0.00000000000E+00  0.00000000000E+00  0.73496894308E+02  0.73496894308E+02  0.00000000000E+00 0.  1.
         21   -1    0    0  501  503 -0.00000000000E+00 -0.00000000000E+00 -0.22403942422E+02  0.22403942422E+02  0.00000000000E+00 0. -1.
          2    1    1    2  501    0  0.43098472373E+01 -0.25083182209E+02 -0.11800221717E+02  0.28053271565E+02  0.00000000000E+00 0. -1.
         -2    1    1    2    0  502 -0.43098472373E+01  0.25083182209E+02  0.62893173603E+02  0.67847565165E+02  0.00000000000E+00 0.  1.
</event>
<event>
 4    1  0.1727273E+004  0.3984379E+02  0.7546771E-02  0.1349404E+00
         21   -1    0    0  501  502  0.00000000000E+00  0.00000000000E+00  0.16854039777E+03  0.16854039777E+03  0.00000000000E+00 0. -1.
         21   -1    0    0  502  503 -0.00000000000E+00 -0.00000000000E+00 -0.22598374142E+02  0.22598374142E+02  0.00000000000E+00 0.  1.
          2    1    1    2  501    0  0.20780177531E+02  0.33995764575E+02  0.14595424794E+03  0.15129497770E+03  0.00000000000E+00 0. -1.
         -2    1    1    2    0  503 -0.20780177531E+02 -0.33995764575E+02 -0.12224313167E-01  0.39843794205E+02  0.00000000000E+00 0.  1.
</event>
<event>
 4    1  0.1727273E+004  0.2086011E+02  0.7546771E-02  0.1521272E+00
         21   -1    0    0  503  502  0.00000000000E+00  0.00000000000E+00  0.15022443514E+03  0.15022443514E+03  0.00000000000E+00 0. -1.
         21   -1    0    0  501  503 -0.00000000000E+00 -0.00000000000E+00 -0.30513127927E+01  0.30513127927E+01  0.00000000000E+00 0.  1.
          2    1    1    2  501    0 -0.18734717877E+02  0.91735718771E+01  0.90842001418E+02  0.93206294297E+02  0.00000000000E+00 0.  1.
         -2    1    1    2    0  502  0.18734717877E+02 -0.91735718771E+01  0.56331120925E+02  0.60069453632E+02  0.00000000000E+00 0. -1.
</event>
<event>
 4    1  0.1727273E+004  0.2193563E+02  0.7546771E-02  0.1506314E+00
         21   -1    0    0  503  502  0.00000000000E+00  0.00000000000E+00  0.19571838768E+04  0.19571838768E+04  0.00000000000E+00 0. -1.
         21   -1    0    0  501  503 -0.00000000000E+00 -0.00000000000E+00 -0.24590687433E+00  0.24590687433E+00  0.00000000000E+00 0.  1.
          2    1    1    2  501    0  0.13502912705E+02  0.17287082342E+02  0.96346555391E+03  0.96371523047E+03  0.00000000000E+00 0. -1.
         -2    1    1    2    0  502 -0.13502912705E+02 -0.17287082342E+02  0.99347241603E+03  0.99371455322E+03  0.00000000000E+00 0.  1.
</event>
<event>
 4    1  0.1727273E+004  0.2075376E+02  0.7546771E-02  0.1522810E+00
         21   -1    0    0  501  502  0.00000000000E+00  0.00000000000E+00  0.79502497580E+01  0.79502497580E+01  0.00000000000E+00 0.  1.
         21   -1    0    0  502  503 -0.00000000000E+00 -0.00000000000E+00 -0.57930535019E+02  0.57930535019E+02  0.00000000000E+00 0. -1.
          2    1    1    2  501    0 -0.71726657465E+01 -0.19474892905E+02 -0.16604999731E+02  0.26579025634E+02  0.00000000000E+00 0.  1.
         -2    1    1    2    0  503  0.71726657465E+01  0.19474892905E+02 -0.33375285530E+02  0.39301759144E+02  0.00000000000E+00 0. -1.
</event>
<event>
 4    1  0.1727273E+004  0.2133166E+02  0.7546771E-02  0.1514582E+00
         21   -1    0    0  501  502  0.00000000000E+00  0.00000000000E+00  0.42429000784E+01  0.42429000784E+01  0.00000000000E+00 0.  1.
         21   -1    0    0  502  503 -0.00000000000E+00 -0.00000000000E+00 -0.27281329955E+03  0.27281329955E+03  0.00000000000E+00 0. -1.
          2    1    1    2  501    0  0.39618110260E+00 -0.21327982194E+02 -0.26368011371E+02  0.33916246956E+02  0.00000000000E+00 0.  1.
         -2    1    1    2    0  503 -0.39618110260E+00  0.21327982194E+02 -0.24220238810E+03  0.24313995267E+03  0.00000000000E+00 0. -1.
</event>
<event>
 4    1  0.1727273E+004  0.2119241E+02  0.7546771E-02  0.1516535E+00
         21   -1    0    0  503  502  0.00000000000E+00  0.00000000000E+00  0.12147731046E+02  0.12147731046E+02  0.00000000000E+00 0.  1.
         21   -1    0    0  501  503 -0.00000000000E+00 -0.00000000000E+00 -0.66620962556E+02  0.66620962556E+02  0.00000000000E+00 0. -1.
          2    1    1    2  501    0  0.21683425412E+01  0.21081187384E+02 -0.53510701533E+02  0.57554438139E+02  0.00000000000E+00 0. -1.
         -2    1    1    2    0  502 -0.21683425412E+01 -0.21081187384E+02 -0.96252997665E+00  0.21214255463E+02  0.00000000000E+00 0.  1.
</event>
<event>
 4    1  0.1727273E+004  0.2861802E+02  0.7546771E-02  0.1431999E+00
         21   -1    0    0  501  502  0.00000000000E+00  0.00000000000E+00  0.24901512071E+03  0.24901512071E+03  0.00000000000E+00 0.  1.
         21   -1    0    0  502  503 -0.00000000000E+00 -0.00000000000E+00 -0.45277365273E+01  0.45277365273E+01  0.00000000000E+00 0. -1.
          2    1    1    2  501    0 -0.14355618820E+02  0.24756960368E+02  0.18855449078E+03  0.19071388747E+03  0.00000000000E+00 0.  1.
         -2    1    1    2    0  503  0.14355618820E+02 -0.24756960368E+02  0.55932893402E+02  0.62828969773E+02  0.00000000000E+00 0. -1.
</event>
<event>
 4    1  0.1727273E+004  0.8582615E+02  0.7546771E-02  0.1190931E+00
         21   -1    0    0  503  502  0.00000000000E+00  0.00000000000E+00  0.13555072407E+02  0.13555072407E+02  0.00000000000E+00 0.  1.
         21   -1    0    0  501  503 -0.00000000000E+00 -0.00000000000E+00 -0.64867596605E+03  0.64867596605E+03  0.00000000000E+00 0. -1.
          2    1    1    2  501    0 -0.70483711829E+02 -0.48971158771E+02 -0.45093848949E+03  0.45903338585E+03  0.00000000000E+00 0. -1.
         -2    1    1    2    0  502  0.70483711829E+02  0.48971158771E+02 -0.18418240416E+03  0.20319765261E+03  0.00000000000E+00 0.  1.
</event>
<event>
 4    1  0.1727273E+004  0.2220408E+02  0.7546771E-02  0.1502742E+00
         21   -1    0    0  501  502  0.00000000000E+00  0.00000000000E+00  0.49628387514E+03  0.49628387514E+03  0.00000000000E+00 0.  1.
         21   -1    0    0  502  503 -0.00000000000E+00 -0.00000000000E+00 -0.18920653818E+01  0.18920653818E+01  0.00000000000E+00 0. -1.
          2    1    1    2  501    0 -0.18827020290E+02  0.11771333139E+02  0.41885924843E+03  0.41944736376E+03  0.00000000000E+00 0.  1.
         -2    1    1    2    0  503  0.18827020290E+02 -0.11771333139E+02  0.75532561335E+02  0.78728576760E+02  0.00000000000E+00 0. -1.
</event>
<event>
 4    1  0.1727273E+004  0.2636934E+02  0.7546771E-02  0.1454048E+00
         21   -1    0    0  503  502  0.00000000000E+00  0.00000000000E+00  0.82342773274E+01  0.82342773274E+01  0.00000000000E+00 0.  1.
         21   -1    0    0  501  503 -0.00000000000E+00 -0.00000000000E+00 -0.29169989241E+03  0.29169989241E+03  0.00000000000E+00 0. -1.
          2    1    1    2  501    0 -0.25653363722E+02 -0.61030543660E+01 -0.26814249690E+03  0.26943596825E+03  0.00000000000E+00 0. -1.
         -2    1    1    2    0  502  0.25653363722E+02  0.61030543660E+01 -0.15323118174E+02  0.30498201479E+02  0.00000000000E+00 0.  1.
</event>
<event>
 4    1  0.1727273E+004  0.2048190E+02  0.7546771E-02  0.1526792E+00
         21   -1    0    0  503  502  0.00000000000E+00  0.00000000000E+00  0.26039289435E+02  0.26039289435E+02  0.00000000000E+00 0.  1.
         21   -1    0    0  501  503 -0.00000000000E+00 -0.00000000000E+00 -0.27173161373E+02  0.27173161373E+02  0.00000000000E+00 0. -1.
          2    1    1    2  501    0 -0.12193018528E+02 -0.16457172648E+02 -0.17543167429E+02  0.26967961655E+02  0.00000000000E+00 0. -1.
         -2    1    1    2    0  502  0.12193018528E+02  0.16457172648E+02  0.16409295491E+02  0.26244489153E+02  0.00000000000E+00 0.  1.
</event>
<event>
 4    1  0.1727273E+004  0.2446962E+02  0.7546771E-02  0.1474825E+00
         21   -1    0    0  503  502  0.00000000000E+00  0.00000000000E+00  0.15192762838E+02  0.15192762838E+02  0.00000000000E+00 0.  1.
         21   -1    0    0  501  503 -0.00000000000E+00 -0.00000000000E+00 -0.42029835101E+02  0.42029835101E+02  0.00000000000E+00 0. -1.
          2    1    1    2  501    0 -0.22581985180E+02  0.94242340958E+01 -0.20560396469E+02  0.31960790759E+02  0.00000000000E+00 0. -1.
         -2    1    1    2    0  502  0.22581985180E+02 -0.94242340958E+01 -0.62766757940E+01  0.25261807180E+02  0.00000000000E+00 0.  1.
</event>
<event>
 4    1  0.1727273E+004  0.2169873E+02  0.7546771E-02  0.1509518E+00
         21   -1    0    0  501  502  0.00000000000E+00  0.00000000000E+00  0.54041858635E+02  0.54041858635E+02  0.00000000000E+00 0. -1.
         21   -1    0    0  502  503 -0.00000000000E+00 -0.00000000000E+00 -0.91490058822E+01  0.91490058822E+01  0.00000000000E+00 0.  1.
          2    1    1    2  501    0 -0.37020459018E+01 -0.21380593933E+02  0.29348445247E+02  0.36498851751E+02  0.00000000000E+00 0. -1.
         -2    1    1    2    0  503  0.37020459018E+01  0.21380593933E+02  0.15544407507E+02  0.26692012766E+02  0.00000000000E+00 0.  1.
</event>
<event>
 4    1  0.1727273E+004  0.2071102E+02  0.7546771E-02  0.1523431E+00
         21   -1    0    0  503  502  0.00000000000E+00  0.00000000000E+00  0.89984035513E+03  0.89984035513E+03  0.00000000000E+00 0.  1.
         21   -1    0    0  501  503 -0.00000000000E+00 -0.00000000000E+00 -0.98102882547E+00  0.98102882547E+00  0.00000000000E+00 0. -1.
          2    1    1    2  501    0 -0.18700310316E+02 -0.89019523793E+01  0.12648485393E+03  0.12816928117E+03  0.00000000000E+00 0. -1.
         -2    1    1    2    0  502  0.18700310316E+02  0.89019523793E+01  0.77237447237E+03  0.77265210278E+03  0.00000000000E+00 0.  1.
</event>
<event>
 4    1  0.1727273E+004  0.2168580E+02  0.7546771E-02  0.1509694E+00
         21   -1    0    0  503  502  0.00000000000E+00  0.00000000000E+00  0.76186747304E+03  0.76186747304E+03  0.00000000000E+00 0. -1.
         21   -1    0    0  501  503 -0.00000000000E+00 -0.00000000000E+00 -0.62280999139E+00  0.62280999139E+00  0.00000000000E+00 0.  1.
          2    1    1    2  501    0  0.16526327853E+02 -0.14041173361E+02  0.34464903287E+03  0.34533060959E+03  0.00000000000E+00 0.  1.
         -2    1    1    2    0  502 -0.16526327853E+02  0.14041173361E+02  0.41659563018E+03  0.41715967345E+03  0.00000000000E+00 0. -1.
</event>
<event>
 4    1  0.1727273E+004  0.2563706E+02  0.7546771E-02  0.1461801E+00
         21   -1    0    0  501  502  0.00000000000E+00  0.00000000000E+00  0.10622370228E+03  0.10622370228E+03  0.00000000000E+00 0. -1.
         21   -1    0    0  502  503 -0.00000000000E+00 -0.00000000000E+00 -0.64643274591E+01  0.64643274591E+01  0.00000000000E+00 0.  1.
          2    1    1    2  501    0  0.25269046953E+02 -0.43282839224E+01  0.61539552399E+02  0.66666147970E+02  0.00000000000E+00 0. -1.
         -2    1    1    2    0  503 -0.25269046953E+02  0.43282839224E+01  0.38219822421E+02  0.46021881769E+02  0.00000000000E+00 0.  1.
</event>
<event>
 4    1  0.1727273E+004  0.2594000E+02  0.7546771E-02  0.1458557E+00
         21   -1    0    0  501  502  0.00000000000E+00  0.00000000000E+00  0.73191129206E+00  0.73191129206E+00  0.00000000000E+00 0.  1.
         21   -1    0    0  502  503 -0.00000000000E+00 -0.00000000000E+00 -0.96347814631E+03  0.96347814631E+03  0.00000000000E+00 0. -1.
          2    1    1    2  501    0 -0.25322626884E+02  0.56256831609E+01 -0.37819889756E+03  0.37908744356E+03  0.00000000000E+00 0.  1.
         -2    1    1    2    0  503  0.25322626884E+02 -0.56256831609E+01 -0.58454733745E+03  0.58512261405E+03  0.00000000000E+00 0. -1.
</event>
<event>
 4    1  0.1727273E+004  0.2054913E+02  0.7546771E-02  0.1525800E+00
         21   -1    0    0  501  502  0.00000000000E+00  0.00000000000E+00  0.16860562585E+03  0.16860562585E+03  0.00000000000E+00 0.  1.
         21   -1    0    0  502  503 -0.00000000000E+00 -0.00000000000E+00 -0.33954890279E+01  0.33954890279E+01  0.00000000000E+00 0. -1.
          2    1    1    2  501    0  0.88119271013E+01  0.18563855860E+02  0.12666004060E+03  0.12831614352E+03  0.00000000000E+00 0.  1.
         -2    1    1    2    0  503 -0.88119271013E+01 -0.18563855860E+02  0.38550096225E+02  0.43684971358E+02  0.00000000000E+00 0. -1.
</event>
<event>
 4    1  0.1727273E+004  0.2021835E+02  0.7546771E-02  0.1530724E+00
         21   -1    0    0  503  502  0.00000000000E+00  0.00000000000E+00  0.10501845946E+03  0.10501845946E+03  0.00000000000E+00 0.  1.
         21   -1    0    0  501  503 -0.00000000000E+00 -0.00000000000E+00 -0.22506344825E+02  0.22506344825E+02  0.00000000000E+00 0. -1.
          2    1    1    2  501    0 -0.39742781914E+01  0.19823891779E+02 -0.16730929122E+02  0.26243200295E+02  0.00000000000E+00 0. -1.
         -2    1    1    2    0  502  0.39742781914E+01 -0.19823891779E+02  0.99243043763E+02  0.10128160399E+03  0.00000000000E+00 0.  1.
</event>
<event>
 4    1  0.1727273E+004  0.3593660E+02  0.7546771E-02  0.1374096E+00
         21   -1    0    0  503  502  0.00000000000E+00  0.00000000000E+00  0.11359731137E+02  0.11359731137E+02  0.00000000000E+00 0.  1.
         21   -1    0    0  501  503 -0.00000000000E+00 -0.00000000000E+00 -0.27053562458E+03  0.27053562458E+03  0.00000000000E+00 0. -1.
          2    1    1    2  501    0  0.13639858113E+02  0.33247461268E+02 -0.23690971006E+03  0.23961980330E+03  0.00000000000E+00 0. -1.
         -2    1    1    2    0  502 -0.13639858113E+02 -0.33247461268E+02 -0.22266183381E+02  0.42275552421E+02  0.00000000000E+00 0.  1.
</event>
<event>
 4    1  0.1727273E+004  0.2243694E+02  0.7546771E-02  0.1499692E+00
         21   -1    0    0  501  502  0.00000000000E+00  0.00000000000E+00  0.71600447226E+01  0.71600447226E+01  0.00000000000E+00 0.  1.
         21   -1    0    0  502  503 -0.00000000000E+00 -0.00000000000E+00 -0.22409314017E+03  0.22409314017E+03  0.00000000000E+00 0. -1.
          2    1    1    2  501    0 -0.18344292561E+02 -0.12919094662E+02 -0.12681190505E+02  0.25772634112E+02  0.00000000000E+00 0.  1.
         -2    1    1    2    0  503  0.18344292561E+02  0.12919094662E+02 -0.20425190494E+03  0.20548055078E+03  0.00000000000E+00 0. -1.
</event>
<event>
 4    1  0.1727273E+004  0.2095902E+02  0.7546771E-02  0.1519851E+00
         21   -1    0    0  501  502  0.00000000000E+00  0.00000000000E+00  0.10124192697E+03  0.10124192697E+03  0.00000000000E+00 0. -1.
         21   -1    0    0  502  503 -0.00000000000E+00 -0.00000000000E+00 -0.66362255740E+01  0.66362255740E+01  0.00000000000E+00 0.  1.
          2    1    1    2  501    0 -0.18880243899E+02 -0.91003862154E+01  0.79038859065E+02  0.81770544093E+02  0.00000000000E+00 0. -1.
         -2    1    1    2    0  503  0.18880243899E+02  0.91003862154E+01  0.15566842335E+02  0.26107608455E+02  0.00000000000E+00 0.  1.
</event>
<event>
 4    1  0.1727273E+004  0.3477208E+02  0.7546771E-02  0.1382173E+00
         21   -1    0    0  503  502  0.00000000000E+00  0.00000000000E+00  0.80205092834E+02  0.80205092834E+02  0.00000000000E+00 0.  1.
         21   -1    0    0  501  503 -0.00000000000E+00 -0.00000000000E+00 -0.51592022538E+02  0.51592022538E+02  0.00000000000E+00 0. -1.
          2    1    1    2  501    0  0.27020710933E+02 -0.21885575631E+02 -0.41134573610E+02  0.53862328079E+02  0.00000000000E+00 0. -1.
         -2    1    1    2    0  502 -0.27020710933E+02  0.21885575631E+02  0.69747643906E+02  0.77934787293E+02  0.00000000000E+00 0.  1.
</event>
<event>
 4    1  0.1727273E+004  0.2038046E+02  0.7546771E-02  0.1528297E+00
         21   -1    0    0  501  502  0.00000000000E+00  0.00000000000E+00  0.91328805238E+02  0.91328805238E+02  0.00000000000E+00 0. -1.
         21   -1    0    0  502  503 -0.00000000000E+00 -0.00000000000E+00 -0.49268103499E+01  0.49268103499E+01  0.00000000000E+00 0.  1.
          2    1    1    2  501    0 -0.19938731924E+02  0.42201891176E+01  0.56546239530E+02  0.60106906690E+02  0.00000000000E+00 0. -1.
         -2    1    1    2    0  503  0.19938731924E+02 -0.42201891176E+01  0.29855755358E+02  0.36148708897E+02  0.00000000000E+00 0.  1.
</event>
<event>
 4    1  0.1727273E+004  0.2460571E+02  0.7546771E-02  0.1473263E+00
         21   -1    0    0  501  502  0.00000000000E+00  0.00000000000E+00  0.44859674893E+01  0.44859674893E+01  0.00000000000E+00 0. -1.
         21   -1    0    0  502  503 -0.00000000000E+00 -0.00000000000E+00 -0.13932493294E+03  0.13932493294E+03  0.00000000000E+00 0.  1.
          2    1    1    2  501    0  0.44090161747E+01 -0.24207469363E+02 -0.54697004451E+02  0.59976689576E+02  0.00000000000E+00 0.  1.
         -2    1    1    2    0  503 -0.44090161747E+01  0.24207469363E+02 -0.80141961002E+02  0.83834210856E+02  0.00000000000E+00 0. -1.
</event>
<event>
 4    1  0.1727273E+004  0.2550006E+02  0.7546771E-02  0.1463286E+00
         21   -1    0    0  501  502  0.00000000000E+00  0.00000000000E+00  0.23930893395E+02  0.23930893395E+02  0.00000000000E+00 0.  1.
         21   -1    0    0  502  503 -0.00000000000E+00 -0.00000000000E+00 -0.99167399541E+02  0.99167399541E+02  0.00000000000E+00 0. -1.
          2    1    1    2  501    0 -0.10870895852E+02 -0.23066785614E+02  0.14824997194E+02  0.29496330568E+02  0.00000000000E+00 0.  1.
         -2    1    1    2    0  503  0.10870895852E+02  0.23066785614E+02 -0.90061503340E+02  0.93601962368E+02  0.00000000000E+00 0. -1.
</event>
<event>
 4    1  0.1727273E+004  0.2323856E+02  0.7546771E-02  0.1489524E+00
         21   -1    0    0  501  502  0.00000000000E+00  0.00000000000E+00  0.50080041223E+02  0.50080041223E+02  0.00000000000E+00 0. -1.
         21   -1    0    0  502  503 -0.00000000000E+00 -0.00000000000E+00 -0.12809117829E+02  0.12809117829E+02  0.00000000000E+00 0.  1.
          2    1    1    2  501    0 -0.22570331607E+02  0.55327220090E+01  0.31140367950E+02  0.38855545263E+02  0.00000000000E+00 0. -1.
         -2    1    1    2    0  503  0.22570331607E+02 -0.55327220090E+01  0.61305554443E+01  0.24033613788E+02  0.00000000000E+00 0.  1.
</event>
<event>
 4    1  0.1727273E+004  0.2349681E+02  0.7546771E-02  0.1486352E+00
         21   -1    0    0  503  502  0.00000000000E+00  0.00000000000E+00  0.90458349785E+01  0.90458349785E+01  0.00000000000E+00 0. -1.
         21   -1    0    0  501  503 -0.00000000000E+00 -0.00000000000E+00 -0.20647060106E+03  0.20647060106E+03  0.00000000000E+00 0.  1.
          2    1    1    2  501    0 -0.15125154980E+02 -0.17981376657E+02 -0.18915199456E+03  0.19060581645E+03  0.00000000000E+00 0.  1.
         -2    1    1    2    0  502  0.15125154980E+02  0.17981376657E+02 -0.82727715262E+01  0.24910619590E+02  0.00000000000E+00 0. -1.
</event>
<event>
 4    1  0.1727273E+004  0.2281832E+02  0.7546771E-02  0.1494792E+00
         21   -1    0    0  503  502  0.00000000000E+00  0.00000000000E+00  0.19412283467E+02  0.19412283467E+02  0.00000000000E+00 0.  1.
         21   -1    0    0  501  503 -0.00000000000E+00 -0.00000000000E+00 -0.30179156355E+02  0.30179156355E+02  0.00000000000E+00 0. -1.
          2    1    1    2  501    0  0.98972385565E+01  0.20560166047E+02 -0.13653534370E+02  0.26591253444E+02  0.00000000000E+00 0.  1.
         -2    1    1    2    0  502 -0.98972385565E+01 -0.20560166047E+02  0.28866614819E+01  0.23000186378E+02  0.00000000000E+00 0. -1.
</event>
<event>
 4    1  0.1727273E+004  0.2432097E+02  0.7546771E-02  0.1476545E+00
         21   -1    0    0  503  502  0.00000000000E+00  0.00000000000E+00  0.42247677352E+03  0.42247677352E+03  0.00000000000E+00 0. -1.
         21   -1    0    0  501  503 -0.00000000000E+00 -0.00000000000E+00 -0.14124502862E+01  0.14124502862E+01  0.00000000000E+00 0.  1.
          2    1    1    2  501    0  0.18052460220E+02  0.16297793468E+02  0.23035146564E+03  0.23163183528E+03  0.00000000000E+00 0. -1.
         -2    1    1    2    0  502 -0.18052460220E+02 -0.16297793468E+02  0.19071285759E+03  0.19225738853E+03  0.00000000000E+00 0.  1.
</event>
<event>
 4    1  0.1727273E+004  0.3336017E+02  0.7546771E-02  0.1392473E+00
         21   -1    0    0  503  502  0.00000000000E+00  0.00000000000E+00  0.60538884933E+01  0.60538884933E+01  0.00000000000E+00 0.  1.
         21   -1    0    0  501  503 -0.00000000000E+00 -0.00000000000E+00 -0.25337237476E+03  0.25337237476E+03  0.00000000000E+00 0. -1.
          2    1    1    2  501    0  0.11357122299E+02  0.31367444078E+02 -0.19161427449E+03  0.19449660913E+03  0.00000000000E+00 0. -1.
         -2    1    1    2    0  502 -0.11357122299E+02 -0.31367444078E+02 -0.55704211776E+02  0.64929654122E+02  0.00000000000E+00 0.  1.
</event>
<event>
 4    1  0.1727273E+004  0.2467507E+02  0.7546771E-02  0.1472471E+00
         21   -1    0    0  503  502  0.00000000000E+00  0.00000000000E+00  0.13014854046E+02  0.13014854046E+02  0.00000000000E+00 0.  1.
         21   -1    0    0  501  503 -0.00000000000E+00 -0.00000000000E+00 -0.50804437390E+02  0.50804437390E+02  0.00000000000E+00 0. -1.
          2    1    1    2  501    0  0.24197575048E+02  0.48307957085E+01 -0.27873683925E+02  0.37226354655E+02  0.00000000000E+00 0. -1.
         -2    1    1    2    0  502 -0.24197575048E+02 -0.48307957085E+01 -0.99158994194E+01  0.26592936782E+02  0.00000000000E+00 0.  1.
</event>
<event>
 4    1  0.1727273E+004  0.2239365E+02  0.7546771E-02  0.1500256E+00
         21   -1    0    0  501  502  0.00000000000E+00  0.00000000000E+00  0.66341922667E+02  0.66341922667E+02  0.00000000000E+00 0.  1.
         21   -1    0    0  502  503 -0.00000000000E+00 -0.00000000000E+00 -0.19085997953E+02  0.19085997953E+02  0.00000000000E+00 0. -1.
          2    1    1    2  501    0  0.18050492392E+02 -0.13253498313E+02  0.56822864422E+02  0.61076291753E+02  0.00000000000E+00 0.  1.
         -2    1    1    2    0  503 -0.18050492392E+02  0.13253498313E+02 -0.95669397083E+01  0.24351628868E+02  0.00000000000E+00 0. -1.
</event>
<event>
 4    1  0.1727273E+004  0.2274701E+02  0.7546771E-02  0.1495700E+00
         21   -1    0    0  503  502  0.00000000000E+00  0.00000000000E+00  0.30874987936E+01  0.30874987936E+01  0.00000000000E+00 0. -1.
         21   -1    0    0  501  503 -0.00000000000E+00 -0.00000000000E+00 -0.22467765887E+03  0.22467765887E+03  0.00000000000E+00 0.  1.
          2    1    1    2  501    0  0.17302305392E+02 -0.14766742531E+02 -0.16820112972E+03  0.16973227889E+03  0.00000000000E+00 0.  1.
         -2    1    1    2    0  502 -0.17302305392E+02  0.14766742531E+02 -0.53389030360E+02  0.58032878781E+02  0.00000000000E+00 0. -1.
</event>
<event>
 4    1  0.1727273E+004  0.2692935E+02  0.7546771E-02  0.1448319E+00
         21   -1    0    0  503  502  0.00000000000E+00  0.00000000000E+00  0.18626491023E+02  0.18626491023E+02  0.00000000000E+00 0. -1.
         21   -1    0    0  501  503 -0.00000000000E+00 -0.00000000000E+00 -0.79377776823E+02  0.79377776823E+02  0.00000000000E+00 0.  1.
          2    1    1    2  501    0 -0.12331622538E+02  0.23939941099E+02 -0.65353680985E+02  0.70684463020E+02  0.00000000000E+00 0.  1.
         -2    1    1    2    0  502  0.12331622538E+02 -0.23939941099E+02  0.46023951849E+01  0.27319804825E+02  0.00000000000E+00 0. -1.
</event>
<event>
 4    1  0.1727273E+004  0.3066622E+02  0.7546771E-02  0.1413894E+00
         21   -1    0    0  503  502  0.00000000000E+00  0.00000000000E+00  0.18451307980E+02  0.18451307980E+02  0.00000000000E+00 0.  1.
         21   -1    0    0  501  503 -0.00000000000E+00 -0.00000000000E+00 -0.53246963797E+02  0.53246963797E+02  0.00000000000E+00 0. -1.
          2    1    1    2  501    0  0.23100713558E+02  0.20168646705E+02 -0.99805185700E+01  0.32249465542E+02  0.00000000000E+00 0.  1.
         -2    1    1    2    0  502 -0.23100713558E+02 -0.20168646705E+02 -0.24815137247E+02  0.39448806235E+02  0.00000000000E+00 0. -1.
</event>
<event>
 4    1  0.1727273E+004  0.5361333E+02  0.7546771E-02  0.1283223E+00
         21   -1    0    0  501  502  0.00000000000E+00  0.00000000000E+00  0.18464511745E+02  0.18464511745E+02  0.00000000000E+00 0. -1.
         21   -1    0    0  502  503 -0.00000000000E+00 -0.00000000000E+00 -0.21528965135E+03  0.21528965135E+03  0.00000000000E+00 0.  1.
          2    1    1    2  501    0  0.19717548791E+02  0.49855863291E+02 -0.36907786985E+02  0.65088966615E+02  0.00000000000E+00 0. -1.
         -2    1    1    2    0  503 -0.19717548791E+02 -0.49855863291E+02 -0.15991735262E+03  0.16866519648E+03  0.00000000000E+00 0.  1.
</event>
<event>
 4    1  0.1727273E+004  0.2201326E+02  0.7546771E-02  0.1505275E+00
         21   -1    0    0  501  502  0.00000000000E+00  0.00000000000E+00  0.62806597608E+01  0.62806597608E+01  0.00000000000E+00 0.  1.
         21   -1    0    0  502  503 -0.00000000000E+00 -0.00000000000E+00 -0.54058408383E+03  0.54058408383E+03  0.00000000000E+00 0. -1.
          2    1    1    2  501    0  0.21173421811E+02  0.60224280687E+01 -0.13983012829E+02  0.26078881855E+02  0.00000000000E+00 0.  1.
         -2    1    1    2    0  503 -0.21173421811E+02 -0.60224280687E+01 -0.52032041124E+03  0.52078586174E+03  0.00000000000E+00 0. -1.
</event>
<event>
 4    1  0.1727273E+004  0.2311942E+02  0.7546771E-02  0.1491004E+00
         21   -1    0    0  503  502  0.00000000000E+00  0.00000000000E+00  0.57954347607E+03  0.57954347607E+03  0.00000000000E+00 0. -1.
         21   -1    0    0  501  503 -0.00000000000E+00 -0.00000000000E+00 -0.19997182161E+01  0.19997182161E+01  0.00000000000E+00 0.  1.
          2    1    1    2  501    0  0.19889999828E+02 -0.11785393015E+02  0.75338861769E+02  0.78806418992E+02  0.00000000000E+00 0.  1.
         -2    1    1    2    0  502 -0.19889999828E+02  0.11785393015E+02  0.50220489608E+03  0.50273677529E+03  0.00000000000E+00 0. -1.
</event>
<event>
 4    1  0.1727273E+004  0.2392082E+02  0.7546771E-02  0.1481248E+00
         21   -1    0    0  503  502  0.00000000000E+00  0.00000000000E+00  0.79699234591E+01  0.79699234591E+01  0.00000000000E+00 0. -1.
         21   -1    0    0  501  503 -0.00000000000E+00 -0.00000000000E+00 -0.73525758041E+02  0.73525758041E+02  0.00000000000E+00 0.  1.
          2    1    1    2  501    0  0.23893435203E+02  0.11443489727E+01 -0.39028526108E+02  0.45775884815E+02  0.00000000000E+00 0.  1.
         -2    1    1    2    0  502 -0.23893435203E+02 -0.11443489727E+01 -0.26527308473E+02  0.35719796685E+02  0.00000000000E+00 0. -1.
</event>
<event>
 4    1  0.1727273E+004  0.2584337E+02  0.7546771E-02  0.1459586E+00
         21   -1    0    0  501  502  0.00000000000E+00  0.00000000000E+00  0.14949663651E+02  0.14949663651E+02  0.00000000000E+00 0.  1.
         21   -1    0    0  502  503 -0.00000000000E+00 -0.00000000000E+00 -0.73067013253E+02  0.73067013253E+02  0.00000000000E+00 0. -1.
          2    1    1    2  501    0  0.21382780446E+02  0.14514004809E+02 -0.16258428189E+01  0.25894458868E+02  0.00000000000E+00 0.  1.
         -2    1    1    2    0  503 -0.21382780446E+02 -0.14514004809E+02 -0.56491506783E+02  0.62122218037E+02  0.00000000000E+00 0. -1.
</event>
<event>
 4    1  0.1727273E+004  0.3654535E+02  0.7546771E-02  0.1370013E+00
         21   -1    0    0  503  502  0.00000000000E+00  0.00000000000E+00  0.66620349570E+02  0.66620349570E+02  0.00000000000E+00 0.  1.
         21   -1    0    0  501  503 -0.00000000000E+00 -0.00000000000E+00 -0.82656838368E+02  0.82656838368E+02  0.00000000000E+00 0. -1.
          2    1    1    2  501    0 -0.36486436352E+02 -0.20742436190E+01 -0.72977954364E+02  0.81617059169E+02  0.00000000000E+00 0. -1.
         -2    1    1    2    0  502  0.36486436352E+02  0.20742436190E+01  0.56941465566E+02  0.67660128769E+02  0.00000000000E+00 0.  1.
</event>
<event>
 4    1  0.1727273E+004  0.2150740E+02  0.7546771E-02  0.1512142E+00
         21   -1    0    0  503  502  0.00000000000E+00  0.00000000000E+00  0.28835994210E+03  0.28835994210E+03  0.00000000000E+00 0.  1.
         21   -1    0    0  501  503 -0.00000000000E+00 -0.00000000000E+00 -0.13150111229E+02  0.13150111229E+02  0.00000000000E+00 0. -1.
          2    1    1    2  501    0 -0.20195473671E+02  0.73967012425E+01 -0.36561292227E+01  0.21815948912E+02  0.00000000000E+00 0. -1.
         -2    1    1    2    0  502  0.20195473671E+02 -0.73967012425E+01  0.27886596010E+03  0.27969410442E+03  0.00000000000E+00 0.  1.
</event>
<event>
 4    1  0.1727273E+004  0.3886058E+02  0.7546771E-02  0.1355295E+00
         21   -1    0    0  503  502  0.00000000000E+00  0.00000000000E+00  0.24719190258E+03  0.24719190258E+03  0.00000000000E+00 0.  1.
         21   -1    0    0  501  503 -0.00000000000E+00 -0.00000000000E+00 -0.88505727293E+01  0.88505727293E+01  0.00000000000E+00 0. -1.
          2    1    1    2  501    0  0.33620365982E+02  0.19488865476E+02  0.47921407720E+02  0.61697700153E+02  0.00000000000E+00 0. -1.
         -2    1    1    2    0  502 -0.33620365982E+02 -0.19488865476E+02  0.19041992213E+03  0.19434477516E+03  0.00000000000E+00 0.  1.
</event>
<event>
 4    1  0.1727273E+004  0.2022803E+02  0.7546771E-02  0.1530578E+00
         21   -1    0    0  503  502  0.00000000000E+00  0.00000000000E+00  0.18772974038E+02  0.18772974038E+02  0.00000000000E+00 0.  1.
         21   -1    0    0  501  503 -0.00000000000E+00 -0.00000000000E+00 -0.33679627428E+02  0.33679627428E+02  0.00000000000E+00 0. -1.
          2    1    1    2  501    0  0.15284794434E+02 -0.13249466084E+02 -0.23031993753E+02  0.30653646253E+02  0.00000000000E+00 0. -1.
         -2    1    1    2    0  502 -0.15284794434E+02  0.13249466084E+02  0.81253403621E+01  0.21798955213E+02  0.00000000000E+00 0.  1.
</event>
<event>
 4    1  0.1727273E+004  0.2879422E+02  0.7546771E-02  0.1430372E+00
         21   -1    0    0  503  502  0.00000000000E+00  0.00000000000E+00  0.12495726024E+01  0.12495726024E+01  0.00000000000E+00 0. -1.
         21   -1    0    0  501  503 -0.00000000000E+00 -0.00000000000E+00 -0.67942546426E+03  0.67942546426E+03  0.00000000000E+00 0.  1.
          2    1    1    2  501    0  0.12314528162E+02 -0.26028055737E+02 -0.39117283609E+03  0.39223117543E+03  0.00000000000E+00 0.  1.
         -2    1    1    2    0  502 -0.12314528162E+02  0.26028055737E+02 -0.28700305557E+03  0.28844386143E+03  0.00000000000E+00 0. -1.
</event>
<event>
 4    1  0.1727273E+004  0.2589787E+02  0.7546771E-02  0.1459005E+00
         21   -1    0    0  503  502  0.00000000000E+00  0.00000000000E+00  0.17522053203E+03  0.17522053203E+03  0.00000000000E+00 0. -1.
         21   -1    0    0  501  503 -0.00000000000E+00 -0.00000000000E+00 -0.12186102655E+02  0.12186102655E+02  0.00000000000E+00 0.  1.
          2    1    1    2  501    0  0.22388944326E+02  0.13016704954E+02  0.39134058254E+01  0.26191872423E+02  0.00000000000E+00 0.  1.
         -2    1    1    2    0  502 -0.22388944326E+02 -0.13016704954E+02  0.15912102355E+03  0.16121476227E+03  0.00000000000E+00 0. -1.
</event>
<event>
 4    1  0.1727273E+004  0.2250631E+02  0.7546771E-02  0.1498792E+00
         21   -1    0    0  501  502  0.00000000000E+00  0.00000000000E+00  0.27102286451E+01  0.27102286451E+01  0.00000000000E+00 0.  1.
         21   -1    0    0  502  503 -0.00000000000E+00 -0.00000000000E+00 -0.37199359668E+03  0.37199359668E+03  0.00000000000E+00 0. -1.
          2    1    1    2  501    0  0.32857871626E+01  0.22265168111E+02 -0.52484919653E+02  0.57106925143E+02  0.00000000000E+00 0.  1.
         -2    1    1    2    0  503 -0.32857871626E+01 -0.22265168111E+02 -0.31679844838E+03  0.31759690018E+03  0.00000000000E+00 0. -1.
</event>
<event>
 4    1  0.1727273E+004  0.2077856E+02  0.7546771E-02  0.1522450E+00
         21   -1    0    0  503  502  0.00000000000E+00  0.00000000000E+00  0.21510568840E+02  0.21510568840E+02  0.00000000000E+00 0.  1.
         21   -1    0    0  501  503 -0.00000000000E+00 -0.00000000000E+00 -0.17297161085E+03  0.17297161085E+03  0.00000000000E+00 0. -1.
          2    1    1    2  501    0  0.18433051569E+02 -0.95901696168E+01 -0.16715581067E+03  0.16844231590E+03  0.00000000000E+00 0. -1.
         -2    1    1    2    0  502 -0.18433051569E+02  0.95901696168E+01  0.15694768656E+02  0.26039863798E+02  0.00000000000E+00 0.  1.
</event>
<event>
 4    1  0.1727273E+004  0.2296603E+02  0.7546771E-02  0.1492925E+00
         21   -1    0    0  503  502  0.00000000000E+00  0.00000000000E+00  0.20056852853E+01  0.20056852853E+01  0.00000000000E+00 0. -1.
         21   -1    0    0  501  503 -0.00000000000E+00 -0.00000000000E+00 -0.27067796780E+03  0.27067796780E+03  0.00000000000E+00 0.  1.
          2    1    1    2  501    0 -0.15392357211E+02  0.17044468007E+02 -0.15734121153E+03  0.15900847587E+03  0.00000000000E+00 0. -1.
         -2    1    1    2    0  502  0.15392357211E+02 -0.17044468007E+02 -0.11133107098E+03  0.11367517722E+03  0.00000000000E+00 0.  1.
</event>
<event>
 4    1  0.1727273E+004  0.2737942E+02  0.7546771E-02  0.1443834E+00
         21   -1    0    0  503  502  0.00000000000E+00  0.00000000000E+00  0.67127004316E+02  0.67127004316E+02  0.00000000000E+00 0. -1.
         21   -1    0    0  501  503 -0.00000000000E+00 -0.00000000000E+00 -0.16908199125E+02  0.16908199125E+02  0.00000000000E+00 0.  1.
          2    1    1    2  501    0 -0.19706774713E+02  0.19007247703E+02  0.62611684008E+00  0.27386574396E+02  0.00000000000E+00 0.  1.
         -2    1    1    2    0  502  0.19706774713E+02 -0.19007247703E+02  0.49592688351E+02  0.56648629046E+02  0.00000000000E+00 0. -1.
</event>
<event>
 4    1  0.1727273E+004  0.2664469E+02  0.7546771E-02  0.1451210E+00
         21   -1    0    0  503  502  0.00000000000E+00  0.00000000000E+00  0.15387320741E+01  0.15387320741E+01  0.00000000000E+00 0.  1.
         21   -1    0    0  501  503 -0.00000000000E+00 -0.00000000000E+00 -0.47428146081E+03  0.47428146081E+03  0.00000000000E+00 0. -1.
          2    1    1    2  501    0  0.10568430726E+02 -0.24459109337E+02 -0.27561047265E+03  0.27689541779E+03  0.00000000000E+00 0. -1.
         -2    1    1    2    0  502 -0.10568430726E+02  0.24459109337E+02 -0.19713225609E+03  0.19892477510E+03  0.00000000000E+00 0.  1.
</event>
<event>
 4    1  0.1727273E+004  0.2072510E+02  0.7546771E-02  0.1523226E+00
         21   -1    0    0  501  502  0.00000000000E+00  0.00000000000E+00  0.98567794532E+02  0.98567794532E+02  0.00000000000E+00 0.  1.
         21   -1    0    0  502  503 -0.00000000000E+00 -0.00000000000E+00 -0.13575905723E+02  0.13575905723E+02  0.00000000000E+00 0. -1.
          2    1    1    2  501    0 -0.76861359680E+01 -0.19247154776E+02  0.88700361145E+02  0.91089427051E+02  0.00000000000E+00 0.  1.
         -2    1    1    2    0  503  0.76861359680E+01  0.19247154776E+02 -0.37084723363E+01  0.21054273205E+02  0.00000000000E+00 0. -1.
</event>
<event>
 4    1  0.1727273E+004  0.2069552E+02  0.7546771E-02  0.1523657E+00
         21   -1    0    0  501  502  0.00000000000E+00  0.00000000000E+00  0.36289960306E+02  0.36289960306E+02  0.00000000000E+00 0.  1.
         21   -1    0    0  502  503 -0.00000000000E+00 -0.00000000000E+00 -0.16685095573E+02  0.16685095573E+02  0.00000000000E+00 0. -1.
          2    1    1    2  501    0 -0.15602566557E+02  0.13596485846E+02  0.24131302534E+02  0.31790317276E+02  0.00000000000E+00 0.  1.
         -2    1    1    2    0  503  0.15602566557E+02 -0.13596485846E+02 -0.45264378007E+01  0.21184738603E+02  0.00000000000E+00 0. -1.
</event>
<event>
 4    1  0.1727273E+004  0.2140552E+02  0.7546771E-02  0.1513553E+00
         21   -1    0    0  503  502  0.00000000000E+00  0.00000000000E+00  0.33371182229E+03  0.33371182229E+03  0.00000000000E+00 0. -1.
         21   -1    0    0  501  503 -0.00000000000E+00 -0.00000000000E+00 -0.19370403082E+01  0.19370403082E+01  0.00000000000E+00 0.  1.
          2    1    1    2  501    0  0.20289931643E+02  0.68201749376E+01  0.75328802959E+02  0.78311076276E+02  0.00000000000E+00 0.  1.
         -2    1    1    2    0  502 -0.20289931643E+02 -0.68201749376E+01  0.25644597902E+03  0.25733778632E+03  0.00000000000E+00 0. -1.
</event>
<event>
 4    1  0.1727273E+004  0.2021254E+02  0.7546771E-02  0.1530811E+00
         21   -1    0    0  501  502  0.00000000000E+00  0.00000000000E+00  0.21089731269E+02  0.21089731269E+02  0.00000000000E+00 0.  1.
         21   -1    0    0  502  503 -0.00000000000E+00 -0.00000000000E+00 -0.33752545944E+02  0.33752545944E+02  0.00000000000E+00 0. -1.
          2    1    1    2  501    0 -0.60771285096E+01 -0.19277329130E+02  0.11567326569E+02  0.23288408131E+02  0.00000000000E+00 0.  1.
         -2    1    1    2    0  503  0.60771285096E+01  0.19277329130E+02 -0.24230141245E+02  0.31553869082E+02  0.00000000000E+00 0. -1.
</event>
<event>
 4    1  0.1727273E+004  0.2052027E+02  0.7546771E-02  0.1526226E+00
         21   -1    0    0  503  502  0.00000000000E+00  0.00000000000E+00  0.68753979564E+01  0.68753979564E+01  0.00000000000E+00 0.  1.
         21   -1    0    0  501  503 -0.00000000000E+00 -0.00000000000E+00 -0.70159194519E+02  0.70159194519E+02  0.00000000000E+00 0. -1.
          2    1    1    2  501    0 -0.19252073014E+02  0.71020607717E+01 -0.45371635385E+02  0.49796253675E+02  0.00000000000E+00 0. -1.
         -2    1    1    2    0  502  0.19252073014E+02 -0.71020607717E+01 -0.17912161178E+02  0.27238338801E+02  0.00000000000E+00 0.  1.
</event>
<event>
 4    1  0.1727273E+004  0.3054862E+02  0.7546771E-02  0.1414888E+00
         21   -1    0    0  501  502  0.00000000000E+00  0.00000000000E+00  0.29212050670E+02  0.29212050670E+02  0.00000000000E+00 0. -1.
         21   -1    0    0  502  503 -0.00000000000E+00 -0.00000000000E+00 -0.76365320432E+02  0.76365320432E+02  0.00000000000E+00 0.  1.
          2    1    1    2  501    0  0.20765708574E+02 -0.22405441623E+02  0.16683663649E+02  0.34807514988E+02  0.00000000000E+00 0. -1.
         -2    1    1    2    0  503 -0.20765708574E+02  0.22405441623E+02 -0.63836933412E+02  0.70769856114E+02  0.00000000000E+00 0.  1.
</event>
<event>
 4    1  0.1727273E+004  0.2088108E+02  0.7546771E-02  0.1520970E+00
         21   -1    0    0  501  502  0.00000000000E+00  0.00000000000E+00  0.58238691854E+02  0.58238691854E+02  0.00000000000E+00 0. -1.
         21   -1    0    0  502  503 -0.00000000000E+00 -0.00000000000E+00 -0.15093634892E+02  0.15093634892E+02  0.00000000000E+00 0.  1.
          2    1    1    2  501    0  0.20488304953E+02 -0.40309761384E+01  0.47602370891E+02  0.51980814950E+02  0.00000000000E+00 0. -1.
         -2    1    1    2    0  503 -0.20488304953E+02  0.40309761384E+01 -0.44573139289E+01  0.21351511795E+02  0.00000000000E+00 0.  1.
</event>
<event>
 4    1  0.1727273E+004  0.2123143E+02  0.7546771E-02  0.1515986E+00
         21   -1    0    0  503  502  0.00000000000E+00  0.00000000000E+00  0.55835230053E+02  0.55835230053E+02  0.00000000000E+00 0.  1.
         21   -1    0    0  501  503 -0.00000000000E+00 -0.00000000000E+00 -0.13164539398E+02  0.13164539398E+02  0.00000000000E+00 0. -1.
          2    1    1    2  501    0 -0.51688531738E+01 -0.20592633885E+02 -0.11959417296E+00  0.21231766676E+02  0.00000000000E+00 0. -1.
         -2    1    1    2    0  502  0.51688531738E+01  0.20592633885E+02  0.42790284827E+02  0.47768002774E+02  0.00000000000E+00 0.  1.
</event>
<event>
 4    1  0.1727273E+004  0.4474532E+02  0.7546771E-02  0.1322718E+00
         21   -1    0    0  503  502  0.00000000000E+00  0.00000000000E+00  0.96288734997E+01  0.96288734997E+01  0.00000000000E+00 0.  1.
         21   -1    0    0  501  503 -0.00000000000E+00 -0.00000000000E+00 -0.22739928539E+03  0.22739928539E+03  0.00000000000E+00 0. -1.
          2    1    1    2  501    0  0.38822040673E+02 -0.22248437403E+02 -0.14356179250E+03  0.15037330905E+03  0.00000000000E+00 0. -1.
         -2    1    1    2    0  502 -0.38822040673E+02  0.22248437403E+02 -0.74208619389E+02  0.86654849838E+02  0.00000000000E+00 0.  1.
</event>
<event>
 4    1  0.1727273E+004  0.2368541E+02  0.7546771E-02  0.1484066E+00
         21   -1    0    0  503  502  0.00000000000E+00  0.00000000000E+00  0.14024386040E+02  0.14024386040E+02  0.00000000000E+00 0.  1.
         21   -1    0    0  501  503 -0.00000000000E+00 -0.00000000000E+00 -0.52543194462E+02  0.52543194462E+02  0.00000000000E+00 0. -1.
          2    1    1    2  501    0  0.23575319418E+02 -0.22810476290E+01 -0.35520496055E+02  0.42693143524E+02  0.00000000000E+00 0. -1.
         -2    1    1    2    0  502 -0.23575319418E+02  0.22810476290E+01 -0.29983123671E+01  0.23874436978E+02  0.00000000000E+00 0.  1.
</event>
<event>
 4    1  0.1727273E+004  0.2671135E+02  0.7546771E-02  0.1450529E+00
         21   -1    0    0  503  502  0.00000000000E+00  0.00000000000E+00  0.16377024499E+01  0.16377024499E+01  0.00000000000E+00 0. -1.
         21   -1    0    0  501  503 -0.00000000000E+00 -0.00000000000E+00 -0.72274943634E+03  0.72274943634E+03  0.00000000000E+00 0.  1.
          2    1    1    2  501    0 -0.23674683784E+02 -0.12369551050E+02 -0.58882570711E+03  0.58943125960E+03  0.00000000000E+00 0.  1.
         -2    1    1    2    0  502  0.23674683784E+02  0.12369551050E+02 -0.13228602678E+03  0.13495587919E+03  0.00000000000E+00 0. -1.
</event>
<event>
 4    1  0.1727273E+004  0.2395420E+02  0.7546771E-02  0.1480852E+00
         21   -1    0    0  501  502  0.00000000000E+00  0.00000000000E+00  0.22343144392E+03  0.22343144392E+03  0.00000000000E+00 0. -1.
         21   -1    0    0  502  503 -0.00000000000E+00 -0.00000000000E+00 -0.63035347885E+01  0.63035347885E+01  0.00000000000E+00 0.  1.
          2    1    1    2  501    0 -0.23853524426E+02 -0.21939164953E+01  0.19698856031E+03  0.19843965529E+03  0.00000000000E+00 0. -1.
         -2    1    1    2    0  503  0.23853524426E+02  0.21939164953E+01  0.20139348820E+02  0.31295323420E+02  0.00000000000E+00 0.  1.
</event>
<event>
 4    1  0.1727273E+004  0.4240302E+02  0.7546771E-02  0.1334952E+00
         21   -1    0    0  503  502  0.00000000000E+00  0.00000000000E+00  0.11837914637E+03  0.11837914637E+03  0.00000000000E+00 0. -1.
         21   -1    0    0  501  503 -0.00000000000E+00 -0.00000000000E+00 -0.16105086739E+02  0.16105086739E+02  0.00000000000E+00 0.  1.
          2    1    1    2  501    0 -0.41416925871E+02  0.90914314176E+01  0.35096519253E+02  0.55043451359E+02  0.00000000000E+00 0.  1.
         -2    1    1    2    0  502  0.41416925871E+02 -0.90914314176E+01  0.67177540381E+02  0.79440781753E+02  0.00000000000E+00 0. -1.
</event>
<event>
 4    1  0.1727273E+004  0.2191355E+02  0.7546771E-02  0.1506611E+00
         21   -1    0    0  503  502  0.00000000000E+00  0.00000000000E+00  0.22833585380E+03  0.22833585380E+03  0.00000000000E+00 0.  1.
         21   -1    0    0  501  503 -0.00000000000E+00 -0.00000000000E+00 -0.60626523671E+01  0.60626523671E+01  0.00000000000E+00 0. -1.
          2    1    1    2  501    0 -0.16706598898E+02  0.14180735368E+02  0.16421588082E+02  0.27383795527E+02  0.00000000000E+00 0. -1.
         -2    1    1    2    0  502  0.16706598898E+02 -0.14180735368E+02  0.20585161335E+03  0.20701471064E+03  0.00000000000E+00 0.  1.
</event>
<event>
 4    1  0.1727273E+004  0.2032588E+02  0.7546771E-02  0.1529111E+00
         21   -1    0    0  501  502  0.00000000000E+00  0.00000000000E+00  0.33288045097E+03  0.33288045097E+03  0.00000000000E+00 0. -1.
         21   -1    0    0  502  503 -0.00000000000E+00 -0.00000000000E+00 -0.30466926648E+01  0.30466926648E+01  0.00000000000E+00 0.  1.
          2    1    1    2  501    0  0.18142713998E+02 -0.91642478087E+01  0.29422010954E+03  0.29492136980E+03  0.00000000000E+00 0. -1.
         -2    1    1    2    0  503 -0.18142713998E+02  0.91642478087E+01  0.35613648762E+02  0.41005773828E+02  0.00000000000E+00 0.  1.
</event>
<event>
 4    1  0.1727273E+004  0.2014040E+02  0.7546771E-02  0.1531900E+00
         21   -1    0    0  501  502  0.00000000000E+00  0.00000000000E+00  0.83458951709E+02  0.83458951709E+02  0.00000000000E+00 0.  1.
         21   -1    0    0  502  503 -0.00000000000E+00 -0.00000000000E+00 -0.48740504338E+01  0.48740504338E+01  0.00000000000E+00 0. -1.
          2    1    1    2  501    0 -0.18291574413E+02 -0.84293554421E+01  0.36946757283E+02  0.42079669692E+02  0.00000000000E+00 0.  1.
         -2    1    1    2    0  503  0.18291574413E+02  0.84293554421E+01  0.41638143992E+02  0.46253332451E+02  0.00000000000E+00 0. -1.
</event>
<event>
 4    1  0.1727273E+004  0.2825587E+02  0.7546771E-02  0.1435385E+00
         21   -1    0    0  501  502  0.00000000000E+00  0.00000000000E+00  0.50383229135E+01  0.50383229135E+01  0.00000000000E+00 0. -1.
         21   -1    0    0  502  503 -0.00000000000E+00 -0.00000000000E+00 -0.18473004386E+03  0.18473004386E+03  0.00000000000E+00 0.  1.
          2    1    1    2  501    0 -0.22418132296E+02 -0.17199458713E+02 -0.54067505703E+02  0.61005648989E+02  0.00000000000E+00 0. -1.
         -2    1    1    2    0  503  0.22418132296E+02  0.17199458713E+02 -0.12562421525E+03  0.12876271779E+03  0.00000000000E+00 0.  1.
</event>
<event>
 4    1  0.1727273E+004  0.2300501E+02  0.7546771E-02  0.1492435E+00
         21   -1    0    0  501  502  0.00000000000E+00  0.00000000000E+00  0.54644583069E+02  0.54644583069E+02  0.00000000000E+00 0.  1.
         21   -1    0    0  502  503 -0.00000000000E+00 -0.00000000000E+00 -0.21228145635E+02  0.21228145635E+02  0.00000000000E+00 0. -1.
          2    1    1    2  501    0 -0.16252306397E+02 -0.16281684142E+02  0.44682728441E+02  0.50257108181E+02  0.00000000000E+00 0.  1.
         -2    1    1    2    0  503  0.16252306397E+02  0.16281684142E+02 -0.11266291007E+02  0.25615620523E+02  0.00000000000E+00 0. -1.
</event>
<event>
 4    1  0.1727273E+004  0.2810782E+02  0.7546771E-02  0.1436786E+00
         21   -1    0    0  503  502  0.00000000000E+00  0.00000000000E+00  0.29142522091E+02  0.29142522091E+02  0.00000000000E+00 0. -1.
         21   -1    0    0  501  503 -0.00000000000E+00 -0.00000000000E+00 -0.30670149513E+02  0.30670149513E+02  0.00000000000E+00 0.  1.
          2    1    1    2  501    0 -0.23486051345E+02 -0.15441979492E+02 -0.10953214860E+02  0.30166575115E+02  0.00000000000E+00 0.  1.
         -2    1    1    2    0  502  0.23486051345E+02  0.15441979492E+02  0.94255874386E+01  0.29646096488E+02  0.00000000000E+00 0. -1.
</event>
<event>
 4    1  0.1727273E+004  0.2077396E+02  0.7546771E-02  0.1522517E+00
         21   -1    0    0  501  502  0.00000000000E+00  0.00000000000E+00  0.11540937526E+03  0.11540937526E+03  0.00000000000E+00 0. -1.
         21   -1    0    0  502  503 -0.00000000000E+00 -0.00000000000E+00 -0.71156144809E+01  0.71156144809E+01  0.00000000000E+00 0.  1.
          2    1    1    2  501    0 -0.38270520284E+01 -0.20418400485E+02  0.96346248413E+02  0.98560423036E+02  0.00000000000E+00 0. -1.
         -2    1    1    2    0  503  0.38270520284E+01  0.20418400485E+02  0.11947512363E+02  0.23964566703E+02  0.00000000000E+00 0.  1.
</event>
<event>
 4    1  0.1727273E+004  0.2584523E+02  0.7546771E-02  0.1459566E+00
         21   -1    0    0  503  502  0.00000000000E+00  0.00000000000E+00  0.47626277223E+03  0.47626277223E+03  0.00000000000E+00 0.  1.
         21   -1    0    0  501  503 -0.00000000000E+00 -0.00000000000E+00 -0.15818368717E+01  0.15818368717E+01  0.00000000000E+00 0. -1.
          2    1    1    2  501    0  0.22509118592E+02  0.12701005289E+02  0.15690152422E+03  0.15901592454E+03  0.00000000000E+00 0.  1.
         -2    1    1    2    0  502 -0.22509118592E+02 -0.12701005289E+02  0.31777941113E+03  0.31882868456E+03  0.00000000000E+00 0. -1.
</event>
<event>
 4    1  0.1727273E+004  0.2951358E+02  0.7546771E-02  0.1423871E+00
         21   -1    0    0  503  502  0.00000000000E+00  0.00000000000E+00  0.34049569297E+03  0.34049569297E+03  0.00000000000E+00 0.  1.
         21   -1    0    0  501  503 -0.00000000000E+00 -0.00000000000E+00 -0.83979471000E+01  0.83979471000E+01  0.00000000000E+00 0. -1.
          2    1    1    2  501    0  0.26798956727E+02 -0.12363960244E+02  0.20578685062E+02  0.35979631369E+02  0.00000000000E+00 0. -1.
         -2    1    1    2    0  502 -0.26798956727E+02  0.12363960244E+02  0.31151906081E+03  0.31291400871E+03  0.00000000000E+00 0.  1.
</event>
<event>
 4    1  0.1727273E+004  0.4023593E+02  0.7546771E-02  0.1347109E+00
         21   -1    0    0  501  502  0.00000000000E+00  0.00000000000E+00  0.32723265853E+02  0.32723265853E+02  0.00000000000E+00 0. -1.
         21   -1    0    0  502  503 -0.00000000000E+00 -0.00000000000E+00 -0.13250449913E+03  0.13250449913E+03  0.00000000000E+00 0.  1.
          2    1    1    2  501    0  0.19416357533E+02 -0.35241102834E+02  0.15506438121E+02  0.43120527502E+02  0.00000000000E+00 0. -1.
         -2    1    1    2    0  503 -0.19416357533E+02  0.35241102834E+02 -0.11528767140E+03  0.12210723748E+03  0.00000000000E+00 0.  1.
</event>
<event>
 4    1  0.1727273E+004  0.2772746E+02  0.7546771E-02  0.1440434E+00
         21   -1    0    0  503  502  0.00000000000E+00  0.00000000000E+00  0.46260463588E+02  0.46260463588E+02  0.00000000000E+00 0. -1.
         21   -1    0    0  501  503 -0.00000000000E+00 -0.00000000000E+00 -0.35153521824E+02  0.35153521824E+02  0.00000000000E+00 0.  1.
          2    1    1    2  501    0 -0.23196703177E+02 -0.15189635052E+02 -0.24004383792E+02  0.36674548294E+02  0.00000000000E+00 0.  1.
         -2    1    1    2    0  502  0.23196703177E+02  0.15189635052E+02  0.35111325557E+02  0.44739437118E+02  0.00000000000E+00 0. -1.
</event>
<event>
 4    1  0.1727273E+004  0.2603546E+02  0.7546771E-02  0.1457545E+00
         21   -1    0    0  501  502  0.00000000000E+00  0.00000000000E+00  0.53432516328E+02  0.53432516328E+02  0.00000000000E+00 0.  1.
         21   -1    0    0  502  503 -0.00000000000E+00 -0.00000000000E+00 -0.66019458134E+02  0.66019458134E+02  0.00000000000E+00 0. -1.
          2    1    1    2  501    0 -0.17443377986E+02  0.19328059279E+02  0.47388345239E+02  0.54069405171E+02  0.00000000000E+00 0.  1.
         -2    1    1    2    0  503  0.17443377986E+02 -0.19328059279E+02 -0.59975287045E+02  0.65382569292E+02  0.00000000000E+00 0. -1.
</event>
<event>
 4    1  0.1727273E+004  0.2475759E+02  0.7546771E-02  0.1471534E+00
         21   -1    0    0  503  502  0.00000000000E+00  0.00000000000E+00  0.34752312616E+00  0.34752312616E+00  0.00000000000E+00 0. -1.
         21   -1    0    0  501  503 -0.00000000000E+00 -0.00000000000E+00 -0.22568535825E+04  0.22568535825E+04  0.00000000000E+00 0.  1.
          2    1    1    2  501    0  0.80864691382E+01 -0.23399732603E+02 -0.16558041439E+04  0.16559892214E+04  0.00000000000E+00 0.  1.
         -2    1    1    2    0  502 -0.80864691382E+01  0.23399732603E+02 -0.60070191542E+03  0.60121188416E+03  0.00000000000E+00 0. -1.
</event>
<event>
 4    1  0.1727273E+004  0.4045783E+02  0.7546771E-02  0.1345824E+00
         21   -1    0    0  501  502  0.00000000000E+00  0.00000000000E+00  0.69179605350E+00  0.69179605350E+00  0.00000000000E+00 0. -1.
         21   -1    0    0  502  503 -0.00000000000E+00 -0.00000000000E+00 -0.23801360327E+04  0.23801360327E+04  0.00000000000E+00 0.  1.
          2    1    1    2  501    0  0.32877726831E+02  0.23577341858E+02 -0.10982000753E+04  0.10989450584E+04  0.00000000000E+00 0. -1.
         -2    1    1    2    0  503 -0.32877726831E+02 -0.23577341858E+02 -0.12812441613E+04  0.12818827703E+04  0.00000000000E+00 0.  1.
</event>
<event>
 4    1  0.1727273E+004  0.3664954E+02  0.7546771E-02  0.1369323E+00
         21   -1    0    0  501  502  0.00000000000E+00  0.00000000000E+00  0.42804573653E+03  0.42804573653E+03  0.00000000000E+00 0.  1.
         21   -1    0    0  502  503 -0.00000000000E+00 -0.00000000000E+00 -0.34462432885E+01  0.34462432885E+01  0.00000000000E+00 0. -1.
          2    1    1    2  501    0  0.17231417958E+02 -0.32346053373E+02  0.27682759274E+03  0.27924309309E+03  0.00000000000E+00 0.  1.
         -2    1    1    2    0  503 -0.17231417958E+02  0.32346053373E+02  0.14777190051E+03  0.15224888674E+03  0.00000000000E+00 0. -1.
</event>
<event>
 4    1  0.1727273E+004  0.2595130E+02  0.7546771E-02  0.1458437E+00
         21   -1    0    0  503  502  0.00000000000E+00  0.00000000000E+00  0.43881608470E+02  0.43881608470E+02  0.00000000000E+00 0. -1.
         21   -1    0    0  501  503 -0.00000000000E+00 -0.00000000000E+00 -0.15851653562E+02  0.15851653562E+02  0.00000000000E+00 0.  1.
          2    1    1    2  501    0 -0.24491043469E+02  0.85824754079E+01  0.86882711557E+01  0.27367063233E+02  0.00000000000E+00 0.  1.
         -2    1    1    2    0  502  0.24491043469E+02 -0.85824754079E+01  0.19341683753E+02  0.32366198799E+02  0.00000000000E+00 0. -1.
</event>
<event>
 4    1  0.1727273E+004  0.2184915E+02  0.7546771E-02  0.1507478E+00
         21   -1    0    0  503  502  0.00000000000E+00  0.00000000000E+00  0.48716434867E+03  0.48716434867E+03  0.00000000000E+00 0.  1.
         21   -1    0    0  501  503 -0.00000000000E+00 -0.00000000000E+00 -0.11725858403E+01  0.11725858403E+01  0.00000000000E+00 0. -1.
          2    1    1    2  501    0  0.62482628338E+01 -0.20936680425E+02  0.14402395815E+03  0.14567184318E+03  0.00000000000E+00 0. -1.
         -2    1    1    2    0  502 -0.62482628338E+01  0.20936680425E+02  0.34196780468E+03  0.34266509133E+03  0.00000000000E+00 0.  1.
</event>
<event>
 4    1  0.1727273E+004  0.2598246E+02  0.7546771E-02  0.1458106E+00
         21   -1    0    0  501  502  0.00000000000E+00  0.00000000000E+00  0.15784613319E+03  0.15784613319E+03  0.00000000000E+00 0. -1.
         21   -1    0    0  502  503 -0.00000000000E+00 -0.00000000000E+00 -0.46978660164E+01  0.46978660164E+01  0.00000000000E+00 0.  1.
          2    1    1    2  501    0 -0.23094991309E+02 -0.11904174053E+02  0.10090332590E+03  0.10419486149E+03  0.00000000000E+00 0.  1.
         -2    1    1    2    0  503  0.23094991309E+02  0.11904174053E+02  0.52244941275E+02  0.58349137716E+02  0.00000000000E+00 0. -1.
</event>
<event>
 4    1  0.1727273E+004  0.2031746E+02  0.7546771E-02  0.1529237E+00
         21   -1    0    0  501  502  0.00000000000E+00  0.00000000000E+00  0.71401572040E+02  0.71401572040E+02  0.00000000000E+00 0.  1.
         21   -1    0    0  502  503 -0.00000000000E+00 -0.00000000000E+00 -0.12795323352E+02  0.12795323352E+02  0.00000000000E+00 0. -1.
          2    1    1    2  501    0 -0.18167322562E+02 -0.90965706999E+01  0.60472044442E+02  0.63793944592E+02  0.00000000000E+00 0.  1.
         -2    1    1    2    0  503  0.18167322562E+02  0.90965706999E+01 -0.18657957539E+01  0.20402950801E+02  0.00000000000E+00 0. -1.
</event>
<event>
 4    1  0.1727273E+004  0.2549601E+02  0.7546771E-02  0.1463330E+00
         21   -1    0    0  503  502  0.00000000000E+00  0.00000000000E+00  0.20912844071E+03  0.20912844071E+03  0.00000000000E+00 0. -1.
         21   -1    0    0  501  503 -0.00000000000E+00 -0.00000000000E+00 -0.53582726621E+01  0.53582726621E+01  0.00000000000E+00 0.  1.
          2    1    1    2  501    0 -0.18803168709E+02 -0.17218806487E+02  0.32392119677E+02  0.41222516511E+02  0.00000000000E+00 0.  1.
         -2    1    1    2    0  502  0.18803168709E+02  0.17218806487E+02  0.17137804837E+03  0.17326419686E+03  0.00000000000E+00 0. -1.
</event>
<event>
 4    1  0.1727273E+004  0.2340604E+02  0.7546771E-02  0.1487461E+00
         21   -1    0    0  503  502  0.00000000000E+00  0.00000000000E+00  0.25109333484E+02  0.25109333484E+02  0.00000000000E+00 0. -1.
         21   -1    0    0  501  503 -0.00000000000E+00 -0.00000000000E+00 -0.27217979655E+02  0.27217979655E+02  0.00000000000E+00 0.  1.
          2    1    1    2  501    0  0.20922260296E+02  0.10492945546E+02 -0.12707776300E+02  0.26633258542E+02  0.00000000000E+00 0. -1.
         -2    1    1    2    0  502 -0.20922260296E+02 -0.10492945546E+02  0.10599130129E+02  0.25694054596E+02  0.00000000000E+00 0.  1.
</event>
<event>
 4    1  0.1727273E+004  0.2006765E+02  0.7546771E-02  0.1533004E+00
         21   -1    0    0  503  502  0.00000000000E+00  0.00000000000E+00  0.10004038749E+02  0.10004038749E+02  0.00000000000E+00 0. -1.
         21   -1    0    0  501  503 -0.00000000000E+00 -0.00000000000E+00 -0.10223863336E+03  0.10223863336E+03  0.00000000000E+00 0.  1.
          2    1    1    2  501    0 -0.10042751975E+02 -0.17373936415E+02 -0.89815111667E+02  0.92029695303E+02  0.00000000000E+00 0.  1.
         -2    1    1    2    0  502  0.10042751975E+02  0.17373936415E+02 -0.24194829466E+01  0.20212976809E+02  0.00000000000E+00 0. -1.
</event>
<event>
 4    1  0.1727273E+004  0.2139792E+02  0.7546771E-02  0.1513659E+00
         21   -1    0    0  501  502  0.00000000000E+00  0.00000000000E+00  0.41812920214E+01  0.41812920214E+01  0.00000000000E+00 0.  1.
         21   -1    0    0  502  503 -0.00000000000E+00 -0.00000000000E+00 -0.30105112194E+03  0.30105112194E+03  0.00000000000E+00 0. -1.
          2    1    1    2  501    0  0.13971752132E+01 -0.21352255784E+02 -0.26699313008E+02  0.34215847801E+02  0.00000000000E+00 0.  1.
         -2    1    1    2    0  503 -0.13971752132E+01  0.21352255784E+02 -0.27017051691E+03  0.27101656616E+03  0.00000000000E+00 0. -1.
</event>
<event>
 4    1  0.1727273E+004  0.2467528E+02  0.7546771E-02  0.1472469E+00
         21   -1    0    0  503  502  0.00000000000E+00  0.00000000000E+00  0.42373472492E+02  0.42373472492E+02  0.00000000000E+00 0. -1.
         21   -1    0    0  501  503 -0.00000000000E+00 -0.00000000000E+00 -0.12243218851E+03  0.12243218851E+03  0.00000000000E+00 0.  1.
          2    1    1    2  501    0  0.45936322712E+01  0.24243924107E+02 -0.11744575953E+03  0.12000989853E+03  0.00000000000E+00 0.  1.
         -2    1    1    2    0  502 -0.45936322712E+01 -0.24243924107E+02  0.37387043508E+02  0.44795762476E+02  0.00000000000E+00 0. -1.
</event>
<event>
 4    1  0.1727273E+004  0.2291831E+02  0.7546771E-02  0.1493526E+00
         21   -1    0    0  503  502  0.00000000000E+00  0.00000000000E+00  0.14964080897E+02  0.14964080897E+02  0.00000000000E+00 0.  1.
         21   -1    0    0  501  503 -0.00000000000E+00 -0.00000000000E+00 -0.53450903204E+02  0.53450903204E+02  0.00000000000E+00 0. -1.
          2    1    1    2  501    0 -0.81795264549E+01 -0.21408978783E+02 -0.39286501966E+02  0.45482724877E+02  0.00000000000E+00 0. -1.
         -2    1    1    2    0  502  0.81795264549E+01  0.21408978783E+02  0.79967965933E+00  0.22932259224E+02  0.00000000000E+00 0.  1.
</event>
<event>
 4    1  0.1727273E+004  0.2481390E+02  0.7546771E-02  0.1470896E+00
         21   -1    0    0  503  502  0.00000000000E+00  0.00000000000E+00  0.15875216685E+03  0.15875216685E+03  0.00000000000E+00 0.  1.
         21   -1    0    0  501  503 -0.00000000000E+00 -0.00000000000E+00 -0.54837952153E+01  0.54837952153E+01  0.00000000000E+00 0. -1.
          2    1    1    2  501    0 -0.16716441416E+02  0.18338221798E+02  0.32205138738E+02  0.40655882151E+02  0.00000000000E+00 0. -1.
         -2    1    1    2    0  502  0.16716441416E+02 -0.18338221798E+02  0.12106323290E+03  0.12358007992E+03  0.00000000000E+00 0.  1.
</event>
<event>
 4    1  0.1727273E+004  0.2058712E+02  0.7546771E-02  0.1525242E+00
         21   -1    0    0  501  502  0.00000000000E+00  0.00000000000E+00  0.35630454130E+03  0.35630454130E+03  0.00000000000E+00 0. -1.
         21   -1    0    0  502  503 -0.00000000000E+00 -0.00000000000E+00 -0.27277721010E+01  0.27277721010E+01  0.00000000000E+00 0.  1.
          2    1    1    2  501    0 -0.13119401101E+02  0.15865394995E+02  0.31159587536E+03  0.31227522954E+03  0.00000000000E+00 0. -1.
         -2    1    1    2    0  503  0.13119401101E+02 -0.15865394995E+02  0.41980893843E+02  0.46757083864E+02  0.00000000000E+00 0.  1.
</event>
<event>
 4    1  0.1727273E+004  0.2552288E+02  0.7546771E-02  0.1463038E+00
         21   -1    0    0  501  502  0.00000000000E+00  0.00000000000E+00  0.12439791981E+04  0.12439791981E+04  0.00000000000E+00 0. -1.
         21   -1    0    0  502  503 -0.00000000000E+00 -0.00000000000E+00 -0.19995998632E+01  0.19995998632E+01  0.00000000000E+00 0.  1.
          2    1    1    2  501    0  0.25361037026E+02 -0.28696620178E+01  0.11562242121E+04  0.11565058779E+04  0.00000000000E+00 0. -1.
         -2    1    1    2    0  503 -0.25361037026E+02  0.28696620178E+01  0.85755386204E+02  0.89472920049E+02  0.00000000000E+00 0.  1.
</event>
<event>
 4    1  0.1727273E+004  0.3455500E+02  0.7546771E-02  0.1383719E+00
         21   -1    0    0  501  502  0.00000000000E+00  0.00000000000E+00  0.11519612291E+02  0.11519612291E+02  0.00000000000E+00 0. -1.
         21   -1    0    0  502  503 -0.00000000000E+00 -0.00000000000E+00 -0.10380254813E+03  0.10380254813E+03  0.00000000000E+00 0.  1.
          2    1    1    2  501    0  0.19549224619E+02 -0.28493438596E+02 -0.43956574791E+02  0.55912688127E+02  0.00000000000E+00 0.  1.
         -2    1    1    2    0  503 -0.19549224619E+02  0.28493438596E+02 -0.48326361049E+02  0.59409472296E+02  0.00000000000E+00 0. -1.
</event>
<event>
 4    1  0.1727273E+004  0.4419918E+02  0.7546771E-02  0.1325493E+00
         21   -1    0    0  503  502  0.00000000000E+00  0.00000000000E+00  0.24714229160E+02  0.24714229160E+02  0.00000000000E+00 0.  1.
         21   -1    0    0  501  503 -0.00000000000E+00 -0.00000000000E+00 -0.95321161693E+02  0.95321161693E+02  0.00000000000E+00 0. -1.
          2    1    1    2  501    0  0.43329358592E+02  0.87254739747E+01 -0.60103023766E+02  0.74605232242E+02  0.00000000000E+00 0.  1.
         -2    1    1    2    0  502 -0.43329358592E+02 -0.87254739747E+01 -0.10503908767E+02  0.45430158611E+02  0.00000000000E+00 0. -1.
</event>
<event>
 4    1  0.1727273E+004  0.3422201E+02  0.7546771E-02  0.1386117E+00
         21   -1    0    0  501  502  0.00000000000E+00  0.00000000000E+00  0.94708595432E+02  0.94708595432E+02  0.00000000000E+00 0.  1.
         21   -1    0    0  502  503 -0.00000000000E+00 -0.00000000000E+00 -0.19080694366E+02  0.19080694366E+02  0.00000000000E+00 0. -1.
          2    1    1    2  501    0 -0.46537761533E+01 -0.33904105783E+02  0.71565554607E+02  0.79327010707E+02  0.00000000000E+00 0.  1.
         -2    1    1    2    0  503  0.46537761533E+01  0.33904105783E+02  0.40623464586E+01  0.34462279091E+02  0.00000000000E+00 0. -1.
</event>
<event>
 4    1  0.1727273E+004  0.2691113E+02  0.7546771E-02  0.1448503E+00
         21   -1    0    0  503  502  0.00000000000E+00  0.00000000000E+00  0.13668049918E+04  0.13668049918E+04  0.00000000000E+00 0. -1.
         21   -1    0    0  501  503 -0.00000000000E+00 -0.00000000000E+00 -0.10278643964E+01  0.10278643964E+01  0.00000000000E+00 0.  1.
          2    1    1    2  501    0 -0.23431450412E+02 -0.13235405332E+02  0.20683724028E+03  0.20858056666E+03  0.00000000000E+00 0.  1.
         -2    1    1    2    0  502  0.23431450412E+02  0.13235405332E+02  0.11589398871E+04  0.11592522895E+04  0.00000000000E+00 0. -1.
</event>
<event>
 4    1  0.1727273E+004  0.2307013E+02  0.7546771E-02  0.1491619E+00
         21   -1    0    0  501  502  0.00000000000E+00  0.00000000000E+00  0.47753401286E+01  0.47753401286E+01  0.00000000000E+00 0. -1.
         21   -1    0    0  502  503 -0.00000000000E+00 -0.00000000000E+00 -0.19026933819E+03  0.19026933819E+03  0.00000000000E+00 0.  1.
          2    1    1    2  501    0 -0.22532767578E+02 -0.49502847863E+01 -0.29980923322E+02  0.37829706548E+02  0.00000000000E+00 0. -1.
         -2    1    1    2    0  503  0.22532767578E+02  0.49502847863E+01 -0.15551307474E+03  0.15721497177E+03  0.00000000000E+00 0.  1.
</event>
<event>
 4    1  0.1727273E+004  0.2987036E+02  0.7546771E-02  0.1420726E+00
         21   -1    0    0  503  502  0.00000000000E+00  0.00000000000E+00  0.72668410525E+02  0.72668410525E+02  0.00000000000E+00 0. -1.
         21   -1    0    0  501  503 -0.00000000000E+00 -0.00000000000E+00 -0.13847215608E+02  0.13847215608E+02  0.00000000000E+00 0.  1.
          2    1    1    2  501    0  0.94481621841E+01  0.28336739155E+02  0.14849485765E+02  0.33357844386E+02  0.00000000000E+00 0.  1.
         -2    1    1    2    0  502 -0.94481621841E+01 -0.28336739155E+02  0.43971709152E+02  0.53157781748E+02  0.00000000000E+00 0. -1.
</event>
<event>
 4    1  0.1727273E+004  0.3522056E+02  0.7546771E-02  0.1379019E+00
         21   -1    0    0  503  502  0.00000000000E+00  0.00000000000E+00  0.38832861357E+02  0.38832861357E+02  0.00000000000E+00 0. -1.
         21   -1    0    0  501  503 -0.00000000000E+00 -0.00000000000E+00 -0.34705090218E+02  0.34705090218E+02  0.00000000000E+00 0.  1.
          2    1    1    2  501    0  0.41174609027E+01  0.34979055438E+02 -0.83066982507E+01  0.36186862802E+02  0.00000000000E+00 0.  1.
         -2    1    1    2    0  502 -0.41174609027E+01 -0.34979055438E+02  0.12434469390E+02  0.37351088774E+02  0.00000000000E+00 0. -1.
</event>
<event>
 4    1  0.1727273E+004  0.2372178E+02  0.7546771E-02  0.1483628E+00
         21   -1    0    0  503  502  0.00000000000E+00  0.00000000000E+00  0.10712999465E+02  0.10712999465E+02  0.00000000000E+00 0.  1.
         21   -1    0    0  501  503 -0.00000000000E+00 -0.00000000000E+00 -0.62468098803E+02  0.62468098803E+02  0.00000000000E+00 0. -1.
          2    1    1    2  501    0  0.14993835728E+02  0.18382265748E+02 -0.40474252752E+02  0.46913622112E+02  0.00000000000E+00 0. -1.
         -2    1    1    2    0  502 -0.14993835728E+02 -0.18382265748E+02 -0.11280846587E+02  0.26267476155E+02  0.00000000000E+00 0.  1.
</event>
<event>
 4    1  0.1727273E+004  0.3360118E+02  0.7546771E-02  0.1390673E+00
         21   -1    0    0  501  502  0.00000000000E+00  0.00000000000E+00  0.41482191839E+02  0.41482191839E+02  0.00000000000E+00 0.  1.
         21   -1    0    0  502  503 -0.00000000000E+00 -0.00000000000E+00 -0.83348007587E+02  0.83348007587E+02  0.00000000000E+00 0. -1.
          2    1    1    2  501    0 -0.20244701698E+02  0.26817745048E+02  0.30287347990E+02  0.45236742196E+02  0.00000000000E+00 0.  1.
         -2    1    1    2    0  503  0.20244701698E+02 -0.26817745048E+02 -0.72153163738E+02  0.79593457229E+02  0.00000000000E+00 0. -1.
</event>
<event>
 4    1  0.1727273E+004  0.2835081E+02  0.7546771E-02  0.1434491E+00
         21   -1    0    0  503  502  0.00000000000E+00  0.00000000000E+00  0.42658721427E+02  0.42658721427E+02  0.00000000000E+00 0. -1.
         21   -1    0    0  501  503 -0.00000000000E+00 -0.00000000000E+00 -0.21351842368E+02  0.21351842368E+02  0.00000000000E+00 0.  1.
          2    1    1    2  501    0 -0.20495452528E+01  0.28276627431E+02 -0.31998238524E+00  0.28352613342E+02  0.00000000000E+00 0.  1.
         -2    1    1    2    0  502  0.20495452528E+01 -0.28276627431E+02  0.21626861443E+02  0.35657950453E+02  0.00000000000E+00 0. -1.
</event>
<event>
 4    1  0.1727273E+004  0.4050392E+02  0.7546771E-02  0.1345558E+00
         21   -1    0    0  503  502  0.00000000000E+00  0.00000000000E+00  0.42442611393E+02  0.42442611393E+02  0.00000000000E+00 0. -1.
         21   -1    0    0  501  503 -0.00000000000E+00 -0.00000000000E+00 -0.38931502904E+02  0.38931502904E+02  0.00000000000E+00 0.  1.
          2    1    1    2  501    0 -0.30227304440E+02 -0.26960667738E+02  0.51919906901E+01  0.40835331588E+02  0.00000000000E+00 0. -1.
         -2    1    1    2    0  502  0.30227304440E+02  0.26960667738E+02 -0.16808822017E+01  0.40538782709E+02  0.00000000000E+00 0.  1.
</event>
<event>
 4    1  0.1727273E+004  0.2421855E+02  0.7546771E-02  0.1477739E+00
         21   -1    0    0  501  502  0.00000000000E+00  0.00000000000E+00  0.75736543005E+01  0.75736543005E+01  0.00000000000E+00 0.  1.
         21   -1    0    0  502  503 -0.00000000000E+00 -0.00000000000E+00 -0.23360891865E+03  0.23360891865E+03  0.00000000000E+00 0. -1.
          2    1    1    2  501    0 -0.16415405297E+02  0.17806535783E+02 -0.14420974317E+02  0.28186925123E+02  0.00000000000E+00 0.  1.
         -2    1    1    2    0  503  0.16415405297E+02 -0.17806535783E+02 -0.21161429004E+03  0.21299564783E+03  0.00000000000E+00 0. -1.
</event>
<event>
 4    1  0.1727273E+004  0.2475917E+02  0.7546771E-02  0.1471516E+00
         21   -1    0    0  501  502  0.00000000000E+00  0.00000000000E+00  0.48952316106E+01  0.48952316106E+01  0.00000000000E+00 0. -1.
         21   -1    0    0  502  503 -0.00000000000E+00 -0.00000000000E+00 -0.15270650613E+03  0.15270650613E+03  0.00000000000E+00 0.  1.
          2    1    1    2  501    0 -0.10014401036E+02  0.22643502073E+02 -0.40478076491E+02  0.47449879775E+02  0.00000000000E+00 0. -1.
         -2    1    1    2    0  503  0.10014401036E+02 -0.22643502073E+02 -0.10733319802E+03  0.11015185796E+03  0.00000000000E+00 0.  1.
</event>
<event>
 4    1  0.1727273E+004  0.2758691E+02  0.7546771E-02  0.1441800E+00
         21   -1    0    0  503  502  0.00000000000E+00  0.00000000000E+00  0.13178988148E+02  0.13178988148E+02  0.00000000000E+00 0.  1.
         21   -1    0    0  501  503 -0.00000000000E+00 -0.00000000000E+00 -0.88131741933E+02  0.88131741933E+02  0.00000000000E+00 0. -1.
          2    1    1    2  501    0  0.22782290843E+02  0.15556503754E+02 -0.67219883567E+02  0.72660514255E+02  0.00000000000E+00 0. -1.
         -2    1    1    2    0  502 -0.22782290843E+02 -0.15556503754E+02 -0.77328702174E+01  0.28650215826E+02  0.00000000000E+00 0.  1.
</event>
<event>
 4    1  0.1727273E+004  0.3270416E+02  0.7546771E-02  0.1397464E+00
         21   -1    0    0  503  502  0.00000000000E+00  0.00000000000E+00  0.75994907788E+02  0.75994907788E+02  0.00000000000E+00 0.  1.
         21   -1    0    0  501  503 -0.00000000000E+00 -0.00000000000E+00 -0.33952040696E+02  0.33952040696E+02  0.00000000000E+00 0. -1.
          2    1    1    2  501    0  0.66009992883E+01  0.32031063353E+02 -0.21042086253E+02  0.38888707937E+02  0.00000000000E+00 0. -1.
         -2    1    1    2    0  502 -0.66009992883E+01 -0.32031063353E+02  0.63084953345E+02  0.71058240547E+02  0.00000000000E+00 0.  1.
</event>
<event>
 4    1  0.1727273E+004  0.2886943E+02  0.7546771E-02  0.1429682E+00
         21   -1    0    0  501  502  0.00000000000E+00  0.00000000000E+00  0.75993331240E+03  0.75993331240E+03  0.00000000000E+00 0. -1.
         21   -1    0    0  502  503 -0.00000000000E+00 -0.00000000000E+00 -0.24396871430E+01  0.24396871430E+01  0.00000000000E+00 0.  1.
          2    1    1    2  501    0 -0.22308013660E+02 -0.18324746562E+02  0.66156091533E+03  0.66219052281E+03  0.00000000000E+00 0. -1.
         -2    1    1    2    0  503  0.22308013660E+02  0.18324746562E+02  0.95932709932E+02  0.10018247674E+03  0.00000000000E+00 0.  1.
</event>
<event>
 4    1  0.1727273E+004  0.2362990E+02  0.7546771E-02  0.1484736E+00
         21   -1    0    0  501  502  0.00000000000E+00  0.00000000000E+00  0.53092698296E+02  0.53092698296E+02  0.00000000000E+00 0.  1.
         21   -1    0    0  502  503 -0.00000000000E+00 -0.00000000000E+00 -0.11867615162E+02  0.11867615162E+02  0.00000000000E+00 0. -1.
          2    1    1    2  501    0  0.23212544420E+02  0.44215293515E+01  0.31570095285E+02  0.39434034242E+02  0.00000000000E+00 0.  1.
         -2    1    1    2    0  503 -0.23212544420E+02 -0.44215293515E+01  0.96549878488E+01  0.25526279216E+02  0.00000000000E+00 0. -1.
</event>
<event>
 4    1  0.1727273E+004  0.2663155E+02  0.7546771E-02  0.1451345E+00
         21   -1    0    0  501  502  0.00000000000E+00  0.00000000000E+00  0.67254764709E+00  0.67254764709E+00  0.00000000000E+00 0. -1.
         21   -1    0    0  502  503 -0.00000000000E+00 -0.00000000000E+00 -0.15546393092E+04  0.15546393092E+04  0.00000000000E+00 0.  1.
          2    1    1    2  501    0 -0.24219394736E+02  0.11075224561E+02 -0.33592761237E+03  0.33698160251E+03  0.00000000000E+00 0.  1.
         -2    1    1    2    0  503  0.24219394736E+02 -0.11075224561E+02 -0.12180391492E+04  0.12183302544E+04  0.00000000000E+00 0. -1.
</event>
<event>
 4    1  0.1727273E+004  0.2913525E+02  0.7546771E-02  0.1427263E+00
         21   -1    0    0  503  502  0.00000000000E+00  0.00000000000E+00  0.15342880483E+04  0.15342880483E+04  0.00000000000E+00 0.  1.
         21   -1    0    0  501  503 -0.00000000000E+00 -0.00000000000E+00 -0.57091623045E+01  0.57091623045E+01  0.00000000000E+00 0. -1.
          2    1    1    2  501    0  0.26543426792E+02  0.12012880747E+02  0.32550763969E+02  0.43685409974E+02  0.00000000000E+00 0. -1.
         -2    1    1    2    0  502 -0.26543426792E+02 -0.12012880747E+02  0.14960281220E+04  0.14963118006E+04  0.00000000000E+00 0.  1.
</event>
<event>
 4    1  0.1727273E+004  0.2585423E+02  0.7546771E-02  0.1459470E+00
         21   -1    0    0  503  502  0.00000000000E+00  0.00000000000E+00  0.22578427465E+01  0.22578427465E+01  0.00000000000E+00 0.  1.
         21   -1    0    0  501  503 -0.00000000000E+00 -0.00000000000E+00 -0.29712076871E+03  0.29712076871E+03  0.00000000000E+00 0. -1.
          2    1    1    2  501    0  0.19804024143E+02 -0.16620517249E+02 -0.13845765814E+03  0.14085085752E+03  0.00000000000E+00 0.  1.
         -2    1    1    2    0  502 -0.19804024143E+02  0.16620517249E+02 -0.15640526783E+03  0.15852775394E+03  0.00000000000E+00 0. -1.
</event>
<event>
 4    1  0.1727273E+004  0.2127803E+02  0.7546771E-02  0.1515332E+00
         21   -1    0    0  503  502  0.00000000000E+00  0.00000000000E+00  0.12347928772E+01  0.12347928772E+01  0.00000000000E+00 0.  1.
         21   -1    0    0  501  503 -0.00000000000E+00 -0.00000000000E+00 -0.36666489342E+03  0.36666489342E+03  0.00000000000E+00 0. -1.
          2    1    1    2  501    0  0.20661141758E+02 -0.50864262181E+01 -0.18294185855E+03  0.18417512894E+03  0.00000000000E+00 0. -1.
         -2    1    1    2    0  502 -0.20661141758E+02  0.50864262181E+01 -0.18248824199E+03  0.18372455736E+03  0.00000000000E+00 0.  1.
</event>
<event>
 4    1  0.1727273E+004  0.2105650E+02  0.7546771E-02  0.1518460E+00
         21   -1    0    0  503  502  0.00000000000E+00  0.00000000000E+00  0.15662078000E+02  0.15662078000E+02  0.00000000000E+00 0.  1.
         21   -1    0    0  501  503 -0.00000000000E+00 -0.00000000000E+00 -0.31251104426E+02  0.31251104426E+02  0.00000000000E+00 0. -1.
          2    1    1    2  501    0  0.20537152097E+02 -0.46477670967E+01 -0.59724140399E+00  0.21064972170E+02  0.00000000000E+00 0.  1.
         -2    1    1    2    0  502 -0.20537152097E+02  0.46477670967E+01 -0.14991785022E+02  0.25848210255E+02  0.00000000000E+00 0. -1.
</event>
<event>
 4    1  0.1727273E+004  0.2466080E+02  0.7546771E-02  0.1472634E+00
         21   -1    0    0  501  502  0.00000000000E+00  0.00000000000E+00  0.93492581024E+01  0.93492581024E+01  0.00000000000E+00 0. -1.
         21   -1    0    0  502  503 -0.00000000000E+00 -0.00000000000E+00 -0.71209842815E+02  0.71209842815E+02  0.00000000000E+00 0.  1.
          2    1    1    2  501    0 -0.13192174202E+02  0.20835585332E+02 -0.19082080438E+02  0.31181418668E+02  0.00000000000E+00 0. -1.
         -2    1    1    2    0  503  0.13192174202E+02 -0.20835585332E+02 -0.42778504274E+02  0.49377682249E+02  0.00000000000E+00 0.  1.
</event>
<event>
 4    1  0.1727273E+004  0.2072761E+02  0.7546771E-02  0.1523190E+00
         21   -1    0    0  503  502  0.00000000000E+00  0.00000000000E+00  0.13146496407E+03  0.13146496407E+03  0.00000000000E+00 0.  1.
         21   -1    0    0  501  503 -0.00000000000E+00 -0.00000000000E+00 -0.78454267303E+01  0.78454267303E+01  0.00000000000E+00 0. -1.
          2    1    1    2  501    0 -0.12331641651E+02 -0.16660263502E+02  0.86046188949E+01  0.22442665441E+02  0.00000000000E+00 0. -1.
         -2    1    1    2    0  502  0.12331641651E+02  0.16660263502E+02  0.11501491844E+03  0.11686772536E+03  0.00000000000E+00 0.  1.
</event>
<event>
 4    1  0.1727273E+004  0.2535868E+02  0.7546771E-02  0.1464831E+00
         21   -1    0    0  501  502  0.00000000000E+00  0.00000000000E+00  0.50895483599E+02  0.50895483599E+02  0.00000000000E+00 0.  1.
         21   -1    0    0  502  503 -0.00000000000E+00 -0.00000000000E+00 -0.16934849281E+02  0.16934849281E+02  0.00000000000E+00 0. -1.
          2    1    1    2  501    0  0.11633752331E+02  0.22532613855E+02  0.34069899307E+02  0.42471412965E+02  0.00000000000E+00 0. -1.
         -2    1    1    2    0  503 -0.11633752331E+02 -0.22532613855E+02 -0.10926498817E+00  0.25358919916E+02  0.00000000000E+00 0.  1.
</event>
<event>
 4    1  0.1727273E+004  0.4696145E+02  0.7546771E-02  0.1311913E+00
         21   -1    0    0  503  502  0.00000000000E+00  0.00000000000E+00  0.50859411050E+02  0.50859411050E+02  0.00000000000E+00 0.  1.
         21   -1    0    0  501  503 -0.00000000000E+00 -0.00000000000E+00 -0.12287501377E+03  0.12287501377E+03  0.00000000000E+00 0. -1.
          2    1    1    2  501    0 -0.36028442913E+02  0.30121902390E+02 -0.10588613865E+03  0.11583286261E+03  0.00000000000E+00 0. -1.
         -2    1    1    2    0  502  0.36028442913E+02 -0.30121902390E+02  0.33870535929E+02  0.57901562210E+02  0.00000000000E+00 0.  1.
</event>
<event>
 4    1  0.1727273E+004  0.3356124E+02  0.7546771E-02  0.1390970E+00
         21   -1    0    0  503  502  0.00000000000E+00  0.00000000000E+00  0.19978945042E+03  0.19978945042E+03  0.00000000000E+00 0.  1.
         21   -1    0    0  501  503 -0.00000000000E+00 -0.00000000000E+00 -0.61186830853E+01  0.61186830853E+01  0.00000000000E+00 0. -1.
          2    1    1    2  501    0  0.89400402801E+01  0.32348605078E+02  0.67970399426E+02  0.75804562981E+02  0.00000000000E+00 0.  1.
         -2    1    1    2    0  502 -0.89400402801E+01 -0.32348605078E+02  0.12570036791E+03  0.13010357053E+03  0.00000000000E+00 0. -1.
</event>
<event>
 4    1  0.1727273E+004  0.2447026E+02  0.7546771E-02  0.1474818E+00
         21   -1    0    0  503  502  0.00000000000E+00  0.00000000000E+00  0.12834786778E+03  0.12834786778E+03  0.00000000000E+00 0. -1.
         21   -1    0    0  501  503 -0.00000000000E+00 -0.00000000000E+00 -0.64368469524E+01  0.64368469524E+01  0.00000000000E+00 0.  1.
          2    1    1    2  501    0 -0.19850780099E+02 -0.14308751028E+02  0.25601520478E+02  0.35415133450E+02  0.00000000000E+00 0.  1.
         -2    1    1    2    0  502  0.19850780099E+02  0.14308751028E+02  0.96309500353E+02  0.99369581285E+02  0.00000000000E+00 0. -1.
</event>
<event>
 4    1  0.1727273E+004  0.3388359E+02  0.7546771E-02  0.1388586E+00
         21   -1    0    0  503  502  0.00000000000E+00  0.00000000000E+00  0.23962914150E+02  0.23962914150E+02  0.00000000000E+00 0. -1.
         21   -1    0    0  501  503 -0.00000000000E+00 -0.00000000000E+00 -0.27241343556E+03  0.27241343556E+03  0.00000000000E+00 0.  1.
          2    1    1    2  501    0  0.64432175675E+01 -0.33265336738E+02 -0.25875224046E+03  0.26096133741E+03  0.00000000000E+00 0.  1.
         -2    1    1    2    0  502 -0.64432175675E+01  0.33265336738E+02  0.10301719048E+02  0.35415012301E+02  0.00000000000E+00 0. -1.
</event>
<event>
 4    1  0.1727273E+004  0.3635672E+02  0.7546771E-02  0.1371268E+00
         21   -1    0    0  501  502  0.00000000000E+00  0.00000000000E+00  0.87071020938E+03  0.87071020938E+03  0.00000000000E+00 0.  1.
         21   -1    0    0  502  503 -0.00000000000E+00 -0.00000000000E+00 -0.15383027463E+01  0.15383027463E+01  0.00000000000E+00 0. -1.
          2    1    1    2  501    0 -0.33608111126E+02  0.13867447525E+02  0.38458635851E+03  0.38630102043E+03  0.00000000000E+00 0.  1.
         -2    1    1    2    0  503  0.33608111126E+02 -0.13867447525E+02  0.48458554813E+03  0.48594749170E+03  0.00000000000E+00 0. -1.
</event>
<event>
 4    1  0.1727273E+004  0.2124036E+02  0.7546771E-02  0.1515861E+00
         21   -1    0    0  501  502  0.00000000000E+00  0.00000000000E+00  0.20278893757E+02  0.20278893757E+02  0.00000000000E+00 0.  1.
         21   -1    0    0  502  503 -0.00000000000E+00 -0.00000000000E+00 -0.38142262809E+02  0.38142262809E+02  0.00000000000E+00 0. -1.
          2    1    1    2  501    0 -0.18502221605E+02 -0.10431725568E+02  0.99249863970E+01  0.23444795960E+02  0.00000000000E+00 0.  1.
         -2    1    1    2    0  503  0.18502221605E+02  0.10431725568E+02 -0.27788355449E+02  0.34976360605E+02  0.00000000000E+00 0. -1.
</event>
<event>
 4    1  0.1727273E+004  0.2048071E+02  0.7546771E-02  0.1526810E+00
         21   -1    0    0  501  502  0.00000000000E+00  0.00000000000E+00  0.70404003205E+03  0.70404003205E+03  0.00000000000E+00 0. -1.
         21   -1    0    0  502  503 -0.00000000000E+00 -0.00000000000E+00 -0.65321561595E+01  0.65321561595E+01  0.00000000000E+00 0.  1.
          2    1    1    2  501    0 -0.20188604212E+02 -0.34467289701E+01  0.68745010960E+03  0.68775512566E+03  0.00000000000E+00 0. -1.
         -2    1    1    2    0  503  0.20188604212E+02  0.34467289701E+01  0.10057766288E+02  0.22817062549E+02  0.00000000000E+00 0.  1.
</event>
<event>
 4    1  0.1727273E+004  0.2157364E+02  0.7546771E-02  0.1511230E+00
         21   -1    0    0  503  502  0.00000000000E+00  0.00000000000E+00  0.68081421539E+02  0.68081421539E+02  0.00000000000E+00 0. -1.
         21   -1    0    0  501  503 -0.00000000000E+00 -0.00000000000E+00 -0.16799084810E+02  0.16799084810E+02  0.00000000000E+00 0.  1.
          2    1    1    2  501    0  0.41683888677E+01  0.21167105748E+02 -0.70421806071E+01  0.22693922957E+02  0.00000000000E+00 0.  1.
         -2    1    1    2    0  502 -0.41683888677E+01 -0.21167105748E+02  0.58324517336E+02  0.62186583392E+02  0.00000000000E+00 0. -1.
</event>
<event>
 4    1  0.1727273E+004  0.2235446E+02  0.7546771E-02  0.1500767E+00
         21   -1    0    0  501  502  0.00000000000E+00  0.00000000000E+00  0.25209262981E+02  0.25209262981E+02  0.00000000000E+00 0.  1.
         21   -1    0    0  502  503 -0.00000000000E+00 -0.00000000000E+00 -0.32021681181E+02  0.32021681181E+02  0.00000000000E+00 0. -1.
          2    1    1    2  501    0 -0.17614743012E+02  0.13763825902E+02  0.14255637139E+02  0.26513114964E+02  0.00000000000E+00 0.  1.
         -2    1    1    2    0  503  0.17614743012E+02 -0.13763825902E+02 -0.21068055339E+02  0.30717829198E+02  0.00000000000E+00 0. -1.
</event>
<event>
 4    1  0.1727273E+004  0.3169408E+02  0.7546771E-02  0.1405425E+00
         21   -1    0    0  501  502  0.00000000000E+00  0.00000000000E+00  0.65258901177E+01  0.65258901177E+01  0.00000000000E+00 0. -1.
         21   -1    0    0  502  503 -0.00000000000E+00 -0.00000000000E+00 -0.15719029511E+03  0.15719029511E+03  0.00000000000E+00 0.  1.
          2    1    1    2  501    0 -0.24643518434E+02  0.19930165826E+02 -0.63538831763E+02  0.71004912875E+02  0.00000000000E+00 0. -1.
         -2    1    1    2    0  503  0.24643518434E+02 -0.19930165826E+02 -0.87125573233E+02  0.92711272356E+02  0.00000000000E+00 0.  1.
</event>
<event>
 4    1  0.1727273E+004  0.2008263E+02  0.7546771E-02  0.1532776E+00
         21   -1    0    0  503  502  0.00000000000E+00  0.00000000000E+00  0.12881067241E+03  0.12881067241E+03  0.00000000000E+00 0. -1.
         21   -1    0    0  501  503 -0.00000000000E+00 -0.00000000000E+00 -0.48858529257E+02  0.48858529257E+02  0.00000000000E+00 0.  1.
          2    1    1    2  501    0  0.17766997284E+02  0.93619356606E+01 -0.45964970244E+02  0.50160647138E+02  0.00000000000E+00 0.  1.
         -2    1    1    2    0  502 -0.17766997284E+02 -0.93619356606E+01  0.12591711340E+03  0.12750855453E+03  0.00000000000E+00 0. -1.
</event>
<event>
 4    1  0.1727273E+004  0.3168058E+02  0.7546771E-02  0.1405533E+00
         21   -1    0    0  503  502  0.00000000000E+00  0.00000000000E+00  0.18782125550E+03  0.18782125550E+03  0.00000000000E+00 0. -1.
         21   -1    0    0  501  503 -0.00000000000E+00 -0.00000000000E+00 -0.62649778197E+01  0.62649778197E+01  0.00000000000E+00 0.  1.
          2    1    1    2  501    0 -0.15582756322E+02 -0.27583272621E+02  0.53564528514E+02  0.62231968778E+02  0.00000000000E+00 0.  1.
         -2    1    1    2    0  502  0.15582756322E+02  0.27583272621E+02  0.12799174917E+03  0.13185426454E+03  0.00000000000E+00 0. -1.
</event>
<event>
 4    1  0.1727273E+004  0.2839073E+02  0.7546771E-02  0.1434117E+00
         21   -1    0    0  501  502  0.00000000000E+00  0.00000000000E+00  0.14029154815E+01  0.14029154815E+01  0.00000000000E+00 0.  1.
         21   -1    0    0  502  503 -0.00000000000E+00 -0.00000000000E+00 -0.59176573404E+03  0.59176573404E+03  0.00000000000E+00 0. -1.
          2    1    1    2  501    0  0.28331989366E+02  0.18253194879E+01 -0.24458251562E+03  0.24622477608E+03  0.00000000000E+00 0.  1.
         -2    1    1    2    0  503 -0.28331989366E+02 -0.18253194879E+01 -0.34578030294E+03  0.34694387343E+03  0.00000000000E+00 0. -1.
</event>
<event>
 4    1  0.1727273E+004  0.2389051E+02  0.7546771E-02  0.1481609E+00
         21   -1    0    0  501  502  0.00000000000E+00  0.00000000000E+00  0.10790096102E+03  0.10790096102E+03  0.00000000000E+00 0.  1.
         21   -1    0    0  502  503 -0.00000000000E+00 -0.00000000000E+00 -0.38766609040E+02  0.38766609040E+02  0.00000000000E+00 0. -1.
          2    1    1    2  501    0 -0.58784389916E+01  0.23155997325E+02  0.10271442336E+03  0.10545619481E+03  0.00000000000E+00 0.  1.
         -2    1    1    2    0  503  0.58784389916E+01 -0.23155997325E+02 -0.33580071375E+02  0.41211375258E+02  0.00000000000E+00 0. -1.
</event>
<event>
 4    1  0.1727273E+004  0.2192819E+02  0.7546771E-02  0.1506414E+00
         21   -1    0    0  501  502  0.00000000000E+00  0.00000000000E+00  0.57662712020E+03  0.57662712020E+03  0.00000000000E+00 0.  1.
         21   -1    0    0  502  503 -0.00000000000E+00 -0.00000000000E+00 -0.95792107961E+01  0.95792107961E+01  0.00000000000E+00 0. -1.
          2    1    1    2  501    0 -0.21393638032E+02  0.48122484304E+01  0.56357902162E+03  0.56400546017E+03  0.00000000000E+00 0.  1.
         -2    1    1    2    0  503  0.21393638032E+02 -0.48122484304E+01  0.34688877817E+01  0.22200870831E+02  0.00000000000E+00 0. -1.
</event>
<event>
 4    1  0.1727273E+004  0.2894093E+02  0.7546771E-02  0.1429028E+00
         21   -1    0    0  501  502  0.00000000000E+00  0.00000000000E+00  0.39495943057E+03  0.39495943057E+03  0.00000000000E+00 0. -1.
         21   -1    0    0  502  503 -0.00000000000E+00 -0.00000000000E+00 -0.27699060586E+01  0.27699060586E+01  0.00000000000E+00 0.  1.
          2    1    1    2  501    0 -0.22118123060E+02  0.18664571856E+02  0.29237281052E+03  0.29380169833E+03  0.00000000000E+00 0. -1.
         -2    1    1    2    0  503  0.22118123060E+02 -0.18664571856E+02  0.99816713993E+02  0.10392763830E+03  0.00000000000E+00 0.  1.
</event>
<event>
 4    1  0.1727273E+004  0.2193186E+02  0.7546771E-02  0.1506365E+00
         21   -1    0    0  501  502  0.00000000000E+00  0.00000000000E+00  0.76926798481E+02  0.76926798481E+02  0.00000000000E+00 0. -1.
         21   -1    0    0  502  503 -0.00000000000E+00 -0.00000000000E+00 -0.70223507237E+01  0.70223507237E+01  0.00000000000E+00 0.  1.
          2    1    1    2  501    0  0.38651893524E+01  0.21588582475E+02  0.48847540663E+02  0.53545203435E+02  0.00000000000E+00 0. -1.
         -2    1    1    2    0  503 -0.38651893524E+01 -0.21588582475E+02  0.21056907094E+02  0.30403945770E+02  0.00000000000E+00 0.  1.
</event>
<event>
 4    1  0.1727273E+004  0.3320131E+02  0.7546771E-02  0.1393669E+00
         21   -1    0    0  503  502  0.00000000000E+00  0.00000000000E+00  0.28498457151E+02  0.28498457151E+02  0.00000000000E+00 0. -1.
         21   -1    0    0  501  503 -0.00000000000E+00 -0.00000000000E+00 -0.94482335507E+02  0.94482335507E+02  0.00000000000E+00 0.  1.
          2    1    1    2  501    0  0.51441636584E+01 -0.32800379338E+02 -0.80247967358E+02  0.86845054952E+02  0.00000000000E+00 0.  1.
         -2    1    1    2    0  502 -0.51441636584E+01  0.32800379338E+02  0.14264089003E+02  0.36135737706E+02  0.00000000000E+00 0. -1.
</event>
<event>
 4    1  0.1727273E+004  0.2338383E+02  0.7546771E-02  0.1487734E+00
         21   -1    0    0  503  502  0.00000000000E+00  0.00000000000E+00  0.15657548523E+03  0.15657548523E+03  0.00000000000E+00 0.  1.
         21   -1    0    0  501  503 -0.00000000000E+00 -0.00000000000E+00 -0.35540586015E+01  0.35540586015E+01  0.00000000000E+00 0. -1.
          2    1    1    2  501    0 -0.11610102079E+02 -0.20298001467E+02  0.65953594956E+02  0.69976281849E+02  0.00000000000E+00 0.  1.
         -2    1    1    2    0  502  0.11610102079E+02  0.20298001467E+02  0.87067831676E+02  0.90153261985E+02  0.00000000000E+00 0. -1.
</event>
<event>
 4    1  0.1727273E+004  0.2593378E+02  0.7546771E-02  0.1458623E+00
         21   -1    0    0  503  502  0.00000000000E+00  0.00000000000E+00  0.54400249075E+02  0.54400249075E+02  0.00000000000E+00 0. -1.
         21   -1    0    0  501  503 -0.00000000000E+00 -0.00000000000E+00 -0.19490048666E+02  0.19490048666E+02  0.00000000000E+00 0.  1.
          2    1    1    2  501    0  0.24587924506E+02 -0.82458978797E+01 -0.48857601208E+01  0.26389988923E+02  0.00000000000E+00 0.  1.
         -2    1    1    2    0  502 -0.24587924506E+02  0.82458978797E+01  0.39795960530E+02  0.47500308819E+02  0.00000000000E+00 0. -1.
</event>
<event>
 4    1  0.1727273E+004  0.2424218E+02  0.7546771E-02  0.1477463E+00
         21   -1    0    0  503  502  0.00000000000E+00  0.00000000000E+00  0.73940220879E+01  0.73940220879E+01  0.00000000000E+00 0. -1.
         21   -1    0    0  501  503 -0.00000000000E+00 -0.00000000000E+00 -0.88714289239E+02  0.88714289239E+02  0.00000000000E+00 0.  1.
          2    1    1    2  501    0  0.47118473552E+01  0.23779857036E+02 -0.56163145560E+02  0.61171742049E+02  0.00000000000E+00 0.  1.
         -2    1    1    2    0  502 -0.47118473552E+01 -0.23779857036E+02 -0.25157121591E+02  0.34936569278E+02  0.00000000000E+00 0. -1.
</event>
<event>
 4    1  0.1727273E+004  0.5671236E+02  0.7546771E-02  0.1271431E+00
         21   -1    0    0  501  502  0.00000000000E+00  0.00000000000E+00  0.10144187854E+03  0.10144187854E+03  0.00000000000E+00 0.  1.
         21   -1    0    0  502  503 -0.00000000000E+00 -0.00000000000E+00 -0.46494800607E+02  0.46494800607E+02  0.00000000000E+00 0. -1.
          2    1    1    2  501    0 -0.41673359635E+02  0.38465861274E+02  0.69190603716E+02  0.89463014869E+02  0.00000000000E+00 0.  1.
         -2    1    1    2    0  503  0.41673359635E+02 -0.38465861274E+02 -0.14243525786E+02  0.58473664275E+02  0.00000000000E+00 0. -1.
</event>
<event>
 4    1  0.1727273E+004  0.2582792E+02  0.7546771E-02  0.1459751E+00
         21   -1    0    0  501  502  0.00000000000E+00  0.00000000000E+00  0.46481589677E+01  0.46481589677E+01  0.00000000000E+00 0. -1.
         21   -1    0    0  502  503 -0.00000000000E+00 -0.00000000000E+00 -0.15441722927E+03  0.15441722927E+03  0.00000000000E+00 0.  1.
          2    1    1    2  501    0  0.15649265148E+02  0.20547067575E+02 -0.53752009963E+02  0.59635224998E+02  0.00000000000E+00 0. -1.
         -2    1    1    2    0  503 -0.15649265148E+02 -0.20547067575E+02 -0.96017060342E+02  0.99430163242E+02  0.00000000000E+00 0.  1.
</event>
<event>
 4    1  0.1727273E+004  0.2132219E+02  0.7546771E-02  0.1514714E+00
         21   -1    0    0  503  502  0.00000000000E+00  0.00000000000E+00  0.19976923134E+02  0.19976923134E+02  0.00000000000E+00 0.  1.
         21   -1    0    0  501  503 -0.00000000000E+00 -0.00000000000E+00 -0.26758024360E+02  0.26758024360E+02  0.00000000000E+00 0. -1.
          2    1    1    2  501    0 -0.18486736249E+02  0.10624325548E+02 -0.12425248408E+02  0.24678381399E+02  0.00000000000E+00 0. -1.
         -2    1    1    2    0  502  0.18486736249E+02 -0.10624325548E+02  0.56441471821E+01  0.22056566095E+02  0.00000000000E+00 0.  1.
</event>
<event>
 4    1  0.1727273E+004  0.2446317E+02  0.7546771E-02  0.1474899E+00
         21   -1    0    0  503  502  0.00000000000E+00  0.00000000000E+00  0.25499776213E+02  0.25499776213E+02  0.00000000000E+00 0.  1.
         21   -1    0    0  501  503 -0.00000000000E+00 -0.00000000000E+00 -0.23838816627E+02  0.23838816627E+02  0.00000000000E+00 0. -1.
          2    1    1    2  501    0 -0.13251012705E+02 -0.20563490395E+02 -0.22433976421E+01  0.24565815840E+02  0.00000000000E+00 0. -1.
         -2    1    1    2    0  502  0.13251012705E+02  0.20563490395E+02  0.39043572281E+01  0.24772777000E+02  0.00000000000E+00 0.  1.
</event>
<event>
 4    1  0.1727273E+004  0.2021807E+02  0.7546771E-02  0.1530728E+00
         21   -1    0    0  501  502  0.00000000000E+00  0.00000000000E+00  0.43822890000E+02  0.43822890000E+02  0.00000000000E+00 0.  1.
         21   -1    0    0  502  503 -0.00000000000E+00 -0.00000000000E+00 -0.23147805372E+02  0.23147805372E+02  0.00000000000E+00 0. -1.
          2    1    1    2  501    0 -0.90105146887E+01  0.18099201867E+02  0.36210986704E+02  0.41472955541E+02  0.00000000000E+00 0.  1.
         -2    1    1    2    0  503  0.90105146887E+01 -0.18099201867E+02 -0.15535902077E+02  0.25497739832E+02  0.00000000000E+00 0. -1.
</event>
<event>
 4    1  0.1727273E+004  0.2578978E+02  0.7546771E-02  0.1460159E+00
         21   -1    0    0  501  502  0.00000000000E+00  0.00000000000E+00  0.68964421676E+01  0.68964421676E+01  0.00000000000E+00 0.  1.
         21   -1    0    0  502  503 -0.00000000000E+00 -0.00000000000E+00 -0.10522739298E+03  0.10522739298E+03  0.00000000000E+00 0. -1.
          2    1    1    2  501    0 -0.16722494399E+02  0.19633407941E+02 -0.32967409219E+02  0.41856452274E+02  0.00000000000E+00 0. -1.
         -2    1    1    2    0  503  0.16722494399E+02 -0.19633407941E+02 -0.65363541590E+02  0.70267382871E+02  0.00000000000E+00 0.  1.
</event>
<event>
 4    1  0.1727273E+004  0.2129638E+02  0.7546771E-02  0.1515075E+00
         21   -1    0    0  503  502  0.00000000000E+00  0.00000000000E+00  0.11167437036E+03  0.11167437036E+03  0.00000000000E+00 0.  1.
         21   -1    0    0  501  503 -0.00000000000E+00 -0.00000000000E+00 -0.55413818813E+01  0.55413818813E+01  0.00000000000E+00 0. -1.
          2    1    1    2  501    0 -0.22660049326E+00  0.21295178062E+02  0.22776497567E+02  0.31181802351E+02  0.00000000000E+00 0. -1.
         -2    1    1    2    0  502  0.22660049326E+00 -0.21295178062E+02  0.83356490908E+02  0.86033949886E+02  0.00000000000E+00 0.  1.
</event>
<event>
 4    1  0.1727273E+004  0.2929750E+02  0.7546771E-02  0.1425801E+00
         21   -1    0    0  503  502  0.00000000000E+00  0.00000000000E+00  0.40241442774E+01  0.40241442774E+01  0.00000000000E+00 0.  1.
         21   -1    0    0  501  503 -0.00000000000E+00 -0.00000000000E+00 -0.23370949767E+03  0.23370949767E+03  0.00000000000E+00 0. -1.
          2    1    1    2  501    0 -0.21268195533E+02  0.20149618722E+02 -0.14997091209E+03  0.15280581713E+03  0.00000000000E+00 0. -1.
         -2    1    1    2    0  502  0.21268195533E+02 -0.20149618722E+02 -0.79714441300E+02  0.84927824814E+02  0.00000000000E+00 0.  1.
</event>
<event>
 4    1  0.1727273E+004  0.3081185E+02  0.7546771E-02  0.1412670E+00
         21   -1    0    0  501  502  0.00000000000E+00  0.00000000000E+00  0.98100523028E+02  0.98100523028E+02  0.00000000000E+00 0.  1.
         21   -1    0    0  502  503 -0.00000000000E+00 -0.00000000000E+00 -0.99816589155E+01  0.99816589155E+01  0.00000000000E+00 0. -1.
          2    1    1    2  501    0 -0.76805966911E+00 -0.30802274145E+02  0.34626275660E+02  0.46350285589E+02  0.00000000000E+00 0. -1.
         -2    1    1    2    0  503  0.76805966911E+00  0.30802274145E+02  0.53492588453E+02  0.61731896354E+02  0.00000000000E+00 0.  1.
</event>
<event>
 4    1  0.1727273E+004  0.5249928E+02  0.7546771E-02  0.1287685E+00
         21   -1    0    0  503  502  0.00000000000E+00  0.00000000000E+00  0.89810579920E+02  0.89810579920E+02  0.00000000000E+00 0. -1.
         21   -1    0    0  501  503 -0.00000000000E+00 -0.00000000000E+00 -0.74273951184E+02  0.74273951184E+02  0.00000000000E+00 0.  1.
          2    1    1    2  501    0 -0.26593685793E+02 -0.45265331721E+02 -0.55079316539E+02  0.76091428494E+02  0.00000000000E+00 0.  1.
         -2    1    1    2    0  502  0.26593685793E+02  0.45265331721E+02  0.70615945275E+02  0.87993102610E+02  0.00000000000E+00 0. -1.
</event>
<event>
 4    1  0.1727273E+004  0.3685459E+02  0.7546771E-02  0.1367974E+00
         21   -1    0    0  501  502  0.00000000000E+00  0.00000000000E+00  0.18244234831E+03  0.18244234831E+03  0.00000000000E+00 0. -1.
         21   -1    0    0  502  503 -0.00000000000E+00 -0.00000000000E+00 -0.31441375918E+02  0.31441375918E+02  0.00000000000E+00 0.  1.
          2    1    1    2  501    0 -0.33064202767E+02  0.16279402328E+02  0.16892716953E+03  0.17290069129E+03  0.00000000000E+00 0. -1.
         -2    1    1    2    0  503  0.33064202767E+02 -0.16279402328E+02 -0.17926197137E+02  0.40983032935E+02  0.00000000000E+00 0.  1.
</event>
<event>
 4    1  0.1727273E+004  0.2623748E+02  0.7546771E-02  0.1455422E+00
         21   -1    0    0  503  502  0.00000000000E+00  0.00000000000E+00  0.33231304848E+02  0.33231304848E+02  0.00000000000E+00 0. -1.
         21   -1    0    0  501  503 -0.00000000000E+00 -0.00000000000E+00 -0.85202147936E+02  0.85202147936E+02  0.00000000000E+00 0.  1.
          2    1    1    2  501    0  0.26189847320E+02  0.15802418363E+01 -0.77502805876E+02  0.81823530758E+02  0.00000000000E+00 0.  1.
         -2    1    1    2    0  502 -0.26189847320E+02 -0.15802418363E+01  0.25531962789E+02  0.36609922026E+02  0.00000000000E+00 0. -1.
</event>
<event>
 4    1  0.1727273E+004  0.2412242E+02  0.7546771E-02  0.1478865E+00
         21   -1    0    0  501  502  0.00000000000E+00  0.00000000000E+00  0.80005448074E+03  0.80005448074E+03  0.00000000000E+00 0.  1.
         21   -1    0    0  502  503 -0.00000000000E+00 -0.00000000000E+00 -0.92695529633E+00  0.92695529633E+00  0.00000000000E+00 0. -1.
          2    1    1    2  501    0 -0.21735898176E+02 -0.10461448591E+02  0.58542455010E+03  0.58592132154E+03  0.00000000000E+00 0.  1.
         -2    1    1    2    0  503  0.21735898176E+02  0.10461448591E+02  0.21370297534E+03  0.21506011449E+03  0.00000000000E+00 0. -1.
</event>
<event>
 4    1  0.1727273E+004  0.2754496E+02  0.7546771E-02  0.1442209E+00
         21   -1    0    0  501  502  0.00000000000E+00  0.00000000000E+00  0.32696030155E+02  0.32696030155E+02  0.00000000000E+00 0.  1.
         21   -1    0    0  502  503 -0.00000000000E+00 -0.00000000000E+00 -0.25950926032E+02  0.25950926032E+02  0.00000000000E+00 0. -1.
          2    1    1    2  501    0 -0.27513343707E+02  0.13193403943E+01  0.12910416598E+02  0.30420447034E+02  0.00000000000E+00 0.  1.
         -2    1    1    2    0  503  0.27513343707E+02 -0.13193403943E+01 -0.61653124753E+01  0.28226509153E+02  0.00000000000E+00 0. -1.
</event>
