<event>
 4    1  0.6888348E+001  0.2846419E+02  0.7546771E-02  0.1433430E+00
          2   -1    0    0  502    0  0.00000000000E+00  0.00000000000E+00  0.25096576020E+03  0.25096576020E+03  0.00000000000E+00 0.  1.
         -2   -1    0    0    0  501 -0.00000000000E+00 -0.00000000000E+00 -0.33141484120E+01  0.33141484120E+01  0.00000000000E+00 0. -1.
          1    1    1    2  502    0  0.18578976218E+02 -0.21564592968E+02  0.14428027175E+03  0.14706123501E+03  0.00000000000E+00 0.  1.
         -1    1    1    2    0  501 -0.18578976218E+02  0.21564592968E+02  0.10337134005E+03  0.10721867361E+03  0.00000000000E+00 0. -1.
</event>
<event>
 4    1  0.6888348E+001  0.2592352E+02  0.7546771E-02  0.1458732E+00
          2   -1    0    0  502    0  0.00000000000E+00  0.00000000000E+00  0.19104749029E+04  0.19104749029E+04  0.00000000000E+00 0.  1.
         -2   -1    0    0    0  501 -0.00000000000E+00 -0.00000000000E+00 -0.62620384643E+00  0.62620384643E+00  0.00000000000E+00 0. -1.
          1    1    1    2  502    0  0.12532262778E+02  0.22692980213E+02  0.15875144969E+04  0.15877261435E+04  0.00000000000E+00 0.  1.
         -1    1    1    2    0  501 -0.12532262778E+02 -0.22692980213E+02  0.32233420215E+03  0.32337496322E+03  0.00000000000E+00 0. -1.
</event>
<event>
 4    1  0.6888348E+001  0.2314744E+02  0.7546771E-02  0.1490655E+00
          2   -1    0    0  502    0  0.00000000000E+00  0.00000000000E+00  0.10719291504E+04  0.10719291504E+04  0.00000000000E+00 0. -1.
         -2   -1    0    0    0  501 -0.00000000000E+00 -0.00000000000E+00 -0.55655858860E+00  0.55655858860E+00  0.00000000000E+00 0.  1.
          1    1    1    2  502    0 -0.20656099306E+02 -0.10446500502E+02  0.36451521147E+03  0.36524942602E+03  0.00000000000E+00 0.  1.
         -1    1    1    2    0  501  0.20656099306E+02  0.10446500502E+02  0.70685738036E+03  0.70723628299E+03  0.00000000000E+00 0. -1.
</event>
<event>
 4    1  0.6888348E+001  0.2845482E+02  0.7546771E-02  0.1433517E+00
          2   -1    0    0  502    0  0.00000000000E+00  0.00000000000E+00  0.19444241577E+03  0.19444241577E+03  0.00000000000E+00 0.  1.
         -2   -1    0    0    0  501 -0.00000000000E+00 -0.00000000000E+00 -0.43353487152E+01  0.43353487152E+01  0.00000000000E+00 0. -1.
          1    1    1    2  502    0 -0.27752138768E+02  0.62845643266E+01  0.75300032916E+02  0.80497030456E+02  0.00000000000E+00 0.  1.
         -1    1    1    2    0  501  0.27752138768E+02 -0.62845643266E+01  0.11480703414E+03  0.11828073403E+03  0.00000000000E+00 0. -1.
</event>
<event>
 4    1  0.6888348E+001  0.2813905E+02  0.7546771E-02  0.1436490E+00
          2   -1    0    0  502    0  0.00000000000E+00  0.00000000000E+00  0.10154665116E+02  0.10154665116E+02  0.00000000000E+00 0.  1.
         -2   -1    0    0    0  501 -0.00000000000E+00 -0.00000000000E+00 -0.11933640473E+03  0.11933640473E+03  0.00000000000E+00 0. -1.
          1    1    1    2  502    0  0.19363827154E+02 -0.20416863410E+02 -0.92708246512E+02  0.96884596737E+02  0.00000000000E+00 0. -1.
         -1    1    1    2    0  501 -0.19363827154E+02  0.20416863410E+02 -0.16473493098E+02  0.32606473106E+02  0.00000000000E+00 0.  1.
</event>
<event>
 4    1  0.6888348E+001  0.2841382E+02  0.7546771E-02  0.1433901E+00
          2   -1    0    0  502    0  0.00000000000E+00  0.00000000000E+00  0.16158374832E+04  0.16158374832E+04  0.00000000000E+00 0. -1.
         -2   -1    0    0    0  501 -0.00000000000E+00 -0.00000000000E+00 -0.74786546255E+00  0.74786546255E+00  0.00000000000E+00 0.  1.
          1    1    1    2  502    0  0.25816798261E+02  0.11867519499E+02  0.34187754390E+03  0.34305626378E+03  0.00000000000E+00 0.  1.
         -1    1    1    2    0  501 -0.25816798261E+02 -0.11867519499E+02  0.12732120738E+04  0.12735290849E+04  0.00000000000E+00 0. -1.
</event>
<event>
 4    1  0.6888348E+001  0.1333724E+03  0.7546771E-02  0.1115995E+00
          2   -1    0    0  502    0  0.00000000000E+00  0.00000000000E+00  0.39878496905E+03  0.39878496905E+03  0.00000000000E+00 0. -1.
         -2   -1    0    0    0  501 -0.00000000000E+00 -0.00000000000E+00 -0.46075259317E+02  0.46075259317E+02  0.00000000000E+00 0.  1.
          1    1    1    2  502    0 -0.75928080934E+01 -0.13315611201E+03  0.13663483595E+03  0.19093789382E+03  0.00000000000E+00 0.  1.
         -1    1    1    2    0  501  0.75928080934E+01  0.13315611201E+03  0.21607487379E+03  0.25392233455E+03  0.00000000000E+00 0. -1.
</event>
<event>
 4    1  0.6888348E+001  0.3275120E+02  0.7546771E-02  0.1397102E+00
          2   -1    0    0  502    0  0.00000000000E+00  0.00000000000E+00  0.27517794748E+04  0.27517794748E+04  0.00000000000E+00 0. -1.
         -2   -1    0    0    0  501 -0.00000000000E+00 -0.00000000000E+00 -0.40667616168E+00  0.40667616168E+00  0.00000000000E+00 0.  1.
          1    1    1    2  502    0 -0.32740973867E+02 -0.81825962520E+00  0.10953541822E+04  0.10958437048E+04  0.00000000000E+00 0. -1.
         -1    1    1    2    0  501  0.32740973867E+02  0.81825962520E+00  0.16560186164E+04  0.16563424461E+04  0.00000000000E+00 0.  1.
</event>
<event>
 4    1  0.6888348E+001  0.2028796E+02  0.7546771E-02  0.1529678E+00
          2   -1    0    0  502    0  0.00000000000E+00  0.00000000000E+00  0.44281076736E+03  0.44281076736E+03  0.00000000000E+00 0. -1.
         -2   -1    0    0    0  501 -0.00000000000E+00 -0.00000000000E+00 -0.10840264140E+01  0.10840264140E+01  0.00000000000E+00 0.  1.
          1    1    1    2  502    0  0.51170657816E+01 -0.19632040507E+02  0.13707115783E+03  0.13856443875E+03  0.00000000000E+00 0.  1.
         -1    1    1    2    0  501 -0.51170657816E+01  0.19632040507E+02  0.30465558312E+03  0.30533035503E+03  0.00000000000E+00 0. -1.
</event>
<event>
 4    1  0.6888348E+001  0.2107196E+02  0.7546771E-02  0.1518240E+00
          2   -1    0    0  502    0  0.00000000000E+00  0.00000000000E+00  0.15247696557E+03  0.15247696557E+03  0.00000000000E+00 0.  1.
         -2   -1    0    0    0  501 -0.00000000000E+00 -0.00000000000E+00 -0.35138141894E+01  0.35138141894E+01  0.00000000000E+00 0. -1.
          1    1    1    2  502    0  0.82435629049E+01 -0.19392552060E+02  0.10675733575E+03  0.10881707652E+03  0.00000000000E+00 0.  1.
         -1    1    1    2    0  501 -0.82435629049E+01  0.19392552060E+02  0.42205815629E+02  0.47173703243E+02  0.00000000000E+00 0. -1.
</event>
<event>
 4    1  0.6888348E+001  0.7327932E+02  0.7546771E-02  0.1220373E+00
          2   -1    0    0  502    0  0.00000000000E+00  0.00000000000E+00  0.71885727309E+03  0.71885727309E+03  0.00000000000E+00 0. -1.
         -2   -1    0    0    0  501 -0.00000000000E+00 -0.00000000000E+00 -0.79157622134E+01  0.79157622134E+01  0.00000000000E+00 0.  1.
          1    1    1    2  502    0 -0.55160988654E+02  0.48240280661E+02  0.26923703899E+03  0.27903125723E+03  0.00000000000E+00 0.  1.
         -1    1    1    2    0  501  0.55160988654E+02 -0.48240280661E+02  0.44170447189E+03  0.44774177807E+03  0.00000000000E+00 0. -1.
</event>
<event>
 4    1  0.6888348E+001  0.2506491E+02  0.7546771E-02  0.1468079E+00
          2   -1    0    0  502    0  0.00000000000E+00  0.00000000000E+00  0.10318311381E+04  0.10318311381E+04  0.00000000000E+00 0.  1.
         -2   -1    0    0    0  501 -0.00000000000E+00 -0.00000000000E+00 -0.68100867870E+00  0.68100867870E+00  0.00000000000E+00 0. -1.
          1    1    1    2  502    0 -0.10273817445E+01 -0.25043846315E+02  0.68360113007E+03  0.68406049059E+03  0.00000000000E+00 0.  1.
         -1    1    1    2    0  501  0.10273817445E+01  0.25043846315E+02  0.34754899939E+03  0.34845165623E+03  0.00000000000E+00 0. -1.
</event>
<event>
 4    1  0.6888348E+001  0.2326517E+02  0.7546771E-02  0.1489195E+00
          2   -1    0    0  502    0  0.00000000000E+00  0.00000000000E+00  0.13423700252E+03  0.13423700252E+03  0.00000000000E+00 0.  1.
         -2   -1    0    0    0  501 -0.00000000000E+00 -0.00000000000E+00 -0.40381054024E+01  0.40381054024E+01  0.00000000000E+00 0. -1.
          1    1    1    2  502    0  0.23054509780E+01 -0.23150657364E+02  0.67747379352E+02  0.71630827509E+02  0.00000000000E+00 0. -1.
         -1    1    1    2    0  501 -0.23054509780E+01  0.23150657364E+02  0.62451517765E+02  0.66644280413E+02  0.00000000000E+00 0.  1.
</event>
<event>
 4    1  0.6888348E+001  0.4270654E+02  0.7546771E-02  0.1333316E+00
          2   -1    0    0  502    0  0.00000000000E+00  0.00000000000E+00  0.79409217394E+02  0.79409217394E+02  0.00000000000E+00 0. -1.
         -2   -1    0    0    0  501 -0.00000000000E+00 -0.00000000000E+00 -0.25487814176E+02  0.25487814176E+02  0.00000000000E+00 0.  1.
          1    1    1    2  502    0 -0.41191269640E+02 -0.11275093735E+02  0.10468617176E+02  0.43970903775E+02  0.00000000000E+00 0.  1.
         -1    1    1    2    0  501  0.41191269640E+02  0.11275093735E+02  0.43452786042E+02  0.60926127794E+02  0.00000000000E+00 0. -1.
</event>
<event>
 4    1  0.6888348E+001  0.3030347E+02  0.7546771E-02  0.1416977E+00
          2   -1    0    0  502    0  0.00000000000E+00  0.00000000000E+00  0.21391021868E+03  0.21391021868E+03  0.00000000000E+00 0. -1.
         -2   -1    0    0    0  501 -0.00000000000E+00 -0.00000000000E+00 -0.11208225715E+02  0.11208225715E+02  0.00000000000E+00 0.  1.
          1    1    1    2  502    0  0.27903439187E+02  0.11819397196E+02  0.12937564012E+02  0.32949668148E+02  0.00000000000E+00 0.  1.
         -1    1    1    2    0  501 -0.27903439187E+02 -0.11819397196E+02  0.18976442895E+03  0.19216877625E+03  0.00000000000E+00 0. -1.
</event>
<event>
 4    1  0.6888348E+001  0.2059134E+02  0.7546771E-02  0.1525180E+00
          2   -1    0    0  502    0  0.00000000000E+00  0.00000000000E+00  0.56561653074E+03  0.56561653074E+03  0.00000000000E+00 0.  1.
         -2   -1    0    0    0  501 -0.00000000000E+00 -0.00000000000E+00 -0.78333723480E+00  0.78333723480E+00  0.00000000000E+00 0. -1.
          1    1    1    2  502    0 -0.25971648384E+01  0.20426896618E+02  0.22367070912E+03  0.22461653877E+03  0.00000000000E+00 0. -1.
         -1    1    1    2    0  501  0.25971648384E+01 -0.20426896618E+02  0.34116248439E+03  0.34178332921E+03  0.00000000000E+00 0.  1.
</event>
<event>
 4    1  0.6888348E+001  0.3091198E+02  0.7546771E-02  0.1411833E+00
          2   -1    0    0  502    0  0.00000000000E+00  0.00000000000E+00  0.72263365672E+03  0.72263365672E+03  0.00000000000E+00 0. -1.
         -2   -1    0    0    0  501 -0.00000000000E+00 -0.00000000000E+00 -0.13501133952E+01  0.13501133952E+01  0.00000000000E+00 0.  1.
          1    1    1    2  502    0 -0.29739121426E+02  0.84341613343E+01  0.30870060295E+03  0.31024444021E+03  0.00000000000E+00 0. -1.
         -1    1    1    2    0  501  0.29739121426E+02 -0.84341613343E+01  0.41258294038E+03  0.41373932991E+03  0.00000000000E+00 0.  1.
</event>
<event>
 4    1  0.6888348E+001  0.2702113E+02  0.7546771E-02  0.1447396E+00
          2   -1    0    0  502    0  0.00000000000E+00  0.00000000000E+00  0.10277189327E+04  0.10277189327E+04  0.00000000000E+00 0.  1.
         -2   -1    0    0    0  501 -0.00000000000E+00 -0.00000000000E+00 -0.10081163139E+01  0.10081163139E+01  0.00000000000E+00 0. -1.
          1    1    1    2  502    0  0.14993794505E+02 -0.22479490732E+02  0.23385607316E+03  0.23541198851E+03  0.00000000000E+00 0. -1.
         -1    1    1    2    0  501 -0.14993794505E+02  0.22479490732E+02  0.79285474324E+03  0.79331506053E+03  0.00000000000E+00 0.  1.
</event>
<event>
 4    1  0.6888348E+001  0.3063640E+02  0.7546771E-02  0.1414145E+00
          2   -1    0    0  502    0  0.00000000000E+00  0.00000000000E+00  0.61965534341E+02  0.61965534341E+02  0.00000000000E+00 0. -1.
         -2   -1    0    0    0  501 -0.00000000000E+00 -0.00000000000E+00 -0.23440439601E+02  0.23440439601E+02  0.00000000000E+00 0.  1.
          1    1    1    2  502    0  0.97659825698E+00  0.30620834851E+02  0.44663140168E+02  0.54160736339E+02  0.00000000000E+00 0. -1.
         -1    1    1    2    0  501 -0.97659825698E+00 -0.30620834851E+02 -0.61380454276E+01  0.31245237602E+02  0.00000000000E+00 0.  1.
</event>
<event>
 4    1  0.6888348E+001  0.2241264E+02  0.7546771E-02  0.1500008E+00
          2   -1    0    0  502    0  0.00000000000E+00  0.00000000000E+00  0.54973618967E+03  0.54973618967E+03  0.00000000000E+00 0.  1.
         -2   -1    0    0    0  501 -0.00000000000E+00 -0.00000000000E+00 -0.91598642328E+00  0.91598642328E+00  0.00000000000E+00 0. -1.
          1    1    1    2  502    0 -0.20921803334E+02 -0.80377097092E+01  0.28798577710E+03  0.28885659841E+03  0.00000000000E+00 0. -1.
         -1    1    1    2    0  501  0.20921803334E+02  0.80377097092E+01  0.26083442615E+03  0.26179557768E+03  0.00000000000E+00 0.  1.
</event>
<event>
 4    1  0.6888348E+001  0.2358051E+02  0.7546771E-02  0.1485335E+00
          2   -1    0    0  502    0  0.00000000000E+00  0.00000000000E+00  0.10690037129E+04  0.10690037129E+04  0.00000000000E+00 0. -1.
         -2   -1    0    0    0  501 -0.00000000000E+00 -0.00000000000E+00 -0.54583847226E+00  0.54583847226E+00  0.00000000000E+00 0.  1.
          1    1    1    2  502    0 -0.20751171295E+02  0.11199517756E+02  0.41821141567E+03  0.41887567190E+03  0.00000000000E+00 0. -1.
         -1    1    1    2    0  501  0.20751171295E+02 -0.11199517756E+02  0.65024645871E+03  0.65067387943E+03  0.00000000000E+00 0.  1.
</event>
<event>
 4    1  0.6888348E+001  0.2001940E+02  0.7546771E-02  0.1533739E+00
          2   -1    0    0  502    0  0.00000000000E+00  0.00000000000E+00  0.22554551451E+03  0.22554551451E+03  0.00000000000E+00 0. -1.
         -2   -1    0    0    0  501 -0.00000000000E+00 -0.00000000000E+00 -0.19234925979E+01  0.19234925979E+01  0.00000000000E+00 0.  1.
          1    1    1    2  502    0 -0.21066259472E+01 -0.19908248969E+02  0.14320698292E+03  0.14459950279E+03  0.00000000000E+00 0. -1.
         -1    1    1    2    0  501  0.21066259472E+01  0.19908248969E+02  0.80415038996E+02  0.82869504322E+02  0.00000000000E+00 0.  1.
</event>
<event>
 4    1  0.6888348E+001  0.6037185E+02  0.7546771E-02  0.1258574E+00
          2   -1    0    0  502    0  0.00000000000E+00  0.00000000000E+00  0.19870435949E+03  0.19870435949E+03  0.00000000000E+00 0. -1.
         -2   -1    0    0    0  501 -0.00000000000E+00 -0.00000000000E+00 -0.50159614658E+02  0.50159614658E+02  0.00000000000E+00 0.  1.
          1    1    1    2  502    0 -0.59479595541E+02  0.10341077425E+02  0.17337483880E+03  0.18358538857E+03  0.00000000000E+00 0. -1.
         -1    1    1    2    0  501  0.59479595541E+02 -0.10341077425E+02 -0.24830093970E+02  0.65278585574E+02  0.00000000000E+00 0.  1.
</event>
<event>
 4    1  0.6888348E+001  0.2547125E+02  0.7546771E-02  0.1463600E+00
          2   -1    0    0  502    0  0.00000000000E+00  0.00000000000E+00  0.66595307857E+03  0.66595307857E+03  0.00000000000E+00 0.  1.
         -2   -1    0    0    0  501 -0.00000000000E+00 -0.00000000000E+00 -0.98562871790E+00  0.98562871790E+00  0.00000000000E+00 0. -1.
          1    1    1    2  502    0 -0.20216601312E+01 -0.25390892464E+02  0.29660593928E+03  0.29769761125E+03  0.00000000000E+00 0. -1.
         -1    1    1    2    0  501  0.20216601312E+01  0.25390892464E+02  0.36836151057E+03  0.36924109603E+03  0.00000000000E+00 0.  1.
</event>
<event>
 4    1  0.6888348E+001  0.2442858E+02  0.7546771E-02  0.1475298E+00
          2   -1    0    0  502    0  0.00000000000E+00  0.00000000000E+00  0.21727800224E+04  0.21727800224E+04  0.00000000000E+00 0. -1.
         -2   -1    0    0    0  501 -0.00000000000E+00 -0.00000000000E+00 -0.46602243905E+00  0.46602243905E+00  0.00000000000E+00 0.  1.
          1    1    1    2  502    0 -0.22284072715E+02  0.10008782394E+02  0.38982820558E+03  0.39059286410E+03  0.00000000000E+00 0.  1.
         -1    1    1    2    0  501  0.22284072715E+02 -0.10008782394E+02  0.17824857944E+04  0.17826531808E+04  0.00000000000E+00 0. -1.
</event>
<event>
 4    1  0.6888348E+001  0.3086736E+02  0.7546771E-02  0.1412206E+00
          2   -1    0    0  502    0  0.00000000000E+00  0.00000000000E+00  0.40075014788E+03  0.40075014788E+03  0.00000000000E+00 0.  1.
         -2   -1    0    0    0  501 -0.00000000000E+00 -0.00000000000E+00 -0.25423251602E+01  0.25423251602E+01  0.00000000000E+00 0. -1.
          1    1    1    2  502    0  0.30685336628E+02 -0.33472477741E+01  0.14776438146E+03  0.15095398762E+03  0.00000000000E+00 0.  1.
         -1    1    1    2    0  501 -0.30685336628E+02  0.33472477741E+01  0.25044344126E+03  0.25233848542E+03  0.00000000000E+00 0. -1.
</event>
<event>
 4    1  0.6888348E+001  0.2137031E+02  0.7546771E-02  0.1514043E+00
          2   -1    0    0  502    0  0.00000000000E+00  0.00000000000E+00  0.41323215954E+03  0.41323215954E+03  0.00000000000E+00 0.  1.
         -2   -1    0    0    0  501 -0.00000000000E+00 -0.00000000000E+00 -0.16559214149E+01  0.16559214149E+01  0.00000000000E+00 0. -1.
          1    1    1    2  502    0 -0.11596445260E+02 -0.17950282683E+02  0.32542371955E+03  0.32612465015E+03  0.00000000000E+00 0.  1.
         -1    1    1    2    0  501  0.11596445260E+02  0.17950282683E+02  0.86152518577E+02  0.88763430804E+02  0.00000000000E+00 0. -1.
</event>
<event>
 4    1  0.6888348E+001  0.2279609E+02  0.7546771E-02  0.1495075E+00
          2   -1    0    0  502    0  0.00000000000E+00  0.00000000000E+00  0.14999049610E+04  0.14999049610E+04  0.00000000000E+00 0.  1.
         -2   -1    0    0    0  501 -0.00000000000E+00 -0.00000000000E+00 -0.36400934507E+00  0.36400934507E+00  0.00000000000E+00 0. -1.
          1    1    1    2  502    0 -0.26219449753E+01  0.22644805698E+02  0.58507785105E+03  0.58552177894E+03  0.00000000000E+00 0. -1.
         -1    1    1    2    0  501  0.26219449753E+01 -0.22644805698E+02  0.91446310062E+03  0.91474719142E+03  0.00000000000E+00 0.  1.
</event>
<event>
 4    1  0.6888348E+001  0.3622891E+02  0.7546771E-02  0.1372123E+00
          2   -1    0    0  502    0  0.00000000000E+00  0.00000000000E+00  0.51286871647E+03  0.51286871647E+03  0.00000000000E+00 0.  1.
         -2   -1    0    0    0  501 -0.00000000000E+00 -0.00000000000E+00 -0.30547655842E+01  0.30547655842E+01  0.00000000000E+00 0. -1.
          1    1    1    2  502    0 -0.35235306084E+02  0.84265724032E+01  0.15100670711E+03  0.15529185268E+03  0.00000000000E+00 0. -1.
         -1    1    1    2    0  501  0.35235306084E+02 -0.84265724032E+01  0.35880724377E+03  0.36063162937E+03  0.00000000000E+00 0.  1.
</event>
<event>
 4    1  0.6888348E+001  0.2099065E+02  0.7546771E-02  0.1519398E+00
          2   -1    0    0  502    0  0.00000000000E+00  0.00000000000E+00  0.23750495769E+02  0.23750495769E+02  0.00000000000E+00 0.  1.
         -2   -1    0    0    0  501 -0.00000000000E+00 -0.00000000000E+00 -0.37108204490E+02  0.37108204490E+02  0.00000000000E+00 0. -1.
          1    1    1    2  502    0  0.17563433656E+02  0.11494915199E+02 -0.28197164115E+02  0.35152344749E+02  0.00000000000E+00 0. -1.
         -1    1    1    2    0  501 -0.17563433656E+02 -0.11494915199E+02  0.14839455394E+02  0.25706355510E+02  0.00000000000E+00 0.  1.
</event>
<event>
 4    1  0.6888348E+001  0.2233962E+02  0.7546771E-02  0.1500961E+00
          2   -1    0    0  502    0  0.00000000000E+00  0.00000000000E+00  0.10346455040E+04  0.10346455040E+04  0.00000000000E+00 0.  1.
         -2   -1    0    0    0  501 -0.00000000000E+00 -0.00000000000E+00 -0.72676319819E+00  0.72676319819E+00  0.00000000000E+00 0. -1.
          1    1    1    2  502    0  0.11798435608E+02  0.18969857930E+02  0.21674278224E+03  0.21789101002E+03  0.00000000000E+00 0. -1.
         -1    1    1    2    0  501 -0.11798435608E+02 -0.18969857930E+02  0.81717595856E+03  0.81748125718E+03  0.00000000000E+00 0.  1.
</event>
<event>
 4    1  0.6888348E+001  0.2013753E+02  0.7546771E-02  0.1531944E+00
          2   -1    0    0  502    0  0.00000000000E+00  0.00000000000E+00  0.19977439672E+04  0.19977439672E+04  0.00000000000E+00 0. -1.
         -2   -1    0    0    0  501 -0.00000000000E+00 -0.00000000000E+00 -0.21966121836E+00  0.21966121836E+00  0.00000000000E+00 0.  1.
          1    1    1    2  502    0 -0.67902501567E+01  0.18958181061E+02  0.12739803126E+04  0.12741394575E+04  0.00000000000E+00 0.  1.
         -1    1    1    2    0  501  0.67902501567E+01 -0.18958181061E+02  0.72354399337E+03  0.72382417097E+03  0.00000000000E+00 0. -1.
</event>
<event>
 4    1  0.6888348E+001  0.3433604E+02  0.7546771E-02  0.1385292E+00
          2   -1    0    0  502    0  0.00000000000E+00  0.00000000000E+00  0.24081563144E+03  0.24081563144E+03  0.00000000000E+00 0.  1.
         -2   -1    0    0    0  501 -0.00000000000E+00 -0.00000000000E+00 -0.50280325854E+01  0.50280325854E+01  0.00000000000E+00 0. -1.
          1    1    1    2  502    0  0.12362460489E+02  0.32033310417E+02  0.13783482914E+03  0.14204718768E+03  0.00000000000E+00 0.  1.
         -1    1    1    2    0  501 -0.12362460489E+02 -0.32033310417E+02  0.97952769719E+02  0.10379647634E+03  0.00000000000E+00 0. -1.
</event>
<event>
 4    1  0.6888348E+001  0.2017533E+02  0.7546771E-02  0.1531372E+00
          2   -1    0    0  502    0  0.00000000000E+00  0.00000000000E+00  0.27975989690E+01  0.27975989690E+01  0.00000000000E+00 0.  1.
         -2   -1    0    0    0  501 -0.00000000000E+00 -0.00000000000E+00 -0.15430915592E+03  0.15430915592E+03  0.00000000000E+00 0. -1.
          1    1    1    2  502    0 -0.11300299404E+02  0.16713683858E+02 -0.94527097733E+02  0.96656175181E+02  0.00000000000E+00 0. -1.
         -1    1    1    2    0  501  0.11300299404E+02 -0.16713683858E+02 -0.56984459215E+02  0.60450579705E+02  0.00000000000E+00 0.  1.
</event>
<event>
 4    1  0.6888348E+001  0.2350290E+02  0.7546771E-02  0.1486278E+00
          2   -1    0    0  502    0  0.00000000000E+00  0.00000000000E+00  0.22273975084E+02  0.22273975084E+02  0.00000000000E+00 0. -1.
         -2   -1    0    0    0  501 -0.00000000000E+00 -0.00000000000E+00 -0.27139336281E+02  0.27139336281E+02  0.00000000000E+00 0.  1.
          1    1    1    2  502    0 -0.23319018990E+02 -0.29342572717E+01 -0.96869604710E+01  0.25420930659E+02  0.00000000000E+00 0.  1.
         -1    1    1    2    0  501  0.23319018990E+02  0.29342572717E+01  0.48215992738E+01  0.23992380707E+02  0.00000000000E+00 0. -1.
</event>
<event>
 4    1  0.6888348E+001  0.2363539E+02  0.7546771E-02  0.1484670E+00
          2   -1    0    0  502    0  0.00000000000E+00  0.00000000000E+00  0.13382961979E+03  0.13382961979E+03  0.00000000000E+00 0.  1.
         -2   -1    0    0    0  501 -0.00000000000E+00 -0.00000000000E+00 -0.12512943927E+02  0.12512943927E+02  0.00000000000E+00 0. -1.
          1    1    1    2  502    0 -0.22915217020E+02 -0.57900349711E+01  0.12039091028E+03  0.12268904986E+03  0.00000000000E+00 0.  1.
         -1    1    1    2    0  501  0.22915217020E+02  0.57900349711E+01  0.92576558020E+00  0.23653513860E+02  0.00000000000E+00 0. -1.
</event>
<event>
 4    1  0.6888348E+001  0.3958184E+02  0.7546771E-02  0.1350954E+00
          2   -1    0    0  502    0  0.00000000000E+00  0.00000000000E+00  0.97219415730E+03  0.97219415730E+03  0.00000000000E+00 0. -1.
         -2   -1    0    0    0  501 -0.00000000000E+00 -0.00000000000E+00 -0.16119701709E+01  0.16119701709E+01  0.00000000000E+00 0.  1.
          1    1    1    2  502    0  0.17237608263E+02 -0.35631262041E+02  0.49331889640E+03  0.49490428925E+03  0.00000000000E+00 0. -1.
         -1    1    1    2    0  501 -0.17237608263E+02  0.35631262041E+02  0.47726329073E+03  0.47890183822E+03  0.00000000000E+00 0.  1.
</event>
<event>
 4    1  0.6888348E+001  0.2214072E+02  0.7546771E-02  0.1503579E+00
          2   -1    0    0  502    0  0.00000000000E+00  0.00000000000E+00  0.55602657314E+02  0.55602657314E+02  0.00000000000E+00 0. -1.
         -2   -1    0    0    0  501 -0.00000000000E+00 -0.00000000000E+00 -0.92727716270E+01  0.92727716270E+01  0.00000000000E+00 0.  1.
          1    1    1    2  502    0  0.18365296554E+02 -0.12366386293E+02  0.30361684839E+02  0.37577167719E+02  0.00000000000E+00 0.  1.
         -1    1    1    2    0  501 -0.18365296554E+02  0.12366386293E+02  0.15968200848E+02  0.27298261222E+02  0.00000000000E+00 0. -1.
</event>
<event>
 4    1  0.6888348E+001  0.4162945E+02  0.7546771E-02  0.1339193E+00
          2   -1    0    0  502    0  0.00000000000E+00  0.00000000000E+00  0.62231824956E+03  0.62231824956E+03  0.00000000000E+00 0.  1.
         -2   -1    0    0    0  501 -0.00000000000E+00 -0.00000000000E+00 -0.28293498253E+01  0.28293498253E+01  0.00000000000E+00 0. -1.
          1    1    1    2  502    0 -0.14854027124E+02 -0.38889190053E+02  0.27050762780E+03  0.27369214077E+03  0.00000000000E+00 0.  1.
         -1    1    1    2    0  501  0.14854027124E+02  0.38889190053E+02  0.34898127193E+03  0.35145545861E+03  0.00000000000E+00 0. -1.
</event>
<event>
 4    1  0.6888348E+001  0.2809756E+02  0.7546771E-02  0.1436884E+00
          2   -1    0    0  502    0  0.00000000000E+00  0.00000000000E+00  0.17612024709E+04  0.17612024709E+04  0.00000000000E+00 0. -1.
         -2   -1    0    0    0  501 -0.00000000000E+00 -0.00000000000E+00 -0.81461892815E+00  0.81461892815E+00  0.00000000000E+00 0.  1.
          1    1    1    2  502    0  0.17524697713E+02  0.21962648274E+02  0.28937078478E+03  0.29073170456E+03  0.00000000000E+00 0.  1.
         -1    1    1    2    0  501 -0.17524697713E+02 -0.21962648274E+02  0.14710170672E+04  0.14712853853E+04  0.00000000000E+00 0. -1.
</event>
<event>
 4    1  0.6888348E+001  0.2735297E+02  0.7546771E-02  0.1444094E+00
          2   -1    0    0  502    0  0.00000000000E+00  0.00000000000E+00  0.56766788474E+00  0.56766788474E+00  0.00000000000E+00 0. -1.
         -2   -1    0    0    0  501 -0.00000000000E+00 -0.00000000000E+00 -0.13799150620E+04  0.13799150620E+04  0.00000000000E+00 0.  1.
          1    1    1    2  502    0  0.26871477973E+02  0.51096735153E+01 -0.54346262812E+03  0.54415054282E+03  0.00000000000E+00 0. -1.
         -1    1    1    2    0  501 -0.26871477973E+02 -0.51096735153E+01 -0.83588476600E+03  0.83633218707E+03  0.00000000000E+00 0.  1.
</event>
<event>
 4    1  0.6888348E+001  0.2668651E+02  0.7546771E-02  0.1450783E+00
          2   -1    0    0  502    0  0.00000000000E+00  0.00000000000E+00  0.71108150886E+01  0.71108150886E+01  0.00000000000E+00 0.  1.
         -2   -1    0    0    0  501 -0.00000000000E+00 -0.00000000000E+00 -0.10179772393E+03  0.10179772393E+03  0.00000000000E+00 0. -1.
          1    1    1    2  502    0 -0.25903035274E+02  0.64189373591E+01 -0.54264944071E+02  0.60471928597E+02  0.00000000000E+00 0.  1.
         -1    1    1    2    0  501  0.25903035274E+02 -0.64189373591E+01 -0.40421964769E+02  0.48436610420E+02  0.00000000000E+00 0. -1.
</event>
<event>
 4    1  0.6888348E+001  0.2063031E+02  0.7546771E-02  0.1524609E+00
          2   -1    0    0  502    0  0.00000000000E+00  0.00000000000E+00  0.31135683478E+02  0.31135683478E+02  0.00000000000E+00 0.  1.
         -2   -1    0    0    0  501 -0.00000000000E+00 -0.00000000000E+00 -0.24950720588E+02  0.24950720588E+02  0.00000000000E+00 0. -1.
          1    1    1    2  502    0 -0.19643965901E+02 -0.63027306505E+01  0.21949096642E+02  0.30122626934E+02  0.00000000000E+00 0.  1.
         -1    1    1    2    0  501  0.19643965901E+02  0.63027306505E+01 -0.15764133753E+02  0.25963777132E+02  0.00000000000E+00 0. -1.
</event>
<event>
 4    1  0.6888348E+001  0.2995730E+02  0.7546771E-02  0.1419968E+00
          2   -1    0    0  502    0  0.00000000000E+00  0.00000000000E+00  0.10613466803E+02  0.10613466803E+02  0.00000000000E+00 0. -1.
         -2   -1    0    0    0  501 -0.00000000000E+00 -0.00000000000E+00 -0.10164562394E+03  0.10164562394E+03  0.00000000000E+00 0.  1.
          1    1    1    2  502    0  0.87548536916E+00  0.29944504418E+02 -0.68530731551E+02  0.74792385885E+02  0.00000000000E+00 0.  1.
         -1    1    1    2    0  501 -0.87548536916E+00 -0.29944504418E+02 -0.22501425588E+02  0.37466704859E+02  0.00000000000E+00 0. -1.
</event>
<event>
 4    1  0.6888348E+001  0.2118518E+02  0.7546771E-02  0.1516637E+00
          2   -1    0    0  502    0  0.00000000000E+00  0.00000000000E+00  0.38370544373E+02  0.38370544373E+02  0.00000000000E+00 0. -1.
         -2   -1    0    0    0  501 -0.00000000000E+00 -0.00000000000E+00 -0.11720911908E+02  0.11720911908E+02  0.00000000000E+00 0.  1.
          1    1    1    2  502    0 -0.48089121745E+01  0.20632163948E+02  0.14461256385E+02  0.25650336484E+02  0.00000000000E+00 0.  1.
         -1    1    1    2    0  501  0.48089121745E+01 -0.20632163948E+02  0.12188376080E+02  0.24441119797E+02  0.00000000000E+00 0. -1.
</event>
<event>
 4    1  0.6888348E+001  0.2258899E+02  0.7546771E-02  0.1497725E+00
          2   -1    0    0  502    0  0.00000000000E+00  0.00000000000E+00  0.12670038925E+03  0.12670038925E+03  0.00000000000E+00 0.  1.
         -2   -1    0    0    0  501 -0.00000000000E+00 -0.00000000000E+00 -0.42287307937E+01  0.42287307937E+01  0.00000000000E+00 0. -1.
          1    1    1    2  502    0 -0.21044637520E+02 -0.82088792590E+01  0.75523032986E+02  0.78828871478E+02  0.00000000000E+00 0.  1.
         -1    1    1    2    0  501  0.21044637520E+02  0.82088792590E+01  0.46948625467E+02  0.52100248563E+02  0.00000000000E+00 0. -1.
</event>
<event>
 4    1  0.6888348E+001  0.2289728E+02  0.7546771E-02  0.1493792E+00
          2   -1    0    0  502    0  0.00000000000E+00  0.00000000000E+00  0.31293197038E+02  0.31293197038E+02  0.00000000000E+00 0. -1.
         -2   -1    0    0    0  501 -0.00000000000E+00 -0.00000000000E+00 -0.29784445714E+02  0.29784445714E+02  0.00000000000E+00 0.  1.
          1    1    1    2  502    0  0.21891427030E+02  0.67119874646E+01 -0.19444984344E+02  0.30039853017E+02  0.00000000000E+00 0.  1.
         -1    1    1    2    0  501 -0.21891427030E+02 -0.67119874646E+01  0.20953735668E+02  0.31037789735E+02  0.00000000000E+00 0. -1.
</event>
<event>
 4    1  0.6888348E+001  0.2258785E+02  0.7546771E-02  0.1497739E+00
          2   -1    0    0  502    0  0.00000000000E+00  0.00000000000E+00  0.23498869127E+01  0.23498869127E+01  0.00000000000E+00 0. -1.
         -2   -1    0    0    0  501 -0.00000000000E+00 -0.00000000000E+00 -0.31350428321E+03  0.31350428321E+03  0.00000000000E+00 0.  1.
          1    1    1    2  502    0  0.64725611655E+00 -0.22578570128E+02 -0.68011340606E+02  0.71664169713E+02  0.00000000000E+00 0.  1.
         -1    1    1    2    0  501 -0.64725611655E+00  0.22578570128E+02 -0.24314305569E+03  0.24419000041E+03  0.00000000000E+00 0. -1.
</event>
<event>
 4    1  0.6888348E+001  0.2176315E+02  0.7546771E-02  0.1508642E+00
          2   -1    0    0  502    0  0.00000000000E+00  0.00000000000E+00  0.19126024266E+04  0.19126024266E+04  0.00000000000E+00 0.  1.
         -2   -1    0    0    0  501 -0.00000000000E+00 -0.00000000000E+00 -0.27913452135E+00  0.27913452135E+00  0.00000000000E+00 0. -1.
          1    1    1    2  502    0 -0.10183601800E+01 -0.21739314119E+02  0.63488723886E+03  0.63526013640E+03  0.00000000000E+00 0. -1.
         -1    1    1    2    0  501  0.10183601800E+01  0.21739314119E+02  0.12774360532E+04  0.12776214247E+04  0.00000000000E+00 0.  1.
</event>
<event>
 4    1  0.6888348E+001  0.4616218E+02  0.7546771E-02  0.1315728E+00
          2   -1    0    0  502    0  0.00000000000E+00  0.00000000000E+00  0.20762901825E+03  0.20762901825E+03  0.00000000000E+00 0. -1.
         -2   -1    0    0    0  501 -0.00000000000E+00 -0.00000000000E+00 -0.10264410248E+02  0.10264410248E+02  0.00000000000E+00 0.  1.
          1    1    1    2  502    0 -0.45987941016E+02  0.40070082992E+01  0.99844656736E+02  0.10999955597E+03  0.00000000000E+00 0. -1.
         -1    1    1    2    0  501  0.45987941016E+02 -0.40070082992E+01  0.97519951263E+02  0.10789387253E+03  0.00000000000E+00 0.  1.
</event>
<event>
 4    1  0.6888348E+001  0.2210643E+02  0.7546771E-02  0.1504034E+00
          2   -1    0    0  502    0  0.00000000000E+00  0.00000000000E+00  0.64016477531E+01  0.64016477531E+01  0.00000000000E+00 0. -1.
         -2   -1    0    0    0  501 -0.00000000000E+00 -0.00000000000E+00 -0.88303144691E+02  0.88303144691E+02  0.00000000000E+00 0.  1.
          1    1    1    2  502    0  0.18640823813E+02  0.11883342732E+02 -0.23520714949E+02  0.32278757390E+02  0.00000000000E+00 0. -1.
         -1    1    1    2    0  501 -0.18640823813E+02 -0.11883342732E+02 -0.58380781989E+02  0.62426035054E+02  0.00000000000E+00 0.  1.
</event>
<event>
 4    1  0.6888348E+001  0.3695769E+02  0.7546771E-02  0.1367299E+00
          2   -1    0    0  502    0  0.00000000000E+00  0.00000000000E+00  0.27265154809E+04  0.27265154809E+04  0.00000000000E+00 0. -1.
         -2   -1    0    0    0  501 -0.00000000000E+00 -0.00000000000E+00 -0.54617370830E+01  0.54617370830E+01  0.00000000000E+00 0.  1.
          1    1    1    2  502    0 -0.27649970226E+02  0.24522436306E+02  0.58689872981E+02  0.69356844841E+02  0.00000000000E+00 0.  1.
         -1    1    1    2    0  501  0.27649970226E+02 -0.24522436306E+02  0.26623638709E+04  0.26626203732E+04  0.00000000000E+00 0. -1.
</event>
<event>
 4    1  0.6888348E+001  0.2080544E+02  0.7546771E-02  0.1522061E+00
          2   -1    0    0  502    0  0.00000000000E+00  0.00000000000E+00  0.17570339917E+04  0.17570339917E+04  0.00000000000E+00 0. -1.
         -2   -1    0    0    0  501 -0.00000000000E+00 -0.00000000000E+00 -0.29865589913E+00  0.29865589913E+00  0.00000000000E+00 0.  1.
          1    1    1    2  502    0  0.19411622602E+02  0.74869964800E+01  0.12460429361E+04  0.12462166203E+04  0.00000000000E+00 0. -1.
         -1    1    1    2    0  501 -0.19411622602E+02 -0.74869964800E+01  0.51069239972E+03  0.51111602728E+03  0.00000000000E+00 0.  1.
</event>
<event>
 4    1  0.6888348E+001  0.2104023E+02  0.7546771E-02  0.1518691E+00
          2   -1    0    0  502    0  0.00000000000E+00  0.00000000000E+00  0.33012576873E+02  0.33012576873E+02  0.00000000000E+00 0. -1.
         -2   -1    0    0    0  501 -0.00000000000E+00 -0.00000000000E+00 -0.19544230095E+02  0.19544230095E+02  0.00000000000E+00 0.  1.
          1    1    1    2  502    0  0.20737298019E+02  0.35574726815E+01  0.21456545225E+02  0.30051197547E+02  0.00000000000E+00 0.  1.
         -1    1    1    2    0  501 -0.20737298019E+02 -0.35574726815E+01 -0.79881984471E+01  0.22505609421E+02  0.00000000000E+00 0. -1.
</event>
<event>
 4    1  0.6888348E+001  0.2962650E+02  0.7546771E-02  0.1422870E+00
          2   -1    0    0  502    0  0.00000000000E+00  0.00000000000E+00  0.29935585608E+03  0.29935585608E+03  0.00000000000E+00 0.  1.
         -2   -1    0    0    0  501 -0.00000000000E+00 -0.00000000000E+00 -0.42907461594E+01  0.42907461594E+01  0.00000000000E+00 0. -1.
          1    1    1    2  502    0  0.14683550641E+02 -0.25731750403E+02  0.23296669077E+03  0.23484294464E+03  0.00000000000E+00 0.  1.
         -1    1    1    2    0  501 -0.14683550641E+02  0.25731750403E+02  0.62098419149E+02  0.68803657599E+02  0.00000000000E+00 0. -1.
</event>
<event>
 4    1  0.6888348E+001  0.2075868E+02  0.7546771E-02  0.1522738E+00
          2   -1    0    0  502    0  0.00000000000E+00  0.00000000000E+00  0.59883336987E+03  0.59883336987E+03  0.00000000000E+00 0.  1.
         -2   -1    0    0    0  501 -0.00000000000E+00 -0.00000000000E+00 -0.87954693838E+00  0.87954693838E+00  0.00000000000E+00 0. -1.
          1    1    1    2  502    0 -0.19906395219E+02  0.58871366937E+01  0.42684621335E+03  0.42735069065E+03  0.00000000000E+00 0.  1.
         -1    1    1    2    0  501  0.19906395219E+02 -0.58871366937E+01  0.17110760959E+03  0.17236222616E+03  0.00000000000E+00 0. -1.
</event>
<event>
 4    1  0.6888348E+001  0.6446154E+02  0.7546771E-02  0.1245383E+00
          2   -1    0    0  502    0  0.00000000000E+00  0.00000000000E+00  0.73425492861E+02  0.73425492861E+02  0.00000000000E+00 0.  1.
         -2   -1    0    0    0  501 -0.00000000000E+00 -0.00000000000E+00 -0.66212576263E+02  0.66212576263E+02  0.00000000000E+00 0. -1.
          1    1    1    2  502    0  0.56059502465E+02  0.31821735609E+02  0.30220180574E+02  0.71193749640E+02  0.00000000000E+00 0.  1.
         -1    1    1    2    0  501 -0.56059502465E+02 -0.31821735609E+02 -0.23007263976E+02  0.68444319483E+02  0.00000000000E+00 0. -1.
</event>
<event>
 4    1  0.6888348E+001  0.2166527E+02  0.7546771E-02  0.1509975E+00
          2   -1    0    0  502    0  0.00000000000E+00  0.00000000000E+00  0.14816358465E+03  0.14816358465E+03  0.00000000000E+00 0. -1.
         -2   -1    0    0    0  501 -0.00000000000E+00 -0.00000000000E+00 -0.43232067965E+01  0.43232067965E+01  0.00000000000E+00 0.  1.
          1    1    1    2  502    0  0.62400346568E+01  0.20747191407E+02  0.11133204391E+03  0.11342049191E+03  0.00000000000E+00 0. -1.
         -1    1    1    2    0  501 -0.62400346568E+01 -0.20747191407E+02  0.32508333946E+02  0.39066299540E+02  0.00000000000E+00 0.  1.
</event>
<event>
 4    1  0.6888348E+001  0.2646965E+02  0.7546771E-02  0.1453010E+00
          2   -1    0    0  502    0  0.00000000000E+00  0.00000000000E+00  0.31026365025E+03  0.31026365025E+03  0.00000000000E+00 0. -1.
         -2   -1    0    0    0  501 -0.00000000000E+00 -0.00000000000E+00 -0.29165065968E+01  0.29165065968E+01  0.00000000000E+00 0.  1.
          1    1    1    2  502    0 -0.25986947362E+02  0.50319967712E+01  0.79278957797E+02  0.83581071865E+02  0.00000000000E+00 0.  1.
         -1    1    1    2    0  501  0.25986947362E+02 -0.50319967712E+01  0.22806818585E+03  0.22959908498E+03  0.00000000000E+00 0. -1.
</event>
<event>
 4    1  0.6888348E+001  0.2908564E+02  0.7546771E-02  0.1427712E+00
          2   -1    0    0  502    0  0.00000000000E+00  0.00000000000E+00  0.57980298611E+01  0.57980298611E+01  0.00000000000E+00 0.  1.
         -2   -1    0    0    0  501 -0.00000000000E+00 -0.00000000000E+00 -0.16659373382E+03  0.16659373382E+03  0.00000000000E+00 0. -1.
          1    1    1    2  502    0  0.21636304301E+02  0.19438227849E+02 -0.50023925627E+02  0.57865080150E+02  0.00000000000E+00 0.  1.
         -1    1    1    2    0  501 -0.21636304301E+02 -0.19438227849E+02 -0.11077177833E+03  0.11452668353E+03  0.00000000000E+00 0. -1.
</event>
<event>
 4    1  0.6888348E+001  0.2733171E+02  0.7546771E-02  0.1444304E+00
          2   -1    0    0  502    0  0.00000000000E+00  0.00000000000E+00  0.47411604241E+03  0.47411604241E+03  0.00000000000E+00 0.  1.
         -2   -1    0    0    0  501 -0.00000000000E+00 -0.00000000000E+00 -0.21462428648E+01  0.21462428648E+01  0.00000000000E+00 0. -1.
          1    1    1    2  502    0 -0.17151017699E+02 -0.21280630173E+02  0.11319726566E+03  0.11645017639E+03  0.00000000000E+00 0. -1.
         -1    1    1    2    0  501  0.17151017699E+02  0.21280630173E+02  0.35877253389E+03  0.35981210889E+03  0.00000000000E+00 0.  1.
</event>
<event>
 4    1  0.6888348E+001  0.7258217E+02  0.7546771E-02  0.1222202E+00
          2   -1    0    0  502    0  0.00000000000E+00  0.00000000000E+00  0.12022313587E+04  0.12022313587E+04  0.00000000000E+00 0.  1.
         -2   -1    0    0    0  501 -0.00000000000E+00 -0.00000000000E+00 -0.57084945820E+01  0.57084945820E+01  0.00000000000E+00 0. -1.
          1    1    1    2  502    0 -0.31266097391E+02 -0.65502695384E+02  0.88940557429E+03  0.89236228491E+03  0.00000000000E+00 0.  1.
         -1    1    1    2    0  501  0.31266097391E+02  0.65502695384E+02  0.30711728978E+03  0.31557756833E+03  0.00000000000E+00 0. -1.
</event>
<event>
 4    1  0.6888348E+001  0.2171312E+02  0.7546771E-02  0.1509322E+00
          2   -1    0    0  502    0  0.00000000000E+00  0.00000000000E+00  0.70426814030E+00  0.70426814030E+00  0.00000000000E+00 0.  1.
         -2   -1    0    0    0  501 -0.00000000000E+00 -0.00000000000E+00 -0.68104037147E+03  0.68104037147E+03  0.00000000000E+00 0. -1.
          1    1    1    2  502    0  0.18931123719E+02  0.10633535054E+02 -0.29566456315E+03  0.29646077889E+03  0.00000000000E+00 0. -1.
         -1    1    1    2    0  501 -0.18931123719E+02 -0.10633535054E+02 -0.38467154018E+03  0.38528386073E+03  0.00000000000E+00 0.  1.
</event>
<event>
 4    1  0.6888348E+001  0.3951962E+02  0.7546771E-02  0.1351324E+00
          2   -1    0    0  502    0  0.00000000000E+00  0.00000000000E+00  0.10388594278E+04  0.10388594278E+04  0.00000000000E+00 0.  1.
         -2   -1    0    0    0  501 -0.00000000000E+00 -0.00000000000E+00 -0.17235247192E+01  0.17235247192E+01  0.00000000000E+00 0. -1.
          1    1    1    2  502    0 -0.35464939183E+02 -0.17436699358E+02  0.33261966744E+03  0.33495916701E+03  0.00000000000E+00 0. -1.
         -1    1    1    2    0  501  0.35464939183E+02  0.17436699358E+02  0.70451623565E+03  0.70562378552E+03  0.00000000000E+00 0.  1.
</event>
<event>
 4    1  0.6888348E+001  0.2680787E+02  0.7546771E-02  0.1449548E+00
          2   -1    0    0  502    0  0.00000000000E+00  0.00000000000E+00  0.10784688823E+04  0.10784688823E+04  0.00000000000E+00 0.  1.
         -2   -1    0    0    0  501 -0.00000000000E+00 -0.00000000000E+00 -0.67698419176E+00  0.67698419176E+00  0.00000000000E+00 0. -1.
          1    1    1    2  502    0  0.21472121515E+02 -0.16050236999E+02  0.60644997193E+03  0.60704219834E+03  0.00000000000E+00 0.  1.
         -1    1    1    2    0  501 -0.21472121515E+02  0.16050236999E+02  0.47134192619E+03  0.47210366817E+03  0.00000000000E+00 0. -1.
</event>
<event>
 4    1  0.6888348E+001  0.3054997E+02  0.7546771E-02  0.1414876E+00
          2   -1    0    0  502    0  0.00000000000E+00  0.00000000000E+00  0.70157463471E+01  0.70157463471E+01  0.00000000000E+00 0.  1.
         -2   -1    0    0    0  501 -0.00000000000E+00 -0.00000000000E+00 -0.14171555904E+03  0.14171555904E+03  0.00000000000E+00 0. -1.
          1    1    1    2  502    0 -0.14633111940E+02  0.26817400842E+02 -0.48938964859E+02  0.57691621874E+02  0.00000000000E+00 0.  1.
         -1    1    1    2    0  501  0.14633111940E+02 -0.26817400842E+02 -0.85760847834E+02  0.91039683513E+02  0.00000000000E+00 0. -1.
</event>
<event>
 4    1  0.6888348E+001  0.3528582E+02  0.7546771E-02  0.1378565E+00
          2   -1    0    0  502    0  0.00000000000E+00  0.00000000000E+00  0.10306220993E+04  0.10306220993E+04  0.00000000000E+00 0.  1.
         -2   -1    0    0    0  501 -0.00000000000E+00 -0.00000000000E+00 -0.12095536371E+01  0.12095536371E+01  0.00000000000E+00 0. -1.
          1    1    1    2  502    0  0.53079381687E+01 -0.34884302635E+02  0.53262596187E+03  0.53379350318E+03  0.00000000000E+00 0.  1.
         -1    1    1    2    0  501 -0.53079381687E+01  0.34884302635E+02  0.49678658375E+03  0.49803814971E+03  0.00000000000E+00 0. -1.
</event>
<event>
 4    1  0.6888348E+001  0.2335333E+02  0.7546771E-02  0.1488108E+00
          2   -1    0    0  502    0  0.00000000000E+00  0.00000000000E+00  0.32146510742E+03  0.32146510742E+03  0.00000000000E+00 0.  1.
         -2   -1    0    0    0  501 -0.00000000000E+00 -0.00000000000E+00 -0.26897236061E+01  0.26897236061E+01  0.00000000000E+00 0. -1.
          1    1    1    2  502    0 -0.21553821006E+02 -0.89894892758E+01  0.60899617147E+02  0.65223780066E+02  0.00000000000E+00 0. -1.
         -1    1    1    2    0  501  0.21553821006E+02  0.89894892758E+01  0.25787576667E+03  0.25893105096E+03  0.00000000000E+00 0.  1.
</event>
<event>
 4    1  0.6888348E+001  0.2563629E+02  0.7546771E-02  0.1461810E+00
          2   -1    0    0  502    0  0.00000000000E+00  0.00000000000E+00  0.35116081820E+03  0.35116081820E+03  0.00000000000E+00 0.  1.
         -2   -1    0    0    0  501 -0.00000000000E+00 -0.00000000000E+00 -0.83539570860E+01  0.83539570860E+01  0.00000000000E+00 0. -1.
          1    1    1    2  502    0 -0.19544489876E+02 -0.16590127843E+02  0.13056970497E+02  0.28769843672E+02  0.00000000000E+00 0. -1.
         -1    1    1    2    0  501  0.19544489876E+02  0.16590127843E+02  0.32974989062E+03  0.33074493161E+03  0.00000000000E+00 0.  1.
</event>
<event>
 4    1  0.6888348E+001  0.3235004E+02  0.7546771E-02  0.1400216E+00
          2   -1    0    0  502    0  0.00000000000E+00  0.00000000000E+00  0.16773257251E+04  0.16773257251E+04  0.00000000000E+00 0.  1.
         -2   -1    0    0    0  501 -0.00000000000E+00 -0.00000000000E+00 -0.89129409014E+00  0.89129409014E+00  0.00000000000E+00 0. -1.
          1    1    1    2  502    0 -0.26697030515E+02 -0.18270017265E+02  0.37863475567E+03  0.38001421443E+03  0.00000000000E+00 0.  1.
         -1    1    1    2    0  501  0.26697030515E+02  0.18270017265E+02  0.12977996753E+04  0.12982028048E+04  0.00000000000E+00 0. -1.
</event>
<event>
 4    1  0.6888348E+001  0.3119301E+02  0.7546771E-02  0.1409505E+00
          2   -1    0    0  502    0  0.00000000000E+00  0.00000000000E+00  0.52480988118E+02  0.52480988118E+02  0.00000000000E+00 0. -1.
         -2   -1    0    0    0  501 -0.00000000000E+00 -0.00000000000E+00 -0.18600097161E+02  0.18600097161E+02  0.00000000000E+00 0.  1.
          1    1    1    2  502    0 -0.17678958306E+02  0.25699379141E+02  0.18958675228E+02  0.36502534452E+02  0.00000000000E+00 0.  1.
         -1    1    1    2    0  501  0.17678958306E+02 -0.25699379141E+02  0.14922215729E+02  0.34578550827E+02  0.00000000000E+00 0. -1.
</event>
<event>
 4    1  0.6888348E+001  0.2944520E+02  0.7546771E-02  0.1424480E+00
          2   -1    0    0  502    0  0.00000000000E+00  0.00000000000E+00  0.22722590674E+02  0.22722590674E+02  0.00000000000E+00 0. -1.
         -2   -1    0    0    0  501 -0.00000000000E+00 -0.00000000000E+00 -0.43652032404E+02  0.43652032404E+02  0.00000000000E+00 0.  1.
          1    1    1    2  502    0 -0.19985310036E+02 -0.21624221179E+02  0.13104164703E+01  0.29474340538E+02  0.00000000000E+00 0. -1.
         -1    1    1    2    0  501  0.19985310036E+02  0.21624221179E+02 -0.22239858199E+02  0.36900282540E+02  0.00000000000E+00 0.  1.
</event>
<event>
 4    1  0.6888348E+001  0.4591121E+02  0.7546771E-02  0.1316945E+00
          2   -1    0    0  502    0  0.00000000000E+00  0.00000000000E+00  0.85054758882E+02  0.85054758882E+02  0.00000000000E+00 0.  1.
         -2   -1    0    0    0  501 -0.00000000000E+00 -0.00000000000E+00 -0.24787787460E+02  0.24787787460E+02  0.00000000000E+00 0. -1.
          1    1    1    2  502    0 -0.10435178872E+02 -0.44709579714E+02  0.30962012923E+02  0.55375858644E+02  0.00000000000E+00 0. -1.
         -1    1    1    2    0  501  0.10435178872E+02  0.44709579714E+02  0.29304958499E+02  0.54466687699E+02  0.00000000000E+00 0.  1.
</event>
<event>
 4    1  0.6888348E+001  0.2139981E+02  0.7546771E-02  0.1513633E+00
          2   -1    0    0  502    0  0.00000000000E+00  0.00000000000E+00  0.61235389687E+03  0.61235389687E+03  0.00000000000E+00 0.  1.
         -2   -1    0    0    0  501 -0.00000000000E+00 -0.00000000000E+00 -0.16687127594E+01  0.16687127594E+01  0.00000000000E+00 0. -1.
          1    1    1    2  502    0  0.17579156489E+02 -0.12203488724E+02  0.77276948506E+02  0.80185277017E+02  0.00000000000E+00 0. -1.
         -1    1    1    2    0  501 -0.17579156489E+02  0.12203488724E+02  0.53340823560E+03  0.53383733261E+03  0.00000000000E+00 0.  1.
</event>
<event>
 4    1  0.6888348E+001  0.3148296E+02  0.7546771E-02  0.1407133E+00
          2   -1    0    0  502    0  0.00000000000E+00  0.00000000000E+00  0.20161274499E+04  0.20161274499E+04  0.00000000000E+00 0.  1.
         -2   -1    0    0    0  501 -0.00000000000E+00 -0.00000000000E+00 -0.55891707945E+00  0.55891707945E+00  0.00000000000E+00 0. -1.
          1    1    1    2  502    0 -0.30489375278E+02 -0.78469652533E+01  0.13576645857E+04  0.13580295667E+04  0.00000000000E+00 0.  1.
         -1    1    1    2    0  501  0.30489375278E+02  0.78469652533E+01  0.65790394711E+03  0.65865680024E+03  0.00000000000E+00 0. -1.
</event>
<event>
 4    1  0.6888348E+001  0.2036652E+02  0.7546771E-02  0.1528505E+00
          2   -1    0    0  502    0  0.00000000000E+00  0.00000000000E+00  0.51093445278E+03  0.51093445278E+03  0.00000000000E+00 0.  1.
         -2   -1    0    0    0  501 -0.00000000000E+00 -0.00000000000E+00 -0.20450877451E+01  0.20450877451E+01  0.00000000000E+00 0. -1.
          1    1    1    2  502    0  0.11223362105E+02  0.16995034988E+02  0.45362201612E+03  0.45407898937E+03  0.00000000000E+00 0.  1.
         -1    1    1    2    0  501 -0.11223362105E+02 -0.16995034988E+02  0.55267348911E+02  0.58900551159E+02  0.00000000000E+00 0. -1.
</event>
<event>
 4    1  0.6888348E+001  0.2118446E+02  0.7546771E-02  0.1516647E+00
          2   -1    0    0  502    0  0.00000000000E+00  0.00000000000E+00  0.22497528880E+04  0.22497528880E+04  0.00000000000E+00 0.  1.
         -2   -1    0    0    0  501 -0.00000000000E+00 -0.00000000000E+00 -0.20383885701E+00  0.20383885701E+00  0.00000000000E+00 0. -1.
          1    1    1    2  502    0 -0.12071000635E+02  0.17408967751E+02  0.96027080021E+03  0.96050444609E+03  0.00000000000E+00 0.  1.
         -1    1    1    2    0  501  0.12071000635E+02 -0.17408967751E+02  0.12892782489E+04  0.12894522807E+04  0.00000000000E+00 0. -1.
</event>
<event>
 4    1  0.6888348E+001  0.2753896E+02  0.7546771E-02  0.1442268E+00
          2   -1    0    0  502    0  0.00000000000E+00  0.00000000000E+00  0.69190308757E+02  0.69190308757E+02  0.00000000000E+00 0. -1.
         -2   -1    0    0    0  501 -0.00000000000E+00 -0.00000000000E+00 -0.75629692287E+02  0.75629692287E+02  0.00000000000E+00 0.  1.
          1    1    1    2  502    0 -0.26973415725E+02 -0.55524165524E+01  0.63737841703E+02  0.69432751281E+02  0.00000000000E+00 0. -1.
         -1    1    1    2    0  501  0.26973415725E+02  0.55524165524E+01 -0.70177225233E+02  0.75387249763E+02  0.00000000000E+00 0.  1.
</event>
<event>
 4    1  0.6888348E+001  0.2477985E+02  0.7546771E-02  0.1471281E+00
          2   -1    0    0  502    0  0.00000000000E+00  0.00000000000E+00  0.11501456213E+02  0.11501456213E+02  0.00000000000E+00 0.  1.
         -2   -1    0    0    0  501 -0.00000000000E+00 -0.00000000000E+00 -0.55226932439E+02  0.55226932439E+02  0.00000000000E+00 0. -1.
          1    1    1    2  502    0  0.16232381102E+02 -0.18723005585E+02 -0.27950726235E+02  0.37353503603E+02  0.00000000000E+00 0. -1.
         -1    1    1    2    0  501 -0.16232381102E+02  0.18723005585E+02 -0.15774749992E+02  0.29374885049E+02  0.00000000000E+00 0.  1.
</event>
<event>
 4    1  0.6888348E+001  0.2277965E+02  0.7546771E-02  0.1495284E+00
          2   -1    0    0  502    0  0.00000000000E+00  0.00000000000E+00  0.19415558111E+04  0.19415558111E+04  0.00000000000E+00 0.  1.
         -2   -1    0    0    0  501 -0.00000000000E+00 -0.00000000000E+00 -0.28190251913E+00  0.28190251913E+00  0.00000000000E+00 0. -1.
          1    1    1    2  502    0  0.11521316038E+02  0.19651258032E+02  0.11918680496E+04  0.11920857186E+04  0.00000000000E+00 0. -1.
         -1    1    1    2    0  501 -0.11521316038E+02 -0.19651258032E+02  0.74940585896E+03  0.74975199507E+03  0.00000000000E+00 0.  1.
</event>
<event>
 4    1  0.6888348E+001  0.2717318E+02  0.7546771E-02  0.1445876E+00
          2   -1    0    0  502    0  0.00000000000E+00  0.00000000000E+00  0.63754357272E+03  0.63754357272E+03  0.00000000000E+00 0. -1.
         -2   -1    0    0    0  501 -0.00000000000E+00 -0.00000000000E+00 -0.11738118320E+01  0.11738118320E+01  0.00000000000E+00 0.  1.
          1    1    1    2  502    0 -0.10510130845E+02 -0.25058308071E+02  0.28131507037E+03  0.28262439822E+03  0.00000000000E+00 0. -1.
         -1    1    1    2    0  501  0.10510130845E+02  0.25058308071E+02  0.35505469052E+03  0.35609298633E+03  0.00000000000E+00 0.  1.
</event>
<event>
 4    1  0.6888348E+001  0.3168787E+02  0.7546771E-02  0.1405475E+00
          2   -1    0    0  502    0  0.00000000000E+00  0.00000000000E+00  0.32979931504E+03  0.32979931504E+03  0.00000000000E+00 0.  1.
         -2   -1    0    0    0  501 -0.00000000000E+00 -0.00000000000E+00 -0.30641146958E+01  0.30641146958E+01  0.00000000000E+00 0. -1.
          1    1    1    2  502    0 -0.28548518519E+02  0.13751473905E+02  0.17663522874E+03  0.17945507788E+03  0.00000000000E+00 0.  1.
         -1    1    1    2    0  501  0.28548518519E+02 -0.13751473905E+02  0.15009997160E+03  0.15340835186E+03  0.00000000000E+00 0. -1.
</event>
<event>
 4    1  0.6888348E+001  0.2093416E+02  0.7546771E-02  0.1520207E+00
          2   -1    0    0  502    0  0.00000000000E+00  0.00000000000E+00  0.17212784411E+02  0.17212784411E+02  0.00000000000E+00 0.  1.
         -2   -1    0    0    0  501 -0.00000000000E+00 -0.00000000000E+00 -0.41821245295E+02  0.41821245295E+02  0.00000000000E+00 0. -1.
          1    1    1    2  502    0  0.19345361421E+02 -0.79997465499E+01 -0.30766326404E+02  0.37212978835E+02  0.00000000000E+00 0. -1.
         -1    1    1    2    0  501 -0.19345361421E+02  0.79997465499E+01  0.61578655197E+01  0.21821050871E+02  0.00000000000E+00 0.  1.
</event>
<event>
 4    1  0.6888348E+001  0.2463334E+02  0.7546771E-02  0.1472947E+00
          2   -1    0    0  502    0  0.00000000000E+00  0.00000000000E+00  0.10116933454E+03  0.10116933454E+03  0.00000000000E+00 0.  1.
         -2   -1    0    0    0  501 -0.00000000000E+00 -0.00000000000E+00 -0.61061820458E+01  0.61061820458E+01  0.00000000000E+00 0. -1.
          1    1    1    2  502    0 -0.23935101297E+02 -0.58234462689E+01  0.40388214523E+02  0.47307604810E+02  0.00000000000E+00 0. -1.
         -1    1    1    2    0  501  0.23935101297E+02  0.58234462689E+01  0.54674937968E+02  0.59967911772E+02  0.00000000000E+00 0.  1.
</event>
<event>
 4    1  0.6888348E+001  0.2213339E+02  0.7546771E-02  0.1503677E+00
          2   -1    0    0  502    0  0.00000000000E+00  0.00000000000E+00  0.40266145879E+03  0.40266145879E+03  0.00000000000E+00 0. -1.
         -2   -1    0    0    0  501 -0.00000000000E+00 -0.00000000000E+00 -0.18717651970E+01  0.18717651970E+01  0.00000000000E+00 0.  1.
          1    1    1    2  502    0  0.41102113887E+01 -0.21748408212E+02  0.32005963605E+03  0.32082402922E+03  0.00000000000E+00 0. -1.
         -1    1    1    2    0  501 -0.41102113887E+01  0.21748408212E+02  0.80730057543E+02  0.83709194765E+02  0.00000000000E+00 0.  1.
</event>
<event>
 4    1  0.6888348E+001  0.2014211E+02  0.7546771E-02  0.1531874E+00
          2   -1    0    0  502    0  0.00000000000E+00  0.00000000000E+00  0.33573027062E+03  0.33573027062E+03  0.00000000000E+00 0.  1.
         -2   -1    0    0    0  501 -0.00000000000E+00 -0.00000000000E+00 -0.47087924616E+01  0.47087924616E+01  0.00000000000E+00 0. -1.
          1    1    1    2  502    0 -0.79320131190E+01 -0.18514528531E+02  0.18749462039E+02  0.27518119950E+02  0.00000000000E+00 0. -1.
         -1    1    1    2    0  501  0.79320131190E+01  0.18514528531E+02  0.31227201612E+03  0.31292094313E+03  0.00000000000E+00 0.  1.
</event>
<event>
 4    1  0.6888348E+001  0.2720917E+02  0.7546771E-02  0.1445518E+00
          2   -1    0    0  502    0  0.00000000000E+00  0.00000000000E+00  0.34126792594E+03  0.34126792594E+03  0.00000000000E+00 0.  1.
         -2   -1    0    0    0  501 -0.00000000000E+00 -0.00000000000E+00 -0.25203841286E+01  0.25203841286E+01  0.00000000000E+00 0. -1.
          1    1    1    2  502    0 -0.10845211528E+02  0.24954359425E+02  0.10522535581E+03  0.10868631088E+03  0.00000000000E+00 0. -1.
         -1    1    1    2    0  501  0.10845211528E+02 -0.24954359425E+02  0.23352218600E+03  0.23510199919E+03  0.00000000000E+00 0.  1.
</event>
<event>
 4    1  0.6888348E+001  0.3064299E+02  0.7546771E-02  0.1414090E+00
          2   -1    0    0  502    0  0.00000000000E+00  0.00000000000E+00  0.24170247798E+03  0.24170247798E+03  0.00000000000E+00 0.  1.
         -2   -1    0    0    0  501 -0.00000000000E+00 -0.00000000000E+00 -0.46780713706E+01  0.46780713706E+01  0.00000000000E+00 0. -1.
          1    1    1    2  502    0 -0.30179432230E+02 -0.53098621392E+01  0.16923735275E+03  0.17198916923E+03  0.00000000000E+00 0.  1.
         -1    1    1    2    0  501  0.30179432230E+02  0.53098621392E+01  0.67787053854E+02  0.74391380118E+02  0.00000000000E+00 0. -1.
</event>
<event>
 4    1  0.6888348E+001  0.2012128E+02  0.7546771E-02  0.1532190E+00
          2   -1    0    0  502    0  0.00000000000E+00  0.00000000000E+00  0.21114392381E+01  0.21114392381E+01  0.00000000000E+00 0. -1.
         -2   -1    0    0    0  501 -0.00000000000E+00 -0.00000000000E+00 -0.22327020238E+03  0.22327020238E+03  0.00000000000E+00 0.  1.
          1    1    1    2  502    0  0.82153965394E+00 -0.20104498320E+02 -0.15292187677E+03  0.15423996296E+03  0.00000000000E+00 0.  1.
         -1    1    1    2    0  501 -0.82153965394E+00  0.20104498320E+02 -0.68236886376E+02  0.71141678659E+02  0.00000000000E+00 0. -1.
</event>
<event>
 4    1  0.6888348E+001  0.2043491E+02  0.7546771E-02  0.1527488E+00
          2   -1    0    0  502    0  0.00000000000E+00  0.00000000000E+00  0.29946292326E+03  0.29946292326E+03  0.00000000000E+00 0.  1.
         -2   -1    0    0    0  501 -0.00000000000E+00 -0.00000000000E+00 -0.16776158240E+01  0.16776158240E+01  0.00000000000E+00 0. -1.
          1    1    1    2  502    0  0.20179787396E+02 -0.32189598947E+01  0.87031957948E+02  0.89398809983E+02  0.00000000000E+00 0. -1.
         -1    1    1    2    0  501 -0.20179787396E+02  0.32189598947E+01  0.21075334949E+03  0.21174172910E+03  0.00000000000E+00 0.  1.
</event>
<event>
 4    1  0.6888348E+001  0.2605284E+02  0.7546771E-02  0.1457362E+00
          2   -1    0    0  502    0  0.00000000000E+00  0.00000000000E+00  0.15281032028E+04  0.15281032028E+04  0.00000000000E+00 0.  1.
         -2   -1    0    0    0  501 -0.00000000000E+00 -0.00000000000E+00 -0.83910955137E+00  0.83910955137E+00  0.00000000000E+00 0. -1.
          1    1    1    2  502    0 -0.20739816284E+02 -0.15767379630E+02  0.23917184477E+03  0.24058661968E+03  0.00000000000E+00 0. -1.
         -1    1    1    2    0  501  0.20739816284E+02  0.15767379630E+02  0.12880922485E+04  0.12883556927E+04  0.00000000000E+00 0.  1.
</event>
<event>
 4    1  0.6888348E+001  0.6284087E+02  0.7546771E-02  0.1250474E+00
          2   -1    0    0  502    0  0.00000000000E+00  0.00000000000E+00  0.86114532790E+01  0.86114532790E+01  0.00000000000E+00 0. -1.
         -2   -1    0    0    0  501 -0.00000000000E+00 -0.00000000000E+00 -0.65326633085E+03  0.65326633085E+03  0.00000000000E+00 0.  1.
          1    1    1    2  502    0 -0.31604664148E+02  0.54315009161E+02 -0.50299444558E+03  0.50690471225E+03  0.00000000000E+00 0. -1.
         -1    1    1    2    0  501  0.31604664148E+02 -0.54315009161E+02 -0.14166043200E+03  0.15497307188E+03  0.00000000000E+00 0.  1.
</event>
<event>
 4    1  0.6888348E+001  0.2052520E+02  0.7546771E-02  0.1526153E+00
          2   -1    0    0  502    0  0.00000000000E+00  0.00000000000E+00  0.97630441719E+03  0.97630441719E+03  0.00000000000E+00 0. -1.
         -2   -1    0    0    0  501 -0.00000000000E+00 -0.00000000000E+00 -0.44289387381E+00  0.44289387381E+00  0.00000000000E+00 0.  1.
          1    1    1    2  502    0 -0.20028946667E+02 -0.44861259917E+01  0.40962951329E+03  0.41014341661E+03  0.00000000000E+00 0.  1.
         -1    1    1    2    0  501  0.20028946667E+02  0.44861259917E+01  0.56623201003E+03  0.56660389446E+03  0.00000000000E+00 0. -1.
</event>
<event>
 4    1  0.6888348E+001  0.2582413E+02  0.7546771E-02  0.1459791E+00
          2   -1    0    0  502    0  0.00000000000E+00  0.00000000000E+00  0.11566141710E+03  0.11566141710E+03  0.00000000000E+00 0.  1.
         -2   -1    0    0    0  501 -0.00000000000E+00 -0.00000000000E+00 -0.74748195505E+01  0.74748195505E+01  0.00000000000E+00 0. -1.
          1    1    1    2  502    0 -0.95048110075E+01  0.24011339180E+02  0.83532314141E+02  0.87433022064E+02  0.00000000000E+00 0.  1.
         -1    1    1    2    0  501  0.95048110075E+01 -0.24011339180E+02  0.24654283412E+02  0.35703214590E+02  0.00000000000E+00 0. -1.
</event>
<event>
 4    1  0.6888348E+001  0.2107907E+02  0.7546771E-02  0.1518139E+00
          2   -1    0    0  502    0  0.00000000000E+00  0.00000000000E+00  0.13911597599E+02  0.13911597599E+02  0.00000000000E+00 0. -1.
         -2   -1    0    0    0  501 -0.00000000000E+00 -0.00000000000E+00 -0.33145572695E+02  0.33145572695E+02  0.00000000000E+00 0.  1.
          1    1    1    2  502    0  0.75224253645E+00  0.21065647943E+02 -0.51285343431E+01  0.21693991256E+02  0.00000000000E+00 0. -1.
         -1    1    1    2    0  501 -0.75224253645E+00 -0.21065647943E+02 -0.14105440752E+02  0.25363179038E+02  0.00000000000E+00 0.  1.
</event>
<event>
 4    1  0.6888348E+001  0.2463109E+02  0.7546771E-02  0.1472973E+00
          2   -1    0    0  502    0  0.00000000000E+00  0.00000000000E+00  0.74105924640E+02  0.74105924640E+02  0.00000000000E+00 0.  1.
         -2   -1    0    0    0  501 -0.00000000000E+00 -0.00000000000E+00 -0.95723757835E+01  0.95723757835E+01  0.00000000000E+00 0. -1.
          1    1    1    2  502    0  0.10090568442E+02  0.22469333919E+02  0.16348800061E+02  0.29563047909E+02  0.00000000000E+00 0. -1.
         -1    1    1    2    0  501 -0.10090568442E+02 -0.22469333919E+02  0.48184748795E+02  0.54115252515E+02  0.00000000000E+00 0.  1.
</event>
<event>
 4    1  0.6888348E+001  0.2473355E+02  0.7546771E-02  0.1471806E+00
          2   -1    0    0  502    0  0.00000000000E+00  0.00000000000E+00  0.74362867184E+02  0.74362867184E+02  0.00000000000E+00 0.  1.
         -2   -1    0    0    0  501 -0.00000000000E+00 -0.00000000000E+00 -0.88160900265E+01  0.88160900265E+01  0.00000000000E+00 0. -1.
          1    1    1    2  502    0 -0.20635525278E+02  0.13635387942E+02  0.43528322551E+02  0.50064593996E+02  0.00000000000E+00 0. -1.
         -1    1    1    2    0  501  0.20635525278E+02 -0.13635387942E+02  0.22018454606E+02  0.33114363214E+02  0.00000000000E+00 0.  1.
</event>
<event>
 4    1  0.6888348E+001  0.2196825E+02  0.7546771E-02  0.1505877E+00
          2   -1    0    0  502    0  0.00000000000E+00  0.00000000000E+00  0.14269723960E+03  0.14269723960E+03  0.00000000000E+00 0. -1.
         -2   -1    0    0    0  501 -0.00000000000E+00 -0.00000000000E+00 -0.42500483780E+01  0.42500483780E+01  0.00000000000E+00 0.  1.
          1    1    1    2  502    0  0.92059919085E+01  0.19946268896E+02  0.10242858435E+03  0.10475790577E+03  0.00000000000E+00 0. -1.
         -1    1    1    2    0  501 -0.92059919085E+01 -0.19946268896E+02  0.36018606874E+02  0.42189382207E+02  0.00000000000E+00 0.  1.
</event>
<event>
 4    1  0.6888348E+001  0.3916577E+02  0.7546771E-02  0.1353445E+00
          2   -1    0    0  502    0  0.00000000000E+00  0.00000000000E+00  0.37746992528E+03  0.37746992528E+03  0.00000000000E+00 0.  1.
         -2   -1    0    0    0  501 -0.00000000000E+00 -0.00000000000E+00 -0.50605765841E+01  0.50605765841E+01  0.00000000000E+00 0. -1.
          1    1    1    2  502    0  0.36570043247E+02  0.14021040578E+02  0.27109098634E+03  0.27390560512E+03  0.00000000000E+00 0.  1.
         -1    1    1    2    0  501 -0.36570043247E+02 -0.14021040578E+02  0.10131836236E+03  0.10862489675E+03  0.00000000000E+00 0. -1.
</event>
<event>
 4    1  0.6888348E+001  0.3333465E+02  0.7546771E-02  0.1392665E+00
          2   -1    0    0  502    0  0.00000000000E+00  0.00000000000E+00  0.16757900972E+04  0.16757900972E+04  0.00000000000E+00 0. -1.
         -2   -1    0    0    0  501 -0.00000000000E+00 -0.00000000000E+00 -0.53849690186E+01  0.53849690186E+01  0.00000000000E+00 0.  1.
          1    1    1    2  502    0 -0.28999021870E+02 -0.16439446222E+02  0.48068340795E+02  0.58495846420E+02  0.00000000000E+00 0.  1.
         -1    1    1    2    0  501  0.28999021870E+02  0.16439446222E+02  0.16223367874E+04  0.16226792198E+04  0.00000000000E+00 0. -1.
</event>
<event>
 4    1  0.6888348E+001  0.2051994E+02  0.7546771E-02  0.1526230E+00
          2   -1    0    0  502    0  0.00000000000E+00  0.00000000000E+00  0.29383244506E+03  0.29383244506E+03  0.00000000000E+00 0. -1.
         -2   -1    0    0    0  501 -0.00000000000E+00 -0.00000000000E+00 -0.15859274090E+01  0.15859274090E+01  0.00000000000E+00 0.  1.
          1    1    1    2  502    0 -0.73999255581E+01  0.19139203487E+02  0.10025851549E+03  0.10233688454E+03  0.00000000000E+00 0.  1.
         -1    1    1    2    0  501  0.73999255581E+01 -0.19139203487E+02  0.19198800216E+03  0.19308148793E+03  0.00000000000E+00 0. -1.
</event>
<event>
 4    1  0.6888348E+001  0.5000262E+02  0.7546771E-02  0.1298161E+00
          2   -1    0    0  502    0  0.00000000000E+00  0.00000000000E+00  0.82085406108E+01  0.82085406108E+01  0.00000000000E+00 0. -1.
         -2   -1    0    0    0  501 -0.00000000000E+00 -0.00000000000E+00 -0.30586674322E+03  0.30586674322E+03  0.00000000000E+00 0.  1.
          1    1    1    2  502    0 -0.42328412749E+02 -0.26618925433E+02 -0.15896415838E+03  0.16664292775E+03  0.00000000000E+00 0.  1.
         -1    1    1    2    0  501  0.42328412749E+02  0.26618925433E+02 -0.13869404423E+03  0.14743235609E+03  0.00000000000E+00 0. -1.
</event>
<event>
 4    1  0.6888348E+001  0.3759699E+02  0.7546771E-02  0.1363173E+00
          2   -1    0    0  502    0  0.00000000000E+00  0.00000000000E+00  0.47076959708E+02  0.47076959708E+02  0.00000000000E+00 0. -1.
         -2   -1    0    0    0  501 -0.00000000000E+00 -0.00000000000E+00 -0.30173784111E+02  0.30173784111E+02  0.00000000000E+00 0.  1.
          1    1    1    2  502    0  0.34485977681E+02  0.14975005386E+02  0.57485548156E+01  0.38033923350E+02  0.00000000000E+00 0. -1.
         -1    1    1    2    0  501 -0.34485977681E+02 -0.14975005386E+02  0.11154620781E+02  0.39216820469E+02  0.00000000000E+00 0.  1.
</event>
<event>
 4    1  0.6888348E+001  0.2496534E+02  0.7546771E-02  0.1469192E+00
          2   -1    0    0  502    0  0.00000000000E+00  0.00000000000E+00  0.33841235968E+03  0.33841235968E+03  0.00000000000E+00 0. -1.
         -2   -1    0    0    0  501 -0.00000000000E+00 -0.00000000000E+00 -0.19288900345E+01  0.19288900345E+01  0.00000000000E+00 0.  1.
          1    1    1    2  502    0  0.10795109496E+02  0.22510745760E+02  0.20441278133E+03  0.20593167128E+03  0.00000000000E+00 0. -1.
         -1    1    1    2    0  501 -0.10795109496E+02 -0.22510745760E+02  0.13207068831E+03  0.13440957843E+03  0.00000000000E+00 0.  1.
</event>
<event>
 4    1  0.6888348E+001  0.2205026E+02  0.7546771E-02  0.1504781E+00
          2   -1    0    0  502    0  0.00000000000E+00  0.00000000000E+00  0.11809936251E+04  0.11809936251E+04  0.00000000000E+00 0.  1.
         -2   -1    0    0    0  501 -0.00000000000E+00 -0.00000000000E+00 -0.89321561142E+00  0.89321561142E+00  0.00000000000E+00 0. -1.
          1    1    1    2  502    0  0.50678545312E+01  0.21459977488E+02  0.15616641133E+03  0.15771544570E+03  0.00000000000E+00 0. -1.
         -1    1    1    2    0  501 -0.50678545312E+01 -0.21459977488E+02  0.10239339982E+04  0.10241713951E+04  0.00000000000E+00 0.  1.
</event>
<event>
 4    1  0.6888348E+001  0.2827427E+02  0.7546771E-02  0.1435211E+00
          2   -1    0    0  502    0  0.00000000000E+00  0.00000000000E+00  0.30859295597E+02  0.30859295597E+02  0.00000000000E+00 0. -1.
         -2   -1    0    0    0  501 -0.00000000000E+00 -0.00000000000E+00 -0.43361776820E+02  0.43361776820E+02  0.00000000000E+00 0.  1.
          1    1    1    2  502    0 -0.27395850655E+02  0.69929780208E+01  0.17294693265E+02  0.33144242182E+02  0.00000000000E+00 0. -1.
         -1    1    1    2    0  501  0.27395850655E+02 -0.69929780208E+01 -0.29797174488E+02  0.41076830235E+02  0.00000000000E+00 0.  1.
</event>
<event>
 4    1  0.6888348E+001  0.2070624E+02  0.7546771E-02  0.1523501E+00
          2   -1    0    0  502    0  0.00000000000E+00  0.00000000000E+00  0.84242289718E+03  0.84242289718E+03  0.00000000000E+00 0. -1.
         -2   -1    0    0    0  501 -0.00000000000E+00 -0.00000000000E+00 -0.53681164849E+00  0.53681164849E+00  0.00000000000E+00 0.  1.
          1    1    1    2  502    0  0.11306509736E+02  0.17346792883E+02  0.32491575113E+03  0.32557486653E+03  0.00000000000E+00 0. -1.
         -1    1    1    2    0  501 -0.11306509736E+02 -0.17346792883E+02  0.51697033440E+03  0.51738484230E+03  0.00000000000E+00 0.  1.
</event>
<event>
 4    1  0.6888348E+001  0.2613563E+02  0.7546771E-02  0.1456490E+00
          2   -1    0    0  502    0  0.00000000000E+00  0.00000000000E+00  0.22177652746E+04  0.22177652746E+04  0.00000000000E+00 0.  1.
         -2   -1    0    0    0  501 -0.00000000000E+00 -0.00000000000E+00 -0.32633652077E+00  0.32633652077E+00  0.00000000000E+00 0. -1.
          1    1    1    2  502    0 -0.19394025757E+02 -0.17519782458E+02  0.84582659915E+03  0.84623029185E+03  0.00000000000E+00 0. -1.
         -1    1    1    2    0  501  0.19394025757E+02  0.17519782458E+02  0.13716123390E+04  0.13718613193E+04  0.00000000000E+00 0.  1.
</event>
<event>
 4    1  0.6888348E+001  0.2059601E+02  0.7546771E-02  0.1525112E+00
          2   -1    0    0  502    0  0.00000000000E+00  0.00000000000E+00  0.25694950581E+03  0.25694950581E+03  0.00000000000E+00 0. -1.
         -2   -1    0    0    0  501 -0.00000000000E+00 -0.00000000000E+00 -0.17126100498E+01  0.17126100498E+01  0.00000000000E+00 0.  1.
          1    1    1    2  502    0 -0.67646956354E-01 -0.20595899821E+02  0.10306668572E+03  0.10510441175E+03  0.00000000000E+00 0.  1.
         -1    1    1    2    0  501  0.67646956354E-01  0.20595899821E+02  0.15217021005E+03  0.15355770411E+03  0.00000000000E+00 0. -1.
</event>
<event>
 4    1  0.6888348E+001  0.3570112E+02  0.7546771E-02  0.1375700E+00
          2   -1    0    0  502    0  0.00000000000E+00  0.00000000000E+00  0.38063184705E+04  0.38063184705E+04  0.00000000000E+00 0. -1.
         -2   -1    0    0    0  501 -0.00000000000E+00 -0.00000000000E+00 -0.38219186397E+00  0.38219186397E+00  0.00000000000E+00 0.  1.
          1    1    1    2  502    0 -0.53442907364E+01  0.35298844129E+02  0.12331272640E+04  0.12336439596E+04  0.00000000000E+00 0. -1.
         -1    1    1    2    0  501  0.53442907364E+01 -0.35298844129E+02  0.25728090146E+04  0.25730567027E+04  0.00000000000E+00 0.  1.
</event>
<event>
 4    1  0.6888348E+001  0.3151759E+02  0.7546771E-02  0.1406852E+00
          2   -1    0    0  502    0  0.00000000000E+00  0.00000000000E+00  0.15655160521E+04  0.15655160521E+04  0.00000000000E+00 0. -1.
         -2   -1    0    0    0  501 -0.00000000000E+00 -0.00000000000E+00 -0.63809975271E+00  0.63809975271E+00  0.00000000000E+00 0.  1.
          1    1    1    2  502    0 -0.29992810024E+02  0.96845291131E+01  0.84105218165E+03  0.84164251973E+03  0.00000000000E+00 0.  1.
         -1    1    1    2    0  501  0.29992810024E+02 -0.96845291131E+01  0.72382577068E+03  0.72451163210E+03  0.00000000000E+00 0. -1.
</event>
<event>
 4    1  0.6888348E+001  0.3404200E+02  0.7546771E-02  0.1387426E+00
          2   -1    0    0  502    0  0.00000000000E+00  0.00000000000E+00  0.79629739703E+01  0.79629739703E+01  0.00000000000E+00 0.  1.
         -2   -1    0    0    0  501 -0.00000000000E+00 -0.00000000000E+00 -0.23663715342E+03  0.23663715342E+03  0.00000000000E+00 0. -1.
          1    1    1    2  502    0 -0.22951624719E+02  0.25141217415E+02 -0.38451454550E+02  0.51355352665E+02  0.00000000000E+00 0.  1.
         -1    1    1    2    0  501  0.22951624719E+02 -0.25141217415E+02 -0.19022272490E+03  0.19324477472E+03  0.00000000000E+00 0. -1.
</event>
<event>
 4    1  0.6888348E+001  0.2625217E+02  0.7546771E-02  0.1455268E+00
          2   -1    0    0  502    0  0.00000000000E+00  0.00000000000E+00  0.12540837692E+02  0.12540837692E+02  0.00000000000E+00 0. -1.
         -2   -1    0    0    0  501 -0.00000000000E+00 -0.00000000000E+00 -0.10668404151E+03  0.10668404151E+03  0.00000000000E+00 0.  1.
          1    1    1    2  502    0  0.11726227037E+02 -0.23487702841E+02 -0.88581924182E+02  0.92390117854E+02  0.00000000000E+00 0.  1.
         -1    1    1    2    0  501 -0.11726227037E+02  0.23487702841E+02 -0.55612796323E+01  0.26834761344E+02  0.00000000000E+00 0. -1.
</event>
<event>
 4    1  0.6888348E+001  0.4052639E+02  0.7546771E-02  0.1345428E+00
          2   -1    0    0  502    0  0.00000000000E+00  0.00000000000E+00  0.60320876989E+03  0.60320876989E+03  0.00000000000E+00 0.  1.
         -2   -1    0    0    0  501 -0.00000000000E+00 -0.00000000000E+00 -0.27315664104E+01  0.27315664104E+01  0.00000000000E+00 0. -1.
          1    1    1    2  502    0 -0.10552945873E+02 -0.39128295655E+02  0.31744849804E+03  0.32002490074E+03  0.00000000000E+00 0.  1.
         -1    1    1    2    0  501  0.10552945873E+02  0.39128295655E+02  0.28302870544E+03  0.28591543556E+03  0.00000000000E+00 0. -1.
</event>
<event>
 4    1  0.6888348E+001  0.4053653E+02  0.7546771E-02  0.1345370E+00
          2   -1    0    0  502    0  0.00000000000E+00  0.00000000000E+00  0.16910783230E+01  0.16910783230E+01  0.00000000000E+00 0.  1.
         -2   -1    0    0    0  501 -0.00000000000E+00 -0.00000000000E+00 -0.11358354219E+04  0.11358354219E+04  0.00000000000E+00 0. -1.
          1    1    1    2  502    0  0.25981263029E+02 -0.31115654112E+02 -0.78328600019E+03  0.78433421961E+03  0.00000000000E+00 0. -1.
         -1    1    1    2    0  501 -0.25981263029E+02  0.31115654112E+02 -0.35085834336E+03  0.35319228058E+03  0.00000000000E+00 0.  1.
</event>
<event>
 4    1  0.6888348E+001  0.3377192E+02  0.7546771E-02  0.1389409E+00
          2   -1    0    0  502    0  0.00000000000E+00  0.00000000000E+00  0.56821354914E+03  0.56821354914E+03  0.00000000000E+00 0.  1.
         -2   -1    0    0    0  501 -0.00000000000E+00 -0.00000000000E+00 -0.24148072249E+01  0.24148072249E+01  0.00000000000E+00 0. -1.
          1    1    1    2  502    0  0.13398212156E+02  0.31000491674E+02  0.16568516815E+03  0.16909203860E+03  0.00000000000E+00 0.  1.
         -1    1    1    2    0  501 -0.13398212156E+02 -0.31000491674E+02  0.40011357376E+03  0.40153631776E+03  0.00000000000E+00 0. -1.
</event>
<event>
 4    1  0.6888348E+001  0.2129125E+02  0.7546771E-02  0.1515147E+00
          2   -1    0    0  502    0  0.00000000000E+00  0.00000000000E+00  0.37915750592E+01  0.37915750592E+01  0.00000000000E+00 0.  1.
         -2   -1    0    0    0  501 -0.00000000000E+00 -0.00000000000E+00 -0.12310667113E+03  0.12310667113E+03  0.00000000000E+00 0. -1.
          1    1    1    2  502    0 -0.90472403403E+01  0.19273419640E+02 -0.48886672182E+02  0.53321890246E+02  0.00000000000E+00 0.  1.
         -1    1    1    2    0  501  0.90472403403E+01 -0.19273419640E+02 -0.70428423893E+02  0.73576355947E+02  0.00000000000E+00 0. -1.
</event>
<event>
 4    1  0.6888348E+001  0.3314196E+02  0.7546771E-02  0.1394118E+00
          2   -1    0    0  502    0  0.00000000000E+00  0.00000000000E+00  0.75419393987E+02  0.75419393987E+02  0.00000000000E+00 0.  1.
         -2   -1    0    0    0  501 -0.00000000000E+00 -0.00000000000E+00 -0.14833200636E+02  0.14833200636E+02  0.00000000000E+00 0. -1.
          1    1    1    2  502    0 -0.17026915621E+02  0.28433666339E+02  0.24211025942E+02  0.41043428393E+02  0.00000000000E+00 0. -1.
         -1    1    1    2    0  501  0.17026915621E+02 -0.28433666339E+02  0.36375167408E+02  0.49209166230E+02  0.00000000000E+00 0.  1.
</event>
<event>
 4    1  0.6888348E+001  0.2869852E+02  0.7546771E-02  0.1431254E+00
          2   -1    0    0  502    0  0.00000000000E+00  0.00000000000E+00  0.11391301386E+04  0.11391301386E+04  0.00000000000E+00 0.  1.
         -2   -1    0    0    0  501 -0.00000000000E+00 -0.00000000000E+00 -0.12349044081E+01  0.12349044081E+01  0.00000000000E+00 0. -1.
          1    1    1    2  502    0 -0.18657393824E+02 -0.21806116608E+02  0.93604937161E+03  0.93648920504E+03  0.00000000000E+00 0.  1.
         -1    1    1    2    0  501  0.18657393824E+02  0.21806116608E+02  0.20184586263E+03  0.20387583802E+03  0.00000000000E+00 0. -1.
</event>
<event>
 4    1  0.6888348E+001  0.4603959E+02  0.7546771E-02  0.1316321E+00
          2   -1    0    0  502    0  0.00000000000E+00  0.00000000000E+00  0.18415300673E+04  0.18415300673E+04  0.00000000000E+00 0.  1.
         -2   -1    0    0    0  501 -0.00000000000E+00 -0.00000000000E+00 -0.14231325247E+01  0.14231325247E+01  0.00000000000E+00 0. -1.
          1    1    1    2  502    0 -0.13209110258E+02  0.44104007615E+02  0.13229868435E+04  0.13237876840E+04  0.00000000000E+00 0.  1.
         -1    1    1    2    0  501  0.13209110258E+02 -0.44104007615E+02  0.51712009126E+03  0.51916551587E+03  0.00000000000E+00 0. -1.
</event>
<event>
 4    1  0.6888348E+001  0.2941394E+02  0.7546771E-02  0.1424759E+00
          2   -1    0    0  502    0  0.00000000000E+00  0.00000000000E+00  0.11268559182E+02  0.11268559182E+02  0.00000000000E+00 0. -1.
         -2   -1    0    0    0  501 -0.00000000000E+00 -0.00000000000E+00 -0.81811564741E+02  0.81811564741E+02  0.00000000000E+00 0.  1.
          1    1    1    2  502    0  0.26709698391E+02 -0.12319577159E+02 -0.46815274794E+02  0.55288786599E+02  0.00000000000E+00 0.  1.
         -1    1    1    2    0  501 -0.26709698391E+02  0.12319577159E+02 -0.23727730765E+02  0.37791337324E+02  0.00000000000E+00 0. -1.
</event>
<event>
 4    1  0.6888348E+001  0.2204860E+02  0.7546771E-02  0.1504803E+00
          2   -1    0    0  502    0  0.00000000000E+00  0.00000000000E+00  0.35395094407E+03  0.35395094407E+03  0.00000000000E+00 0.  1.
         -2   -1    0    0    0  501 -0.00000000000E+00 -0.00000000000E+00 -0.18993540814E+01  0.18993540814E+01  0.00000000000E+00 0. -1.
          1    1    1    2  502    0 -0.51827721218E+01 -0.21430807790E+02  0.82403389331E+02  0.85302164232E+02  0.00000000000E+00 0. -1.
         -1    1    1    2    0  501  0.51827721218E+01  0.21430807790E+02  0.26964820065E+03  0.27054813391E+03  0.00000000000E+00 0.  1.
</event>
<event>
 4    1  0.6888348E+001  0.4199590E+02  0.7546771E-02  0.1337171E+00
          2   -1    0    0  502    0  0.00000000000E+00  0.00000000000E+00  0.83624379053E+03  0.83624379053E+03  0.00000000000E+00 0.  1.
         -2   -1    0    0    0  501 -0.00000000000E+00 -0.00000000000E+00 -0.24870220748E+01  0.24870220748E+01  0.00000000000E+00 0. -1.
          1    1    1    2  502    0 -0.41925551249E+02 -0.24296913241E+01  0.58037155671E+03  0.58188899206E+03  0.00000000000E+00 0.  1.
         -1    1    1    2    0  501  0.41925551249E+02  0.24296913241E+01  0.25338521174E+03  0.25684182054E+03  0.00000000000E+00 0. -1.
</event>
<event>
 4    1  0.6888348E+001  0.2170442E+02  0.7546771E-02  0.1509441E+00
          2   -1    0    0  502    0  0.00000000000E+00  0.00000000000E+00  0.22599641926E+02  0.22599641926E+02  0.00000000000E+00 0. -1.
         -2   -1    0    0    0  501 -0.00000000000E+00 -0.00000000000E+00 -0.31480271336E+02  0.31480271336E+02  0.00000000000E+00 0.  1.
          1    1    1    2  502    0  0.19598294212E+02  0.93267627112E+01  0.11276631949E+02  0.24459028329E+02  0.00000000000E+00 0. -1.
         -1    1    1    2    0  501 -0.19598294212E+02 -0.93267627112E+01 -0.20157261360E+02  0.29620884933E+02  0.00000000000E+00 0.  1.
</event>
<event>
 4    1  0.6888348E+001  0.2260816E+02  0.7546771E-02  0.1497478E+00
          2   -1    0    0  502    0  0.00000000000E+00  0.00000000000E+00  0.21466149600E+02  0.21466149600E+02  0.00000000000E+00 0.  1.
         -2   -1    0    0    0  501 -0.00000000000E+00 -0.00000000000E+00 -0.36047507454E+02  0.36047507454E+02  0.00000000000E+00 0. -1.
          1    1    1    2  502    0 -0.29269010065E+01 -0.22417894387E+02 -0.24045259246E+02  0.33004594081E+02  0.00000000000E+00 0. -1.
         -1    1    1    2    0  501  0.29269010065E+01  0.22417894387E+02  0.94639013917E+01  0.24509062973E+02  0.00000000000E+00 0.  1.
</event>
<event>
 4    1  0.6888348E+001  0.2297212E+02  0.7546771E-02  0.1492848E+00
          2   -1    0    0  502    0  0.00000000000E+00  0.00000000000E+00  0.46194715586E+03  0.46194715586E+03  0.00000000000E+00 0.  1.
         -2   -1    0    0    0  501 -0.00000000000E+00 -0.00000000000E+00 -0.16403406310E+01  0.16403406310E+01  0.00000000000E+00 0. -1.
          1    1    1    2  502    0  0.20129062197E+02 -0.11069747838E+02  0.35786575586E+03  0.35860231131E+03  0.00000000000E+00 0.  1.
         -1    1    1    2    0  501 -0.20129062197E+02  0.11069747838E+02  0.10244105937E+03  0.10498518518E+03  0.00000000000E+00 0. -1.
</event>
<event>
 4    1  0.6888348E+001  0.2003533E+02  0.7546771E-02  0.1533496E+00
          2   -1    0    0  502    0  0.00000000000E+00  0.00000000000E+00  0.24250450944E+02  0.24250450944E+02  0.00000000000E+00 0. -1.
         -2   -1    0    0    0  501 -0.00000000000E+00 -0.00000000000E+00 -0.21072203744E+02  0.21072203744E+02  0.00000000000E+00 0.  1.
          1    1    1    2  502    0  0.92245146160E+01 -0.17785463152E+02  0.12083773483E+02  0.23397263750E+02  0.00000000000E+00 0. -1.
         -1    1    1    2    0  501 -0.92245146160E+01  0.17785463152E+02 -0.89055262819E+01  0.21925390938E+02  0.00000000000E+00 0.  1.
</event>
<event>
 4    1  0.6888348E+001  0.4705271E+02  0.7546771E-02  0.1311483E+00
          2   -1    0    0  502    0  0.00000000000E+00  0.00000000000E+00  0.48251863536E+01  0.48251863536E+01  0.00000000000E+00 0. -1.
         -2   -1    0    0    0  501 -0.00000000000E+00 -0.00000000000E+00 -0.51117682224E+03  0.51117682224E+03  0.00000000000E+00 0.  1.
          1    1    1    2  502    0  0.45011739796E+02 -0.13707699830E+02 -0.33573510539E+03  0.33901625145E+03  0.00000000000E+00 0.  1.
         -1    1    1    2    0  501 -0.45011739796E+02  0.13707699830E+02 -0.17061653050E+03  0.17698575715E+03  0.00000000000E+00 0. -1.
</event>
<event>
 4    1  0.6888348E+001  0.2082152E+02  0.7546771E-02  0.1521828E+00
          2   -1    0    0  502    0  0.00000000000E+00  0.00000000000E+00  0.27519596418E+02  0.27519596418E+02  0.00000000000E+00 0. -1.
         -2   -1    0    0    0  501 -0.00000000000E+00 -0.00000000000E+00 -0.23739701276E+02  0.23739701276E+02  0.00000000000E+00 0.  1.
          1    1    1    2  502    0 -0.28218200986E+01  0.20629423371E+02  0.16755101517E+02  0.26725815313E+02  0.00000000000E+00 0. -1.
         -1    1    1    2    0  501  0.28218200986E+01 -0.20629423371E+02 -0.12975206375E+02  0.24533482382E+02  0.00000000000E+00 0.  1.
</event>
<event>
 4    1  0.6888348E+001  0.2630938E+02  0.7546771E-02  0.1454672E+00
          2   -1    0    0  502    0  0.00000000000E+00  0.00000000000E+00  0.73595675230E+03  0.73595675230E+03  0.00000000000E+00 0.  1.
         -2   -1    0    0    0  501 -0.00000000000E+00 -0.00000000000E+00 -0.10297743874E+01  0.10297743874E+01  0.00000000000E+00 0. -1.
          1    1    1    2  502    0 -0.21975196225E+02  0.14466311884E+02  0.47594824613E+03  0.47667485399E+03  0.00000000000E+00 0. -1.
         -1    1    1    2    0  501  0.21975196225E+02 -0.14466311884E+02  0.25897873178E+03  0.26031167270E+03  0.00000000000E+00 0.  1.
</event>
<event>
 4    1  0.6888348E+001  0.3208208E+02  0.7546771E-02  0.1402326E+00
          2   -1    0    0  502    0  0.00000000000E+00  0.00000000000E+00  0.85384025233E+03  0.85384025233E+03  0.00000000000E+00 0. -1.
         -2   -1    0    0    0  501 -0.00000000000E+00 -0.00000000000E+00 -0.13641107365E+01  0.13641107365E+01  0.00000000000E+00 0.  1.
          1    1    1    2  502    0 -0.26322258712E+02 -0.18341171657E+02  0.57207005944E+03  0.57296894574E+03  0.00000000000E+00 0. -1.
         -1    1    1    2    0  501  0.26322258712E+02  0.18341171657E+02  0.28040608216E+03  0.28223541733E+03  0.00000000000E+00 0.  1.
</event>
<event>
 4    1  0.6888348E+001  0.2503997E+02  0.7546771E-02  0.1468357E+00
          2   -1    0    0  502    0  0.00000000000E+00  0.00000000000E+00  0.14114148827E+04  0.14114148827E+04  0.00000000000E+00 0.  1.
         -2   -1    0    0    0  501 -0.00000000000E+00 -0.00000000000E+00 -0.44522842503E+00  0.44522842503E+00  0.00000000000E+00 0. -1.
          1    1    1    2  502    0 -0.46386497200E+01  0.24606564556E+02  0.73882799040E+03  0.73925218937E+03  0.00000000000E+00 0.  1.
         -1    1    1    2    0  501  0.46386497200E+01 -0.24606564556E+02  0.67214166389E+03  0.67260792177E+03  0.00000000000E+00 0. -1.
</event>
<event>
 4    1  0.6888348E+001  0.2324319E+02  0.7546771E-02  0.1489467E+00
          2   -1    0    0  502    0  0.00000000000E+00  0.00000000000E+00  0.34080197119E+03  0.34080197119E+03  0.00000000000E+00 0. -1.
         -2   -1    0    0    0  501 -0.00000000000E+00 -0.00000000000E+00 -0.16716258006E+01  0.16716258006E+01  0.00000000000E+00 0.  1.
          1    1    1    2  502    0 -0.16184903236E+02  0.16682175884E+02  0.20849649298E+03  0.20978806846E+03  0.00000000000E+00 0.  1.
         -1    1    1    2    0  501  0.16184903236E+02 -0.16682175884E+02  0.13063385241E+03  0.13268552852E+03  0.00000000000E+00 0. -1.
</event>
<event>
 4    1  0.6888348E+001  0.2261401E+02  0.7546771E-02  0.1497403E+00
          2   -1    0    0  502    0  0.00000000000E+00  0.00000000000E+00  0.46456583470E+03  0.46456583470E+03  0.00000000000E+00 0. -1.
         -2   -1    0    0    0  501 -0.00000000000E+00 -0.00000000000E+00 -0.11015918888E+01  0.11015918888E+01  0.00000000000E+00 0.  1.
          1    1    1    2  502    0 -0.14477070389E+02  0.17372620373E+02  0.23797954467E+03  0.23905157850E+03  0.00000000000E+00 0.  1.
         -1    1    1    2    0  501  0.14477070389E+02 -0.17372620373E+02  0.22548469814E+03  0.22661584808E+03  0.00000000000E+00 0. -1.
</event>
<event>
 4    1  0.6888348E+001  0.2107831E+02  0.7546771E-02  0.1518150E+00
          2   -1    0    0  502    0  0.00000000000E+00  0.00000000000E+00  0.73964943626E+03  0.73964943626E+03  0.00000000000E+00 0.  1.
         -2   -1    0    0    0  501 -0.00000000000E+00 -0.00000000000E+00 -0.18475035613E+01  0.18475035613E+01  0.00000000000E+00 0. -1.
          1    1    1    2  502    0 -0.16084848472E+02 -0.13622512298E+02  0.64329916166E+02  0.67695149794E+02  0.00000000000E+00 0. -1.
         -1    1    1    2    0  501  0.16084848472E+02  0.13622512298E+02  0.67347201653E+03  0.67380179003E+03  0.00000000000E+00 0.  1.
</event>
<event>
 4    1  0.6888348E+001  0.2074940E+02  0.7546771E-02  0.1522873E+00
          2   -1    0    0  502    0  0.00000000000E+00  0.00000000000E+00  0.83277469360E+03  0.83277469360E+03  0.00000000000E+00 0.  1.
         -2   -1    0    0    0  501 -0.00000000000E+00 -0.00000000000E+00 -0.53295359441E+00  0.53295359441E+00  0.00000000000E+00 0. -1.
          1    1    1    2  502    0 -0.20216185621E+02 -0.46737154918E+01  0.34401509245E+03  0.34464027857E+03  0.00000000000E+00 0. -1.
         -1    1    1    2    0  501  0.20216185621E+02  0.46737154918E+01  0.48822664756E+03  0.48866736863E+03  0.00000000000E+00 0.  1.
</event>
<event>
 4    1  0.6888348E+001  0.2108513E+02  0.7546771E-02  0.1518053E+00
          2   -1    0    0  502    0  0.00000000000E+00  0.00000000000E+00  0.70177566060E+03  0.70177566060E+03  0.00000000000E+00 0. -1.
         -2   -1    0    0    0  501 -0.00000000000E+00 -0.00000000000E+00 -0.67085060780E+00  0.67085060780E+00  0.00000000000E+00 0.  1.
          1    1    1    2  502    0  0.20956564632E+02 -0.23248600017E+01  0.43341441065E+03  0.43392699148E+03  0.00000000000E+00 0. -1.
         -1    1    1    2    0  501 -0.20956564632E+02  0.23248600017E+01  0.26769039933E+03  0.26851951972E+03  0.00000000000E+00 0.  1.
</event>
<event>
 4    1  0.6888348E+001  0.2801742E+02  0.7546771E-02  0.1437647E+00
          2   -1    0    0  502    0  0.00000000000E+00  0.00000000000E+00  0.15521200382E+04  0.15521200382E+04  0.00000000000E+00 0.  1.
         -2   -1    0    0    0  501 -0.00000000000E+00 -0.00000000000E+00 -0.55913897769E+00  0.55913897769E+00  0.00000000000E+00 0. -1.
          1    1    1    2  502    0  0.13905064716E+02  0.24323343251E+02  0.53587458678E+03  0.53660651189E+03  0.00000000000E+00 0.  1.
         -1    1    1    2    0  501 -0.13905064716E+02 -0.24323343251E+02  0.10156863125E+04  0.10160726653E+04  0.00000000000E+00 0. -1.
</event>
<event>
 4    1  0.6888348E+001  0.3889447E+02  0.7546771E-02  0.1355089E+00
          2   -1    0    0  502    0  0.00000000000E+00  0.00000000000E+00  0.15926585013E+02  0.15926585013E+02  0.00000000000E+00 0.  1.
         -2   -1    0    0    0  501 -0.00000000000E+00 -0.00000000000E+00 -0.10129797438E+03  0.10129797438E+03  0.00000000000E+00 0. -1.
          1    1    1    2  502    0 -0.38747817108E+02 -0.33743784575E+01 -0.28053139049E+02  0.47955796012E+02  0.00000000000E+00 0.  1.
         -1    1    1    2    0  501  0.38747817108E+02  0.33743784575E+01 -0.57318250314E+02  0.69268763376E+02  0.00000000000E+00 0. -1.
</event>
<event>
 4    1  0.6888348E+001  0.2213455E+02  0.7546771E-02  0.1503661E+00
          2   -1    0    0  502    0  0.00000000000E+00  0.00000000000E+00  0.52570471424E+01  0.52570471424E+01  0.00000000000E+00 0.  1.
         -2   -1    0    0    0  501 -0.00000000000E+00 -0.00000000000E+00 -0.10011834579E+03  0.10011834579E+03  0.00000000000E+00 0. -1.
          1    1    1    2  502    0 -0.89280062430E+00  0.22116537174E+02 -0.33577011089E+02  0.40216339754E+02  0.00000000000E+00 0.  1.
         -1    1    1    2    0  501  0.89280062430E+00 -0.22116537174E+02 -0.61284287560E+02  0.65159053180E+02  0.00000000000E+00 0. -1.
</event>
<event>
 4    1  0.6888348E+001  0.2032847E+02  0.7546771E-02  0.1529072E+00
          2   -1    0    0  502    0  0.00000000000E+00  0.00000000000E+00  0.31240936777E+03  0.31240936777E+03  0.00000000000E+00 0.  1.
         -2   -1    0    0    0  501 -0.00000000000E+00 -0.00000000000E+00 -0.14424161473E+01  0.14424161473E+01  0.00000000000E+00 0. -1.
          1    1    1    2  502    0 -0.13196414190E+02 -0.15462904908E+02  0.20067871168E+03  0.20170570665E+03  0.00000000000E+00 0.  1.
         -1    1    1    2    0  501  0.13196414190E+02  0.15462904908E+02  0.11028823995E+03  0.11214607727E+03  0.00000000000E+00 0. -1.
</event>
<event>
 4    1  0.6888348E+001  0.2050931E+02  0.7546771E-02  0.1526387E+00
          2   -1    0    0  502    0  0.00000000000E+00  0.00000000000E+00  0.17709005661E+03  0.17709005661E+03  0.00000000000E+00 0.  1.
         -2   -1    0    0    0  501 -0.00000000000E+00 -0.00000000000E+00 -0.26466157967E+01  0.26466157967E+01  0.00000000000E+00 0. -1.
          1    1    1    2  502    0  0.19963591602E+02  0.46996608775E+01  0.58444759463E+02  0.61938854613E+02  0.00000000000E+00 0. -1.
         -1    1    1    2    0  501 -0.19963591602E+02 -0.46996608775E+01  0.11599868135E+03  0.11779781779E+03  0.00000000000E+00 0.  1.
</event>
<event>
 4    1  0.6888348E+001  0.2336862E+02  0.7546771E-02  0.1487921E+00
          2   -1    0    0  502    0  0.00000000000E+00  0.00000000000E+00  0.91422394378E+03  0.91422394378E+03  0.00000000000E+00 0. -1.
         -2   -1    0    0    0  501 -0.00000000000E+00 -0.00000000000E+00 -0.60011569392E+00  0.60011569392E+00  0.00000000000E+00 0.  1.
          1    1    1    2  502    0  0.23350705346E+02 -0.91474545585E+00  0.42564038251E+03  0.42628139465E+03  0.00000000000E+00 0. -1.
         -1    1    1    2    0  501 -0.23350705346E+02  0.91474545585E+00  0.48798344558E+03  0.48854266483E+03  0.00000000000E+00 0.  1.
</event>
<event>
 4    1  0.6888348E+001  0.2014688E+02  0.7546771E-02  0.1531802E+00
          2   -1    0    0  502    0  0.00000000000E+00  0.00000000000E+00  0.11835084858E+04  0.11835084858E+04  0.00000000000E+00 0.  1.
         -2   -1    0    0    0  501 -0.00000000000E+00 -0.00000000000E+00 -0.34297928216E+00  0.34297928216E+00  0.00000000000E+00 0. -1.
          1    1    1    2  502    0  0.10780493533E+02  0.17019920088E+02  0.58720820717E+03  0.58755372120E+03  0.00000000000E+00 0.  1.
         -1    1    1    2    0  501 -0.10780493533E+02 -0.17019920088E+02  0.59595729934E+03  0.59629774388E+03  0.00000000000E+00 0. -1.
</event>
<event>
 4    1  0.6888348E+001  0.3256928E+02  0.7546771E-02  0.1398508E+00
          2   -1    0    0  502    0  0.00000000000E+00  0.00000000000E+00  0.12045822445E+04  0.12045822445E+04  0.00000000000E+00 0. -1.
         -2   -1    0    0    0  501 -0.00000000000E+00 -0.00000000000E+00 -0.97965904667E+00  0.97965904667E+00  0.00000000000E+00 0.  1.
          1    1    1    2  502    0  0.25727430253E+02 -0.19971410395E+02  0.79347567104E+03  0.79414381470E+03  0.00000000000E+00 0. -1.
         -1    1    1    2    0  501 -0.25727430253E+02  0.19971410395E+02  0.41012691443E+03  0.41141808885E+03  0.00000000000E+00 0.  1.
</event>
<event>
 4    1  0.6888348E+001  0.2444904E+02  0.7546771E-02  0.1475062E+00
          2   -1    0    0  502    0  0.00000000000E+00  0.00000000000E+00  0.21657241543E+02  0.21657241543E+02  0.00000000000E+00 0.  1.
         -2   -1    0    0    0  501 -0.00000000000E+00 -0.00000000000E+00 -0.29904761069E+02  0.29904761069E+02  0.00000000000E+00 0. -1.
          1    1    1    2  502    0 -0.75192923976E+01 -0.23264045953E+02  0.30323030507E+01  0.24636364465E+02  0.00000000000E+00 0.  1.
         -1    1    1    2    0  501  0.75192923976E+01  0.23264045953E+02 -0.11279822577E+02  0.26925638147E+02  0.00000000000E+00 0. -1.
</event>
<event>
 4    1  0.6888348E+001  0.4786711E+02  0.7546771E-02  0.1307694E+00
          2   -1    0    0  502    0  0.00000000000E+00  0.00000000000E+00  0.11519691779E+04  0.11519691779E+04  0.00000000000E+00 0.  1.
         -2   -1    0    0    0  501 -0.00000000000E+00 -0.00000000000E+00 -0.23268809861E+01  0.23268809861E+01  0.00000000000E+00 0. -1.
          1    1    1    2  502    0  0.39499577208E+02 -0.27037821576E+02  0.35489061749E+03  0.35810418983E+03  0.00000000000E+00 0. -1.
         -1    1    1    2    0  501 -0.39499577208E+02  0.27037821576E+02  0.79475167940E+03  0.79619186903E+03  0.00000000000E+00 0.  1.
</event>
<event>
 4    1  0.6888348E+001  0.2330142E+02  0.7546771E-02  0.1488747E+00
          2   -1    0    0  502    0  0.00000000000E+00  0.00000000000E+00  0.34212460503E+01  0.34212460503E+01  0.00000000000E+00 0.  1.
         -2   -1    0    0    0  501 -0.00000000000E+00 -0.00000000000E+00 -0.16715836651E+03  0.16715836651E+03  0.00000000000E+00 0. -1.
          1    1    1    2  502    0  0.17729714557E+02 -0.15119966907E+02 -0.10105273308E+03  0.10370444079E+03  0.00000000000E+00 0. -1.
         -1    1    1    2    0  501 -0.17729714557E+02  0.15119966907E+02 -0.62684387379E+02  0.66875171765E+02  0.00000000000E+00 0.  1.
</event>
<event>
 4    1  0.6888348E+001  0.2123454E+02  0.7546771E-02  0.1515942E+00
          2   -1    0    0  502    0  0.00000000000E+00  0.00000000000E+00  0.71157173646E+02  0.71157173646E+02  0.00000000000E+00 0.  1.
         -2   -1    0    0    0  501 -0.00000000000E+00 -0.00000000000E+00 -0.10574689375E+02  0.10574689375E+02  0.00000000000E+00 0. -1.
          1    1    1    2  502    0  0.58197311647E+01  0.20421465589E+02  0.56161737325E+02  0.60042037499E+02  0.00000000000E+00 0.  1.
         -1    1    1    2    0  501 -0.58197311647E+01 -0.20421465589E+02  0.44207469458E+01  0.21689825523E+02  0.00000000000E+00 0. -1.
</event>
<event>
 4    1  0.6888348E+001  0.2500747E+02  0.7546771E-02  0.1468720E+00
          2   -1    0    0  502    0  0.00000000000E+00  0.00000000000E+00  0.72314875040E+03  0.72314875040E+03  0.00000000000E+00 0.  1.
         -2   -1    0    0    0  501 -0.00000000000E+00 -0.00000000000E+00 -0.10457235534E+01  0.10457235534E+01  0.00000000000E+00 0. -1.
          1    1    1    2  502    0  0.11465208967E+02  0.22224366892E+02  0.51166834699E+03  0.51227909465E+03  0.00000000000E+00 0.  1.
         -1    1    1    2    0  501 -0.11465208967E+02 -0.22224366892E+02  0.21043467986E+03  0.21191537931E+03  0.00000000000E+00 0. -1.
</event>
<event>
 4    1  0.6888348E+001  0.2094708E+02  0.7546771E-02  0.1520022E+00
          2   -1    0    0  502    0  0.00000000000E+00  0.00000000000E+00  0.34249738168E+03  0.34249738168E+03  0.00000000000E+00 0. -1.
         -2   -1    0    0    0  501 -0.00000000000E+00 -0.00000000000E+00 -0.14519724125E+01  0.14519724125E+01  0.00000000000E+00 0.  1.
          1    1    1    2  502    0  0.54218547044E+01 -0.20233233230E+02  0.22951508440E+03  0.23046898751E+03  0.00000000000E+00 0. -1.
         -1    1    1    2    0  501 -0.54218547044E+01  0.20233233230E+02  0.11153032487E+03  0.11348036659E+03  0.00000000000E+00 0.  1.
</event>
<event>
 4    1  0.6888348E+001  0.2044609E+02  0.7546771E-02  0.1527322E+00
          2   -1    0    0  502    0  0.00000000000E+00  0.00000000000E+00  0.49254126984E+03  0.49254126984E+03  0.00000000000E+00 0. -1.
         -2   -1    0    0    0  501 -0.00000000000E+00 -0.00000000000E+00 -0.84912055658E+00  0.84912055658E+00  0.00000000000E+00 0.  1.
          1    1    1    2  502    0 -0.11864052700E+02 -0.16651929437E+02  0.24066577501E+03  0.24153272607E+03  0.00000000000E+00 0.  1.
         -1    1    1    2    0  501  0.11864052700E+02  0.16651929437E+02  0.25102637428E+03  0.25185766433E+03  0.00000000000E+00 0. -1.
</event>
<event>
 4    1  0.6888348E+001  0.2818065E+02  0.7546771E-02  0.1436096E+00
          2   -1    0    0  502    0  0.00000000000E+00  0.00000000000E+00  0.22234069392E+03  0.22234069392E+03  0.00000000000E+00 0. -1.
         -2   -1    0    0    0  501 -0.00000000000E+00 -0.00000000000E+00 -0.36987358041E+01  0.36987358041E+01  0.00000000000E+00 0.  1.
          1    1    1    2  502    0  0.99403034368E+01  0.26369290467E+02  0.13026096486E+03  0.13327440894E+03  0.00000000000E+00 0. -1.
         -1    1    1    2    0  501 -0.99403034368E+01 -0.26369290467E+02  0.88380993258E+02  0.92765020786E+02  0.00000000000E+00 0.  1.
</event>
<event>
 4    1  0.6888348E+001  0.2382543E+02  0.7546771E-02  0.1482385E+00
          2   -1    0    0  502    0  0.00000000000E+00  0.00000000000E+00  0.94848281031E+02  0.94848281031E+02  0.00000000000E+00 0.  1.
         -2   -1    0    0    0  501 -0.00000000000E+00 -0.00000000000E+00 -0.64584512499E+01  0.64584512499E+01  0.00000000000E+00 0. -1.
          1    1    1    2  502    0 -0.23016702570E+02 -0.61548888505E+01  0.57911869343E+02  0.62621369074E+02  0.00000000000E+00 0.  1.
         -1    1    1    2    0  501  0.23016702570E+02  0.61548888505E+01  0.30477960438E+02  0.38685363206E+02  0.00000000000E+00 0. -1.
</event>
<event>
 4    1  0.6888348E+001  0.2542349E+02  0.7546771E-02  0.1464121E+00
          2   -1    0    0  502    0  0.00000000000E+00  0.00000000000E+00  0.77607028107E+03  0.77607028107E+03  0.00000000000E+00 0. -1.
         -2   -1    0    0    0  501 -0.00000000000E+00 -0.00000000000E+00 -0.83314366944E+00  0.83314366944E+00  0.00000000000E+00 0.  1.
          1    1    1    2  502    0  0.21454932503E+02 -0.13639633079E+02  0.38038316205E+03  0.38123182408E+03  0.00000000000E+00 0.  1.
         -1    1    1    2    0  501 -0.21454932503E+02  0.13639633079E+02  0.39485397535E+03  0.39567160066E+03  0.00000000000E+00 0. -1.
</event>
<event>
 4    1  0.6888348E+001  0.2091193E+02  0.7546771E-02  0.1520526E+00
          2   -1    0    0  502    0  0.00000000000E+00  0.00000000000E+00  0.94752698039E+02  0.94752698039E+02  0.00000000000E+00 0.  1.
         -2   -1    0    0    0  501 -0.00000000000E+00 -0.00000000000E+00 -0.46263123158E+01  0.46263123158E+01  0.00000000000E+00 0. -1.
          1    1    1    2  502    0  0.20637694737E+02 -0.33755451619E+01  0.42634970900E+02  0.47487361401E+02  0.00000000000E+00 0.  1.
         -1    1    1    2    0  501 -0.20637694737E+02  0.33755451619E+01  0.47491414822E+02  0.51891648953E+02  0.00000000000E+00 0. -1.
</event>
<event>
 4    1  0.6888348E+001  0.4350667E+02  0.7546771E-02  0.1329078E+00
          2   -1    0    0  502    0  0.00000000000E+00  0.00000000000E+00  0.71114201267E+03  0.71114201267E+03  0.00000000000E+00 0.  1.
         -2   -1    0    0    0  501 -0.00000000000E+00 -0.00000000000E+00 -0.34381095713E+01  0.34381095713E+01  0.00000000000E+00 0. -1.
          1    1    1    2  502    0 -0.21542473764E+02  0.37798840808E+02  0.52364224995E+03  0.52544651153E+03  0.00000000000E+00 0.  1.
         -1    1    1    2    0  501  0.21542473764E+02 -0.37798840808E+02  0.18406165314E+03  0.18913361071E+03  0.00000000000E+00 0. -1.
</event>
<event>
 4    1  0.6888348E+001  0.2254002E+02  0.7546771E-02  0.1498356E+00
          2   -1    0    0  502    0  0.00000000000E+00  0.00000000000E+00  0.37103894773E+03  0.37103894773E+03  0.00000000000E+00 0.  1.
         -2   -1    0    0    0  501 -0.00000000000E+00 -0.00000000000E+00 -0.14107474839E+01  0.14107474839E+01  0.00000000000E+00 0. -1.
          1    1    1    2  502    0 -0.72812805111E+01  0.21331556506E+02  0.15288245317E+03  0.15453509904E+03  0.00000000000E+00 0. -1.
         -1    1    1    2    0  501  0.72812805111E+01 -0.21331556506E+02  0.21674574707E+03  0.21791459617E+03  0.00000000000E+00 0.  1.
</event>
<event>
 4    1  0.6888348E+001  0.2307209E+02  0.7546771E-02  0.1491595E+00
          2   -1    0    0  502    0  0.00000000000E+00  0.00000000000E+00  0.23183340680E+02  0.23183340680E+02  0.00000000000E+00 0. -1.
         -2   -1    0    0    0  501 -0.00000000000E+00 -0.00000000000E+00 -0.33630358573E+02  0.33630358573E+02  0.00000000000E+00 0.  1.
          1    1    1    2  502    0  0.15839071858E+02  0.16776320053E+02 -0.21223475737E+02  0.31348955871E+02  0.00000000000E+00 0.  1.
         -1    1    1    2    0  501 -0.15839071858E+02 -0.16776320053E+02  0.10776457843E+02  0.25464743382E+02  0.00000000000E+00 0. -1.
</event>
<event>
 4    1  0.6888348E+001  0.4563905E+02  0.7546771E-02  0.1318274E+00
          2   -1    0    0  502    0  0.00000000000E+00  0.00000000000E+00  0.53139093727E+02  0.53139093727E+02  0.00000000000E+00 0.  1.
         -2   -1    0    0    0  501 -0.00000000000E+00 -0.00000000000E+00 -0.46536624000E+02  0.46536624000E+02  0.00000000000E+00 0. -1.
          1    1    1    2  502    0  0.38940594329E+02  0.23802372417E+02  0.23092897234E+02  0.51148848688E+02  0.00000000000E+00 0.  1.
         -1    1    1    2    0  501 -0.38940594329E+02 -0.23802372417E+02 -0.16490427507E+02  0.48526869039E+02  0.00000000000E+00 0. -1.
</event>
<event>
 4    1  0.6888348E+001  0.3321622E+02  0.7546771E-02  0.1393557E+00
          2   -1    0    0  502    0  0.00000000000E+00  0.00000000000E+00  0.69251434616E+03  0.69251434616E+03  0.00000000000E+00 0.  1.
         -2   -1    0    0    0  501 -0.00000000000E+00 -0.00000000000E+00 -0.42314416073E+01  0.42314416073E+01  0.00000000000E+00 0. -1.
          1    1    1    2  502    0  0.13976024138E+02  0.30132839185E+02  0.69062691229E+02  0.76635321933E+02  0.00000000000E+00 0. -1.
         -1    1    1    2    0  501 -0.13976024138E+02 -0.30132839185E+02  0.61922021333E+03  0.62011046584E+03  0.00000000000E+00 0.  1.
</event>
<event>
 4    1  0.6888348E+001  0.3329302E+02  0.7546771E-02  0.1392978E+00
          2   -1    0    0  502    0  0.00000000000E+00  0.00000000000E+00  0.34046453786E+02  0.34046453786E+02  0.00000000000E+00 0. -1.
         -2   -1    0    0    0  501 -0.00000000000E+00 -0.00000000000E+00 -0.54136560063E+02  0.54136560063E+02  0.00000000000E+00 0.  1.
          1    1    1    2  502    0  0.29941968863E+02  0.14556908449E+02 -0.37883076079E+02  0.50433644883E+02  0.00000000000E+00 0.  1.
         -1    1    1    2    0  501 -0.29941968863E+02 -0.14556908449E+02  0.17792969802E+02  0.37749368966E+02  0.00000000000E+00 0. -1.
</event>
<event>
 4    1  0.6888348E+001  0.2801798E+02  0.7546771E-02  0.1437642E+00
          2   -1    0    0  502    0  0.00000000000E+00  0.00000000000E+00  0.58974273490E+03  0.58974273490E+03  0.00000000000E+00 0. -1.
         -2   -1    0    0    0  501 -0.00000000000E+00 -0.00000000000E+00 -0.14216719476E+01  0.14216719476E+01  0.00000000000E+00 0.  1.
          1    1    1    2  502    0  0.23484395073E+02  0.15280397361E+02  0.21955480185E+03  0.22133530755E+03  0.00000000000E+00 0.  1.
         -1    1    1    2    0  501 -0.23484395073E+02 -0.15280397361E+02  0.36876626111E+03  0.36982909930E+03  0.00000000000E+00 0. -1.
</event>
<event>
 4    1  0.6888348E+001  0.2318853E+02  0.7546771E-02  0.1490144E+00
          2   -1    0    0  502    0  0.00000000000E+00  0.00000000000E+00  0.99065358883E+01  0.99065358883E+01  0.00000000000E+00 0. -1.
         -2   -1    0    0    0  501 -0.00000000000E+00 -0.00000000000E+00 -0.66832097249E+02  0.66832097249E+02  0.00000000000E+00 0.  1.
          1    1    1    2  502    0 -0.20953662146E+02 -0.99323649520E+01 -0.45092416312E+02  0.50705363028E+02  0.00000000000E+00 0. -1.
         -1    1    1    2    0  501  0.20953662146E+02  0.99323649520E+01 -0.11833145048E+02  0.26033270109E+02  0.00000000000E+00 0.  1.
</event>
<event>
 4    1  0.6888348E+001  0.2043444E+02  0.7546771E-02  0.1527495E+00
          2   -1    0    0  502    0  0.00000000000E+00  0.00000000000E+00  0.50296340772E+03  0.50296340772E+03  0.00000000000E+00 0. -1.
         -2   -1    0    0    0  501 -0.00000000000E+00 -0.00000000000E+00 -0.98782563192E+00  0.98782563192E+00  0.00000000000E+00 0.  1.
          1    1    1    2  502    0 -0.17104284936E+02  0.11180779027E+02  0.35163805404E+03  0.35223129820E+03  0.00000000000E+00 0. -1.
         -1    1    1    2    0  501  0.17104284936E+02 -0.11180779027E+02  0.15033752805E+03  0.15171993515E+03  0.00000000000E+00 0.  1.
</event>
<event>
 4    1  0.6888348E+001  0.2378432E+02  0.7546771E-02  0.1482877E+00
          2   -1    0    0  502    0  0.00000000000E+00  0.00000000000E+00  0.66827260816E+03  0.66827260816E+03  0.00000000000E+00 0. -1.
         -2   -1    0    0    0  501 -0.00000000000E+00 -0.00000000000E+00 -0.23974188636E+01  0.23974188636E+01  0.00000000000E+00 0.  1.
          1    1    1    2  502    0  0.17975141517E+02  0.15575241246E+02  0.60265020593E+03  0.60311936179E+03  0.00000000000E+00 0. -1.
         -1    1    1    2    0  501 -0.17975141517E+02 -0.15575241246E+02  0.63224983359E+02  0.67550665231E+02  0.00000000000E+00 0.  1.
</event>
<event>
 4    1  0.6888348E+001  0.2227878E+02  0.7546771E-02  0.1501759E+00
          2   -1    0    0  502    0  0.00000000000E+00  0.00000000000E+00  0.13992462511E+03  0.13992462511E+03  0.00000000000E+00 0.  1.
         -2   -1    0    0    0  501 -0.00000000000E+00 -0.00000000000E+00 -0.41503914092E+01  0.41503914092E+01  0.00000000000E+00 0. -1.
          1    1    1    2  502    0 -0.21190208646E+02  0.68788958115E+01  0.95349149075E+02  0.97917334417E+02  0.00000000000E+00 0.  1.
         -1    1    1    2    0  501  0.21190208646E+02 -0.68788958115E+01  0.40425084627E+02  0.46157682104E+02  0.00000000000E+00 0. -1.
</event>
<event>
 4    1  0.6888348E+001  0.2097183E+02  0.7546771E-02  0.1519667E+00
          2   -1    0    0  502    0  0.00000000000E+00  0.00000000000E+00  0.80367280071E+02  0.80367280071E+02  0.00000000000E+00 0. -1.
         -2   -1    0    0    0  501 -0.00000000000E+00 -0.00000000000E+00 -0.24825030670E+02  0.24825030670E+02  0.00000000000E+00 0.  1.
          1    1    1    2  502    0 -0.23680871364E+01  0.20837699031E+02  0.74209490077E+02  0.77115925431E+02  0.00000000000E+00 0. -1.
         -1    1    1    2    0  501  0.23680871364E+01 -0.20837699031E+02 -0.18667240676E+02  0.28076385310E+02  0.00000000000E+00 0.  1.
</event>
<event>
 4    1  0.6888348E+001  0.2186417E+02  0.7546771E-02  0.1507276E+00
          2   -1    0    0  502    0  0.00000000000E+00  0.00000000000E+00  0.16964413221E+04  0.16964413221E+04  0.00000000000E+00 0. -1.
         -2   -1    0    0    0  501 -0.00000000000E+00 -0.00000000000E+00 -0.35206663956E+00  0.35206663956E+00  0.00000000000E+00 0.  1.
          1    1    1    2  502    0 -0.13520747739E+02  0.17182292924E+02  0.46900109412E+03  0.46951045579E+03  0.00000000000E+00 0.  1.
         -1    1    1    2    0  501  0.13520747739E+02 -0.17182292924E+02  0.12270881614E+04  0.12272829330E+04  0.00000000000E+00 0. -1.
</event>
<event>
 4    1  0.6888348E+001  0.4389877E+02  0.7546771E-02  0.1327038E+00
          2   -1    0    0  502    0  0.00000000000E+00  0.00000000000E+00  0.14073957143E+04  0.14073957143E+04  0.00000000000E+00 0.  1.
         -2   -1    0    0    0  501 -0.00000000000E+00 -0.00000000000E+00 -0.16548714105E+01  0.16548714105E+01  0.00000000000E+00 0. -1.
          1    1    1    2  502    0 -0.43358495233E+02 -0.68660688296E+01  0.41018835962E+03  0.41253071689E+03  0.00000000000E+00 0. -1.
         -1    1    1    2    0  501  0.43358495233E+02  0.68660688296E+01  0.99555248325E+03  0.99651986880E+03  0.00000000000E+00 0.  1.
</event>
<event>
 4    1  0.6888348E+001  0.2316723E+02  0.7546771E-02  0.1490409E+00
          2   -1    0    0  502    0  0.00000000000E+00  0.00000000000E+00  0.23462496440E+02  0.23462496440E+02  0.00000000000E+00 0.  1.
         -2   -1    0    0    0  501 -0.00000000000E+00 -0.00000000000E+00 -0.50224190936E+02  0.50224190936E+02  0.00000000000E+00 0. -1.
          1    1    1    2  502    0 -0.19548713861E+02 -0.12432554100E+02 -0.40568354285E+02  0.46717362773E+02  0.00000000000E+00 0. -1.
         -1    1    1    2    0  501  0.19548713861E+02  0.12432554100E+02  0.13806659788E+02  0.26969324603E+02  0.00000000000E+00 0.  1.
</event>
<event>
 4    1  0.6888348E+001  0.2662570E+02  0.7546771E-02  0.1451405E+00
          2   -1    0    0  502    0  0.00000000000E+00  0.00000000000E+00  0.11667428764E+03  0.11667428764E+03  0.00000000000E+00 0.  1.
         -2   -1    0    0    0  501 -0.00000000000E+00 -0.00000000000E+00 -0.60766875563E+01  0.60766875563E+01  0.00000000000E+00 0. -1.
          1    1    1    2  502    0 -0.16687590498E+02 -0.20747341052E+02  0.54709533690E+02  0.60844563553E+02  0.00000000000E+00 0.  1.
         -1    1    1    2    0  501  0.16687590498E+02  0.20747341052E+02  0.55888066393E+02  0.61906411642E+02  0.00000000000E+00 0. -1.
</event>
<event>
 4    1  0.6888348E+001  0.3230019E+02  0.7546771E-02  0.1400607E+00
          2   -1    0    0  502    0  0.00000000000E+00  0.00000000000E+00  0.86824620877E+01  0.86824620877E+01  0.00000000000E+00 0.  1.
         -2   -1    0    0    0  501 -0.00000000000E+00 -0.00000000000E+00 -0.13453799551E+03  0.13453799551E+03  0.00000000000E+00 0. -1.
          1    1    1    2  502    0  0.23517653654E+02 -0.22140955958E+02 -0.39519372213E+02  0.51040011209E+02  0.00000000000E+00 0. -1.
         -1    1    1    2    0  501 -0.23517653654E+02  0.22140955958E+02 -0.86336161210E+02  0.92180446389E+02  0.00000000000E+00 0.  1.
</event>
<event>
 4    1  0.6888348E+001  0.2394754E+02  0.7546771E-02  0.1480931E+00
          2   -1    0    0  502    0  0.00000000000E+00  0.00000000000E+00  0.39928127827E+01  0.39928127827E+01  0.00000000000E+00 0. -1.
         -2   -1    0    0    0  501 -0.00000000000E+00 -0.00000000000E+00 -0.27431346282E+03  0.27431346282E+03  0.00000000000E+00 0.  1.
          1    1    1    2  502    0  0.22078902426E+02  0.92739722090E+01 -0.23120672563E+03  0.23244361568E+03  0.00000000000E+00 0.  1.
         -1    1    1    2    0  501 -0.22078902426E+02 -0.92739722090E+01 -0.39113924409E+02  0.45862659926E+02  0.00000000000E+00 0. -1.
</event>
<event>
 4    1  0.6888348E+001  0.3215569E+02  0.7546771E-02  0.1401744E+00
          2   -1    0    0  502    0  0.00000000000E+00  0.00000000000E+00  0.11688817098E+02  0.11688817098E+02  0.00000000000E+00 0.  1.
         -2   -1    0    0    0  501 -0.00000000000E+00 -0.00000000000E+00 -0.95177101264E+02  0.95177101264E+02  0.00000000000E+00 0. -1.
          1    1    1    2  502    0  0.30411072466E+01  0.32011565494E+02 -0.27548818996E+02  0.42342957936E+02  0.00000000000E+00 0.  1.
         -1    1    1    2    0  501 -0.30411072466E+01 -0.32011565494E+02 -0.55939465169E+02  0.64522960426E+02  0.00000000000E+00 0. -1.
</event>
<event>
 4    1  0.6888348E+001  0.5603777E+02  0.7546771E-02  0.1273923E+00
          2   -1    0    0  502    0  0.00000000000E+00  0.00000000000E+00  0.41426931958E+01  0.41426931958E+01  0.00000000000E+00 0.  1.
         -2   -1    0    0    0  501 -0.00000000000E+00 -0.00000000000E+00 -0.78541877263E+03  0.78541877263E+03  0.00000000000E+00 0. -1.
          1    1    1    2  502    0 -0.11882914981E+02 -0.54763384242E+02 -0.31689949939E+03  0.32181597946E+03  0.00000000000E+00 0.  1.
         -1    1    1    2    0  501  0.11882914981E+02  0.54763384242E+02 -0.46437658004E+03  0.46774548636E+03  0.00000000000E+00 0. -1.
</event>
<event>
 4    1  0.6888348E+001  0.2191634E+02  0.7546771E-02  0.1506573E+00
          2   -1    0    0  502    0  0.00000000000E+00  0.00000000000E+00  0.71057820529E+00  0.71057820529E+00  0.00000000000E+00 0.  1.
         -2   -1    0    0    0  501 -0.00000000000E+00 -0.00000000000E+00 -0.10790778016E+04  0.10790778016E+04  0.00000000000E+00 0. -1.
          1    1    1    2  502    0 -0.46875462805E+00  0.21911329710E+02 -0.20919762997E+03  0.21034251707E+03  0.00000000000E+00 0.  1.
         -1    1    1    2    0  501  0.46875462805E+00 -0.21911329710E+02 -0.86916959342E+03  0.86944586273E+03  0.00000000000E+00 0. -1.
</event>
<event>
 4    1  0.6888348E+001  0.2867009E+02  0.7546771E-02  0.1431516E+00
          2   -1    0    0  502    0  0.00000000000E+00  0.00000000000E+00  0.43837603506E+03  0.43837603506E+03  0.00000000000E+00 0.  1.
         -2   -1    0    0    0  501 -0.00000000000E+00 -0.00000000000E+00 -0.19385591038E+01  0.19385591038E+01  0.00000000000E+00 0. -1.
          1    1    1    2  502    0  0.40385834388E+01 -0.28384214330E+02  0.17836798317E+03  0.18065744158E+03  0.00000000000E+00 0. -1.
         -1    1    1    2    0  501 -0.40385834388E+01  0.28384214330E+02  0.25806949279E+03  0.25965715258E+03  0.00000000000E+00 0.  1.
</event>
<event>
 4    1  0.6888348E+001  0.2510754E+02  0.7546771E-02  0.1467604E+00
          2   -1    0    0  502    0  0.00000000000E+00  0.00000000000E+00  0.55668005186E+03  0.55668005186E+03  0.00000000000E+00 0. -1.
         -2   -1    0    0    0  501 -0.00000000000E+00 -0.00000000000E+00 -0.12633523615E+01  0.12633523615E+01  0.00000000000E+00 0.  1.
          1    1    1    2  502    0  0.11756454554E+02  0.22184997188E+02  0.18789453295E+03  0.18956461652E+03  0.00000000000E+00 0.  1.
         -1    1    1    2    0  501 -0.11756454554E+02 -0.22184997188E+02  0.36752216654E+03  0.36837878769E+03  0.00000000000E+00 0. -1.
</event>
<event>
 4    1  0.6888348E+001  0.2964730E+02  0.7546771E-02  0.1422687E+00
          2   -1    0    0  502    0  0.00000000000E+00  0.00000000000E+00  0.11579749266E+02  0.11579749266E+02  0.00000000000E+00 0. -1.
         -2   -1    0    0    0  501 -0.00000000000E+00 -0.00000000000E+00 -0.84663393396E+02  0.84663393396E+02  0.00000000000E+00 0.  1.
          1    1    1    2  502    0  0.28808571731E+02 -0.70020365268E+01 -0.21064312604E+02  0.36368497166E+02  0.00000000000E+00 0. -1.
         -1    1    1    2    0  501 -0.28808571731E+02  0.70020365268E+01 -0.52019331527E+02  0.59874645496E+02  0.00000000000E+00 0.  1.
</event>
<event>
 4    1  0.6888348E+001  0.2586085E+02  0.7546771E-02  0.1459399E+00
          2   -1    0    0  502    0  0.00000000000E+00  0.00000000000E+00  0.78461366241E+00  0.78461366241E+00  0.00000000000E+00 0. -1.
         -2   -1    0    0    0  501 -0.00000000000E+00 -0.00000000000E+00 -0.90122642573E+03  0.90122642573E+03  0.00000000000E+00 0.  1.
          1    1    1    2  502    0  0.24747485588E+02 -0.75063713677E+01 -0.55522628443E+03  0.55582822038E+03  0.00000000000E+00 0.  1.
         -1    1    1    2    0  501 -0.24747485588E+02  0.75063713677E+01 -0.34521552764E+03  0.34618281901E+03  0.00000000000E+00 0. -1.
</event>
<event>
 4    1  0.6888348E+001  0.2590954E+02  0.7546771E-02  0.1458880E+00
          2   -1    0    0  502    0  0.00000000000E+00  0.00000000000E+00  0.24304397919E+03  0.24304397919E+03  0.00000000000E+00 0.  1.
         -2   -1    0    0    0  501 -0.00000000000E+00 -0.00000000000E+00 -0.27787285823E+01  0.27787285823E+01  0.00000000000E+00 0. -1.
          1    1    1    2  502    0  0.22984034986E+02  0.11959876059E+02  0.12964934107E+03  0.13221291972E+03  0.00000000000E+00 0. -1.
         -1    1    1    2    0  501 -0.22984034986E+02 -0.11959876059E+02  0.11061590953E+03  0.11360978805E+03  0.00000000000E+00 0.  1.
</event>
<event>
 4    1  0.6888348E+001  0.2264306E+02  0.7546771E-02  0.1497030E+00
          2   -1    0    0  502    0  0.00000000000E+00  0.00000000000E+00  0.19008378453E+04  0.19008378453E+04  0.00000000000E+00 0.  1.
         -2   -1    0    0    0  501 -0.00000000000E+00 -0.00000000000E+00 -0.26998721566E+00  0.26998721566E+00  0.00000000000E+00 0. -1.
          1    1    1    2  502    0  0.72033206289E+01  0.21466721869E+02  0.97977362730E+03  0.98003523852E+03  0.00000000000E+00 0.  1.
         -1    1    1    2    0  501 -0.72033206289E+01 -0.21466721869E+02  0.92079423082E+03  0.92107259404E+03  0.00000000000E+00 0. -1.
</event>
<event>
 4    1  0.6888348E+001  0.4421879E+02  0.7546771E-02  0.1325392E+00
          2   -1    0    0  502    0  0.00000000000E+00  0.00000000000E+00  0.18123092473E+04  0.18123092473E+04  0.00000000000E+00 0. -1.
         -2   -1    0    0    0  501 -0.00000000000E+00 -0.00000000000E+00 -0.11138970039E+01  0.11138970039E+01  0.00000000000E+00 0.  1.
          1    1    1    2  502    0 -0.22854707116E+02 -0.37854510719E+02  0.10663132849E+04  0.10672297424E+04  0.00000000000E+00 0.  1.
         -1    1    1    2    0  501  0.22854707116E+02  0.37854510719E+02  0.74488206539E+03  0.74619340184E+03  0.00000000000E+00 0. -1.
</event>
<event>
 4    1  0.6888348E+001  0.4731283E+02  0.7546771E-02  0.1310263E+00
          2   -1    0    0  502    0  0.00000000000E+00  0.00000000000E+00  0.29949787268E+03  0.29949787268E+03  0.00000000000E+00 0.  1.
         -2   -1    0    0    0  501 -0.00000000000E+00 -0.00000000000E+00 -0.28492650184E+02  0.28492650184E+02  0.00000000000E+00 0. -1.
          1    1    1    2  502    0  0.73712785717E+01  0.46735082189E+02 -0.53501407460E+01  0.47614364020E+02  0.00000000000E+00 0. -1.
         -1    1    1    2    0  501 -0.73712785717E+01 -0.46735082189E+02  0.27635536325E+03  0.28037615885E+03  0.00000000000E+00 0.  1.
</event>
<event>
 4    1  0.6888348E+001  0.2866195E+02  0.7546771E-02  0.1431592E+00
          2   -1    0    0  502    0  0.00000000000E+00  0.00000000000E+00  0.15025102219E+01  0.15025102219E+01  0.00000000000E+00 0. -1.
         -2   -1    0    0    0  501 -0.00000000000E+00 -0.00000000000E+00 -0.55055625884E+03  0.55055625884E+03  0.00000000000E+00 0.  1.
          1    1    1    2  502    0  0.25345098495E+02  0.13384079864E+02 -0.29745760933E+03  0.29883530072E+03  0.00000000000E+00 0. -1.
         -1    1    1    2    0  501 -0.25345098495E+02 -0.13384079864E+02 -0.25159613929E+03  0.25322346834E+03  0.00000000000E+00 0.  1.
</event>
<event>
 4    1  0.6888348E+001  0.2622963E+02  0.7546771E-02  0.1455504E+00
          2   -1    0    0  502    0  0.00000000000E+00  0.00000000000E+00  0.10968401783E+03  0.10968401783E+03  0.00000000000E+00 0. -1.
         -2   -1    0    0    0  501 -0.00000000000E+00 -0.00000000000E+00 -0.69377416816E+01  0.69377416816E+01  0.00000000000E+00 0.  1.
          1    1    1    2  502    0 -0.16509980834E+02 -0.20381703583E+02  0.33316813784E+02  0.42402870054E+02  0.00000000000E+00 0.  1.
         -1    1    1    2    0  501  0.16509980834E+02  0.20381703583E+02  0.69429462366E+02  0.74218889459E+02  0.00000000000E+00 0. -1.
</event>
<event>
 4    1  0.6888348E+001  0.2309606E+02  0.7546771E-02  0.1491295E+00
          2   -1    0    0  502    0  0.00000000000E+00  0.00000000000E+00  0.86013264394E+02  0.86013264394E+02  0.00000000000E+00 0.  1.
         -2   -1    0    0    0  501 -0.00000000000E+00 -0.00000000000E+00 -0.71658684314E+01  0.71658684314E+01  0.00000000000E+00 0. -1.
          1    1    1    2  502    0  0.22710814620E+02 -0.42007942854E+01  0.56513322082E+02  0.61050662126E+02  0.00000000000E+00 0.  1.
         -1    1    1    2    0  501 -0.22710814620E+02  0.42007942854E+01  0.22334073881E+02  0.32128470699E+02  0.00000000000E+00 0. -1.
</event>
<event>
 4    1  0.6888348E+001  0.2352255E+02  0.7546771E-02  0.1486039E+00
          2   -1    0    0  502    0  0.00000000000E+00  0.00000000000E+00  0.36324426205E+01  0.36324426205E+01  0.00000000000E+00 0.  1.
         -2   -1    0    0    0  501 -0.00000000000E+00 -0.00000000000E+00 -0.17502058920E+03  0.17502058920E+03  0.00000000000E+00 0. -1.
          1    1    1    2  502    0 -0.80801689925E+01  0.22091197856E+02 -0.53527044329E+02  0.58467551926E+02  0.00000000000E+00 0.  1.
         -1    1    1    2    0  501  0.80801689925E+01 -0.22091197856E+02 -0.11786110225E+03  0.12018547989E+03  0.00000000000E+00 0. -1.
</event>
<event>
 4    1  0.6888348E+001  0.6578578E+02  0.7546771E-02  0.1241348E+00
          2   -1    0    0  502    0  0.00000000000E+00  0.00000000000E+00  0.97797247428E+02  0.97797247428E+02  0.00000000000E+00 0. -1.
         -2   -1    0    0    0  501 -0.00000000000E+00 -0.00000000000E+00 -0.46239395721E+02  0.46239395721E+02  0.00000000000E+00 0.  1.
          1    1    1    2  502    0 -0.33869398175E+02 -0.56397102255E+02  0.40707841898E+02  0.77362120365E+02  0.00000000000E+00 0. -1.
         -1    1    1    2    0  501  0.33869398175E+02  0.56397102255E+02  0.10850009810E+02  0.66674522783E+02  0.00000000000E+00 0.  1.
</event>
<event>
 4    1  0.6888348E+001  0.2028935E+02  0.7546771E-02  0.1529657E+00
          2   -1    0    0  502    0  0.00000000000E+00  0.00000000000E+00  0.55708242316E+03  0.55708242316E+03  0.00000000000E+00 0. -1.
         -2   -1    0    0    0  501 -0.00000000000E+00 -0.00000000000E+00 -0.14160219581E+01  0.14160219581E+01  0.00000000000E+00 0.  1.
          1    1    1    2  502    0  0.14563863176E+02 -0.14126274937E+02  0.47092926177E+03  0.47136612876E+03  0.00000000000E+00 0. -1.
         -1    1    1    2    0  501 -0.14563863176E+02  0.14126274937E+02  0.84737139426E+02  0.87132316348E+02  0.00000000000E+00 0.  1.
</event>
<event>
 4    1  0.6888348E+001  0.2226562E+02  0.7546771E-02  0.1501932E+00
          2   -1    0    0  502    0  0.00000000000E+00  0.00000000000E+00  0.14730555407E+02  0.14730555407E+02  0.00000000000E+00 0.  1.
         -2   -1    0    0    0  501 -0.00000000000E+00 -0.00000000000E+00 -0.33803704825E+02  0.33803704825E+02  0.00000000000E+00 0. -1.
          1    1    1    2  502    0  0.70502237166E+01  0.21119946385E+02 -0.11145755534E+02  0.24899511163E+02  0.00000000000E+00 0.  1.
         -1    1    1    2    0  501 -0.70502237166E+01 -0.21119946385E+02 -0.79273938845E+01  0.23634749069E+02  0.00000000000E+00 0. -1.
</event>
<event>
 4    1  0.6888348E+001  0.5379202E+02  0.7546771E-02  0.1282519E+00
          2   -1    0    0  502    0  0.00000000000E+00  0.00000000000E+00  0.24501564383E+04  0.24501564383E+04  0.00000000000E+00 0. -1.
         -2   -1    0    0    0  501 -0.00000000000E+00 -0.00000000000E+00 -0.12519792888E+01  0.12519792888E+01  0.00000000000E+00 0.  1.
          1    1    1    2  502    0  0.50663740708E+02  0.18076696233E+02  0.93256215752E+03  0.93411228405E+03  0.00000000000E+00 0.  1.
         -1    1    1    2    0  501 -0.50663740708E+02 -0.18076696233E+02  0.15163423015E+04  0.15172961335E+04  0.00000000000E+00 0. -1.
</event>
<event>
 4    1  0.6888348E+001  0.1986297E+03  0.7546771E-02  0.1056112E+00
          2   -1    0    0  502    0  0.00000000000E+00  0.00000000000E+00  0.38368921859E+04  0.38368921859E+04  0.00000000000E+00 0. -1.
         -2   -1    0    0    0  501 -0.00000000000E+00 -0.00000000000E+00 -0.29359341203E+02  0.29359341203E+02  0.00000000000E+00 0.  1.
          1    1    1    2  502    0  0.10631799119E+03  0.16778028987E+03  0.34551501810E+03  0.39854029740E+03  0.00000000000E+00 0.  1.
         -1    1    1    2    0  501 -0.10631799119E+03 -0.16778028987E+03  0.34620178266E+04  0.34677112297E+04  0.00000000000E+00 0. -1.
</event>
<event>
 4    1  0.6888348E+001  0.6650365E+02  0.7546771E-02  0.1239204E+00
          2   -1    0    0  502    0  0.00000000000E+00  0.00000000000E+00  0.36040066966E+03  0.36040066966E+03  0.00000000000E+00 0. -1.
         -2   -1    0    0    0  501 -0.00000000000E+00 -0.00000000000E+00 -0.12271723306E+02  0.12271723306E+02  0.00000000000E+00 0.  1.
          1    1    1    2  502    0 -0.44413225495E+02  0.49499498450E+02  0.17420034421E+03  0.18646311933E+03  0.00000000000E+00 0.  1.
         -1    1    1    2    0  501  0.44413225495E+02 -0.49499498450E+02  0.17392860214E+03  0.18620927363E+03  0.00000000000E+00 0. -1.
</event>
<event>
 4    1  0.6888348E+001  0.2558354E+02  0.7546771E-02  0.1462380E+00
          2   -1    0    0  502    0  0.00000000000E+00  0.00000000000E+00  0.13451447480E+04  0.13451447480E+04  0.00000000000E+00 0.  1.
         -2   -1    0    0    0  501 -0.00000000000E+00 -0.00000000000E+00 -0.11081048079E+01  0.11081048079E+01  0.00000000000E+00 0. -1.
          1    1    1    2  502    0  0.25407827577E+02  0.29933046380E+01  0.16789565680E+03  0.16983365140E+03  0.00000000000E+00 0. -1.
         -1    1    1    2    0  501 -0.25407827577E+02 -0.29933046380E+01  0.11761409864E+04  0.11764192014E+04  0.00000000000E+00 0.  1.
</event>
<event>
 4    1  0.6888348E+001  0.2270548E+02  0.7546771E-02  0.1496230E+00
          2   -1    0    0  502    0  0.00000000000E+00  0.00000000000E+00  0.79989402005E+03  0.79989402005E+03  0.00000000000E+00 0.  1.
         -2   -1    0    0    0  501 -0.00000000000E+00 -0.00000000000E+00 -0.11034796168E+01  0.11034796168E+01  0.00000000000E+00 0. -1.
          1    1    1    2  502    0  0.16258832522E+02  0.15848944396E+02  0.65768764161E+03  0.65807945766E+03  0.00000000000E+00 0.  1.
         -1    1    1    2    0  501 -0.16258832522E+02 -0.15848944396E+02  0.14110289883E+03  0.14291804201E+03  0.00000000000E+00 0. -1.
</event>
<event>
 4    1  0.6888348E+001  0.2233701E+02  0.7546771E-02  0.1500996E+00
          2   -1    0    0  502    0  0.00000000000E+00  0.00000000000E+00  0.45425701853E+02  0.45425701853E+02  0.00000000000E+00 0. -1.
         -2   -1    0    0    0  501 -0.00000000000E+00 -0.00000000000E+00 -0.14144675241E+02  0.14144675241E+02  0.00000000000E+00 0.  1.
          1    1    1    2  502    0  0.20897747653E+02 -0.78883436226E+01  0.15601096587E+01  0.22391421666E+02  0.00000000000E+00 0.  1.
         -1    1    1    2    0  501 -0.20897747653E+02  0.78883436226E+01  0.29720916954E+02  0.37178955427E+02  0.00000000000E+00 0. -1.
</event>
<event>
 4    1  0.6888348E+001  0.2484610E+02  0.7546771E-02  0.1470532E+00
          2   -1    0    0  502    0  0.00000000000E+00  0.00000000000E+00  0.24698810483E+04  0.24698810483E+04  0.00000000000E+00 0. -1.
         -2   -1    0    0    0  501 -0.00000000000E+00 -0.00000000000E+00 -0.25026154211E+00  0.25026154211E+00  0.00000000000E+00 0.  1.
          1    1    1    2  502    0  0.85707497819E+00  0.24831311958E+02  0.12789023658E+04  0.12791436940E+04  0.00000000000E+00 0.  1.
         -1    1    1    2    0  501 -0.85707497819E+00 -0.24831311958E+02  0.11907284209E+04  0.11909876158E+04  0.00000000000E+00 0. -1.
</event>
<event>
 4    1  0.6888348E+001  0.2912215E+02  0.7546771E-02  0.1427381E+00
          2   -1    0    0  502    0  0.00000000000E+00  0.00000000000E+00  0.59390160357E+03  0.59390160357E+03  0.00000000000E+00 0. -1.
         -2   -1    0    0    0  501 -0.00000000000E+00 -0.00000000000E+00 -0.26189944361E+01  0.26189944361E+01  0.00000000000E+00 0.  1.
          1    1    1    2  502    0 -0.25917788875E+02  0.13280363512E+02  0.49677297724E+03  0.49762585418E+03  0.00000000000E+00 0. -1.
         -1    1    1    2    0  501  0.25917788875E+02 -0.13280363512E+02  0.94509631893E+02  0.98894743822E+02  0.00000000000E+00 0.  1.
</event>
<event>
 4    1  0.6888348E+001  0.2112099E+02  0.7546771E-02  0.1517544E+00
          2   -1    0    0  502    0  0.00000000000E+00  0.00000000000E+00  0.35379539635E+01  0.35379539635E+01  0.00000000000E+00 0.  1.
         -2   -1    0    0    0  501 -0.00000000000E+00 -0.00000000000E+00 -0.12608880519E+03  0.12608880519E+03  0.00000000000E+00 0. -1.
          1    1    1    2  502    0  0.15957964525E+02  0.13836175210E+02 -0.61285997792E+02  0.64823374655E+02  0.00000000000E+00 0. -1.
         -1    1    1    2    0  501 -0.15957964525E+02 -0.13836175210E+02 -0.61264853439E+02  0.64803384504E+02  0.00000000000E+00 0.  1.
</event>
<event>
 4    1  0.6888348E+001  0.3639613E+02  0.7546771E-02  0.1371005E+00
          2   -1    0    0  502    0  0.00000000000E+00  0.00000000000E+00  0.44852724967E+02  0.44852724967E+02  0.00000000000E+00 0. -1.
         -2   -1    0    0    0  501 -0.00000000000E+00 -0.00000000000E+00 -0.67090791248E+02  0.67090791248E+02  0.00000000000E+00 0.  1.
          1    1    1    2  502    0 -0.33830830106E+02 -0.13422111942E+02 -0.52996655721E+02  0.64290929937E+02  0.00000000000E+00 0.  1.
         -1    1    1    2    0  501  0.33830830106E+02  0.13422111942E+02  0.30758589440E+02  0.47652586278E+02  0.00000000000E+00 0. -1.
</event>
<event>
 4    1  0.6888348E+001  0.3324818E+02  0.7546771E-02  0.1393316E+00
          2   -1    0    0  502    0  0.00000000000E+00  0.00000000000E+00  0.73232221793E+03  0.73232221793E+03  0.00000000000E+00 0.  1.
         -2   -1    0    0    0  501 -0.00000000000E+00 -0.00000000000E+00 -0.16950883443E+01  0.16950883443E+01  0.00000000000E+00 0. -1.
          1    1    1    2  502    0  0.31342359859E+02  0.11094946858E+02  0.48675137268E+03  0.48788558103E+03  0.00000000000E+00 0. -1.
         -1    1    1    2    0  501 -0.31342359859E+02 -0.11094946858E+02  0.24387575691E+03  0.24613172525E+03  0.00000000000E+00 0.  1.
</event>
<event>
 4    1  0.6888348E+001  0.3377210E+02  0.7546771E-02  0.1389407E+00
          2   -1    0    0  502    0  0.00000000000E+00  0.00000000000E+00  0.90102036244E+03  0.90102036244E+03  0.00000000000E+00 0.  1.
         -2   -1    0    0    0  501 -0.00000000000E+00 -0.00000000000E+00 -0.15627778364E+01  0.15627778364E+01  0.00000000000E+00 0. -1.
          1    1    1    2  502    0  0.26882240984E+02  0.20442598433E+02  0.64644294682E+03  0.64732452310E+03  0.00000000000E+00 0.  1.
         -1    1    1    2    0  501 -0.26882240984E+02 -0.20442598433E+02  0.25301463779E+03  0.25525861718E+03  0.00000000000E+00 0. -1.
</event>
<event>
 4    1  0.6888348E+001  0.3191310E+02  0.7546771E-02  0.1403669E+00
          2   -1    0    0  502    0  0.00000000000E+00  0.00000000000E+00  0.99182412702E+03  0.99182412702E+03  0.00000000000E+00 0. -1.
         -2   -1    0    0    0  501 -0.00000000000E+00 -0.00000000000E+00 -0.19351122145E+01  0.19351122145E+01  0.00000000000E+00 0.  1.
          1    1    1    2  502    0 -0.29908874891E+02 -0.11131255240E+02  0.15453170017E+03  0.15779256002E+03  0.00000000000E+00 0.  1.
         -1    1    1    2    0  501  0.29908874891E+02  0.11131255240E+02  0.83535731464E+03  0.83596667922E+03  0.00000000000E+00 0. -1.
</event>
<event>
 4    1  0.6888348E+001  0.2435037E+02  0.7546771E-02  0.1476204E+00
          2   -1    0    0  502    0  0.00000000000E+00  0.00000000000E+00  0.38605599926E+03  0.38605599926E+03  0.00000000000E+00 0. -1.
         -2   -1    0    0    0  501 -0.00000000000E+00 -0.00000000000E+00 -0.15911593479E+01  0.15911593479E+01  0.00000000000E+00 0.  1.
          1    1    1    2  502    0  0.17591331958E+02 -0.16837034349E+02  0.22835513379E+03  0.22964975031E+03  0.00000000000E+00 0. -1.
         -1    1    1    2    0  501 -0.17591331958E+02  0.16837034349E+02  0.15610970611E+03  0.15799740830E+03  0.00000000000E+00 0.  1.
</event>
<event>
 4    1  0.6888348E+001  0.2779995E+02  0.7546771E-02  0.1439734E+00
          2   -1    0    0  502    0  0.00000000000E+00  0.00000000000E+00  0.16910621304E+04  0.16910621304E+04  0.00000000000E+00 0. -1.
         -2   -1    0    0    0  501 -0.00000000000E+00 -0.00000000000E+00 -0.50067281034E+00  0.50067281034E+00  0.00000000000E+00 0.  1.
          1    1    1    2  502    0 -0.60965392422E+01 -0.27123222450E+02  0.59552054890E+03  0.59616907094E+03  0.00000000000E+00 0.  1.
         -1    1    1    2    0  501  0.60965392422E+01  0.27123222450E+02  0.10950409087E+04  0.10953937323E+04  0.00000000000E+00 0. -1.
</event>
<event>
 4    1  0.6888348E+001  0.2035399E+02  0.7546771E-02  0.1528691E+00
          2   -1    0    0  502    0  0.00000000000E+00  0.00000000000E+00  0.14790739493E+04  0.14790739493E+04  0.00000000000E+00 0.  1.
         -2   -1    0    0    0  501 -0.00000000000E+00 -0.00000000000E+00 -0.28831027396E+00  0.28831027396E+00  0.00000000000E+00 0. -1.
          1    1    1    2  502    0  0.18224283717E+02  0.90642318170E+01  0.61455067974E+03  0.61488765054E+03  0.00000000000E+00 0. -1.
         -1    1    1    2    0  501 -0.18224283717E+02 -0.90642318170E+01  0.86423495925E+03  0.86447460900E+03  0.00000000000E+00 0.  1.
</event>
<event>
 4    1  0.6888348E+001  0.2518885E+02  0.7546771E-02  0.1466702E+00
          2   -1    0    0  502    0  0.00000000000E+00  0.00000000000E+00  0.11675769936E+04  0.11675769936E+04  0.00000000000E+00 0.  1.
         -2   -1    0    0    0  501 -0.00000000000E+00 -0.00000000000E+00 -0.74923503196E+00  0.74923503196E+00  0.00000000000E+00 0. -1.
          1    1    1    2  502    0 -0.16665808957E+02  0.18887269477E+02  0.88958876215E+03  0.88994530387E+03  0.00000000000E+00 0.  1.
         -1    1    1    2    0  501  0.16665808957E+02 -0.18887269477E+02  0.27723899641E+03  0.27838092476E+03  0.00000000000E+00 0. -1.
</event>
<event>
 4    1  0.6888348E+001  0.6250687E+02  0.7546771E-02  0.1251545E+00
          2   -1    0    0  502    0  0.00000000000E+00  0.00000000000E+00  0.96034741077E+02  0.96034741077E+02  0.00000000000E+00 0. -1.
         -2   -1    0    0    0  501 -0.00000000000E+00 -0.00000000000E+00 -0.61935424872E+02  0.61935424872E+02  0.00000000000E+00 0.  1.
          1    1    1    2  502    0 -0.61757317316E+02  0.96510628970E+01 -0.29216789619E+02  0.68998043833E+02  0.00000000000E+00 0.  1.
         -1    1    1    2    0  501  0.61757317316E+02 -0.96510628970E+01  0.63316105824E+02  0.88972122116E+02  0.00000000000E+00 0. -1.
</event>
<event>
 4    1  0.6888348E+001  0.3074025E+02  0.7546771E-02  0.1413271E+00
          2   -1    0    0  502    0  0.00000000000E+00  0.00000000000E+00  0.15172986616E+03  0.15172986616E+03  0.00000000000E+00 0. -1.
         -2   -1    0    0    0  501 -0.00000000000E+00 -0.00000000000E+00 -0.10292753739E+02  0.10292753739E+02  0.00000000000E+00 0.  1.
          1    1    1    2  502    0  0.30586356613E+02  0.30720591700E+01  0.12162828726E+03  0.12545279199E+03  0.00000000000E+00 0. -1.
         -1    1    1    2    0  501 -0.30586356613E+02 -0.30720591700E+01  0.19808825163E+02  0.36569827901E+02  0.00000000000E+00 0.  1.
</event>
<event>
 4    1  0.6888348E+001  0.4076627E+02  0.7546771E-02  0.1344053E+00
          2   -1    0    0  502    0  0.00000000000E+00  0.00000000000E+00  0.47466135434E+02  0.47466135434E+02  0.00000000000E+00 0.  1.
         -2   -1    0    0    0  501 -0.00000000000E+00 -0.00000000000E+00 -0.66021886159E+02  0.66021886159E+02  0.00000000000E+00 0. -1.
          1    1    1    2  502    0 -0.39552213994E+02  0.98747913488E+01 -0.48166756046E+02  0.63102500141E+02  0.00000000000E+00 0. -1.
         -1    1    1    2    0  501  0.39552213994E+02 -0.98747913488E+01  0.29611005321E+02  0.50385521453E+02  0.00000000000E+00 0.  1.
</event>
<event>
 4    1  0.6888348E+001  0.2209701E+02  0.7546771E-02  0.1504159E+00
          2   -1    0    0  502    0  0.00000000000E+00  0.00000000000E+00  0.17813374024E+03  0.17813374024E+03  0.00000000000E+00 0. -1.
         -2   -1    0    0    0  501 -0.00000000000E+00 -0.00000000000E+00 -0.31688881607E+01  0.31688881607E+01  0.00000000000E+00 0.  1.
          1    1    1    2  502    0  0.20666099336E+02  0.78224075130E+01  0.12079041013E+03  0.12279495470E+03  0.00000000000E+00 0. -1.
         -1    1    1    2    0  501 -0.20666099336E+02 -0.78224075130E+01  0.54174441953E+02  0.58507673702E+02  0.00000000000E+00 0.  1.
</event>
<event>
 4    1  0.6888348E+001  0.2766336E+02  0.7546771E-02  0.1441056E+00
          2   -1    0    0  502    0  0.00000000000E+00  0.00000000000E+00  0.12013040364E+02  0.12013040364E+02  0.00000000000E+00 0.  1.
         -2   -1    0    0    0  501 -0.00000000000E+00 -0.00000000000E+00 -0.82343388988E+02  0.82343388988E+02  0.00000000000E+00 0. -1.
          1    1    1    2  502    0  0.25395014532E+02 -0.10970634384E+02 -0.12718107861E+02  0.30446869288E+02  0.00000000000E+00 0.  1.
         -1    1    1    2    0  501 -0.25395014532E+02  0.10970634384E+02 -0.57612240763E+02  0.63909560065E+02  0.00000000000E+00 0. -1.
</event>
<event>
 4    1  0.6888348E+001  0.2693936E+02  0.7546771E-02  0.1448218E+00
          2   -1    0    0  502    0  0.00000000000E+00  0.00000000000E+00  0.62117898598E+03  0.62117898598E+03  0.00000000000E+00 0. -1.
         -2   -1    0    0    0  501 -0.00000000000E+00 -0.00000000000E+00 -0.20842439942E+01  0.20842439942E+01  0.00000000000E+00 0.  1.
          1    1    1    2  502    0  0.19965317399E+02 -0.18086332169E+02  0.10296205986E+03  0.10642798072E+03  0.00000000000E+00 0.  1.
         -1    1    1    2    0  501 -0.19965317399E+02  0.18086332169E+02  0.51613268213E+03  0.51683524925E+03  0.00000000000E+00 0. -1.
</event>
<event>
 4    1  0.6888348E+001  0.2290716E+02  0.7546771E-02  0.1493667E+00
          2   -1    0    0  502    0  0.00000000000E+00  0.00000000000E+00  0.11091407716E+04  0.11091407716E+04  0.00000000000E+00 0.  1.
         -2   -1    0    0    0  501 -0.00000000000E+00 -0.00000000000E+00 -0.10867620516E+01  0.10867620516E+01  0.00000000000E+00 0. -1.
          1    1    1    2  502    0  0.22788420365E+02  0.23293955401E+01  0.13689047588E+03  0.13879387801E+03  0.00000000000E+00 0. -1.
         -1    1    1    2    0  501 -0.22788420365E+02 -0.23293955401E+01  0.97116353363E+03  0.97143365561E+03  0.00000000000E+00 0.  1.
</event>
<event>
 4    1  0.6888348E+001  0.4570982E+02  0.7546771E-02  0.1317928E+00
          2   -1    0    0  502    0  0.00000000000E+00  0.00000000000E+00  0.21541143179E+04  0.21541143179E+04  0.00000000000E+00 0.  1.
         -2   -1    0    0    0  501 -0.00000000000E+00 -0.00000000000E+00 -0.11198814860E+01  0.11198814860E+01  0.00000000000E+00 0. -1.
          1    1    1    2  502    0 -0.43738483446E-01 -0.45709797586E+02  0.14707928411E+04  0.14715029626E+04  0.00000000000E+00 0.  1.
         -1    1    1    2    0  501  0.43738483446E-01  0.45709797586E+02  0.68220159532E+03  0.68373123679E+03  0.00000000000E+00 0. -1.
</event>
<event>
 4    1  0.6888348E+001  0.2615732E+02  0.7546771E-02  0.1456262E+00
          2   -1    0    0  502    0  0.00000000000E+00  0.00000000000E+00  0.76034689809E+01  0.76034689809E+01  0.00000000000E+00 0.  1.
         -2   -1    0    0    0  501 -0.00000000000E+00 -0.00000000000E+00 -0.35428091341E+03  0.35428091341E+03  0.00000000000E+00 0. -1.
          1    1    1    2  502    0 -0.24007334789E+02  0.10385240794E+02 -0.32962124533E+03  0.33065748248E+03  0.00000000000E+00 0. -1.
         -1    1    1    2    0  501  0.24007334789E+02 -0.10385240794E+02 -0.17056199097E+02  0.31226899904E+02  0.00000000000E+00 0.  1.
</event>
<event>
 4    1  0.6888348E+001  0.3088454E+02  0.7546771E-02  0.1412062E+00
          2   -1    0    0  502    0  0.00000000000E+00  0.00000000000E+00  0.65226338018E+03  0.65226338018E+03  0.00000000000E+00 0. -1.
         -2   -1    0    0    0  501 -0.00000000000E+00 -0.00000000000E+00 -0.16131728482E+01  0.16131728482E+01  0.00000000000E+00 0.  1.
          1    1    1    2  502    0  0.28979021975E+02  0.10680416485E+02  0.22536656276E+03  0.22747294921E+03  0.00000000000E+00 0.  1.
         -1    1    1    2    0  501 -0.28979021975E+02 -0.10680416485E+02  0.42528364457E+03  0.42640360382E+03  0.00000000000E+00 0. -1.
</event>
<event>
 4    1  0.6888348E+001  0.3000297E+02  0.7546771E-02  0.1419571E+00
          2   -1    0    0  502    0  0.00000000000E+00  0.00000000000E+00  0.11427908939E+03  0.11427908939E+03  0.00000000000E+00 0. -1.
         -2   -1    0    0    0  501 -0.00000000000E+00 -0.00000000000E+00 -0.80356863318E+01  0.80356863318E+01  0.00000000000E+00 0.  1.
          1    1    1    2  502    0 -0.23863376445E+02 -0.18185631936E+02  0.61715567060E+02  0.68622074887E+02  0.00000000000E+00 0. -1.
         -1    1    1    2    0  501  0.23863376445E+02  0.18185631936E+02  0.44527835998E+02  0.53692700834E+02  0.00000000000E+00 0.  1.
</event>
<event>
 4    1  0.6888348E+001  0.2384421E+02  0.7546771E-02  0.1482161E+00
          2   -1    0    0  502    0  0.00000000000E+00  0.00000000000E+00  0.16532959208E+01  0.16532959208E+01  0.00000000000E+00 0.  1.
         -2   -1    0    0    0  501 -0.00000000000E+00 -0.00000000000E+00 -0.37414302892E+03  0.37414302892E+03  0.00000000000E+00 0. -1.
          1    1    1    2  502    0 -0.89251849316E+01 -0.22110795919E+02 -0.23967828159E+03  0.24086142258E+03  0.00000000000E+00 0.  1.
         -1    1    1    2    0  501  0.89251849316E+01  0.22110795919E+02 -0.13281145141E+03  0.13493490226E+03  0.00000000000E+00 0. -1.
</event>
<event>
 4    1  0.6888348E+001  0.2193316E+02  0.7546771E-02  0.1506347E+00
          2   -1    0    0  502    0  0.00000000000E+00  0.00000000000E+00  0.29364016448E+02  0.29364016448E+02  0.00000000000E+00 0.  1.
         -2   -1    0    0    0  501 -0.00000000000E+00 -0.00000000000E+00 -0.16966757800E+02  0.16966757800E+02  0.00000000000E+00 0. -1.
          1    1    1    2  502    0  0.71143948183E+01 -0.20747263031E+02  0.10496436911E+02  0.24315400978E+02  0.00000000000E+00 0. -1.
         -1    1    1    2    0  501 -0.71143948183E+01  0.20747263031E+02  0.19008217374E+01  0.22015373270E+02  0.00000000000E+00 0.  1.
</event>
<event>
 4    1  0.6888348E+001  0.4737893E+02  0.7546771E-02  0.1309955E+00
          2   -1    0    0  502    0  0.00000000000E+00  0.00000000000E+00  0.64942412794E+03  0.64942412794E+03  0.00000000000E+00 0.  1.
         -2   -1    0    0    0  501 -0.00000000000E+00 -0.00000000000E+00 -0.40101061624E+01  0.40101061624E+01  0.00000000000E+00 0. -1.
          1    1    1    2  502    0  0.32826295255E+02 -0.34164271004E+02  0.44409540091E+03  0.44661559330E+03  0.00000000000E+00 0.  1.
         -1    1    1    2    0  501 -0.32826295255E+02  0.34164271004E+02  0.20131862087E+03  0.20681864080E+03  0.00000000000E+00 0. -1.
</event>
<event>
 4    1  0.6888348E+001  0.2444683E+02  0.7546771E-02  0.1475088E+00
          2   -1    0    0  502    0  0.00000000000E+00  0.00000000000E+00  0.14554715019E+04  0.14554715019E+04  0.00000000000E+00 0.  1.
         -2   -1    0    0    0  501 -0.00000000000E+00 -0.00000000000E+00 -0.42828094013E+00  0.42828094013E+00  0.00000000000E+00 0. -1.
          1    1    1    2  502    0  0.20975470848E+02 -0.12556959226E+02  0.87533984776E+03  0.87568116154E+03  0.00000000000E+00 0.  1.
         -1    1    1    2    0  501 -0.20975470848E+02  0.12556959226E+02  0.57970337325E+03  0.58021862135E+03  0.00000000000E+00 0. -1.
</event>
<event>
 4    1  0.6888348E+001  0.2266993E+02  0.7546771E-02  0.1496685E+00
          2   -1    0    0  502    0  0.00000000000E+00  0.00000000000E+00  0.90348989575E+01  0.90348989575E+01  0.00000000000E+00 0. -1.
         -2   -1    0    0    0  501 -0.00000000000E+00 -0.00000000000E+00 -0.24791680135E+03  0.24791680135E+03  0.00000000000E+00 0.  1.
          1    1    1    2  502    0 -0.11468810890E+02 -0.19554854170E+02 -0.66629454505E+01  0.23628812643E+02  0.00000000000E+00 0. -1.
         -1    1    1    2    0  501  0.11468810890E+02  0.19554854170E+02 -0.23221895694E+03  0.23332288767E+03  0.00000000000E+00 0.  1.
</event>
<event>
 4    1  0.6888348E+001  0.2320985E+02  0.7546771E-02  0.1489880E+00
          2   -1    0    0  502    0  0.00000000000E+00  0.00000000000E+00  0.10660500292E+03  0.10660500292E+03  0.00000000000E+00 0.  1.
         -2   -1    0    0    0  501 -0.00000000000E+00 -0.00000000000E+00 -0.76081370008E+01  0.76081370008E+01  0.00000000000E+00 0. -1.
          1    1    1    2  502    0 -0.20796762145E+02  0.10304943653E+02  0.82591452103E+02  0.85790705440E+02  0.00000000000E+00 0.  1.
         -1    1    1    2    0  501  0.20796762145E+02 -0.10304943653E+02  0.16405413819E+02  0.28422434483E+02  0.00000000000E+00 0. -1.
</event>
<event>
 4    1  0.6888348E+001  0.2602274E+02  0.7546771E-02  0.1457680E+00
          2   -1    0    0  502    0  0.00000000000E+00  0.00000000000E+00  0.58596583043E+03  0.58596583043E+03  0.00000000000E+00 0.  1.
         -2   -1    0    0    0  501 -0.00000000000E+00 -0.00000000000E+00 -0.14787860149E+01  0.14787860149E+01  0.00000000000E+00 0. -1.
          1    1    1    2  502    0 -0.24504906436E+02  0.87574358659E+01  0.15494574152E+03  0.15711577240E+03  0.00000000000E+00 0.  1.
         -1    1    1    2    0  501  0.24504906436E+02 -0.87574358659E+01  0.42954130289E+03  0.43032884404E+03  0.00000000000E+00 0. -1.
</event>
<event>
 4    1  0.6888348E+001  0.2367707E+02  0.7546771E-02  0.1484167E+00
          2   -1    0    0  502    0  0.00000000000E+00  0.00000000000E+00  0.78693582903E+03  0.78693582903E+03  0.00000000000E+00 0.  1.
         -2   -1    0    0    0  501 -0.00000000000E+00 -0.00000000000E+00 -0.25072301523E+01  0.25072301523E+01  0.00000000000E+00 0. -1.
          1    1    1    2  502    0  0.34697088100E+01  0.23421462237E+02  0.58244785773E+02  0.62873355583E+02  0.00000000000E+00 0. -1.
         -1    1    1    2    0  501 -0.34697088100E+01 -0.23421462237E+02  0.72618381311E+03  0.72656970360E+03  0.00000000000E+00 0.  1.
</event>
<event>
 4    1  0.6888348E+001  0.2885547E+02  0.7546771E-02  0.1429810E+00
          2   -1    0    0  502    0  0.00000000000E+00  0.00000000000E+00  0.24081431556E+01  0.24081431556E+01  0.00000000000E+00 0. -1.
         -2   -1    0    0    0  501 -0.00000000000E+00 -0.00000000000E+00 -0.56277577621E+03  0.56277577621E+03  0.00000000000E+00 0.  1.
          1    1    1    2  502    0 -0.28358123563E+02 -0.53343019451E+01 -0.45566818339E+03  0.45658091430E+03  0.00000000000E+00 0.  1.
         -1    1    1    2    0  501  0.28358123563E+02  0.53343019451E+01 -0.10469944967E+03  0.10860300507E+03  0.00000000000E+00 0. -1.
</event>
<event>
 4    1  0.6888348E+001  0.3077675E+02  0.7546771E-02  0.1412964E+00
          2   -1    0    0  502    0  0.00000000000E+00  0.00000000000E+00  0.39311260699E+01  0.39311260699E+01  0.00000000000E+00 0. -1.
         -2   -1    0    0    0  501 -0.00000000000E+00 -0.00000000000E+00 -0.29699603084E+03  0.29699603084E+03  0.00000000000E+00 0.  1.
          1    1    1    2  502    0 -0.18452891630E+02  0.24631261467E+02 -0.81170484473E+02  0.86809307108E+02  0.00000000000E+00 0. -1.
         -1    1    1    2    0  501  0.18452891630E+02 -0.24631261467E+02 -0.21189442030E+03  0.21411784981E+03  0.00000000000E+00 0.  1.
</event>
<event>
 4    1  0.6888348E+001  0.2510526E+02  0.7546771E-02  0.1467629E+00
          2   -1    0    0  502    0  0.00000000000E+00  0.00000000000E+00  0.56474864794E+03  0.56474864794E+03  0.00000000000E+00 0.  1.
         -2   -1    0    0    0  501 -0.00000000000E+00 -0.00000000000E+00 -0.11488220562E+01  0.11488220562E+01  0.00000000000E+00 0. -1.
          1    1    1    2  502    0  0.21385939151E+02 -0.13149734313E+02  0.32960733607E+03  0.33056205151E+03  0.00000000000E+00 0.  1.
         -1    1    1    2    0  501 -0.21385939151E+02  0.13149734313E+02  0.23399248981E+03  0.23533541848E+03  0.00000000000E+00 0. -1.
</event>
<event>
 4    1  0.6888348E+001  0.2221583E+02  0.7546771E-02  0.1502587E+00
          2   -1    0    0  502    0  0.00000000000E+00  0.00000000000E+00  0.63931477335E+03  0.63931477335E+03  0.00000000000E+00 0. -1.
         -2   -1    0    0    0  501 -0.00000000000E+00 -0.00000000000E+00 -0.79043416341E+00  0.79043416341E+00  0.00000000000E+00 0.  1.
          1    1    1    2  502    0 -0.92331399822E+01 -0.20206239502E+02  0.27036903482E+03  0.27128022040E+03  0.00000000000E+00 0.  1.
         -1    1    1    2    0  501  0.92331399822E+01  0.20206239502E+02  0.36815530436E+03  0.36882498711E+03  0.00000000000E+00 0. -1.
</event>
<event>
 4    1  0.6888348E+001  0.2499807E+02  0.7546771E-02  0.1468825E+00
          2   -1    0    0  502    0  0.00000000000E+00  0.00000000000E+00  0.50195655840E+02  0.50195655840E+02  0.00000000000E+00 0.  1.
         -2   -1    0    0    0  501 -0.00000000000E+00 -0.00000000000E+00 -0.19227320428E+02  0.19227320428E+02  0.00000000000E+00 0. -1.
          1    1    1    2  502    0 -0.23393821652E+02  0.88109235944E+01 -0.51251540608E+01  0.25518042053E+02  0.00000000000E+00 0. -1.
         -1    1    1    2    0  501  0.23393821652E+02 -0.88109235944E+01  0.36093489474E+02  0.43904934215E+02  0.00000000000E+00 0.  1.
</event>
<event>
 4    1  0.6888348E+001  0.2015311E+02  0.7546771E-02  0.1531708E+00
          2   -1    0    0  502    0  0.00000000000E+00  0.00000000000E+00  0.28750167959E+03  0.28750167959E+03  0.00000000000E+00 0.  1.
         -2   -1    0    0    0  501 -0.00000000000E+00 -0.00000000000E+00 -0.18134754716E+01  0.18134754716E+01  0.00000000000E+00 0. -1.
          1    1    1    2  502    0  0.19837723182E+02 -0.35514137568E+01  0.74838156442E+02  0.77504177050E+02  0.00000000000E+00 0. -1.
         -1    1    1    2    0  501 -0.19837723182E+02  0.35514137568E+01  0.21085004767E+03  0.21181097801E+03  0.00000000000E+00 0.  1.
</event>
<event>
 4    1  0.6888348E+001  0.2187384E+02  0.7546771E-02  0.1507145E+00
          2   -1    0    0  502    0  0.00000000000E+00  0.00000000000E+00  0.46498336903E+03  0.46498336903E+03  0.00000000000E+00 0. -1.
         -2   -1    0    0    0  501 -0.00000000000E+00 -0.00000000000E+00 -0.10820440072E+01  0.10820440072E+01  0.00000000000E+00 0.  1.
          1    1    1    2  502    0 -0.21872399368E+02  0.25085599845E+00  0.28354949853E+03  0.28439195294E+03  0.00000000000E+00 0.  1.
         -1    1    1    2    0  501  0.21872399368E+02 -0.25085599845E+00  0.18035182650E+03  0.18167346010E+03  0.00000000000E+00 0. -1.
</event>
<event>
 4    1  0.6888348E+001  0.4161645E+02  0.7546771E-02  0.1339265E+00
          2   -1    0    0  502    0  0.00000000000E+00  0.00000000000E+00  0.43936964789E+02  0.43936964789E+02  0.00000000000E+00 0. -1.
         -2   -1    0    0    0  501 -0.00000000000E+00 -0.00000000000E+00 -0.40818455934E+02  0.40818455934E+02  0.00000000000E+00 0.  1.
          1    1    1    2  502    0 -0.40798712278E+02  0.82093973659E+01  0.94073955056E+01  0.42666476522E+02  0.00000000000E+00 0. -1.
         -1    1    1    2    0  501  0.40798712278E+02 -0.82093973659E+01 -0.62888866511E+01  0.42088944201E+02  0.00000000000E+00 0.  1.
</event>
<event>
 4    1  0.6888348E+001  0.3636614E+02  0.7546771E-02  0.1371205E+00
          2   -1    0    0  502    0  0.00000000000E+00  0.00000000000E+00  0.11871902940E+04  0.11871902940E+04  0.00000000000E+00 0.  1.
         -2   -1    0    0    0  501 -0.00000000000E+00 -0.00000000000E+00 -0.12381099122E+01  0.12381099122E+01  0.00000000000E+00 0. -1.
          1    1    1    2  502    0 -0.35429453856E+02  0.82006019167E+01  0.78113147105E+03  0.78197753877E+03  0.00000000000E+00 0.  1.
         -1    1    1    2    0  501  0.35429453856E+02 -0.82006019167E+01  0.40482071303E+03  0.40645086513E+03  0.00000000000E+00 0. -1.
</event>
<event>
 4    1  0.6888348E+001  0.3711876E+02  0.7546771E-02  0.1366250E+00
          2   -1    0    0  502    0  0.00000000000E+00  0.00000000000E+00  0.55663274282E+01  0.55663274282E+01  0.00000000000E+00 0. -1.
         -2   -1    0    0    0  501 -0.00000000000E+00 -0.00000000000E+00 -0.25999544774E+03  0.25999544774E+03  0.00000000000E+00 0.  1.
          1    1    1    2  502    0 -0.37025538787E+02  0.26289775192E+01 -0.15629517449E+03  0.16064240914E+03  0.00000000000E+00 0.  1.
         -1    1    1    2    0  501  0.37025538787E+02 -0.26289775192E+01 -0.98133945818E+02  0.10491936603E+03  0.00000000000E+00 0. -1.
</event>
<event>
 4    1  0.6888348E+001  0.2142269E+02  0.7546771E-02  0.1513315E+00
          2   -1    0    0  502    0  0.00000000000E+00  0.00000000000E+00  0.17320427631E+04  0.17320427631E+04  0.00000000000E+00 0.  1.
         -2   -1    0    0    0  501 -0.00000000000E+00 -0.00000000000E+00 -0.72183019150E+00  0.72183019150E+00  0.00000000000E+00 0. -1.
          1    1    1    2  502    0  0.19252553452E+02 -0.93952625226E+01  0.15549247773E+04  0.15550723439E+04  0.00000000000E+00 0.  1.
         -1    1    1    2    0  501 -0.19252553452E+02  0.93952625226E+01  0.17639615563E+03  0.17769224939E+03  0.00000000000E+00 0. -1.
</event>
<event>
 4    1  0.6888348E+001  0.2367114E+02  0.7546771E-02  0.1484238E+00
          2   -1    0    0  502    0  0.00000000000E+00  0.00000000000E+00  0.19200774002E+03  0.19200774002E+03  0.00000000000E+00 0.  1.
         -2   -1    0    0    0  501 -0.00000000000E+00 -0.00000000000E+00 -0.34965682253E+01  0.34965682253E+01  0.00000000000E+00 0. -1.
          1    1    1    2  502    0  0.21813303719E+02  0.91925223393E+01  0.13401101099E+03  0.13608553837E+03  0.00000000000E+00 0.  1.
         -1    1    1    2    0  501 -0.21813303719E+02 -0.91925223393E+01  0.54500160802E+02  0.59418769876E+02  0.00000000000E+00 0. -1.
</event>
<event>
 4    1  0.6888348E+001  0.2350462E+02  0.7546771E-02  0.1486257E+00
          2   -1    0    0  502    0  0.00000000000E+00  0.00000000000E+00  0.79013769592E+00  0.79013769592E+00  0.00000000000E+00 0.  1.
         -2   -1    0    0    0  501 -0.00000000000E+00 -0.00000000000E+00 -0.71397843029E+03  0.71397843029E+03  0.00000000000E+00 0. -1.
          1    1    1    2  502    0  0.16877034251E+02  0.16359491847E+02 -0.30518367274E+03  0.30608747339E+03  0.00000000000E+00 0. -1.
         -1    1    1    2    0  501 -0.16877034251E+02 -0.16359491847E+02 -0.40800461986E+03  0.40868109460E+03  0.00000000000E+00 0.  1.
</event>
<event>
 4    1  0.6888348E+001  0.2344655E+02  0.7546771E-02  0.1486966E+00
          2   -1    0    0  502    0  0.00000000000E+00  0.00000000000E+00  0.83548705562E+02  0.83548705562E+02  0.00000000000E+00 0.  1.
         -2   -1    0    0    0  501 -0.00000000000E+00 -0.00000000000E+00 -0.11437218773E+02  0.11437218773E+02  0.00000000000E+00 0. -1.
          1    1    1    2  502    0 -0.23371826610E+02  0.18704023664E+01  0.67006275432E+02  0.70990010785E+02  0.00000000000E+00 0.  1.
         -1    1    1    2    0  501  0.23371826610E+02 -0.18704023664E+01  0.51052113570E+01  0.23995913550E+02  0.00000000000E+00 0. -1.
</event>
<event>
 4    1  0.6888348E+001  0.2053884E+02  0.7546771E-02  0.1525952E+00
          2   -1    0    0  502    0  0.00000000000E+00  0.00000000000E+00  0.59980293333E+03  0.59980293333E+03  0.00000000000E+00 0. -1.
         -2   -1    0    0    0  501 -0.00000000000E+00 -0.00000000000E+00 -0.70332528099E+00  0.70332528099E+00  0.00000000000E+00 0.  1.
          1    1    1    2  502    0  0.16509456427E+02 -0.12218088055E+02  0.29789982075E+03  0.29860701102E+03  0.00000000000E+00 0.  1.
         -1    1    1    2    0  501 -0.16509456427E+02  0.12218088055E+02  0.30119978730E+03  0.30189924759E+03  0.00000000000E+00 0. -1.
</event>
<event>
 4    1  0.6888348E+001  0.2252343E+02  0.7546771E-02  0.1498571E+00
          2   -1    0    0  502    0  0.00000000000E+00  0.00000000000E+00  0.69893135917E+01  0.69893135917E+01  0.00000000000E+00 0.  1.
         -2   -1    0    0    0  501 -0.00000000000E+00 -0.00000000000E+00 -0.72682120474E+02  0.72682120474E+02  0.00000000000E+00 0. -1.
          1    1    1    2  502    0 -0.18665406896E+02  0.12605845132E+02 -0.31374669701E+02  0.38622204041E+02  0.00000000000E+00 0.  1.
         -1    1    1    2    0  501  0.18665406896E+02 -0.12605845132E+02 -0.34318137181E+02  0.41049230025E+02  0.00000000000E+00 0. -1.
</event>
<event>
 4    1  0.6888348E+001  0.3747905E+02  0.7546771E-02  0.1363927E+00
          2   -1    0    0  502    0  0.00000000000E+00  0.00000000000E+00  0.54358124464E+03  0.54358124464E+03  0.00000000000E+00 0.  1.
         -2   -1    0    0    0  501 -0.00000000000E+00 -0.00000000000E+00 -0.39583402103E+01  0.39583402103E+01  0.00000000000E+00 0. -1.
          1    1    1    2  502    0 -0.35212698166E+02 -0.12835313167E+02  0.10850301929E+03  0.11479366085E+03  0.00000000000E+00 0. -1.
         -1    1    1    2    0  501  0.35212698166E+02  0.12835313167E+02  0.43111988514E+03  0.43274592400E+03  0.00000000000E+00 0.  1.
</event>
<event>
 4    1  0.6888348E+001  0.2616878E+02  0.7546771E-02  0.1456141E+00
          2   -1    0    0  502    0  0.00000000000E+00  0.00000000000E+00  0.11985316033E+01  0.11985316033E+01  0.00000000000E+00 0. -1.
         -2   -1    0    0    0  501 -0.00000000000E+00 -0.00000000000E+00 -0.59678114955E+03  0.59678114955E+03  0.00000000000E+00 0.  1.
          1    1    1    2  502    0 -0.45302420188E+01  0.25773665292E+02 -0.35948796965E+03  0.36043918383E+03  0.00000000000E+00 0.  1.
         -1    1    1    2    0  501  0.45302420188E+01 -0.25773665292E+02 -0.23609464829E+03  0.23754049732E+03  0.00000000000E+00 0. -1.
</event>
<event>
 4    1  0.6888348E+001  0.2021773E+02  0.7546771E-02  0.1530733E+00
          2   -1    0    0  502    0  0.00000000000E+00  0.00000000000E+00  0.95505317828E+02  0.95505317828E+02  0.00000000000E+00 0.  1.
         -2   -1    0    0    0  501 -0.00000000000E+00 -0.00000000000E+00 -0.56807089527E+01  0.56807089527E+01  0.00000000000E+00 0. -1.
          1    1    1    2  502    0 -0.98209378713E+01  0.17672178975E+02  0.19789216543E+02  0.28290808079E+02  0.00000000000E+00 0. -1.
         -1    1    1    2    0  501  0.98209378713E+01 -0.17672178975E+02  0.70035392332E+02  0.72895218701E+02  0.00000000000E+00 0.  1.
</event>
<event>
 4    1  0.6888348E+001  0.2122497E+02  0.7546771E-02  0.1516077E+00
          2   -1    0    0  502    0  0.00000000000E+00  0.00000000000E+00  0.91420027877E+03  0.91420027877E+03  0.00000000000E+00 0. -1.
         -2   -1    0    0    0  501 -0.00000000000E+00 -0.00000000000E+00 -0.51503563652E+00  0.51503563652E+00  0.00000000000E+00 0.  1.
          1    1    1    2  502    0  0.11607117958E+02  0.17770035018E+02  0.55191630699E+03  0.55232427908E+03  0.00000000000E+00 0.  1.
         -1    1    1    2    0  501 -0.11607117958E+02 -0.17770035018E+02  0.36176893613E+03  0.36239103532E+03  0.00000000000E+00 0. -1.
</event>
<event>
 4    1  0.6888348E+001  0.2540841E+02  0.7546771E-02  0.1464286E+00
          2   -1    0    0  502    0  0.00000000000E+00  0.00000000000E+00  0.29800294603E+03  0.29800294603E+03  0.00000000000E+00 0.  1.
         -2   -1    0    0    0  501 -0.00000000000E+00 -0.00000000000E+00 -0.21670846165E+01  0.21670846165E+01  0.00000000000E+00 0. -1.
          1    1    1    2  502    0 -0.19375834796E+02 -0.16436673982E+02  0.15062678444E+03  0.15275475579E+03  0.00000000000E+00 0.  1.
         -1    1    1    2    0  501  0.19375834796E+02  0.16436673982E+02  0.14520907697E+03  0.14741527486E+03  0.00000000000E+00 0. -1.
</event>
<event>
 4    1  0.6888348E+001  0.2693728E+02  0.7546771E-02  0.1448239E+00
          2   -1    0    0  502    0  0.00000000000E+00  0.00000000000E+00  0.24130619134E+03  0.24130619134E+03  0.00000000000E+00 0.  1.
         -2   -1    0    0    0  501 -0.00000000000E+00 -0.00000000000E+00 -0.59821030349E+01  0.59821030349E+01  0.00000000000E+00 0. -1.
          1    1    1    2  502    0 -0.19292522557E+02 -0.18799348044E+02  0.30466389456E+02  0.40667158740E+02  0.00000000000E+00 0. -1.
         -1    1    1    2    0  501  0.19292522557E+02  0.18799348044E+02  0.20485769885E+03  0.20662113564E+03  0.00000000000E+00 0.  1.
</event>
<event>
 4    1  0.6888348E+001  0.2629593E+02  0.7546771E-02  0.1454812E+00
          2   -1    0    0  502    0  0.00000000000E+00  0.00000000000E+00  0.13615696365E+04  0.13615696365E+04  0.00000000000E+00 0. -1.
         -2   -1    0    0    0  501 -0.00000000000E+00 -0.00000000000E+00 -0.80246928810E+00  0.80246928810E+00  0.00000000000E+00 0.  1.
          1    1    1    2  502    0  0.15380052655E+02 -0.21329088999E+02  0.26763979535E+03  0.26892849628E+03  0.00000000000E+00 0.  1.
         -1    1    1    2    0  501 -0.15380052655E+02  0.21329088999E+02  0.10931273718E+04  0.10934436095E+04  0.00000000000E+00 0. -1.
</event>
<event>
 4    1  0.6888348E+001  0.2205759E+02  0.7546771E-02  0.1504684E+00
          2   -1    0    0  502    0  0.00000000000E+00  0.00000000000E+00  0.56762530466E+00  0.56762530466E+00  0.00000000000E+00 0. -1.
         -2   -1    0    0    0  501 -0.00000000000E+00 -0.00000000000E+00 -0.10535360169E+04  0.10535360169E+04  0.00000000000E+00 0.  1.
          1    1    1    2  502    0  0.45278203667E+01 -0.21587869076E+02 -0.75404073672E+03  0.75436328774E+03  0.00000000000E+00 0.  1.
         -1    1    1    2    0  501 -0.45278203667E+01  0.21587869076E+02 -0.29892765485E+03  0.29974035445E+03  0.00000000000E+00 0. -1.
</event>
<event>
 4    1  0.6888348E+001  0.2138327E+02  0.7546771E-02  0.1513863E+00
          2   -1    0    0  502    0  0.00000000000E+00  0.00000000000E+00  0.51698995018E+02  0.51698995018E+02  0.00000000000E+00 0.  1.
         -2   -1    0    0    0  501 -0.00000000000E+00 -0.00000000000E+00 -0.93002734665E+01  0.93002734665E+01  0.00000000000E+00 0. -1.
          1    1    1    2  502    0 -0.34064745862E+01 -0.21110193271E+02  0.27952252313E+02  0.35193362135E+02  0.00000000000E+00 0.  1.
         -1    1    1    2    0  501  0.34064745862E+01  0.21110193271E+02  0.14446469239E+02  0.25805906350E+02  0.00000000000E+00 0. -1.
</event>
<event>
 4    1  0.6888348E+001  0.4489725E+02  0.7546771E-02  0.1321954E+00
          2   -1    0    0  502    0  0.00000000000E+00  0.00000000000E+00  0.24197856447E+02  0.24197856447E+02  0.00000000000E+00 0. -1.
         -2   -1    0    0    0  501 -0.00000000000E+00 -0.00000000000E+00 -0.10049216239E+03  0.10049216239E+03  0.00000000000E+00 0.  1.
          1    1    1    2  502    0 -0.41981242538E+02 -0.15916605810E+02 -0.12362680998E+02  0.46568218207E+02  0.00000000000E+00 0. -1.
         -1    1    1    2    0  501  0.41981242538E+02  0.15916605810E+02 -0.63931624948E+02  0.78121800632E+02  0.00000000000E+00 0.  1.
</event>
<event>
 4    1  0.6888348E+001  0.4286177E+02  0.7546771E-02  0.1332485E+00
          2   -1    0    0  502    0  0.00000000000E+00  0.00000000000E+00  0.94865612766E+03  0.94865612766E+03  0.00000000000E+00 0.  1.
         -2   -1    0    0    0  501 -0.00000000000E+00 -0.00000000000E+00 -0.87447074509E+01  0.87447074509E+01  0.00000000000E+00 0. -1.
          1    1    1    2  502    0 -0.42081572575E+02  0.81408136343E+01  0.47573546749E+02  0.64034162345E+02  0.00000000000E+00 0. -1.
         -1    1    1    2    0  501  0.42081572575E+02 -0.81408136343E+01  0.89233787346E+03  0.89336667276E+03  0.00000000000E+00 0.  1.
</event>
<event>
 4    1  0.6888348E+001  0.3732029E+02  0.7546771E-02  0.1364947E+00
          2   -1    0    0  502    0  0.00000000000E+00  0.00000000000E+00  0.20177998219E+03  0.20177998219E+03  0.00000000000E+00 0. -1.
         -2   -1    0    0    0  501 -0.00000000000E+00 -0.00000000000E+00 -0.81916985774E+01  0.81916985774E+01  0.00000000000E+00 0.  1.
          1    1    1    2  502    0  0.22062790117E+02  0.30100458793E+02  0.13844161236E+03  0.14338369628E+03  0.00000000000E+00 0. -1.
         -1    1    1    2    0  501 -0.22062790117E+02 -0.30100458793E+02  0.55146671254E+02  0.66587984485E+02  0.00000000000E+00 0.  1.
</event>
<event>
 4    1  0.6888348E+001  0.2114769E+02  0.7546771E-02  0.1517167E+00
          2   -1    0    0  502    0  0.00000000000E+00  0.00000000000E+00  0.39032119517E+02  0.39032119517E+02  0.00000000000E+00 0. -1.
         -2   -1    0    0    0  501 -0.00000000000E+00 -0.00000000000E+00 -0.18488802242E+02  0.18488802242E+02  0.00000000000E+00 0.  1.
          1    1    1    2  502    0 -0.14426847862E+02  0.15462559775E+02 -0.74640323123E+01  0.22426245169E+02  0.00000000000E+00 0.  1.
         -1    1    1    2    0  501  0.14426847862E+02 -0.15462559775E+02  0.28007349588E+02  0.35094676590E+02  0.00000000000E+00 0. -1.
</event>
<event>
 4    1  0.6888348E+001  0.2498489E+02  0.7546771E-02  0.1468972E+00
          2   -1    0    0  502    0  0.00000000000E+00  0.00000000000E+00  0.38784794091E+03  0.38784794091E+03  0.00000000000E+00 0. -1.
         -2   -1    0    0    0  501 -0.00000000000E+00 -0.00000000000E+00 -0.16143742586E+01  0.16143742586E+01  0.00000000000E+00 0.  1.
          1    1    1    2  502    0  0.94887307463E+01 -0.23112959231E+02  0.20380658677E+03  0.20533233965E+03  0.00000000000E+00 0.  1.
         -1    1    1    2    0  501 -0.94887307463E+01  0.23112959231E+02  0.18242697988E+03  0.18412997552E+03  0.00000000000E+00 0. -1.
</event>
<event>
 4    1  0.6888348E+001  0.2774834E+02  0.7546771E-02  0.1440232E+00
          2   -1    0    0  502    0  0.00000000000E+00  0.00000000000E+00  0.35363352551E+02  0.35363352551E+02  0.00000000000E+00 0.  1.
         -2   -1    0    0    0  501 -0.00000000000E+00 -0.00000000000E+00 -0.22867693828E+02  0.22867693828E+02  0.00000000000E+00 0. -1.
          1    1    1    2  502    0  0.24775282650E+02 -0.12496235227E+02  0.12617777656E+02  0.30482434913E+02  0.00000000000E+00 0.  1.
         -1    1    1    2    0  501 -0.24775282650E+02  0.12496235227E+02 -0.12211893351E+00  0.27748611466E+02  0.00000000000E+00 0. -1.
</event>
<event>
 4    1  0.6888348E+001  0.3792302E+02  0.7546771E-02  0.1361106E+00
          2   -1    0    0  502    0  0.00000000000E+00  0.00000000000E+00  0.13716052449E+03  0.13716052449E+03  0.00000000000E+00 0. -1.
         -2   -1    0    0    0  501 -0.00000000000E+00 -0.00000000000E+00 -0.11390298756E+02  0.11390298756E+02  0.00000000000E+00 0.  1.
          1    1    1    2  502    0 -0.15401327887E+00 -0.37922711856E+02  0.41947602798E+02  0.56548715061E+02  0.00000000000E+00 0.  1.
         -1    1    1    2    0  501  0.15401327887E+00  0.37922711856E+02  0.83822622939E+02  0.92002108188E+02  0.00000000000E+00 0. -1.
</event>
<event>
 4    1  0.6888348E+001  0.2457422E+02  0.7546771E-02  0.1473623E+00
          2   -1    0    0  502    0  0.00000000000E+00  0.00000000000E+00  0.18957903569E+01  0.18957903569E+01  0.00000000000E+00 0.  1.
         -2   -1    0    0    0  501 -0.00000000000E+00 -0.00000000000E+00 -0.32585715232E+03  0.32585715232E+03  0.00000000000E+00 0. -1.
          1    1    1    2  502    0  0.17398010689E+02  0.17355163244E+02 -0.18653105122E+03  0.18814283281E+03  0.00000000000E+00 0.  1.
         -1    1    1    2    0  501 -0.17398010689E+02 -0.17355163244E+02 -0.13743031074E+03  0.13961010987E+03  0.00000000000E+00 0. -1.
</event>
<event>
 4    1  0.6888348E+001  0.4615088E+02  0.7546771E-02  0.1315783E+00
          2   -1    0    0  502    0  0.00000000000E+00  0.00000000000E+00  0.64440570677E+03  0.64440570677E+03  0.00000000000E+00 0.  1.
         -2   -1    0    0    0  501 -0.00000000000E+00 -0.00000000000E+00 -0.59935132374E+01  0.59935132374E+01  0.00000000000E+00 0. -1.
          1    1    1    2  502    0 -0.15314855234E+02 -0.43535716333E+02  0.10141129674E+03  0.11141882469E+03  0.00000000000E+00 0. -1.
         -1    1    1    2    0  501  0.15314855234E+02  0.43535716333E+02  0.53700089679E+03  0.53898039532E+03  0.00000000000E+00 0.  1.
</event>
<event>
 4    1  0.6888348E+001  0.2071320E+02  0.7546771E-02  0.1523399E+00
          2   -1    0    0  502    0  0.00000000000E+00  0.00000000000E+00  0.12006523314E+04  0.12006523314E+04  0.00000000000E+00 0. -1.
         -2   -1    0    0    0  501 -0.00000000000E+00 -0.00000000000E+00 -0.50373833884E+00  0.50373833884E+00  0.00000000000E+00 0.  1.
          1    1    1    2  502    0 -0.58174613562E+00 -0.20705024352E+02  0.27630120592E+03  0.27707651084E+03  0.00000000000E+00 0.  1.
         -1    1    1    2    0  501  0.58174613562E+00  0.20705024352E+02  0.92384738713E+03  0.92407955890E+03  0.00000000000E+00 0. -1.
</event>
<event>
 4    1  0.6888348E+001  0.2123792E+02  0.7546771E-02  0.1515895E+00
          2   -1    0    0  502    0  0.00000000000E+00  0.00000000000E+00  0.10582316786E+04  0.10582316786E+04  0.00000000000E+00 0. -1.
         -2   -1    0    0    0  501 -0.00000000000E+00 -0.00000000000E+00 -0.42786904327E+00  0.42786904327E+00  0.00000000000E+00 0.  1.
          1    1    1    2  502    0  0.16890544638E+02 -0.12874726380E+02  0.49613068463E+03  0.49658504338E+03  0.00000000000E+00 0.  1.
         -1    1    1    2    0  501 -0.16890544638E+02  0.12874726380E+02  0.56167312494E+03  0.56207450428E+03  0.00000000000E+00 0. -1.
</event>
<event>
 4    1  0.6888348E+001  0.2404370E+02  0.7546771E-02  0.1479792E+00
          2   -1    0    0  502    0  0.00000000000E+00  0.00000000000E+00  0.65376855334E+01  0.65376855334E+01  0.00000000000E+00 0. -1.
         -2   -1    0    0    0  501 -0.00000000000E+00 -0.00000000000E+00 -0.15475529253E+03  0.15475529253E+03  0.00000000000E+00 0.  1.
          1    1    1    2  502    0  0.17311837263E+02 -0.16685321372E+02 -0.12690665555E+03  0.12916423221E+03  0.00000000000E+00 0.  1.
         -1    1    1    2    0  501 -0.17311837263E+02  0.16685321372E+02 -0.21310951444E+02  0.32128745854E+02  0.00000000000E+00 0. -1.
</event>
<event>
 4    1  0.6888348E+001  0.2285276E+02  0.7546771E-02  0.1494355E+00
          2   -1    0    0  502    0  0.00000000000E+00  0.00000000000E+00  0.20264330388E+03  0.20264330388E+03  0.00000000000E+00 0. -1.
         -2   -1    0    0    0  501 -0.00000000000E+00 -0.00000000000E+00 -0.31665821991E+01  0.31665821991E+01  0.00000000000E+00 0.  1.
          1    1    1    2  502    0  0.14764402653E+02 -0.17443073861E+02  0.55342092042E+02  0.59874832468E+02  0.00000000000E+00 0. -1.
         -1    1    1    2    0  501 -0.14764402653E+02  0.17443073861E+02  0.14413462964E+03  0.14593505361E+03  0.00000000000E+00 0.  1.
</event>
<event>
 4    1  0.6888348E+001  0.3369279E+02  0.7546771E-02  0.1389994E+00
          2   -1    0    0  502    0  0.00000000000E+00  0.00000000000E+00  0.84281467949E+03  0.84281467949E+03  0.00000000000E+00 0. -1.
         -2   -1    0    0    0  501 -0.00000000000E+00 -0.00000000000E+00 -0.32486113084E+01  0.32486113084E+01  0.00000000000E+00 0.  1.
          1    1    1    2  502    0 -0.33644954098E+02 -0.17948428561E+01  0.74344668646E+03  0.74420976882E+03  0.00000000000E+00 0. -1.
         -1    1    1    2    0  501  0.33644954098E+02  0.17948428561E+01  0.96119381728E+02  0.10185352199E+03  0.00000000000E+00 0.  1.
</event>
<event>
 4    1  0.6888348E+001  0.2247910E+02  0.7546771E-02  0.1499145E+00
          2   -1    0    0  502    0  0.00000000000E+00  0.00000000000E+00  0.13114984037E+03  0.13114984037E+03  0.00000000000E+00 0.  1.
         -2   -1    0    0    0  501 -0.00000000000E+00 -0.00000000000E+00 -0.40556578823E+01  0.40556578823E+01  0.00000000000E+00 0. -1.
          1    1    1    2  502    0 -0.14722180069E+02 -0.16987267363E+02  0.48432333502E+02  0.53394763478E+02  0.00000000000E+00 0. -1.
         -1    1    1    2    0  501  0.14722180069E+02  0.16987267363E+02  0.78661848986E+02  0.81810734775E+02  0.00000000000E+00 0.  1.
</event>
<event>
 4    1  0.6888348E+001  0.4205198E+02  0.7546771E-02  0.1336863E+00
          2   -1    0    0  502    0  0.00000000000E+00  0.00000000000E+00  0.27755385551E+03  0.27755385551E+03  0.00000000000E+00 0.  1.
         -2   -1    0    0    0  501 -0.00000000000E+00 -0.00000000000E+00 -0.64922519403E+01  0.64922519403E+01  0.00000000000E+00 0. -1.
          1    1    1    2  502    0  0.42046697534E+02 -0.66634559582E+00  0.11614280953E+03  0.12352133822E+03  0.00000000000E+00 0.  1.
         -1    1    1    2    0  501 -0.42046697534E+02  0.66634559582E+00  0.15491879403E+03  0.16052476923E+03  0.00000000000E+00 0. -1.
</event>
<event>
 4    1  0.6888348E+001  0.2826057E+02  0.7546771E-02  0.1435340E+00
          2   -1    0    0  502    0  0.00000000000E+00  0.00000000000E+00  0.21471091974E+03  0.21471091974E+03  0.00000000000E+00 0.  1.
         -2   -1    0    0    0  501 -0.00000000000E+00 -0.00000000000E+00 -0.39514860978E+01  0.39514860978E+01  0.00000000000E+00 0. -1.
          1    1    1    2  502    0  0.20091216445E+02 -0.19874681371E+02  0.78900278490E+02  0.83808793594E+02  0.00000000000E+00 0. -1.
         -1    1    1    2    0  501 -0.20091216445E+02  0.19874681371E+02  0.13185915515E+03  0.13485361225E+03  0.00000000000E+00 0.  1.
</event>
<event>
 4    1  0.6888348E+001  0.4281991E+02  0.7546771E-02  0.1332709E+00
          2   -1    0    0  502    0  0.00000000000E+00  0.00000000000E+00  0.41320923125E+03  0.41320923125E+03  0.00000000000E+00 0. -1.
         -2   -1    0    0    0  501 -0.00000000000E+00 -0.00000000000E+00 -0.44915418042E+01  0.44915418042E+01  0.00000000000E+00 0.  1.
          1    1    1    2  502    0 -0.17596045473E+02  0.39037463345E+02  0.18141333820E+03  0.18639834666E+03  0.00000000000E+00 0. -1.
         -1    1    1    2    0  501  0.17596045473E+02 -0.39037463345E+02  0.22730435125E+03  0.23130242640E+03  0.00000000000E+00 0.  1.
</event>
<event>
 4    1  0.6888348E+001  0.2931252E+02  0.7546771E-02  0.1425666E+00
          2   -1    0    0  502    0  0.00000000000E+00  0.00000000000E+00  0.98604383748E+02  0.98604383748E+02  0.00000000000E+00 0.  1.
         -2   -1    0    0    0  501 -0.00000000000E+00 -0.00000000000E+00 -0.10697731092E+02  0.10697731092E+02  0.00000000000E+00 0. -1.
          1    1    1    2  502    0  0.29144559559E+02 -0.31334398294E+01  0.67488129127E+02  0.73579014468E+02  0.00000000000E+00 0. -1.
         -1    1    1    2    0  501 -0.29144559559E+02  0.31334398294E+01  0.20418523529E+02  0.35723100371E+02  0.00000000000E+00 0.  1.
</event>
<event>
 4    1  0.6888348E+001  0.2218130E+02  0.7546771E-02  0.1503043E+00
          2   -1    0    0  502    0  0.00000000000E+00  0.00000000000E+00  0.88414871308E+03  0.88414871308E+03  0.00000000000E+00 0. -1.
         -2   -1    0    0    0  501 -0.00000000000E+00 -0.00000000000E+00 -0.55649370717E+00  0.55649370717E+00  0.00000000000E+00 0.  1.
          1    1    1    2  502    0 -0.81840335124E+01  0.20616298472E+02  0.44407231683E+03  0.44462594699E+03  0.00000000000E+00 0. -1.
         -1    1    1    2    0  501  0.81840335124E+01 -0.20616298472E+02  0.43951990254E+03  0.44007925979E+03  0.00000000000E+00 0.  1.
</event>
<event>
 4    1  0.6888348E+001  0.2705111E+02  0.7546771E-02  0.1447095E+00
          2   -1    0    0  502    0  0.00000000000E+00  0.00000000000E+00  0.19168707790E+04  0.19168707790E+04  0.00000000000E+00 0.  1.
         -2   -1    0    0    0  501 -0.00000000000E+00 -0.00000000000E+00 -0.47539166346E+00  0.47539166346E+00  0.00000000000E+00 0. -1.
          1    1    1    2  502    0 -0.25636549986E+01  0.26929357659E+02  0.13836811592E+04  0.13839455600E+04  0.00000000000E+00 0.  1.
         -1    1    1    2    0  501  0.25636549986E+01 -0.26929357659E+02  0.53271422812E+03  0.53340061068E+03  0.00000000000E+00 0. -1.
</event>
<event>
 4    1  0.6888348E+001  0.2743574E+02  0.7546771E-02  0.1443279E+00
          2   -1    0    0  502    0  0.00000000000E+00  0.00000000000E+00  0.14869636645E+04  0.14869636645E+04  0.00000000000E+00 0.  1.
         -2   -1    0    0    0  501 -0.00000000000E+00 -0.00000000000E+00 -0.50631092208E+00  0.50631092208E+00  0.00000000000E+00 0. -1.
          1    1    1    2  502    0 -0.27339886111E+02  0.22913837111E+01  0.75359041000E+03  0.75408966699E+03  0.00000000000E+00 0. -1.
         -1    1    1    2    0  501  0.27339886111E+02 -0.22913837111E+01  0.73286694362E+03  0.73338030848E+03  0.00000000000E+00 0.  1.
</event>
<event>
 4    1  0.6888348E+001  0.3266712E+02  0.7546771E-02  0.1397750E+00
          2   -1    0    0  502    0  0.00000000000E+00  0.00000000000E+00  0.18104009025E+04  0.18104009025E+04  0.00000000000E+00 0.  1.
         -2   -1    0    0    0  501 -0.00000000000E+00 -0.00000000000E+00 -0.82620504881E+00  0.82620504881E+00  0.00000000000E+00 0. -1.
          1    1    1    2  502    0  0.32192690574E+02 -0.55472218076E+01  0.13895716221E+04  0.13899555510E+04  0.00000000000E+00 0.  1.
         -1    1    1    2    0  501 -0.32192690574E+02  0.55472218076E+01  0.42000307535E+03  0.42127155648E+03  0.00000000000E+00 0. -1.
</event>
<event>
 4    1  0.6888348E+001  0.2614450E+02  0.7546771E-02  0.1456396E+00
          2   -1    0    0  502    0  0.00000000000E+00  0.00000000000E+00  0.10804283498E+04  0.10804283498E+04  0.00000000000E+00 0.  1.
         -2   -1    0    0    0  501 -0.00000000000E+00 -0.00000000000E+00 -0.71408930968E+00  0.71408930968E+00  0.00000000000E+00 0. -1.
          1    1    1    2  502    0 -0.97208025400E+01  0.24270161380E+02  0.35730395053E+03  0.35825919081E+03  0.00000000000E+00 0. -1.
         -1    1    1    2    0  501  0.97208025400E+01 -0.24270161380E+02  0.72241031001E+03  0.72288324835E+03  0.00000000000E+00 0.  1.
</event>
<event>
 4    1  0.6888348E+001  0.2125827E+02  0.7546771E-02  0.1515609E+00
          2   -1    0    0  502    0  0.00000000000E+00  0.00000000000E+00  0.43509715469E+03  0.43509715469E+03  0.00000000000E+00 0.  1.
         -2   -1    0    0    0  501 -0.00000000000E+00 -0.00000000000E+00 -0.11771831766E+01  0.11771831766E+01  0.00000000000E+00 0. -1.
          1    1    1    2  502    0  0.46771212025E+01  0.20737374159E+02  0.29179119788E+03  0.29256455238E+03  0.00000000000E+00 0.  1.
         -1    1    1    2    0  501 -0.46771212025E+01 -0.20737374159E+02  0.14212877363E+03  0.14370978549E+03  0.00000000000E+00 0. -1.
</event>
<event>
 4    1  0.6888348E+001  0.2688379E+02  0.7546771E-02  0.1448779E+00
          2   -1    0    0  502    0  0.00000000000E+00  0.00000000000E+00  0.64759648337E+03  0.64759648337E+03  0.00000000000E+00 0. -1.
         -2   -1    0    0    0  501 -0.00000000000E+00 -0.00000000000E+00 -0.26933057517E+01  0.26933057517E+01  0.00000000000E+00 0.  1.
          1    1    1    2  502    0 -0.15579810691E+02  0.21909071269E+02  0.73630175390E+02  0.78384568844E+02  0.00000000000E+00 0.  1.
         -1    1    1    2    0  501  0.15579810691E+02 -0.21909071269E+02  0.57127300223E+03  0.57190522028E+03  0.00000000000E+00 0. -1.
</event>
<event>
 4    1  0.6888348E+001  0.2592552E+02  0.7546771E-02  0.1458711E+00
          2   -1    0    0  502    0  0.00000000000E+00  0.00000000000E+00  0.10426180196E+04  0.10426180196E+04  0.00000000000E+00 0.  1.
         -2   -1    0    0    0  501 -0.00000000000E+00 -0.00000000000E+00 -0.12032938516E+01  0.12032938516E+01  0.00000000000E+00 0. -1.
          1    1    1    2  502    0 -0.25903389167E+02  0.10710876484E+01  0.87631774972E+03  0.87670116418E+03  0.00000000000E+00 0.  1.
         -1    1    1    2    0  501  0.25903389167E+02 -0.10710876484E+01  0.16509697603E+03  0.16712014928E+03  0.00000000000E+00 0. -1.
</event>
<event>
 4    1  0.6888348E+001  0.2707286E+02  0.7546771E-02  0.1446878E+00
          2   -1    0    0  502    0  0.00000000000E+00  0.00000000000E+00  0.21000774172E+04  0.21000774172E+04  0.00000000000E+00 0.  1.
         -2   -1    0    0    0  501 -0.00000000000E+00 -0.00000000000E+00 -0.13163279467E+01  0.13163279467E+01  0.00000000000E+00 0. -1.
          1    1    1    2  502    0  0.16418924686E+02  0.21525770355E+02  0.14867905362E+03  0.15112379317E+03  0.00000000000E+00 0. -1.
         -1    1    1    2    0  501 -0.16418924686E+02 -0.21525770355E+02  0.19500820356E+04  0.19502699519E+04  0.00000000000E+00 0.  1.
</event>
<event>
 4    1  0.6888348E+001  0.2865689E+02  0.7546771E-02  0.1431639E+00
          2   -1    0    0  502    0  0.00000000000E+00  0.00000000000E+00  0.21188522758E+02  0.21188522758E+02  0.00000000000E+00 0. -1.
         -2   -1    0    0    0  501 -0.00000000000E+00 -0.00000000000E+00 -0.38775064896E+02  0.38775064896E+02  0.00000000000E+00 0.  1.
          1    1    1    2  502    0  0.77841504766E+01  0.27579414862E+02 -0.81576842215E+01  0.29795384452E+02  0.00000000000E+00 0. -1.
         -1    1    1    2    0  501 -0.77841504766E+01 -0.27579414862E+02 -0.94288579164E+01  0.30168203201E+02  0.00000000000E+00 0.  1.
</event>
<event>
 4    1  0.6888348E+001  0.2493964E+02  0.7546771E-02  0.1469480E+00
          2   -1    0    0  502    0  0.00000000000E+00  0.00000000000E+00  0.41820632281E+03  0.41820632281E+03  0.00000000000E+00 0. -1.
         -2   -1    0    0    0  501 -0.00000000000E+00 -0.00000000000E+00 -0.23803163231E+01  0.23803163231E+01  0.00000000000E+00 0.  1.
          1    1    1    2  502    0  0.24088103661E+02  0.64613380652E+01  0.33672169962E+03  0.33764402649E+03  0.00000000000E+00 0.  1.
         -1    1    1    2    0  501 -0.24088103661E+02 -0.64613380652E+01  0.79104306861E+02  0.82942612640E+02  0.00000000000E+00 0. -1.
</event>
<event>
 4    1  0.6888348E+001  0.5676800E+02  0.7546771E-02  0.1271228E+00
          2   -1    0    0  502    0  0.00000000000E+00  0.00000000000E+00  0.11345913551E+04  0.11345913551E+04  0.00000000000E+00 0.  1.
         -2   -1    0    0    0  501 -0.00000000000E+00 -0.00000000000E+00 -0.31824146568E+01  0.31824146568E+01  0.00000000000E+00 0. -1.
          1    1    1    2  502    0 -0.24362271205E+02  0.51274612242E+02  0.75222157673E+03  0.75436059455E+03  0.00000000000E+00 0.  1.
         -1    1    1    2    0  501  0.24362271205E+02 -0.51274612242E+02  0.37918736371E+03  0.38341317520E+03  0.00000000000E+00 0. -1.
</event>
<event>
 4    1  0.6888348E+001  0.2494893E+02  0.7546771E-02  0.1469376E+00
          2   -1    0    0  502    0  0.00000000000E+00  0.00000000000E+00  0.60402261112E+01  0.60402261112E+01  0.00000000000E+00 0.  1.
         -2   -1    0    0    0  501 -0.00000000000E+00 -0.00000000000E+00 -0.22415037601E+03  0.22415037601E+03  0.00000000000E+00 0. -1.
          1    1    1    2  502    0  0.24510296940E+02  0.46577422914E+01 -0.19365294716E+03  0.19525345878E+03  0.00000000000E+00 0. -1.
         -1    1    1    2    0  501 -0.24510296940E+02 -0.46577422914E+01 -0.24457202733E+02  0.34937143341E+02  0.00000000000E+00 0.  1.
</event>
<event>
 4    1  0.6888348E+001  0.2303176E+02  0.7546771E-02  0.1492100E+00
          2   -1    0    0  502    0  0.00000000000E+00  0.00000000000E+00  0.12087095333E+04  0.12087095333E+04  0.00000000000E+00 0.  1.
         -2   -1    0    0    0  501 -0.00000000000E+00 -0.00000000000E+00 -0.43886736854E+00  0.43886736854E+00  0.00000000000E+00 0. -1.
          1    1    1    2  502    0  0.57987989475E+01  0.22289817038E+02  0.60324153478E+03  0.60368105097E+03  0.00000000000E+00 0. -1.
         -1    1    1    2    0  501 -0.57987989475E+01 -0.22289817038E+02  0.60502913114E+03  0.60546734969E+03  0.00000000000E+00 0.  1.
</event>
<event>
 4    1  0.6888348E+001  0.2525183E+02  0.7546771E-02  0.1466006E+00
          2   -1    0    0  502    0  0.00000000000E+00  0.00000000000E+00  0.26000530198E+03  0.26000530198E+03  0.00000000000E+00 0.  1.
         -2   -1    0    0    0  501 -0.00000000000E+00 -0.00000000000E+00 -0.24879884364E+01  0.24879884364E+01  0.00000000000E+00 0. -1.
          1    1    1    2  502    0 -0.19561728544E+02  0.15968528269E+02  0.14444034922E+03  0.14663106629E+03  0.00000000000E+00 0. -1.
         -1    1    1    2    0  501  0.19561728544E+02 -0.15968528269E+02  0.11307696432E+03  0.11586222412E+03  0.00000000000E+00 0.  1.
</event>
<event>
 4    1  0.6888348E+001  0.3049519E+02  0.7546771E-02  0.1415341E+00
          2   -1    0    0  502    0  0.00000000000E+00  0.00000000000E+00  0.10175258872E+03  0.10175258872E+03  0.00000000000E+00 0.  1.
         -2   -1    0    0    0  501 -0.00000000000E+00 -0.00000000000E+00 -0.12367044967E+02  0.12367044967E+02  0.00000000000E+00 0. -1.
          1    1    1    2  502    0  0.27894656877E+02  0.12322523725E+02  0.15542605815E+02  0.34227606822E+02  0.00000000000E+00 0.  1.
         -1    1    1    2    0  501 -0.27894656877E+02 -0.12322523725E+02  0.73842937941E+02  0.79892026868E+02  0.00000000000E+00 0. -1.
</event>
<event>
 4    1  0.6888348E+001  0.2413503E+02  0.7546771E-02  0.1478717E+00
          2   -1    0    0  502    0  0.00000000000E+00  0.00000000000E+00  0.88228627081E+00  0.88228627081E+00  0.00000000000E+00 0.  1.
         -2   -1    0    0    0  501 -0.00000000000E+00 -0.00000000000E+00 -0.78788384033E+03  0.78788384033E+03  0.00000000000E+00 0. -1.
          1    1    1    2  502    0 -0.64405211114E+01 -0.23259822767E+02 -0.55225585182E+03  0.55278298232E+03  0.00000000000E+00 0. -1.
         -1    1    1    2    0  501  0.64405211114E+01  0.23259822767E+02 -0.23474570224E+03  0.23598314428E+03  0.00000000000E+00 0.  1.
</event>
<event>
 4    1  0.6888348E+001  0.2029627E+02  0.7546771E-02  0.1529554E+00
          2   -1    0    0  502    0  0.00000000000E+00  0.00000000000E+00  0.18447656189E+01  0.18447656189E+01  0.00000000000E+00 0.  1.
         -2   -1    0    0    0  501 -0.00000000000E+00 -0.00000000000E+00 -0.24375645274E+03  0.24375645274E+03  0.00000000000E+00 0. -1.
          1    1    1    2  502    0 -0.16396332099E+02  0.11962390985E+02 -0.85382544032E+02  0.87761707651E+02  0.00000000000E+00 0.  1.
         -1    1    1    2    0  501  0.16396332099E+02 -0.11962390985E+02 -0.15652914308E+03  0.15783951070E+03  0.00000000000E+00 0. -1.
</event>
<event>
 4    1  0.6888348E+001  0.2666452E+02  0.7546771E-02  0.1451008E+00
          2   -1    0    0  502    0  0.00000000000E+00  0.00000000000E+00  0.41819330492E+02  0.41819330492E+02  0.00000000000E+00 0.  1.
         -2   -1    0    0    0  501 -0.00000000000E+00 -0.00000000000E+00 -0.17007593688E+02  0.17007593688E+02  0.00000000000E+00 0. -1.
          1    1    1    2  502    0 -0.17638817283E+02  0.19996714961E+02  0.11854752703E+02  0.29181015164E+02  0.00000000000E+00 0. -1.
         -1    1    1    2    0  501  0.17638817283E+02 -0.19996714961E+02  0.12956984102E+02  0.29645909016E+02  0.00000000000E+00 0.  1.
</event>
<event>
 4    1  0.6888348E+001  0.2065968E+02  0.7546771E-02  0.1524180E+00
          2   -1    0    0  502    0  0.00000000000E+00  0.00000000000E+00  0.25560329089E+02  0.25560329089E+02  0.00000000000E+00 0.  1.
         -2   -1    0    0    0  501 -0.00000000000E+00 -0.00000000000E+00 -0.16818504663E+02  0.16818504663E+02  0.00000000000E+00 0. -1.
          1    1    1    2  502    0  0.15356779923E+02  0.13819980188E+02  0.61598057298E+01  0.21558426395E+02  0.00000000000E+00 0. -1.
         -1    1    1    2    0  501 -0.15356779923E+02 -0.13819980188E+02  0.25820186964E+01  0.20820407358E+02  0.00000000000E+00 0.  1.
</event>
<event>
 4    1  0.6888348E+001  0.2076428E+02  0.7546771E-02  0.1522657E+00
          2   -1    0    0  502    0  0.00000000000E+00  0.00000000000E+00  0.10850327580E+02  0.10850327580E+02  0.00000000000E+00 0.  1.
         -2   -1    0    0    0  501 -0.00000000000E+00 -0.00000000000E+00 -0.46535084246E+02  0.46535084246E+02  0.00000000000E+00 0. -1.
          1    1    1    2  502    0  0.16233518036E+02 -0.12947138392E+02 -0.28809336911E+02  0.35512439984E+02  0.00000000000E+00 0.  1.
         -1    1    1    2    0  501 -0.16233518036E+02  0.12947138392E+02 -0.68754197557E+01  0.21872971842E+02  0.00000000000E+00 0. -1.
</event>
<event>
 4    1  0.6888348E+001  0.2260652E+02  0.7546771E-02  0.1497499E+00
          2   -1    0    0  502    0  0.00000000000E+00  0.00000000000E+00  0.37995709044E+02  0.37995709044E+02  0.00000000000E+00 0. -1.
         -2   -1    0    0    0  501 -0.00000000000E+00 -0.00000000000E+00 -0.28457996097E+02  0.28457996097E+02  0.00000000000E+00 0.  1.
          1    1    1    2  502    0 -0.22194729230E+02 -0.42951993006E+01 -0.19360384325E+02  0.29763723286E+02  0.00000000000E+00 0.  1.
         -1    1    1    2    0  501  0.22194729230E+02  0.42951993006E+01  0.28898097272E+02  0.36689981856E+02  0.00000000000E+00 0. -1.
</event>
<event>
 4    1  0.6888348E+001  0.2168584E+02  0.7546771E-02  0.1509694E+00
          2   -1    0    0  502    0  0.00000000000E+00  0.00000000000E+00  0.60598942346E+02  0.60598942346E+02  0.00000000000E+00 0.  1.
         -2   -1    0    0    0  501 -0.00000000000E+00 -0.00000000000E+00 -0.77604616870E+01  0.77604616870E+01  0.00000000000E+00 0. -1.
          1    1    1    2  502    0  0.16590556474E+02  0.13965281365E+02  0.26436695115E+02  0.34193193713E+02  0.00000000000E+00 0.  1.
         -1    1    1    2    0  501 -0.16590556474E+02 -0.13965281365E+02  0.26401785545E+02  0.34166210320E+02  0.00000000000E+00 0. -1.
</event>
<event>
 4    1  0.6888348E+001  0.5252758E+02  0.7546771E-02  0.1287571E+00
          2   -1    0    0  502    0  0.00000000000E+00  0.00000000000E+00  0.13418317885E+03  0.13418317885E+03  0.00000000000E+00 0. -1.
         -2   -1    0    0    0  501 -0.00000000000E+00 -0.00000000000E+00 -0.22697943520E+02  0.22697943520E+02  0.00000000000E+00 0.  1.
          1    1    1    2  502    0  0.18778882724E+02 -0.49056090477E+02  0.31683050070E+02  0.61342987463E+02  0.00000000000E+00 0. -1.
         -1    1    1    2    0  501 -0.18778882724E+02  0.49056090477E+02  0.79802185260E+02  0.95538134907E+02  0.00000000000E+00 0.  1.
</event>
<event>
 4    1  0.6888348E+001  0.5287850E+02  0.7546771E-02  0.1286152E+00
          2   -1    0    0  502    0  0.00000000000E+00  0.00000000000E+00  0.11276868659E+04  0.11276868659E+04  0.00000000000E+00 0. -1.
         -2   -1    0    0    0  501 -0.00000000000E+00 -0.00000000000E+00 -0.40495051620E+01  0.40495051620E+01  0.00000000000E+00 0.  1.
          1    1    1    2  502    0  0.45346357781E+02  0.27200072353E+02  0.20947996988E+03  0.21605090577E+03  0.00000000000E+00 0.  1.
         -1    1    1    2    0  501 -0.45346357781E+02 -0.27200072353E+02  0.91415739087E+03  0.91568546531E+03  0.00000000000E+00 0. -1.
</event>
<event>
 4    1  0.6888348E+001  0.3980303E+02  0.7546771E-02  0.1349644E+00
          2   -1    0    0  502    0  0.00000000000E+00  0.00000000000E+00  0.44049573948E+03  0.44049573948E+03  0.00000000000E+00 0. -1.
         -2   -1    0    0    0  501 -0.00000000000E+00 -0.00000000000E+00 -0.24094589477E+02  0.24094589477E+02  0.00000000000E+00 0.  1.
          1    1    1    2  502    0  0.24529804008E+02 -0.31345968429E+02 -0.60569974536E+01  0.40261249851E+02  0.00000000000E+00 0.  1.
         -1    1    1    2    0  501 -0.24529804008E+02  0.31345968429E+02  0.42245814746E+03  0.42432907911E+03  0.00000000000E+00 0. -1.
</event>
<event>
 4    1  0.6888348E+001  0.2231525E+02  0.7546771E-02  0.1501280E+00
          2   -1    0    0  502    0  0.00000000000E+00  0.00000000000E+00  0.46429827225E+03  0.46429827225E+03  0.00000000000E+00 0.  1.
         -2   -1    0    0    0  501 -0.00000000000E+00 -0.00000000000E+00 -0.22703227205E+01  0.22703227205E+01  0.00000000000E+00 0. -1.
          1    1    1    2  502    0 -0.15424559420E+02 -0.16126163976E+02  0.40046100461E+03  0.40108226888E+03  0.00000000000E+00 0.  1.
         -1    1    1    2    0  501  0.15424559420E+02  0.16126163976E+02  0.61566944917E+02  0.65486326087E+02  0.00000000000E+00 0. -1.
</event>
<event>
 4    1  0.6888348E+001  0.2430954E+02  0.7546771E-02  0.1476678E+00
          2   -1    0    0  502    0  0.00000000000E+00  0.00000000000E+00  0.90813176568E+03  0.90813176568E+03  0.00000000000E+00 0.  1.
         -2   -1    0    0    0  501 -0.00000000000E+00 -0.00000000000E+00 -0.69286775320E+00  0.69286775320E+00  0.00000000000E+00 0. -1.
          1    1    1    2  502    0 -0.24300517425E+02 -0.66210815799E+00  0.56577477761E+03  0.56629678836E+03  0.00000000000E+00 0.  1.
         -1    1    1    2    0  501  0.24300517425E+02  0.66210815799E+00  0.34166412032E+03  0.34252784507E+03  0.00000000000E+00 0. -1.
</event>
<event>
 4    1  0.6888348E+001  0.3742926E+02  0.7546771E-02  0.1364246E+00
          2   -1    0    0  502    0  0.00000000000E+00  0.00000000000E+00  0.94606015547E+03  0.94606015547E+03  0.00000000000E+00 0. -1.
         -2   -1    0    0    0  501 -0.00000000000E+00 -0.00000000000E+00 -0.16853143795E+01  0.16853143795E+01  0.00000000000E+00 0.  1.
          1    1    1    2  502    0  0.21035292276E+02  0.30959098456E+02  0.30712169824E+03  0.30939406398E+03  0.00000000000E+00 0.  1.
         -1    1    1    2    0  501 -0.21035292276E+02 -0.30959098456E+02  0.63725314285E+03  0.63835140587E+03  0.00000000000E+00 0. -1.
</event>
<event>
 4    1  0.6888348E+001  0.2113327E+02  0.7546771E-02  0.1517371E+00
          2   -1    0    0  502    0  0.00000000000E+00  0.00000000000E+00  0.35524354907E+02  0.35524354907E+02  0.00000000000E+00 0.  1.
         -2   -1    0    0    0  501 -0.00000000000E+00 -0.00000000000E+00 -0.12573220323E+02  0.12573220323E+02  0.00000000000E+00 0. -1.
          1    1    1    2  502    0 -0.20356886693E+02  0.56755845220E+01  0.11704412760E+02  0.24157987779E+02  0.00000000000E+00 0.  1.
         -1    1    1    2    0  501  0.20356886693E+02 -0.56755845220E+01  0.11246721824E+02  0.23939587450E+02  0.00000000000E+00 0. -1.
</event>
<event>
 4    1  0.6888348E+001  0.2447315E+02  0.7546771E-02  0.1474784E+00
          2   -1    0    0  502    0  0.00000000000E+00  0.00000000000E+00  0.17924109057E+02  0.17924109057E+02  0.00000000000E+00 0. -1.
         -2   -1    0    0    0  501 -0.00000000000E+00 -0.00000000000E+00 -0.34608699311E+02  0.34608699311E+02  0.00000000000E+00 0.  1.
          1    1    1    2  502    0  0.29255527020E+01 -0.24297659937E+02 -0.34642594495E+01  0.24717124237E+02  0.00000000000E+00 0. -1.
         -1    1    1    2    0  501 -0.29255527020E+01  0.24297659937E+02 -0.13220330805E+02  0.27815684130E+02  0.00000000000E+00 0.  1.
</event>
<event>
 4    1  0.6888348E+001  0.2212871E+02  0.7546771E-02  0.1503739E+00
          2   -1    0    0  502    0  0.00000000000E+00  0.00000000000E+00  0.97577903922E+02  0.97577903922E+02  0.00000000000E+00 0. -1.
         -2   -1    0    0    0  501 -0.00000000000E+00 -0.00000000000E+00 -0.54356594055E+01  0.54356594055E+01  0.00000000000E+00 0.  1.
          1    1    1    2  502    0  0.99842231323E+01  0.19748291971E+02  0.31799638569E+02  0.38741408860E+02  0.00000000000E+00 0.  1.
         -1    1    1    2    0  501 -0.99842231323E+01 -0.19748291971E+02  0.60342605947E+02  0.64272154467E+02  0.00000000000E+00 0. -1.
</event>
<event>
 4    1  0.6888348E+001  0.2360358E+02  0.7546771E-02  0.1485055E+00
          2   -1    0    0  502    0  0.00000000000E+00  0.00000000000E+00  0.13895043575E+03  0.13895043575E+03  0.00000000000E+00 0.  1.
         -2   -1    0    0    0  501 -0.00000000000E+00 -0.00000000000E+00 -0.40816089488E+01  0.40816089488E+01  0.00000000000E+00 0. -1.
          1    1    1    2  502    0 -0.22533848014E+02  0.70252813223E+01  0.76936698407E+02  0.80475986764E+02  0.00000000000E+00 0. -1.
         -1    1    1    2    0  501  0.22533848014E+02 -0.70252813223E+01  0.57932128391E+02  0.62556057931E+02  0.00000000000E+00 0.  1.
</event>
<event>
 4    1  0.6888348E+001  0.2254999E+02  0.7546771E-02  0.1498228E+00
          2   -1    0    0  502    0  0.00000000000E+00  0.00000000000E+00  0.92139175219E+00  0.92139175219E+00  0.00000000000E+00 0.  1.
         -2   -1    0    0    0  501 -0.00000000000E+00 -0.00000000000E+00 -0.55865980630E+03  0.55865980630E+03  0.00000000000E+00 0. -1.
          1    1    1    2  502    0 -0.18276352984E+02  0.13208965796E+02 -0.30968141747E+03  0.31050134007E+03  0.00000000000E+00 0.  1.
         -1    1    1    2    0  501  0.18276352984E+02 -0.13208965796E+02 -0.24805699708E+03  0.24907985799E+03  0.00000000000E+00 0. -1.
</event>
<event>
 4    1  0.6888348E+001  0.3037466E+02  0.7546771E-02  0.1416368E+00
          2   -1    0    0  502    0  0.00000000000E+00  0.00000000000E+00  0.13311259791E+02  0.13311259791E+02  0.00000000000E+00 0.  1.
         -2   -1    0    0    0  501 -0.00000000000E+00 -0.00000000000E+00 -0.69843949143E+02  0.69843949143E+02  0.00000000000E+00 0. -1.
          1    1    1    2  502    0  0.13816075306E+02  0.27050624253E+02 -0.31897387310E+02  0.44046152233E+02  0.00000000000E+00 0. -1.
         -1    1    1    2    0  501 -0.13816075306E+02 -0.27050624253E+02 -0.24635302041E+02  0.39109056701E+02  0.00000000000E+00 0.  1.
</event>
<event>
 4    1  0.6888348E+001  0.2492896E+02  0.7546771E-02  0.1469600E+00
          2   -1    0    0  502    0  0.00000000000E+00  0.00000000000E+00  0.16465357194E+04  0.16465357194E+04  0.00000000000E+00 0.  1.
         -2   -1    0    0    0  501 -0.00000000000E+00 -0.00000000000E+00 -0.43676991321E+00  0.43676991321E+00  0.00000000000E+00 0. -1.
          1    1    1    2  502    0  0.27023208572E+01 -0.24782059826E+02  0.51951983232E+03  0.52011759170E+03  0.00000000000E+00 0. -1.
         -1    1    1    2    0  501 -0.27023208572E+01  0.24782059826E+02  0.11265791172E+04  0.11268548976E+04  0.00000000000E+00 0.  1.
</event>
<event>
 4    1  0.6888348E+001  0.2326324E+02  0.7546771E-02  0.1489219E+00
          2   -1    0    0  502    0  0.00000000000E+00  0.00000000000E+00  0.32196869882E+02  0.32196869882E+02  0.00000000000E+00 0. -1.
         -2   -1    0    0    0  501 -0.00000000000E+00 -0.00000000000E+00 -0.36045295001E+02  0.36045295001E+02  0.00000000000E+00 0.  1.
          1    1    1    2  502    0 -0.42961903215E+01  0.22863095424E+02  0.23002546414E+02  0.32715371390E+02  0.00000000000E+00 0. -1.
         -1    1    1    2    0  501  0.42961903215E+01 -0.22863095424E+02 -0.26850971533E+02  0.35526793493E+02  0.00000000000E+00 0.  1.
</event>
<event>
 4    1  0.6888348E+001  0.2879811E+02  0.7546771E-02  0.1430336E+00
          2   -1    0    0  502    0  0.00000000000E+00  0.00000000000E+00  0.77558350439E+03  0.77558350439E+03  0.00000000000E+00 0.  1.
         -2   -1    0    0    0  501 -0.00000000000E+00 -0.00000000000E+00 -0.14942690415E+01  0.14942690415E+01  0.00000000000E+00 0. -1.
          1    1    1    2  502    0  0.31990384996E+00  0.28796337492E+02  0.59424892137E+03  0.59494631013E+03  0.00000000000E+00 0. -1.
         -1    1    1    2    0  501 -0.31990384996E+00 -0.28796337492E+02  0.17984031399E+03  0.18213146331E+03  0.00000000000E+00 0.  1.
</event>
<event>
 4    1  0.6888348E+001  0.2115650E+02  0.7546771E-02  0.1517042E+00
          2   -1    0    0  502    0  0.00000000000E+00  0.00000000000E+00  0.23241044250E+03  0.23241044250E+03  0.00000000000E+00 0.  1.
         -2   -1    0    0    0  501 -0.00000000000E+00 -0.00000000000E+00 -0.29628716164E+01  0.29628716164E+01  0.00000000000E+00 0. -1.
          1    1    1    2  502    0 -0.18829415004E+02  0.96462657799E+01  0.18434731066E+03  0.18555734494E+03  0.00000000000E+00 0.  1.
         -1    1    1    2    0  501  0.18829415004E+02 -0.96462657799E+01  0.45100260219E+02  0.49815969174E+02  0.00000000000E+00 0. -1.
</event>
<event>
 4    1  0.6888348E+001  0.3345166E+02  0.7546771E-02  0.1391788E+00
          2   -1    0    0  502    0  0.00000000000E+00  0.00000000000E+00  0.79898305107E+03  0.79898305107E+03  0.00000000000E+00 0.  1.
         -2   -1    0    0    0  501 -0.00000000000E+00 -0.00000000000E+00 -0.15282516282E+01  0.15282516282E+01  0.00000000000E+00 0. -1.
          1    1    1    2  502    0  0.20335725363E+02 -0.26560723857E+02  0.28302499827E+03  0.28499502351E+03  0.00000000000E+00 0. -1.
         -1    1    1    2    0  501 -0.20335725363E+02  0.26560723857E+02  0.51442980117E+03  0.51551627919E+03  0.00000000000E+00 0.  1.
</event>
<event>
 4    1  0.6888348E+001  0.2412867E+02  0.7546771E-02  0.1478792E+00
          2   -1    0    0  502    0  0.00000000000E+00  0.00000000000E+00  0.27003791714E+03  0.27003791714E+03  0.00000000000E+00 0. -1.
         -2   -1    0    0    0  501 -0.00000000000E+00 -0.00000000000E+00 -0.22751471340E+01  0.22751471340E+01  0.00000000000E+00 0.  1.
          1    1    1    2  502    0 -0.10379599892E+02 -0.21782029259E+02  0.16504410123E+03  0.16679852590E+03  0.00000000000E+00 0.  1.
         -1    1    1    2    0  501  0.10379599892E+02  0.21782029259E+02  0.10271866878E+03  0.10551453837E+03  0.00000000000E+00 0. -1.
</event>
<event>
 4    1  0.6888348E+001  0.3379742E+02  0.7546771E-02  0.1389221E+00
          2   -1    0    0  502    0  0.00000000000E+00  0.00000000000E+00  0.71165636570E+02  0.71165636570E+02  0.00000000000E+00 0. -1.
         -2   -1    0    0    0  501 -0.00000000000E+00 -0.00000000000E+00 -0.17253219456E+02  0.17253219456E+02  0.00000000000E+00 0.  1.
          1    1    1    2  502    0 -0.49009661940E+01  0.33440186549E+02  0.38627191868E+02  0.51325680684E+02  0.00000000000E+00 0. -1.
         -1    1    1    2    0  501  0.49009661940E+01 -0.33440186549E+02  0.15285225246E+02  0.37093175341E+02  0.00000000000E+00 0.  1.
</event>
<event>
 4    1  0.6888348E+001  0.4422808E+02  0.7546771E-02  0.1325345E+00
          2   -1    0    0  502    0  0.00000000000E+00  0.00000000000E+00  0.64182597769E+01  0.64182597769E+01  0.00000000000E+00 0. -1.
         -2   -1    0    0    0  501 -0.00000000000E+00 -0.00000000000E+00 -0.31491791786E+03  0.31491791786E+03  0.00000000000E+00 0.  1.
          1    1    1    2  502    0  0.73296600318E+01  0.43616497642E+02 -0.12541481257E+03  0.13298495401E+03  0.00000000000E+00 0.  1.
         -1    1    1    2    0  501 -0.73296600318E+01 -0.43616497642E+02 -0.18308484551E+03  0.18835122362E+03  0.00000000000E+00 0. -1.
</event>
<event>
 4    1  0.6888348E+001  0.2572175E+02  0.7546771E-02  0.1460889E+00
          2   -1    0    0  502    0  0.00000000000E+00  0.00000000000E+00  0.69050831147E+02  0.69050831147E+02  0.00000000000E+00 0.  1.
         -2   -1    0    0    0  501 -0.00000000000E+00 -0.00000000000E+00 -0.11624817541E+02  0.11624817541E+02  0.00000000000E+00 0. -1.
          1    1    1    2  502    0  0.16589090292E+02  0.19657324523E+02  0.45624841995E+02  0.52375896472E+02  0.00000000000E+00 0.  1.
         -1    1    1    2    0  501 -0.16589090292E+02 -0.19657324523E+02  0.11801171610E+02  0.28299752216E+02  0.00000000000E+00 0. -1.
</event>
<event>
 4    1  0.6888348E+001  0.4863821E+02  0.7546771E-02  0.1304187E+00
          2   -1    0    0  502    0  0.00000000000E+00  0.00000000000E+00  0.89455896533E+02  0.89455896533E+02  0.00000000000E+00 0. -1.
         -2   -1    0    0    0  501 -0.00000000000E+00 -0.00000000000E+00 -0.32787391109E+02  0.32787391109E+02  0.00000000000E+00 0.  1.
          1    1    1    2  502    0 -0.47935177696E+02 -0.82397681195E+01  0.14521768767E+01  0.48659879337E+02  0.00000000000E+00 0.  1.
         -1    1    1    2    0  501  0.47935177696E+02  0.82397681195E+01  0.55216328548E+02  0.73583408305E+02  0.00000000000E+00 0. -1.
</event>
<event>
 4    1  0.6888348E+001  0.2033483E+02  0.7546771E-02  0.1528977E+00
          2   -1    0    0  502    0  0.00000000000E+00  0.00000000000E+00  0.29727304185E+01  0.29727304185E+01  0.00000000000E+00 0.  1.
         -2   -1    0    0    0  501 -0.00000000000E+00 -0.00000000000E+00 -0.15255751116E+03  0.15255751116E+03  0.00000000000E+00 0. -1.
          1    1    1    2  502    0 -0.19385807139E+02 -0.61396890603E+01 -0.97889549948E+02  0.99979344313E+02  0.00000000000E+00 0. -1.
         -1    1    1    2    0  501  0.19385807139E+02  0.61396890603E+01 -0.51695230788E+02  0.55550897261E+02  0.00000000000E+00 0.  1.
</event>
<event>
 4    1  0.6888348E+001  0.2012383E+02  0.7546771E-02  0.1532151E+00
          2   -1    0    0  502    0  0.00000000000E+00  0.00000000000E+00  0.17317029967E+01  0.17317029967E+01  0.00000000000E+00 0. -1.
         -2   -1    0    0    0  501 -0.00000000000E+00 -0.00000000000E+00 -0.24613794117E+03  0.24613794117E+03  0.00000000000E+00 0.  1.
          1    1    1    2  502    0  0.19697281907E+02 -0.41213638683E+01 -0.14988805403E+03  0.15123292398E+03  0.00000000000E+00 0. -1.
         -1    1    1    2    0  501 -0.19697281907E+02  0.41213638683E+01 -0.94518184144E+02  0.96636720187E+02  0.00000000000E+00 0.  1.
</event>
<event>
 4    1  0.6888348E+001  0.2006225E+02  0.7546771E-02  0.1533086E+00
          2   -1    0    0  502    0  0.00000000000E+00  0.00000000000E+00  0.58310003262E+03  0.58310003262E+03  0.00000000000E+00 0. -1.
         -2   -1    0    0    0  501 -0.00000000000E+00 -0.00000000000E+00 -0.18183367059E+01  0.18183367059E+01  0.00000000000E+00 0.  1.
          1    1    1    2  502    0 -0.16541119070E+02 -0.11352769649E+02  0.60286552439E+02  0.63537094707E+02  0.00000000000E+00 0.  1.
         -1    1    1    2    0  501  0.16541119070E+02  0.11352769649E+02  0.52099514348E+03  0.52138127462E+03  0.00000000000E+00 0. -1.
</event>
<event>
 4    1  0.6888348E+001  0.3174896E+02  0.7546771E-02  0.1404983E+00
          2   -1    0    0  502    0  0.00000000000E+00  0.00000000000E+00  0.13467470860E+03  0.13467470860E+03  0.00000000000E+00 0.  1.
         -2   -1    0    0    0  501 -0.00000000000E+00 -0.00000000000E+00 -0.19112770540E+02  0.19112770540E+02  0.00000000000E+00 0. -1.
          1    1    1    2  502    0 -0.19040615831E+02 -0.25405736624E+02  0.11775779021E+03  0.12196267323E+03  0.00000000000E+00 0.  1.
         -1    1    1    2    0  501  0.19040615831E+02  0.25405736624E+02 -0.21958521556E+01  0.31824805912E+02  0.00000000000E+00 0. -1.
</event>
<event>
 4    1  0.6888348E+001  0.2383612E+02  0.7546771E-02  0.1482258E+00
          2   -1    0    0  502    0  0.00000000000E+00  0.00000000000E+00  0.62424128908E+03  0.62424128908E+03  0.00000000000E+00 0.  1.
         -2   -1    0    0    0  501 -0.00000000000E+00 -0.00000000000E+00 -0.16431170554E+01  0.16431170554E+01  0.00000000000E+00 0. -1.
          1    1    1    2  502    0  0.91731611631E+01 -0.22000307129E+02  0.52030987218E+03  0.52085556874E+03  0.00000000000E+00 0.  1.
         -1    1    1    2    0  501 -0.91731611631E+01  0.22000307129E+02  0.10228829984E+03  0.10502883739E+03  0.00000000000E+00 0. -1.
</event>
<event>
 4    1  0.6888348E+001  0.3040723E+02  0.7546771E-02  0.1416090E+00
          2   -1    0    0  502    0  0.00000000000E+00  0.00000000000E+00  0.17361257942E+03  0.17361257942E+03  0.00000000000E+00 0.  1.
         -2   -1    0    0    0  501 -0.00000000000E+00 -0.00000000000E+00 -0.72426121135E+01  0.72426121135E+01  0.00000000000E+00 0. -1.
          1    1    1    2  502    0  0.27888140289E+02 -0.12118212999E+02  0.36662768796E+02  0.47631481930E+02  0.00000000000E+00 0. -1.
         -1    1    1    2    0  501 -0.27888140289E+02  0.12118212999E+02  0.12970719851E+03  0.13322370960E+03  0.00000000000E+00 0.  1.
</event>
<event>
 4    1  0.6888348E+001  0.2507221E+02  0.7546771E-02  0.1467997E+00
          2   -1    0    0  502    0  0.00000000000E+00  0.00000000000E+00  0.11667998669E+02  0.11667998669E+02  0.00000000000E+00 0.  1.
         -2   -1    0    0    0  501 -0.00000000000E+00 -0.00000000000E+00 -0.61032922563E+02  0.61032922563E+02  0.00000000000E+00 0. -1.
          1    1    1    2  502    0  0.12494237532E+02 -0.21737294407E+02 -0.37130898303E+02  0.44803119852E+02  0.00000000000E+00 0.  1.
         -1    1    1    2    0  501 -0.12494237532E+02  0.21737294407E+02 -0.12234025591E+02  0.27897801380E+02  0.00000000000E+00 0. -1.
</event>
<event>
 4    1  0.6888348E+001  0.2425718E+02  0.7546771E-02  0.1477288E+00
          2   -1    0    0  502    0  0.00000000000E+00  0.00000000000E+00  0.20973652045E+04  0.20973652045E+04  0.00000000000E+00 0.  1.
         -2   -1    0    0    0  501 -0.00000000000E+00 -0.00000000000E+00 -0.28338044853E+00  0.28338044853E+00  0.00000000000E+00 0. -1.
          1    1    1    2  502    0  0.12646348130E+02  0.20699769514E+02  0.94367444945E+03  0.94398616363E+03  0.00000000000E+00 0. -1.
         -1    1    1    2    0  501 -0.12646348130E+02 -0.20699769514E+02  0.11534073746E+04  0.11536624213E+04  0.00000000000E+00 0.  1.
</event>
<event>
 4    1  0.6888348E+001  0.2657622E+02  0.7546771E-02  0.1451912E+00
          2   -1    0    0  502    0  0.00000000000E+00  0.00000000000E+00  0.21761724170E+03  0.21761724170E+03  0.00000000000E+00 0.  1.
         -2   -1    0    0    0  501 -0.00000000000E+00 -0.00000000000E+00 -0.47839224979E+01  0.47839224979E+01  0.00000000000E+00 0. -1.
          1    1    1    2  502    0  0.14826922108E+02 -0.22055783828E+02  0.43358567061E+02  0.50855290355E+02  0.00000000000E+00 0. -1.
         -1    1    1    2    0  501 -0.14826922108E+02  0.22055783828E+02  0.16947475214E+03  0.17154587384E+03  0.00000000000E+00 0.  1.
</event>
<event>
 4    1  0.6888348E+001  0.3633520E+02  0.7546771E-02  0.1371412E+00
          2   -1    0    0  502    0  0.00000000000E+00  0.00000000000E+00  0.11874801017E+02  0.11874801017E+02  0.00000000000E+00 0.  1.
         -2   -1    0    0    0  501 -0.00000000000E+00 -0.00000000000E+00 -0.12088117742E+03  0.12088117742E+03  0.00000000000E+00 0. -1.
          1    1    1    2  502    0 -0.22401665901E+01  0.36266080128E+02 -0.35699430235E+02  0.50938160875E+02  0.00000000000E+00 0.  1.
         -1    1    1    2    0  501  0.22401665901E+01 -0.36266080128E+02 -0.73306946166E+02  0.81817817561E+02  0.00000000000E+00 0. -1.
</event>
<event>
 4    1  0.6888348E+001  0.2079120E+02  0.7546771E-02  0.1522267E+00
          2   -1    0    0  502    0  0.00000000000E+00  0.00000000000E+00  0.84892374687E+03  0.84892374687E+03  0.00000000000E+00 0.  1.
         -2   -1    0    0    0  501 -0.00000000000E+00 -0.00000000000E+00 -0.60169145670E+00  0.60169145670E+00  0.00000000000E+00 0. -1.
          1    1    1    2  502    0 -0.20689343643E+02 -0.20554774442E+01  0.25762627747E+03  0.25846387131E+03  0.00000000000E+00 0. -1.
         -1    1    1    2    0  501  0.20689343643E+02  0.20554774442E+01  0.59069577794E+03  0.59106156701E+03  0.00000000000E+00 0.  1.
</event>
<event>
 4    1  0.6888348E+001  0.3563406E+02  0.7546771E-02  0.1376160E+00
          2   -1    0    0  502    0  0.00000000000E+00  0.00000000000E+00  0.43631890323E+02  0.43631890323E+02  0.00000000000E+00 0.  1.
         -2   -1    0    0    0  501 -0.00000000000E+00 -0.00000000000E+00 -0.29133936052E+02  0.29133936052E+02  0.00000000000E+00 0. -1.
          1    1    1    2  502    0  0.20681928359E+02 -0.29017997968E+02  0.60491942775E+01  0.36143866950E+02  0.00000000000E+00 0. -1.
         -1    1    1    2    0  501 -0.20681928359E+02  0.29017997968E+02  0.84487599928E+01  0.36621959425E+02  0.00000000000E+00 0.  1.
</event>
<event>
 4    1  0.6888348E+001  0.2447520E+02  0.7546771E-02  0.1474761E+00
          2   -1    0    0  502    0  0.00000000000E+00  0.00000000000E+00  0.11197187848E+02  0.11197187848E+02  0.00000000000E+00 0.  1.
         -2   -1    0    0    0  501 -0.00000000000E+00 -0.00000000000E+00 -0.66437865791E+02  0.66437865791E+02  0.00000000000E+00 0. -1.
          1    1    1    2  502    0 -0.80403524098E+01  0.23116839123E+02 -0.10489746717E+02  0.26628374042E+02  0.00000000000E+00 0.  1.
         -1    1    1    2    0  501  0.80403524098E+01 -0.23116839123E+02 -0.44750931226E+02  0.51006679597E+02  0.00000000000E+00 0. -1.
</event>
<event>
 4    1  0.6888348E+001  0.2128142E+02  0.7546771E-02  0.1515285E+00
          2   -1    0    0  502    0  0.00000000000E+00  0.00000000000E+00  0.14338750862E+04  0.14338750862E+04  0.00000000000E+00 0. -1.
         -2   -1    0    0    0  501 -0.00000000000E+00 -0.00000000000E+00 -0.40195788370E+00  0.40195788370E+00  0.00000000000E+00 0.  1.
          1    1    1    2  502    0 -0.19816377927E+02 -0.77595050376E+01  0.38482845311E+03  0.38541644630E+03  0.00000000000E+00 0.  1.
         -1    1    1    2    0  501  0.19816377927E+02  0.77595050376E+01  0.10486446752E+04  0.10488605978E+04  0.00000000000E+00 0. -1.
</event>
<event>
 4    1  0.6888348E+001  0.2405629E+02  0.7546771E-02  0.1479644E+00
          2   -1    0    0  502    0  0.00000000000E+00  0.00000000000E+00  0.10128559319E+02  0.10128559319E+02  0.00000000000E+00 0. -1.
         -2   -1    0    0    0  501 -0.00000000000E+00 -0.00000000000E+00 -0.34831202847E+03  0.34831202847E+03  0.00000000000E+00 0.  1.
          1    1    1    2  502    0 -0.17932124613E+02 -0.16035713488E+02 -0.52287841927E+01  0.24617989039E+02  0.00000000000E+00 0. -1.
         -1    1    1    2    0  501  0.17932124613E+02  0.16035713488E+02 -0.33295468496E+03  0.33382259875E+03  0.00000000000E+00 0.  1.
</event>
<event>
 4    1  0.6888348E+001  0.4964599E+02  0.7546771E-02  0.1299715E+00
          2   -1    0    0  502    0  0.00000000000E+00  0.00000000000E+00  0.12762301676E+03  0.12762301676E+03  0.00000000000E+00 0.  1.
         -2   -1    0    0    0  501 -0.00000000000E+00 -0.00000000000E+00 -0.36900535471E+02  0.36900535471E+02  0.00000000000E+00 0. -1.
          1    1    1    2  502    0  0.12744162832E+02 -0.47982400145E+02 -0.11431122540E+02  0.50945019114E+02  0.00000000000E+00 0. -1.
         -1    1    1    2    0  501 -0.12744162832E+02  0.47982400145E+02  0.10215360383E+03  0.11357853312E+03  0.00000000000E+00 0.  1.
</event>
<event>
 4    1  0.6888348E+001  0.2008588E+02  0.7546771E-02  0.1532727E+00
          2   -1    0    0  502    0  0.00000000000E+00  0.00000000000E+00  0.11153477923E+04  0.11153477923E+04  0.00000000000E+00 0. -1.
         -2   -1    0    0    0  501 -0.00000000000E+00 -0.00000000000E+00 -0.14855142850E+01  0.14855142850E+01  0.00000000000E+00 0.  1.
          1    1    1    2  502    0  0.12055383471E+02  0.16065811890E+02  0.71236251820E+02  0.74013824085E+02  0.00000000000E+00 0.  1.
         -1    1    1    2    0  501 -0.12055383471E+02 -0.16065811890E+02  0.10426260262E+04  0.10428194825E+04  0.00000000000E+00 0. -1.
</event>
<event>
 4    1  0.6888348E+001  0.3411495E+02  0.7546771E-02  0.1386894E+00
          2   -1    0    0  502    0  0.00000000000E+00  0.00000000000E+00  0.11286872427E+03  0.11286872427E+03  0.00000000000E+00 0. -1.
         -2   -1    0    0    0  501 -0.00000000000E+00 -0.00000000000E+00 -0.10382973492E+02  0.10382973492E+02  0.00000000000E+00 0.  1.
          1    1    1    2  502    0 -0.27173406561E+02  0.20626091177E+02  0.56360988421E+02  0.65881641427E+02  0.00000000000E+00 0. -1.
         -1    1    1    2    0  501  0.27173406561E+02 -0.20626091177E+02  0.46124762361E+02  0.57370056338E+02  0.00000000000E+00 0.  1.
</event>
<event>
 4    1  0.6888348E+001  0.2242918E+02  0.7546771E-02  0.1499793E+00
          2   -1    0    0  502    0  0.00000000000E+00  0.00000000000E+00  0.91926760223E+03  0.91926760223E+03  0.00000000000E+00 0. -1.
         -2   -1    0    0    0  501 -0.00000000000E+00 -0.00000000000E+00 -0.54749292595E+00  0.54749292595E+00  0.00000000000E+00 0.  1.
          1    1    1    2  502    0 -0.13825650218E+01 -0.22386524674E+02  0.44964593260E+03  0.45020498962E+03  0.00000000000E+00 0. -1.
         -1    1    1    2    0  501  0.13825650218E+01  0.22386524674E+02  0.46907417670E+03  0.46961010554E+03  0.00000000000E+00 0.  1.
</event>
<event>
 4    1  0.6888348E+001  0.2070773E+02  0.7546771E-02  0.1523479E+00
          2   -1    0    0  502    0  0.00000000000E+00  0.00000000000E+00  0.12525794683E+02  0.12525794683E+02  0.00000000000E+00 0.  1.
         -2   -1    0    0    0  501 -0.00000000000E+00 -0.00000000000E+00 -0.35232216078E+02  0.35232216078E+02  0.00000000000E+00 0. -1.
          1    1    1    2  502    0 -0.12747888313E+02 -0.16318745864E+02 -0.73341680161E+01  0.21968162042E+02  0.00000000000E+00 0. -1.
         -1    1    1    2    0  501  0.12747888313E+02  0.16318745864E+02 -0.15372253380E+02  0.25789848719E+02  0.00000000000E+00 0.  1.
</event>
<event>
 4    1  0.6888348E+001  0.3861604E+02  0.7546771E-02  0.1356792E+00
          2   -1    0    0  502    0  0.00000000000E+00  0.00000000000E+00  0.67337022734E+03  0.67337022734E+03  0.00000000000E+00 0.  1.
         -2   -1    0    0    0  501 -0.00000000000E+00 -0.00000000000E+00 -0.27086529025E+01  0.27086529025E+01  0.00000000000E+00 0. -1.
          1    1    1    2  502    0 -0.22203087247E+02 -0.31594639989E+02  0.47971121512E+03  0.48126297205E+03  0.00000000000E+00 0.  1.
         -1    1    1    2    0  501  0.22203087247E+02  0.31594639989E+02  0.19095035931E+03  0.19481590818E+03  0.00000000000E+00 0. -1.
</event>
<event>
 4    1  0.6888348E+001  0.2066216E+02  0.7546771E-02  0.1524143E+00
          2   -1    0    0  502    0  0.00000000000E+00  0.00000000000E+00  0.75306854319E+03  0.75306854319E+03  0.00000000000E+00 0.  1.
         -2   -1    0    0    0  501 -0.00000000000E+00 -0.00000000000E+00 -0.59022220557E+00  0.59022220557E+00  0.00000000000E+00 0. -1.
          1    1    1    2  502    0  0.74073821661E+01 -0.19288746710E+02  0.45112365460E+03  0.45159658635E+03  0.00000000000E+00 0.  1.
         -1    1    1    2    0  501 -0.74073821661E+01  0.19288746710E+02  0.30135466638E+03  0.30206217905E+03  0.00000000000E+00 0. -1.
</event>
<event>
 4    1  0.6888348E+001  0.2469295E+02  0.7546771E-02  0.1472268E+00
          2   -1    0    0  502    0  0.00000000000E+00  0.00000000000E+00  0.60830705019E+03  0.60830705019E+03  0.00000000000E+00 0.  1.
         -2   -1    0    0    0  501 -0.00000000000E+00 -0.00000000000E+00 -0.11847701283E+01  0.11847701283E+01  0.00000000000E+00 0. -1.
          1    1    1    2  502    0  0.82741654717E+01  0.23265428243E+02  0.18398441322E+03  0.18563406550E+03  0.00000000000E+00 0. -1.
         -1    1    1    2    0  501 -0.82741654717E+01 -0.23265428243E+02  0.42313786684E+03  0.42385775481E+03  0.00000000000E+00 0.  1.
</event>
<event>
 4    1  0.6888348E+001  0.2734178E+02  0.7546771E-02  0.1444205E+00
          2   -1    0    0  502    0  0.00000000000E+00  0.00000000000E+00  0.18218527494E+02  0.18218527494E+02  0.00000000000E+00 0. -1.
         -2   -1    0    0    0  501 -0.00000000000E+00 -0.00000000000E+00 -0.48785159530E+02  0.48785159530E+02  0.00000000000E+00 0.  1.
          1    1    1    2  502    0 -0.11790208153E+02 -0.24669092366E+02 -0.28637498246E+02  0.39593931760E+02  0.00000000000E+00 0.  1.
         -1    1    1    2    0  501  0.11790208153E+02  0.24669092366E+02 -0.19291337893E+01  0.27409755264E+02  0.00000000000E+00 0. -1.
</event>
<event>
 4    1  0.6888348E+001  0.2140253E+02  0.7546771E-02  0.1513595E+00
          2   -1    0    0  502    0  0.00000000000E+00  0.00000000000E+00  0.88512622608E+03  0.88512622608E+03  0.00000000000E+00 0.  1.
         -2   -1    0    0    0  501 -0.00000000000E+00 -0.00000000000E+00 -0.72455281807E+00  0.72455281807E+00  0.00000000000E+00 0. -1.
          1    1    1    2  502    0  0.74472292349E+00 -0.21389573290E+02  0.67896588775E+03  0.67930313203E+03  0.00000000000E+00 0.  1.
         -1    1    1    2    0  501 -0.74472292349E+00  0.21389573290E+02  0.20543578550E+03  0.20654764686E+03  0.00000000000E+00 0. -1.
</event>
<event>
 4    1  0.6888348E+001  0.2011920E+02  0.7546771E-02  0.1532221E+00
          2   -1    0    0  502    0  0.00000000000E+00  0.00000000000E+00  0.12164709508E+03  0.12164709508E+03  0.00000000000E+00 0.  1.
         -2   -1    0    0    0  501 -0.00000000000E+00 -0.00000000000E+00 -0.34457947352E+01  0.34457947352E+01  0.00000000000E+00 0. -1.
          1    1    1    2  502    0 -0.17888839327E+02  0.92071550147E+01  0.70688877017E+02  0.73496255753E+02  0.00000000000E+00 0. -1.
         -1    1    1    2    0  501  0.17888839327E+02 -0.92071550147E+01  0.47512423323E+02  0.51596634057E+02  0.00000000000E+00 0.  1.
</event>
<event>
 4    1  0.6888348E+001  0.2288736E+02  0.7546771E-02  0.1493917E+00
          2   -1    0    0  502    0  0.00000000000E+00  0.00000000000E+00  0.16480223856E+02  0.16480223856E+02  0.00000000000E+00 0. -1.
         -2   -1    0    0    0  501 -0.00000000000E+00 -0.00000000000E+00 -0.47302627989E+02  0.47302627989E+02  0.00000000000E+00 0.  1.
          1    1    1    2  502    0 -0.10928000153E+02  0.20109945026E+02  0.28545639678E+01  0.23064683213E+02  0.00000000000E+00 0. -1.
         -1    1    1    2    0  501  0.10928000153E+02 -0.20109945026E+02 -0.33676968100E+02  0.40718168631E+02  0.00000000000E+00 0.  1.
</event>
<event>
 4    1  0.6888348E+001  0.4147269E+02  0.7546771E-02  0.1340065E+00
          2   -1    0    0  502    0  0.00000000000E+00  0.00000000000E+00  0.25543447058E+04  0.25543447058E+04  0.00000000000E+00 0. -1.
         -2   -1    0    0    0  501 -0.00000000000E+00 -0.00000000000E+00 -0.85186866663E+00  0.85186866663E+00  0.00000000000E+00 0.  1.
          1    1    1    2  502    0  0.38197766098E+02  0.16152853345E+02  0.18615933254E+04  0.18620552336E+04  0.00000000000E+00 0. -1.
         -1    1    1    2    0  501 -0.38197766098E+02 -0.16152853345E+02  0.69189951173E+03  0.69314134080E+03  0.00000000000E+00 0.  1.
</event>
<event>
 4    1  0.6888348E+001  0.2654543E+02  0.7546771E-02  0.1452229E+00
          2   -1    0    0  502    0  0.00000000000E+00  0.00000000000E+00  0.52339358868E+03  0.52339358868E+03  0.00000000000E+00 0.  1.
         -2   -1    0    0    0  501 -0.00000000000E+00 -0.00000000000E+00 -0.15860717839E+01  0.15860717839E+01  0.00000000000E+00 0. -1.
          1    1    1    2  502    0  0.17371865756E+02 -0.20071822913E+02  0.36295637214E+03  0.36392579996E+03  0.00000000000E+00 0. -1.
         -1    1    1    2    0  501 -0.17371865756E+02  0.20071822913E+02  0.15885114476E+03  0.16105386051E+03  0.00000000000E+00 0.  1.
</event>
<event>
 4    1  0.6888348E+001  0.2798032E+02  0.7546771E-02  0.1438002E+00
          2   -1    0    0  502    0  0.00000000000E+00  0.00000000000E+00  0.38067891800E+03  0.38067891800E+03  0.00000000000E+00 0. -1.
         -2   -1    0    0    0  501 -0.00000000000E+00 -0.00000000000E+00 -0.38464682766E+01  0.38464682766E+01  0.00000000000E+00 0.  1.
          1    1    1    2  502    0 -0.26972026557E+01 -0.27850019045E+02  0.57263799081E+02  0.63734144288E+02  0.00000000000E+00 0.  1.
         -1    1    1    2    0  501  0.26972026557E+01  0.27850019045E+02  0.31956865065E+03  0.32079124199E+03  0.00000000000E+00 0. -1.
</event>
<event>
 4    1  0.6888348E+001  0.3828950E+02  0.7546771E-02  0.1358812E+00
          2   -1    0    0  502    0  0.00000000000E+00  0.00000000000E+00  0.70551524507E+03  0.70551524507E+03  0.00000000000E+00 0. -1.
         -2   -1    0    0    0  501 -0.00000000000E+00 -0.00000000000E+00 -0.25743181464E+01  0.25743181464E+01  0.00000000000E+00 0.  1.
          1    1    1    2  502    0 -0.25640684831E+01 -0.38203554395E+02  0.19602020337E+03  0.19972482606E+03  0.00000000000E+00 0.  1.
         -1    1    1    2    0  501  0.25640684831E+01  0.38203554395E+02  0.50692072356E+03  0.50836473716E+03  0.00000000000E+00 0. -1.
</event>
<event>
 4    1  0.6888348E+001  0.3730030E+02  0.7546771E-02  0.1365076E+00
          2   -1    0    0  502    0  0.00000000000E+00  0.00000000000E+00  0.10517010233E+04  0.10517010233E+04  0.00000000000E+00 0.  1.
         -2   -1    0    0    0  501 -0.00000000000E+00 -0.00000000000E+00 -0.13322281145E+01  0.13322281145E+01  0.00000000000E+00 0. -1.
          1    1    1    2  502    0  0.22906601774E+02 -0.29438063948E+02  0.48116449286E+03  0.48260810312E+03  0.00000000000E+00 0.  1.
         -1    1    1    2    0  501 -0.22906601774E+02  0.29438063948E+02  0.56920430229E+03  0.57042514826E+03  0.00000000000E+00 0. -1.
</event>
<event>
 4    1  0.6888348E+001  0.3023781E+02  0.7546771E-02  0.1417541E+00
          2   -1    0    0  502    0  0.00000000000E+00  0.00000000000E+00  0.22690305714E+01  0.22690305714E+01  0.00000000000E+00 0.  1.
         -2   -1    0    0    0  501 -0.00000000000E+00 -0.00000000000E+00 -0.42213709567E+03  0.42213709567E+03  0.00000000000E+00 0. -1.
          1    1    1    2  502    0  0.29866684873E+02 -0.47229394221E+01 -0.25516480005E+03  0.25695019013E+03  0.00000000000E+00 0. -1.
         -1    1    1    2    0  501 -0.29866684873E+02  0.47229394221E+01 -0.16470326504E+03  0.16745593611E+03  0.00000000000E+00 0.  1.
</event>
<event>
 4    1  0.6888348E+001  0.1036412E+03  0.7546771E-02  0.1157644E+00
          2   -1    0    0  502    0  0.00000000000E+00  0.00000000000E+00  0.67521703881E+02  0.67521703881E+02  0.00000000000E+00 0. -1.
         -2   -1    0    0    0  501 -0.00000000000E+00 -0.00000000000E+00 -0.16234103511E+03  0.16234103511E+03  0.00000000000E+00 0.  1.
          1    1    1    2  502    0  0.71863653815E+02  0.74680061152E+02 -0.63693642701E+02  0.12164857744E+03  0.00000000000E+00 0.  1.
         -1    1    1    2    0  501 -0.71863653815E+02 -0.74680061152E+02 -0.31125688527E+02  0.10821416155E+03  0.00000000000E+00 0. -1.
</event>
<event>
 4    1  0.6888348E+001  0.3033840E+02  0.7546771E-02  0.1416678E+00
          2   -1    0    0  502    0  0.00000000000E+00  0.00000000000E+00  0.85857138490E+03  0.85857138490E+03  0.00000000000E+00 0. -1.
         -2   -1    0    0    0  501 -0.00000000000E+00 -0.00000000000E+00 -0.10767346424E+01  0.10767346424E+01  0.00000000000E+00 0.  1.
          1    1    1    2  502    0  0.29191648917E+02 -0.82623279741E+01  0.40035005687E+03  0.40149792835E+03  0.00000000000E+00 0.  1.
         -1    1    1    2    0  501 -0.29191648917E+02  0.82623279741E+01  0.45714459338E+03  0.45815019119E+03  0.00000000000E+00 0. -1.
</event>
<event>
 4    1  0.6888348E+001  0.3662511E+02  0.7546771E-02  0.1369484E+00
          2   -1    0    0  502    0  0.00000000000E+00  0.00000000000E+00  0.23669951593E+03  0.23669951593E+03  0.00000000000E+00 0.  1.
         -2   -1    0    0    0  501 -0.00000000000E+00 -0.00000000000E+00 -0.64076823802E+01  0.64076823802E+01  0.00000000000E+00 0. -1.
          1    1    1    2  502    0 -0.27902691980E+02 -0.23724216647E+02  0.15647021132E+03  0.16069948882E+03  0.00000000000E+00 0.  1.
         -1    1    1    2    0  501  0.27902691980E+02  0.23724216647E+02  0.73821622222E+02  0.82407709486E+02  0.00000000000E+00 0. -1.
</event>
<event>
 4    1  0.6888348E+001  0.2952857E+02  0.7546771E-02  0.1423738E+00
          2   -1    0    0  502    0  0.00000000000E+00  0.00000000000E+00  0.13872504118E+04  0.13872504118E+04  0.00000000000E+00 0. -1.
         -2   -1    0    0    0  501 -0.00000000000E+00 -0.00000000000E+00 -0.84153936822E+00  0.84153936822E+00  0.00000000000E+00 0.  1.
          1    1    1    2  502    0 -0.26586194517E+02  0.12849545146E+02  0.34402837686E+03  0.34529329654E+03  0.00000000000E+00 0.  1.
         -1    1    1    2    0  501  0.26586194517E+02 -0.12849545146E+02  0.10423804955E+04  0.10427986546E+04  0.00000000000E+00 0. -1.
</event>
<event>
 4    1  0.6888348E+001  0.2883430E+02  0.7546771E-02  0.1430004E+00
          2   -1    0    0  502    0  0.00000000000E+00  0.00000000000E+00  0.25814191886E+03  0.25814191886E+03  0.00000000000E+00 0.  1.
         -2   -1    0    0    0  501 -0.00000000000E+00 -0.00000000000E+00 -0.32419184142E+01  0.32419184142E+01  0.00000000000E+00 0. -1.
          1    1    1    2  502    0  0.76683159792E+01 -0.27795926952E+02  0.11689515893E+03  0.12039889869E+03  0.00000000000E+00 0.  1.
         -1    1    1    2    0  501 -0.76683159792E+01  0.27795926952E+02  0.13800484151E+03  0.14098493858E+03  0.00000000000E+00 0. -1.
</event>
<event>
 4    1  0.6888348E+001  0.2141972E+02  0.7546771E-02  0.1513356E+00
          2   -1    0    0  502    0  0.00000000000E+00  0.00000000000E+00  0.17648593825E+03  0.17648593825E+03  0.00000000000E+00 0. -1.
         -2   -1    0    0    0  501 -0.00000000000E+00 -0.00000000000E+00 -0.30523502958E+01  0.30523502958E+01  0.00000000000E+00 0.  1.
          1    1    1    2  502    0 -0.21416489164E+02 -0.37228036615E+00  0.52146161865E+02  0.56373990439E+02  0.00000000000E+00 0.  1.
         -1    1    1    2    0  501  0.21416489164E+02  0.37228036615E+00  0.12128742609E+03  0.12316429810E+03  0.00000000000E+00 0. -1.
</event>
<event>
 4    1  0.6888348E+001  0.2326413E+02  0.7546771E-02  0.1489208E+00
          2   -1    0    0  502    0  0.00000000000E+00  0.00000000000E+00  0.88392911262E+03  0.88392911262E+03  0.00000000000E+00 0. -1.
         -2   -1    0    0    0  501 -0.00000000000E+00 -0.00000000000E+00 -0.64516365522E+00  0.64516365522E+00  0.00000000000E+00 0.  1.
          1    1    1    2  502    0  0.16806135711E+02  0.16086440258E+02  0.54148145631E+03  0.54198098425E+03  0.00000000000E+00 0.  1.
         -1    1    1    2    0  501 -0.16806135711E+02 -0.16086440258E+02  0.34180249265E+03  0.34259329203E+03  0.00000000000E+00 0. -1.
</event>
<event>
 4    1  0.6888348E+001  0.2549677E+02  0.7546771E-02  0.1463322E+00
          2   -1    0    0  502    0  0.00000000000E+00  0.00000000000E+00  0.32251240803E+01  0.32251240803E+01  0.00000000000E+00 0. -1.
         -2   -1    0    0    0  501 -0.00000000000E+00 -0.00000000000E+00 -0.20455880119E+03  0.20455880119E+03  0.00000000000E+00 0.  1.
          1    1    1    2  502    0  0.22563054879E+02 -0.11874075183E+02 -0.11322691890E+03  0.11606213969E+03  0.00000000000E+00 0.  1.
         -1    1    1    2    0  501 -0.22563054879E+02  0.11874075183E+02 -0.88106758208E+02  0.91721785574E+02  0.00000000000E+00 0. -1.
</event>
<event>
 4    1  0.6888348E+001  0.3607147E+02  0.7546771E-02  0.1373183E+00
          2   -1    0    0  502    0  0.00000000000E+00  0.00000000000E+00  0.23005332570E+03  0.23005332570E+03  0.00000000000E+00 0.  1.
         -2   -1    0    0    0  501 -0.00000000000E+00 -0.00000000000E+00 -0.61942229514E+01  0.61942229514E+01  0.00000000000E+00 0. -1.
          1    1    1    2  502    0  0.23559652185E+02  0.27314719178E+02  0.77105562568E+02  0.85125900135E+02  0.00000000000E+00 0.  1.
         -1    1    1    2    0  501 -0.23559652185E+02 -0.27314719178E+02  0.14675354019E+03  0.15112164852E+03  0.00000000000E+00 0. -1.
</event>
<event>
 4    1  0.6888348E+001  0.4231795E+02  0.7546771E-02  0.1335413E+00
          2   -1    0    0  502    0  0.00000000000E+00  0.00000000000E+00  0.45023973478E+03  0.45023973478E+03  0.00000000000E+00 0.  1.
         -2   -1    0    0    0  501 -0.00000000000E+00 -0.00000000000E+00 -0.44742883251E+01  0.44742883251E+01  0.00000000000E+00 0. -1.
          1    1    1    2  502    0 -0.13928357758E+02  0.39960107054E+02  0.14712084435E+03  0.15308609391E+03  0.00000000000E+00 0.  1.
         -1    1    1    2    0  501  0.13928357758E+02 -0.39960107054E+02  0.29864460210E+03  0.30162792919E+03  0.00000000000E+00 0. -1.
</event>
<event>
 4    1  0.6888348E+001  0.2598238E+02  0.7546771E-02  0.1458107E+00
          2   -1    0    0  502    0  0.00000000000E+00  0.00000000000E+00  0.20531000414E+02  0.20531000414E+02  0.00000000000E+00 0. -1.
         -2   -1    0    0    0  501 -0.00000000000E+00 -0.00000000000E+00 -0.33847903311E+02  0.33847903311E+02  0.00000000000E+00 0.  1.
          1    1    1    2  502    0 -0.21010750282E+02 -0.15285035350E+02 -0.11253405200E+02  0.28314714579E+02  0.00000000000E+00 0.  1.
         -1    1    1    2    0  501  0.21010750282E+02  0.15285035350E+02 -0.20634976966E+01  0.26064189146E+02  0.00000000000E+00 0. -1.
</event>
<event>
 4    1  0.6888348E+001  0.2163961E+02  0.7546771E-02  0.1510326E+00
          2   -1    0    0  502    0  0.00000000000E+00  0.00000000000E+00  0.79298893812E+03  0.79298893812E+03  0.00000000000E+00 0. -1.
         -2   -1    0    0    0  501 -0.00000000000E+00 -0.00000000000E+00 -0.59973881530E+00  0.59973881530E+00  0.00000000000E+00 0.  1.
          1    1    1    2  502    0 -0.18633394008E+01  0.21559234447E+02  0.34698870897E+03  0.34766282053E+03  0.00000000000E+00 0. -1.
         -1    1    1    2    0  501  0.18633394008E+01 -0.21559234447E+02  0.44540049034E+03  0.44592585641E+03  0.00000000000E+00 0.  1.
</event>
<event>
 4    1  0.6888348E+001  0.2132813E+02  0.7546771E-02  0.1514631E+00
          2   -1    0    0  502    0  0.00000000000E+00  0.00000000000E+00  0.14093627951E+04  0.14093627951E+04  0.00000000000E+00 0.  1.
         -2   -1    0    0    0  501 -0.00000000000E+00 -0.00000000000E+00 -0.33229937337E+00  0.33229937337E+00  0.00000000000E+00 0. -1.
          1    1    1    2  502    0  0.21217148432E+02  0.21729864374E+01  0.58510634860E+03  0.58549494313E+03  0.00000000000E+00 0. -1.
         -1    1    1    2    0  501 -0.21217148432E+02 -0.21729864374E+01  0.82392414716E+03  0.82420015138E+03  0.00000000000E+00 0.  1.
</event>
<event>
 4    1  0.6888348E+001  0.2031781E+02  0.7546771E-02  0.1529232E+00
          2   -1    0    0  502    0  0.00000000000E+00  0.00000000000E+00  0.12687681821E+02  0.12687681821E+02  0.00000000000E+00 0.  1.
         -2   -1    0    0    0  501 -0.00000000000E+00 -0.00000000000E+00 -0.35686467124E+02  0.35686467124E+02  0.00000000000E+00 0. -1.
          1    1    1    2  502    0  0.11703131386E+01  0.20284081270E+02 -0.43135105905E+01  0.20770651396E+02  0.00000000000E+00 0.  1.
         -1    1    1    2    0  501 -0.11703131386E+01 -0.20284081270E+02 -0.18685274712E+02  0.27603497548E+02  0.00000000000E+00 0. -1.
</event>
<event>
 4    1  0.6888348E+001  0.2371038E+02  0.7546771E-02  0.1483765E+00
          2   -1    0    0  502    0  0.00000000000E+00  0.00000000000E+00  0.20142072192E+04  0.20142072192E+04  0.00000000000E+00 0.  1.
         -2   -1    0    0    0  501 -0.00000000000E+00 -0.00000000000E+00 -0.28026872063E+00  0.28026872063E+00  0.00000000000E+00 0. -1.
          1    1    1    2  502    0 -0.53323063102E+01 -0.23102996153E+02  0.10717758394E+04  0.10720380739E+04  0.00000000000E+00 0. -1.
         -1    1    1    2    0  501  0.53323063102E+01  0.23102996153E+02  0.94215111110E+03  0.94244941406E+03  0.00000000000E+00 0.  1.
</event>
<event>
 4    1  0.6888348E+001  0.2418848E+02  0.7546771E-02  0.1478090E+00
          2   -1    0    0  502    0  0.00000000000E+00  0.00000000000E+00  0.61976131948E+03  0.61976131948E+03  0.00000000000E+00 0.  1.
         -2   -1    0    0    0  501 -0.00000000000E+00 -0.00000000000E+00 -0.20995864501E+01  0.20995864501E+01  0.00000000000E+00 0. -1.
          1    1    1    2  502    0 -0.24024584475E+02 -0.28110201417E+01  0.78161901064E+02  0.81819100895E+02  0.00000000000E+00 0. -1.
         -1    1    1    2    0  501  0.24024584475E+02  0.28110201417E+01  0.53949983196E+03  0.54004180503E+03  0.00000000000E+00 0.  1.
</event>
<event>
 4    1  0.6888348E+001  0.5023084E+02  0.7546771E-02  0.1297175E+00
          2   -1    0    0  502    0  0.00000000000E+00  0.00000000000E+00  0.28086862269E+03  0.28086862269E+03  0.00000000000E+00 0. -1.
         -2   -1    0    0    0  501 -0.00000000000E+00 -0.00000000000E+00 -0.90435571989E+01  0.90435571989E+01  0.00000000000E+00 0.  1.
          1    1    1    2  502    0 -0.15116282740E+02 -0.47902348258E+02  0.12408362727E+03  0.13386516921E+03  0.00000000000E+00 0. -1.
         -1    1    1    2    0  501  0.15116282740E+02  0.47902348258E+02  0.14774143822E+03  0.15604701068E+03  0.00000000000E+00 0.  1.
</event>
<event>
 4    1  0.6888348E+001  0.2012763E+02  0.7546771E-02  0.1532094E+00
          2   -1    0    0  502    0  0.00000000000E+00  0.00000000000E+00  0.75504544329E+02  0.75504544329E+02  0.00000000000E+00 0.  1.
         -2   -1    0    0    0  501 -0.00000000000E+00 -0.00000000000E+00 -0.56986627918E+01  0.56986627918E+01  0.00000000000E+00 0. -1.
          1    1    1    2  502    0  0.89039227021E+01  0.18051084449E+02  0.44719717763E+02  0.49040540842E+02  0.00000000000E+00 0. -1.
         -1    1    1    2    0  501 -0.89039227021E+01 -0.18051084449E+02  0.25086163774E+02  0.32162666279E+02  0.00000000000E+00 0.  1.
</event>
<event>
 4    1  0.6888348E+001  0.2630732E+02  0.7546771E-02  0.1454693E+00
          2   -1    0    0  502    0  0.00000000000E+00  0.00000000000E+00  0.26004109418E+03  0.26004109418E+03  0.00000000000E+00 0. -1.
         -2   -1    0    0    0  501 -0.00000000000E+00 -0.00000000000E+00 -0.26636415659E+01  0.26636415659E+01  0.00000000000E+00 0.  1.
          1    1    1    2  502    0 -0.96019145353E+01  0.24492409430E+02  0.13249421888E+03  0.13508069040E+03  0.00000000000E+00 0. -1.
         -1    1    1    2    0  501  0.96019145353E+01 -0.24492409430E+02  0.12488323373E+03  0.12762404534E+03  0.00000000000E+00 0.  1.
</event>
<event>
 4    1  0.6888348E+001  0.2313281E+02  0.7546771E-02  0.1490837E+00
          2   -1    0    0  502    0  0.00000000000E+00  0.00000000000E+00  0.23817276596E+03  0.23817276596E+03  0.00000000000E+00 0. -1.
         -2   -1    0    0    0  501 -0.00000000000E+00 -0.00000000000E+00 -0.22712498324E+01  0.22712498324E+01  0.00000000000E+00 0.  1.
          1    1    1    2  502    0  0.21100743327E+02 -0.94808084656E+01  0.10547779049E+03  0.10798468125E+03  0.00000000000E+00 0. -1.
         -1    1    1    2    0  501 -0.21100743327E+02  0.94808084656E+01  0.13042372564E+03  0.13245933455E+03  0.00000000000E+00 0.  1.
</event>
<event>
 4    1  0.6888348E+001  0.4549757E+02  0.7546771E-02  0.1318970E+00
          2   -1    0    0  502    0  0.00000000000E+00  0.00000000000E+00  0.81001051531E+02  0.81001051531E+02  0.00000000000E+00 0.  1.
         -2   -1    0    0    0  501 -0.00000000000E+00 -0.00000000000E+00 -0.30331969207E+02  0.30331969207E+02  0.00000000000E+00 0. -1.
          1    1    1    2  502    0 -0.29903251579E+02  0.34290301518E+02  0.32446622982E+01  0.45613123842E+02  0.00000000000E+00 0.  1.
         -1    1    1    2    0  501  0.29903251579E+02 -0.34290301518E+02  0.47424420026E+02  0.65719896896E+02  0.00000000000E+00 0. -1.
</event>
<event>
 4    1  0.6888348E+001  0.1049277E+03  0.7546771E-02  0.1155533E+00
          2   -1    0    0  502    0  0.00000000000E+00  0.00000000000E+00  0.26768039337E+02  0.26768039337E+02  0.00000000000E+00 0.  1.
         -2   -1    0    0    0  501 -0.00000000000E+00 -0.00000000000E+00 -0.41412893478E+03  0.41412893478E+03  0.00000000000E+00 0. -1.
          1    1    1    2  502    0  0.56829208126E+02  0.88205803736E+02 -0.17547576688E+03  0.20445431634E+03  0.00000000000E+00 0.  1.
         -1    1    1    2    0  501 -0.56829208126E+02 -0.88205803736E+02 -0.21188512857E+03  0.23644265778E+03  0.00000000000E+00 0. -1.
</event>
<event>
 4    1  0.6888348E+001  0.3970440E+02  0.7546771E-02  0.1350227E+00
          2   -1    0    0  502    0  0.00000000000E+00  0.00000000000E+00  0.60313098785E+02  0.60313098785E+02  0.00000000000E+00 0.  1.
         -2   -1    0    0    0  501 -0.00000000000E+00 -0.00000000000E+00 -0.26192632876E+02  0.26192632876E+02  0.00000000000E+00 0. -1.
          1    1    1    2  502    0  0.86111745744E+01 -0.38759351162E+02  0.15077620769E+02  0.42470863873E+02  0.00000000000E+00 0. -1.
         -1    1    1    2    0  501 -0.86111745744E+01  0.38759351162E+02  0.19042845140E+02  0.44034867788E+02  0.00000000000E+00 0.  1.
</event>
<event>
 4    1  0.6888348E+001  0.2291356E+02  0.7546771E-02  0.1493586E+00
          2   -1    0    0  502    0  0.00000000000E+00  0.00000000000E+00  0.37584783680E+02  0.37584783680E+02  0.00000000000E+00 0.  1.
         -2   -1    0    0    0  501 -0.00000000000E+00 -0.00000000000E+00 -0.20520650174E+02  0.20520650174E+02  0.00000000000E+00 0. -1.
          1    1    1    2  502    0 -0.12025598442E+02  0.19504260256E+02  0.24947725120E+02  0.33873591110E+02  0.00000000000E+00 0.  1.
         -1    1    1    2    0  501  0.12025598442E+02 -0.19504260256E+02 -0.78835916135E+01  0.24231842744E+02  0.00000000000E+00 0. -1.
</event>
<event>
 4    1  0.6888348E+001  0.2363989E+02  0.7546771E-02  0.1484616E+00
          2   -1    0    0  502    0  0.00000000000E+00  0.00000000000E+00  0.10121801281E+04  0.10121801281E+04  0.00000000000E+00 0.  1.
         -2   -1    0    0    0  501 -0.00000000000E+00 -0.00000000000E+00 -0.56137971944E+00  0.56137971944E+00  0.00000000000E+00 0. -1.
          1    1    1    2  502    0  0.94986259150E+01  0.21647641996E+02  0.57084524100E+03  0.57133451976E+03  0.00000000000E+00 0.  1.
         -1    1    1    2    0  501 -0.94986259150E+01 -0.21647641996E+02  0.44077350742E+03  0.44140698809E+03  0.00000000000E+00 0. -1.
</event>
<event>
 4    1  0.6888348E+001  0.2868276E+02  0.7546771E-02  0.1431399E+00
          2   -1    0    0  502    0  0.00000000000E+00  0.00000000000E+00  0.69478842258E+03  0.69478842258E+03  0.00000000000E+00 0.  1.
         -2   -1    0    0    0  501 -0.00000000000E+00 -0.00000000000E+00 -0.13101267056E+01  0.13101267056E+01  0.00000000000E+00 0. -1.
          1    1    1    2  502    0  0.27823633690E+02 -0.69675203880E+01  0.23879216408E+03  0.24050862471E+03  0.00000000000E+00 0. -1.
         -1    1    1    2    0  501 -0.27823633690E+02  0.69675203880E+01  0.45468613179E+03  0.45558992457E+03  0.00000000000E+00 0.  1.
</event>
<event>
 4    1  0.6888348E+001  0.4195229E+02  0.7546771E-02  0.1337410E+00
          2   -1    0    0  502    0  0.00000000000E+00  0.00000000000E+00  0.53192249526E+02  0.53192249526E+02  0.00000000000E+00 0.  1.
         -2   -1    0    0    0  501 -0.00000000000E+00 -0.00000000000E+00 -0.42006402793E+02  0.42006402793E+02  0.00000000000E+00 0. -1.
          1    1    1    2  502    0  0.15615952822E+02  0.38937604206E+02  0.27526042608E+02  0.50176468842E+02  0.00000000000E+00 0.  1.
         -1    1    1    2    0  501 -0.15615952822E+02 -0.38937604206E+02 -0.16340195875E+02  0.45022183477E+02  0.00000000000E+00 0. -1.
</event>
<event>
 4    1  0.6888348E+001  0.3478217E+02  0.7546771E-02  0.1382101E+00
          2   -1    0    0  502    0  0.00000000000E+00  0.00000000000E+00  0.11973558770E+03  0.11973558770E+03  0.00000000000E+00 0. -1.
         -2   -1    0    0    0  501 -0.00000000000E+00 -0.00000000000E+00 -0.29833266020E+02  0.29833266020E+02  0.00000000000E+00 0.  1.
          1    1    1    2  502    0  0.26176216210E+02  0.22904251573E+02 -0.15864732757E+02  0.38229422970E+02  0.00000000000E+00 0.  1.
         -1    1    1    2    0  501 -0.26176216210E+02 -0.22904251573E+02  0.10576705444E+03  0.11133943075E+03  0.00000000000E+00 0. -1.
</event>
<event>
 4    1  0.6888348E+001  0.3172451E+02  0.7546771E-02  0.1405180E+00
          2   -1    0    0  502    0  0.00000000000E+00  0.00000000000E+00  0.15650017097E+04  0.15650017097E+04  0.00000000000E+00 0.  1.
         -2   -1    0    0    0  501 -0.00000000000E+00 -0.00000000000E+00 -0.64660162609E+00  0.64660162609E+00  0.00000000000E+00 0. -1.
          1    1    1    2  502    0  0.28959619702E+02 -0.12953185752E+02  0.72452777109E+03  0.72522199062E+03  0.00000000000E+00 0. -1.
         -1    1    1    2    0  501 -0.28959619702E+02  0.12953185752E+02  0.83982733697E+03  0.84042632070E+03  0.00000000000E+00 0.  1.
</event>
<event>
 4    1  0.6888348E+001  0.2170830E+02  0.7546771E-02  0.1509388E+00
          2   -1    0    0  502    0  0.00000000000E+00  0.00000000000E+00  0.15257512100E+04  0.15257512100E+04  0.00000000000E+00 0.  1.
         -2   -1    0    0    0  501 -0.00000000000E+00 -0.00000000000E+00 -0.43633698320E+00  0.43633698320E+00  0.00000000000E+00 0. -1.
          1    1    1    2  502    0 -0.36457624733E+01 -0.21399970377E+02  0.35020374301E+03  0.35087592099E+03  0.00000000000E+00 0. -1.
         -1    1    1    2    0  501  0.36457624733E+01  0.21399970377E+02  0.11751111300E+04  0.11753116259E+04  0.00000000000E+00 0.  1.
</event>
<event>
 4    1  0.6888348E+001  0.2880791E+02  0.7546771E-02  0.1430246E+00
          2   -1    0    0  502    0  0.00000000000E+00  0.00000000000E+00  0.34992222330E+03  0.34992222330E+03  0.00000000000E+00 0. -1.
         -2   -1    0    0    0  501 -0.00000000000E+00 -0.00000000000E+00 -0.24739751733E+01  0.24739751733E+01  0.00000000000E+00 0.  1.
          1    1    1    2  502    0  0.16599392497E+02  0.23544757176E+02  0.20955689190E+03  0.21152774372E+03  0.00000000000E+00 0. -1.
         -1    1    1    2    0  501 -0.16599392497E+02 -0.23544757176E+02  0.13789135622E+03  0.14086845475E+03  0.00000000000E+00 0.  1.
</event>
<event>
 4    1  0.6888348E+001  0.2935903E+02  0.7546771E-02  0.1425249E+00
          2   -1    0    0  502    0  0.00000000000E+00  0.00000000000E+00  0.89695245628E+01  0.89695245628E+01  0.00000000000E+00 0.  1.
         -2   -1    0    0    0  501 -0.00000000000E+00 -0.00000000000E+00 -0.10553180881E+03  0.10553180881E+03  0.00000000000E+00 0. -1.
          1    1    1    2  502    0 -0.17556327512E+02  0.23531431642E+02 -0.65398375605E+02  0.71686124477E+02  0.00000000000E+00 0. -1.
         -1    1    1    2    0  501  0.17556327512E+02 -0.23531431642E+02 -0.31163908640E+02  0.42815208893E+02  0.00000000000E+00 0.  1.
</event>
<event>
 4    1  0.6888348E+001  0.2618372E+02  0.7546771E-02  0.1455985E+00
          2   -1    0    0  502    0  0.00000000000E+00  0.00000000000E+00  0.10928555387E+03  0.10928555387E+03  0.00000000000E+00 0. -1.
         -2   -1    0    0    0  501 -0.00000000000E+00 -0.00000000000E+00 -0.15167351243E+02  0.15167351243E+02  0.00000000000E+00 0.  1.
          1    1    1    2  502    0 -0.26139455517E+02 -0.15218723514E+01 -0.59152435105E+00  0.26190401510E+02  0.00000000000E+00 0.  1.
         -1    1    1    2    0  501  0.26139455517E+02  0.15218723514E+01  0.94709726979E+02  0.98262503604E+02  0.00000000000E+00 0. -1.
</event>
<event>
 4    1  0.6888348E+001  0.2148287E+02  0.7546771E-02  0.1512481E+00
          2   -1    0    0  502    0  0.00000000000E+00  0.00000000000E+00  0.11006288417E+03  0.11006288417E+03  0.00000000000E+00 0. -1.
         -2   -1    0    0    0  501 -0.00000000000E+00 -0.00000000000E+00 -0.51928730555E+01  0.51928730555E+01  0.00000000000E+00 0.  1.
          1    1    1    2  502    0  0.48868885925E+01  0.20919660014E+02  0.77719914034E+02  0.80634353056E+02  0.00000000000E+00 0. -1.
         -1    1    1    2    0  501 -0.48868885925E+01 -0.20919660014E+02  0.27150097078E+02  0.34621404168E+02  0.00000000000E+00 0.  1.
</event>
<event>
 4    1  0.6888348E+001  0.3327721E+02  0.7546771E-02  0.1393097E+00
          2   -1    0    0  502    0  0.00000000000E+00  0.00000000000E+00  0.97146488777E+03  0.97146488777E+03  0.00000000000E+00 0. -1.
         -2   -1    0    0    0  501 -0.00000000000E+00 -0.00000000000E+00 -0.11406053988E+01  0.11406053988E+01  0.00000000000E+00 0.  1.
          1    1    1    2  502    0  0.12146307272E+02 -0.30981279813E+02  0.49725881894E+03  0.49837105202E+03  0.00000000000E+00 0. -1.
         -1    1    1    2    0  501 -0.12146307272E+02  0.30981279813E+02  0.47306546343E+03  0.47423444115E+03  0.00000000000E+00 0.  1.
</event>
<event>
 4    1  0.6888348E+001  0.3108415E+02  0.7546771E-02  0.1410403E+00
          2   -1    0    0  502    0  0.00000000000E+00  0.00000000000E+00  0.53462540310E+03  0.53462540310E+03  0.00000000000E+00 0. -1.
         -2   -1    0    0    0  501 -0.00000000000E+00 -0.00000000000E+00 -0.26730920441E+01  0.26730920441E+01  0.00000000000E+00 0.  1.
          1    1    1    2  502    0 -0.22021945143E+02 -0.21937598111E+02  0.41886909956E+03  0.42002088858E+03  0.00000000000E+00 0. -1.
         -1    1    1    2    0  501  0.22021945143E+02  0.21937598111E+02  0.11308321149E+03  0.11727760656E+03  0.00000000000E+00 0.  1.
</event>
<event>
 4    1  0.6888348E+001  0.3460519E+02  0.7546771E-02  0.1383360E+00
          2   -1    0    0  502    0  0.00000000000E+00  0.00000000000E+00  0.97403034998E+03  0.97403034998E+03  0.00000000000E+00 0.  1.
         -2   -1    0    0    0  501 -0.00000000000E+00 -0.00000000000E+00 -0.13042879047E+01  0.13042879047E+01  0.00000000000E+00 0. -1.
          1    1    1    2  502    0 -0.32387293282E+02  0.12189427185E+02  0.36954609554E+03  0.37116281553E+03  0.00000000000E+00 0. -1.
         -1    1    1    2    0  501  0.32387293282E+02 -0.12189427185E+02  0.60317996653E+03  0.60417182235E+03  0.00000000000E+00 0.  1.
</event>
<event>
 4    1  0.6888348E+001  0.3367497E+02  0.7546771E-02  0.1390126E+00
          2   -1    0    0  502    0  0.00000000000E+00  0.00000000000E+00  0.45659403112E+03  0.45659403112E+03  0.00000000000E+00 0. -1.
         -2   -1    0    0    0  501 -0.00000000000E+00 -0.00000000000E+00 -0.25965511069E+02  0.25965511069E+02  0.00000000000E+00 0.  1.
          1    1    1    2  502    0 -0.10777194185E+02 -0.31903847590E+02  0.44476478891E+03  0.44603780205E+03  0.00000000000E+00 0. -1.
         -1    1    1    2    0  501  0.10777194185E+02  0.31903847590E+02 -0.14136268857E+02  0.36521740139E+02  0.00000000000E+00 0.  1.
</event>
<event>
 4    1  0.6888348E+001  0.2006246E+02  0.7546771E-02  0.1533083E+00
          2   -1    0    0  502    0  0.00000000000E+00  0.00000000000E+00  0.32385833609E+02  0.32385833609E+02  0.00000000000E+00 0. -1.
         -2   -1    0    0    0  501 -0.00000000000E+00 -0.00000000000E+00 -0.56284392911E+02  0.56284392911E+02  0.00000000000E+00 0.  1.
          1    1    1    2  502    0  0.10983647747E+02  0.16788735013E+02  0.27186014446E+02  0.33787298244E+02  0.00000000000E+00 0. -1.
         -1    1    1    2    0  501 -0.10983647747E+02 -0.16788735013E+02 -0.51084573748E+02  0.54882928276E+02  0.00000000000E+00 0.  1.
</event>
<event>
 4    1  0.6888348E+001  0.3538872E+02  0.7546771E-02  0.1377851E+00
          2   -1    0    0  502    0  0.00000000000E+00  0.00000000000E+00  0.24534006820E+03  0.24534006820E+03  0.00000000000E+00 0. -1.
         -2   -1    0    0    0  501 -0.00000000000E+00 -0.00000000000E+00 -0.53156603110E+01  0.53156603110E+01  0.00000000000E+00 0.  1.
          1    1    1    2  502    0 -0.27472870950E+02  0.22307015982E+02  0.95038795690E+02  0.10141367899E+03  0.00000000000E+00 0.  1.
         -1    1    1    2    0  501  0.27472870950E+02 -0.22307015982E+02  0.14498561220E+03  0.14924204952E+03  0.00000000000E+00 0. -1.
</event>
<event>
 4    1  0.6888348E+001  0.3296723E+02  0.7546771E-02  0.1395446E+00
          2   -1    0    0  502    0  0.00000000000E+00  0.00000000000E+00  0.13010757671E+03  0.13010757671E+03  0.00000000000E+00 0. -1.
         -2   -1    0    0    0  501 -0.00000000000E+00 -0.00000000000E+00 -0.83810018348E+01  0.83810018348E+01  0.00000000000E+00 0.  1.
          1    1    1    2  502    0 -0.32524951317E+02  0.53819636654E+01  0.56888036446E+02  0.65750183891E+02  0.00000000000E+00 0. -1.
         -1    1    1    2    0  501  0.32524951317E+02 -0.53819636654E+01  0.64838538429E+02  0.72738394653E+02  0.00000000000E+00 0.  1.
</event>
<event>
 4    1  0.6888348E+001  0.3859014E+02  0.7546771E-02  0.1356952E+00
          2   -1    0    0  502    0  0.00000000000E+00  0.00000000000E+00  0.30976997940E+04  0.30976997940E+04  0.00000000000E+00 0.  1.
         -2   -1    0    0    0  501 -0.00000000000E+00 -0.00000000000E+00 -0.52303677513E+00  0.52303677513E+00  0.00000000000E+00 0. -1.
          1    1    1    2  502    0  0.32530759437E+02 -0.20759304137E+02  0.11080819623E+04  0.11087537302E+04  0.00000000000E+00 0. -1.
         -1    1    1    2    0  501 -0.32530759437E+02  0.20759304137E+02  0.19890947949E+04  0.19894691006E+04  0.00000000000E+00 0.  1.
</event>
<event>
 4    1  0.6888348E+001  0.2776609E+02  0.7546771E-02  0.1440061E+00
          2   -1    0    0  502    0  0.00000000000E+00  0.00000000000E+00  0.52648965736E+02  0.52648965736E+02  0.00000000000E+00 0.  1.
         -2   -1    0    0    0  501 -0.00000000000E+00 -0.00000000000E+00 -0.14673141561E+02  0.14673141561E+02  0.00000000000E+00 0. -1.
          1    1    1    2  502    0 -0.19178824836E+02 -0.20078056368E+02  0.20505413235E+02  0.34517063050E+02  0.00000000000E+00 0.  1.
         -1    1    1    2    0  501  0.19178824836E+02  0.20078056368E+02  0.17470410940E+02  0.32805044247E+02  0.00000000000E+00 0. -1.
</event>
<event>
 4    1  0.6888348E+001  0.2030864E+02  0.7546771E-02  0.1529369E+00
          2   -1    0    0  502    0  0.00000000000E+00  0.00000000000E+00  0.57186209618E+01  0.57186209618E+01  0.00000000000E+00 0. -1.
         -2   -1    0    0    0  501 -0.00000000000E+00 -0.00000000000E+00 -0.79152332236E+02  0.79152332236E+02  0.00000000000E+00 0.  1.
          1    1    1    2  502    0  0.20180814841E+02  0.22750233164E+01 -0.24070339474E+02  0.31493209762E+02  0.00000000000E+00 0. -1.
         -1    1    1    2    0  501 -0.20180814841E+02 -0.22750233164E+01 -0.49363371800E+02  0.53377743435E+02  0.00000000000E+00 0.  1.
</event>
<event>
 4    1  0.6888348E+001  0.2552293E+02  0.7546771E-02  0.1463038E+00
          2   -1    0    0  502    0  0.00000000000E+00  0.00000000000E+00  0.13576460974E+04  0.13576460974E+04  0.00000000000E+00 0.  1.
         -2   -1    0    0    0  501 -0.00000000000E+00 -0.00000000000E+00 -0.72596692651E+00  0.72596692651E+00  0.00000000000E+00 0. -1.
          1    1    1    2  502    0 -0.43527676675E+01  0.25149024979E+02  0.10739461841E+04  0.10742494246E+04  0.00000000000E+00 0. -1.
         -1    1    1    2    0  501  0.43527676675E+01 -0.25149024979E+02  0.28297394639E+03  0.28412263968E+03  0.00000000000E+00 0.  1.
</event>
<event>
 4    1  0.6888348E+001  0.2253754E+02  0.7546771E-02  0.1498388E+00
          2   -1    0    0  502    0  0.00000000000E+00  0.00000000000E+00  0.29919851955E+04  0.29919851955E+04  0.00000000000E+00 0. -1.
         -2   -1    0    0    0  501 -0.00000000000E+00 -0.00000000000E+00 -0.17022818869E+00  0.17022818869E+00  0.00000000000E+00 0.  1.
          1    1    1    2  502    0  0.45296041709E+00 -0.22532990022E+02  0.14180491587E+04  0.14182282459E+04  0.00000000000E+00 0.  1.
         -1    1    1    2    0  501 -0.45296041709E+00  0.22532990022E+02  0.15737658086E+04  0.15739271778E+04  0.00000000000E+00 0. -1.
</event>
<event>
 4    1  0.6888348E+001  0.2106951E+02  0.7546771E-02  0.1518275E+00
          2   -1    0    0  502    0  0.00000000000E+00  0.00000000000E+00  0.41792278819E+02  0.41792278819E+02  0.00000000000E+00 0. -1.
         -2   -1    0    0    0  501 -0.00000000000E+00 -0.00000000000E+00 -0.10622257858E+02  0.10622257858E+02  0.00000000000E+00 0.  1.
          1    1    1    2  502    0 -0.19337912771E+02 -0.83647781540E+01  0.15506557847E+02  0.26160613910E+02  0.00000000000E+00 0. -1.
         -1    1    1    2    0  501  0.19337912771E+02  0.83647781540E+01  0.15663463114E+02  0.26253922767E+02  0.00000000000E+00 0.  1.
</event>
<event>
 4    1  0.6888348E+001  0.2312726E+02  0.7546771E-02  0.1490906E+00
          2   -1    0    0  502    0  0.00000000000E+00  0.00000000000E+00  0.64472150947E+01  0.64472150947E+01  0.00000000000E+00 0. -1.
         -2   -1    0    0    0  501 -0.00000000000E+00 -0.00000000000E+00 -0.30453277033E+03  0.30453277033E+03  0.00000000000E+00 0.  1.
          1    1    1    2  502    0  0.11997209209E+01  0.23096121715E+02 -0.16412639682E+02  0.28359212082E+02  0.00000000000E+00 0. -1.
         -1    1    1    2    0  501 -0.11997209209E+01 -0.23096121715E+02 -0.28167291555E+03  0.28262077334E+03  0.00000000000E+00 0.  1.
</event>
<event>
 4    1  0.6888348E+001  0.2353629E+02  0.7546771E-02  0.1485871E+00
          2   -1    0    0  502    0  0.00000000000E+00  0.00000000000E+00  0.62499139238E+03  0.62499139238E+03  0.00000000000E+00 0. -1.
         -2   -1    0    0    0  501 -0.00000000000E+00 -0.00000000000E+00 -0.10057590792E+01  0.10057590792E+01  0.00000000000E+00 0.  1.
          1    1    1    2  502    0 -0.20959733570E+02 -0.10707319001E+02  0.20414143328E+03  0.20549375147E+03  0.00000000000E+00 0.  1.
         -1    1    1    2    0  501  0.20959733570E+02  0.10707319001E+02  0.41984420002E+03  0.42050339999E+03  0.00000000000E+00 0. -1.
</event>
<event>
 4    1  0.6888348E+001  0.2081644E+02  0.7546771E-02  0.1521902E+00
          2   -1    0    0  502    0  0.00000000000E+00  0.00000000000E+00  0.76091319465E+03  0.76091319465E+03  0.00000000000E+00 0.  1.
         -2   -1    0    0    0  501 -0.00000000000E+00 -0.00000000000E+00 -0.76944707871E+00  0.76944707871E+00  0.00000000000E+00 0. -1.
          1    1    1    2  502    0 -0.19949262286E+02 -0.59456963461E+01  0.18592311673E+03  0.18708481955E+03  0.00000000000E+00 0. -1.
         -1    1    1    2    0  501  0.19949262286E+02  0.59456963461E+01  0.57422063084E+03  0.57459782218E+03  0.00000000000E+00 0.  1.
</event>
<event>
 4    1  0.6888348E+001  0.2061388E+02  0.7546771E-02  0.1524850E+00
          2   -1    0    0  502    0  0.00000000000E+00  0.00000000000E+00  0.18718222130E+02  0.18718222130E+02  0.00000000000E+00 0. -1.
         -2   -1    0    0    0  501 -0.00000000000E+00 -0.00000000000E+00 -0.47509225239E+02  0.47509225239E+02  0.00000000000E+00 0.  1.
          1    1    1    2  502    0  0.20613575815E+02 -0.11209613616E+00  0.95328264129E+01  0.22711381570E+02  0.00000000000E+00 0. -1.
         -1    1    1    2    0  501 -0.20613575815E+02  0.11209613616E+00 -0.38323829522E+02  0.43516065799E+02  0.00000000000E+00 0.  1.
</event>
<event>
 4    1  0.6888348E+001  0.3929413E+02  0.7546771E-02  0.1352673E+00
          2   -1    0    0  502    0  0.00000000000E+00  0.00000000000E+00  0.30893246603E+02  0.30893246603E+02  0.00000000000E+00 0.  1.
         -2   -1    0    0    0  501 -0.00000000000E+00 -0.00000000000E+00 -0.50472867679E+02  0.50472867679E+02  0.00000000000E+00 0. -1.
          1    1    1    2  502    0  0.25400289848E+02 -0.29980897400E+02 -0.57675411497E+01  0.39715154087E+02  0.00000000000E+00 0.  1.
         -1    1    1    2    0  501 -0.25400289848E+02  0.29980897400E+02 -0.13812079926E+02  0.41650960194E+02  0.00000000000E+00 0. -1.
</event>
<event>
 4    1  0.6888348E+001  0.2318488E+02  0.7546771E-02  0.1490190E+00
          2   -1    0    0  502    0  0.00000000000E+00  0.00000000000E+00  0.24456384099E+04  0.24456384099E+04  0.00000000000E+00 0.  1.
         -2   -1    0    0    0  501 -0.00000000000E+00 -0.00000000000E+00 -0.22407152200E+00  0.22407152200E+00  0.00000000000E+00 0. -1.
          1    1    1    2  502    0  0.22923550380E+02 -0.34712671643E+01  0.13916574717E+04  0.13918505873E+04  0.00000000000E+00 0. -1.
         -1    1    1    2    0  501 -0.22923550380E+02  0.34712671643E+01  0.10537568666E+04  0.10540118941E+04  0.00000000000E+00 0.  1.
</event>
<event>
 4    1  0.6888348E+001  0.4879981E+02  0.7546771E-02  0.1303462E+00
          2   -1    0    0  502    0  0.00000000000E+00  0.00000000000E+00  0.49929898128E+03  0.49929898128E+03  0.00000000000E+00 0. -1.
         -2   -1    0    0    0  501 -0.00000000000E+00 -0.00000000000E+00 -0.48920078191E+01  0.48920078191E+01  0.00000000000E+00 0.  1.
          1    1    1    2  502    0  0.33270858737E+02  0.35699746069E+02  0.28709207549E+03  0.29121003025E+03  0.00000000000E+00 0. -1.
         -1    1    1    2    0  501 -0.33270858737E+02 -0.35699746069E+02  0.20731489797E+03  0.21298095885E+03  0.00000000000E+00 0.  1.
</event>
<event>
 4    1  0.6888348E+001  0.2117490E+02  0.7546771E-02  0.1516782E+00
          2   -1    0    0  502    0  0.00000000000E+00  0.00000000000E+00  0.21130928973E+03  0.21130928973E+03  0.00000000000E+00 0.  1.
         -2   -1    0    0    0  501 -0.00000000000E+00 -0.00000000000E+00 -0.23521544814E+01  0.23521544814E+01  0.00000000000E+00 0. -1.
          1    1    1    2  502    0  0.37365395718E+01 -0.20842615509E+02  0.71053599228E+02  0.74141690785E+02  0.00000000000E+00 0. -1.
         -1    1    1    2    0  501 -0.37365395718E+01  0.20842615509E+02  0.13790353602E+03  0.13951975343E+03  0.00000000000E+00 0.  1.
</event>
<event>
 4    1  0.6888348E+001  0.4529482E+02  0.7546771E-02  0.1319972E+00
          2   -1    0    0  502    0  0.00000000000E+00  0.00000000000E+00  0.31737275501E+03  0.31737275501E+03  0.00000000000E+00 0. -1.
         -2   -1    0    0    0  501 -0.00000000000E+00 -0.00000000000E+00 -0.65661777612E+01  0.65661777612E+01  0.00000000000E+00 0.  1.
          1    1    1    2  502    0  0.42396507250E+02  0.15942312481E+02  0.13523702917E+03  0.14262073907E+03  0.00000000000E+00 0.  1.
         -1    1    1    2    0  501 -0.42396507250E+02 -0.15942312481E+02  0.17556954807E+03  0.18131819370E+03  0.00000000000E+00 0. -1.
</event>
<event>
 4    1  0.6888348E+001  0.2854292E+02  0.7546771E-02  0.1432696E+00
          2   -1    0    0  502    0  0.00000000000E+00  0.00000000000E+00  0.14804274989E+03  0.14804274989E+03  0.00000000000E+00 0. -1.
         -2   -1    0    0    0  501 -0.00000000000E+00 -0.00000000000E+00 -0.80851370517E+01  0.80851370517E+01  0.00000000000E+00 0.  1.
          1    1    1    2  502    0  0.15124594757E+02  0.24206293203E+02  0.25863856566E+02  0.38518009731E+02  0.00000000000E+00 0.  1.
         -1    1    1    2    0  501 -0.15124594757E+02 -0.24206293203E+02  0.11409375628E+03  0.11760987721E+03  0.00000000000E+00 0. -1.
</event>
<event>
 4    1  0.6888348E+001  0.2133700E+02  0.7546771E-02  0.1514507E+00
          2   -1    0    0  502    0  0.00000000000E+00  0.00000000000E+00  0.25316981961E+02  0.25316981961E+02  0.00000000000E+00 0.  1.
         -2   -1    0    0    0  501 -0.00000000000E+00 -0.00000000000E+00 -0.22028678687E+02  0.22028678687E+02  0.00000000000E+00 0. -1.
          1    1    1    2  502    0 -0.96080602406E+01 -0.19051322356E+02 -0.85012145632E+01  0.22968203111E+02  0.00000000000E+00 0. -1.
         -1    1    1    2    0  501  0.96080602406E+01  0.19051322356E+02  0.11789517837E+02  0.24377457537E+02  0.00000000000E+00 0.  1.
</event>
<event>
 4    1  0.6888348E+001  0.2268896E+02  0.7546771E-02  0.1496441E+00
          2   -1    0    0  502    0  0.00000000000E+00  0.00000000000E+00  0.25083165903E+03  0.25083165903E+03  0.00000000000E+00 0. -1.
         -2   -1    0    0    0  501 -0.00000000000E+00 -0.00000000000E+00 -0.29238263562E+01  0.29238263562E+01  0.00000000000E+00 0.  1.
          1    1    1    2  502    0 -0.14884136069E+02  0.17124581598E+02  0.19322356369E+03  0.19455110991E+03  0.00000000000E+00 0. -1.
         -1    1    1    2    0  501  0.14884136069E+02 -0.17124581598E+02  0.54684268980E+02  0.59204375475E+02  0.00000000000E+00 0.  1.
</event>
<event>
 4    1  0.6888348E+001  0.2720445E+02  0.7546771E-02  0.1445565E+00
          2   -1    0    0  502    0  0.00000000000E+00  0.00000000000E+00  0.74645464298E+02  0.74645464298E+02  0.00000000000E+00 0. -1.
         -2   -1    0    0    0  501 -0.00000000000E+00 -0.00000000000E+00 -0.10918914480E+02  0.10918914480E+02  0.00000000000E+00 0.  1.
          1    1    1    2  502    0  0.93258126540E+01  0.25556041205E+02  0.18888433948E+02  0.33118800714E+02  0.00000000000E+00 0.  1.
         -1    1    1    2    0  501 -0.93258126540E+01 -0.25556041205E+02  0.44838115870E+02  0.52445578064E+02  0.00000000000E+00 0. -1.
</event>
<event>
 4    1  0.6888348E+001  0.2060570E+02  0.7546771E-02  0.1524970E+00
          2   -1    0    0  502    0  0.00000000000E+00  0.00000000000E+00  0.17370287446E+02  0.17370287446E+02  0.00000000000E+00 0. -1.
         -2   -1    0    0    0  501 -0.00000000000E+00 -0.00000000000E+00 -0.39360494501E+02  0.39360494501E+02  0.00000000000E+00 0.  1.
          1    1    1    2  502    0 -0.19316269591E+02  0.71747232366E+01 -0.28457166880E+02  0.35134104105E+02  0.00000000000E+00 0.  1.
         -1    1    1    2    0  501  0.19316269591E+02 -0.71747232366E+01  0.64669598253E+01  0.21596677842E+02  0.00000000000E+00 0. -1.
</event>
<event>
 4    1  0.6888348E+001  0.2146830E+02  0.7546771E-02  0.1512683E+00
          2   -1    0    0  502    0  0.00000000000E+00  0.00000000000E+00  0.33206435939E+02  0.33206435939E+02  0.00000000000E+00 0. -1.
         -2   -1    0    0    0  501 -0.00000000000E+00 -0.00000000000E+00 -0.13922620047E+02  0.13922620047E+02  0.00000000000E+00 0.  1.
          1    1    1    2  502    0  0.19791607790E+02 -0.83174546209E+01  0.10953745264E+02  0.24101293027E+02  0.00000000000E+00 0.  1.
         -1    1    1    2    0  501 -0.19791607790E+02  0.83174546209E+01  0.83300706283E+01  0.23027762960E+02  0.00000000000E+00 0. -1.
</event>
<event>
 4    1  0.6888348E+001  0.2207551E+02  0.7546771E-02  0.1504445E+00
          2   -1    0    0  502    0  0.00000000000E+00  0.00000000000E+00  0.47581701568E+02  0.47581701568E+02  0.00000000000E+00 0. -1.
         -2   -1    0    0    0  501 -0.00000000000E+00 -0.00000000000E+00 -0.10413198633E+02  0.10413198633E+02  0.00000000000E+00 0.  1.
          1    1    1    2  502    0  0.49329350629E+01 -0.21517298193E+02  0.22303195329E+02  0.31380893737E+02  0.00000000000E+00 0. -1.
         -1    1    1    2    0  501 -0.49329350629E+01  0.21517298193E+02  0.14865307606E+02  0.26614006464E+02  0.00000000000E+00 0.  1.
</event>
<event>
 4    1  0.6888348E+001  0.2542387E+02  0.7546771E-02  0.1464117E+00
          2   -1    0    0  502    0  0.00000000000E+00  0.00000000000E+00  0.41991929624E+01  0.41991929624E+01  0.00000000000E+00 0.  1.
         -2   -1    0    0    0  501 -0.00000000000E+00 -0.00000000000E+00 -0.15416464299E+03  0.15416464299E+03  0.00000000000E+00 0. -1.
          1    1    1    2  502    0  0.16572934176E+01  0.25369798392E+02 -0.78085129706E+02  0.82119795257E+02  0.00000000000E+00 0.  1.
         -1    1    1    2    0  501 -0.16572934176E+01 -0.25369798392E+02 -0.71880320319E+02  0.76244040692E+02  0.00000000000E+00 0. -1.
</event>
<event>
 4    1  0.6888348E+001  0.3693011E+02  0.7546771E-02  0.1367479E+00
          2   -1    0    0  502    0  0.00000000000E+00  0.00000000000E+00  0.20572702273E+03  0.20572702273E+03  0.00000000000E+00 0.  1.
         -2   -1    0    0    0  501 -0.00000000000E+00 -0.00000000000E+00 -0.66812640222E+01  0.66812640222E+01  0.00000000000E+00 0. -1.
          1    1    1    2  502    0 -0.29699726594E+02  0.21949013510E+02  0.90159657494E+02  0.97429958397E+02  0.00000000000E+00 0. -1.
         -1    1    1    2    0  501  0.29699726594E+02 -0.21949013510E+02  0.10888610121E+03  0.11497832836E+03  0.00000000000E+00 0.  1.
</event>
<event>
 4    1  0.6888348E+001  0.2027803E+02  0.7546771E-02  0.1529827E+00
          2   -1    0    0  502    0  0.00000000000E+00  0.00000000000E+00  0.96539430127E+03  0.96539430127E+03  0.00000000000E+00 0. -1.
         -2   -1    0    0    0  501 -0.00000000000E+00 -0.00000000000E+00 -0.53910063394E+00  0.53910063394E+00  0.00000000000E+00 0.  1.
          1    1    1    2  502    0  0.10317928980E+02  0.17456767229E+02  0.26115213182E+03  0.26193822618E+03  0.00000000000E+00 0.  1.
         -1    1    1    2    0  501 -0.10317928980E+02 -0.17456767229E+02  0.70370306881E+03  0.70399517572E+03  0.00000000000E+00 0. -1.
</event>
<event>
 4    1  0.6888348E+001  0.3031388E+02  0.7546771E-02  0.1416888E+00
          2   -1    0    0  502    0  0.00000000000E+00  0.00000000000E+00  0.23307598439E+04  0.23307598439E+04  0.00000000000E+00 0.  1.
         -2   -1    0    0    0  501 -0.00000000000E+00 -0.00000000000E+00 -0.20443349789E+01  0.20443349789E+01  0.00000000000E+00 0. -1.
          1    1    1    2  502    0 -0.46233760726E+01  0.29959237206E+02  0.22122671948E+04  0.22124748750E+04  0.00000000000E+00 0.  1.
         -1    1    1    2    0  501  0.46233760726E+01 -0.29959237206E+02  0.11644831410E+03  0.12032930382E+03  0.00000000000E+00 0. -1.
</event>
<event>
 4    1  0.6888348E+001  0.2223902E+02  0.7546771E-02  0.1502281E+00
          2   -1    0    0  502    0  0.00000000000E+00  0.00000000000E+00  0.10056439030E+04  0.10056439030E+04  0.00000000000E+00 0.  1.
         -2   -1    0    0    0  501 -0.00000000000E+00 -0.00000000000E+00 -0.49686443450E+00  0.49686443450E+00  0.00000000000E+00 0. -1.
          1    1    1    2  502    0  0.14928568416E+02  0.16483686544E+02  0.45177591332E+03  0.45232294871E+03  0.00000000000E+00 0. -1.
         -1    1    1    2    0  501 -0.14928568416E+02 -0.16483686544E+02  0.55337112525E+03  0.55381781872E+03  0.00000000000E+00 0.  1.
</event>
<event>
 4    1  0.6888348E+001  0.3036486E+02  0.7546771E-02  0.1416452E+00
          2   -1    0    0  502    0  0.00000000000E+00  0.00000000000E+00  0.14030038360E+02  0.14030038360E+02  0.00000000000E+00 0. -1.
         -2   -1    0    0    0  501 -0.00000000000E+00 -0.00000000000E+00 -0.72446858897E+02  0.72446858897E+02  0.00000000000E+00 0.  1.
          1    1    1    2  502    0 -0.28004297107E+02  0.11738139799E+02 -0.16030867493E+02  0.34336763024E+02  0.00000000000E+00 0. -1.
         -1    1    1    2    0  501  0.28004297107E+02 -0.11738139799E+02 -0.42385953043E+02  0.52140134233E+02  0.00000000000E+00 0.  1.
</event>
<event>
 4    1  0.6888348E+001  0.2066812E+02  0.7546771E-02  0.1524056E+00
          2   -1    0    0  502    0  0.00000000000E+00  0.00000000000E+00  0.35327397599E+01  0.35327397599E+01  0.00000000000E+00 0.  1.
         -2   -1    0    0    0  501 -0.00000000000E+00 -0.00000000000E+00 -0.13444835347E+03  0.13444835347E+03  0.00000000000E+00 0. -1.
          1    1    1    2  502    0 -0.88229450981E+01 -0.18690281603E+02 -0.87344000004E+02  0.89756032240E+02  0.00000000000E+00 0.  1.
         -1    1    1    2    0  501  0.88229450981E+01  0.18690281603E+02 -0.43571613706E+02  0.48225060991E+02  0.00000000000E+00 0. -1.
</event>
<event>
 4    1  0.6888348E+001  0.2506336E+02  0.7546771E-02  0.1468096E+00
          2   -1    0    0  502    0  0.00000000000E+00  0.00000000000E+00  0.13254262814E+03  0.13254262814E+03  0.00000000000E+00 0.  1.
         -2   -1    0    0    0  501 -0.00000000000E+00 -0.00000000000E+00 -0.47549937323E+01  0.47549937323E+01  0.00000000000E+00 0. -1.
          1    1    1    2  502    0 -0.11565144143E+02  0.22235541566E+02  0.59961913833E+02  0.64989252791E+02  0.00000000000E+00 0. -1.
         -1    1    1    2    0  501  0.11565144143E+02 -0.22235541566E+02  0.67825720574E+02  0.72308369081E+02  0.00000000000E+00 0.  1.
</event>
<event>
 4    1  0.6888348E+001  0.5146289E+02  0.7546771E-02  0.1291951E+00
          2   -1    0    0  502    0  0.00000000000E+00  0.00000000000E+00  0.61280348146E+01  0.61280348146E+01  0.00000000000E+00 0. -1.
         -2   -1    0    0    0  501 -0.00000000000E+00 -0.00000000000E+00 -0.80185849228E+03  0.80185849228E+03  0.00000000000E+00 0.  1.
          1    1    1    2  502    0 -0.22312582381E+02  0.46374324734E+02 -0.12355886179E+03  0.13384775551E+03  0.00000000000E+00 0. -1.
         -1    1    1    2    0  501  0.22312582381E+02 -0.46374324734E+02 -0.67217159567E+03  0.67413877158E+03  0.00000000000E+00 0.  1.
</event>
<event>
 4    1  0.6888348E+001  0.3191001E+02  0.7546771E-02  0.1403694E+00
          2   -1    0    0  502    0  0.00000000000E+00  0.00000000000E+00  0.34729981169E+01  0.34729981169E+01  0.00000000000E+00 0. -1.
         -2   -1    0    0    0  501 -0.00000000000E+00 -0.00000000000E+00 -0.29342283355E+03  0.29342283355E+03  0.00000000000E+00 0.  1.
          1    1    1    2  502    0  0.94551486853E+01  0.30477023697E+02 -0.14079451891E+03  0.14436531912E+03  0.00000000000E+00 0. -1.
         -1    1    1    2    0  501 -0.94551486853E+01 -0.30477023697E+02 -0.14915531653E+03  0.15253051255E+03  0.00000000000E+00 0.  1.
</event>
<event>
 4    1  0.6888348E+001  0.2001211E+02  0.7546771E-02  0.1533851E+00
          2   -1    0    0  502    0  0.00000000000E+00  0.00000000000E+00  0.10197460341E+03  0.10197460341E+03  0.00000000000E+00 0. -1.
         -2   -1    0    0    0  501 -0.00000000000E+00 -0.00000000000E+00 -0.57765704417E+01  0.57765704417E+01  0.00000000000E+00 0.  1.
          1    1    1    2  502    0  0.10875664379E+02  0.16798939601E+02  0.78582013716E+02  0.81090180214E+02  0.00000000000E+00 0. -1.
         -1    1    1    2    0  501 -0.10875664379E+02 -0.16798939601E+02  0.17616019249E+02  0.26660993635E+02  0.00000000000E+00 0.  1.
</event>
<event>
 4    1  0.6888348E+001  0.2589811E+02  0.7546771E-02  0.1459002E+00
          2   -1    0    0  502    0  0.00000000000E+00  0.00000000000E+00  0.14373453010E+03  0.14373453010E+03  0.00000000000E+00 0.  1.
         -2   -1    0    0    0  501 -0.00000000000E+00 -0.00000000000E+00 -0.72605516578E+01  0.72605516578E+01  0.00000000000E+00 0. -1.
          1    1    1    2  502    0 -0.23273417294E+02 -0.11360465076E+02  0.23108384776E+02  0.34708926320E+02  0.00000000000E+00 0.  1.
         -1    1    1    2    0  501  0.23273417294E+02  0.11360465076E+02  0.11336559367E+03  0.11628615544E+03  0.00000000000E+00 0. -1.
</event>
<event>
 4    1  0.6888348E+001  0.2630321E+02  0.7546771E-02  0.1454736E+00
          2   -1    0    0  502    0  0.00000000000E+00  0.00000000000E+00  0.51001355035E+03  0.51001355035E+03  0.00000000000E+00 0. -1.
         -2   -1    0    0    0  501 -0.00000000000E+00 -0.00000000000E+00 -0.14546410635E+01  0.14546410635E+01  0.00000000000E+00 0.  1.
          1    1    1    2  502    0  0.22865882691E+02 -0.13000392980E+02  0.32068827264E+03  0.32176517372E+03  0.00000000000E+00 0. -1.
         -1    1    1    2    0  501 -0.22865882691E+02  0.13000392980E+02  0.18787063664E+03  0.18970301769E+03  0.00000000000E+00 0.  1.
</event>
<event>
 4    1  0.6888348E+001  0.2674086E+02  0.7546771E-02  0.1450229E+00
          2   -1    0    0  502    0  0.00000000000E+00  0.00000000000E+00  0.10856956491E+04  0.10856956491E+04  0.00000000000E+00 0. -1.
         -2   -1    0    0    0  501 -0.00000000000E+00 -0.00000000000E+00 -0.12020639663E+01  0.12020639663E+01  0.00000000000E+00 0.  1.
          1    1    1    2  502    0 -0.22533395149E+02 -0.14398598987E+02  0.17684757896E+03  0.17885787580E+03  0.00000000000E+00 0.  1.
         -1    1    1    2    0  501  0.22533395149E+02  0.14398598987E+02  0.90764600617E+03  0.90803983727E+03  0.00000000000E+00 0. -1.
</event>
<event>
 4    1  0.6888348E+001  0.2250001E+02  0.7546771E-02  0.1498874E+00
          2   -1    0    0  502    0  0.00000000000E+00  0.00000000000E+00  0.35686226268E+03  0.35686226268E+03  0.00000000000E+00 0.  1.
         -2   -1    0    0    0  501 -0.00000000000E+00 -0.00000000000E+00 -0.16480543638E+01  0.16480543638E+01  0.00000000000E+00 0. -1.
          1    1    1    2  502    0 -0.19355759472E+02  0.11471915353E+02  0.11072351437E+03  0.11298648991E+03  0.00000000000E+00 0.  1.
         -1    1    1    2    0  501  0.19355759472E+02 -0.11471915353E+02  0.24449069395E+03  0.24552382714E+03  0.00000000000E+00 0. -1.
</event>
<event>
 4    1  0.6888348E+001  0.2509729E+02  0.7546771E-02  0.1467718E+00
          2   -1    0    0  502    0  0.00000000000E+00  0.00000000000E+00  0.16448562096E+04  0.16448562096E+04  0.00000000000E+00 0.  1.
         -2   -1    0    0    0  501 -0.00000000000E+00 -0.00000000000E+00 -0.40705030688E+00  0.40705030688E+00  0.00000000000E+00 0. -1.
          1    1    1    2  502    0  0.16623702189E+02 -0.18802304281E+02  0.10224511419E+04  0.10227591172E+04  0.00000000000E+00 0.  1.
         -1    1    1    2    0  501 -0.16623702189E+02  0.18802304281E+02  0.62199801734E+03  0.62250414272E+03  0.00000000000E+00 0. -1.
</event>
<event>
 4    1  0.6888348E+001  0.2390063E+02  0.7546771E-02  0.1481488E+00
          2   -1    0    0  502    0  0.00000000000E+00  0.00000000000E+00  0.35566491047E+03  0.35566491047E+03  0.00000000000E+00 0. -1.
         -2   -1    0    0    0  501 -0.00000000000E+00 -0.00000000000E+00 -0.16079427810E+01  0.16079427810E+01  0.00000000000E+00 0.  1.
          1    1    1    2  502    0 -0.10104674902E+02  0.21659541628E+02  0.17101243050E+03  0.17267452500E+03  0.00000000000E+00 0.  1.
         -1    1    1    2    0  501  0.10104674902E+02 -0.21659541628E+02  0.18304453719E+03  0.18459832825E+03  0.00000000000E+00 0. -1.
</event>
<event>
 4    1  0.6888348E+001  0.2999693E+02  0.7546771E-02  0.1419623E+00
          2   -1    0    0  502    0  0.00000000000E+00  0.00000000000E+00  0.55180890137E+03  0.55180890137E+03  0.00000000000E+00 0.  1.
         -2   -1    0    0    0  501 -0.00000000000E+00 -0.00000000000E+00 -0.16416936494E+01  0.16416936494E+01  0.00000000000E+00 0. -1.
          1    1    1    2  502    0  0.26917781507E+02 -0.13238156973E+02  0.25240306879E+03  0.25417931642E+03  0.00000000000E+00 0. -1.
         -1    1    1    2    0  501 -0.26917781507E+02  0.13238156973E+02  0.29776413893E+03  0.29927127860E+03  0.00000000000E+00 0.  1.
</event>
<event>
 4    1  0.6888348E+001  0.3414495E+02  0.7546771E-02  0.1386676E+00
          2   -1    0    0  502    0  0.00000000000E+00  0.00000000000E+00  0.91950822096E+01  0.91950822096E+01  0.00000000000E+00 0. -1.
         -2   -1    0    0    0  501 -0.00000000000E+00 -0.00000000000E+00 -0.12867505523E+03  0.12867505523E+03  0.00000000000E+00 0.  1.
          1    1    1    2  502    0  0.23887185119E+02 -0.24398367144E+02 -0.51404412731E+02  0.61711356980E+02  0.00000000000E+00 0. -1.
         -1    1    1    2    0  501 -0.23887185119E+02  0.24398367144E+02 -0.68075560287E+02  0.76158780456E+02  0.00000000000E+00 0.  1.
</event>
<event>
 4    1  0.6888348E+001  0.2537200E+02  0.7546771E-02  0.1464685E+00
          2   -1    0    0  502    0  0.00000000000E+00  0.00000000000E+00  0.33431947092E+03  0.33431947092E+03  0.00000000000E+00 0.  1.
         -2   -1    0    0    0  501 -0.00000000000E+00 -0.00000000000E+00 -0.23036928545E+01  0.23036928545E+01  0.00000000000E+00 0. -1.
          1    1    1    2  502    0 -0.11791866739E+02  0.22465316968E+02  0.97813710513E+02  0.10105078205E+03  0.00000000000E+00 0. -1.
         -1    1    1    2    0  501  0.11791866739E+02 -0.22465316968E+02  0.23420206755E+03  0.23557238173E+03  0.00000000000E+00 0.  1.
</event>
<event>
 4    1  0.6888348E+001  0.2205577E+02  0.7546771E-02  0.1504708E+00
          2   -1    0    0  502    0  0.00000000000E+00  0.00000000000E+00  0.29310113134E+02  0.29310113134E+02  0.00000000000E+00 0. -1.
         -2   -1    0    0    0  501 -0.00000000000E+00 -0.00000000000E+00 -0.18518540962E+02  0.18518540962E+02  0.00000000000E+00 0.  1.
          1    1    1    2  502    0 -0.20960725510E+02 -0.68633215545E+01 -0.23077515883E+01  0.22176178978E+02  0.00000000000E+00 0.  1.
         -1    1    1    2    0  501  0.20960725510E+02  0.68633215545E+01  0.13099323761E+02  0.25652475118E+02  0.00000000000E+00 0. -1.
</event>
<event>
 4    1  0.6888348E+001  0.3980123E+02  0.7546771E-02  0.1349655E+00
          2   -1    0    0  502    0  0.00000000000E+00  0.00000000000E+00  0.22730755848E+03  0.22730755848E+03  0.00000000000E+00 0. -1.
         -2   -1    0    0    0  501 -0.00000000000E+00 -0.00000000000E+00 -0.74831574998E+01  0.74831574998E+01  0.00000000000E+00 0.  1.
          1    1    1    2  502    0  0.32710811889E+02  0.22674662627E+02  0.79144243653E+02  0.88588649629E+02  0.00000000000E+00 0.  1.
         -1    1    1    2    0  501 -0.32710811889E+02 -0.22674662627E+02  0.14068015733E+03  0.14620206635E+03  0.00000000000E+00 0. -1.
</event>
<event>
 4    1  0.6888348E+001  0.7432230E+02  0.7546771E-02  0.1217680E+00
          2   -1    0    0  502    0  0.00000000000E+00  0.00000000000E+00  0.65487175835E+02  0.65487175835E+02  0.00000000000E+00 0.  1.
         -2   -1    0    0    0  501 -0.00000000000E+00 -0.00000000000E+00 -0.11900332011E+03  0.11900332011E+03  0.00000000000E+00 0. -1.
          1    1    1    2  502    0  0.20025550859E+02  0.71573612421E+02  0.23020287638E+02  0.77805773084E+02  0.00000000000E+00 0.  1.
         -1    1    1    2    0  501 -0.20025550859E+02 -0.71573612421E+02 -0.76536431916E+02  0.10668472286E+03  0.00000000000E+00 0. -1.
</event>
<event>
 4    1  0.6888348E+001  0.5877095E+02  0.7546771E-02  0.1264067E+00
          2   -1    0    0  502    0  0.00000000000E+00  0.00000000000E+00  0.16094348318E+04  0.16094348318E+04  0.00000000000E+00 0. -1.
         -2   -1    0    0    0  501 -0.00000000000E+00 -0.00000000000E+00 -0.21608169533E+01  0.21608169533E+01  0.00000000000E+00 0.  1.
          1    1    1    2  502    0  0.31988152307E+02 -0.49302968840E+02  0.87011447121E+03  0.87209702306E+03  0.00000000000E+00 0.  1.
         -1    1    1    2    0  501 -0.31988152307E+02  0.49302968840E+02  0.73715954360E+03  0.73949862566E+03  0.00000000000E+00 0. -1.
</event>
<event>
 4    1  0.6888348E+001  0.2517680E+02  0.7546771E-02  0.1466835E+00
          2   -1    0    0  502    0  0.00000000000E+00  0.00000000000E+00  0.13641650083E+04  0.13641650083E+04  0.00000000000E+00 0.  1.
         -2   -1    0    0    0  501 -0.00000000000E+00 -0.00000000000E+00 -0.59003443788E+00  0.59003443788E+00  0.00000000000E+00 0. -1.
          1    1    1    2  502    0 -0.12574235011E+01 -0.25145382599E+02  0.99633950619E+03  0.99665755552E+03  0.00000000000E+00 0.  1.
         -1    1    1    2    0  501  0.12574235011E+01  0.25145382599E+02  0.36723546769E+03  0.36809748724E+03  0.00000000000E+00 0. -1.
</event>
<event>
 4    1  0.6888348E+001  0.2149886E+02  0.7546771E-02  0.1512260E+00
          2   -1    0    0  502    0  0.00000000000E+00  0.00000000000E+00  0.27860167819E+03  0.27860167819E+03  0.00000000000E+00 0.  1.
         -2   -1    0    0    0  501 -0.00000000000E+00 -0.00000000000E+00 -0.21176539079E+01  0.21176539079E+01  0.00000000000E+00 0. -1.
          1    1    1    2  502    0  0.94566096124E+01  0.19307342775E+02  0.20356350193E+03  0.20469562836E+03  0.00000000000E+00 0.  1.
         -1    1    1    2    0  501 -0.94566096124E+01 -0.19307342775E+02  0.72920522354E+02  0.76023703743E+02  0.00000000000E+00 0. -1.
</event>
<event>
 4    1  0.6888348E+001  0.5195359E+02  0.7546771E-02  0.1289917E+00
          2   -1    0    0  502    0  0.00000000000E+00  0.00000000000E+00  0.31105128525E+03  0.31105128525E+03  0.00000000000E+00 0. -1.
         -2   -1    0    0    0  501 -0.00000000000E+00 -0.00000000000E+00 -0.96451394204E+01  0.96451394204E+01  0.00000000000E+00 0.  1.
          1    1    1    2  502    0 -0.46035476773E+02 -0.24081337282E+02  0.20148932386E+03  0.20807960869E+03  0.00000000000E+00 0. -1.
         -1    1    1    2    0  501  0.46035476773E+02  0.24081337282E+02  0.99916821973E+02  0.11261681597E+03  0.00000000000E+00 0.  1.
</event>
<event>
 4    1  0.6888348E+001  0.2008596E+02  0.7546771E-02  0.1532726E+00
          2   -1    0    0  502    0  0.00000000000E+00  0.00000000000E+00  0.16840795112E+04  0.16840795112E+04  0.00000000000E+00 0. -1.
         -2   -1    0    0    0  501 -0.00000000000E+00 -0.00000000000E+00 -0.24092526028E+00  0.24092526028E+00  0.00000000000E+00 0.  1.
          1    1    1    2  502    0  0.14057768239E+02  0.14346602697E+02  0.77863057592E+03  0.77888960682E+03  0.00000000000E+00 0.  1.
         -1    1    1    2    0  501 -0.14057768239E+02 -0.14346602697E+02  0.90520800999E+03  0.90543082961E+03  0.00000000000E+00 0. -1.
</event>
<event>
 4    1  0.6888348E+001  0.2592650E+02  0.7546771E-02  0.1458700E+00
          2   -1    0    0  502    0  0.00000000000E+00  0.00000000000E+00  0.40455826291E+03  0.40455826291E+03  0.00000000000E+00 0.  1.
         -2   -1    0    0    0  501 -0.00000000000E+00 -0.00000000000E+00 -0.16955838624E+01  0.16955838624E+01  0.00000000000E+00 0. -1.
          1    1    1    2  502    0  0.16260291075E+02 -0.20193720710E+02  0.17264232517E+03  0.17457822276E+03  0.00000000000E+00 0.  1.
         -1    1    1    2    0  501 -0.16260291075E+02  0.20193720710E+02  0.23022035388E+03  0.23167562401E+03  0.00000000000E+00 0. -1.
</event>
<event>
 4    1  0.6888348E+001  0.2323306E+02  0.7546771E-02  0.1489592E+00
          2   -1    0    0  502    0  0.00000000000E+00  0.00000000000E+00  0.25465740326E+01  0.25465740326E+01  0.00000000000E+00 0.  1.
         -2   -1    0    0    0  501 -0.00000000000E+00 -0.00000000000E+00 -0.22861530830E+03  0.22861530830E+03  0.00000000000E+00 0. -1.
          1    1    1    2  502    0  0.23227086015E+02  0.52675062536E+00 -0.81838738850E+02  0.85072640535E+02  0.00000000000E+00 0.  1.
         -1    1    1    2    0  501 -0.23227086015E+02 -0.52675062536E+00 -0.14422999542E+03  0.14608924180E+03  0.00000000000E+00 0. -1.
</event>
<event>
 4    1  0.6888348E+001  0.2055843E+02  0.7546771E-02  0.1525664E+00
          2   -1    0    0  502    0  0.00000000000E+00  0.00000000000E+00  0.26349298685E+02  0.26349298685E+02  0.00000000000E+00 0. -1.
         -2   -1    0    0    0  501 -0.00000000000E+00 -0.00000000000E+00 -0.18512232781E+02  0.18512232781E+02  0.00000000000E+00 0.  1.
          1    1    1    2  502    0  0.16132447292E+02 -0.12743352252E+02 -0.42781651419E+01  0.20998847092E+02  0.00000000000E+00 0.  1.
         -1    1    1    2    0  501 -0.16132447292E+02  0.12743352252E+02  0.12115231046E+02  0.23862684374E+02  0.00000000000E+00 0. -1.
</event>
<event>
 4    1  0.6888348E+001  0.2000333E+02  0.7546771E-02  0.1533985E+00
          2   -1    0    0  502    0  0.00000000000E+00  0.00000000000E+00  0.32895213335E+03  0.32895213335E+03  0.00000000000E+00 0.  1.
         -2   -1    0    0    0  501 -0.00000000000E+00 -0.00000000000E+00 -0.51825460747E+01  0.51825460747E+01  0.00000000000E+00 0. -1.
          1    1    1    2  502    0  0.14725515933E+02 -0.13538547014E+02  0.30803688684E+03  0.30868569246E+03  0.00000000000E+00 0.  1.
         -1    1    1    2    0  501 -0.14725515933E+02  0.13538547014E+02  0.15732700442E+02  0.25448986973E+02  0.00000000000E+00 0. -1.
</event>
<event>
 4    1  0.6888348E+001  0.3078164E+02  0.7546771E-02  0.1412923E+00
          2   -1    0    0  502    0  0.00000000000E+00  0.00000000000E+00  0.25591628592E+04  0.25591628592E+04  0.00000000000E+00 0. -1.
         -2   -1    0    0    0  501 -0.00000000000E+00 -0.00000000000E+00 -0.65573280731E+00  0.65573280731E+00  0.00000000000E+00 0.  1.
          1    1    1    2  502    0 -0.25096392089E+02  0.17823589777E+02  0.43472975274E+03  0.43581815837E+03  0.00000000000E+00 0.  1.
         -1    1    1    2    0  501  0.25096392089E+02 -0.17823589777E+02  0.21237773736E+04  0.21240004336E+04  0.00000000000E+00 0. -1.
</event>
<event>
 4    1  0.6888348E+001  0.2007496E+02  0.7546771E-02  0.1532893E+00
          2   -1    0    0  502    0  0.00000000000E+00  0.00000000000E+00  0.13969070209E+04  0.13969070209E+04  0.00000000000E+00 0.  1.
         -2   -1    0    0    0  501 -0.00000000000E+00 -0.00000000000E+00 -0.46132567151E+00  0.46132567151E+00  0.00000000000E+00 0. -1.
          1    1    1    2  502    0 -0.14524085858E+02  0.13858384184E+02  0.27057663239E+03  0.27132032338E+03  0.00000000000E+00 0. -1.
         -1    1    1    2    0  501  0.14524085858E+02 -0.13858384184E+02  0.11258690628E+04  0.11260480232E+04  0.00000000000E+00 0.  1.
</event>
<event>
 4    1  0.6888348E+001  0.2110801E+02  0.7546771E-02  0.1517728E+00
          2   -1    0    0  502    0  0.00000000000E+00  0.00000000000E+00  0.17245023320E+04  0.17245023320E+04  0.00000000000E+00 0. -1.
         -2   -1    0    0    0  501 -0.00000000000E+00 -0.00000000000E+00 -0.25885361484E+00  0.25885361484E+00  0.00000000000E+00 0.  1.
          1    1    1    2  502    0 -0.81958268553E+01 -0.19451903572E+02  0.89965402311E+03  0.89990161098E+03  0.00000000000E+00 0.  1.
         -1    1    1    2    0  501  0.81958268553E+01  0.19451903572E+02  0.82458945526E+03  0.82485957463E+03  0.00000000000E+00 0. -1.
</event>
<event>
 4    1  0.6888348E+001  0.2359897E+02  0.7546771E-02  0.1485111E+00
          2   -1    0    0  502    0  0.00000000000E+00  0.00000000000E+00  0.23631978787E+03  0.23631978787E+03  0.00000000000E+00 0. -1.
         -2   -1    0    0    0  501 -0.00000000000E+00 -0.00000000000E+00 -0.31729708040E+01  0.31729708040E+01  0.00000000000E+00 0.  1.
          1    1    1    2  502    0  0.10271365204E+02 -0.21246417226E+02  0.55833642847E+02  0.60616061087E+02  0.00000000000E+00 0.  1.
         -1    1    1    2    0  501 -0.10271365204E+02  0.21246417226E+02  0.17731317422E+03  0.17887669759E+03  0.00000000000E+00 0. -1.
</event>
<event>
 4    1  0.6888348E+001  0.2704453E+02  0.7546771E-02  0.1447161E+00
          2   -1    0    0  502    0  0.00000000000E+00  0.00000000000E+00  0.21914216654E+03  0.21914216654E+03  0.00000000000E+00 0.  1.
         -2   -1    0    0    0  501 -0.00000000000E+00 -0.00000000000E+00 -0.92109405329E+01  0.92109405329E+01  0.00000000000E+00 0. -1.
          1    1    1    2  502    0 -0.87135846633E+01 -0.25602340207E+02  0.13792254036E+02  0.30358403337E+02  0.00000000000E+00 0. -1.
         -1    1    1    2    0  501  0.87135846633E+01  0.25602340207E+02  0.19613897197E+03  0.19799470373E+03  0.00000000000E+00 0.  1.
</event>
<event>
 4    1  0.6888348E+001  0.2199416E+02  0.7546771E-02  0.1505530E+00
          2   -1    0    0  502    0  0.00000000000E+00  0.00000000000E+00  0.17699653865E+04  0.17699653865E+04  0.00000000000E+00 0.  1.
         -2   -1    0    0    0  501 -0.00000000000E+00 -0.00000000000E+00 -0.30149173143E+00  0.30149173143E+00  0.00000000000E+00 0. -1.
          1    1    1    2  502    0 -0.52284429744E+01  0.21363671023E+02  0.61419829318E+03  0.61459196741E+03  0.00000000000E+00 0. -1.
         -1    1    1    2    0  501  0.52284429744E+01 -0.21363671023E+02  0.11554656016E+04  0.11556749108E+04  0.00000000000E+00 0.  1.
</event>
<event>
 4    1  0.6888348E+001  0.2825987E+02  0.7546771E-02  0.1435347E+00
          2   -1    0    0  502    0  0.00000000000E+00  0.00000000000E+00  0.25748384645E+03  0.25748384645E+03  0.00000000000E+00 0. -1.
         -2   -1    0    0    0  501 -0.00000000000E+00 -0.00000000000E+00 -0.31453163666E+01  0.31453163666E+01  0.00000000000E+00 0.  1.
          1    1    1    2  502    0 -0.16164127190E+02 -0.23180617189E+02  0.14252696284E+03  0.14530160067E+03  0.00000000000E+00 0. -1.
         -1    1    1    2    0  501  0.16164127190E+02  0.23180617189E+02  0.11181156724E+03  0.11532756215E+03  0.00000000000E+00 0.  1.
</event>
<event>
 4    1  0.6888348E+001  0.2041614E+02  0.7546771E-02  0.1527766E+00
          2   -1    0    0  502    0  0.00000000000E+00  0.00000000000E+00  0.24355924237E+03  0.24355924237E+03  0.00000000000E+00 0. -1.
         -2   -1    0    0    0  501 -0.00000000000E+00 -0.00000000000E+00 -0.22199441985E+01  0.22199441985E+01  0.00000000000E+00 0.  1.
          1    1    1    2  502    0 -0.14044552278E+02 -0.14817871114E+02  0.17948942851E+03  0.18064682035E+03  0.00000000000E+00 0. -1.
         -1    1    1    2    0  501  0.14044552278E+02  0.14817871114E+02  0.61849869660E+02  0.65132366224E+02  0.00000000000E+00 0.  1.
</event>
<event>
 4    1  0.6888348E+001  0.2771530E+02  0.7546771E-02  0.1440552E+00
          2   -1    0    0  502    0  0.00000000000E+00  0.00000000000E+00  0.12911196335E+03  0.12911196335E+03  0.00000000000E+00 0.  1.
         -2   -1    0    0    0  501 -0.00000000000E+00 -0.00000000000E+00 -0.60238670135E+01  0.60238670135E+01  0.00000000000E+00 0. -1.
          1    1    1    2  502    0 -0.26361631965E+02  0.85558192305E+01  0.69056956865E+02  0.74411027234E+02  0.00000000000E+00 0.  1.
         -1    1    1    2    0  501  0.26361631965E+02 -0.85558192305E+01  0.54031139474E+02  0.60724803132E+02  0.00000000000E+00 0. -1.
</event>
<event>
 4    1  0.6888348E+001  0.2244456E+02  0.7546771E-02  0.1499593E+00
          2   -1    0    0  502    0  0.00000000000E+00  0.00000000000E+00  0.30093789343E+03  0.30093789343E+03  0.00000000000E+00 0.  1.
         -2   -1    0    0    0  501 -0.00000000000E+00 -0.00000000000E+00 -0.36341693886E+01  0.36341693886E+01  0.00000000000E+00 0. -1.
          1    1    1    2  502    0 -0.22388544419E+02 -0.15846864539E+01  0.26049482424E+03  0.26145996177E+03  0.00000000000E+00 0.  1.
         -1    1    1    2    0  501  0.22388544419E+02  0.15846864539E+01  0.36808899802E+02  0.43112101050E+02  0.00000000000E+00 0. -1.
</event>
<event>
 4    1  0.6888348E+001  0.2642483E+02  0.7546771E-02  0.1453473E+00
          2   -1    0    0  502    0  0.00000000000E+00  0.00000000000E+00  0.12426336970E+04  0.12426336970E+04  0.00000000000E+00 0. -1.
         -2   -1    0    0    0  501 -0.00000000000E+00 -0.00000000000E+00 -0.60048074007E+00  0.60048074007E+00  0.00000000000E+00 0.  1.
          1    1    1    2  502    0 -0.77023111248E+01 -0.25277387238E+02  0.77852200340E+03  0.77897033428E+03  0.00000000000E+00 0.  1.
         -1    1    1    2    0  501  0.77023111248E+01  0.25277387238E+02  0.46351121283E+03  0.46426384343E+03  0.00000000000E+00 0. -1.
</event>
<event>
 4    1  0.6888348E+001  0.1580321E+03  0.7546771E-02  0.1089658E+00
          2   -1    0    0  502    0  0.00000000000E+00  0.00000000000E+00  0.69083384693E+02  0.69083384693E+02  0.00000000000E+00 0. -1.
         -2   -1    0    0    0  501 -0.00000000000E+00 -0.00000000000E+00 -0.46711437578E+03  0.46711437578E+03  0.00000000000E+00 0.  1.
          1    1    1    2  502    0  0.11735209113E+03 -0.10584246089E+03 -0.71538995265E+02  0.17347036537E+03  0.00000000000E+00 0. -1.
         -1    1    1    2    0  501 -0.11735209113E+03  0.10584246089E+03 -0.32649199583E+03  0.36272739510E+03  0.00000000000E+00 0.  1.
</event>
<event>
 4    1  0.6888348E+001  0.2342247E+02  0.7546771E-02  0.1487260E+00
          2   -1    0    0  502    0  0.00000000000E+00  0.00000000000E+00  0.30915389042E+02  0.30915389042E+02  0.00000000000E+00 0.  1.
         -2   -1    0    0    0  501 -0.00000000000E+00 -0.00000000000E+00 -0.17785785826E+02  0.17785785826E+02  0.00000000000E+00 0. -1.
          1    1    1    2  502    0 -0.15164990463E+02  0.17850356721E+02  0.54073526632E+01  0.24038544749E+02  0.00000000000E+00 0. -1.
         -1    1    1    2    0  501  0.15164990463E+02 -0.17850356721E+02  0.77222505521E+01  0.24662630119E+02  0.00000000000E+00 0.  1.
</event>
<event>
 4    1  0.6888348E+001  0.2949614E+02  0.7546771E-02  0.1424026E+00
          2   -1    0    0  502    0  0.00000000000E+00  0.00000000000E+00  0.13903316060E+01  0.13903316060E+01  0.00000000000E+00 0.  1.
         -2   -1    0    0    0  501 -0.00000000000E+00 -0.00000000000E+00 -0.63257628992E+03  0.63257628992E+03  0.00000000000E+00 0. -1.
          1    1    1    2  502    0  0.74412849785E+01 -0.28542067895E+02 -0.34848269533E+03  0.34972876820E+03  0.00000000000E+00 0.  1.
         -1    1    1    2    0  501 -0.74412849785E+01  0.28542067895E+02 -0.28270326299E+03  0.28423785333E+03  0.00000000000E+00 0. -1.
</event>
<event>
 4    1  0.6888348E+001  0.3196966E+02  0.7546771E-02  0.1403218E+00
          2   -1    0    0  502    0  0.00000000000E+00  0.00000000000E+00  0.11223172328E+03  0.11223172328E+03  0.00000000000E+00 0. -1.
         -2   -1    0    0    0  501 -0.00000000000E+00 -0.00000000000E+00 -0.10705908325E+02  0.10705908325E+02  0.00000000000E+00 0.  1.
          1    1    1    2  502    0  0.27267586068E+02 -0.16689446697E+02  0.27005572091E+02  0.41849250949E+02  0.00000000000E+00 0.  1.
         -1    1    1    2    0  501 -0.27267586068E+02  0.16689446697E+02  0.74520242868E+02  0.81088380660E+02  0.00000000000E+00 0. -1.
</event>
<event>
 4    1  0.6888348E+001  0.2375909E+02  0.7546771E-02  0.1483180E+00
          2   -1    0    0  502    0  0.00000000000E+00  0.00000000000E+00  0.95342533993E+01  0.95342533993E+01  0.00000000000E+00 0.  1.
         -2   -1    0    0    0  501 -0.00000000000E+00 -0.00000000000E+00 -0.85271931669E+02  0.85271931669E+02  0.00000000000E+00 0. -1.
          1    1    1    2  502    0 -0.18161670840E+02  0.15318225805E+02 -0.11660946245E+02  0.26466431510E+02  0.00000000000E+00 0.  1.
         -1    1    1    2    0  501  0.18161670840E+02 -0.15318225805E+02 -0.64076732024E+02  0.68339753559E+02  0.00000000000E+00 0. -1.
</event>
<event>
 4    1  0.6888348E+001  0.2000172E+02  0.7546771E-02  0.1534009E+00
          2   -1    0    0  502    0  0.00000000000E+00  0.00000000000E+00  0.22804665590E+02  0.22804665590E+02  0.00000000000E+00 0. -1.
         -2   -1    0    0    0  501 -0.00000000000E+00 -0.00000000000E+00 -0.32619690862E+02  0.32619690862E+02  0.00000000000E+00 0.  1.
          1    1    1    2  502    0 -0.16280271450E+02 -0.11619879995E+02  0.13932430552E+02  0.24375837845E+02  0.00000000000E+00 0. -1.
         -1    1    1    2    0  501  0.16280271450E+02  0.11619879995E+02 -0.23747455824E+02  0.31048518607E+02  0.00000000000E+00 0.  1.
</event>
<event>
 4    1  0.6888348E+001  0.2276695E+02  0.7546771E-02  0.1495445E+00
          2   -1    0    0  502    0  0.00000000000E+00  0.00000000000E+00  0.15180186301E+04  0.15180186301E+04  0.00000000000E+00 0. -1.
         -2   -1    0    0    0  501 -0.00000000000E+00 -0.00000000000E+00 -0.53107093837E+00  0.53107093837E+00  0.00000000000E+00 0.  1.
          1    1    1    2  502    0 -0.19054806957E+02 -0.12459867843E+02  0.30505192857E+03  0.30590033197E+03  0.00000000000E+00 0.  1.
         -1    1    1    2    0  501  0.19054806957E+02  0.12459867843E+02  0.12124356306E+04  0.12126493691E+04  0.00000000000E+00 0. -1.
</event>
<event>
 4    1  0.6888348E+001  0.2178265E+02  0.7546771E-02  0.1508378E+00
          2   -1    0    0  502    0  0.00000000000E+00  0.00000000000E+00  0.92999201828E+03  0.92999201828E+03  0.00000000000E+00 0. -1.
         -2   -1    0    0    0  501 -0.00000000000E+00 -0.00000000000E+00 -0.51020423702E+00  0.51020423702E+00  0.00000000000E+00 0.  1.
          1    1    1    2  502    0  0.11807411304E+01 -0.21750621777E+02  0.46374575620E+03  0.46425705174E+03  0.00000000000E+00 0.  1.
         -1    1    1    2    0  501 -0.11807411304E+01  0.21750621777E+02  0.46573605784E+03  0.46624517078E+03  0.00000000000E+00 0. -1.
</event>
<event>
 4    1  0.6888348E+001  0.2032412E+02  0.7546771E-02  0.1529137E+00
          2   -1    0    0  502    0  0.00000000000E+00  0.00000000000E+00  0.62410487174E+02  0.62410487174E+02  0.00000000000E+00 0.  1.
         -2   -1    0    0    0  501 -0.00000000000E+00 -0.00000000000E+00 -0.80960034922E+01  0.80960034922E+01  0.00000000000E+00 0. -1.
          1    1    1    2  502    0 -0.20137303936E+02  0.27493009967E+01  0.12097614458E+02  0.23652102261E+02  0.00000000000E+00 0. -1.
         -1    1    1    2    0  501  0.20137303936E+02 -0.27493009967E+01  0.42216869224E+02  0.46854388405E+02  0.00000000000E+00 0.  1.
</event>
<event>
 4    1  0.6888348E+001  0.2142014E+02  0.7546771E-02  0.1513350E+00
          2   -1    0    0  502    0  0.00000000000E+00  0.00000000000E+00  0.21814952385E+02  0.21814952385E+02  0.00000000000E+00 0.  1.
         -2   -1    0    0    0  501 -0.00000000000E+00 -0.00000000000E+00 -0.21051642146E+02  0.21051642146E+02  0.00000000000E+00 0. -1.
          1    1    1    2  502    0 -0.21329300785E+02 -0.19706270758E+01  0.10283858225E+01  0.21444813369E+02  0.00000000000E+00 0. -1.
         -1    1    1    2    0  501  0.21329300785E+02  0.19706270758E+01 -0.26507558364E+00  0.21421781161E+02  0.00000000000E+00 0.  1.
</event>
<event>
 4    1  0.6888348E+001  0.2149844E+02  0.7546771E-02  0.1512266E+00
          2   -1    0    0  502    0  0.00000000000E+00  0.00000000000E+00  0.15630946963E+01  0.15630946963E+01  0.00000000000E+00 0. -1.
         -2   -1    0    0    0  501 -0.00000000000E+00 -0.00000000000E+00 -0.32255419443E+03  0.32255419443E+03  0.00000000000E+00 0.  1.
          1    1    1    2  502    0  0.17857368351E+02 -0.11970678296E+02 -0.11372172411E+03  0.11573596363E+03  0.00000000000E+00 0. -1.
         -1    1    1    2    0  501 -0.17857368351E+02  0.11970678296E+02 -0.20726937563E+03  0.20838132550E+03  0.00000000000E+00 0.  1.
</event>
<event>
 4    1  0.6888348E+001  0.4135731E+02  0.7546771E-02  0.1340710E+00
          2   -1    0    0  502    0  0.00000000000E+00  0.00000000000E+00  0.12227016080E+04  0.12227016080E+04  0.00000000000E+00 0.  1.
         -2   -1    0    0    0  501 -0.00000000000E+00 -0.00000000000E+00 -0.19916866339E+01  0.19916866339E+01  0.00000000000E+00 0. -1.
          1    1    1    2  502    0 -0.39428034506E+02  0.12484276195E+02  0.27628370938E+03  0.27936197866E+03  0.00000000000E+00 0. -1.
         -1    1    1    2    0  501  0.39428034506E+02 -0.12484276195E+02  0.94442621199E+03  0.94533131596E+03  0.00000000000E+00 0.  1.
</event>
<event>
 4    1  0.6888348E+001  0.3991884E+02  0.7546771E-02  0.1348962E+00
          2   -1    0    0  502    0  0.00000000000E+00  0.00000000000E+00  0.15055242761E+02  0.15055242761E+02  0.00000000000E+00 0. -1.
         -2   -1    0    0    0  501 -0.00000000000E+00 -0.00000000000E+00 -0.10866262998E+03  0.10866262998E+03  0.00000000000E+00 0.  1.
          1    1    1    2  502    0  0.25467205984E+02 -0.30739795969E+02 -0.56765727129E+02  0.69396407784E+02  0.00000000000E+00 0.  1.
         -1    1    1    2    0  501 -0.25467205984E+02  0.30739795969E+02 -0.36841660088E+02  0.54321464955E+02  0.00000000000E+00 0. -1.
</event>
<event>
 4    1  0.6888348E+001  0.3053896E+02  0.7546771E-02  0.1414970E+00
          2   -1    0    0  502    0  0.00000000000E+00  0.00000000000E+00  0.33288166195E+03  0.33288166195E+03  0.00000000000E+00 0.  1.
         -2   -1    0    0    0  501 -0.00000000000E+00 -0.00000000000E+00 -0.28151075926E+01  0.28151075926E+01  0.00000000000E+00 0. -1.
          1    1    1    2  502    0 -0.35831857957E+01 -0.30328024570E+02  0.17662503521E+03  0.17924572898E+03  0.00000000000E+00 0.  1.
         -1    1    1    2    0  501  0.35831857957E+01  0.30328024570E+02  0.15344151915E+03  0.15645104056E+03  0.00000000000E+00 0. -1.
</event>
<event>
 4    1  0.6888348E+001  0.2250782E+02  0.7546771E-02  0.1498773E+00
          2   -1    0    0  502    0  0.00000000000E+00  0.00000000000E+00  0.50764157094E+03  0.50764157094E+03  0.00000000000E+00 0. -1.
         -2   -1    0    0    0  501 -0.00000000000E+00 -0.00000000000E+00 -0.21953045132E+01  0.21953045132E+01  0.00000000000E+00 0.  1.
          1    1    1    2  502    0 -0.34221698580E+01  0.22246141765E+02  0.64460198239E+02  0.68276783953E+02  0.00000000000E+00 0.  1.
         -1    1    1    2    0  501  0.34221698580E+01 -0.22246141765E+02  0.44098606819E+03  0.44156009150E+03  0.00000000000E+00 0. -1.
</event>
<event>
 4    1  0.6888348E+001  0.2315985E+02  0.7546771E-02  0.1490501E+00
          2   -1    0    0  502    0  0.00000000000E+00  0.00000000000E+00  0.58010908700E+03  0.58010908700E+03  0.00000000000E+00 0.  1.
         -2   -1    0    0    0  501 -0.00000000000E+00 -0.00000000000E+00 -0.18834112513E+01  0.18834112513E+01  0.00000000000E+00 0. -1.
          1    1    1    2  502    0  0.22056605374E+02  0.70629280310E+01  0.49673680955E+03  0.49727641886E+03  0.00000000000E+00 0.  1.
         -1    1    1    2    0  501 -0.22056605374E+02 -0.70629280310E+01  0.81488866203E+02  0.84716079395E+02  0.00000000000E+00 0. -1.
</event>
<event>
 4    1  0.6888348E+001  0.3026929E+02  0.7546771E-02  0.1417270E+00
          2   -1    0    0  502    0  0.00000000000E+00  0.00000000000E+00  0.54438793160E+03  0.54438793160E+03  0.00000000000E+00 0.  1.
         -2   -1    0    0    0  501 -0.00000000000E+00 -0.00000000000E+00 -0.17544677708E+01  0.17544677708E+01  0.00000000000E+00 0. -1.
          1    1    1    2  502    0 -0.20120290162E+02 -0.22614237182E+02  0.21622083717E+03  0.21832929310E+03  0.00000000000E+00 0.  1.
         -1    1    1    2    0  501  0.20120290162E+02  0.22614237182E+02  0.32641262665E+03  0.32781310626E+03  0.00000000000E+00 0. -1.
</event>
<event>
 4    1  0.6888348E+001  0.2406505E+02  0.7546771E-02  0.1479540E+00
          2   -1    0    0  502    0  0.00000000000E+00  0.00000000000E+00  0.24364031524E+01  0.24364031524E+01  0.00000000000E+00 0. -1.
         -2   -1    0    0    0  501 -0.00000000000E+00 -0.00000000000E+00 -0.28681333913E+03  0.28681333913E+03  0.00000000000E+00 0.  1.
          1    1    1    2  502    0 -0.16411866324E+02  0.17600490555E+02 -0.20203716045E+03  0.20346533078E+03  0.00000000000E+00 0.  1.
         -1    1    1    2    0  501  0.16411866324E+02 -0.17600490555E+02 -0.82339775522E+02  0.85784411504E+02  0.00000000000E+00 0. -1.
</event>
<event>
 4    1  0.6888348E+001  0.3732930E+02  0.7546771E-02  0.1364889E+00
          2   -1    0    0  502    0  0.00000000000E+00  0.00000000000E+00  0.52947638664E+03  0.52947638664E+03  0.00000000000E+00 0.  1.
         -2   -1    0    0    0  501 -0.00000000000E+00 -0.00000000000E+00 -0.30414504920E+01  0.30414504920E+01  0.00000000000E+00 0. -1.
          1    1    1    2  502    0  0.15622892119E+02 -0.33902826118E+02  0.16550047256E+03  0.16965813507E+03  0.00000000000E+00 0. -1.
         -1    1    1    2    0  501 -0.15622892119E+02  0.33902826118E+02  0.36093446359E+03  0.36285970206E+03  0.00000000000E+00 0.  1.
</event>
<event>
 4    1  0.6888348E+001  0.2873373E+02  0.7546771E-02  0.1430929E+00
          2   -1    0    0  502    0  0.00000000000E+00  0.00000000000E+00  0.84456492381E+03  0.84456492381E+03  0.00000000000E+00 0. -1.
         -2   -1    0    0    0  501 -0.00000000000E+00 -0.00000000000E+00 -0.10052357779E+01  0.10052357779E+01  0.00000000000E+00 0.  1.
          1    1    1    2  502    0 -0.81077598859E+01 -0.27566129320E+02  0.49190955841E+03  0.49274805014E+03  0.00000000000E+00 0. -1.
         -1    1    1    2    0  501  0.81077598859E+01  0.27566129320E+02  0.35165012961E+03  0.35282210944E+03  0.00000000000E+00 0.  1.
</event>
<event>
 4    1  0.6888348E+001  0.2512158E+02  0.7546771E-02  0.1467448E+00
          2   -1    0    0  502    0  0.00000000000E+00  0.00000000000E+00  0.42181586425E+03  0.42181586425E+03  0.00000000000E+00 0. -1.
         -2   -1    0    0    0  501 -0.00000000000E+00 -0.00000000000E+00 -0.15476318345E+01  0.15476318345E+01  0.00000000000E+00 0.  1.
          1    1    1    2  502    0  0.17697543038E+01  0.25059167964E+02  0.24874727593E+03  0.25001260211E+03  0.00000000000E+00 0.  1.
         -1    1    1    2    0  501 -0.17697543038E+01 -0.25059167964E+02  0.17152095648E+03  0.17335089397E+03  0.00000000000E+00 0. -1.
</event>
<event>
 4    1  0.6888348E+001  0.2615289E+02  0.7546771E-02  0.1456308E+00
          2   -1    0    0  502    0  0.00000000000E+00  0.00000000000E+00  0.74964255002E+02  0.74964255002E+02  0.00000000000E+00 0. -1.
         -2   -1    0    0    0  501 -0.00000000000E+00 -0.00000000000E+00 -0.34669221366E+02  0.34669221366E+02  0.00000000000E+00 0.  1.
          1    1    1    2  502    0 -0.25933641177E+02 -0.33793185752E+01 -0.26906425709E+02  0.37522383762E+02  0.00000000000E+00 0.  1.
         -1    1    1    2    0  501  0.25933641177E+02  0.33793185752E+01  0.67201459346E+02  0.72111092606E+02  0.00000000000E+00 0. -1.
</event>
<event>
 4    1  0.6888348E+001  0.2715616E+02  0.7546771E-02  0.1446046E+00
          2   -1    0    0  502    0  0.00000000000E+00  0.00000000000E+00  0.30517271629E+03  0.30517271629E+03  0.00000000000E+00 0.  1.
         -2   -1    0    0    0  501 -0.00000000000E+00 -0.00000000000E+00 -0.24243398922E+01  0.24243398922E+01  0.00000000000E+00 0. -1.
          1    1    1    2  502    0  0.25213432056E+02  0.10086622999E+02  0.16010694554E+03  0.16239363020E+03  0.00000000000E+00 0.  1.
         -1    1    1    2    0  501 -0.25213432056E+02 -0.10086622999E+02  0.14264143085E+03  0.14520342598E+03  0.00000000000E+00 0. -1.
</event>
<event>
 4    1  0.6888348E+001  0.2487503E+02  0.7546771E-02  0.1470206E+00
          2   -1    0    0  502    0  0.00000000000E+00  0.00000000000E+00  0.68976214744E+03  0.68976214744E+03  0.00000000000E+00 0. -1.
         -2   -1    0    0    0  501 -0.00000000000E+00 -0.00000000000E+00 -0.97017151993E+00  0.97017151993E+00  0.00000000000E+00 0.  1.
          1    1    1    2  502    0 -0.17931859601E+02 -0.17239943386E+02  0.43919608635E+03  0.43989995397E+03  0.00000000000E+00 0. -1.
         -1    1    1    2    0  501  0.17931859601E+02  0.17239943386E+02  0.24959588957E+03  0.25083236499E+03  0.00000000000E+00 0.  1.
</event>
<event>
 4    1  0.6888348E+001  0.3024791E+02  0.7546771E-02  0.1417454E+00
          2   -1    0    0  502    0  0.00000000000E+00  0.00000000000E+00  0.42666390268E+03  0.42666390268E+03  0.00000000000E+00 0. -1.
         -2   -1    0    0    0  501 -0.00000000000E+00 -0.00000000000E+00 -0.31615908462E+01  0.31615908462E+01  0.00000000000E+00 0.  1.
          1    1    1    2  502    0 -0.17744583184E+02 -0.24496238406E+02  0.33365338208E+03  0.33502166392E+03  0.00000000000E+00 0. -1.
         -1    1    1    2    0  501  0.17744583184E+02  0.24496238406E+02  0.89848929759E+02  0.94803829602E+02  0.00000000000E+00 0.  1.
</event>
<event>
 4    1  0.6888348E+001  0.2940534E+02  0.7546771E-02  0.1424835E+00
          2   -1    0    0  502    0  0.00000000000E+00  0.00000000000E+00  0.38876558942E+03  0.38876558942E+03  0.00000000000E+00 0. -1.
         -2   -1    0    0    0  501 -0.00000000000E+00 -0.00000000000E+00 -0.22767316210E+01  0.22767316210E+01  0.00000000000E+00 0.  1.
          1    1    1    2  502    0  0.52356684601E+01  0.28935474355E+02  0.22295733398E+03  0.22488807589E+03  0.00000000000E+00 0.  1.
         -1    1    1    2    0  501 -0.52356684601E+01 -0.28935474355E+02  0.16353152382E+03  0.16615424515E+03  0.00000000000E+00 0. -1.
</event>
<event>
 4    1  0.6888348E+001  0.2078292E+02  0.7546771E-02  0.1522387E+00
          2   -1    0    0  502    0  0.00000000000E+00  0.00000000000E+00  0.19116764306E+03  0.19116764306E+03  0.00000000000E+00 0.  1.
         -2   -1    0    0    0  501 -0.00000000000E+00 -0.00000000000E+00 -0.30713285479E+01  0.30713285479E+01  0.00000000000E+00 0. -1.
          1    1    1    2  502    0  0.19467888654E+02  0.72753843688E+01  0.44114414402E+02  0.48764858909E+02  0.00000000000E+00 0. -1.
         -1    1    1    2    0  501 -0.19467888654E+02 -0.72753843688E+01  0.14398190011E+03  0.14547411269E+03  0.00000000000E+00 0.  1.
</event>
<event>
 4    1  0.6888348E+001  0.2275451E+02  0.7546771E-02  0.1495604E+00
          2   -1    0    0  502    0  0.00000000000E+00  0.00000000000E+00  0.45587508756E+02  0.45587508756E+02  0.00000000000E+00 0.  1.
         -2   -1    0    0    0  501 -0.00000000000E+00 -0.00000000000E+00 -0.12683995527E+02  0.12683995527E+02  0.00000000000E+00 0. -1.
          1    1    1    2  502    0  0.12836852049E+02  0.18787842256E+02  0.70301797961E+01  0.23815776602E+02  0.00000000000E+00 0. -1.
         -1    1    1    2    0  501 -0.12836852049E+02 -0.18787842256E+02  0.25873333433E+02  0.34455727682E+02  0.00000000000E+00 0.  1.
</event>
<event>
 4    1  0.6888348E+001  0.2086950E+02  0.7546771E-02  0.1521136E+00
          2   -1    0    0  502    0  0.00000000000E+00  0.00000000000E+00  0.56592014530E+01  0.56592014530E+01  0.00000000000E+00 0. -1.
         -2   -1    0    0    0  501 -0.00000000000E+00 -0.00000000000E+00 -0.14019367464E+03  0.14019367464E+03  0.00000000000E+00 0.  1.
          1    1    1    2  502    0  0.15463513402E+02  0.14014839277E+02 -0.18290179879E+02  0.27750074715E+02  0.00000000000E+00 0. -1.
         -1    1    1    2    0  501 -0.15463513402E+02 -0.14014839277E+02 -0.11624429330E+03  0.11810280137E+03  0.00000000000E+00 0.  1.
</event>
<event>
 4    1  0.6888348E+001  0.2710833E+02  0.7546771E-02  0.1446523E+00
          2   -1    0    0  502    0  0.00000000000E+00  0.00000000000E+00  0.22448151537E+03  0.22448151537E+03  0.00000000000E+00 0. -1.
         -2   -1    0    0    0  501 -0.00000000000E+00 -0.00000000000E+00 -0.33255956804E+01  0.33255956804E+01  0.00000000000E+00 0.  1.
          1    1    1    2  502    0 -0.19263584195E+02 -0.19072915101E+02  0.96334898430E+02  0.10007634297E+03  0.00000000000E+00 0.  1.
         -1    1    1    2    0  501  0.19263584195E+02  0.19072915101E+02  0.12482102126E+03  0.12773076808E+03  0.00000000000E+00 0. -1.
</event>
<event>
 4    1  0.6888348E+001  0.2927047E+02  0.7546771E-02  0.1426044E+00
          2   -1    0    0  502    0  0.00000000000E+00  0.00000000000E+00  0.56418649793E+03  0.56418649793E+03  0.00000000000E+00 0. -1.
         -2   -1    0    0    0  501 -0.00000000000E+00 -0.00000000000E+00 -0.15420998128E+01  0.15420998128E+01  0.00000000000E+00 0.  1.
          1    1    1    2  502    0 -0.17218622184E+02  0.23670218829E+02  0.24638616851E+03  0.24811873013E+03  0.00000000000E+00 0. -1.
         -1    1    1    2    0  501  0.17218622184E+02 -0.23670218829E+02  0.31625822961E+03  0.31760986761E+03  0.00000000000E+00 0.  1.
</event>
<event>
 4    1  0.6888348E+001  0.2144712E+02  0.7546771E-02  0.1512976E+00
          2   -1    0    0  502    0  0.00000000000E+00  0.00000000000E+00  0.26101269438E+03  0.26101269438E+03  0.00000000000E+00 0. -1.
         -2   -1    0    0    0  501 -0.00000000000E+00 -0.00000000000E+00 -0.17994726722E+01  0.17994726722E+01  0.00000000000E+00 0.  1.
          1    1    1    2  502    0 -0.19927983867E+02 -0.79280691602E+01  0.11071622298E+03  0.11277438030E+03  0.00000000000E+00 0.  1.
         -1    1    1    2    0  501  0.19927983867E+02  0.79280691602E+01  0.14849699873E+03  0.15003778675E+03  0.00000000000E+00 0. -1.
</event>
<event>
 4    1  0.6888348E+001  0.2024854E+02  0.7546771E-02  0.1530270E+00
          2   -1    0    0  502    0  0.00000000000E+00  0.00000000000E+00  0.82122834430E+03  0.82122834430E+03  0.00000000000E+00 0.  1.
         -2   -1    0    0    0  501 -0.00000000000E+00 -0.00000000000E+00 -0.67430117425E+00  0.67430117425E+00  0.00000000000E+00 0. -1.
          1    1    1    2  502    0  0.19741420217E+02  0.45032943273E+01  0.20089554233E+03  0.20191340287E+03  0.00000000000E+00 0. -1.
         -1    1    1    2    0  501 -0.19741420217E+02 -0.45032943273E+01  0.61965850079E+03  0.61998924260E+03  0.00000000000E+00 0.  1.
</event>
<event>
 4    1  0.6888348E+001  0.4274711E+02  0.7546771E-02  0.1333098E+00
          2   -1    0    0  502    0  0.00000000000E+00  0.00000000000E+00  0.95687935115E+03  0.95687935115E+03  0.00000000000E+00 0.  1.
         -2   -1    0    0    0  501 -0.00000000000E+00 -0.00000000000E+00 -0.19263132840E+01  0.19263132840E+01  0.00000000000E+00 0. -1.
          1    1    1    2  502    0  0.94781466203E+01 -0.41683092542E+02  0.43290369944E+03  0.43500911307E+03  0.00000000000E+00 0.  1.
         -1    1    1    2    0  501 -0.94781466203E+01  0.41683092542E+02  0.52204933843E+03  0.52379655137E+03  0.00000000000E+00 0. -1.
</event>
<event>
 4    1  0.6888348E+001  0.2211448E+02  0.7546771E-02  0.1503927E+00
          2   -1    0    0  502    0  0.00000000000E+00  0.00000000000E+00  0.25646532059E+01  0.25646532059E+01  0.00000000000E+00 0.  1.
         -2   -1    0    0    0  501 -0.00000000000E+00 -0.00000000000E+00 -0.29038830959E+03  0.29038830959E+03  0.00000000000E+00 0. -1.
          1    1    1    2  502    0 -0.21308543432E+02 -0.59157513131E+01 -0.22973909351E+03  0.23080099918E+03  0.00000000000E+00 0.  1.
         -1    1    1    2    0  501  0.21308543432E+02  0.59157513131E+01 -0.58084562879E+02  0.62151963618E+02  0.00000000000E+00 0. -1.
</event>
<event>
 4    1  0.6888348E+001  0.2147005E+02  0.7546771E-02  0.1512658E+00
          2   -1    0    0  502    0  0.00000000000E+00  0.00000000000E+00  0.85886394255E+01  0.85886394255E+01  0.00000000000E+00 0. -1.
         -2   -1    0    0    0  501 -0.00000000000E+00 -0.00000000000E+00 -0.67986560849E+02  0.67986560849E+02  0.00000000000E+00 0.  1.
          1    1    1    2  502    0  0.18815291331E+02 -0.10341566514E+02 -0.12129974704E+02  0.24659672993E+02  0.00000000000E+00 0. -1.
         -1    1    1    2    0  501 -0.18815291331E+02  0.10341566514E+02 -0.47267946719E+02  0.51915527281E+02  0.00000000000E+00 0.  1.
</event>
<event>
 4    1  0.6888348E+001  0.2437341E+02  0.7546771E-02  0.1475937E+00
          2   -1    0    0  502    0  0.00000000000E+00  0.00000000000E+00  0.17913325085E+04  0.17913325085E+04  0.00000000000E+00 0. -1.
         -2   -1    0    0    0  501 -0.00000000000E+00 -0.00000000000E+00 -0.35284093943E+00  0.35284093943E+00  0.00000000000E+00 0.  1.
          1    1    1    2  502    0 -0.15018737634E+01 -0.24327090317E+02  0.11151256070E+04  0.11153919412E+04  0.00000000000E+00 0.  1.
         -1    1    1    2    0  501  0.15018737634E+01  0.24327090317E+02  0.67585406054E+03  0.67629340829E+03  0.00000000000E+00 0. -1.
</event>
<event>
 4    1  0.6888348E+001  0.4784040E+02  0.7546771E-02  0.1307817E+00
          2   -1    0    0  502    0  0.00000000000E+00  0.00000000000E+00  0.44666265334E+02  0.44666265334E+02  0.00000000000E+00 0. -1.
         -2   -1    0    0    0  501 -0.00000000000E+00 -0.00000000000E+00 -0.54570088142E+02  0.54570088142E+02  0.00000000000E+00 0.  1.
          1    1    1    2  502    0  0.42175829981E+02  0.22581031118E+02  0.73051188357E+01  0.48394920830E+02  0.00000000000E+00 0. -1.
         -1    1    1    2    0  501 -0.42175829981E+02 -0.22581031118E+02 -0.17208941645E+02  0.50841432646E+02  0.00000000000E+00 0.  1.
</event>
<event>
 4    1  0.6888348E+001  0.4621259E+02  0.7546771E-02  0.1315485E+00
          2   -1    0    0  502    0  0.00000000000E+00  0.00000000000E+00  0.47283582601E+02  0.47283582601E+02  0.00000000000E+00 0. -1.
         -2   -1    0    0    0  501 -0.00000000000E+00 -0.00000000000E+00 -0.45306569336E+02  0.45306569336E+02  0.00000000000E+00 0.  1.
          1    1    1    2  502    0 -0.10311334309E+02  0.45047533747E+02 -0.15914228701E+01  0.46239988524E+02  0.00000000000E+00 0.  1.
         -1    1    1    2    0  501  0.10311334309E+02 -0.45047533747E+02  0.35684361349E+01  0.46350163413E+02  0.00000000000E+00 0. -1.
</event>
<event>
 4    1  0.6888348E+001  0.2340787E+02  0.7546771E-02  0.1487439E+00
          2   -1    0    0  502    0  0.00000000000E+00  0.00000000000E+00  0.87880567243E+03  0.87880567243E+03  0.00000000000E+00 0.  1.
         -2   -1    0    0    0  501 -0.00000000000E+00 -0.00000000000E+00 -0.97861003198E+00  0.97861003198E+00  0.00000000000E+00 0. -1.
          1    1    1    2  502    0 -0.62094132849E+00 -0.23399637678E+02  0.17392472922E+03  0.17549284899E+03  0.00000000000E+00 0. -1.
         -1    1    1    2    0  501  0.62094132849E+00  0.23399637678E+02  0.70390233317E+03  0.70429143347E+03  0.00000000000E+00 0.  1.
</event>
<event>
 4    1  0.6888348E+001  0.2535815E+02  0.7546771E-02  0.1464836E+00
          2   -1    0    0  502    0  0.00000000000E+00  0.00000000000E+00  0.88565279545E+02  0.88565279545E+02  0.00000000000E+00 0.  1.
         -2   -1    0    0    0  501 -0.00000000000E+00 -0.00000000000E+00 -0.86091339087E+01  0.86091339087E+01  0.00000000000E+00 0. -1.
          1    1    1    2  502    0 -0.17034798943E+02  0.18784345501E+02  0.59207885751E+02  0.64409702266E+02  0.00000000000E+00 0. -1.
         -1    1    1    2    0  501  0.17034798943E+02 -0.18784345501E+02  0.20748259885E+02  0.32764711187E+02  0.00000000000E+00 0.  1.
</event>
<event>
 4    1  0.6888348E+001  0.2474873E+02  0.7546771E-02  0.1471634E+00
          2   -1    0    0  502    0  0.00000000000E+00  0.00000000000E+00  0.16865398512E+04  0.16865398512E+04  0.00000000000E+00 0. -1.
         -2   -1    0    0    0  501 -0.00000000000E+00 -0.00000000000E+00 -0.37202813482E+00  0.37202813482E+00  0.00000000000E+00 0.  1.
          1    1    1    2  502    0 -0.23924202451E+02  0.63349918778E+01  0.71292870854E+03  0.71335814501E+03  0.00000000000E+00 0.  1.
         -1    1    1    2    0  501  0.23924202451E+02 -0.63349918778E+01  0.97323911455E+03  0.97355373435E+03  0.00000000000E+00 0. -1.
</event>
<event>
 4    1  0.6888348E+001  0.2232483E+02  0.7546771E-02  0.1501155E+00
          2   -1    0    0  502    0  0.00000000000E+00  0.00000000000E+00  0.16704526688E+04  0.16704526688E+04  0.00000000000E+00 0. -1.
         -2   -1    0    0    0  501 -0.00000000000E+00 -0.00000000000E+00 -0.31314341529E+00  0.31314341529E+00  0.00000000000E+00 0.  1.
          1    1    1    2  502    0  0.11472113117E+02 -0.19151724621E+02  0.10165739228E+04  0.10168190293E+04  0.00000000000E+00 0. -1.
         -1    1    1    2    0  501 -0.11472113117E+02  0.19151724621E+02  0.65356560260E+03  0.65394678288E+03  0.00000000000E+00 0.  1.
</event>
<event>
 4    1  0.6888348E+001  0.2291850E+02  0.7546771E-02  0.1493524E+00
          2   -1    0    0  502    0  0.00000000000E+00  0.00000000000E+00  0.10015430908E+04  0.10015430908E+04  0.00000000000E+00 0.  1.
         -2   -1    0    0    0  501 -0.00000000000E+00 -0.00000000000E+00 -0.61769852224E+00  0.61769852224E+00  0.00000000000E+00 0. -1.
          1    1    1    2  502    0  0.83915965185E+01 -0.21326951984E+02  0.69515267516E+03  0.69553037285E+03  0.00000000000E+00 0.  1.
         -1    1    1    2    0  501 -0.83915965185E+01  0.21326951984E+02  0.30577271708E+03  0.30663041643E+03  0.00000000000E+00 0. -1.
</event>
<event>
 4    1  0.6888348E+001  0.2322320E+02  0.7546771E-02  0.1489714E+00
          2   -1    0    0  502    0  0.00000000000E+00  0.00000000000E+00  0.16751320362E+02  0.16751320362E+02  0.00000000000E+00 0. -1.
         -2   -1    0    0    0  501 -0.00000000000E+00 -0.00000000000E+00 -0.52118913800E+02  0.52118913800E+02  0.00000000000E+00 0.  1.
          1    1    1    2  502    0 -0.82579342419E+01 -0.21705384748E+02  0.36066962672E+01  0.23501605540E+02  0.00000000000E+00 0. -1.
         -1    1    1    2    0  501  0.82579342419E+01  0.21705384748E+02 -0.38974289705E+02  0.45368628622E+02  0.00000000000E+00 0.  1.
</event>
<event>
 4    1  0.6888348E+001  0.3021135E+02  0.7546771E-02  0.1417768E+00
          2   -1    0    0  502    0  0.00000000000E+00  0.00000000000E+00  0.69753251646E+03  0.69753251646E+03  0.00000000000E+00 0.  1.
         -2   -1    0    0    0  501 -0.00000000000E+00 -0.00000000000E+00 -0.19000283881E+01  0.19000283881E+01  0.00000000000E+00 0. -1.
          1    1    1    2  502    0 -0.17210584440E+02 -0.24829846669E+02  0.15268744172E+03  0.15564761599E+03  0.00000000000E+00 0. -1.
         -1    1    1    2    0  501  0.17210584440E+02  0.24829846669E+02  0.54294504635E+03  0.54378492886E+03  0.00000000000E+00 0.  1.
</event>
<event>
 4    1  0.6888348E+001  0.3675930E+02  0.7546771E-02  0.1368599E+00
          2   -1    0    0  502    0  0.00000000000E+00  0.00000000000E+00  0.69785797296E+01  0.69785797296E+01  0.00000000000E+00 0.  1.
         -2   -1    0    0    0  501 -0.00000000000E+00 -0.00000000000E+00 -0.19908839011E+03  0.19908839011E+03  0.00000000000E+00 0. -1.
          1    1    1    2  502    0 -0.33033040744E+02  0.16126506495E+02 -0.11311891849E+03  0.11894173242E+03  0.00000000000E+00 0.  1.
         -1    1    1    2    0  501  0.33033040744E+02 -0.16126506495E+02 -0.78990891896E+02  0.87125237418E+02  0.00000000000E+00 0. -1.
</event>
<event>
 4    1  0.6888348E+001  0.2098622E+02  0.7546771E-02  0.1519462E+00
          2   -1    0    0  502    0  0.00000000000E+00  0.00000000000E+00  0.12109116186E+04  0.12109116186E+04  0.00000000000E+00 0.  1.
         -2   -1    0    0    0  501 -0.00000000000E+00 -0.00000000000E+00 -0.36371299786E+00  0.36371299786E+00  0.00000000000E+00 0. -1.
          1    1    1    2  502    0  0.66467170682E+01 -0.19905841315E+02  0.60371218712E+03  0.60407683803E+03  0.00000000000E+00 0. -1.
         -1    1    1    2    0  501 -0.66467170682E+01  0.19905841315E+02  0.60683571852E+03  0.60719849361E+03  0.00000000000E+00 0.  1.
</event>
<event>
 4    1  0.6888348E+001  0.2594198E+02  0.7546771E-02  0.1458536E+00
          2   -1    0    0  502    0  0.00000000000E+00  0.00000000000E+00  0.29587051785E+03  0.29587051785E+03  0.00000000000E+00 0.  1.
         -2   -1    0    0    0  501 -0.00000000000E+00 -0.00000000000E+00 -0.70403583431E+01  0.70403583431E+01  0.00000000000E+00 0. -1.
          1    1    1    2  502    0 -0.48757067378E+01  0.25479679290E+02  0.19804884725E+02  0.32637708742E+02  0.00000000000E+00 0. -1.
         -1    1    1    2    0  501  0.48757067378E+01 -0.25479679290E+02  0.26902527478E+03  0.27027316745E+03  0.00000000000E+00 0.  1.
</event>
<event>
 4    1  0.6888348E+001  0.2655506E+02  0.7546771E-02  0.1452130E+00
          2   -1    0    0  502    0  0.00000000000E+00  0.00000000000E+00  0.38085978136E+02  0.38085978136E+02  0.00000000000E+00 0. -1.
         -2   -1    0    0    0  501 -0.00000000000E+00 -0.00000000000E+00 -0.32705180769E+02  0.32705180769E+02  0.00000000000E+00 0.  1.
          1    1    1    2  502    0  0.25283786247E+02 -0.81179692081E+01 -0.20624360943E+02  0.33623437293E+02  0.00000000000E+00 0.  1.
         -1    1    1    2    0  501 -0.25283786247E+02  0.81179692081E+01  0.26005158311E+02  0.37167721612E+02  0.00000000000E+00 0. -1.
</event>
<event>
 4    1  0.6888348E+001  0.2232113E+02  0.7546771E-02  0.1501203E+00
          2   -1    0    0  502    0  0.00000000000E+00  0.00000000000E+00  0.94082772957E+02  0.94082772957E+02  0.00000000000E+00 0. -1.
         -2   -1    0    0    0  501 -0.00000000000E+00 -0.00000000000E+00 -0.55431354753E+01  0.55431354753E+01  0.00000000000E+00 0.  1.
          1    1    1    2  502    0  0.10858445235E+02 -0.19501974801E+02  0.54794465701E+02  0.59166429041E+02  0.00000000000E+00 0. -1.
         -1    1    1    2    0  501 -0.10858445235E+02  0.19501974801E+02  0.33745171781E+02  0.40459479391E+02  0.00000000000E+00 0.  1.
</event>
<event>
 4    1  0.6888348E+001  0.3778612E+02  0.7546771E-02  0.1361971E+00
          2   -1    0    0  502    0  0.00000000000E+00  0.00000000000E+00  0.65828881995E+02  0.65828881995E+02  0.00000000000E+00 0.  1.
         -2   -1    0    0    0  501 -0.00000000000E+00 -0.00000000000E+00 -0.24131710181E+02  0.24131710181E+02  0.00000000000E+00 0. -1.
          1    1    1    2  502    0  0.31745820118E+02 -0.20493757095E+02  0.35158125766E+02  0.51612837378E+02  0.00000000000E+00 0.  1.
         -1    1    1    2    0  501 -0.31745820118E+02  0.20493757095E+02  0.65390460485E+01  0.38347754799E+02  0.00000000000E+00 0. -1.
</event>
<event>
 4    1  0.6888348E+001  0.2420514E+02  0.7546771E-02  0.1477895E+00
          2   -1    0    0  502    0  0.00000000000E+00  0.00000000000E+00  0.28782261726E+02  0.28782261726E+02  0.00000000000E+00 0. -1.
         -2   -1    0    0    0  501 -0.00000000000E+00 -0.00000000000E+00 -0.20896101052E+02  0.20896101052E+02  0.00000000000E+00 0.  1.
          1    1    1    2  502    0 -0.37916307575E+01 -0.23906320101E+02 -0.50713757093E-01  0.24205189040E+02  0.00000000000E+00 0.  1.
         -1    1    1    2    0  501  0.37916307575E+01  0.23906320101E+02  0.79368744317E+01  0.25473173738E+02  0.00000000000E+00 0. -1.
</event>
<event>
 4    1  0.6888348E+001  0.2966506E+02  0.7546771E-02  0.1422530E+00
          2   -1    0    0  502    0  0.00000000000E+00  0.00000000000E+00  0.59231551134E+03  0.59231551134E+03  0.00000000000E+00 0.  1.
         -2   -1    0    0    0  501 -0.00000000000E+00 -0.00000000000E+00 -0.17030899422E+01  0.17030899422E+01  0.00000000000E+00 0. -1.
          1    1    1    2  502    0  0.16866255950E+02 -0.24403797173E+02  0.40141453991E+03  0.40250919090E+03  0.00000000000E+00 0.  1.
         -1    1    1    2    0  501 -0.16866255950E+02  0.24403797173E+02  0.18919788149E+03  0.19150941038E+03  0.00000000000E+00 0. -1.
</event>
<event>
 4    1  0.6888348E+001  0.2011826E+02  0.7546771E-02  0.1532236E+00
          2   -1    0    0  502    0  0.00000000000E+00  0.00000000000E+00  0.30672749263E+03  0.30672749263E+03  0.00000000000E+00 0.  1.
         -2   -1    0    0    0  501 -0.00000000000E+00 -0.00000000000E+00 -0.13201106569E+01  0.13201106569E+01  0.00000000000E+00 0. -1.
          1    1    1    2  502    0 -0.95076082420E+01 -0.17729910351E+02  0.15585868258E+03  0.15715175237E+03  0.00000000000E+00 0. -1.
         -1    1    1    2    0  501  0.95076082420E+01  0.17729910351E+02  0.14954869939E+03  0.15089585092E+03  0.00000000000E+00 0.  1.
</event>
<event>
 4    1  0.6888348E+001  0.2608255E+02  0.7546771E-02  0.1457048E+00
          2   -1    0    0  502    0  0.00000000000E+00  0.00000000000E+00  0.12617482974E+04  0.12617482974E+04  0.00000000000E+00 0. -1.
         -2   -1    0    0    0  501 -0.00000000000E+00 -0.00000000000E+00 -0.76173628664E+00  0.76173628664E+00  0.00000000000E+00 0.  1.
          1    1    1    2  502    0  0.25439485496E+02 -0.57560601106E+01  0.97170978475E+03  0.97205977462E+03  0.00000000000E+00 0. -1.
         -1    1    1    2    0  501 -0.25439485496E+02  0.57560601106E+01  0.28927677641E+03  0.29045025911E+03  0.00000000000E+00 0.  1.
</event>
<event>
 4    1  0.6888348E+001  0.3329902E+02  0.7546771E-02  0.1392933E+00
          2   -1    0    0  502    0  0.00000000000E+00  0.00000000000E+00  0.12436656541E+03  0.12436656541E+03  0.00000000000E+00 0.  1.
         -2   -1    0    0    0  501 -0.00000000000E+00 -0.00000000000E+00 -0.92603435586E+01  0.92603435586E+01  0.00000000000E+00 0. -1.
          1    1    1    2  502    0  0.31413363484E+02 -0.11046499586E+02  0.70441153594E+02  0.77915214677E+02  0.00000000000E+00 0.  1.
         -1    1    1    2    0  501 -0.31413363484E+02  0.11046499586E+02  0.44665068260E+02  0.55711694294E+02  0.00000000000E+00 0. -1.
</event>
<event>
 4    1  0.6888348E+001  0.3398119E+02  0.7546771E-02  0.1387871E+00
          2   -1    0    0  502    0  0.00000000000E+00  0.00000000000E+00  0.20771548014E+04  0.20771548014E+04  0.00000000000E+00 0.  1.
         -2   -1    0    0    0  501 -0.00000000000E+00 -0.00000000000E+00 -0.82830057236E+00  0.82830057236E+00  0.00000000000E+00 0. -1.
          1    1    1    2  502    0  0.16847852573E+02  0.29510528814E+02  0.16339764358E+04  0.16343297446E+04  0.00000000000E+00 0.  1.
         -1    1    1    2    0  501 -0.16847852573E+02 -0.29510528814E+02  0.44235006501E+03  0.44365335732E+03  0.00000000000E+00 0. -1.
</event>
<event>
 4    1  0.6888348E+001  0.2155565E+02  0.7546771E-02  0.1511477E+00
          2   -1    0    0  502    0  0.00000000000E+00  0.00000000000E+00  0.13796714059E+03  0.13796714059E+03  0.00000000000E+00 0. -1.
         -2   -1    0    0    0  501 -0.00000000000E+00 -0.00000000000E+00 -0.33724313535E+01  0.33724313535E+01  0.00000000000E+00 0.  1.
          1    1    1    2  502    0  0.78511082237E+01 -0.20075010506E+02  0.69915805522E+02  0.73163281835E+02  0.00000000000E+00 0.  1.
         -1    1    1    2    0  501 -0.78511082237E+01  0.20075010506E+02  0.64678903711E+02  0.68176290105E+02  0.00000000000E+00 0. -1.
</event>
<event>
 4    1  0.6888348E+001  0.2800481E+02  0.7546771E-02  0.1437768E+00
          2   -1    0    0  502    0  0.00000000000E+00  0.00000000000E+00  0.71350191438E+03  0.71350191438E+03  0.00000000000E+00 0. -1.
         -2   -1    0    0    0  501 -0.00000000000E+00 -0.00000000000E+00 -0.12334453694E+01  0.12334453694E+01  0.00000000000E+00 0.  1.
          1    1    1    2  502    0  0.47330594028E+01 -0.27601943425E+02  0.23822914200E+03  0.23986953377E+03  0.00000000000E+00 0.  1.
         -1    1    1    2    0  501 -0.47330594028E+01  0.27601943425E+02  0.47403932702E+03  0.47486582599E+03  0.00000000000E+00 0. -1.
</event>
<event>
 4    1  0.6888348E+001  0.4402638E+02  0.7546771E-02  0.1326380E+00
          2   -1    0    0  502    0  0.00000000000E+00  0.00000000000E+00  0.15312766477E+02  0.15312766477E+02  0.00000000000E+00 0.  1.
         -2   -1    0    0    0  501 -0.00000000000E+00 -0.00000000000E+00 -0.13255276134E+03  0.13255276134E+03  0.00000000000E+00 0. -1.
          1    1    1    2  502    0  0.15166227905E+02  0.41331677429E+02 -0.42928874254E+02  0.61491546352E+02  0.00000000000E+00 0.  1.
         -1    1    1    2    0  501 -0.15166227905E+02 -0.41331677429E+02 -0.74311120607E+02  0.86373981463E+02  0.00000000000E+00 0. -1.
</event>
<event>
 4    1  0.6888348E+001  0.3330529E+02  0.7546771E-02  0.1392886E+00
          2   -1    0    0  502    0  0.00000000000E+00  0.00000000000E+00  0.28094362364E+02  0.28094362364E+02  0.00000000000E+00 0.  1.
         -2   -1    0    0    0  501 -0.00000000000E+00 -0.00000000000E+00 -0.39494885294E+02  0.39494885294E+02  0.00000000000E+00 0. -1.
          1    1    1    2  502    0  0.63634395732E+01  0.32691725431E+02 -0.51075220276E+01  0.33694644324E+02  0.00000000000E+00 0.  1.
         -1    1    1    2    0  501 -0.63634395732E+01 -0.32691725431E+02 -0.62930009022E+01  0.33894603335E+02  0.00000000000E+00 0. -1.
</event>
<event>
 4    1  0.6888348E+001  0.2569884E+02  0.7546771E-02  0.1461135E+00
          2   -1    0    0  502    0  0.00000000000E+00  0.00000000000E+00  0.17486100119E+04  0.17486100119E+04  0.00000000000E+00 0.  1.
         -2   -1    0    0    0  501 -0.00000000000E+00 -0.00000000000E+00 -0.64989888278E+00  0.64989888278E+00  0.00000000000E+00 0. -1.
          1    1    1    2  502    0  0.46138495417E+01 -0.25281274214E+02  0.30793168064E+03  0.30900218506E+03  0.00000000000E+00 0. -1.
         -1    1    1    2    0  501 -0.46138495417E+01  0.25281274214E+02  0.14400284324E+04  0.14402577257E+04  0.00000000000E+00 0.  1.
</event>
<event>
 4    1  0.6888348E+001  0.2857644E+02  0.7546771E-02  0.1432384E+00
          2   -1    0    0  502    0  0.00000000000E+00  0.00000000000E+00  0.13234902895E+03  0.13234902895E+03  0.00000000000E+00 0.  1.
         -2   -1    0    0    0  501 -0.00000000000E+00 -0.00000000000E+00 -0.88595678133E+01  0.88595678133E+01  0.00000000000E+00 0. -1.
          1    1    1    2  502    0 -0.71260942810E+01  0.27673668807E+02  0.10064513634E+03  0.10462340385E+03  0.00000000000E+00 0.  1.
         -1    1    1    2    0  501  0.71260942810E+01 -0.27673668807E+02  0.22844324801E+02  0.36585192914E+02  0.00000000000E+00 0. -1.
</event>
<event>
 4    1  0.6888348E+001  0.2197181E+02  0.7546771E-02  0.1505829E+00
          2   -1    0    0  502    0  0.00000000000E+00  0.00000000000E+00  0.22025419456E+02  0.22025419456E+02  0.00000000000E+00 0. -1.
         -2   -1    0    0    0  501 -0.00000000000E+00 -0.00000000000E+00 -0.46529405934E+02  0.46529405934E+02  0.00000000000E+00 0.  1.
          1    1    1    2  502    0 -0.19062209395E+02 -0.10926686347E+02 -0.37181266834E+02  0.43188041226E+02  0.00000000000E+00 0.  1.
         -1    1    1    2    0  501  0.19062209395E+02  0.10926686347E+02  0.12677280357E+02  0.25366784163E+02  0.00000000000E+00 0. -1.
</event>
<event>
 4    1  0.6888348E+001  0.3343030E+02  0.7546771E-02  0.1391948E+00
          2   -1    0    0  502    0  0.00000000000E+00  0.00000000000E+00  0.10748803345E+01  0.10748803345E+01  0.00000000000E+00 0. -1.
         -2   -1    0    0    0  501 -0.00000000000E+00 -0.00000000000E+00 -0.10507437378E+04  0.10507437378E+04  0.00000000000E+00 0.  1.
          1    1    1    2  502    0  0.33428505108E+02 -0.34614316403E+00 -0.57867877586E+03  0.57964360637E+03  0.00000000000E+00 0.  1.
         -1    1    1    2    0  501 -0.33428505108E+02  0.34614316403E+00 -0.47099008159E+03  0.47217501175E+03  0.00000000000E+00 0. -1.
</event>
<event>
 4    1  0.6888348E+001  0.2334081E+02  0.7546771E-02  0.1488262E+00
          2   -1    0    0  502    0  0.00000000000E+00  0.00000000000E+00  0.22091189443E+00  0.22091189443E+00  0.00000000000E+00 0. -1.
         -2   -1    0    0    0  501 -0.00000000000E+00 -0.00000000000E+00 -0.25407927035E+04  0.25407927035E+04  0.00000000000E+00 0.  1.
          1    1    1    2  502    0  0.17666270142E+02  0.15254382413E+02 -0.14881065631E+04  0.14882896010E+04  0.00000000000E+00 0.  1.
         -1    1    1    2    0  501 -0.17666270142E+02 -0.15254382413E+02 -0.10524652285E+04  0.10527240143E+04  0.00000000000E+00 0. -1.
</event>
<event>
 4    1  0.6888348E+001  0.2036711E+02  0.7546771E-02  0.1528496E+00
          2   -1    0    0  502    0  0.00000000000E+00  0.00000000000E+00  0.18118003753E+01  0.18118003753E+01  0.00000000000E+00 0. -1.
         -2   -1    0    0    0  501 -0.00000000000E+00 -0.00000000000E+00 -0.22906589580E+03  0.22906589580E+03  0.00000000000E+00 0.  1.
          1    1    1    2  502    0  0.18013588441E+02 -0.95042087931E+01 -0.11617586593E+03  0.11794766287E+03  0.00000000000E+00 0.  1.
         -1    1    1    2    0  501 -0.18013588441E+02  0.95042087931E+01 -0.11107822950E+03  0.11293003330E+03  0.00000000000E+00 0. -1.
</event>
<event>
 4    1  0.6888348E+001  0.3864867E+02  0.7546771E-02  0.1356592E+00
          2   -1    0    0  502    0  0.00000000000E+00  0.00000000000E+00  0.90027988018E+02  0.90027988018E+02  0.00000000000E+00 0.  1.
         -2   -1    0    0    0  501 -0.00000000000E+00 -0.00000000000E+00 -0.17291042999E+02  0.17291042999E+02  0.00000000000E+00 0. -1.
          1    1    1    2  502    0 -0.11353842338E+02  0.36943333677E+02  0.25577180673E+02  0.46345569477E+02  0.00000000000E+00 0. -1.
         -1    1    1    2    0  501  0.11353842338E+02 -0.36943333677E+02  0.47159764346E+02  0.60973461540E+02  0.00000000000E+00 0.  1.
</event>
<event>
 4    1  0.6888348E+001  0.3602269E+02  0.7546771E-02  0.1373513E+00
          2   -1    0    0  502    0  0.00000000000E+00  0.00000000000E+00  0.33519849333E+01  0.33519849333E+01  0.00000000000E+00 0. -1.
         -2   -1    0    0    0  501 -0.00000000000E+00 -0.00000000000E+00 -0.77478089798E+03  0.77478089798E+03  0.00000000000E+00 0.  1.
          1    1    1    2  502    0 -0.98132216841E+01 -0.34660274436E+02 -0.11050835580E+03  0.11623136687E+03  0.00000000000E+00 0. -1.
         -1    1    1    2    0  501  0.98132216841E+01  0.34660274436E+02 -0.66092055724E+03  0.66190151603E+03  0.00000000000E+00 0.  1.
</event>
<event>
 4    1  0.6888348E+001  0.2821284E+02  0.7546771E-02  0.1435791E+00
          2   -1    0    0  502    0  0.00000000000E+00  0.00000000000E+00  0.41404050249E+03  0.41404050249E+03  0.00000000000E+00 0. -1.
         -2   -1    0    0    0  501 -0.00000000000E+00 -0.00000000000E+00 -0.31651688779E+01  0.31651688779E+01  0.00000000000E+00 0.  1.
          1    1    1    2  502    0 -0.27177665253E+02 -0.75722310191E+01  0.33614850072E+03  0.33733037027E+03  0.00000000000E+00 0. -1.
         -1    1    1    2    0  501  0.27177665253E+02  0.75722310191E+01  0.74726832897E+02  0.79875301101E+02  0.00000000000E+00 0.  1.
</event>
<event>
 4    1  0.6888348E+001  0.2985318E+02  0.7546771E-02  0.1420877E+00
          2   -1    0    0  502    0  0.00000000000E+00  0.00000000000E+00  0.10303642814E+04  0.10303642814E+04  0.00000000000E+00 0. -1.
         -2   -1    0    0    0  501 -0.00000000000E+00 -0.00000000000E+00 -0.10270227353E+01  0.10270227353E+01  0.00000000000E+00 0.  1.
          1    1    1    2  502    0  0.17574485074E+02  0.24131927392E+02  0.71952991977E+03  0.72014895535E+03  0.00000000000E+00 0.  1.
         -1    1    1    2    0  501 -0.17574485074E+02 -0.24131927392E+02  0.30980733888E+03  0.31124234878E+03  0.00000000000E+00 0. -1.
</event>
<event>
 4    1  0.6888348E+001  0.2595495E+02  0.7546771E-02  0.1458398E+00
          2   -1    0    0  502    0  0.00000000000E+00  0.00000000000E+00  0.35576292240E+02  0.35576292240E+02  0.00000000000E+00 0. -1.
         -2   -1    0    0    0  501 -0.00000000000E+00 -0.00000000000E+00 -0.20912875114E+02  0.20912875114E+02  0.00000000000E+00 0.  1.
          1    1    1    2  502    0  0.25954942062E+02 -0.17567088290E-01  0.16016494506E+02  0.30498974118E+02  0.00000000000E+00 0. -1.
         -1    1    1    2    0  501 -0.25954942062E+02  0.17567088290E-01 -0.13530773791E+01  0.25990193235E+02  0.00000000000E+00 0.  1.
</event>
<event>
 4    1  0.6888348E+001  0.3384267E+02  0.7546771E-02  0.1388887E+00
          2   -1    0    0  502    0  0.00000000000E+00  0.00000000000E+00  0.22893588629E+02  0.22893588629E+02  0.00000000000E+00 0.  1.
         -2   -1    0    0    0  501 -0.00000000000E+00 -0.00000000000E+00 -0.50626486033E+02  0.50626486033E+02  0.00000000000E+00 0. -1.
          1    1    1    2  502    0 -0.83268294456E+01 -0.32802288236E+02 -0.98704723332E+01  0.35252693886E+02  0.00000000000E+00 0.  1.
         -1    1    1    2    0  501  0.83268294456E+01  0.32802288236E+02 -0.17862425071E+02  0.38267380777E+02  0.00000000000E+00 0. -1.
</event>
<event>
 4    1  0.6888348E+001  0.4557043E+02  0.7546771E-02  0.1318611E+00
          2   -1    0    0  502    0  0.00000000000E+00  0.00000000000E+00  0.88749900238E+02  0.88749900238E+02  0.00000000000E+00 0.  1.
         -2   -1    0    0    0  501 -0.00000000000E+00 -0.00000000000E+00 -0.30325706316E+02  0.30325706316E+02  0.00000000000E+00 0. -1.
          1    1    1    2  502    0  0.44740383353E+02  0.86580778269E+01  0.75773446355E+00  0.45576730639E+02  0.00000000000E+00 0. -1.
         -1    1    1    2    0  501 -0.44740383353E+02 -0.86580778269E+01  0.57666459459E+02  0.73498875915E+02  0.00000000000E+00 0.  1.
</event>
<event>
 4    1  0.6888348E+001  0.2174995E+02  0.7546771E-02  0.1508821E+00
          2   -1    0    0  502    0  0.00000000000E+00  0.00000000000E+00  0.27254420985E+03  0.27254420985E+03  0.00000000000E+00 0. -1.
         -2   -1    0    0    0  501 -0.00000000000E+00 -0.00000000000E+00 -0.18584917479E+01  0.18584917479E+01  0.00000000000E+00 0.  1.
          1    1    1    2  502    0 -0.17260921360E+02 -0.13233324055E+02  0.17060659765E+03  0.17198741650E+03  0.00000000000E+00 0. -1.
         -1    1    1    2    0  501  0.17260921360E+02  0.13233324055E+02  0.10007912045E+03  0.10241528510E+03  0.00000000000E+00 0.  1.
</event>
<event>
 4    1  0.6888348E+001  0.3249797E+02  0.7546771E-02  0.1399061E+00
          2   -1    0    0  502    0  0.00000000000E+00  0.00000000000E+00  0.22259184579E+02  0.22259184579E+02  0.00000000000E+00 0.  1.
         -2   -1    0    0    0  501 -0.00000000000E+00 -0.00000000000E+00 -0.71156717914E+02  0.71156717914E+02  0.00000000000E+00 0. -1.
          1    1    1    2  502    0  0.29601908655E+02  0.13410635340E+02 -0.51410733416E+02  0.60820898108E+02  0.00000000000E+00 0. -1.
         -1    1    1    2    0  501 -0.29601908655E+02 -0.13410635340E+02  0.25132000803E+01  0.32595004385E+02  0.00000000000E+00 0.  1.
</event>
<event>
 4    1  0.6888348E+001  0.2505090E+02  0.7546771E-02  0.1468235E+00
          2   -1    0    0  502    0  0.00000000000E+00  0.00000000000E+00  0.13993311175E+02  0.13993311175E+02  0.00000000000E+00 0. -1.
         -2   -1    0    0    0  501 -0.00000000000E+00 -0.00000000000E+00 -0.48917566578E+02  0.48917566578E+02  0.00000000000E+00 0.  1.
          1    1    1    2  502    0  0.70813176179E+01  0.24029205108E+02 -0.83874773262E+01  0.26417750344E+02  0.00000000000E+00 0. -1.
         -1    1    1    2    0  501 -0.70813176179E+01 -0.24029205108E+02 -0.26536778077E+02  0.36493127408E+02  0.00000000000E+00 0.  1.
</event>
<event>
 4    1  0.6888348E+001  0.3777850E+02  0.7546771E-02  0.1362020E+00
          2   -1    0    0  502    0  0.00000000000E+00  0.00000000000E+00  0.14222729902E+03  0.14222729902E+03  0.00000000000E+00 0. -1.
         -2   -1    0    0    0  501 -0.00000000000E+00 -0.00000000000E+00 -0.11831996937E+02  0.11831996937E+02  0.00000000000E+00 0.  1.
          1    1    1    2  502    0  0.33073992347E+02 -0.18257211156E+02  0.35176086203E+02  0.51619490210E+02  0.00000000000E+00 0.  1.
         -1    1    1    2    0  501 -0.33073992347E+02  0.18257211156E+02  0.95219215879E+02  0.10243980575E+03  0.00000000000E+00 0. -1.
</event>
<event>
 4    1  0.6888348E+001  0.2254314E+02  0.7546771E-02  0.1498316E+00
          2   -1    0    0  502    0  0.00000000000E+00  0.00000000000E+00  0.19572606447E+03  0.19572606447E+03  0.00000000000E+00 0. -1.
         -2   -1    0    0    0  501 -0.00000000000E+00 -0.00000000000E+00 -0.29916199879E+01  0.29916199879E+01  0.00000000000E+00 0.  1.
          1    1    1    2  502    0 -0.54406066499E+01 -0.21876763310E+02  0.60255750242E+02  0.64334659484E+02  0.00000000000E+00 0. -1.
         -1    1    1    2    0  501  0.54406066499E+01  0.21876763310E+02  0.13247869424E+03  0.13438302497E+03  0.00000000000E+00 0.  1.
</event>
<event>
 4    1  0.6888348E+001  0.2524792E+02  0.7546771E-02  0.1466049E+00
          2   -1    0    0  502    0  0.00000000000E+00  0.00000000000E+00  0.38441771013E+02  0.38441771013E+02  0.00000000000E+00 0. -1.
         -2   -1    0    0    0  501 -0.00000000000E+00 -0.00000000000E+00 -0.24212171896E+02  0.24212171896E+02  0.00000000000E+00 0.  1.
          1    1    1    2  502    0  0.14641895580E+02 -0.20568726079E+02 -0.10470782214E+02  0.27333036400E+02  0.00000000000E+00 0.  1.
         -1    1    1    2    0  501 -0.14641895580E+02  0.20568726079E+02  0.24700381332E+02  0.35320906509E+02  0.00000000000E+00 0. -1.
</event>
<event>
 4    1  0.6888348E+001  0.2813877E+02  0.7546771E-02  0.1436493E+00
          2   -1    0    0  502    0  0.00000000000E+00  0.00000000000E+00  0.43725842065E+02  0.43725842065E+02  0.00000000000E+00 0. -1.
         -2   -1    0    0    0  501 -0.00000000000E+00 -0.00000000000E+00 -0.78724283354E+02  0.78724283354E+02  0.00000000000E+00 0.  1.
          1    1    1    2  502    0 -0.28137123925E+02 -0.30399256619E+00  0.36224900455E+02  0.45869745663E+02  0.00000000000E+00 0. -1.
         -1    1    1    2    0  501  0.28137123925E+02  0.30399256619E+00 -0.71223341745E+02  0.76580379756E+02  0.00000000000E+00 0.  1.
</event>
<event>
 4    1  0.6888348E+001  0.6492758E+02  0.7546771E-02  0.1243951E+00
          2   -1    0    0  502    0  0.00000000000E+00  0.00000000000E+00  0.26185203323E+03  0.26185203323E+03  0.00000000000E+00 0. -1.
         -2   -1    0    0    0  501 -0.00000000000E+00 -0.00000000000E+00 -0.17830694999E+02  0.17830694999E+02  0.00000000000E+00 0.  1.
          1    1    1    2  502    0 -0.92573149540E+01  0.64264244582E+02  0.16558898015E+03  0.17786315346E+03  0.00000000000E+00 0. -1.
         -1    1    1    2    0  501  0.92573149540E+01 -0.64264244582E+02  0.78432358080E+02  0.10181957477E+03  0.00000000000E+00 0.  1.
</event>
<event>
 4    1  0.6888348E+001  0.2341832E+02  0.7546771E-02  0.1487311E+00
          2   -1    0    0  502    0  0.00000000000E+00  0.00000000000E+00  0.68989239810E+03  0.68989239810E+03  0.00000000000E+00 0. -1.
         -2   -1    0    0    0  501 -0.00000000000E+00 -0.00000000000E+00 -0.85124305332E+00  0.85124305332E+00  0.00000000000E+00 0.  1.
          1    1    1    2  502    0 -0.17736353364E+02  0.15291814162E+02  0.43334971427E+03  0.43398201883E+03  0.00000000000E+00 0. -1.
         -1    1    1    2    0  501  0.17736353364E+02 -0.15291814162E+02  0.25569144079E+03  0.25676162233E+03  0.00000000000E+00 0.  1.
</event>
<event>
 4    1  0.6888348E+001  0.3819993E+02  0.7546771E-02  0.1359370E+00
          2   -1    0    0  502    0  0.00000000000E+00  0.00000000000E+00  0.77881919676E+01  0.77881919676E+01  0.00000000000E+00 0.  1.
         -2   -1    0    0    0  501 -0.00000000000E+00 -0.00000000000E+00 -0.19236390364E+03  0.19236390364E+03  0.00000000000E+00 0. -1.
          1    1    1    2  502    0 -0.28416151563E+02 -0.25529528780E+02 -0.76155188579E+02  0.85198868871E+02  0.00000000000E+00 0.  1.
         -1    1    1    2    0  501  0.28416151563E+02  0.25529528780E+02 -0.10842052309E+03  0.11495322674E+03  0.00000000000E+00 0. -1.
</event>
<event>
 4    1  0.6888348E+001  0.2048697E+02  0.7546771E-02  0.1526717E+00
          2   -1    0    0  502    0  0.00000000000E+00  0.00000000000E+00  0.63546137667E+03  0.63546137667E+03  0.00000000000E+00 0. -1.
         -2   -1    0    0    0  501 -0.00000000000E+00 -0.00000000000E+00 -0.99088883543E+00  0.99088883543E+00  0.00000000000E+00 0.  1.
          1    1    1    2  502    0 -0.17788115288E+02 -0.10163605476E+02  0.13347879521E+03  0.13504186274E+03  0.00000000000E+00 0.  1.
         -1    1    1    2    0  501  0.17788115288E+02  0.10163605476E+02  0.50099169262E+03  0.50141040276E+03  0.00000000000E+00 0. -1.
</event>
<event>
 4    1  0.6888348E+001  0.3850903E+02  0.7546771E-02  0.1357451E+00
          2   -1    0    0  502    0  0.00000000000E+00  0.00000000000E+00  0.40484056399E+02  0.40484056399E+02  0.00000000000E+00 0. -1.
         -2   -1    0    0    0  501 -0.00000000000E+00 -0.00000000000E+00 -0.62217537711E+02  0.62217537711E+02  0.00000000000E+00 0.  1.
          1    1    1    2  502    0 -0.81652395592E-01  0.38508948100E+02 -0.43797514161E+02  0.58319533585E+02  0.00000000000E+00 0.  1.
         -1    1    1    2    0  501  0.81652395592E-01 -0.38508948100E+02  0.22064032850E+02  0.44382060525E+02  0.00000000000E+00 0. -1.
</event>
<event>
 4    1  0.6888348E+001  0.2563648E+02  0.7546771E-02  0.1461808E+00
          2   -1    0    0  502    0  0.00000000000E+00  0.00000000000E+00  0.33118280360E+03  0.33118280360E+03  0.00000000000E+00 0.  1.
         -2   -1    0    0    0  501 -0.00000000000E+00 -0.00000000000E+00 -0.24780447831E+01  0.24780447831E+01  0.00000000000E+00 0. -1.
          1    1    1    2  502    0  0.24306390871E+02 -0.81503583394E+01  0.23880643163E+03  0.24017856017E+03  0.00000000000E+00 0.  1.
         -1    1    1    2    0  501 -0.24306390871E+02  0.81503583394E+01  0.89898327185E+02  0.93482288210E+02  0.00000000000E+00 0. -1.
</event>
<event>
 4    1  0.6888348E+001  0.2893246E+02  0.7546771E-02  0.1429106E+00
          2   -1    0    0  502    0  0.00000000000E+00  0.00000000000E+00  0.15876805141E+02  0.15876805141E+02  0.00000000000E+00 0.  1.
         -2   -1    0    0    0  501 -0.00000000000E+00 -0.00000000000E+00 -0.52916713813E+02  0.52916713813E+02  0.00000000000E+00 0. -1.
          1    1    1    2  502    0  0.85817183022E+01 -0.27630443769E+02 -0.16443730443E+02  0.33278875924E+02  0.00000000000E+00 0. -1.
         -1    1    1    2    0  501 -0.85817183022E+01  0.27630443769E+02 -0.20596178229E+02  0.35514643030E+02  0.00000000000E+00 0.  1.
</event>
<event>
 4    1  0.6888348E+001  0.2388902E+02  0.7546771E-02  0.1481626E+00
          2   -1    0    0  502    0  0.00000000000E+00  0.00000000000E+00  0.93500022780E+03  0.93500022780E+03  0.00000000000E+00 0. -1.
         -2   -1    0    0    0  501 -0.00000000000E+00 -0.00000000000E+00 -0.64728785412E+00  0.64728785412E+00  0.00000000000E+00 0.  1.
          1    1    1    2  502    0  0.20982166410E+02 -0.11420774659E+02  0.35543381279E+03  0.35623570943E+03  0.00000000000E+00 0.  1.
         -1    1    1    2    0  501 -0.20982166410E+02  0.11420774659E+02  0.57891912716E+03  0.57941180622E+03  0.00000000000E+00 0. -1.
</event>
<event>
 4    1  0.6888348E+001  0.2631384E+02  0.7546771E-02  0.1454625E+00
          2   -1    0    0  502    0  0.00000000000E+00  0.00000000000E+00  0.10851620795E+03  0.10851620795E+03  0.00000000000E+00 0. -1.
         -2   -1    0    0    0  501 -0.00000000000E+00 -0.00000000000E+00 -0.70516067607E+01  0.70516067607E+01  0.00000000000E+00 0.  1.
          1    1    1    2  502    0  0.24743562679E+02  0.89540004086E+01  0.68554781076E+02  0.73431437584E+02  0.00000000000E+00 0. -1.
         -1    1    1    2    0  501 -0.24743562679E+02 -0.89540004086E+01  0.32909820111E+02  0.42136377124E+02  0.00000000000E+00 0.  1.
</event>
<event>
 4    1  0.6888348E+001  0.2012099E+02  0.7546771E-02  0.1532194E+00
          2   -1    0    0  502    0  0.00000000000E+00  0.00000000000E+00  0.18886388963E+03  0.18886388963E+03  0.00000000000E+00 0.  1.
         -2   -1    0    0    0  501 -0.00000000000E+00 -0.00000000000E+00 -0.25986095323E+01  0.25986095323E+01  0.00000000000E+00 0. -1.
          1    1    1    2  502    0 -0.15183350710E+02  0.13203038647E+02  0.13318969082E+03  0.13470095808E+03  0.00000000000E+00 0.  1.
         -1    1    1    2    0  501  0.15183350710E+02 -0.13203038647E+02  0.53075589276E+02  0.56761541076E+02  0.00000000000E+00 0. -1.
</event>
<event>
 4    1  0.6888348E+001  0.3111459E+02  0.7546771E-02  0.1410152E+00
          2   -1    0    0  502    0  0.00000000000E+00  0.00000000000E+00  0.15627704613E+04  0.15627704613E+04  0.00000000000E+00 0.  1.
         -2   -1    0    0    0  501 -0.00000000000E+00 -0.00000000000E+00 -0.78111292431E+00  0.78111292431E+00  0.00000000000E+00 0. -1.
          1    1    1    2  502    0 -0.15465439041E+02 -0.26998852531E+02  0.42538037376E+03  0.42651679946E+03  0.00000000000E+00 0. -1.
         -1    1    1    2    0  501  0.15465439041E+02  0.26998852531E+02  0.11366089746E+04  0.11370347747E+04  0.00000000000E+00 0.  1.
</event>
<event>
 4    1  0.6888348E+001  0.2174245E+02  0.7546771E-02  0.1508923E+00
          2   -1    0    0  502    0  0.00000000000E+00  0.00000000000E+00  0.10218552933E+03  0.10218552933E+03  0.00000000000E+00 0. -1.
         -2   -1    0    0    0  501 -0.00000000000E+00 -0.00000000000E+00 -0.50492696392E+01  0.50492696392E+01  0.00000000000E+00 0.  1.
          1    1    1    2  502    0 -0.10269423540E+02 -0.19164369923E+02  0.64087715506E+02  0.67675471281E+02  0.00000000000E+00 0. -1.
         -1    1    1    2    0  501  0.10269423540E+02  0.19164369923E+02  0.33048544189E+02  0.39559327692E+02  0.00000000000E+00 0.  1.
</event>
<event>
 4    1  0.6888348E+001  0.2274821E+02  0.7546771E-02  0.1495684E+00
          2   -1    0    0  502    0  0.00000000000E+00  0.00000000000E+00  0.31163537158E+03  0.31163537158E+03  0.00000000000E+00 0.  1.
         -2   -1    0    0    0  501 -0.00000000000E+00 -0.00000000000E+00 -0.16942223623E+01  0.16942223623E+01  0.00000000000E+00 0. -1.
          1    1    1    2  502    0  0.13237433797E+02 -0.18500042397E+02  0.17706202651E+03  0.17851734497E+03  0.00000000000E+00 0.  1.
         -1    1    1    2    0  501 -0.13237433797E+02  0.18500042397E+02  0.13287912271E+03  0.13481224897E+03  0.00000000000E+00 0. -1.
</event>
<event>
 4    1  0.6888348E+001  0.4495411E+02  0.7546771E-02  0.1321669E+00
          2   -1    0    0  502    0  0.00000000000E+00  0.00000000000E+00  0.13068912628E+04  0.13068912628E+04  0.00000000000E+00 0.  1.
         -2   -1    0    0    0  501 -0.00000000000E+00 -0.00000000000E+00 -0.15766418199E+01  0.15766418199E+01  0.00000000000E+00 0. -1.
          1    1    1    2  502    0 -0.29512158849E+02 -0.33910236724E+02  0.56192823059E+03  0.56372352090E+03  0.00000000000E+00 0. -1.
         -1    1    1    2    0  501  0.29512158849E+02  0.33910236724E+02  0.74338639034E+03  0.74474438368E+03  0.00000000000E+00 0.  1.
</event>
<event>
 4    1  0.6888348E+001  0.4870903E+02  0.7546771E-02  0.1303869E+00
          2   -1    0    0  502    0  0.00000000000E+00  0.00000000000E+00  0.48986679492E+02  0.48986679492E+02  0.00000000000E+00 0.  1.
         -2   -1    0    0    0  501 -0.00000000000E+00 -0.00000000000E+00 -0.20010731639E+03  0.20010731639E+03  0.00000000000E+00 0. -1.
          1    1    1    2  502    0  0.47223234603E+02  0.11938830748E+02  0.32871781788E+02  0.58763284488E+02  0.00000000000E+00 0.  1.
         -1    1    1    2    0  501 -0.47223234603E+02 -0.11938830748E+02 -0.18399241869E+03  0.19033071140E+03  0.00000000000E+00 0. -1.
</event>
<event>
 4    1  0.6888348E+001  0.2546163E+02  0.7546771E-02  0.1463705E+00
          2   -1    0    0  502    0  0.00000000000E+00  0.00000000000E+00  0.23330918156E+02  0.23330918156E+02  0.00000000000E+00 0. -1.
         -2   -1    0    0    0  501 -0.00000000000E+00 -0.00000000000E+00 -0.28753471959E+02  0.28753471959E+02  0.00000000000E+00 0.  1.
          1    1    1    2  502    0 -0.40771852996E+01  0.25133066680E+02 -0.74859522387E+01  0.26539290903E+02  0.00000000000E+00 0.  1.
         -1    1    1    2    0  501  0.40771852996E+01 -0.25133066680E+02  0.20633984360E+01  0.25545099213E+02  0.00000000000E+00 0. -1.
</event>
<event>
 4    1  0.6888348E+001  0.2923667E+02  0.7546771E-02  0.1426348E+00
          2   -1    0    0  502    0  0.00000000000E+00  0.00000000000E+00  0.10755589494E+02  0.10755589494E+02  0.00000000000E+00 0.  1.
         -2   -1    0    0    0  501 -0.00000000000E+00 -0.00000000000E+00 -0.83322150698E+02  0.83322150698E+02  0.00000000000E+00 0. -1.
          1    1    1    2  502    0  0.13341199923E+02 -0.26015290543E+02 -0.46392977968E+02  0.54836952524E+02  0.00000000000E+00 0.  1.
         -1    1    1    2    0  501 -0.13341199923E+02  0.26015290543E+02 -0.26173583235E+02  0.39240787668E+02  0.00000000000E+00 0. -1.
</event>
<event>
 4    1  0.6888348E+001  0.2950179E+02  0.7546771E-02  0.1423976E+00
          2   -1    0    0  502    0  0.00000000000E+00  0.00000000000E+00  0.79258202848E+00  0.79258202848E+00  0.00000000000E+00 0. -1.
         -2   -1    0    0    0  501 -0.00000000000E+00 -0.00000000000E+00 -0.14804731188E+04  0.14804731188E+04  0.00000000000E+00 0.  1.
          1    1    1    2  502    0  0.23844691726E+02 -0.17371993683E+02 -0.36345620988E+03  0.36465157615E+03  0.00000000000E+00 0. -1.
         -1    1    1    2    0  501 -0.23844691726E+02  0.17371993683E+02 -0.11162243269E+04  0.11166141247E+04  0.00000000000E+00 0.  1.
</event>
<event>
 4    1  0.6888348E+001  0.3553011E+02  0.7546771E-02  0.1376874E+00
          2   -1    0    0  502    0  0.00000000000E+00  0.00000000000E+00  0.87972413452E+03  0.87972413452E+03  0.00000000000E+00 0.  1.
         -2   -1    0    0    0  501 -0.00000000000E+00 -0.00000000000E+00 -0.34280740784E+01  0.34280740784E+01  0.00000000000E+00 0. -1.
          1    1    1    2  502    0 -0.10512479301E+02 -0.33939310879E+02  0.10144730351E+03  0.10748927590E+03  0.00000000000E+00 0. -1.
         -1    1    1    2    0  501  0.10512479301E+02  0.33939310879E+02  0.77484875693E+03  0.77566293270E+03  0.00000000000E+00 0.  1.
</event>
<event>
 4    1  0.6888348E+001  0.2166829E+02  0.7546771E-02  0.1509934E+00
          2   -1    0    0  502    0  0.00000000000E+00  0.00000000000E+00  0.75907576763E+02  0.75907576763E+02  0.00000000000E+00 0.  1.
         -2   -1    0    0    0  501 -0.00000000000E+00 -0.00000000000E+00 -0.63544606676E+01  0.63544606676E+01  0.00000000000E+00 0. -1.
          1    1    1    2  502    0  0.11307879534E+02  0.18483682316E+02  0.28066591889E+02  0.35457696369E+02  0.00000000000E+00 0. -1.
         -1    1    1    2    0  501 -0.11307879534E+02 -0.18483682316E+02  0.41486524207E+02  0.46804341062E+02  0.00000000000E+00 0.  1.
</event>
<event>
 4    1  0.6888348E+001  0.2523606E+02  0.7546771E-02  0.1466180E+00
          2   -1    0    0  502    0  0.00000000000E+00  0.00000000000E+00  0.12788840917E+03  0.12788840917E+03  0.00000000000E+00 0. -1.
         -2   -1    0    0    0  501 -0.00000000000E+00 -0.00000000000E+00 -0.51581240603E+01  0.51581240603E+01  0.00000000000E+00 0.  1.
          1    1    1    2  502    0 -0.24981998862E+02  0.35719134409E+01  0.48996233873E+02  0.55113426372E+02  0.00000000000E+00 0. -1.
         -1    1    1    2    0  501  0.24981998862E+02 -0.35719134409E+01  0.73734051240E+02  0.77933106861E+02  0.00000000000E+00 0.  1.
</event>
<event>
 4    1  0.6888348E+001  0.2021684E+02  0.7546771E-02  0.1530746E+00
          2   -1    0    0  502    0  0.00000000000E+00  0.00000000000E+00  0.50118868906E+02  0.50118868906E+02  0.00000000000E+00 0. -1.
         -2   -1    0    0    0  501 -0.00000000000E+00 -0.00000000000E+00 -0.82483129607E+01  0.82483129607E+01  0.00000000000E+00 0.  1.
          1    1    1    2  502    0 -0.11117443313E+02 -0.16885584157E+02  0.24038944380E+02  0.31410051656E+02  0.00000000000E+00 0.  1.
         -1    1    1    2    0  501  0.11117443313E+02  0.16885584157E+02  0.17831611566E+02  0.26957130211E+02  0.00000000000E+00 0. -1.
</event>
<event>
 4    1  0.6888348E+001  0.2515080E+02  0.7546771E-02  0.1467123E+00
          2   -1    0    0  502    0  0.00000000000E+00  0.00000000000E+00  0.80549606590E+03  0.80549606590E+03  0.00000000000E+00 0.  1.
         -2   -1    0    0    0  501 -0.00000000000E+00 -0.00000000000E+00 -0.78544797525E+00  0.78544797525E+00  0.00000000000E+00 0. -1.
          1    1    1    2  502    0 -0.19619628935E+02  0.15736348148E+02  0.40773734494E+03  0.40851230698E+03  0.00000000000E+00 0.  1.
         -1    1    1    2    0  501  0.19619628935E+02 -0.15736348148E+02  0.39697327298E+03  0.39776920689E+03  0.00000000000E+00 0. -1.
</event>
<event>
 4    1  0.6888348E+001  0.2855490E+02  0.7546771E-02  0.1432584E+00
          2   -1    0    0  502    0  0.00000000000E+00  0.00000000000E+00  0.55225913280E+03  0.55225913280E+03  0.00000000000E+00 0. -1.
         -2   -1    0    0    0  501 -0.00000000000E+00 -0.00000000000E+00 -0.20353248654E+01  0.20353248654E+01  0.00000000000E+00 0.  1.
          1    1    1    2  502    0  0.27311986256E+02  0.83329391473E+01  0.42034023027E+03  0.42130902156E+03  0.00000000000E+00 0. -1.
         -1    1    1    2    0  501 -0.27311986256E+02 -0.83329391473E+01  0.12988357767E+03  0.13298543611E+03  0.00000000000E+00 0.  1.
</event>
<event>
 4    1  0.6888348E+001  0.1292160E+03  0.7546771E-02  0.1121053E+00
          2   -1    0    0  502    0  0.00000000000E+00  0.00000000000E+00  0.27448891861E+04  0.27448891861E+04  0.00000000000E+00 0. -1.
         -2   -1    0    0    0  501 -0.00000000000E+00 -0.00000000000E+00 -0.64719501661E+01  0.64719501661E+01  0.00000000000E+00 0.  1.
          1    1    1    2  502    0 -0.11999218397E+03  0.47944303310E+02  0.10319023783E+04  0.10399612006E+04  0.00000000000E+00 0.  1.
         -1    1    1    2    0  501  0.11999218397E+03 -0.47944303310E+02  0.17065148576E+04  0.17113999356E+04  0.00000000000E+00 0. -1.
</event>
<event>
 4    1  0.6888348E+001  0.2511949E+02  0.7546771E-02  0.1467471E+00
          2   -1    0    0  502    0  0.00000000000E+00  0.00000000000E+00  0.23095800652E+04  0.23095800652E+04  0.00000000000E+00 0.  1.
         -2   -1    0    0    0  501 -0.00000000000E+00 -0.00000000000E+00 -0.31254767452E+00  0.31254767452E+00  0.00000000000E+00 0. -1.
          1    1    1    2  502    0 -0.12976892861E+02 -0.21507877283E+02  0.74486741283E+03  0.74529085009E+03  0.00000000000E+00 0. -1.
         -1    1    1    2    0  501  0.12976892861E+02  0.21507877283E+02  0.15644001047E+04  0.15646017628E+04  0.00000000000E+00 0.  1.
</event>
<event>
 4    1  0.6888348E+001  0.4727041E+02  0.7546771E-02  0.1310461E+00
          2   -1    0    0  502    0  0.00000000000E+00  0.00000000000E+00  0.34836748327E+04  0.34836748327E+04  0.00000000000E+00 0.  1.
         -2   -1    0    0    0  501 -0.00000000000E+00 -0.00000000000E+00 -0.11678051833E+01  0.11678051833E+01  0.00000000000E+00 0. -1.
          1    1    1    2  502    0  0.34358399737E+02 -0.32465236849E+02  0.57142907444E+03  0.57338091907E+03  0.00000000000E+00 0. -1.
         -1    1    1    2    0  501 -0.34358399737E+02  0.32465236849E+02  0.29110779531E+04  0.29114617188E+04  0.00000000000E+00 0.  1.
</event>
<event>
 4    1  0.6888348E+001  0.2039299E+02  0.7546771E-02  0.1528111E+00
          2   -1    0    0  502    0  0.00000000000E+00  0.00000000000E+00  0.28370440340E+02  0.28370440340E+02  0.00000000000E+00 0. -1.
         -2   -1    0    0    0  501 -0.00000000000E+00 -0.00000000000E+00 -0.16357597960E+02  0.16357597960E+02  0.00000000000E+00 0.  1.
          1    1    1    2  502    0  0.20216432706E+02 -0.26776631627E+01  0.13213720822E+02  0.24299721179E+02  0.00000000000E+00 0.  1.
         -1    1    1    2    0  501 -0.20216432706E+02  0.26776631627E+01 -0.12008784425E+01  0.20428317121E+02  0.00000000000E+00 0. -1.
</event>
<event>
 4    1  0.6888348E+001  0.2080080E+02  0.7546771E-02  0.1522128E+00
          2   -1    0    0  502    0  0.00000000000E+00  0.00000000000E+00  0.29338561899E+02  0.29338561899E+02  0.00000000000E+00 0. -1.
         -2   -1    0    0    0  501 -0.00000000000E+00 -0.00000000000E+00 -0.14972657721E+02  0.14972657721E+02  0.00000000000E+00 0.  1.
          1    1    1    2  502    0 -0.80829745312E+01  0.19166081003E+02  0.98993226700E+01  0.23036269828E+02  0.00000000000E+00 0. -1.
         -1    1    1    2    0  501  0.80829745312E+01 -0.19166081003E+02  0.44665815075E+01  0.21274949791E+02  0.00000000000E+00 0.  1.
</event>
<event>
 4    1  0.6888348E+001  0.2190154E+02  0.7546771E-02  0.1506772E+00
          2   -1    0    0  502    0  0.00000000000E+00  0.00000000000E+00  0.74545025368E+03  0.74545025368E+03  0.00000000000E+00 0.  1.
         -2   -1    0    0    0  501 -0.00000000000E+00 -0.00000000000E+00 -0.83454542431E+00  0.83454542431E+00  0.00000000000E+00 0. -1.
          1    1    1    2  502    0  0.21870083384E+02  0.11734776292E+01  0.19376277873E+03  0.19499664618E+03  0.00000000000E+00 0. -1.
         -1    1    1    2    0  501 -0.21870083384E+02 -0.11734776292E+01  0.55085292952E+03  0.55128815292E+03  0.00000000000E+00 0.  1.
</event>
<event>
 4    1  0.6888348E+001  0.2012520E+02  0.7546771E-02  0.1532130E+00
          2   -1    0    0  502    0  0.00000000000E+00  0.00000000000E+00  0.80252266257E+02  0.80252266257E+02  0.00000000000E+00 0. -1.
         -2   -1    0    0    0  501 -0.00000000000E+00 -0.00000000000E+00 -0.86260805253E+01  0.86260805253E+01  0.00000000000E+00 0.  1.
          1    1    1    2  502    0  0.14852888350E+02  0.13579961473E+02  0.71876531588E+01  0.21370213005E+02  0.00000000000E+00 0.  1.
         -1    1    1    2    0  501 -0.14852888350E+02 -0.13579961473E+02  0.64438532573E+02  0.67508133778E+02  0.00000000000E+00 0. -1.
</event>
<event>
 4    1  0.6888348E+001  0.2115054E+02  0.7546771E-02  0.1517126E+00
          2   -1    0    0  502    0  0.00000000000E+00  0.00000000000E+00  0.30443197447E+02  0.30443197447E+02  0.00000000000E+00 0.  1.
         -2   -1    0    0    0  501 -0.00000000000E+00 -0.00000000000E+00 -0.15170411757E+02  0.15170411757E+02  0.00000000000E+00 0. -1.
          1    1    1    2  502    0  0.12632524609E+02  0.16963625260E+02  0.11676226821E+02  0.24159460522E+02  0.00000000000E+00 0.  1.
         -1    1    1    2    0  501 -0.12632524609E+02 -0.16963625260E+02  0.35965588695E+01  0.21454148682E+02  0.00000000000E+00 0. -1.
</event>
<event>
 4    1  0.6888348E+001  0.2036999E+02  0.7546771E-02  0.1528453E+00
          2   -1    0    0  502    0  0.00000000000E+00  0.00000000000E+00  0.47279753949E+03  0.47279753949E+03  0.00000000000E+00 0. -1.
         -2   -1    0    0    0  501 -0.00000000000E+00 -0.00000000000E+00 -0.97785000300E+00  0.97785000300E+00  0.00000000000E+00 0.  1.
          1    1    1    2  502    0 -0.43371904941E+00  0.20365371606E+02  0.31175113764E+03  0.31241592196E+03  0.00000000000E+00 0. -1.
         -1    1    1    2    0  501  0.43371904941E+00 -0.20365371606E+02  0.16006855185E+03  0.16135946754E+03  0.00000000000E+00 0.  1.
</event>
<event>
 4    1  0.6888348E+001  0.3266550E+02  0.7546771E-02  0.1397763E+00
          2   -1    0    0  502    0  0.00000000000E+00  0.00000000000E+00  0.14452436595E+01  0.14452436595E+01  0.00000000000E+00 0.  1.
         -2   -1    0    0    0  501 -0.00000000000E+00 -0.00000000000E+00 -0.82019526865E+03  0.82019526865E+03  0.00000000000E+00 0. -1.
          1    1    1    2  502    0  0.89462579027E+01  0.31416550843E+02 -0.53918286608E+03  0.54017145266E+03  0.00000000000E+00 0. -1.
         -1    1    1    2    0  501 -0.89462579027E+01 -0.31416550843E+02 -0.27956715892E+03  0.28146905965E+03  0.00000000000E+00 0.  1.
</event>
<event>
 4    1  0.6888348E+001  0.2994145E+02  0.7546771E-02  0.1420106E+00
          2   -1    0    0  502    0  0.00000000000E+00  0.00000000000E+00  0.40481912458E+02  0.40481912458E+02  0.00000000000E+00 0. -1.
         -2   -1    0    0    0  501 -0.00000000000E+00 -0.00000000000E+00 -0.22150051386E+02  0.22150051386E+02  0.00000000000E+00 0.  1.
          1    1    1    2  502    0  0.16711958739E+02 -0.24843526529E+02  0.96170395619E+01  0.31448017826E+02  0.00000000000E+00 0. -1.
         -1    1    1    2    0  501 -0.16711958739E+02  0.24843526529E+02  0.87148215108E+01  0.31183946018E+02  0.00000000000E+00 0.  1.
</event>
<event>
 4    1  0.6888348E+001  0.3029070E+02  0.7546771E-02  0.1417087E+00
          2   -1    0    0  502    0  0.00000000000E+00  0.00000000000E+00  0.12390004160E+04  0.12390004160E+04  0.00000000000E+00 0. -1.
         -2   -1    0    0    0  501 -0.00000000000E+00 -0.00000000000E+00 -0.15725265523E+01  0.15725265523E+01  0.00000000000E+00 0.  1.
          1    1    1    2  502    0  0.29291172753E+02  0.77171129529E+01  0.10698962354E+04  0.10703249419E+04  0.00000000000E+00 0. -1.
         -1    1    1    2    0  501 -0.29291172753E+02 -0.77171129529E+01  0.16753165406E+03  0.17024800070E+03  0.00000000000E+00 0.  1.
</event>
<event>
 4    1  0.6888348E+001  0.2255423E+02  0.7546771E-02  0.1498173E+00
          2   -1    0    0  502    0  0.00000000000E+00  0.00000000000E+00  0.61355532391E+03  0.61355532391E+03  0.00000000000E+00 0.  1.
         -2   -1    0    0    0  501 -0.00000000000E+00 -0.00000000000E+00 -0.10164138382E+01  0.10164138382E+01  0.00000000000E+00 0. -1.
          1    1    1    2  502    0 -0.15132539633E+02  0.16724220164E+02  0.17435193379E+03  0.17580469309E+03  0.00000000000E+00 0. -1.
         -1    1    1    2    0  501  0.15132539633E+02 -0.16724220164E+02  0.43818697627E+03  0.43876704465E+03  0.00000000000E+00 0.  1.
</event>
<event>
 4    1  0.6888348E+001  0.2274322E+02  0.7546771E-02  0.1495748E+00
          2   -1    0    0  502    0  0.00000000000E+00  0.00000000000E+00  0.45790811491E+02  0.45790811491E+02  0.00000000000E+00 0.  1.
         -2   -1    0    0    0  501 -0.00000000000E+00 -0.00000000000E+00 -0.14191045338E+02  0.14191045338E+02  0.00000000000E+00 0. -1.
          1    1    1    2  502    0  0.49780821291E+01 -0.22191724239E+02  0.29345815183E+02  0.37127224447E+02  0.00000000000E+00 0.  1.
         -1    1    1    2    0  501 -0.49780821291E+01  0.22191724239E+02  0.22539509707E+01  0.22854632383E+02  0.00000000000E+00 0. -1.
</event>
<event>
 4    1  0.6888348E+001  0.2815781E+02  0.7546771E-02  0.1436312E+00
          2   -1    0    0  502    0  0.00000000000E+00  0.00000000000E+00  0.26683905205E+02  0.26683905205E+02  0.00000000000E+00 0. -1.
         -2   -1    0    0    0  501 -0.00000000000E+00 -0.00000000000E+00 -0.39432890667E+02  0.39432890667E+02  0.00000000000E+00 0.  1.
          1    1    1    2  502    0 -0.17499915029E+01  0.28103371913E+02  0.10038228148E+02  0.29893611483E+02  0.00000000000E+00 0. -1.
         -1    1    1    2    0  501  0.17499915029E+01 -0.28103371913E+02 -0.22787213610E+02  0.36223184389E+02  0.00000000000E+00 0.  1.
</event>
<event>
 4    1  0.6888348E+001  0.3050558E+02  0.7546771E-02  0.1415253E+00
          2   -1    0    0  502    0  0.00000000000E+00  0.00000000000E+00  0.75279551073E+03  0.75279551073E+03  0.00000000000E+00 0.  1.
         -2   -1    0    0    0  501 -0.00000000000E+00 -0.00000000000E+00 -0.12985737224E+01  0.12985737224E+01  0.00000000000E+00 0. -1.
          1    1    1    2  502    0  0.20327113046E+02  0.22746403899E+02  0.45839683035E+03  0.45941075792E+03  0.00000000000E+00 0.  1.
         -1    1    1    2    0  501 -0.20327113046E+02 -0.22746403899E+02  0.29310010666E+03  0.29468332653E+03  0.00000000000E+00 0. -1.
</event>
<event>
 4    1  0.6888348E+001  0.3039238E+02  0.7546771E-02  0.1416217E+00
          2   -1    0    0  502    0  0.00000000000E+00  0.00000000000E+00  0.37790074009E+03  0.37790074009E+03  0.00000000000E+00 0. -1.
         -2   -1    0    0    0  501 -0.00000000000E+00 -0.00000000000E+00 -0.33089403851E+01  0.33089403851E+01  0.00000000000E+00 0.  1.
          1    1    1    2  502    0 -0.25637194418E+02 -0.16322714321E+02  0.28473005523E+03  0.28634751805E+03  0.00000000000E+00 0. -1.
         -1    1    1    2    0  501  0.25637194418E+02  0.16322714321E+02  0.89861744475E+02  0.94862162429E+02  0.00000000000E+00 0.  1.
</event>
<event>
 4    1  0.6888348E+001  0.3892793E+02  0.7546771E-02  0.1354885E+00
          2   -1    0    0  502    0  0.00000000000E+00  0.00000000000E+00  0.24245320821E+03  0.24245320821E+03  0.00000000000E+00 0. -1.
         -2   -1    0    0    0  501 -0.00000000000E+00 -0.00000000000E+00 -0.70727006038E+01  0.70727006038E+01  0.00000000000E+00 0.  1.
          1    1    1    2  502    0  0.11677369366E+02 -0.37135194459E+02  0.75144294961E+02  0.84628888023E+02  0.00000000000E+00 0.  1.
         -1    1    1    2    0  501 -0.11677369366E+02  0.37135194459E+02  0.16023621265E+03  0.16489702079E+03  0.00000000000E+00 0. -1.
</event>
<event>
 4    1  0.6888348E+001  0.3788551E+02  0.7546771E-02  0.1361343E+00
          2   -1    0    0  502    0  0.00000000000E+00  0.00000000000E+00  0.34092993199E+01  0.34092993199E+01  0.00000000000E+00 0.  1.
         -2   -1    0    0    0  501 -0.00000000000E+00 -0.00000000000E+00 -0.50472961792E+03  0.50472961792E+03  0.00000000000E+00 0. -1.
          1    1    1    2  502    0 -0.10282382564E+02 -0.36463463860E+02 -0.35414225795E+03  0.35616295492E+03  0.00000000000E+00 0.  1.
         -1    1    1    2    0  501  0.10282382564E+02  0.36463463860E+02 -0.14717806064E+03  0.15197596232E+03  0.00000000000E+00 0. -1.
</event>
<event>
 4    1  0.6888348E+001  0.2080254E+02  0.7546771E-02  0.1522103E+00
          2   -1    0    0  502    0  0.00000000000E+00  0.00000000000E+00  0.28172846644E+03  0.28172846644E+03  0.00000000000E+00 0. -1.
         -2   -1    0    0    0  501 -0.00000000000E+00 -0.00000000000E+00 -0.16786743018E+01  0.16786743018E+01  0.00000000000E+00 0.  1.
          1    1    1    2  502    0 -0.10765421947E+02 -0.17800324312E+02  0.18133072956E+03  0.18252007928E+03  0.00000000000E+00 0. -1.
         -1    1    1    2    0  501  0.10765421947E+02  0.17800324312E+02  0.98719062577E+02  0.10088706147E+03  0.00000000000E+00 0.  1.
</event>
<event>
 4    1  0.6888348E+001  0.4140742E+02  0.7546771E-02  0.1340430E+00
          2   -1    0    0  502    0  0.00000000000E+00  0.00000000000E+00  0.70263372002E+03  0.70263372002E+03  0.00000000000E+00 0.  1.
         -2   -1    0    0    0  501 -0.00000000000E+00 -0.00000000000E+00 -0.26862293033E+01  0.26862293033E+01  0.00000000000E+00 0. -1.
          1    1    1    2  502    0  0.27161475186E+02 -0.31254253742E+02  0.24324808035E+03  0.24674724457E+03  0.00000000000E+00 0.  1.
         -1    1    1    2    0  501 -0.27161475186E+02  0.31254253742E+02  0.45669941037E+03  0.45857270475E+03  0.00000000000E+00 0. -1.
</event>
<event>
 4    1  0.6888348E+001  0.2525778E+02  0.7546771E-02  0.1465940E+00
          2   -1    0    0  502    0  0.00000000000E+00  0.00000000000E+00  0.14522673591E+04  0.14522673591E+04  0.00000000000E+00 0.  1.
         -2   -1    0    0    0  501 -0.00000000000E+00 -0.00000000000E+00 -0.11721048808E+01  0.11721048808E+01  0.00000000000E+00 0. -1.
          1    1    1    2  502    0  0.24740398998E+02  0.50860725667E+01  0.13001707657E+04  0.13004160778E+04  0.00000000000E+00 0.  1.
         -1    1    1    2    0  501 -0.24740398998E+02 -0.50860725667E+01  0.15092448850E+03  0.15302338614E+03  0.00000000000E+00 0. -1.
</event>
<event>
 4    1  0.6888348E+001  0.2187339E+02  0.7546771E-02  0.1507151E+00
          2   -1    0    0  502    0  0.00000000000E+00  0.00000000000E+00  0.24415102543E+03  0.24415102543E+03  0.00000000000E+00 0.  1.
         -2   -1    0    0    0  501 -0.00000000000E+00 -0.00000000000E+00 -0.19961407577E+01  0.19961407577E+01  0.00000000000E+00 0. -1.
          1    1    1    2  502    0  0.21353192269E+02  0.47419663074E+01  0.13772285367E+03  0.13944902110E+03  0.00000000000E+00 0. -1.
         -1    1    1    2    0  501 -0.21353192269E+02 -0.47419663074E+01  0.10443203101E+03  0.10669814509E+03  0.00000000000E+00 0.  1.
</event>
<event>
 4    1  0.6888348E+001  0.5028856E+02  0.7546771E-02  0.1296926E+00
          2   -1    0    0  502    0  0.00000000000E+00  0.00000000000E+00  0.20065638831E+03  0.20065638831E+03  0.00000000000E+00 0. -1.
         -2   -1    0    0    0  501 -0.00000000000E+00 -0.00000000000E+00 -0.12614082452E+02  0.12614082452E+02  0.00000000000E+00 0.  1.
          1    1    1    2  502    0  0.77693579720E+01 -0.49684772638E+02  0.97133860860E+02  0.10937973524E+03  0.00000000000E+00 0. -1.
         -1    1    1    2    0  501 -0.77693579720E+01  0.49684772638E+02  0.90908444998E+02  0.10389073552E+03  0.00000000000E+00 0.  1.
</event>
<event>
 4    1  0.6888348E+001  0.2453923E+02  0.7546771E-02  0.1474024E+00
          2   -1    0    0  502    0  0.00000000000E+00  0.00000000000E+00  0.47321092073E+02  0.47321092073E+02  0.00000000000E+00 0. -1.
         -2   -1    0    0    0  501 -0.00000000000E+00 -0.00000000000E+00 -0.12798295440E+02  0.12798295440E+02  0.00000000000E+00 0.  1.
          1    1    1    2  502    0 -0.53591190940E+01 -0.23946892495E+02  0.14990819879E+02  0.28755842854E+02  0.00000000000E+00 0.  1.
         -1    1    1    2    0  501  0.53591190940E+01  0.23946892495E+02  0.19531976754E+02  0.31363544658E+02  0.00000000000E+00 0. -1.
</event>
<event>
 4    1  0.6888348E+001  0.2814275E+02  0.7546771E-02  0.1436455E+00
          2   -1    0    0  502    0  0.00000000000E+00  0.00000000000E+00  0.89944455968E+02  0.89944455968E+02  0.00000000000E+00 0. -1.
         -2   -1    0    0    0  501 -0.00000000000E+00 -0.00000000000E+00 -0.93418614670E+01  0.93418614670E+01  0.00000000000E+00 0.  1.
          1    1    1    2  502    0  0.14152574337E+02 -0.24325273847E+02  0.52195454150E+02  0.59299070330E+02  0.00000000000E+00 0. -1.
         -1    1    1    2    0  501 -0.14152574337E+02  0.24325273847E+02  0.28407140350E+02  0.39987247104E+02  0.00000000000E+00 0.  1.
</event>
<event>
 4    1  0.6888348E+001  0.2005802E+02  0.7546771E-02  0.1533151E+00
          2   -1    0    0  502    0  0.00000000000E+00  0.00000000000E+00  0.75833281199E+01  0.75833281199E+01  0.00000000000E+00 0.  1.
         -2   -1    0    0    0  501 -0.00000000000E+00 -0.00000000000E+00 -0.61983980154E+02  0.61983980154E+02  0.00000000000E+00 0. -1.
          1    1    1    2  502    0 -0.11764139435E+02  0.16245902199E+02 -0.40403117728E+02  0.45108050690E+02  0.00000000000E+00 0. -1.
         -1    1    1    2    0  501  0.11764139435E+02 -0.16245902199E+02 -0.13997534305E+02  0.24459257583E+02  0.00000000000E+00 0.  1.
</event>
<event>
 4    1  0.6888348E+001  0.2034119E+02  0.7546771E-02  0.1528882E+00
          2   -1    0    0  502    0  0.00000000000E+00  0.00000000000E+00  0.22796544302E+02  0.22796544302E+02  0.00000000000E+00 0.  1.
         -2   -1    0    0    0  501 -0.00000000000E+00 -0.00000000000E+00 -0.18254514481E+02  0.18254514481E+02  0.00000000000E+00 0. -1.
          1    1    1    2  502    0 -0.63640957425E+01  0.19319994989E+02  0.38219415905E+01  0.20697129234E+02  0.00000000000E+00 0. -1.
         -1    1    1    2    0  501  0.63640957425E+01 -0.19319994989E+02  0.72008823027E+00  0.20353929549E+02  0.00000000000E+00 0.  1.
</event>
<event>
 4    1  0.6888348E+001  0.6261340E+02  0.7546771E-02  0.1251203E+00
          2   -1    0    0  502    0  0.00000000000E+00  0.00000000000E+00  0.14022552694E+04  0.14022552694E+04  0.00000000000E+00 0. -1.
         -2   -1    0    0    0  501 -0.00000000000E+00 -0.00000000000E+00 -0.38953881179E+01  0.38953881179E+01  0.00000000000E+00 0.  1.
          1    1    1    2  502    0  0.47687353737E+02  0.40575289357E+02  0.10727222035E+04  0.10745479811E+04  0.00000000000E+00 0. -1.
         -1    1    1    2    0  501 -0.47687353737E+02 -0.40575289357E+02  0.32563767772E+03  0.33160267635E+03  0.00000000000E+00 0.  1.
</event>
<event>
 4    1  0.6888348E+001  0.2604175E+02  0.7546771E-02  0.1457479E+00
          2   -1    0    0  502    0  0.00000000000E+00  0.00000000000E+00  0.16385955821E+04  0.16385955821E+04  0.00000000000E+00 0. -1.
         -2   -1    0    0    0  501 -0.00000000000E+00 -0.00000000000E+00 -0.79219904883E+00  0.79219904883E+00  0.00000000000E+00 0.  1.
          1    1    1    2  502    0 -0.11113326580E+02  0.23551360659E+02  0.25244474092E+03  0.25378439636E+03  0.00000000000E+00 0.  1.
         -1    1    1    2    0  501  0.11113326580E+02 -0.23551360659E+02  0.13853586422E+04  0.13856033848E+04  0.00000000000E+00 0. -1.
</event>
<event>
 4    1  0.6888348E+001  0.2452608E+02  0.7546771E-02  0.1474175E+00
          2   -1    0    0  502    0  0.00000000000E+00  0.00000000000E+00  0.12927944349E+04  0.12927944349E+04  0.00000000000E+00 0. -1.
         -2   -1    0    0    0  501 -0.00000000000E+00 -0.00000000000E+00 -0.51707290078E+00  0.51707290078E+00  0.00000000000E+00 0.  1.
          1    1    1    2  502    0  0.23901735533E+02 -0.54987132015E+01  0.44150557589E+03  0.44218627562E+03  0.00000000000E+00 0.  1.
         -1    1    1    2    0  501 -0.23901735533E+02  0.54987132015E+01  0.85077178611E+03  0.85112523217E+03  0.00000000000E+00 0. -1.
</event>
<event>
 4    1  0.6888348E+001  0.2148317E+02  0.7546771E-02  0.1512477E+00
          2   -1    0    0  502    0  0.00000000000E+00  0.00000000000E+00  0.78721820331E+03  0.78721820331E+03  0.00000000000E+00 0. -1.
         -2   -1    0    0    0  501 -0.00000000000E+00 -0.00000000000E+00 -0.70368285097E+00  0.70368285097E+00  0.00000000000E+00 0.  1.
          1    1    1    2  502    0 -0.21291816964E+02  0.28609690557E+01  0.55417822959E+03  0.55459447956E+03  0.00000000000E+00 0. -1.
         -1    1    1    2    0  501  0.21291816964E+02 -0.28609690557E+01  0.23233629087E+03  0.23332740660E+03  0.00000000000E+00 0.  1.
</event>
<event>
 4    1  0.6888348E+001  0.2301974E+02  0.7546771E-02  0.1492250E+00
          2   -1    0    0  502    0  0.00000000000E+00  0.00000000000E+00  0.19680422809E+01  0.19680422809E+01  0.00000000000E+00 0.  1.
         -2   -1    0    0    0  501 -0.00000000000E+00 -0.00000000000E+00 -0.28345604555E+03  0.28345604555E+03  0.00000000000E+00 0. -1.
          1    1    1    2  502    0 -0.21272335132E+02 -0.87975173287E+01 -0.10880274051E+03  0.11121126245E+03  0.00000000000E+00 0.  1.
         -1    1    1    2    0  501  0.21272335132E+02  0.87975173287E+01 -0.17268526276E+03  0.17421282538E+03  0.00000000000E+00 0. -1.
</event>
<event>
 4    1  0.6888348E+001  0.8868314E+02  0.7546771E-02  0.1185009E+00
          2   -1    0    0  502    0  0.00000000000E+00  0.00000000000E+00  0.15675651596E+04  0.15675651596E+04  0.00000000000E+00 0.  1.
         -2   -1    0    0    0  501 -0.00000000000E+00 -0.00000000000E+00 -0.50330026348E+01  0.50330026348E+01  0.00000000000E+00 0. -1.
          1    1    1    2  502    0  0.62156526372E+02 -0.63255553486E+02  0.82540468264E+03  0.83015515956E+03  0.00000000000E+00 0. -1.
         -1    1    1    2    0  501 -0.62156526372E+02  0.63255553486E+02  0.73712747428E+03  0.74244300263E+03  0.00000000000E+00 0.  1.
</event>
<event>
 4    1  0.6888348E+001  0.2055495E+02  0.7546771E-02  0.1525715E+00
          2   -1    0    0  502    0  0.00000000000E+00  0.00000000000E+00  0.59586652303E+03  0.59586652303E+03  0.00000000000E+00 0.  1.
         -2   -1    0    0    0  501 -0.00000000000E+00 -0.00000000000E+00 -0.71198047915E+00  0.71198047915E+00  0.00000000000E+00 0. -1.
          1    1    1    2  502    0 -0.10994981195E+02 -0.17367102326E+02  0.31667749817E+03  0.31734388871E+03  0.00000000000E+00 0.  1.
         -1    1    1    2    0  501  0.10994981195E+02  0.17367102326E+02  0.27847704438E+03  0.27923461479E+03  0.00000000000E+00 0. -1.
</event>
<event>
 4    1  0.6888348E+001  0.2180801E+02  0.7546771E-02  0.1508034E+00
          2   -1    0    0  502    0  0.00000000000E+00  0.00000000000E+00  0.10176670330E+04  0.10176670330E+04  0.00000000000E+00 0.  1.
         -2   -1    0    0    0  501 -0.00000000000E+00 -0.00000000000E+00 -0.64624843192E+00  0.64624843192E+00  0.00000000000E+00 0. -1.
          1    1    1    2  502    0  0.17502924780E+02  0.13009110480E+02  0.24060859392E+03  0.24159487743E+03  0.00000000000E+00 0. -1.
         -1    1    1    2    0  501 -0.17502924780E+02 -0.13009110480E+02  0.77641219067E+03  0.77671840402E+03  0.00000000000E+00 0.  1.
</event>
<event>
 4    1  0.6888348E+001  0.2073760E+02  0.7546771E-02  0.1523044E+00
          2   -1    0    0  502    0  0.00000000000E+00  0.00000000000E+00  0.19646039623E+03  0.19646039623E+03  0.00000000000E+00 0.  1.
         -2   -1    0    0    0  501 -0.00000000000E+00 -0.00000000000E+00 -0.90843726225E+01  0.90843726225E+01  0.00000000000E+00 0. -1.
          1    1    1    2  502    0  0.12526319379E+02 -0.16526924892E+02  0.41497920039E+01  0.21148728029E+02  0.00000000000E+00 0. -1.
         -1    1    1    2    0  501 -0.12526319379E+02  0.16526924892E+02  0.18322623161E+03  0.18439604083E+03  0.00000000000E+00 0.  1.
</event>
<event>
 4    1  0.6888348E+001  0.2356228E+02  0.7546771E-02  0.1485556E+00
          2   -1    0    0  502    0  0.00000000000E+00  0.00000000000E+00  0.12239752763E+03  0.12239752763E+03  0.00000000000E+00 0. -1.
         -2   -1    0    0    0  501 -0.00000000000E+00 -0.00000000000E+00 -0.45360056847E+01  0.45360056847E+01  0.00000000000E+00 0.  1.
          1    1    1    2  502    0 -0.11266520059E+02  0.20694122763E+02  0.59257223773E+02  0.63769896977E+02  0.00000000000E+00 0.  1.
         -1    1    1    2    0  501  0.11266520059E+02 -0.20694122763E+02  0.58604298173E+02  0.63163636339E+02  0.00000000000E+00 0. -1.
</event>
<event>
 4    1  0.6888348E+001  0.2019240E+02  0.7546771E-02  0.1531115E+00
          2   -1    0    0  502    0  0.00000000000E+00  0.00000000000E+00  0.70604564443E+03  0.70604564443E+03  0.00000000000E+00 0.  1.
         -2   -1    0    0    0  501 -0.00000000000E+00 -0.00000000000E+00 -0.82034528656E+00  0.82034528656E+00  0.00000000000E+00 0. -1.
          1    1    1    2  502    0 -0.12492461893E+02 -0.15864153524E+02  0.54491483061E+03  0.54528882768E+03  0.00000000000E+00 0.  1.
         -1    1    1    2    0  501  0.12492461893E+02  0.15864153524E+02  0.16031046853E+03  0.16157716204E+03  0.00000000000E+00 0. -1.
</event>
<event>
 4    1  0.6888348E+001  0.2958994E+02  0.7546771E-02  0.1423194E+00
          2   -1    0    0  502    0  0.00000000000E+00  0.00000000000E+00  0.74743557346E+01  0.74743557346E+01  0.00000000000E+00 0.  1.
         -2   -1    0    0    0  501 -0.00000000000E+00 -0.00000000000E+00 -0.16354758262E+03  0.16354758262E+03  0.00000000000E+00 0. -1.
          1    1    1    2  502    0  0.91018067282E+01 -0.28155317380E+02 -0.12358599639E+03  0.12707896476E+03  0.00000000000E+00 0. -1.
         -1    1    1    2    0  501 -0.91018067282E+01  0.28155317380E+02 -0.32487230495E+02  0.43942973588E+02  0.00000000000E+00 0.  1.
</event>
<event>
 4    1  0.6888348E+001  0.2264407E+02  0.7546771E-02  0.1497017E+00
          2   -1    0    0  502    0  0.00000000000E+00  0.00000000000E+00  0.18317253974E+01  0.18317253974E+01  0.00000000000E+00 0.  1.
         -2   -1    0    0    0  501 -0.00000000000E+00 -0.00000000000E+00 -0.27993711577E+03  0.27993711577E+03  0.00000000000E+00 0. -1.
          1    1    1    2  502    0  0.20635225993E+02 -0.93242348432E+01 -0.13831608569E+03  0.14015738820E+03  0.00000000000E+00 0. -1.
         -1    1    1    2    0  501 -0.20635225993E+02  0.93242348432E+01 -0.13978930469E+03  0.14161145297E+03  0.00000000000E+00 0.  1.
</event>
<event>
 4    1  0.6888348E+001  0.2344768E+02  0.7546771E-02  0.1486952E+00
          2   -1    0    0  502    0  0.00000000000E+00  0.00000000000E+00  0.38146996589E+01  0.38146996589E+01  0.00000000000E+00 0. -1.
         -2   -1    0    0    0  501 -0.00000000000E+00 -0.00000000000E+00 -0.15004217094E+03  0.15004217094E+03  0.00000000000E+00 0.  1.
          1    1    1    2  502    0  0.23138125639E+02  0.37974822700E+01 -0.88390659969E+02  0.91447812984E+02  0.00000000000E+00 0.  1.
         -1    1    1    2    0  501 -0.23138125639E+02 -0.37974822700E+01 -0.57836811310E+02  0.62409057613E+02  0.00000000000E+00 0. -1.
</event>
<event>
 4    1  0.6888348E+001  0.2614976E+02  0.7546771E-02  0.1456341E+00
          2   -1    0    0  502    0  0.00000000000E+00  0.00000000000E+00  0.67524984127E+03  0.67524984127E+03  0.00000000000E+00 0. -1.
         -2   -1    0    0    0  501 -0.00000000000E+00 -0.00000000000E+00 -0.11493945384E+01  0.11493945384E+01  0.00000000000E+00 0.  1.
          1    1    1    2  502    0 -0.12240444364E+02 -0.23108039009E+02  0.45369109425E+03  0.45444407681E+03  0.00000000000E+00 0. -1.
         -1    1    1    2    0  501  0.12240444364E+02  0.23108039009E+02  0.22040935248E+03  0.22195515899E+03  0.00000000000E+00 0.  1.
</event>
<event>
 4    1  0.6888348E+001  0.2222572E+02  0.7546771E-02  0.1502457E+00
          2   -1    0    0  502    0  0.00000000000E+00  0.00000000000E+00  0.20009464583E+03  0.20009464583E+03  0.00000000000E+00 0. -1.
         -2   -1    0    0    0  501 -0.00000000000E+00 -0.00000000000E+00 -0.27379193980E+01  0.27379193980E+01  0.00000000000E+00 0.  1.
          1    1    1    2  502    0 -0.19429528143E+02 -0.10792411724E+02  0.66879323983E+02  0.70475717031E+02  0.00000000000E+00 0.  1.
         -1    1    1    2    0  501  0.19429528143E+02  0.10792411724E+02  0.13047740245E+03  0.13235684819E+03  0.00000000000E+00 0. -1.
</event>
<event>
 4    1  0.6888348E+001  0.2014805E+02  0.7546771E-02  0.1531784E+00
          2   -1    0    0  502    0  0.00000000000E+00  0.00000000000E+00  0.44518409862E+02  0.44518409862E+02  0.00000000000E+00 0. -1.
         -2   -1    0    0    0  501 -0.00000000000E+00 -0.00000000000E+00 -0.97178819786E+01  0.97178819786E+01  0.00000000000E+00 0.  1.
          1    1    1    2  502    0 -0.73015500321E+01  0.18778478247E+02  0.24134736379E+02  0.31439296719E+02  0.00000000000E+00 0. -1.
         -1    1    1    2    0  501  0.73015500321E+01 -0.18778478247E+02  0.10665791505E+02  0.22796995121E+02  0.00000000000E+00 0.  1.
</event>
<event>
 4    1  0.6888348E+001  0.2065624E+02  0.7546771E-02  0.1524230E+00
          2   -1    0    0  502    0  0.00000000000E+00  0.00000000000E+00  0.99356003921E+00  0.99356003921E+00  0.00000000000E+00 0. -1.
         -2   -1    0    0    0  501 -0.00000000000E+00 -0.00000000000E+00 -0.51315303183E+03  0.51315303183E+03  0.00000000000E+00 0.  1.
          1    1    1    2  502    0  0.17889838856E+02 -0.10326374858E+02 -0.35990775599E+03  0.36050003214E+03  0.00000000000E+00 0. -1.
         -1    1    1    2    0  501 -0.17889838856E+02  0.10326374858E+02 -0.15225171580E+03  0.15364655973E+03  0.00000000000E+00 0.  1.
</event>
<event>
 4    1  0.6888348E+001  0.2592158E+02  0.7546771E-02  0.1458752E+00
          2   -1    0    0  502    0  0.00000000000E+00  0.00000000000E+00  0.68111557415E+03  0.68111557415E+03  0.00000000000E+00 0. -1.
         -2   -1    0    0    0  501 -0.00000000000E+00 -0.00000000000E+00 -0.10525069987E+01  0.10525069987E+01  0.00000000000E+00 0.  1.
          1    1    1    2  502    0 -0.25604559625E+01  0.25794810835E+02  0.25462191830E+03  0.25593797975E+03  0.00000000000E+00 0.  1.
         -1    1    1    2    0  501  0.25604559625E+01 -0.25794810835E+02  0.42544114885E+03  0.42623010140E+03  0.00000000000E+00 0. -1.
</event>
<event>
 4    1  0.6888348E+001  0.3234827E+02  0.7546771E-02  0.1400230E+00
          2   -1    0    0  502    0  0.00000000000E+00  0.00000000000E+00  0.77934043266E+00  0.77934043266E+00  0.00000000000E+00 0.  1.
         -2   -1    0    0    0  501 -0.00000000000E+00 -0.00000000000E+00 -0.13712998433E+04  0.13712998433E+04  0.00000000000E+00 0. -1.
          1    1    1    2  502    0  0.19372695042E+02  0.25905777894E+02 -0.78435709759E+03  0.78502386409E+03  0.00000000000E+00 0. -1.
         -1    1    1    2    0  501 -0.19372695042E+02 -0.25905777894E+02 -0.58616340529E+03  0.58705531966E+03  0.00000000000E+00 0.  1.
</event>
<event>
 4    1  0.6888348E+001  0.2890299E+02  0.7546771E-02  0.1429375E+00
          2   -1    0    0  502    0  0.00000000000E+00  0.00000000000E+00  0.31154253086E+03  0.31154253086E+03  0.00000000000E+00 0.  1.
         -2   -1    0    0    0  501 -0.00000000000E+00 -0.00000000000E+00 -0.40037217625E+01  0.40037217625E+01  0.00000000000E+00 0. -1.
          1    1    1    2  502    0  0.79954702188E+01 -0.27775082602E+02  0.63099531023E+02  0.69404132247E+02  0.00000000000E+00 0. -1.
         -1    1    1    2    0  501 -0.79954702188E+01  0.27775082602E+02  0.24443927808E+03  0.24614212038E+03  0.00000000000E+00 0.  1.
</event>
<event>
 4    1  0.6888348E+001  0.2097880E+02  0.7546771E-02  0.1519568E+00
          2   -1    0    0  502    0  0.00000000000E+00  0.00000000000E+00  0.16363346950E+03  0.16363346950E+03  0.00000000000E+00 0. -1.
         -2   -1    0    0    0  501 -0.00000000000E+00 -0.00000000000E+00 -0.27635957670E+01  0.27635957670E+01  0.00000000000E+00 0.  1.
          1    1    1    2  502    0 -0.11843278616E+02 -0.17316082825E+02  0.94048031330E+02  0.96359442556E+02  0.00000000000E+00 0.  1.
         -1    1    1    2    0  501  0.11843278616E+02  0.17316082825E+02  0.66821842402E+02  0.70037622709E+02  0.00000000000E+00 0. -1.
</event>
<event>
 4    1  0.6888348E+001  0.2317750E+02  0.7546771E-02  0.1490281E+00
          2   -1    0    0  502    0  0.00000000000E+00  0.00000000000E+00  0.16633190154E+01  0.16633190154E+01  0.00000000000E+00 0. -1.
         -2   -1    0    0    0  501 -0.00000000000E+00 -0.00000000000E+00 -0.33854551399E+03  0.33854551399E+03  0.00000000000E+00 0.  1.
          1    1    1    2  502    0  0.22624028660E+02  0.50348680503E+01 -0.20493118968E+03  0.20623770042E+03  0.00000000000E+00 0.  1.
         -1    1    1    2    0  501 -0.22624028660E+02 -0.50348680503E+01 -0.13195100530E+03  0.13397113259E+03  0.00000000000E+00 0. -1.
</event>
<event>
 4    1  0.6888348E+001  0.4630017E+02  0.7546771E-02  0.1315063E+00
          2   -1    0    0  502    0  0.00000000000E+00  0.00000000000E+00  0.35438625006E+02  0.35438625006E+02  0.00000000000E+00 0.  1.
         -2   -1    0    0    0  501 -0.00000000000E+00 -0.00000000000E+00 -0.64015850851E+02  0.64015850851E+02  0.00000000000E+00 0. -1.
          1    1    1    2  502    0  0.13296097586E+02  0.44349969889E+02 -0.25957824221E+02  0.53080266376E+02  0.00000000000E+00 0.  1.
         -1    1    1    2    0  501 -0.13296097586E+02 -0.44349969889E+02 -0.26194016239E+01  0.46374209482E+02  0.00000000000E+00 0. -1.
</event>
<event>
 4    1  0.6888348E+001  0.2691806E+02  0.7546771E-02  0.1448433E+00
          2   -1    0    0  502    0  0.00000000000E+00  0.00000000000E+00  0.62084552665E+01  0.62084552665E+01  0.00000000000E+00 0.  1.
         -2   -1    0    0    0  501 -0.00000000000E+00 -0.00000000000E+00 -0.12528957179E+03  0.12528957179E+03  0.00000000000E+00 0. -1.
          1    1    1    2  502    0 -0.24257665631E+02 -0.11668236017E+02 -0.76747039386E+02  0.81330745282E+02  0.00000000000E+00 0. -1.
         -1    1    1    2    0  501  0.24257665631E+02  0.11668236017E+02 -0.42334077140E+02  0.50167281777E+02  0.00000000000E+00 0.  1.
</event>
<event>
 4    1  0.6888348E+001  0.3072190E+02  0.7546771E-02  0.1413425E+00
          2   -1    0    0  502    0  0.00000000000E+00  0.00000000000E+00  0.41151627981E+02  0.41151627981E+02  0.00000000000E+00 0.  1.
         -2   -1    0    0    0  501 -0.00000000000E+00 -0.00000000000E+00 -0.41068352998E+02  0.41068352998E+02  0.00000000000E+00 0. -1.
          1    1    1    2  502    0 -0.26970724354E+02 -0.14711050136E+02  0.27358214538E+02  0.41137657578E+02  0.00000000000E+00 0.  1.
         -1    1    1    2    0  501  0.26970724354E+02  0.14711050136E+02 -0.27274939555E+02  0.41082323401E+02  0.00000000000E+00 0. -1.
</event>
<event>
 4    1  0.6888348E+001  0.2075391E+02  0.7546771E-02  0.1522808E+00
          2   -1    0    0  502    0  0.00000000000E+00  0.00000000000E+00  0.44237648982E+03  0.44237648982E+03  0.00000000000E+00 0.  1.
         -2   -1    0    0    0  501 -0.00000000000E+00 -0.00000000000E+00 -0.98125493170E+00  0.98125493170E+00  0.00000000000E+00 0. -1.
          1    1    1    2  502    0 -0.13575978162E+02 -0.15697697678E+02  0.24019859484E+03  0.24109352928E+03  0.00000000000E+00 0.  1.
         -1    1    1    2    0  501  0.13575978162E+02  0.15697697678E+02  0.20119664004E+03  0.20226421547E+03  0.00000000000E+00 0. -1.
</event>
<event>
 4    1  0.6888348E+001  0.3824078E+02  0.7546771E-02  0.1359115E+00
          2   -1    0    0  502    0  0.00000000000E+00  0.00000000000E+00  0.74713011726E+02  0.74713011726E+02  0.00000000000E+00 0. -1.
         -2   -1    0    0    0  501 -0.00000000000E+00 -0.00000000000E+00 -0.37226646378E+02  0.37226646378E+02  0.00000000000E+00 0.  1.
          1    1    1    2  502    0  0.35707477769E+02  0.13686971549E+02 -0.19799712780E+02  0.43062579870E+02  0.00000000000E+00 0.  1.
         -1    1    1    2    0  501 -0.35707477769E+02 -0.13686971549E+02  0.57286078128E+02  0.68877078235E+02  0.00000000000E+00 0. -1.
</event>
<event>
 4    1  0.6888348E+001  0.2462633E+02  0.7546771E-02  0.1473027E+00
          2   -1    0    0  502    0  0.00000000000E+00  0.00000000000E+00  0.41476363825E+03  0.41476363825E+03  0.00000000000E+00 0.  1.
         -2   -1    0    0    0  501 -0.00000000000E+00 -0.00000000000E+00 -0.15458343301E+01  0.15458343301E+01  0.00000000000E+00 0. -1.
          1    1    1    2  502    0 -0.37381475329E+01  0.24340960961E+02  0.25503367758E+03  0.25621989155E+03  0.00000000000E+00 0.  1.
         -1    1    1    2    0  501  0.37381475329E+01 -0.24340960961E+02  0.15818412634E+03  0.16008958103E+03  0.00000000000E+00 0. -1.
</event>
<event>
 4    1  0.6888348E+001  0.2181701E+02  0.7546771E-02  0.1507912E+00
          2   -1    0    0  502    0  0.00000000000E+00  0.00000000000E+00  0.11342094083E+04  0.11342094083E+04  0.00000000000E+00 0. -1.
         -2   -1    0    0    0  501 -0.00000000000E+00 -0.00000000000E+00 -0.12087538314E+01  0.12087538314E+01  0.00000000000E+00 0.  1.
          1    1    1    2  502    0 -0.10171077259E+02 -0.19301070117E+02  0.10780820428E+03  0.10999359540E+03  0.00000000000E+00 0.  1.
         -1    1    1    2    0  501  0.10171077259E+02  0.19301070117E+02  0.10251924502E+04  0.10254245667E+04  0.00000000000E+00 0. -1.
</event>
<event>
 4    1  0.6888348E+001  0.2990469E+02  0.7546771E-02  0.1420427E+00
          2   -1    0    0  502    0  0.00000000000E+00  0.00000000000E+00  0.22332243889E+02  0.22332243889E+02  0.00000000000E+00 0. -1.
         -2   -1    0    0    0  501 -0.00000000000E+00 -0.00000000000E+00 -0.64311879907E+02  0.64311879907E+02  0.00000000000E+00 0.  1.
          1    1    1    2  502    0  0.21823557486E+02 -0.20445603112E+02  0.56218583502E+01  0.30428533308E+02  0.00000000000E+00 0. -1.
         -1    1    1    2    0  501 -0.21823557486E+02  0.20445603112E+02 -0.47601494367E+02  0.56215590488E+02  0.00000000000E+00 0.  1.
</event>
<event>
 4    1  0.6888348E+001  0.7273415E+02  0.7546771E-02  0.1221801E+00
          2   -1    0    0  502    0  0.00000000000E+00  0.00000000000E+00  0.11295755804E+03  0.11295755804E+03  0.00000000000E+00 0.  1.
         -2   -1    0    0    0  501 -0.00000000000E+00 -0.00000000000E+00 -0.57694721111E+02  0.57694721111E+02  0.00000000000E+00 0. -1.
          1    1    1    2  502    0 -0.23856861068E+02  0.68710310485E+02  0.64651978074E+02  0.97314617894E+02  0.00000000000E+00 0.  1.
         -1    1    1    2    0  501  0.23856861068E+02 -0.68710310485E+02 -0.93891411470E+01  0.73337661255E+02  0.00000000000E+00 0. -1.
</event>
<event>
 4    1  0.6888348E+001  0.2364929E+02  0.7546771E-02  0.1484502E+00
          2   -1    0    0  502    0  0.00000000000E+00  0.00000000000E+00  0.12789222467E+03  0.12789222467E+03  0.00000000000E+00 0.  1.
         -2   -1    0    0    0  501 -0.00000000000E+00 -0.00000000000E+00 -0.66513564148E+01  0.66513564148E+01  0.00000000000E+00 0. -1.
          1    1    1    2  502    0 -0.21631539793E+02  0.95585363462E+01  0.99991435678E+02  0.10275006735E+03  0.00000000000E+00 0.  1.
         -1    1    1    2    0  501  0.21631539793E+02 -0.95585363462E+01  0.21249432576E+02  0.31793513736E+02  0.00000000000E+00 0. -1.
</event>
<event>
 4    1  0.6888348E+001  0.3643437E+02  0.7546771E-02  0.1370750E+00
          2   -1    0    0  502    0  0.00000000000E+00  0.00000000000E+00  0.40395636445E+02  0.40395636445E+02  0.00000000000E+00 0. -1.
         -2   -1    0    0    0  501 -0.00000000000E+00 -0.00000000000E+00 -0.64216256307E+02  0.64216256307E+02  0.00000000000E+00 0.  1.
          1    1    1    2  502    0 -0.23645454816E+02 -0.27719234875E+02 -0.48459679611E+02  0.60628409706E+02  0.00000000000E+00 0.  1.
         -1    1    1    2    0  501  0.23645454816E+02  0.27719234875E+02  0.24639059749E+02  0.43983483046E+02  0.00000000000E+00 0. -1.
</event>
<event>
 4    1  0.6888348E+001  0.2226318E+02  0.7546771E-02  0.1501964E+00
          2   -1    0    0  502    0  0.00000000000E+00  0.00000000000E+00  0.16437926637E+04  0.16437926637E+04  0.00000000000E+00 0. -1.
         -2   -1    0    0    0  501 -0.00000000000E+00 -0.00000000000E+00 -0.30561452095E+00  0.30561452095E+00  0.00000000000E+00 0.  1.
          1    1    1    2  502    0 -0.21998504063E+02 -0.34227126163E+01  0.72668311882E+03  0.72702407410E+03  0.00000000000E+00 0. -1.
         -1    1    1    2    0  501  0.21998504063E+02  0.34227126163E+01  0.91680393034E+03  0.91707420410E+03  0.00000000000E+00 0.  1.
</event>
<event>
 4    1  0.6888348E+001  0.2048162E+02  0.7546771E-02  0.1526796E+00
          2   -1    0    0  502    0  0.00000000000E+00  0.00000000000E+00  0.14061505124E+03  0.14061505124E+03  0.00000000000E+00 0.  1.
         -2   -1    0    0    0  501 -0.00000000000E+00 -0.00000000000E+00 -0.34414397307E+01  0.34414397307E+01  0.00000000000E+00 0. -1.
          1    1    1    2  502    0  0.20248952107E+02 -0.30784340804E+01  0.42306407179E+02  0.47003498872E+02  0.00000000000E+00 0. -1.
         -1    1    1    2    0  501 -0.20248952107E+02  0.30784340804E+01  0.94867204328E+02  0.97052992096E+02  0.00000000000E+00 0.  1.
</event>
<event>
 4    1  0.6888348E+001  0.2292889E+02  0.7546771E-02  0.1493393E+00
          2   -1    0    0  502    0  0.00000000000E+00  0.00000000000E+00  0.17936096154E+01  0.17936096154E+01  0.00000000000E+00 0. -1.
         -2   -1    0    0    0  501 -0.00000000000E+00 -0.00000000000E+00 -0.29326240926E+03  0.29326240926E+03  0.00000000000E+00 0.  1.
          1    1    1    2  502    0 -0.22507986377E+02 -0.43731470050E+01 -0.14904207302E+03  0.15079546875E+03  0.00000000000E+00 0. -1.
         -1    1    1    2    0  501  0.22507986377E+02  0.43731470050E+01 -0.14242672662E+03  0.14426055013E+03  0.00000000000E+00 0.  1.
</event>
<event>
 4    1  0.6888348E+001  0.3063088E+02  0.7546771E-02  0.1414192E+00
          2   -1    0    0  502    0  0.00000000000E+00  0.00000000000E+00  0.44532154842E+03  0.44532154842E+03  0.00000000000E+00 0.  1.
         -2   -1    0    0    0  501 -0.00000000000E+00 -0.00000000000E+00 -0.21202815990E+01  0.21202815990E+01  0.00000000000E+00 0. -1.
          1    1    1    2  502    0  0.17636577855E+02  0.25043998440E+02  0.23936963429E+03  0.24132151284E+03  0.00000000000E+00 0. -1.
         -1    1    1    2    0  501 -0.17636577855E+02 -0.25043998440E+02  0.20383163253E+03  0.20612031719E+03  0.00000000000E+00 0.  1.
</event>
<event>
 4    1  0.6888348E+001  0.2424743E+02  0.7546771E-02  0.1477401E+00
          2   -1    0    0  502    0  0.00000000000E+00  0.00000000000E+00  0.24280209807E+01  0.24280209807E+01  0.00000000000E+00 0. -1.
         -2   -1    0    0    0  501 -0.00000000000E+00 -0.00000000000E+00 -0.29015342320E+03  0.29015342320E+03  0.00000000000E+00 0.  1.
          1    1    1    2  502    0  0.18998686671E+02 -0.15066115009E+02 -0.84357797308E+02  0.87773434953E+02  0.00000000000E+00 0. -1.
         -1    1    1    2    0  501 -0.18998686671E+02  0.15066115009E+02 -0.20336760491E+03  0.20480800923E+03  0.00000000000E+00 0.  1.
</event>
<event>
 4    1  0.6888348E+001  0.2599494E+02  0.7546771E-02  0.1457974E+00
          2   -1    0    0  502    0  0.00000000000E+00  0.00000000000E+00  0.47032638865E+00  0.47032638865E+00  0.00000000000E+00 0. -1.
         -2   -1    0    0    0  501 -0.00000000000E+00 -0.00000000000E+00 -0.20666430107E+04  0.20666430107E+04  0.00000000000E+00 0.  1.
          1    1    1    2  502    0  0.22145971511E+02  0.13612223803E+02 -0.16036951043E+04  0.16039057717E+04  0.00000000000E+00 0. -1.
         -1    1    1    2    0  501 -0.22145971511E+02 -0.13612223803E+02 -0.46247757995E+03  0.46320756540E+03  0.00000000000E+00 0.  1.
</event>
<event>
 4    1  0.6888348E+001  0.2848136E+02  0.7546771E-02  0.1433269E+00
          2   -1    0    0  502    0  0.00000000000E+00  0.00000000000E+00  0.78059230571E+02  0.78059230571E+02  0.00000000000E+00 0.  1.
         -2   -1    0    0    0  501 -0.00000000000E+00 -0.00000000000E+00 -0.10839698235E+02  0.10839698235E+02  0.00000000000E+00 0. -1.
          1    1    1    2  502    0 -0.11768394853E+02  0.25936323864E+02  0.24575925160E+02  0.37618667048E+02  0.00000000000E+00 0.  1.
         -1    1    1    2    0  501  0.11768394853E+02 -0.25936323864E+02  0.42643607176E+02  0.51280261758E+02  0.00000000000E+00 0. -1.
</event>
<event>
 4    1  0.6888348E+001  0.3161378E+02  0.7546771E-02  0.1406073E+00
          2   -1    0    0  502    0  0.00000000000E+00  0.00000000000E+00  0.32662366023E+02  0.32662366023E+02  0.00000000000E+00 0. -1.
         -2   -1    0    0    0  501 -0.00000000000E+00 -0.00000000000E+00 -0.58989456523E+02  0.58989456523E+02  0.00000000000E+00 0.  1.
          1    1    1    2  502    0 -0.31613554710E+02 -0.11911839426E+00  0.18627968169E+02  0.36693762804E+02  0.00000000000E+00 0. -1.
         -1    1    1    2    0  501  0.31613554710E+02  0.11911839426E+00 -0.44955058669E+02  0.54958059742E+02  0.00000000000E+00 0.  1.
</event>
<event>
 4    1  0.6888348E+001  0.2422726E+02  0.7546771E-02  0.1477637E+00
          2   -1    0    0  502    0  0.00000000000E+00  0.00000000000E+00  0.21270546316E+04  0.21270546316E+04  0.00000000000E+00 0. -1.
         -2   -1    0    0    0  501 -0.00000000000E+00 -0.00000000000E+00 -0.28006686575E+00  0.28006686575E+00  0.00000000000E+00 0.  1.
          1    1    1    2  502    0  0.23993007015E+02 -0.33608821518E+01  0.93442033244E+03  0.93473435670E+03  0.00000000000E+00 0. -1.
         -1    1    1    2    0  501 -0.23993007015E+02  0.33608821518E+01  0.11923542323E+04  0.11926003418E+04  0.00000000000E+00 0.  1.
</event>
<event>
 4    1  0.6888348E+001  0.3142227E+02  0.7546771E-02  0.1407627E+00
          2   -1    0    0  502    0  0.00000000000E+00  0.00000000000E+00  0.10750866859E+04  0.10750866859E+04  0.00000000000E+00 0. -1.
         -2   -1    0    0    0  501 -0.00000000000E+00 -0.00000000000E+00 -0.11039355832E+01  0.11039355832E+01  0.00000000000E+00 0.  1.
          1    1    1    2  502    0 -0.84789975522E+01  0.30256667912E+02  0.75758920257E+03  0.75824056816E+03  0.00000000000E+00 0.  1.
         -1    1    1    2    0  501  0.84789975522E+01 -0.30256667912E+02  0.31639354777E+03  0.31795005335E+03  0.00000000000E+00 0. -1.
</event>
<event>
 4    1  0.6888348E+001  0.2279472E+02  0.7546771E-02  0.1495092E+00
          2   -1    0    0  502    0  0.00000000000E+00  0.00000000000E+00  0.25604025286E+03  0.25604025286E+03  0.00000000000E+00 0.  1.
         -2   -1    0    0    0  501 -0.00000000000E+00 -0.00000000000E+00 -0.29059903051E+01  0.29059903051E+01  0.00000000000E+00 0. -1.
          1    1    1    2  502    0  0.15276724605E+02  0.16918063338E+02  0.19767857366E+03  0.19898848626E+03  0.00000000000E+00 0.  1.
         -1    1    1    2    0  501 -0.15276724605E+02 -0.16918063338E+02  0.55455688904E+02  0.59957756909E+02  0.00000000000E+00 0. -1.
</event>
<event>
 4    1  0.6888348E+001  0.4514075E+02  0.7546771E-02  0.1320737E+00
          2   -1    0    0  502    0  0.00000000000E+00  0.00000000000E+00  0.75871654130E+02  0.75871654130E+02  0.00000000000E+00 0. -1.
         -2   -1    0    0    0  501 -0.00000000000E+00 -0.00000000000E+00 -0.27128132409E+02  0.27128132409E+02  0.00000000000E+00 0.  1.
          1    1    1    2  502    0  0.97294123014E+01  0.44079769237E+02  0.29520023049E+02  0.53936252006E+02  0.00000000000E+00 0. -1.
         -1    1    1    2    0  501 -0.97294123014E+01 -0.44079769237E+02  0.19223498672E+02  0.49063534533E+02  0.00000000000E+00 0.  1.
</event>
<event>
 4    1  0.6888348E+001  0.2084537E+02  0.7546771E-02  0.1521484E+00
          2   -1    0    0  502    0  0.00000000000E+00  0.00000000000E+00  0.83275091654E+03  0.83275091654E+03  0.00000000000E+00 0.  1.
         -2   -1    0    0    0  501 -0.00000000000E+00 -0.00000000000E+00 -0.52903640831E+00  0.52903640831E+00  0.00000000000E+00 0. -1.
          1    1    1    2  502    0 -0.19201790493E+02 -0.81129910588E+01  0.46483925049E+03  0.46530641321E+03  0.00000000000E+00 0.  1.
         -1    1    1    2    0  501  0.19201790493E+02  0.81129910588E+01  0.36738262964E+03  0.36797353974E+03  0.00000000000E+00 0. -1.
</event>
<event>
 4    1  0.6888348E+001  0.4141375E+02  0.7546771E-02  0.1340395E+00
          2   -1    0    0  502    0  0.00000000000E+00  0.00000000000E+00  0.98858521454E+03  0.98858521454E+03  0.00000000000E+00 0. -1.
         -2   -1    0    0    0  501 -0.00000000000E+00 -0.00000000000E+00 -0.17915760713E+01  0.17915760713E+01  0.00000000000E+00 0.  1.
          1    1    1    2  502    0  0.20794656037E+02 -0.35814539014E+02  0.58146991467E+03  0.58294284504E+03  0.00000000000E+00 0. -1.
         -1    1    1    2    0  501 -0.20794656037E+02  0.35814539014E+02  0.40532372380E+03  0.40743394556E+03  0.00000000000E+00 0.  1.
</event>
<event>
 4    1  0.6888348E+001  0.2743458E+02  0.7546771E-02  0.1443291E+00
          2   -1    0    0  502    0  0.00000000000E+00  0.00000000000E+00  0.16240068970E+01  0.16240068970E+01  0.00000000000E+00 0.  1.
         -2   -1    0    0    0  501 -0.00000000000E+00 -0.00000000000E+00 -0.91087289144E+03  0.91087289144E+03  0.00000000000E+00 0. -1.
          1    1    1    2  502    0 -0.13795163709E+02 -0.23713912249E+02 -0.13486117664E+03  0.13762337425E+03  0.00000000000E+00 0.  1.
         -1    1    1    2    0  501  0.13795163709E+02  0.23713912249E+02 -0.77438770790E+03  0.77487352408E+03  0.00000000000E+00 0. -1.
</event>
<event>
 4    1  0.6888348E+001  0.2472800E+02  0.7546771E-02  0.1471869E+00
          2   -1    0    0  502    0  0.00000000000E+00  0.00000000000E+00  0.47974244002E+03  0.47974244002E+03  0.00000000000E+00 0. -1.
         -2   -1    0    0    0  501 -0.00000000000E+00 -0.00000000000E+00 -0.19504879969E+01  0.19504879969E+01  0.00000000000E+00 0.  1.
          1    1    1    2  502    0 -0.62193704016E+01  0.23933106902E+02  0.38067425833E+03  0.38147655908E+03  0.00000000000E+00 0. -1.
         -1    1    1    2    0  501  0.62193704016E+01 -0.23933106902E+02  0.97117693690E+02  0.10021636893E+03  0.00000000000E+00 0.  1.
</event>
<event>
 4    1  0.6888348E+001  0.3361070E+02  0.7546771E-02  0.1390602E+00
          2   -1    0    0  502    0  0.00000000000E+00  0.00000000000E+00  0.84498366849E+02  0.84498366849E+02  0.00000000000E+00 0.  1.
         -2   -1    0    0    0  501 -0.00000000000E+00 -0.00000000000E+00 -0.18825947078E+02  0.18825947078E+02  0.00000000000E+00 0. -1.
          1    1    1    2  502    0 -0.29126023304E+02 -0.16773605389E+02  0.50224706052E+01  0.33983882683E+02  0.00000000000E+00 0.  1.
         -1    1    1    2    0  501  0.29126023304E+02  0.16773605389E+02  0.60649949166E+02  0.69340431244E+02  0.00000000000E+00 0. -1.
</event>
<event>
 4    1  0.6888348E+001  0.2683746E+02  0.7546771E-02  0.1449248E+00
          2   -1    0    0  502    0  0.00000000000E+00  0.00000000000E+00  0.10349141570E+04  0.10349141570E+04  0.00000000000E+00 0. -1.
         -2   -1    0    0    0  501 -0.00000000000E+00 -0.00000000000E+00 -0.84498913739E+00  0.84498913739E+00  0.00000000000E+00 0.  1.
          1    1    1    2  502    0  0.22730606907E+02  0.14267760234E+02  0.29953820841E+03  0.30073807170E+03  0.00000000000E+00 0.  1.
         -1    1    1    2    0  501 -0.22730606907E+02 -0.14267760234E+02  0.73453095945E+03  0.73502107444E+03  0.00000000000E+00 0. -1.
</event>
<event>
 4    1  0.6888348E+001  0.4573839E+02  0.7546771E-02  0.1317788E+00
          2   -1    0    0  502    0  0.00000000000E+00  0.00000000000E+00  0.15595122138E+03  0.15595122138E+03  0.00000000000E+00 0.  1.
         -2   -1    0    0    0  501 -0.00000000000E+00 -0.00000000000E+00 -0.21567047504E+02  0.21567047504E+02  0.00000000000E+00 0. -1.
          1    1    1    2  502    0  0.40117777362E+02 -0.21967344340E+02  0.12620618429E+02  0.47447658397E+02  0.00000000000E+00 0. -1.
         -1    1    1    2    0  501 -0.40117777362E+02  0.21967344340E+02  0.12176355545E+03  0.13007061049E+03  0.00000000000E+00 0.  1.
</event>
<event>
 4    1  0.6888348E+001  0.3441670E+02  0.7546771E-02  0.1384711E+00
          2   -1    0    0  502    0  0.00000000000E+00  0.00000000000E+00  0.25989053338E+02  0.25989053338E+02  0.00000000000E+00 0.  1.
         -2   -1    0    0    0  501 -0.00000000000E+00 -0.00000000000E+00 -0.16569732283E+03  0.16569732283E+03  0.00000000000E+00 0. -1.
          1    1    1    2  502    0 -0.20890126848E+02 -0.27351631697E+02 -0.15145811247E+03  0.15531924861E+03  0.00000000000E+00 0. -1.
         -1    1    1    2    0  501  0.20890126848E+02  0.27351631697E+02  0.11749842982E+02  0.36367127551E+02  0.00000000000E+00 0.  1.
</event>
<event>
 4    1  0.6888348E+001  0.2142483E+02  0.7546771E-02  0.1513285E+00
          2   -1    0    0  502    0  0.00000000000E+00  0.00000000000E+00  0.11801365977E+04  0.11801365977E+04  0.00000000000E+00 0. -1.
         -2   -1    0    0    0  501 -0.00000000000E+00 -0.00000000000E+00 -0.39475185072E+00  0.39475185072E+00  0.00000000000E+00 0.  1.
          1    1    1    2  502    0 -0.12860071945E+02  0.17135986438E+02  0.51836007587E+03  0.51880265202E+03  0.00000000000E+00 0. -1.
         -1    1    1    2    0  501  0.12860071945E+02 -0.17135986438E+02  0.66138176998E+03  0.66172869754E+03  0.00000000000E+00 0.  1.
</event>
<event>
 4    1  0.6888348E+001  0.2275540E+02  0.7546771E-02  0.1495593E+00
          2   -1    0    0  502    0  0.00000000000E+00  0.00000000000E+00  0.53379678790E+02  0.53379678790E+02  0.00000000000E+00 0. -1.
         -2   -1    0    0    0  501 -0.00000000000E+00 -0.00000000000E+00 -0.14169108653E+02  0.14169108653E+02  0.00000000000E+00 0.  1.
          1    1    1    2  502    0  0.18392384552E+02  0.13398822641E+02  0.38572503951E+02  0.44784442820E+02  0.00000000000E+00 0. -1.
         -1    1    1    2    0  501 -0.18392384552E+02 -0.13398822641E+02  0.63806618611E+00  0.22764344623E+02  0.00000000000E+00 0.  1.
</event>
<event>
 4    1  0.6888348E+001  0.2339422E+02  0.7546771E-02  0.1487606E+00
          2   -1    0    0  502    0  0.00000000000E+00  0.00000000000E+00  0.37453520021E+03  0.37453520021E+03  0.00000000000E+00 0.  1.
         -2   -1    0    0    0  501 -0.00000000000E+00 -0.00000000000E+00 -0.15050743506E+01  0.15050743506E+01  0.00000000000E+00 0. -1.
          1    1    1    2  502    0  0.11819819655E+02  0.20188642796E+02  0.21859878970E+03  0.21984703840E+03  0.00000000000E+00 0.  1.
         -1    1    1    2    0  501 -0.11819819655E+02 -0.20188642796E+02  0.15443133616E+03  0.15619323617E+03  0.00000000000E+00 0. -1.
</event>
<event>
 4    1  0.6888348E+001  0.2756622E+02  0.7546771E-02  0.1442002E+00
          2   -1    0    0  502    0  0.00000000000E+00  0.00000000000E+00  0.28668952850E+03  0.28668952850E+03  0.00000000000E+00 0.  1.
         -2   -1    0    0    0  501 -0.00000000000E+00 -0.00000000000E+00 -0.58696864690E+01  0.58696864690E+01  0.00000000000E+00 0. -1.
          1    1    1    2  502    0 -0.19171918936E+02  0.19807427513E+02  0.32081286641E+02  0.42297820428E+02  0.00000000000E+00 0. -1.
         -1    1    1    2    0  501  0.19171918936E+02 -0.19807427513E+02  0.24873855539E+03  0.25026139454E+03  0.00000000000E+00 0.  1.
</event>
<event>
 4    1  0.6888348E+001  0.3372042E+02  0.7546771E-02  0.1389789E+00
          2   -1    0    0  502    0  0.00000000000E+00  0.00000000000E+00  0.17274584088E+02  0.17274584088E+02  0.00000000000E+00 0. -1.
         -2   -1    0    0    0  501 -0.00000000000E+00 -0.00000000000E+00 -0.65865772224E+02  0.65865772224E+02  0.00000000000E+00 0.  1.
          1    1    1    2  502    0  0.33240481786E+02  0.56689589706E+01 -0.25353653604E+02  0.42188558594E+02  0.00000000000E+00 0.  1.
         -1    1    1    2    0  501 -0.33240481786E+02 -0.56689589706E+01 -0.23237534532E+02  0.40951797718E+02  0.00000000000E+00 0. -1.
</event>
<event>
 4    1  0.6888348E+001  0.2011406E+02  0.7546771E-02  0.1532299E+00
          2   -1    0    0  502    0  0.00000000000E+00  0.00000000000E+00  0.56673163740E+03  0.56673163740E+03  0.00000000000E+00 0. -1.
         -2   -1    0    0    0  501 -0.00000000000E+00 -0.00000000000E+00 -0.74493641942E+00  0.74493641942E+00  0.00000000000E+00 0.  1.
          1    1    1    2  502    0 -0.19437101456E+02 -0.51743951517E+01  0.34093252613E+03  0.34152534701E+03  0.00000000000E+00 0. -1.
         -1    1    1    2    0  501  0.19437101456E+02  0.51743951517E+01  0.22505417485E+03  0.22595122681E+03  0.00000000000E+00 0.  1.
</event>
<event>
 4    1  0.6888348E+001  0.2062937E+02  0.7546771E-02  0.1524623E+00
          2   -1    0    0  502    0  0.00000000000E+00  0.00000000000E+00  0.21494606836E+02  0.21494606836E+02  0.00000000000E+00 0. -1.
         -2   -1    0    0    0  501 -0.00000000000E+00 -0.00000000000E+00 -0.20209381614E+02  0.20209381614E+02  0.00000000000E+00 0.  1.
          1    1    1    2  502    0  0.10897025431E+02  0.17516440999E+02 -0.23289576880E+01  0.20760416962E+02  0.00000000000E+00 0.  1.
         -1    1    1    2    0  501 -0.10897025431E+02 -0.17516440999E+02  0.36141829100E+01  0.20943571487E+02  0.00000000000E+00 0. -1.
</event>
<event>
 4    1  0.6888348E+001  0.4208224E+02  0.7546771E-02  0.1336698E+00
          2   -1    0    0  502    0  0.00000000000E+00  0.00000000000E+00  0.37988442872E+03  0.37988442872E+03  0.00000000000E+00 0.  1.
         -2   -1    0    0    0  501 -0.00000000000E+00 -0.00000000000E+00 -0.46690447189E+01  0.46690447189E+01  0.00000000000E+00 0. -1.
          1    1    1    2  502    0 -0.32947363024E+02  0.26179877850E+02  0.17999187730E+03  0.18484585640E+03  0.00000000000E+00 0. -1.
         -1    1    1    2    0  501  0.32947363024E+02 -0.26179877850E+02  0.19522350671E+03  0.19970761704E+03  0.00000000000E+00 0.  1.
</event>
<event>
 4    1  0.6888348E+001  0.2886647E+02  0.7546771E-02  0.1429709E+00
          2   -1    0    0  502    0  0.00000000000E+00  0.00000000000E+00  0.69873025594E+02  0.69873025594E+02  0.00000000000E+00 0.  1.
         -2   -1    0    0    0  501 -0.00000000000E+00 -0.00000000000E+00 -0.12205891412E+02  0.12205891412E+02  0.00000000000E+00 0. -1.
          1    1    1    2  502    0  0.26541871490E+02 -0.11349099782E+02  0.22613796286E+02  0.36669562180E+02  0.00000000000E+00 0. -1.
         -1    1    1    2    0  501 -0.26541871490E+02  0.11349099782E+02  0.35053337896E+02  0.45409354825E+02  0.00000000000E+00 0.  1.
</event>
<event>
 4    1  0.6888348E+001  0.3953262E+02  0.7546771E-02  0.1351247E+00
          2   -1    0    0  502    0  0.00000000000E+00  0.00000000000E+00  0.40460033676E+03  0.40460033676E+03  0.00000000000E+00 0.  1.
         -2   -1    0    0    0  501 -0.00000000000E+00 -0.00000000000E+00 -0.39245564865E+01  0.39245564865E+01  0.00000000000E+00 0. -1.
          1    1    1    2  502    0  0.22096344128E+02 -0.32780778161E+02  0.17468267738E+03  0.17910015527E+03  0.00000000000E+00 0.  1.
         -1    1    1    2    0  501 -0.22096344128E+02  0.32780778161E+02  0.22599310289E+03  0.22942473798E+03  0.00000000000E+00 0. -1.
</event>
<event>
 4    1  0.6888348E+001  0.3612894E+02  0.7546771E-02  0.1372796E+00
          2   -1    0    0  502    0  0.00000000000E+00  0.00000000000E+00  0.23974405894E+04  0.23974405894E+04  0.00000000000E+00 0.  1.
         -2   -1    0    0    0  501 -0.00000000000E+00 -0.00000000000E+00 -0.57165252568E+00  0.57165252568E+00  0.00000000000E+00 0. -1.
          1    1    1    2  502    0 -0.76350253808E+01 -0.35312977908E+02  0.93690837780E+03  0.93760471863E+03  0.00000000000E+00 0. -1.
         -1    1    1    2    0  501  0.76350253808E+01  0.35312977908E+02  0.14599605591E+04  0.14604075233E+04  0.00000000000E+00 0.  1.
</event>
<event>
 4    1  0.6888348E+001  0.2698619E+02  0.7546771E-02  0.1447747E+00
          2   -1    0    0  502    0  0.00000000000E+00  0.00000000000E+00  0.34750963140E+03  0.34750963140E+03  0.00000000000E+00 0. -1.
         -2   -1    0    0    0  501 -0.00000000000E+00 -0.00000000000E+00 -0.21107769906E+01  0.21107769906E+01  0.00000000000E+00 0.  1.
          1    1    1    2  502    0  0.23567246253E+02 -0.13146828724E+02  0.15789465252E+03  0.16018419241E+03  0.00000000000E+00 0. -1.
         -1    1    1    2    0  501 -0.23567246253E+02  0.13146828724E+02  0.18750420189E+03  0.18943621598E+03  0.00000000000E+00 0.  1.
</event>
<event>
 4    1  0.6888348E+001  0.2898871E+02  0.7546771E-02  0.1428593E+00
          2   -1    0    0  502    0  0.00000000000E+00  0.00000000000E+00  0.20136066128E+03  0.20136066128E+03  0.00000000000E+00 0.  1.
         -2   -1    0    0    0  501 -0.00000000000E+00 -0.00000000000E+00 -0.60291713142E+01  0.60291713142E+01  0.00000000000E+00 0. -1.
          1    1    1    2  502    0  0.54404629835E+01  0.28473617753E+02  0.15519628604E+03  0.15788043813E+03  0.00000000000E+00 0.  1.
         -1    1    1    2    0  501 -0.54404629835E+01 -0.28473617753E+02  0.40135203923E+02  0.49509394456E+02  0.00000000000E+00 0. -1.
</event>
<event>
 4    1  0.6888348E+001  0.6563983E+02  0.7546771E-02  0.1241787E+00
          2   -1    0    0  502    0  0.00000000000E+00  0.00000000000E+00  0.17744985643E+03  0.17744985643E+03  0.00000000000E+00 0.  1.
         -2   -1    0    0    0  501 -0.00000000000E+00 -0.00000000000E+00 -0.25050064209E+02  0.25050064209E+02  0.00000000000E+00 0. -1.
          1    1    1    2  502    0  0.10602591663E+02  0.64777869090E+02  0.58454431615E+02  0.87894868162E+02  0.00000000000E+00 0.  1.
         -1    1    1    2    0  501 -0.10602591663E+02 -0.64777869090E+02  0.93945360605E+02  0.11460505248E+03  0.00000000000E+00 0. -1.
</event>
<event>
 4    1  0.6888348E+001  0.2796762E+02  0.7546771E-02  0.1438123E+00
          2   -1    0    0  502    0  0.00000000000E+00  0.00000000000E+00  0.58707332393E+03  0.58707332393E+03  0.00000000000E+00 0.  1.
         -2   -1    0    0    0  501 -0.00000000000E+00 -0.00000000000E+00 -0.18333224400E+01  0.18333224400E+01  0.00000000000E+00 0. -1.
          1    1    1    2  502    0  0.25164630608E+01 -0.27854181243E+02  0.44654292953E+03  0.44741789852E+03  0.00000000000E+00 0.  1.
         -1    1    1    2    0  501 -0.25164630608E+01  0.27854181243E+02  0.13869707196E+03  0.14148874785E+03  0.00000000000E+00 0. -1.
</event>
<event>
 4    1  0.6888348E+001  0.3986504E+02  0.7546771E-02  0.1349278E+00
          2   -1    0    0  502    0  0.00000000000E+00  0.00000000000E+00  0.23024506149E+03  0.23024506149E+03  0.00000000000E+00 0. -1.
         -2   -1    0    0    0  501 -0.00000000000E+00 -0.00000000000E+00 -0.69028414829E+01  0.69028414829E+01  0.00000000000E+00 0.  1.
          1    1    1    2  502    0 -0.37116378951E+02  0.14546343549E+02  0.11271619445E+03  0.11955819582E+03  0.00000000000E+00 0.  1.
         -1    1    1    2    0  501  0.37116378951E+02 -0.14546343549E+02  0.11062602556E+03  0.11758970715E+03  0.00000000000E+00 0. -1.
</event>
<event>
 4    1  0.6888348E+001  0.2148383E+02  0.7546771E-02  0.1512468E+00
          2   -1    0    0  502    0  0.00000000000E+00  0.00000000000E+00  0.17418968972E+03  0.17418968972E+03  0.00000000000E+00 0.  1.
         -2   -1    0    0    0  501 -0.00000000000E+00 -0.00000000000E+00 -0.40556898782E+01  0.40556898782E+01  0.00000000000E+00 0. -1.
          1    1    1    2  502    0 -0.21733833378E+01  0.21373617796E+02  0.32593161317E+02  0.39036768532E+02  0.00000000000E+00 0. -1.
         -1    1    1    2    0  501  0.21733833378E+01 -0.21373617796E+02  0.13754083853E+03  0.13920861107E+03  0.00000000000E+00 0.  1.
</event>
<event>
 4    1  0.6888348E+001  0.2562695E+02  0.7546771E-02  0.1461910E+00
          2   -1    0    0  502    0  0.00000000000E+00  0.00000000000E+00  0.63068733336E+03  0.63068733336E+03  0.00000000000E+00 0. -1.
         -2   -1    0    0    0  501 -0.00000000000E+00 -0.00000000000E+00 -0.10602792453E+01  0.10602792453E+01  0.00000000000E+00 0.  1.
          1    1    1    2  502    0  0.14018880025E+02 -0.21452538642E+02  0.27256226494E+03  0.27376436708E+03  0.00000000000E+00 0.  1.
         -1    1    1    2    0  501 -0.14018880025E+02  0.21452538642E+02  0.35706478918E+03  0.35798324553E+03  0.00000000000E+00 0. -1.
</event>
<event>
 4    1  0.6888348E+001  0.3738814E+02  0.7546771E-02  0.1364510E+00
          2   -1    0    0  502    0  0.00000000000E+00  0.00000000000E+00  0.52552521012E+03  0.52552521012E+03  0.00000000000E+00 0.  1.
         -2   -1    0    0    0  501 -0.00000000000E+00 -0.00000000000E+00 -0.33083500311E+01  0.33083500311E+01  0.00000000000E+00 0. -1.
          1    1    1    2  502    0 -0.34457262024E+01  0.37229018243E+02  0.37816707589E+03  0.38001080263E+03  0.00000000000E+00 0.  1.
         -1    1    1    2    0  501  0.34457262024E+01 -0.37229018243E+02  0.14404978420E+03  0.14882275752E+03  0.00000000000E+00 0. -1.
</event>
<event>
 4    1  0.6888348E+001  0.2074233E+02  0.7546771E-02  0.1522976E+00
          2   -1    0    0  502    0  0.00000000000E+00  0.00000000000E+00  0.19155968481E+04  0.19155968481E+04  0.00000000000E+00 0. -1.
         -2   -1    0    0    0  501 -0.00000000000E+00 -0.00000000000E+00 -0.23812569898E+00  0.23812569898E+00  0.00000000000E+00 0.  1.
          1    1    1    2  502    0 -0.16935518821E+02 -0.11976332196E+02  0.72938556444E+03  0.72968044098E+03  0.00000000000E+00 0.  1.
         -1    1    1    2    0  501  0.16935518821E+02  0.11976332196E+02  0.11859731579E+04  0.11861545328E+04  0.00000000000E+00 0. -1.
</event>
<event>
 4    1  0.6888348E+001  0.2300893E+02  0.7546771E-02  0.1492386E+00
          2   -1    0    0  502    0  0.00000000000E+00  0.00000000000E+00  0.33526156983E+02  0.33526156983E+02  0.00000000000E+00 0. -1.
         -2   -1    0    0    0  501 -0.00000000000E+00 -0.00000000000E+00 -0.18781134876E+02  0.18781134876E+02  0.00000000000E+00 0.  1.
          1    1    1    2  502    0 -0.22854001012E+02 -0.26656310666E+01 -0.30631027686E+01  0.23211926887E+02  0.00000000000E+00 0.  1.
         -1    1    1    2    0  501  0.22854001012E+02  0.26656310666E+01  0.17808124876E+02  0.29095364972E+02  0.00000000000E+00 0. -1.
</event>
<event>
 4    1  0.6888348E+001  0.3319198E+02  0.7546771E-02  0.1393740E+00
          2   -1    0    0  502    0  0.00000000000E+00  0.00000000000E+00  0.10506848967E+02  0.10506848967E+02  0.00000000000E+00 0. -1.
         -2   -1    0    0    0  501 -0.00000000000E+00 -0.00000000000E+00 -0.19413680574E+03  0.19413680574E+03  0.00000000000E+00 0.  1.
          1    1    1    2  502    0  0.28996770924E+02  0.16152238833E+02 -0.22425587219E+02  0.40057639789E+02  0.00000000000E+00 0. -1.
         -1    1    1    2    0  501 -0.28996770924E+02 -0.16152238833E+02 -0.16120436955E+03  0.16458601491E+03  0.00000000000E+00 0.  1.
</event>
<event>
 4    1  0.6888348E+001  0.2011655E+02  0.7546771E-02  0.1532261E+00
          2   -1    0    0  502    0  0.00000000000E+00  0.00000000000E+00  0.12138750828E+03  0.12138750828E+03  0.00000000000E+00 0. -1.
         -2   -1    0    0    0  501 -0.00000000000E+00 -0.00000000000E+00 -0.57504050663E+01  0.57504050663E+01  0.00000000000E+00 0.  1.
          1    1    1    2  502    0 -0.16654592855E+02  0.11282740955E+02  0.16608503312E+02  0.26086741631E+02  0.00000000000E+00 0.  1.
         -1    1    1    2    0  501  0.16654592855E+02 -0.11282740955E+02  0.99028599901E+02  0.10105117172E+03  0.00000000000E+00 0. -1.
</event>
<event>
 4    1  0.6888348E+001  0.2249161E+02  0.7546771E-02  0.1498983E+00
          2   -1    0    0  502    0  0.00000000000E+00  0.00000000000E+00  0.61475121454E+03  0.61475121454E+03  0.00000000000E+00 0.  1.
         -2   -1    0    0    0  501 -0.00000000000E+00 -0.00000000000E+00 -0.11728735168E+01  0.11728735168E+01  0.00000000000E+00 0. -1.
          1    1    1    2  502    0 -0.21934326736E+02  0.49757456998E+01  0.47501601168E+03  0.47554819324E+03  0.00000000000E+00 0.  1.
         -1    1    1    2    0  501  0.21934326736E+02 -0.49757456998E+01  0.13856232934E+03  0.14037589482E+03  0.00000000000E+00 0. -1.
</event>
<event>
 4    1  0.6888348E+001  0.3432653E+02  0.7546771E-02  0.1385361E+00
          2   -1    0    0  502    0  0.00000000000E+00  0.00000000000E+00  0.31339744997E+04  0.31339744997E+04  0.00000000000E+00 0.  1.
         -2   -1    0    0    0  501 -0.00000000000E+00 -0.00000000000E+00 -0.37608563412E+00  0.37608563412E+00  0.00000000000E+00 0. -1.
          1    1    1    2  502    0  0.32377360854E+02  0.11402516723E+02  0.15930977934E+04  0.15934675680E+04  0.00000000000E+00 0. -1.
         -1    1    1    2    0  501 -0.32377360854E+02 -0.11402516723E+02  0.15405006207E+04  0.15408830173E+04  0.00000000000E+00 0.  1.
</event>
<event>
 4    1  0.6888348E+001  0.3102799E+02  0.7546771E-02  0.1410869E+00
          2   -1    0    0  502    0  0.00000000000E+00  0.00000000000E+00  0.10035379690E+03  0.10035379690E+03  0.00000000000E+00 0.  1.
         -2   -1    0    0    0  501 -0.00000000000E+00 -0.00000000000E+00 -0.11060816481E+02  0.11060816481E+02  0.00000000000E+00 0. -1.
          1    1    1    2  502    0 -0.31016961175E+02 -0.82722645879E+00  0.24356015211E+02  0.39445553122E+02  0.00000000000E+00 0. -1.
         -1    1    1    2    0  501  0.31016961175E+02  0.82722645879E+00  0.64936965206E+02  0.71969060257E+02  0.00000000000E+00 0.  1.
</event>
<event>
 4    1  0.6888348E+001  0.3589917E+02  0.7546771E-02  0.1374350E+00
          2   -1    0    0  502    0  0.00000000000E+00  0.00000000000E+00  0.45989744667E+02  0.45989744667E+02  0.00000000000E+00 0. -1.
         -2   -1    0    0    0  501 -0.00000000000E+00 -0.00000000000E+00 -0.29226106460E+02  0.29226106460E+02  0.00000000000E+00 0.  1.
          1    1    1    2  502    0 -0.35477155996E+02 -0.54883038368E+01  0.16013610924E+02  0.39308851566E+02  0.00000000000E+00 0. -1.
         -1    1    1    2    0  501  0.35477155996E+02  0.54883038368E+01  0.75002728263E+00  0.35906999561E+02  0.00000000000E+00 0.  1.
</event>
<event>
 4    1  0.6888348E+001  0.2430509E+02  0.7546771E-02  0.1476730E+00
          2   -1    0    0  502    0  0.00000000000E+00  0.00000000000E+00  0.30790147106E+03  0.30790147106E+03  0.00000000000E+00 0. -1.
         -2   -1    0    0    0  501 -0.00000000000E+00 -0.00000000000E+00 -0.44432087557E+01  0.44432087557E+01  0.00000000000E+00 0.  1.
          1    1    1    2  502    0 -0.17414066251E+02 -0.16955463529E+02  0.34008265474E+02  0.41800712523E+02  0.00000000000E+00 0.  1.
         -1    1    1    2    0  501  0.17414066251E+02  0.16955463529E+02  0.26944999682E+03  0.27054396729E+03  0.00000000000E+00 0. -1.
</event>
<event>
 4    1  0.6888348E+001  0.2030223E+02  0.7546771E-02  0.1529465E+00
          2   -1    0    0  502    0  0.00000000000E+00  0.00000000000E+00  0.43612594037E+03  0.43612594037E+03  0.00000000000E+00 0.  1.
         -2   -1    0    0    0  501 -0.00000000000E+00 -0.00000000000E+00 -0.99473798239E+00  0.99473798239E+00  0.00000000000E+00 0. -1.
          1    1    1    2  502    0  0.17867012065E+02  0.96410883040E+01  0.26639072442E+03  0.26716324366E+03  0.00000000000E+00 0.  1.
         -1    1    1    2    0  501 -0.17867012065E+02 -0.96410883040E+01  0.16874047796E+03  0.16995743469E+03  0.00000000000E+00 0. -1.
</event>
<event>
 4    1  0.6888348E+001  0.2303414E+02  0.7546771E-02  0.1492070E+00
          2   -1    0    0  502    0  0.00000000000E+00  0.00000000000E+00  0.33867822095E+02  0.33867822095E+02  0.00000000000E+00 0. -1.
         -2   -1    0    0    0  501 -0.00000000000E+00 -0.00000000000E+00 -0.20877173288E+02  0.20877173288E+02  0.00000000000E+00 0.  1.
          1    1    1    2  502    0 -0.12466796895E+02  0.19368805302E+02  0.20170986967E+02  0.30617647834E+02  0.00000000000E+00 0. -1.
         -1    1    1    2    0  501  0.12466796895E+02 -0.19368805302E+02 -0.71803381598E+01  0.24127347549E+02  0.00000000000E+00 0.  1.
</event>
<event>
 4    1  0.6888348E+001  0.2020331E+02  0.7546771E-02  0.1530950E+00
          2   -1    0    0  502    0  0.00000000000E+00  0.00000000000E+00  0.18405971448E+03  0.18405971448E+03  0.00000000000E+00 0. -1.
         -2   -1    0    0    0  501 -0.00000000000E+00 -0.00000000000E+00 -0.23747736798E+01  0.23747736798E+01  0.00000000000E+00 0.  1.
          1    1    1    2  502    0  0.16309624988E+02 -0.11923499602E+02  0.66862238225E+02  0.69847924883E+02  0.00000000000E+00 0.  1.
         -1    1    1    2    0  501 -0.16309624988E+02  0.11923499602E+02  0.11482270258E+03  0.11658656328E+03  0.00000000000E+00 0. -1.
</event>
<event>
 4    1  0.6888348E+001  0.3235732E+02  0.7546771E-02  0.1400159E+00
          2   -1    0    0  502    0  0.00000000000E+00  0.00000000000E+00  0.67692968581E+03  0.67692968581E+03  0.00000000000E+00 0. -1.
         -2   -1    0    0    0  501 -0.00000000000E+00 -0.00000000000E+00 -0.19184364344E+01  0.19184364344E+01  0.00000000000E+00 0.  1.
          1    1    1    2  502    0  0.26550466639E+02  0.18495097620E+02  0.48692130402E+03  0.48799523791E+03  0.00000000000E+00 0. -1.
         -1    1    1    2    0  501 -0.26550466639E+02 -0.18495097620E+02  0.18808994536E+03  0.19085288434E+03  0.00000000000E+00 0.  1.
</event>
<event>
 4    1  0.6888348E+001  0.2217620E+02  0.7546771E-02  0.1503110E+00
          2   -1    0    0  502    0  0.00000000000E+00  0.00000000000E+00  0.23380820857E+03  0.23380820857E+03  0.00000000000E+00 0.  1.
         -2   -1    0    0    0  501 -0.00000000000E+00 -0.00000000000E+00 -0.21455617129E+01  0.21455617129E+01  0.00000000000E+00 0. -1.
          1    1    1    2  502    0 -0.51059564860E+01 -0.21580386455E+02  0.13237639398E+03  0.13422106226E+03  0.00000000000E+00 0.  1.
         -1    1    1    2    0  501  0.51059564860E+01  0.21580386455E+02  0.99286252876E+02  0.10173270802E+03  0.00000000000E+00 0. -1.
</event>
<event>
 4    1  0.6888348E+001  0.3194046E+02  0.7546771E-02  0.1403451E+00
          2   -1    0    0  502    0  0.00000000000E+00  0.00000000000E+00  0.17664805715E+04  0.17664805715E+04  0.00000000000E+00 0.  1.
         -2   -1    0    0    0  501 -0.00000000000E+00 -0.00000000000E+00 -0.59155836407E+00  0.59155836407E+00  0.00000000000E+00 0. -1.
          1    1    1    2  502    0  0.19945749074E+02 -0.24947150662E+02  0.10190103385E+04  0.10195107960E+04  0.00000000000E+00 0.  1.
         -1    1    1    2    0  501 -0.19945749074E+02  0.24947150662E+02  0.74687867467E+03  0.74756133388E+03  0.00000000000E+00 0. -1.
</event>
<event>
 4    1  0.6888348E+001  0.3401111E+02  0.7546771E-02  0.1387652E+00
          2   -1    0    0  502    0  0.00000000000E+00  0.00000000000E+00  0.89367870199E+03  0.89367870199E+03  0.00000000000E+00 0. -1.
         -2   -1    0    0    0  501 -0.00000000000E+00 -0.00000000000E+00 -0.15847811085E+01  0.15847811085E+01  0.00000000000E+00 0.  1.
          1    1    1    2  502    0  0.21061088137E+02  0.26705549531E+02  0.63766603484E+03  0.63857241390E+03  0.00000000000E+00 0. -1.
         -1    1    1    2    0  501 -0.21061088137E+02 -0.26705549531E+02  0.25442788604E+03  0.25669106920E+03  0.00000000000E+00 0.  1.
</event>
<event>
 4    1  0.6888348E+001  0.2445576E+02  0.7546771E-02  0.1474985E+00
          2   -1    0    0  502    0  0.00000000000E+00  0.00000000000E+00  0.91918504520E+03  0.91918504520E+03  0.00000000000E+00 0. -1.
         -2   -1    0    0    0  501 -0.00000000000E+00 -0.00000000000E+00 -0.11903207851E+01  0.11903207851E+01  0.00000000000E+00 0.  1.
          1    1    1    2  502    0 -0.56588977945E+01  0.23792038445E+02  0.76885358836E+03  0.76924243549E+03  0.00000000000E+00 0. -1.
         -1    1    1    2    0  501  0.56588977945E+01 -0.23792038445E+02  0.14914113605E+03  0.15113293050E+03  0.00000000000E+00 0.  1.
</event>
<event>
 4    1  0.6888348E+001  0.3275394E+02  0.7546771E-02  0.1397081E+00
          2   -1    0    0  502    0  0.00000000000E+00  0.00000000000E+00  0.76113195462E+02  0.76113195462E+02  0.00000000000E+00 0. -1.
         -2   -1    0    0    0  501 -0.00000000000E+00 -0.00000000000E+00 -0.14739598004E+02  0.14739598004E+02  0.00000000000E+00 0.  1.
          1    1    1    2  502    0 -0.51287862273E+01  0.32349901453E+02  0.40186007960E+02  0.51843377668E+02  0.00000000000E+00 0. -1.
         -1    1    1    2    0  501  0.51287862273E+01 -0.32349901453E+02  0.21187589498E+02  0.39009415798E+02  0.00000000000E+00 0.  1.
</event>
<event>
 4    1  0.6888348E+001  0.3098514E+02  0.7546771E-02  0.1411224E+00
          2   -1    0    0  502    0  0.00000000000E+00  0.00000000000E+00  0.10038970819E+04  0.10038970819E+04  0.00000000000E+00 0. -1.
         -2   -1    0    0    0  501 -0.00000000000E+00 -0.00000000000E+00 -0.96019522918E+00  0.96019522918E+00  0.00000000000E+00 0.  1.
          1    1    1    2  502    0  0.26913349435E+02  0.15354162224E+02  0.53325620977E+03  0.53415565515E+03  0.00000000000E+00 0.  1.
         -1    1    1    2    0  501 -0.26913349435E+02 -0.15354162224E+02  0.46968067686E+03  0.47070162194E+03  0.00000000000E+00 0. -1.
</event>
<event>
 4    1  0.6888348E+001  0.2169268E+02  0.7546771E-02  0.1509601E+00
          2   -1    0    0  502    0  0.00000000000E+00  0.00000000000E+00  0.58965690743E+02  0.58965690743E+02  0.00000000000E+00 0. -1.
         -2   -1    0    0    0  501 -0.00000000000E+00 -0.00000000000E+00 -0.95699817763E+01  0.95699817763E+01  0.00000000000E+00 0.  1.
          1    1    1    2  502    0  0.10320743525E+02 -0.19080211133E+02  0.38663692245E+02  0.44333433228E+02  0.00000000000E+00 0. -1.
         -1    1    1    2    0  501 -0.10320743525E+02  0.19080211133E+02  0.10732016721E+02  0.24202239291E+02  0.00000000000E+00 0.  1.
</event>
<event>
 4    1  0.6888348E+001  0.3089090E+02  0.7546771E-02  0.1412009E+00
          2   -1    0    0  502    0  0.00000000000E+00  0.00000000000E+00  0.74117963576E+02  0.74117963576E+02  0.00000000000E+00 0. -1.
         -2   -1    0    0    0  501 -0.00000000000E+00 -0.00000000000E+00 -0.12903611205E+02  0.12903611205E+02  0.00000000000E+00 0.  1.
          1    1    1    2  502    0  0.28798751342E+02  0.11174966015E+02  0.32666063731E+02  0.44959088781E+02  0.00000000000E+00 0.  1.
         -1    1    1    2    0  501 -0.28798751342E+02 -0.11174966015E+02  0.28548288640E+02  0.42062486001E+02  0.00000000000E+00 0. -1.
</event>
<event>
 4    1  0.6888348E+001  0.3611072E+02  0.7546771E-02  0.1372918E+00
          2   -1    0    0  502    0  0.00000000000E+00  0.00000000000E+00  0.24023071031E+02  0.24023071031E+02  0.00000000000E+00 0.  1.
         -2   -1    0    0    0  501 -0.00000000000E+00 -0.00000000000E+00 -0.70162536727E+02  0.70162536727E+02  0.00000000000E+00 0. -1.
          1    1    1    2  502    0  0.32054307747E+02 -0.16628447897E+02 -0.66420276062E+00  0.36116825579E+02  0.00000000000E+00 0.  1.
         -1    1    1    2    0  501 -0.32054307747E+02  0.16628447897E+02 -0.45475262935E+02  0.58068782178E+02  0.00000000000E+00 0. -1.
</event>
<event>
 4    1  0.6888348E+001  0.2803334E+02  0.7546771E-02  0.1437495E+00
          2   -1    0    0  502    0  0.00000000000E+00  0.00000000000E+00  0.83964147781E+01  0.83964147781E+01  0.00000000000E+00 0. -1.
         -2   -1    0    0    0  501 -0.00000000000E+00 -0.00000000000E+00 -0.10634163712E+03  0.10634163712E+03  0.00000000000E+00 0.  1.
          1    1    1    2  502    0  0.43779892093E+01  0.27689370205E+02 -0.29111098873E+02  0.40414404480E+02  0.00000000000E+00 0.  1.
         -1    1    1    2    0  501 -0.43779892093E+01 -0.27689370205E+02 -0.68834123471E+02  0.74323647420E+02  0.00000000000E+00 0. -1.
</event>
<event>
 4    1  0.6888348E+001  0.2010260E+02  0.7546771E-02  0.1532473E+00
          2   -1    0    0  502    0  0.00000000000E+00  0.00000000000E+00  0.26126562430E+02  0.26126562430E+02  0.00000000000E+00 0.  1.
         -2   -1    0    0    0  501 -0.00000000000E+00 -0.00000000000E+00 -0.20637955541E+02  0.20637955541E+02  0.00000000000E+00 0. -1.
          1    1    1    2  502    0  0.13456708402E+02 -0.14934245709E+02  0.14447760670E+02  0.24755857576E+02  0.00000000000E+00 0.  1.
         -1    1    1    2    0  501 -0.13456708402E+02  0.14934245709E+02 -0.89591537811E+01  0.22008660396E+02  0.00000000000E+00 0. -1.
</event>
<event>
 4    1  0.6888348E+001  0.4649298E+02  0.7546771E-02  0.1314138E+00
          2   -1    0    0  502    0  0.00000000000E+00  0.00000000000E+00  0.35127695509E+02  0.35127695509E+02  0.00000000000E+00 0.  1.
         -2   -1    0    0    0  501 -0.00000000000E+00 -0.00000000000E+00 -0.85361385606E+02  0.85361385606E+02  0.00000000000E+00 0. -1.
          1    1    1    2  502    0 -0.17626965695E+02 -0.43021941450E+02 -0.56945058205E+02  0.73514196042E+02  0.00000000000E+00 0. -1.
         -1    1    1    2    0  501  0.17626965695E+02  0.43021941450E+02  0.67113681079E+01  0.46974885073E+02  0.00000000000E+00 0.  1.
</event>
<event>
 4    1  0.6888348E+001  0.3577213E+02  0.7546771E-02  0.1375215E+00
          2   -1    0    0  502    0  0.00000000000E+00  0.00000000000E+00  0.60253183392E+03  0.60253183392E+03  0.00000000000E+00 0. -1.
         -2   -1    0    0    0  501 -0.00000000000E+00 -0.00000000000E+00 -0.31182767849E+01  0.31182767849E+01  0.00000000000E+00 0.  1.
          1    1    1    2  502    0 -0.34638830682E+02 -0.89329016397E+01  0.12869104390E+03  0.13357031894E+03  0.00000000000E+00 0.  1.
         -1    1    1    2    0  501  0.34638830682E+02  0.89329016397E+01  0.47072251323E+03  0.47207979176E+03  0.00000000000E+00 0. -1.
</event>
<event>
 4    1  0.6888348E+001  0.2079463E+02  0.7546771E-02  0.1522217E+00
          2   -1    0    0  502    0  0.00000000000E+00  0.00000000000E+00  0.46850979197E+02  0.46850979197E+02  0.00000000000E+00 0. -1.
         -2   -1    0    0    0  501 -0.00000000000E+00 -0.00000000000E+00 -0.16599435101E+02  0.16599435101E+02  0.00000000000E+00 0.  1.
          1    1    1    2  502    0 -0.13857485859E+02  0.15504413142E+02  0.36264853105E+02  0.41803783464E+02  0.00000000000E+00 0. -1.
         -1    1    1    2    0  501  0.13857485859E+02 -0.15504413142E+02 -0.60133090084E+01  0.21646630833E+02  0.00000000000E+00 0.  1.
</event>
<event>
 4    1  0.6888348E+001  0.2680463E+02  0.7546771E-02  0.1449581E+00
          2   -1    0    0  502    0  0.00000000000E+00  0.00000000000E+00  0.41094228186E+03  0.41094228186E+03  0.00000000000E+00 0. -1.
         -2   -1    0    0    0  501 -0.00000000000E+00 -0.00000000000E+00 -0.29134891234E+01  0.29134891234E+01  0.00000000000E+00 0.  1.
          1    1    1    2  502    0 -0.20580690664E+00 -0.26803842818E+02  0.73158493863E+02  0.77914398994E+02  0.00000000000E+00 0.  1.
         -1    1    1    2    0  501  0.20580690664E+00  0.26803842818E+02  0.33487029887E+03  0.33594137199E+03  0.00000000000E+00 0. -1.
</event>
<event>
 4    1  0.6888348E+001  0.3469011E+02  0.7546771E-02  0.1382755E+00
          2   -1    0    0  502    0  0.00000000000E+00  0.00000000000E+00  0.18134376787E+04  0.18134376787E+04  0.00000000000E+00 0.  1.
         -2   -1    0    0    0  501 -0.00000000000E+00 -0.00000000000E+00 -0.71231974498E+00  0.71231974498E+00  0.00000000000E+00 0. -1.
          1    1    1    2  502    0 -0.10457734970E+02 -0.33076271840E+02  0.11435774091E+04  0.11441034457E+04  0.00000000000E+00 0.  1.
         -1    1    1    2    0  501  0.10457734970E+02  0.33076271840E+02  0.66914794990E+03  0.67004655274E+03  0.00000000000E+00 0. -1.
</event>
<event>
 4    1  0.6888348E+001  0.2028623E+02  0.7546771E-02  0.1529704E+00
          2   -1    0    0  502    0  0.00000000000E+00  0.00000000000E+00  0.20964748550E+01  0.20964748550E+01  0.00000000000E+00 0. -1.
         -2   -1    0    0    0  501 -0.00000000000E+00 -0.00000000000E+00 -0.36386980645E+03  0.36386980645E+03  0.00000000000E+00 0.  1.
          1    1    1    2  502    0 -0.95445598285E+01  0.17900628451E+02 -0.30506339374E+03  0.30573715071E+03  0.00000000000E+00 0.  1.
         -1    1    1    2    0  501  0.95445598285E+01 -0.17900628451E+02 -0.56709937851E+02  0.60229130596E+02  0.00000000000E+00 0. -1.
</event>
<event>
 4    1  0.6888348E+001  0.2681003E+02  0.7546771E-02  0.1449526E+00
          2   -1    0    0  502    0  0.00000000000E+00  0.00000000000E+00  0.10408982507E+04  0.10408982507E+04  0.00000000000E+00 0.  1.
         -2   -1    0    0    0  501 -0.00000000000E+00 -0.00000000000E+00 -0.73742453893E+00  0.73742453893E+00  0.00000000000E+00 0. -1.
          1    1    1    2  502    0 -0.22134369219E+02  0.15127705571E+02  0.38875156617E+03  0.38967493886E+03  0.00000000000E+00 0. -1.
         -1    1    1    2    0  501  0.22134369219E+02 -0.15127705571E+02  0.65140925999E+03  0.65196073637E+03  0.00000000000E+00 0.  1.
</event>
<event>
 4    1  0.6888348E+001  0.2650879E+02  0.7546771E-02  0.1452606E+00
          2   -1    0    0  502    0  0.00000000000E+00  0.00000000000E+00  0.40818019654E+03  0.40818019654E+03  0.00000000000E+00 0.  1.
         -2   -1    0    0    0  501 -0.00000000000E+00 -0.00000000000E+00 -0.17641269851E+02  0.17641269851E+02  0.00000000000E+00 0. -1.
          1    1    1    2  502    0  0.20290693464E+02 -0.17058837176E+02 -0.69858276538E+01  0.27413827807E+02  0.00000000000E+00 0. -1.
         -1    1    1    2    0  501 -0.20290693464E+02  0.17058837176E+02  0.39752475434E+03  0.39840763858E+03  0.00000000000E+00 0.  1.
</event>
<event>
 4    1  0.6888348E+001  0.5077738E+02  0.7546771E-02  0.1294837E+00
          2   -1    0    0  502    0  0.00000000000E+00  0.00000000000E+00  0.23059464871E+04  0.23059464871E+04  0.00000000000E+00 0. -1.
         -2   -1    0    0    0  501 -0.00000000000E+00 -0.00000000000E+00 -0.66074976209E+01  0.66074976209E+01  0.00000000000E+00 0.  1.
          1    1    1    2  502    0 -0.43216114282E+02  0.26659138225E+02  0.95756805788E+02  0.10838684440E+03  0.00000000000E+00 0.  1.
         -1    1    1    2    0  501  0.43216114282E+02 -0.26659138225E+02  0.22035821837E+04  0.22041671404E+04  0.00000000000E+00 0. -1.
</event>
<event>
 4    1  0.6888348E+001  0.2076885E+02  0.7546771E-02  0.1522591E+00
          2   -1    0    0  502    0  0.00000000000E+00  0.00000000000E+00  0.98912164011E+02  0.98912164011E+02  0.00000000000E+00 0. -1.
         -2   -1    0    0    0  501 -0.00000000000E+00 -0.00000000000E+00 -0.56748269906E+01  0.56748269906E+01  0.00000000000E+00 0.  1.
          1    1    1    2  502    0 -0.15091983511E+02  0.14268047666E+02  0.21455896080E+02  0.29861356753E+02  0.00000000000E+00 0.  1.
         -1    1    1    2    0  501  0.15091983511E+02 -0.14268047666E+02  0.71781440940E+02  0.74725634249E+02  0.00000000000E+00 0. -1.
</event>
<event>
 4    1  0.6888348E+001  0.2146814E+02  0.7546771E-02  0.1512685E+00
          2   -1    0    0  502    0  0.00000000000E+00  0.00000000000E+00  0.15773550614E+02  0.15773550614E+02  0.00000000000E+00 0.  1.
         -2   -1    0    0    0  501 -0.00000000000E+00 -0.00000000000E+00 -0.29230190778E+02  0.29230190778E+02  0.00000000000E+00 0. -1.
          1    1    1    2  502    0 -0.20208181890E+02 -0.72464004378E+01 -0.62800754861E+01  0.22367840368E+02  0.00000000000E+00 0.  1.
         -1    1    1    2    0  501  0.20208181890E+02  0.72464004378E+01 -0.71765646772E+01  0.22635901024E+02  0.00000000000E+00 0. -1.
</event>
<event>
 4    1  0.6888348E+001  0.2299953E+02  0.7546771E-02  0.1492504E+00
          2   -1    0    0  502    0  0.00000000000E+00  0.00000000000E+00  0.55882320942E+03  0.55882320942E+03  0.00000000000E+00 0.  1.
         -2   -1    0    0    0  501 -0.00000000000E+00 -0.00000000000E+00 -0.98974231323E+00  0.98974231323E+00  0.00000000000E+00 0. -1.
          1    1    1    2  502    0  0.22898672079E+02 -0.21515682607E+01  0.33736023184E+03  0.33814331940E+03  0.00000000000E+00 0.  1.
         -1    1    1    2    0  501 -0.22898672079E+02  0.21515682607E+01  0.22047323527E+03  0.22166963233E+03  0.00000000000E+00 0. -1.
</event>
<event>
 4    1  0.6888348E+001  0.3283089E+02  0.7546771E-02  0.1396489E+00
          2   -1    0    0  502    0  0.00000000000E+00  0.00000000000E+00  0.30463395451E+03  0.30463395451E+03  0.00000000000E+00 0. -1.
         -2   -1    0    0    0  501 -0.00000000000E+00 -0.00000000000E+00 -0.42622043135E+01  0.42622043135E+01  0.00000000000E+00 0.  1.
          1    1    1    2  502    0 -0.97735374862E+01  0.31342383414E+02  0.86531984395E+02  0.92550804191E+02  0.00000000000E+00 0.  1.
         -1    1    1    2    0  501  0.97735374862E+01 -0.31342383414E+02  0.21383976580E+03  0.21634535463E+03  0.00000000000E+00 0. -1.
</event>
<event>
 4    1  0.6888348E+001  0.2110808E+02  0.7546771E-02  0.1517727E+00
          2   -1    0    0  502    0  0.00000000000E+00  0.00000000000E+00  0.24372049815E+01  0.24372049815E+01  0.00000000000E+00 0.  1.
         -2   -1    0    0    0  501 -0.00000000000E+00 -0.00000000000E+00 -0.28396204060E+03  0.28396204060E+03  0.00000000000E+00 0. -1.
          1    1    1    2  502    0  0.20817211276E+02 -0.34920897242E+01 -0.22622857557E+03  0.22721117794E+03  0.00000000000E+00 0. -1.
         -1    1    1    2    0  501 -0.20817211276E+02  0.34920897242E+01 -0.55296260050E+02  0.59188067644E+02  0.00000000000E+00 0.  1.
</event>
<event>
 4    1  0.6888348E+001  0.2070138E+02  0.7546771E-02  0.1523571E+00
          2   -1    0    0  502    0  0.00000000000E+00  0.00000000000E+00  0.45731763219E+02  0.45731763219E+02  0.00000000000E+00 0.  1.
         -2   -1    0    0    0  501 -0.00000000000E+00 -0.00000000000E+00 -0.10800718564E+02  0.10800718564E+02  0.00000000000E+00 0. -1.
          1    1    1    2  502    0  0.66559043286E+01  0.19602190307E+02  0.27750066036E+02  0.34620992075E+02  0.00000000000E+00 0.  1.
         -1    1    1    2    0  501 -0.66559043286E+01 -0.19602190307E+02  0.71809786198E+01  0.21911489708E+02  0.00000000000E+00 0. -1.
</event>
<event>
 4    1  0.6888348E+001  0.2075715E+02  0.7546771E-02  0.1522761E+00
          2   -1    0    0  502    0  0.00000000000E+00  0.00000000000E+00  0.14785832708E+04  0.14785832708E+04  0.00000000000E+00 0. -1.
         -2   -1    0    0    0  501 -0.00000000000E+00 -0.00000000000E+00 -0.30214647142E+00  0.30214647142E+00  0.00000000000E+00 0.  1.
          1    1    1    2  502    0 -0.73289889945E+01  0.19420229852E+02  0.59968835158E+03  0.60004748014E+03  0.00000000000E+00 0.  1.
         -1    1    1    2    0  501  0.73289889945E+01 -0.19420229852E+02  0.87859277275E+03  0.87883793713E+03  0.00000000000E+00 0. -1.
</event>
<event>
 4    1  0.6888348E+001  0.3133833E+02  0.7546771E-02  0.1408312E+00
          2   -1    0    0  502    0  0.00000000000E+00  0.00000000000E+00  0.42197059498E+02  0.42197059498E+02  0.00000000000E+00 0.  1.
         -2   -1    0    0    0  501 -0.00000000000E+00 -0.00000000000E+00 -0.24112874887E+02  0.24112874887E+02  0.00000000000E+00 0. -1.
          1    1    1    2  502    0  0.30399850391E+02  0.76118189507E+01  0.15226458856E+02  0.34841580630E+02  0.00000000000E+00 0.  1.
         -1    1    1    2    0  501 -0.30399850391E+02 -0.76118189507E+01  0.28577257541E+01  0.31468353754E+02  0.00000000000E+00 0. -1.
</event>
<event>
 4    1  0.6888348E+001  0.7470959E+02  0.7546771E-02  0.1216692E+00
          2   -1    0    0  502    0  0.00000000000E+00  0.00000000000E+00  0.17651750192E+04  0.17651750192E+04  0.00000000000E+00 0.  1.
         -2   -1    0    0    0  501 -0.00000000000E+00 -0.00000000000E+00 -0.32181932171E+01  0.32181932171E+01  0.00000000000E+00 0. -1.
          1    1    1    2  502    0  0.56016518112E+02 -0.49433509649E+02  0.99779374563E+03  0.10005867684E+04  0.00000000000E+00 0. -1.
         -1    1    1    2    0  501 -0.56016518112E+02  0.49433509649E+02  0.76416308039E+03  0.76780644411E+03  0.00000000000E+00 0.  1.
</event>
<event>
 4    1  0.6888348E+001  0.2308681E+02  0.7546771E-02  0.1491411E+00
          2   -1    0    0  502    0  0.00000000000E+00  0.00000000000E+00  0.25538707086E+02  0.25538707086E+02  0.00000000000E+00 0. -1.
         -2   -1    0    0    0  501 -0.00000000000E+00 -0.00000000000E+00 -0.29539014077E+02  0.29539014077E+02  0.00000000000E+00 0.  1.
          1    1    1    2  502    0 -0.20275623513E+02 -0.11040837111E+02  0.12918334331E+02  0.26455327532E+02  0.00000000000E+00 0. -1.
         -1    1    1    2    0  501  0.20275623513E+02  0.11040837111E+02 -0.16918641322E+02  0.28622393631E+02  0.00000000000E+00 0.  1.
</event>
<event>
 4    1  0.6888348E+001  0.2585191E+02  0.7546771E-02  0.1459495E+00
          2   -1    0    0  502    0  0.00000000000E+00  0.00000000000E+00  0.69923090391E+00  0.69923090391E+00  0.00000000000E+00 0.  1.
         -2   -1    0    0    0  501 -0.00000000000E+00 -0.00000000000E+00 -0.96232465903E+03  0.96232465903E+03  0.00000000000E+00 0. -1.
          1    1    1    2  502    0  0.20550813972E+02 -0.15683913046E+02 -0.52047764072E+03  0.52111927193E+03  0.00000000000E+00 0.  1.
         -1    1    1    2    0  501 -0.20550813972E+02  0.15683913046E+02 -0.44114778740E+03  0.44190461800E+03  0.00000000000E+00 0. -1.
</event>
<event>
 4    1  0.6888348E+001  0.2701479E+02  0.7546771E-02  0.1447460E+00
          2   -1    0    0  502    0  0.00000000000E+00  0.00000000000E+00  0.80650007907E+02  0.80650007907E+02  0.00000000000E+00 0.  1.
         -2   -1    0    0    0  501 -0.00000000000E+00 -0.00000000000E+00 -0.93844081228E+01  0.93844081228E+01  0.00000000000E+00 0. -1.
          1    1    1    2  502    0 -0.25696853457E+02  0.83348964557E+01  0.44143928366E+02  0.51754083782E+02  0.00000000000E+00 0.  1.
         -1    1    1    2    0  501  0.25696853457E+02 -0.83348964557E+01  0.27121671418E+02  0.38280332248E+02  0.00000000000E+00 0. -1.
</event>
<event>
 4    1  0.6888348E+001  0.5020086E+02  0.7546771E-02  0.1297304E+00
          2   -1    0    0  502    0  0.00000000000E+00  0.00000000000E+00  0.74196803866E+03  0.74196803866E+03  0.00000000000E+00 0.  1.
         -2   -1    0    0    0  501 -0.00000000000E+00 -0.00000000000E+00 -0.34094577524E+01  0.34094577524E+01  0.00000000000E+00 0. -1.
          1    1    1    2  502    0 -0.48163212059E+02 -0.14157364876E+02  0.39221726646E+03  0.39541688138E+03  0.00000000000E+00 0.  1.
         -1    1    1    2    0  501  0.48163212059E+02  0.14157364876E+02  0.34634131445E+03  0.34996061503E+03  0.00000000000E+00 0. -1.
</event>
<event>
 4    1  0.6888348E+001  0.2744957E+02  0.7546771E-02  0.1443144E+00
          2   -1    0    0  502    0  0.00000000000E+00  0.00000000000E+00  0.11878420043E+02  0.11878420043E+02  0.00000000000E+00 0. -1.
         -2   -1    0    0    0  501 -0.00000000000E+00 -0.00000000000E+00 -0.73513324058E+02  0.73513324058E+02  0.00000000000E+00 0.  1.
          1    1    1    2  502    0  0.20738369481E+02 -0.17983297017E+02 -0.46628073855E+02  0.54107820246E+02  0.00000000000E+00 0.  1.
         -1    1    1    2    0  501 -0.20738369481E+02  0.17983297017E+02 -0.15006830160E+02  0.31283923855E+02  0.00000000000E+00 0. -1.
</event>
<event>
 4    1  0.6888348E+001  0.5318376E+02  0.7546771E-02  0.1284929E+00
          2   -1    0    0  502    0  0.00000000000E+00  0.00000000000E+00  0.20535862780E+04  0.20535862780E+04  0.00000000000E+00 0. -1.
         -2   -1    0    0    0  501 -0.00000000000E+00 -0.00000000000E+00 -0.14980447879E+01  0.14980447879E+01  0.00000000000E+00 0.  1.
          1    1    1    2  502    0 -0.52539029120E+02  0.82560454320E+01  0.73438383011E+03  0.73630708390E+03  0.00000000000E+00 0.  1.
         -1    1    1    2    0  501  0.52539029120E+02 -0.82560454320E+01  0.13177044031E+04  0.13187772389E+04  0.00000000000E+00 0. -1.
</event>
<event>
 4    1  0.6888348E+001  0.2989884E+02  0.7546771E-02  0.1420478E+00
          2   -1    0    0  502    0  0.00000000000E+00  0.00000000000E+00  0.24621372985E+02  0.24621372985E+02  0.00000000000E+00 0. -1.
         -2   -1    0    0    0  501 -0.00000000000E+00 -0.00000000000E+00 -0.36389731289E+02  0.36389731289E+02  0.00000000000E+00 0.  1.
          1    1    1    2  502    0  0.12990774126E+02 -0.26929169889E+02 -0.44340110345E+01  0.30225830958E+02  0.00000000000E+00 0.  1.
         -1    1    1    2    0  501 -0.12990774126E+02  0.26929169889E+02 -0.73343472695E+01  0.30785273316E+02  0.00000000000E+00 0. -1.
</event>
<event>
 4    1  0.6888348E+001  0.2333945E+02  0.7546771E-02  0.1488279E+00
          2   -1    0    0  502    0  0.00000000000E+00  0.00000000000E+00  0.52728070709E+02  0.52728070709E+02  0.00000000000E+00 0.  1.
         -2   -1    0    0    0  501 -0.00000000000E+00 -0.00000000000E+00 -0.10331329538E+02  0.10331329538E+02  0.00000000000E+00 0. -1.
          1    1    1    2  502    0 -0.17862155083E+02 -0.15022425475E+02  0.21001570773E+02  0.31397385661E+02  0.00000000000E+00 0. -1.
         -1    1    1    2    0  501  0.17862155083E+02  0.15022425475E+02  0.21395170397E+02  0.31662014586E+02  0.00000000000E+00 0.  1.
</event>
<event>
 4    1  0.6888348E+001  0.2157484E+02  0.7546771E-02  0.1511214E+00
          2   -1    0    0  502    0  0.00000000000E+00  0.00000000000E+00  0.79602734709E+03  0.79602734709E+03  0.00000000000E+00 0.  1.
         -2   -1    0    0    0  501 -0.00000000000E+00 -0.00000000000E+00 -0.91523160839E+00  0.91523160839E+00  0.00000000000E+00 0. -1.
          1    1    1    2  502    0  0.20053494096E+02  0.79580864256E+01  0.63700219788E+03  0.63736745592E+03  0.00000000000E+00 0.  1.
         -1    1    1    2    0  501 -0.20053494096E+02 -0.79580864256E+01  0.15810991760E+03  0.15957512278E+03  0.00000000000E+00 0. -1.
</event>
<event>
 4    1  0.6888348E+001  0.3772689E+02  0.7546771E-02  0.1362347E+00
          2   -1    0    0  502    0  0.00000000000E+00  0.00000000000E+00  0.21871694638E+02  0.21871694638E+02  0.00000000000E+00 0. -1.
         -2   -1    0    0    0  501 -0.00000000000E+00 -0.00000000000E+00 -0.80109915588E+02  0.80109915588E+02  0.00000000000E+00 0.  1.
          1    1    1    2  502    0 -0.15797909175E+01 -0.37693794547E+02 -0.70295148028E+01  0.38376190080E+02  0.00000000000E+00 0.  1.
         -1    1    1    2    0  501  0.15797909175E+01  0.37693794547E+02 -0.51208706146E+02  0.63605420146E+02  0.00000000000E+00 0. -1.
</event>
<event>
 4    1  0.6888348E+001  0.2166332E+02  0.7546771E-02  0.1510001E+00
          2   -1    0    0  502    0  0.00000000000E+00  0.00000000000E+00  0.95833423273E+00  0.95833423273E+00  0.00000000000E+00 0.  1.
         -2   -1    0    0    0  501 -0.00000000000E+00 -0.00000000000E+00 -0.56214022142E+03  0.56214022142E+03  0.00000000000E+00 0. -1.
          1    1    1    2  502    0  0.18994902046E+02  0.10415993386E+02 -0.38165872913E+03  0.38227304998E+03  0.00000000000E+00 0. -1.
         -1    1    1    2    0  501 -0.18994902046E+02 -0.10415993386E+02 -0.17952315806E+03  0.18082550567E+03  0.00000000000E+00 0.  1.
</event>
<event>
 4    1  0.6888348E+001  0.6648791E+02  0.7546771E-02  0.1239251E+00
          2   -1    0    0  502    0  0.00000000000E+00  0.00000000000E+00  0.24008944117E+04  0.24008944117E+04  0.00000000000E+00 0.  1.
         -2   -1    0    0    0  501 -0.00000000000E+00 -0.00000000000E+00 -0.38051317650E+01  0.38051317650E+01  0.00000000000E+00 0. -1.
          1    1    1    2  502    0  0.42856415709E+02  0.50832766591E+02  0.20623260287E+04  0.20633975117E+04  0.00000000000E+00 0.  1.
         -1    1    1    2    0  501 -0.42856415709E+02 -0.50832766591E+02  0.33476325116E+03  0.34130203172E+03  0.00000000000E+00 0. -1.
</event>
<event>
 4    1  0.6888348E+001  0.2304051E+02  0.7546771E-02  0.1491990E+00
          2   -1    0    0  502    0  0.00000000000E+00  0.00000000000E+00  0.67289533398E+03  0.67289533398E+03  0.00000000000E+00 0.  1.
         -2   -1    0    0    0  501 -0.00000000000E+00 -0.00000000000E+00 -0.80820947309E+00  0.80820947309E+00  0.00000000000E+00 0. -1.
          1    1    1    2  502    0  0.22829495346E+02  0.31111362079E+01  0.28401249091E+03  0.28494553869E+03  0.00000000000E+00 0. -1.
         -1    1    1    2    0  501 -0.22829495346E+02 -0.31111362079E+01  0.38807463360E+03  0.38875800477E+03  0.00000000000E+00 0.  1.
</event>
<event>
 4    1  0.6888348E+001  0.4339421E+02  0.7546771E-02  0.1329667E+00
          2   -1    0    0  502    0  0.00000000000E+00  0.00000000000E+00  0.39126043304E+03  0.39126043304E+03  0.00000000000E+00 0. -1.
         -2   -1    0    0    0  501 -0.00000000000E+00 -0.00000000000E+00 -0.76062726318E+01  0.76062726318E+01  0.00000000000E+00 0.  1.
          1    1    1    2  502    0  0.39182768321E+02  0.18648540544E+02  0.70966626862E+02  0.83182447222E+02  0.00000000000E+00 0.  1.
         -1    1    1    2    0  501 -0.39182768321E+02 -0.18648540544E+02  0.31268753355E+03  0.31568425845E+03  0.00000000000E+00 0. -1.
</event>
<event>
 4    1  0.6888348E+001  0.2091326E+02  0.7546771E-02  0.1520507E+00
          2   -1    0    0  502    0  0.00000000000E+00  0.00000000000E+00  0.78347827366E+03  0.78347827366E+03  0.00000000000E+00 0.  1.
         -2   -1    0    0    0  501 -0.00000000000E+00 -0.00000000000E+00 -0.71554910738E+00  0.71554910738E+00  0.00000000000E+00 0. -1.
          1    1    1    2  502    0  0.20122390770E+02 -0.56968258372E+01  0.57522919709E+03  0.57560923692E+03  0.00000000000E+00 0. -1.
         -1    1    1    2    0  501 -0.20122390770E+02  0.56968258372E+01  0.20753352746E+03  0.20858458586E+03  0.00000000000E+00 0.  1.
</event>
<event>
 4    1  0.6888348E+001  0.2531761E+02  0.7546771E-02  0.1465281E+00
          2   -1    0    0  502    0  0.00000000000E+00  0.00000000000E+00  0.14249851919E+03  0.14249851919E+03  0.00000000000E+00 0.  1.
         -2   -1    0    0    0  501 -0.00000000000E+00 -0.00000000000E+00 -0.56579105907E+01  0.56579105907E+01  0.00000000000E+00 0. -1.
          1    1    1    2  502    0  0.25317503035E+02 -0.74626126418E-01  0.10195885234E+03  0.10505517169E+03  0.00000000000E+00 0.  1.
         -1    1    1    2    0  501 -0.25317503035E+02  0.74626126418E-01  0.34881756257E+02  0.43101258085E+02  0.00000000000E+00 0. -1.
</event>
<event>
 4    1  0.6888348E+001  0.2232857E+02  0.7546771E-02  0.1501106E+00
          2   -1    0    0  502    0  0.00000000000E+00  0.00000000000E+00  0.32195296927E+03  0.32195296927E+03  0.00000000000E+00 0.  1.
         -2   -1    0    0    0  501 -0.00000000000E+00 -0.00000000000E+00 -0.15546199703E+01  0.15546199703E+01  0.00000000000E+00 0. -1.
          1    1    1    2  502    0 -0.22267407034E+02  0.16516138540E+01  0.17029361553E+03  0.17175121756E+03  0.00000000000E+00 0.  1.
         -1    1    1    2    0  501  0.22267407034E+02 -0.16516138540E+01  0.15010473377E+03  0.15175637167E+03  0.00000000000E+00 0. -1.
</event>
<event>
 4    1  0.6888348E+001  0.2743032E+02  0.7546771E-02  0.1443333E+00
          2   -1    0    0  502    0  0.00000000000E+00  0.00000000000E+00  0.12529866185E+03  0.12529866185E+03  0.00000000000E+00 0.  1.
         -2   -1    0    0    0  501 -0.00000000000E+00 -0.00000000000E+00 -0.23923365797E+02  0.23923365797E+02  0.00000000000E+00 0. -1.
          1    1    1    2  502    0  0.76246176197E+01  0.26349340814E+02 -0.13883811702E+02  0.30743825112E+02  0.00000000000E+00 0. -1.
         -1    1    1    2    0  501 -0.76246176197E+01 -0.26349340814E+02  0.11525910776E+03  0.11847820254E+03  0.00000000000E+00 0.  1.
</event>
<event>
 4    1  0.6888348E+001  0.2466096E+02  0.7546771E-02  0.1472632E+00
          2   -1    0    0  502    0  0.00000000000E+00  0.00000000000E+00  0.52646570817E+01  0.52646570817E+01  0.00000000000E+00 0.  1.
         -2   -1    0    0    0  501 -0.00000000000E+00 -0.00000000000E+00 -0.26422564490E+03  0.26422564490E+03  0.00000000000E+00 0. -1.
          1    1    1    2  502    0  0.19580698560E+02 -0.14991969256E+02 -0.23056678050E+03  0.23188187330E+03  0.00000000000E+00 0. -1.
         -1    1    1    2    0  501 -0.19580698560E+02  0.14991969256E+02 -0.28394207325E+02  0.37608428681E+02  0.00000000000E+00 0.  1.
</event>
<event>
 4    1  0.6888348E+001  0.2321053E+02  0.7546771E-02  0.1489871E+00
          2   -1    0    0  502    0  0.00000000000E+00  0.00000000000E+00  0.26191889594E+03  0.26191889594E+03  0.00000000000E+00 0. -1.
         -2   -1    0    0    0  501 -0.00000000000E+00 -0.00000000000E+00 -0.20808953941E+01  0.20808953941E+01  0.00000000000E+00 0.  1.
          1    1    1    2  502    0  0.17452881444E+02 -0.15301164985E+02  0.14410746702E+03  0.14596469015E+03  0.00000000000E+00 0. -1.
         -1    1    1    2    0  501 -0.17452881444E+02  0.15301164985E+02  0.11573053352E+03  0.11803510118E+03  0.00000000000E+00 0.  1.
</event>
<event>
 4    1  0.6888348E+001  0.2799904E+02  0.7546771E-02  0.1437823E+00
          2   -1    0    0  502    0  0.00000000000E+00  0.00000000000E+00  0.33337343992E+02  0.33337343992E+02  0.00000000000E+00 0.  1.
         -2   -1    0    0    0  501 -0.00000000000E+00 -0.00000000000E+00 -0.48185004972E+02  0.48185004972E+02  0.00000000000E+00 0. -1.
          1    1    1    2  502    0 -0.42436794614E+01 -0.27675569603E+02  0.21741742658E+02  0.35449250232E+02  0.00000000000E+00 0.  1.
         -1    1    1    2    0  501  0.42436794614E+01  0.27675569603E+02 -0.36589403637E+02  0.46073098732E+02  0.00000000000E+00 0. -1.
</event>
<event>
 4    1  0.6888348E+001  0.3621224E+02  0.7546771E-02  0.1372235E+00
          2   -1    0    0  502    0  0.00000000000E+00  0.00000000000E+00  0.10937720991E+03  0.10937720991E+03  0.00000000000E+00 0.  1.
         -2   -1    0    0    0  501 -0.00000000000E+00 -0.00000000000E+00 -0.12202638364E+02  0.12202638364E+02  0.00000000000E+00 0. -1.
          1    1    1    2  502    0  0.15177739645E+02  0.32877998527E+02  0.56630222089E+02  0.67218365212E+02  0.00000000000E+00 0.  1.
         -1    1    1    2    0  501 -0.15177739645E+02 -0.32877998527E+02  0.40544349455E+02  0.54361483061E+02  0.00000000000E+00 0. -1.
</event>
<event>
 4    1  0.6888348E+001  0.2203183E+02  0.7546771E-02  0.1505027E+00
          2   -1    0    0  502    0  0.00000000000E+00  0.00000000000E+00  0.83716822758E+03  0.83716822758E+03  0.00000000000E+00 0. -1.
         -2   -1    0    0    0  501 -0.00000000000E+00 -0.00000000000E+00 -0.57990148627E+00  0.57990148627E+00  0.00000000000E+00 0.  1.
          1    1    1    2  502    0 -0.12320554518E+02  0.18264874847E+02  0.42344403718E+03  0.42401680903E+03  0.00000000000E+00 0.  1.
         -1    1    1    2    0  501  0.12320554518E+02 -0.18264874847E+02  0.41314428892E+03  0.41373132004E+03  0.00000000000E+00 0. -1.
</event>
<event>
 4    1  0.6888348E+001  0.2632933E+02  0.7546771E-02  0.1454464E+00
          2   -1    0    0  502    0  0.00000000000E+00  0.00000000000E+00  0.10494451728E+04  0.10494451728E+04  0.00000000000E+00 0.  1.
         -2   -1    0    0    0  501 -0.00000000000E+00 -0.00000000000E+00 -0.73775124594E+00  0.73775124594E+00  0.00000000000E+00 0. -1.
          1    1    1    2  502    0  0.14878953330E+02  0.21722117455E+02  0.35451703777E+03  0.35549340881E+03  0.00000000000E+00 0.  1.
         -1    1    1    2    0  501 -0.14878953330E+02 -0.21722117455E+02  0.69419038382E+03  0.69468951527E+03  0.00000000000E+00 0. -1.
</event>
<event>
 4    1  0.6888348E+001  0.3061546E+02  0.7546771E-02  0.1414322E+00
          2   -1    0    0  502    0  0.00000000000E+00  0.00000000000E+00  0.35833919096E+02  0.35833919096E+02  0.00000000000E+00 0.  1.
         -2   -1    0    0    0  501 -0.00000000000E+00 -0.00000000000E+00 -0.38212516443E+02  0.38212516443E+02  0.00000000000E+00 0. -1.
          1    1    1    2  502    0  0.13916023175E+02  0.27269960294E+02 -0.21984587130E+02  0.37691225859E+02  0.00000000000E+00 0. -1.
         -1    1    1    2    0  501 -0.13916023175E+02 -0.27269960294E+02  0.19605989784E+02  0.36355209680E+02  0.00000000000E+00 0.  1.
</event>
<event>
 4    1  0.6888348E+001  0.2121159E+02  0.7546771E-02  0.1516265E+00
          2   -1    0    0  502    0  0.00000000000E+00  0.00000000000E+00  0.76996206996E+03  0.76996206996E+03  0.00000000000E+00 0. -1.
         -2   -1    0    0    0  501 -0.00000000000E+00 -0.00000000000E+00 -0.87003562637E+00  0.87003562637E+00  0.00000000000E+00 0.  1.
          1    1    1    2  502    0 -0.62226316011E+00 -0.21202464106E+02  0.60539793354E+03  0.60576941952E+03  0.00000000000E+00 0. -1.
         -1    1    1    2    0  501  0.62226316011E+00  0.21202464106E+02  0.16369410079E+03  0.16506268606E+03  0.00000000000E+00 0.  1.
</event>
<event>
 4    1  0.6888348E+001  0.2058113E+02  0.7546771E-02  0.1525330E+00
          2   -1    0    0  502    0  0.00000000000E+00  0.00000000000E+00  0.44441253477E+01  0.44441253477E+01  0.00000000000E+00 0. -1.
         -2   -1    0    0    0  501 -0.00000000000E+00 -0.00000000000E+00 -0.10530509553E+03  0.10530509553E+03  0.00000000000E+00 0.  1.
          1    1    1    2  502    0 -0.57867539325E+01 -0.19750857229E+02 -0.67333930140E+02  0.70409097640E+02  0.00000000000E+00 0.  1.
         -1    1    1    2    0  501  0.57867539325E+01  0.19750857229E+02 -0.33527040038E+02  0.39340123234E+02  0.00000000000E+00 0. -1.
</event>
<event>
 4    1  0.6888348E+001  0.2811388E+02  0.7546771E-02  0.1436729E+00
          2   -1    0    0  502    0  0.00000000000E+00  0.00000000000E+00  0.41181758602E+02  0.41181758602E+02  0.00000000000E+00 0. -1.
         -2   -1    0    0    0  501 -0.00000000000E+00 -0.00000000000E+00 -0.29513097308E+02  0.29513097308E+02  0.00000000000E+00 0.  1.
          1    1    1    2  502    0 -0.25784180789E+02 -0.11205636418E+02 -0.15068160834E+02  0.31897331196E+02  0.00000000000E+00 0. -1.
         -1    1    1    2    0  501  0.25784180789E+02  0.11205636418E+02  0.26736822128E+02  0.38797524715E+02  0.00000000000E+00 0.  1.
</event>
<event>
 4    1  0.6888348E+001  0.3132161E+02  0.7546771E-02  0.1408449E+00
          2   -1    0    0  502    0  0.00000000000E+00  0.00000000000E+00  0.20438748687E+02  0.20438748687E+02  0.00000000000E+00 0. -1.
         -2   -1    0    0    0  501 -0.00000000000E+00 -0.00000000000E+00 -0.87646827817E+02  0.87646827817E+02  0.00000000000E+00 0.  1.
          1    1    1    2  502    0  0.69305023949E+01 -0.30545231615E+02  0.27437828282E+01  0.31441555019E+02  0.00000000000E+00 0. -1.
         -1    1    1    2    0  501 -0.69305023949E+01  0.30545231615E+02 -0.69951861959E+02  0.76644021484E+02  0.00000000000E+00 0.  1.
</event>
<event>
 4    1  0.6888348E+001  0.2074761E+02  0.7546771E-02  0.1522899E+00
          2   -1    0    0  502    0  0.00000000000E+00  0.00000000000E+00  0.90830917119E+00  0.90830917119E+00  0.00000000000E+00 0.  1.
         -2   -1    0    0    0  501 -0.00000000000E+00 -0.00000000000E+00 -0.10610921915E+04  0.10610921915E+04  0.00000000000E+00 0. -1.
          1    1    1    2  502    0 -0.20627931625E+02 -0.22252433646E+01 -0.92509637390E+03  0.92532900326E+03  0.00000000000E+00 0. -1.
         -1    1    1    2    0  501  0.20627931625E+02  0.22252433646E+01 -0.13508750844E+03  0.13667149742E+03  0.00000000000E+00 0.  1.
</event>
<event>
 4    1  0.6888348E+001  0.2533719E+02  0.7546771E-02  0.1465066E+00
          2   -1    0    0  502    0  0.00000000000E+00  0.00000000000E+00  0.81662179950E+01  0.81662179950E+01  0.00000000000E+00 0.  1.
         -2   -1    0    0    0  501 -0.00000000000E+00 -0.00000000000E+00 -0.10098671646E+03  0.10098671646E+03  0.00000000000E+00 0. -1.
          1    1    1    2  502    0  0.17292064716E+02  0.18519112640E+02 -0.20721685920E+02  0.32731655969E+02  0.00000000000E+00 0.  1.
         -1    1    1    2    0  501 -0.17292064716E+02 -0.18519112640E+02 -0.72098812549E+02  0.76421278491E+02  0.00000000000E+00 0. -1.
</event>
<event>
 4    1  0.6888348E+001  0.2520131E+02  0.7546771E-02  0.1466564E+00
          2   -1    0    0  502    0  0.00000000000E+00  0.00000000000E+00  0.25909069006E+02  0.25909069006E+02  0.00000000000E+00 0. -1.
         -2   -1    0    0    0  501 -0.00000000000E+00 -0.00000000000E+00 -0.45789634865E+02  0.45789634865E+02  0.00000000000E+00 0.  1.
          1    1    1    2  502    0  0.24571775276E+02  0.55976472361E+01  0.14496861475E+02  0.29073437833E+02  0.00000000000E+00 0. -1.
         -1    1    1    2    0  501 -0.24571775276E+02 -0.55976472361E+01 -0.34377427333E+02  0.42625266038E+02  0.00000000000E+00 0.  1.
</event>
<event>
 4    1  0.6888348E+001  0.2972711E+02  0.7546771E-02  0.1421983E+00
          2   -1    0    0  502    0  0.00000000000E+00  0.00000000000E+00  0.59131301804E+01  0.59131301804E+01  0.00000000000E+00 0.  1.
         -2   -1    0    0    0  501 -0.00000000000E+00 -0.00000000000E+00 -0.15148179193E+03  0.15148179193E+03  0.00000000000E+00 0. -1.
          1    1    1    2  502    0 -0.29182955409E+02 -0.56618040362E+01 -0.63663881714E+02  0.70262299608E+02  0.00000000000E+00 0.  1.
         -1    1    1    2    0  501  0.29182955409E+02  0.56618040362E+01 -0.81904780031E+02  0.87132622497E+02  0.00000000000E+00 0. -1.
</event>
<event>
 4    1  0.6888348E+001  0.5792043E+02  0.7546771E-02  0.1267067E+00
          2   -1    0    0  502    0  0.00000000000E+00  0.00000000000E+00  0.11823033924E+03  0.11823033924E+03  0.00000000000E+00 0.  1.
         -2   -1    0    0    0  501 -0.00000000000E+00 -0.00000000000E+00 -0.28375995190E+02  0.28375995190E+02  0.00000000000E+00 0. -1.
          1    1    1    2  502    0 -0.20696470782E+02  0.54096505242E+02  0.45379519773E+02  0.73580409058E+02  0.00000000000E+00 0. -1.
         -1    1    1    2    0  501  0.20696470782E+02 -0.54096505242E+02  0.44474824281E+02  0.73025925376E+02  0.00000000000E+00 0.  1.
</event>
<event>
 4    1  0.6888348E+001  0.4725572E+02  0.7546771E-02  0.1310530E+00
          2   -1    0    0  502    0  0.00000000000E+00  0.00000000000E+00  0.75439640056E+02  0.75439640056E+02  0.00000000000E+00 0.  1.
         -2   -1    0    0    0  501 -0.00000000000E+00 -0.00000000000E+00 -0.35429885335E+02  0.35429885335E+02  0.00000000000E+00 0. -1.
          1    1    1    2  502    0 -0.33533548362E+02  0.33295709861E+02 -0.24796092764E+01  0.47320731430E+02  0.00000000000E+00 0. -1.
         -1    1    1    2    0  501  0.33533548362E+02 -0.33295709861E+02  0.42489363997E+02  0.63548793961E+02  0.00000000000E+00 0.  1.
</event>
<event>
 4    1  0.6888348E+001  0.2026586E+02  0.7546771E-02  0.1530010E+00
          2   -1    0    0  502    0  0.00000000000E+00  0.00000000000E+00  0.73064718251E+03  0.73064718251E+03  0.00000000000E+00 0.  1.
         -2   -1    0    0    0  501 -0.00000000000E+00 -0.00000000000E+00 -0.58658592759E+00  0.58658592759E+00  0.00000000000E+00 0. -1.
          1    1    1    2  502    0  0.10045641328E+02  0.17600859871E+02  0.29034815627E+03  0.29105456022E+03  0.00000000000E+00 0.  1.
         -1    1    1    2    0  501 -0.10045641328E+02 -0.17600859871E+02  0.43971244031E+03  0.44017920821E+03  0.00000000000E+00 0. -1.
</event>
<event>
 4    1  0.6888348E+001  0.4027973E+02  0.7546771E-02  0.1346854E+00
          2   -1    0    0  502    0  0.00000000000E+00  0.00000000000E+00  0.18830878175E+03  0.18830878175E+03  0.00000000000E+00 0. -1.
         -2   -1    0    0    0  501 -0.00000000000E+00 -0.00000000000E+00 -0.88289993533E+01  0.88289993533E+01  0.00000000000E+00 0.  1.
          1    1    1    2  502    0 -0.19144890494E+02 -0.35439096691E+02  0.74427657994E+02  0.84628202632E+02  0.00000000000E+00 0.  1.
         -1    1    1    2    0  501  0.19144890494E+02  0.35439096691E+02  0.10505212440E+03  0.11250957847E+03  0.00000000000E+00 0. -1.
</event>
<event>
 4    1  0.6888348E+001  0.2303839E+02  0.7546771E-02  0.1492017E+00
          2   -1    0    0  502    0  0.00000000000E+00  0.00000000000E+00  0.47223818813E+03  0.47223818813E+03  0.00000000000E+00 0.  1.
         -2   -1    0    0    0  501 -0.00000000000E+00 -0.00000000000E+00 -0.11700883487E+01  0.11700883487E+01  0.00000000000E+00 0. -1.
          1    1    1    2  502    0 -0.22653782844E+02  0.41920582162E+01  0.18852557087E+03  0.18992803401E+03  0.00000000000E+00 0. -1.
         -1    1    1    2    0  501  0.22653782844E+02 -0.41920582162E+01  0.28254252891E+03  0.28348024247E+03  0.00000000000E+00 0.  1.
</event>
<event>
 4    1  0.6888348E+001  0.2806846E+02  0.7546771E-02  0.1437161E+00
          2   -1    0    0  502    0  0.00000000000E+00  0.00000000000E+00  0.22952582595E+04  0.22952582595E+04  0.00000000000E+00 0.  1.
         -2   -1    0    0    0  501 -0.00000000000E+00 -0.00000000000E+00 -0.34575174838E+00  0.34575174838E+00  0.00000000000E+00 0. -1.
          1    1    1    2  502    0 -0.81539927376E+01 -0.26857976022E+02  0.10497451744E+04  0.10501203596E+04  0.00000000000E+00 0. -1.
         -1    1    1    2    0  501  0.81539927376E+01  0.26857976022E+02  0.12451673334E+04  0.12454836517E+04  0.00000000000E+00 0.  1.
</event>
<event>
 4    1  0.6888348E+001  0.2179633E+02  0.7546771E-02  0.1508192E+00
          2   -1    0    0  502    0  0.00000000000E+00  0.00000000000E+00  0.59095838303E+03  0.59095838303E+03  0.00000000000E+00 0. -1.
         -2   -1    0    0    0  501 -0.00000000000E+00 -0.00000000000E+00 -0.87751256313E+00  0.87751256313E+00  0.00000000000E+00 0.  1.
          1    1    1    2  502    0  0.21763478094E+02 -0.11963098703E+01  0.38073972315E+03  0.38136310378E+03  0.00000000000E+00 0. -1.
         -1    1    1    2    0  501 -0.21763478094E+02  0.11963098703E+01  0.20934114731E+03  0.21047279181E+03  0.00000000000E+00 0.  1.
</event>
<event>
 4    1  0.6888348E+001  0.2352842E+02  0.7546771E-02  0.1485967E+00
          2   -1    0    0  502    0  0.00000000000E+00  0.00000000000E+00  0.10402003878E+04  0.10402003878E+04  0.00000000000E+00 0. -1.
         -2   -1    0    0    0  501 -0.00000000000E+00 -0.00000000000E+00 -0.57154107633E+00  0.57154107633E+00  0.00000000000E+00 0.  1.
          1    1    1    2  502    0 -0.22945175442E+02 -0.52063106900E+01  0.65635661865E+03  0.65677819512E+03  0.00000000000E+00 0. -1.
         -1    1    1    2    0  501  0.22945175442E+02  0.52063106900E+01  0.38327222805E+03  0.38399373373E+03  0.00000000000E+00 0.  1.
</event>
<event>
 4    1  0.6888348E+001  0.2040779E+02  0.7546771E-02  0.1527890E+00
          2   -1    0    0  502    0  0.00000000000E+00  0.00000000000E+00  0.11221198597E+03  0.11221198597E+03  0.00000000000E+00 0. -1.
         -2   -1    0    0    0  501 -0.00000000000E+00 -0.00000000000E+00 -0.40092735698E+01  0.40092735698E+01  0.00000000000E+00 0.  1.
          1    1    1    2  502    0 -0.18506218102E+02  0.86021997451E+01  0.38265364912E+02  0.43367223807E+02  0.00000000000E+00 0.  1.
         -1    1    1    2    0  501  0.18506218102E+02 -0.86021997451E+01  0.69937347494E+02  0.72854035738E+02  0.00000000000E+00 0. -1.
</event>
<event>
 4    1  0.6888348E+001  0.2739887E+02  0.7546771E-02  0.1443642E+00
          2   -1    0    0  502    0  0.00000000000E+00  0.00000000000E+00  0.16584835984E+04  0.16584835984E+04  0.00000000000E+00 0.  1.
         -2   -1    0    0    0  501 -0.00000000000E+00 -0.00000000000E+00 -0.45442847317E+00  0.45442847317E+00  0.00000000000E+00 0. -1.
          1    1    1    2  502    0 -0.26921743914E+02  0.50909352720E+01  0.77699470159E+03  0.77747762940E+03  0.00000000000E+00 0.  1.
         -1    1    1    2    0  501  0.26921743914E+02 -0.50909352720E+01  0.88103446833E+03  0.88146039746E+03  0.00000000000E+00 0. -1.
</event>
<event>
 4    1  0.6888348E+001  0.6098256E+02  0.7546771E-02  0.1256530E+00
          2   -1    0    0  502    0  0.00000000000E+00  0.00000000000E+00  0.32274074777E+03  0.32274074777E+03  0.00000000000E+00 0.  1.
         -2   -1    0    0    0  501 -0.00000000000E+00 -0.00000000000E+00 -0.11523294729E+02  0.11523294729E+02  0.00000000000E+00 0. -1.
          1    1    1    2  502    0 -0.28456218587E+01 -0.60916130538E+02  0.15449807952E+03  0.16609795031E+03  0.00000000000E+00 0.  1.
         -1    1    1    2    0  501  0.28456218587E+01  0.60916130538E+02  0.15671937353E+03  0.16816609219E+03  0.00000000000E+00 0. -1.
</event>
<event>
 4    1  0.6888348E+001  0.2325820E+02  0.7546771E-02  0.1489281E+00
          2   -1    0    0  502    0  0.00000000000E+00  0.00000000000E+00  0.70898510163E+01  0.70898510163E+01  0.00000000000E+00 0.  1.
         -2   -1    0    0    0  501 -0.00000000000E+00 -0.00000000000E+00 -0.82870485538E+02  0.82870485538E+02  0.00000000000E+00 0. -1.
          1    1    1    2  502    0 -0.21711994969E+02 -0.83386580845E+01 -0.50557333979E+02  0.55650588166E+02  0.00000000000E+00 0. -1.
         -1    1    1    2    0  501  0.21711994969E+02  0.83386580845E+01 -0.25223300543E+02  0.34309748388E+02  0.00000000000E+00 0.  1.
</event>
<event>
 4    1  0.6888348E+001  0.2008339E+02  0.7546771E-02  0.1532765E+00
          2   -1    0    0  502    0  0.00000000000E+00  0.00000000000E+00  0.16680814818E+02  0.16680814818E+02  0.00000000000E+00 0.  1.
         -2   -1    0    0    0  501 -0.00000000000E+00 -0.00000000000E+00 -0.37141021383E+02  0.37141021383E+02  0.00000000000E+00 0. -1.
          1    1    1    2  502    0  0.15018700262E+02  0.13333456851E+02 -0.26127312081E+02  0.32954193447E+02  0.00000000000E+00 0. -1.
         -1    1    1    2    0  501 -0.15018700262E+02 -0.13333456851E+02  0.56671055163E+01  0.20867642754E+02  0.00000000000E+00 0.  1.
</event>
<event>
 4    1  0.6888348E+001  0.2180108E+02  0.7546771E-02  0.1508128E+00
          2   -1    0    0  502    0  0.00000000000E+00  0.00000000000E+00  0.10039196901E+04  0.10039196901E+04  0.00000000000E+00 0.  1.
         -2   -1    0    0    0  501 -0.00000000000E+00 -0.00000000000E+00 -0.53327071702E+00  0.53327071702E+00  0.00000000000E+00 0. -1.
          1    1    1    2  502    0 -0.54905878396E+01 -0.21098355100E+02  0.33345721715E+03  0.33416912307E+03  0.00000000000E+00 0. -1.
         -1    1    1    2    0  501  0.54905878396E+01  0.21098355100E+02  0.66992920226E+03  0.67028383777E+03  0.00000000000E+00 0.  1.
</event>
<event>
 4    1  0.6888348E+001  0.4512577E+02  0.7546771E-02  0.1320812E+00
          2   -1    0    0  502    0  0.00000000000E+00  0.00000000000E+00  0.13092331410E+03  0.13092331410E+03  0.00000000000E+00 0. -1.
         -2   -1    0    0    0  501 -0.00000000000E+00 -0.00000000000E+00 -0.17675209785E+02  0.17675209785E+02  0.00000000000E+00 0.  1.
          1    1    1    2  502    0 -0.30126333118E+02 -0.33596709923E+02  0.82365339959E+02  0.93916899924E+02  0.00000000000E+00 0. -1.
         -1    1    1    2    0  501  0.30126333118E+02  0.33596709923E+02  0.30882764355E+02  0.54681623961E+02  0.00000000000E+00 0.  1.
</event>
<event>
 4    1  0.6888348E+001  0.2008691E+02  0.7546771E-02  0.1532711E+00
          2   -1    0    0  502    0  0.00000000000E+00  0.00000000000E+00  0.62331900113E+03  0.62331900113E+03  0.00000000000E+00 0. -1.
         -2   -1    0    0    0  501 -0.00000000000E+00 -0.00000000000E+00 -0.65401979880E+00  0.65401979880E+00  0.00000000000E+00 0.  1.
          1    1    1    2  502    0 -0.11891264010E+02 -0.16188945821E+02  0.34291983512E+03  0.34350763811E+03  0.00000000000E+00 0. -1.
         -1    1    1    2    0  501  0.11891264010E+02  0.16188945821E+02  0.27974514621E+03  0.28046538281E+03  0.00000000000E+00 0.  1.
</event>
<event>
 4    1  0.6888348E+001  0.4206021E+02  0.7546771E-02  0.1336818E+00
          2   -1    0    0  502    0  0.00000000000E+00  0.00000000000E+00  0.25977640981E+03  0.25977640981E+03  0.00000000000E+00 0. -1.
         -2   -1    0    0    0  501 -0.00000000000E+00 -0.00000000000E+00 -0.24634017812E+02  0.24634017812E+02  0.00000000000E+00 0.  1.
          1    1    1    2  502    0 -0.13468721523E+02 -0.39845387061E+02 -0.33914976172E+01  0.42196724821E+02  0.00000000000E+00 0.  1.
         -1    1    1    2    0  501  0.13468721523E+02  0.39845387061E+02  0.23853388961E+03  0.24221370280E+03  0.00000000000E+00 0. -1.
</event>
<event>
 4    1  0.6888348E+001  0.2364987E+02  0.7546771E-02  0.1484495E+00
          2   -1    0    0  502    0  0.00000000000E+00  0.00000000000E+00  0.18489498364E+02  0.18489498364E+02  0.00000000000E+00 0.  1.
         -2   -1    0    0    0  501 -0.00000000000E+00 -0.00000000000E+00 -0.34414998556E+02  0.34414998556E+02  0.00000000000E+00 0. -1.
          1    1    1    2  502    0  0.22150020180E+02  0.82881325812E+01  0.12389944178E+01  0.23682306535E+02  0.00000000000E+00 0.  1.
         -1    1    1    2    0  501 -0.22150020180E+02 -0.82881325812E+01 -0.17164494610E+02  0.29222190385E+02  0.00000000000E+00 0. -1.
</event>
<event>
 4    1  0.6888348E+001  0.2128285E+02  0.7546771E-02  0.1515265E+00
          2   -1    0    0  502    0  0.00000000000E+00  0.00000000000E+00  0.48567842354E+02  0.48567842354E+02  0.00000000000E+00 0.  1.
         -2   -1    0    0    0  501 -0.00000000000E+00 -0.00000000000E+00 -0.11703378527E+02  0.11703378527E+02  0.00000000000E+00 0. -1.
          1    1    1    2  502    0 -0.16987213012E+00 -0.21282173743E+02  0.48508708239E+01  0.21828667470E+02  0.00000000000E+00 0. -1.
         -1    1    1    2    0  501  0.16987213012E+00  0.21282173743E+02  0.32013593003E+02  0.38442553411E+02  0.00000000000E+00 0.  1.
</event>
<event>
 4    1  0.6888348E+001  0.2477273E+02  0.7546771E-02  0.1471362E+00
          2   -1    0    0  502    0  0.00000000000E+00  0.00000000000E+00  0.14932352850E+04  0.14932352850E+04  0.00000000000E+00 0. -1.
         -2   -1    0    0    0  501 -0.00000000000E+00 -0.00000000000E+00 -0.16949165662E+01  0.16949165662E+01  0.00000000000E+00 0.  1.
          1    1    1    2  502    0  0.12551560276E+02 -0.21357581628E+02  0.95208090587E+02  0.98378191036E+02  0.00000000000E+00 0.  1.
         -1    1    1    2    0  501 -0.12551560276E+02  0.21357581628E+02  0.13963322778E+04  0.13965520105E+04  0.00000000000E+00 0. -1.
</event>
<event>
 4    1  0.6888348E+001  0.2936005E+02  0.7546771E-02  0.1425240E+00
          2   -1    0    0  502    0  0.00000000000E+00  0.00000000000E+00  0.12356716970E+04  0.12356716970E+04  0.00000000000E+00 0. -1.
         -2   -1    0    0    0  501 -0.00000000000E+00 -0.00000000000E+00 -0.69838674120E+00  0.69838674120E+00  0.00000000000E+00 0.  1.
          1    1    1    2  502    0 -0.27698430123E+02  0.97370098386E+01  0.63815156645E+03  0.63882660727E+03  0.00000000000E+00 0. -1.
         -1    1    1    2    0  501  0.27698430123E+02 -0.97370098386E+01  0.59682174380E+03  0.59754347646E+03  0.00000000000E+00 0.  1.
</event>
<event>
 4    1  0.6888348E+001  0.2602541E+02  0.7546771E-02  0.1457652E+00
          2   -1    0    0  502    0  0.00000000000E+00  0.00000000000E+00  0.81610458378E+02  0.81610458378E+02  0.00000000000E+00 0.  1.
         -2   -1    0    0    0  501 -0.00000000000E+00 -0.00000000000E+00 -0.10410555871E+02  0.10410555871E+02  0.00000000000E+00 0. -1.
          1    1    1    2  502    0 -0.18682264649E+02 -0.18118909492E+02  0.56319252219E+02  0.62041760646E+02  0.00000000000E+00 0.  1.
         -1    1    1    2    0  501  0.18682264649E+02  0.18118909492E+02  0.14880650288E+02  0.29979253602E+02  0.00000000000E+00 0. -1.
</event>
<event>
 4    1  0.6888348E+001  0.2007448E+02  0.7546771E-02  0.1532900E+00
          2   -1    0    0  502    0  0.00000000000E+00  0.00000000000E+00  0.31857320527E+01  0.31857320527E+01  0.00000000000E+00 0. -1.
         -2   -1    0    0    0  501 -0.00000000000E+00 -0.00000000000E+00 -0.23117345565E+03  0.23117345565E+03  0.00000000000E+00 0.  1.
          1    1    1    2  502    0 -0.19336479763E+01 -0.19981131710E+02 -0.19284502694E+03  0.19388705226E+03  0.00000000000E+00 0.  1.
         -1    1    1    2    0  501  0.19336479763E+01  0.19981131710E+02 -0.35142696660E+02  0.40472135445E+02  0.00000000000E+00 0. -1.
</event>
<event>
 4    1  0.6888348E+001  0.2900100E+02  0.7546771E-02  0.1428481E+00
          2   -1    0    0  502    0  0.00000000000E+00  0.00000000000E+00  0.11414256053E+04  0.11414256053E+04  0.00000000000E+00 0. -1.
         -2   -1    0    0    0  501 -0.00000000000E+00 -0.00000000000E+00 -0.74138375469E+00  0.74138375469E+00  0.00000000000E+00 0.  1.
          1    1    1    2  502    0 -0.28823517594E+02  0.32035405526E+01  0.61500789858E+03  0.61569129696E+03  0.00000000000E+00 0. -1.
         -1    1    1    2    0  501  0.28823517594E+02 -0.32035405526E+01  0.52567632301E+03  0.52647569214E+03  0.00000000000E+00 0.  1.
</event>
<event>
 4    1  0.6888348E+001  0.2172776E+02  0.7546771E-02  0.1509123E+00
          2   -1    0    0  502    0  0.00000000000E+00  0.00000000000E+00  0.16709211414E+04  0.16709211414E+04  0.00000000000E+00 0. -1.
         -2   -1    0    0    0  501 -0.00000000000E+00 -0.00000000000E+00 -0.31640597186E+00  0.31640597186E+00  0.00000000000E+00 0.  1.
          1    1    1    2  502    0 -0.15577306344E+02  0.15147377664E+02  0.56190602230E+03  0.56232594945E+03  0.00000000000E+00 0.  1.
         -1    1    1    2    0  501  0.15577306344E+02 -0.15147377664E+02  0.11086987131E+04  0.11089115979E+04  0.00000000000E+00 0. -1.
</event>
<event>
 4    1  0.6888348E+001  0.2263134E+02  0.7546771E-02  0.1497180E+00
          2   -1    0    0  502    0  0.00000000000E+00  0.00000000000E+00  0.55614930363E+03  0.55614930363E+03  0.00000000000E+00 0. -1.
         -2   -1    0    0    0  501 -0.00000000000E+00 -0.00000000000E+00 -0.55569540866E+01  0.55569540866E+01  0.00000000000E+00 0.  1.
          1    1    1    2  502    0 -0.10369032460E+02  0.20116182473E+02  0.18768959347E+02  0.29401555510E+02  0.00000000000E+00 0.  1.
         -1    1    1    2    0  501  0.10369032460E+02 -0.20116182473E+02  0.53182339020E+03  0.53230470221E+03  0.00000000000E+00 0. -1.
</event>
<event>
 4    1  0.6888348E+001  0.2668656E+02  0.7546771E-02  0.1450782E+00
          2   -1    0    0  502    0  0.00000000000E+00  0.00000000000E+00  0.12899889845E+04  0.12899889845E+04  0.00000000000E+00 0. -1.
         -2   -1    0    0    0  501 -0.00000000000E+00 -0.00000000000E+00 -0.57572138917E+00  0.57572138917E+00  0.00000000000E+00 0.  1.
          1    1    1    2  502    0 -0.90050547652E+01 -0.25121337510E+02  0.51393540282E+03  0.51462779839E+03  0.00000000000E+00 0.  1.
         -1    1    1    2    0  501  0.90050547652E+01  0.25121337510E+02  0.77547786030E+03  0.77593690750E+03  0.00000000000E+00 0. -1.
</event>
<event>
 4    1  0.6888348E+001  0.2019623E+02  0.7546771E-02  0.1531057E+00
          2   -1    0    0  502    0  0.00000000000E+00  0.00000000000E+00  0.25476757949E+03  0.25476757949E+03  0.00000000000E+00 0. -1.
         -2   -1    0    0    0  501 -0.00000000000E+00 -0.00000000000E+00 -0.16147286734E+01  0.16147286734E+01  0.00000000000E+00 0.  1.
          1    1    1    2  502    0  0.64867079424E+01 -0.19126172039E+02  0.11476464063E+03  0.11652815358E+03  0.00000000000E+00 0. -1.
         -1    1    1    2    0  501 -0.64867079424E+01  0.19126172039E+02  0.13838821018E+03  0.13985415459E+03  0.00000000000E+00 0.  1.
</event>
<event>
 4    1  0.6888348E+001  0.2010687E+02  0.7546771E-02  0.1532408E+00
          2   -1    0    0  502    0  0.00000000000E+00  0.00000000000E+00  0.72476464085E+03  0.72476464085E+03  0.00000000000E+00 0.  1.
         -2   -1    0    0    0  501 -0.00000000000E+00 -0.00000000000E+00 -0.56677196679E+00  0.56677196679E+00  0.00000000000E+00 0. -1.
          1    1    1    2  502    0  0.19905993446E+02  0.28350646183E+01  0.31651309150E+03  0.31715110477E+03  0.00000000000E+00 0. -1.
         -1    1    1    2    0  501 -0.19905993446E+02 -0.28350646183E+01  0.40768477739E+03  0.40818030805E+03  0.00000000000E+00 0.  1.
</event>
<event>
 4    1  0.6888348E+001  0.3407785E+02  0.7546771E-02  0.1387165E+00
          2   -1    0    0  502    0  0.00000000000E+00  0.00000000000E+00  0.38489153214E+03  0.38489153214E+03  0.00000000000E+00 0.  1.
         -2   -1    0    0    0  501 -0.00000000000E+00 -0.00000000000E+00 -0.45427586364E+01  0.45427586364E+01  0.00000000000E+00 0. -1.
          1    1    1    2  502    0  0.14152467248E+01  0.34048448953E+02  0.30301279227E+03  0.30492302648E+03  0.00000000000E+00 0.  1.
         -1    1    1    2    0  501 -0.14152467248E+01 -0.34048448953E+02  0.77335981234E+02  0.84511264296E+02  0.00000000000E+00 0. -1.
</event>
<event>
 4    1  0.6888348E+001  0.1065552E+03  0.7546771E-02  0.1152909E+00
          2   -1    0    0  502    0  0.00000000000E+00  0.00000000000E+00  0.10698350083E+04  0.10698350083E+04  0.00000000000E+00 0. -1.
         -2   -1    0    0    0  501 -0.00000000000E+00 -0.00000000000E+00 -0.12792706691E+02  0.12792706691E+02  0.00000000000E+00 0.  1.
          1    1    1    2  502    0 -0.28531724180E+02 -0.10266428017E+03  0.75197121121E+03  0.75948319020E+03  0.00000000000E+00 0. -1.
         -1    1    1    2    0  501  0.28531724180E+02  0.10266428017E+03  0.30507109044E+03  0.32314452483E+03  0.00000000000E+00 0.  1.
</event>
<event>
 4    1  0.6888348E+001  0.2183757E+02  0.7546771E-02  0.1507634E+00
          2   -1    0    0  502    0  0.00000000000E+00  0.00000000000E+00  0.21909750751E+03  0.21909750751E+03  0.00000000000E+00 0.  1.
         -2   -1    0    0    0  501 -0.00000000000E+00 -0.00000000000E+00 -0.22791515431E+01  0.22791515431E+01  0.00000000000E+00 0. -1.
          1    1    1    2  502    0 -0.96570962933E+01 -0.19586214930E+02  0.13189288400E+03  0.13368848931E+03  0.00000000000E+00 0.  1.
         -1    1    1    2    0  501  0.96570962933E+01  0.19586214930E+02  0.84925471964E+02  0.87688169740E+02  0.00000000000E+00 0. -1.
</event>
<event>
 4    1  0.6888348E+001  0.3768352E+02  0.7546771E-02  0.1362622E+00
          2   -1    0    0  502    0  0.00000000000E+00  0.00000000000E+00  0.28029470544E+03  0.28029470544E+03  0.00000000000E+00 0. -1.
         -2   -1    0    0    0  501 -0.00000000000E+00 -0.00000000000E+00 -0.55810967212E+01  0.55810967212E+01  0.00000000000E+00 0.  1.
          1    1    1    2  502    0  0.37286943714E+02 -0.54526418394E+01  0.93943789598E+02  0.10121997371E+03  0.00000000000E+00 0.  1.
         -1    1    1    2    0  501 -0.37286943714E+02  0.54526418394E+01  0.18076981912E+03  0.18465582844E+03  0.00000000000E+00 0. -1.
</event>
<event>
 4    1  0.6888348E+001  0.2838575E+02  0.7546771E-02  0.1434163E+00
          2   -1    0    0  502    0  0.00000000000E+00  0.00000000000E+00  0.16740340289E+02  0.16740340289E+02  0.00000000000E+00 0.  1.
         -2   -1    0    0    0  501 -0.00000000000E+00 -0.00000000000E+00 -0.55957636699E+02  0.55957636699E+02  0.00000000000E+00 0. -1.
          1    1    1    2  502    0  0.11962725679E+02 -0.25741874497E+02 -0.33201621084E+02  0.43681787405E+02  0.00000000000E+00 0. -1.
         -1    1    1    2    0  501 -0.11962725679E+02  0.25741874497E+02 -0.60156753260E+01  0.29016189583E+02  0.00000000000E+00 0.  1.
</event>
<event>
 4    1  0.6888348E+001  0.2052217E+02  0.7546771E-02  0.1526198E+00
          2   -1    0    0  502    0  0.00000000000E+00  0.00000000000E+00  0.80120609608E+00  0.80120609608E+00  0.00000000000E+00 0. -1.
         -2   -1    0    0    0  501 -0.00000000000E+00 -0.00000000000E+00 -0.52694093723E+03  0.52694093723E+03  0.00000000000E+00 0.  1.
          1    1    1    2  502    0 -0.47235762453E+01  0.19971160352E+02 -0.25004361175E+03  0.25088437017E+03  0.00000000000E+00 0.  1.
         -1    1    1    2    0  501  0.47235762453E+01 -0.19971160352E+02 -0.27609611938E+03  0.27685777316E+03  0.00000000000E+00 0. -1.
</event>
<event>
 4    1  0.6888348E+001  0.2548164E+02  0.7546771E-02  0.1463487E+00
          2   -1    0    0  502    0  0.00000000000E+00  0.00000000000E+00  0.78898086760E+03  0.78898086760E+03  0.00000000000E+00 0.  1.
         -2   -1    0    0    0  501 -0.00000000000E+00 -0.00000000000E+00 -0.16031109160E+01  0.16031109160E+01  0.00000000000E+00 0. -1.
          1    1    1    2  502    0 -0.25424764617E+02  0.17016001902E+01  0.11793574413E+03  0.12065717485E+03  0.00000000000E+00 0. -1.
         -1    1    1    2    0  501  0.25424764617E+02 -0.17016001902E+01  0.66944201255E+03  0.66992680367E+03  0.00000000000E+00 0.  1.
</event>
<event>
 4    1  0.6888348E+001  0.2221599E+02  0.7546771E-02  0.1502585E+00
          2   -1    0    0  502    0  0.00000000000E+00  0.00000000000E+00  0.15291979798E+02  0.15291979798E+02  0.00000000000E+00 0. -1.
         -2   -1    0    0    0  501 -0.00000000000E+00 -0.00000000000E+00 -0.34524411484E+02  0.34524411484E+02  0.00000000000E+00 0.  1.
          1    1    1    2  502    0  0.18515512645E+02  0.12277044861E+02 -0.32584460493E+01  0.22453674748E+02  0.00000000000E+00 0. -1.
         -1    1    1    2    0  501 -0.18515512645E+02 -0.12277044861E+02 -0.15973985636E+02  0.27362716534E+02  0.00000000000E+00 0.  1.
</event>
<event>
 4    1  0.6888348E+001  0.2097814E+02  0.7546771E-02  0.1519577E+00
          2   -1    0    0  502    0  0.00000000000E+00  0.00000000000E+00  0.24672304440E+03  0.24672304440E+03  0.00000000000E+00 0.  1.
         -2   -1    0    0    0  501 -0.00000000000E+00 -0.00000000000E+00 -0.20976442081E+01  0.20976442081E+01  0.00000000000E+00 0. -1.
          1    1    1    2  502    0  0.20911035125E+02 -0.16765681641E+01  0.74183332693E+02  0.77092471229E+02  0.00000000000E+00 0.  1.
         -1    1    1    2    0  501 -0.20911035125E+02  0.16765681641E+01  0.17044206750E+03  0.17172821738E+03  0.00000000000E+00 0. -1.
</event>
<event>
 4    1  0.6888348E+001  0.4063400E+02  0.7546771E-02  0.1344810E+00
          2   -1    0    0  502    0  0.00000000000E+00  0.00000000000E+00  0.47402707943E+01  0.47402707943E+01  0.00000000000E+00 0. -1.
         -2   -1    0    0    0  501 -0.00000000000E+00 -0.00000000000E+00 -0.35009422634E+03  0.35009422634E+03  0.00000000000E+00 0.  1.
          1    1    1    2  502    0 -0.24511034538E+02 -0.32408808063E+02 -0.16003973824E+03  0.16511765342E+03  0.00000000000E+00 0.  1.
         -1    1    1    2    0  501  0.24511034538E+02  0.32408808063E+02 -0.18531421731E+03  0.18971684372E+03  0.00000000000E+00 0. -1.
</event>
<event>
 4    1  0.6888348E+001  0.3532377E+02  0.7546771E-02  0.1378301E+00
          2   -1    0    0  502    0  0.00000000000E+00  0.00000000000E+00  0.82538203952E+02  0.82538203952E+02  0.00000000000E+00 0. -1.
         -2   -1    0    0    0  501 -0.00000000000E+00 -0.00000000000E+00 -0.18862814317E+02  0.18862814317E+02  0.00000000000E+00 0.  1.
          1    1    1    2  502    0 -0.30728558769E+02  0.17421946382E+02  0.92456703999E+01  0.36513709219E+02  0.00000000000E+00 0.  1.
         -1    1    1    2    0  501  0.30728558769E+02 -0.17421946382E+02  0.54429719236E+02  0.64887309050E+02  0.00000000000E+00 0. -1.
</event>
<event>
 4    1  0.6888348E+001  0.5189893E+02  0.7546771E-02  0.1290143E+00
          2   -1    0    0  502    0  0.00000000000E+00  0.00000000000E+00  0.22715946547E+03  0.22715946547E+03  0.00000000000E+00 0. -1.
         -2   -1    0    0    0  501 -0.00000000000E+00 -0.00000000000E+00 -0.11858328070E+02  0.11858328070E+02  0.00000000000E+00 0.  1.
          1    1    1    2  502    0 -0.49636614922E+02 -0.15156030422E+02  0.10653988557E+03  0.11850842171E+03  0.00000000000E+00 0.  1.
         -1    1    1    2    0  501  0.49636614922E+02  0.15156030422E+02  0.10876125183E+03  0.12050937183E+03  0.00000000000E+00 0. -1.
</event>
<event>
 4    1  0.6888348E+001  0.2612541E+02  0.7546771E-02  0.1456597E+00
          2   -1    0    0  502    0  0.00000000000E+00  0.00000000000E+00  0.34843974984E+01  0.34843974984E+01  0.00000000000E+00 0.  1.
         -2   -1    0    0    0  501 -0.00000000000E+00 -0.00000000000E+00 -0.20225627892E+03  0.20225627892E+03  0.00000000000E+00 0. -1.
          1    1    1    2  502    0 -0.16920946768E+02 -0.19905241760E+02 -0.11764560194E+03  0.12051151291E+03  0.00000000000E+00 0. -1.
         -1    1    1    2    0  501  0.16920946768E+02  0.19905241760E+02 -0.81126279485E+02  0.85229163507E+02  0.00000000000E+00 0.  1.
</event>
<event>
 4    1  0.6888348E+001  0.3393980E+02  0.7546771E-02  0.1388174E+00
          2   -1    0    0  502    0  0.00000000000E+00  0.00000000000E+00  0.14832407437E+04  0.14832407437E+04  0.00000000000E+00 0. -1.
         -2   -1    0    0    0  501 -0.00000000000E+00 -0.00000000000E+00 -0.20661082538E+01  0.20661082538E+01  0.00000000000E+00 0.  1.
          1    1    1    2  502    0  0.13468454476E+02  0.31153020798E+02  0.15388358188E+03  0.15758193660E+03  0.00000000000E+00 0.  1.
         -1    1    1    2    0  501 -0.13468454476E+02 -0.31153020798E+02  0.13272910535E+04  0.13277249153E+04  0.00000000000E+00 0. -1.
</event>
<event>
 4    1  0.6888348E+001  0.2224606E+02  0.7546771E-02  0.1502189E+00
          2   -1    0    0  502    0  0.00000000000E+00  0.00000000000E+00  0.34403402768E+03  0.34403402768E+03  0.00000000000E+00 0. -1.
         -2   -1    0    0    0  501 -0.00000000000E+00 -0.00000000000E+00 -0.15206745618E+01  0.15206745618E+01  0.00000000000E+00 0.  1.
          1    1    1    2  502    0  0.16399611054E+02  0.15031293569E+02  0.13108843373E+03  0.13296264320E+03  0.00000000000E+00 0.  1.
         -1    1    1    2    0  501 -0.16399611054E+02 -0.15031293569E+02  0.21142491939E+03  0.21259205904E+03  0.00000000000E+00 0. -1.
</event>
<event>
 4    1  0.6888348E+001  0.2223231E+02  0.7546771E-02  0.1502370E+00
          2   -1    0    0  502    0  0.00000000000E+00  0.00000000000E+00  0.17431468142E+04  0.17431468142E+04  0.00000000000E+00 0.  1.
         -2   -1    0    0    0  501 -0.00000000000E+00 -0.00000000000E+00 -0.37955559492E+00  0.37955559492E+00  0.00000000000E+00 0. -1.
          1    1    1    2  502    0 -0.15223406491E+02  0.16202581358E+02  0.13098140737E+04  0.13100027417E+04  0.00000000000E+00 0.  1.
         -1    1    1    2    0  501  0.15223406491E+02 -0.16202581358E+02  0.43295318491E+03  0.43352362804E+03  0.00000000000E+00 0. -1.
</event>
<event>
 4    1  0.6888348E+001  0.2079863E+02  0.7546771E-02  0.1522159E+00
          2   -1    0    0  502    0  0.00000000000E+00  0.00000000000E+00  0.47485153289E+01  0.47485153289E+01  0.00000000000E+00 0.  1.
         -2   -1    0    0    0  501 -0.00000000000E+00 -0.00000000000E+00 -0.12265336704E+03  0.12265336704E+03  0.00000000000E+00 0. -1.
          1    1    1    2  502    0  0.19644253908E+02 -0.68327308846E+01 -0.91262567008E+02  0.93602559045E+02  0.00000000000E+00 0. -1.
         -1    1    1    2    0  501 -0.19644253908E+02  0.68327308846E+01 -0.26642284703E+02  0.33799323324E+02  0.00000000000E+00 0.  1.
</event>
<event>
 4    1  0.6888348E+001  0.2631396E+02  0.7546771E-02  0.1454624E+00
          2   -1    0    0  502    0  0.00000000000E+00  0.00000000000E+00  0.18698648961E+02  0.18698648961E+02  0.00000000000E+00 0. -1.
         -2   -1    0    0    0  501 -0.00000000000E+00 -0.00000000000E+00 -0.78009367985E+02  0.78009367985E+02  0.00000000000E+00 0.  1.
          1    1    1    2  502    0  0.26292064102E+02  0.10733425872E+01  0.53905907493E+01  0.26860438710E+02  0.00000000000E+00 0. -1.
         -1    1    1    2    0  501 -0.26292064102E+02 -0.10733425872E+01 -0.64701309773E+02  0.69847578236E+02  0.00000000000E+00 0.  1.
</event>
<event>
 4    1  0.6888348E+001  0.2442068E+02  0.7546771E-02  0.1475390E+00
          2   -1    0    0  502    0  0.00000000000E+00  0.00000000000E+00  0.46151272679E+01  0.46151272679E+01  0.00000000000E+00 0.  1.
         -2   -1    0    0    0  501 -0.00000000000E+00 -0.00000000000E+00 -0.16919684148E+03  0.16919684148E+03  0.00000000000E+00 0. -1.
          1    1    1    2  502    0  0.19943861652E+02 -0.14092973865E+02 -0.12453383436E+03  0.12690565562E+03  0.00000000000E+00 0. -1.
         -1    1    1    2    0  501 -0.19943861652E+02  0.14092973865E+02 -0.40047879860E+02  0.46906313128E+02  0.00000000000E+00 0.  1.
</event>
<event>
 4    1  0.6888348E+001  0.2395686E+02  0.7546771E-02  0.1480820E+00
          2   -1    0    0  502    0  0.00000000000E+00  0.00000000000E+00  0.28136852176E+03  0.28136852176E+03  0.00000000000E+00 0.  1.
         -2   -1    0    0    0  501 -0.00000000000E+00 -0.00000000000E+00 -0.25417051953E+01  0.25417051953E+01  0.00000000000E+00 0. -1.
          1    1    1    2  502    0  0.36824316640E+01  0.23672157437E+02  0.76331371059E+02  0.80002559637E+02  0.00000000000E+00 0. -1.
         -1    1    1    2    0  501 -0.36824316640E+01 -0.23672157437E+02  0.20249544550E+03  0.20390766731E+03  0.00000000000E+00 0.  1.
</event>
<event>
 4    1  0.6888348E+001  0.3000254E+02  0.7546771E-02  0.1419574E+00
          2   -1    0    0  502    0  0.00000000000E+00  0.00000000000E+00  0.13244398063E+02  0.13244398063E+02  0.00000000000E+00 0. -1.
         -2   -1    0    0    0  501 -0.00000000000E+00 -0.00000000000E+00 -0.73157783994E+02  0.73157783994E+02  0.00000000000E+00 0.  1.
          1    1    1    2  502    0 -0.20815807592E+02  0.21606819930E+02 -0.18446726768E+02  0.35219799000E+02  0.00000000000E+00 0.  1.
         -1    1    1    2    0  501  0.20815807592E+02 -0.21606819930E+02 -0.41466659164E+02  0.51182383057E+02  0.00000000000E+00 0. -1.
</event>
<event>
 4    1  0.6888348E+001  0.3215041E+02  0.7546771E-02  0.1401786E+00
          2   -1    0    0  502    0  0.00000000000E+00  0.00000000000E+00  0.26959353550E+02  0.26959353550E+02  0.00000000000E+00 0. -1.
         -2   -1    0    0    0  501 -0.00000000000E+00 -0.00000000000E+00 -0.49228127452E+02  0.49228127452E+02  0.00000000000E+00 0.  1.
          1    1    1    2  502    0 -0.15094841202E+02  0.28386518648E+02  0.67800656506E+01  0.32857540415E+02  0.00000000000E+00 0. -1.
         -1    1    1    2    0  501  0.15094841202E+02 -0.28386518648E+02 -0.29048839553E+02  0.43329940587E+02  0.00000000000E+00 0.  1.
</event>
<event>
 4    1  0.6888348E+001  0.2460296E+02  0.7546771E-02  0.1473294E+00
          2   -1    0    0  502    0  0.00000000000E+00  0.00000000000E+00  0.36275294005E+03  0.36275294005E+03  0.00000000000E+00 0. -1.
         -2   -1    0    0    0  501 -0.00000000000E+00 -0.00000000000E+00 -0.17297502585E+01  0.17297502585E+01  0.00000000000E+00 0.  1.
          1    1    1    2  502    0  0.13682655050E+02 -0.20447263958E+02  0.21476444608E+03  0.21616908417E+03  0.00000000000E+00 0.  1.
         -1    1    1    2    0  501 -0.13682655050E+02  0.20447263958E+02  0.14625874371E+03  0.14831360614E+03  0.00000000000E+00 0. -1.
</event>
<event>
 4    1  0.6888348E+001  0.2056490E+02  0.7546771E-02  0.1525569E+00
          2   -1    0    0  502    0  0.00000000000E+00  0.00000000000E+00  0.10333234182E+02  0.10333234182E+02  0.00000000000E+00 0. -1.
         -2   -1    0    0    0  501 -0.00000000000E+00 -0.00000000000E+00 -0.72090658725E+02  0.72090658725E+02  0.00000000000E+00 0.  1.
          1    1    1    2  502    0 -0.13927504478E+02 -0.15130755389E+02 -0.37828347206E+01  0.20909925350E+02  0.00000000000E+00 0. -1.
         -1    1    1    2    0  501  0.13927504478E+02  0.15130755389E+02 -0.57974589823E+02  0.61513967558E+02  0.00000000000E+00 0.  1.
</event>
<event>
 4    1  0.6888348E+001  0.6151403E+02  0.7546771E-02  0.1254773E+00
          2   -1    0    0  502    0  0.00000000000E+00  0.00000000000E+00  0.74068662640E+01  0.74068662640E+01  0.00000000000E+00 0.  1.
         -2   -1    0    0    0  501 -0.00000000000E+00 -0.00000000000E+00 -0.54681683466E+03  0.54681683466E+03  0.00000000000E+00 0. -1.
          1    1    1    2  502    0 -0.23786933722E+02 -0.56728811585E+02 -0.19865898908E+03  0.20796482929E+03  0.00000000000E+00 0. -1.
         -1    1    1    2    0  501  0.23786933722E+02  0.56728811585E+02 -0.34075097932E+03  0.34625887163E+03  0.00000000000E+00 0.  1.
</event>
<event>
 4    1  0.6888348E+001  0.2352555E+02  0.7546771E-02  0.1486002E+00
          2   -1    0    0  502    0  0.00000000000E+00  0.00000000000E+00  0.12522336823E+02  0.12522336823E+02  0.00000000000E+00 0. -1.
         -2   -1    0    0    0  501 -0.00000000000E+00 -0.00000000000E+00 -0.52983191413E+02  0.52983191413E+02  0.00000000000E+00 0.  1.
          1    1    1    2  502    0 -0.16586672047E+02 -0.16683336722E+02 -0.33567972022E+02  0.40990976561E+02  0.00000000000E+00 0.  1.
         -1    1    1    2    0  501  0.16586672047E+02  0.16683336722E+02 -0.68928825686E+01  0.24514551676E+02  0.00000000000E+00 0. -1.
</event>
<event>
 4    1  0.6888348E+001  0.2054382E+02  0.7546771E-02  0.1525879E+00
          2   -1    0    0  502    0  0.00000000000E+00  0.00000000000E+00  0.20274174888E+02  0.20274174888E+02  0.00000000000E+00 0. -1.
         -2   -1    0    0    0  501 -0.00000000000E+00 -0.00000000000E+00 -0.22846619557E+02  0.22846619557E+02  0.00000000000E+00 0.  1.
          1    1    1    2  502    0  0.20527605532E+02 -0.81615693248E+00 -0.77123116480E+01  0.21943756560E+02  0.00000000000E+00 0. -1.
         -1    1    1    2    0  501 -0.20527605532E+02  0.81615693248E+00  0.51398669789E+01  0.21177037885E+02  0.00000000000E+00 0.  1.
</event>
<event>
 4    1  0.6888348E+001  0.2053715E+02  0.7546771E-02  0.1525977E+00
          2   -1    0    0  502    0  0.00000000000E+00  0.00000000000E+00  0.64942880504E+01  0.64942880504E+01  0.00000000000E+00 0.  1.
         -2   -1    0    0    0  501 -0.00000000000E+00 -0.00000000000E+00 -0.80363133766E+02  0.80363133766E+02  0.00000000000E+00 0. -1.
          1    1    1    2  502    0  0.60042330892E+01  0.19639850886E+02 -0.17912349119E+02  0.27251179952E+02  0.00000000000E+00 0.  1.
         -1    1    1    2    0  501 -0.60042330892E+01 -0.19639850886E+02 -0.55956496597E+02  0.59606241865E+02  0.00000000000E+00 0. -1.
</event>
<event>
 4    1  0.6888348E+001  0.2831772E+02  0.7546771E-02  0.1434802E+00
          2   -1    0    0  502    0  0.00000000000E+00  0.00000000000E+00  0.55403364219E+03  0.55403364219E+03  0.00000000000E+00 0. -1.
         -2   -1    0    0    0  501 -0.00000000000E+00 -0.00000000000E+00 -0.14856620620E+01  0.14856620620E+01  0.00000000000E+00 0.  1.
          1    1    1    2  502    0 -0.13362158911E+02 -0.24966897083E+02  0.23168296365E+03  0.23340713118E+03  0.00000000000E+00 0.  1.
         -1    1    1    2    0  501  0.13362158911E+02  0.24966897083E+02  0.32086501647E+03  0.32211217306E+03  0.00000000000E+00 0. -1.
</event>
<event>
 4    1  0.6888348E+001  0.2056377E+02  0.7546771E-02  0.1525585E+00
          2   -1    0    0  502    0  0.00000000000E+00  0.00000000000E+00  0.30748781624E+03  0.30748781624E+03  0.00000000000E+00 0.  1.
         -2   -1    0    0    0  501 -0.00000000000E+00 -0.00000000000E+00 -0.13801431868E+01  0.13801431868E+01  0.00000000000E+00 0. -1.
          1    1    1    2  502    0  0.14881313558E+02  0.14192080622E+02  0.14384617338E+03  0.14530860346E+03  0.00000000000E+00 0.  1.
         -1    1    1    2    0  501 -0.14881313558E+02 -0.14192080622E+02  0.16226149968E+03  0.16355935596E+03  0.00000000000E+00 0. -1.
</event>
<event>
 4    1  0.6888348E+001  0.2006223E+02  0.7546771E-02  0.1533087E+00
          2   -1    0    0  502    0  0.00000000000E+00  0.00000000000E+00  0.52437612486E+03  0.52437612486E+03  0.00000000000E+00 0.  1.
         -2   -1    0    0    0  501 -0.00000000000E+00 -0.00000000000E+00 -0.11261791395E+01  0.11261791395E+01  0.00000000000E+00 0. -1.
          1    1    1    2  502    0 -0.32655094662E+01  0.19794682103E+02  0.11335461803E+03  0.11511629954E+03  0.00000000000E+00 0. -1.
         -1    1    1    2    0  501  0.32655094662E+01 -0.19794682103E+02  0.40989532769E+03  0.41038600445E+03  0.00000000000E+00 0.  1.
</event>
<event>
 4    1  0.6888348E+001  0.3505619E+02  0.7546771E-02  0.1380169E+00
          2   -1    0    0  502    0  0.00000000000E+00  0.00000000000E+00  0.49585298201E+03  0.49585298201E+03  0.00000000000E+00 0. -1.
         -2   -1    0    0    0  501 -0.00000000000E+00 -0.00000000000E+00 -0.26485460311E+01  0.26485460311E+01  0.00000000000E+00 0.  1.
          1    1    1    2  502    0  0.34924421215E+02 -0.30366237881E+01  0.18343278694E+03  0.18675257323E+03  0.00000000000E+00 0.  1.
         -1    1    1    2    0  501 -0.34924421215E+02  0.30366237881E+01  0.30977164903E+03  0.31174895481E+03  0.00000000000E+00 0. -1.
</event>
<event>
 4    1  0.6888348E+001  0.2777978E+02  0.7546771E-02  0.1439929E+00
          2   -1    0    0  502    0  0.00000000000E+00  0.00000000000E+00  0.16365702062E+03  0.16365702062E+03  0.00000000000E+00 0. -1.
         -2   -1    0    0    0  501 -0.00000000000E+00 -0.00000000000E+00 -0.20732470073E+02  0.20732470073E+02  0.00000000000E+00 0.  1.
          1    1    1    2  502    0  0.26765184666E+02 -0.74391407675E+01  0.15249707308E+03  0.15500668768E+03  0.00000000000E+00 0. -1.
         -1    1    1    2    0  501 -0.26765184666E+02  0.74391407675E+01 -0.95725225339E+01  0.29382803018E+02  0.00000000000E+00 0.  1.
</event>
<event>
 4    1  0.6888348E+001  0.2343477E+02  0.7546771E-02  0.1487110E+00
          2   -1    0    0  502    0  0.00000000000E+00  0.00000000000E+00  0.57766037620E+02  0.57766037620E+02  0.00000000000E+00 0.  1.
         -2   -1    0    0    0  501 -0.00000000000E+00 -0.00000000000E+00 -0.11554026817E+02  0.11554026817E+02  0.00000000000E+00 0. -1.
          1    1    1    2  502    0 -0.23363533448E+02 -0.18259042938E+01  0.85174809505E+01  0.24934636621E+02  0.00000000000E+00 0. -1.
         -1    1    1    2    0  501  0.23363533448E+02  0.18259042938E+01  0.37694529853E+02  0.44385427817E+02  0.00000000000E+00 0.  1.
</event>
<event>
 4    1  0.6888348E+001  0.2935176E+02  0.7546771E-02  0.1425315E+00
          2   -1    0    0  502    0  0.00000000000E+00  0.00000000000E+00  0.25080527506E+02  0.25080527506E+02  0.00000000000E+00 0.  1.
         -2   -1    0    0    0  501 -0.00000000000E+00 -0.00000000000E+00 -0.43133303900E+02  0.43133303900E+02  0.00000000000E+00 0. -1.
          1    1    1    2  502    0 -0.89119166458E+01 -0.27966109549E+02 -0.24416995332E+02  0.38180036703E+02  0.00000000000E+00 0. -1.
         -1    1    1    2    0  501  0.89119166458E+01  0.27966109549E+02  0.63642189380E+01  0.30033794703E+02  0.00000000000E+00 0.  1.
</event>
<event>
 4    1  0.6888348E+001  0.2673298E+02  0.7546771E-02  0.1450309E+00
          2   -1    0    0  502    0  0.00000000000E+00  0.00000000000E+00  0.58606639874E+03  0.58606639874E+03  0.00000000000E+00 0. -1.
         -2   -1    0    0    0  501 -0.00000000000E+00 -0.00000000000E+00 -0.12200270948E+01  0.12200270948E+01  0.00000000000E+00 0.  1.
          1    1    1    2  502    0 -0.11357119558E+02  0.24200576458E+02  0.28579031879E+03  0.28703790409E+03  0.00000000000E+00 0.  1.
         -1    1    1    2    0  501  0.11357119558E+02 -0.24200576458E+02  0.29905605285E+03  0.30024852175E+03  0.00000000000E+00 0. -1.
</event>
<event>
 4    1  0.6888348E+001  0.2213488E+02  0.7546771E-02  0.1503657E+00
          2   -1    0    0  502    0  0.00000000000E+00  0.00000000000E+00  0.12183259415E+03  0.12183259415E+03  0.00000000000E+00 0. -1.
         -2   -1    0    0    0  501 -0.00000000000E+00 -0.00000000000E+00 -0.75328784048E+01  0.75328784048E+01  0.00000000000E+00 0.  1.
          1    1    1    2  502    0 -0.15248020968E+02 -0.16045277932E+02  0.10131148249E+03  0.10370134798E+03  0.00000000000E+00 0. -1.
         -1    1    1    2    0  501  0.15248020968E+02  0.16045277932E+02  0.12988233254E+02  0.25664124580E+02  0.00000000000E+00 0.  1.
</event>
<event>
 4    1  0.6888348E+001  0.2232968E+02  0.7546771E-02  0.1501091E+00
          2   -1    0    0  502    0  0.00000000000E+00  0.00000000000E+00  0.34538497437E+03  0.34538497437E+03  0.00000000000E+00 0. -1.
         -2   -1    0    0    0  501 -0.00000000000E+00 -0.00000000000E+00 -0.15560703454E+01  0.15560703454E+01  0.00000000000E+00 0.  1.
          1    1    1    2  502    0 -0.89409880507E+01  0.20461511919E+02  0.12528770666E+03  0.12726202959E+03  0.00000000000E+00 0.  1.
         -1    1    1    2    0  501  0.89409880507E+01 -0.20461511919E+02  0.21854119737E+03  0.21967901512E+03  0.00000000000E+00 0. -1.
</event>
<event>
 4    1  0.6888348E+001  0.2792021E+02  0.7546771E-02  0.1438577E+00
          2   -1    0    0  502    0  0.00000000000E+00  0.00000000000E+00  0.23399035711E+04  0.23399035711E+04  0.00000000000E+00 0. -1.
         -2   -1    0    0    0  501 -0.00000000000E+00 -0.00000000000E+00 -0.33911367612E+00  0.33911367612E+00  0.00000000000E+00 0.  1.
          1    1    1    2  502    0  0.24455445778E+02  0.13471055183E+02  0.13249589092E+04  0.13252530510E+04  0.00000000000E+00 0. -1.
         -1    1    1    2    0  501 -0.24455445778E+02 -0.13471055183E+02  0.10146055482E+04  0.10149896337E+04  0.00000000000E+00 0.  1.
</event>
<event>
 4    1  0.6888348E+001  0.2339392E+02  0.7546771E-02  0.1487610E+00
          2   -1    0    0  502    0  0.00000000000E+00  0.00000000000E+00  0.25681325398E+03  0.25681325398E+03  0.00000000000E+00 0.  1.
         -2   -1    0    0    0  501 -0.00000000000E+00 -0.00000000000E+00 -0.21568852889E+01  0.21568852889E+01  0.00000000000E+00 0. -1.
          1    1    1    2  502    0  0.81142213350E+01  0.21941622351E+02  0.11314983587E+03  0.11554289566E+03  0.00000000000E+00 0.  1.
         -1    1    1    2    0  501 -0.81142213350E+01 -0.21941622351E+02  0.14150653282E+03  0.14342724362E+03  0.00000000000E+00 0. -1.
</event>
<event>
 4    1  0.6888348E+001  0.2909511E+02  0.7546771E-02  0.1427626E+00
          2   -1    0    0  502    0  0.00000000000E+00  0.00000000000E+00  0.19405622148E+03  0.19405622148E+03  0.00000000000E+00 0. -1.
         -2   -1    0    0    0  501 -0.00000000000E+00 -0.00000000000E+00 -0.52317556356E+01  0.52317556356E+01  0.00000000000E+00 0.  1.
          1    1    1    2  502    0 -0.69766236539E+01  0.28246273664E+02  0.53790441462E+02  0.61155023066E+02  0.00000000000E+00 0.  1.
         -1    1    1    2    0  501  0.69766236539E+01 -0.28246273664E+02  0.13503402438E+03  0.13813295405E+03  0.00000000000E+00 0. -1.
</event>
<event>
 4    1  0.6888348E+001  0.6206678E+02  0.7546771E-02  0.1252968E+00
          2   -1    0    0  502    0  0.00000000000E+00  0.00000000000E+00  0.35233604729E+02  0.35233604729E+02  0.00000000000E+00 0.  1.
         -2   -1    0    0    0  501 -0.00000000000E+00 -0.00000000000E+00 -0.14261989501E+03  0.14261989501E+03  0.00000000000E+00 0. -1.
          1    1    1    2  502    0 -0.53856148881E+02  0.30851259949E+02 -0.10733323369E+02  0.62988008726E+02  0.00000000000E+00 0.  1.
         -1    1    1    2    0  501  0.53856148881E+02 -0.30851259949E+02 -0.96652966917E+02  0.11486549102E+03  0.00000000000E+00 0. -1.
</event>
<event>
 4    1  0.6888348E+001  0.2377481E+02  0.7546771E-02  0.1482991E+00
          2   -1    0    0  502    0  0.00000000000E+00  0.00000000000E+00  0.61034489830E+03  0.61034489830E+03  0.00000000000E+00 0.  1.
         -2   -1    0    0    0  501 -0.00000000000E+00 -0.00000000000E+00 -0.93590668442E+00  0.93590668442E+00  0.00000000000E+00 0. -1.
          1    1    1    2  502    0 -0.26483395129E+01 -0.23626847383E+02  0.27342125641E+03  0.27445295604E+03  0.00000000000E+00 0. -1.
         -1    1    1    2    0  501  0.26483395129E+01  0.23626847383E+02  0.33598773520E+03  0.33682784895E+03  0.00000000000E+00 0.  1.
</event>
<event>
 4    1  0.6888348E+001  0.2534060E+02  0.7546771E-02  0.1465029E+00
          2   -1    0    0  502    0  0.00000000000E+00  0.00000000000E+00  0.73779678347E+02  0.73779678347E+02  0.00000000000E+00 0.  1.
         -2   -1    0    0    0  501 -0.00000000000E+00 -0.00000000000E+00 -0.17041452220E+02  0.17041452220E+02  0.00000000000E+00 0. -1.
          1    1    1    2  502    0  0.95902197666E+01 -0.23455784921E+02 -0.33946273864E+01  0.25566964163E+02  0.00000000000E+00 0. -1.
         -1    1    1    2    0  501 -0.95902197666E+01  0.23455784921E+02  0.60132853513E+02  0.65254166404E+02  0.00000000000E+00 0.  1.
</event>
<event>
 4    1  0.6888348E+001  0.2011775E+02  0.7546771E-02  0.1532243E+00
          2   -1    0    0  502    0  0.00000000000E+00  0.00000000000E+00  0.27341430963E+02  0.27341430963E+02  0.00000000000E+00 0.  1.
         -2   -1    0    0    0  501 -0.00000000000E+00 -0.00000000000E+00 -0.16621181703E+02  0.16621181703E+02  0.00000000000E+00 0. -1.
          1    1    1    2  502    0  0.17675465490E+02 -0.96073768570E+01 -0.19108247835E+01  0.20208290915E+02  0.00000000000E+00 0.  1.
         -1    1    1    2    0  501 -0.17675465490E+02  0.96073768570E+01  0.12631074044E+02  0.23754321751E+02  0.00000000000E+00 0. -1.
</event>
<event>
 4    1  0.6888348E+001  0.2391091E+02  0.7546771E-02  0.1481366E+00
          2   -1    0    0  502    0  0.00000000000E+00  0.00000000000E+00  0.92884490369E+02  0.92884490369E+02  0.00000000000E+00 0.  1.
         -2   -1    0    0    0  501 -0.00000000000E+00 -0.00000000000E+00 -0.71567606256E+01  0.71567606256E+01  0.00000000000E+00 0. -1.
          1    1    1    2  502    0 -0.14478041026E+02  0.19029399774E+02  0.24152381308E+02  0.33986309752E+02  0.00000000000E+00 0. -1.
         -1    1    1    2    0  501  0.14478041026E+02 -0.19029399774E+02  0.61575348435E+02  0.66054941242E+02  0.00000000000E+00 0.  1.
</event>
<event>
 4    1  0.6888348E+001  0.2142003E+02  0.7546771E-02  0.1513352E+00
          2   -1    0    0  502    0  0.00000000000E+00  0.00000000000E+00  0.26177934953E+03  0.26177934953E+03  0.00000000000E+00 0. -1.
         -2   -1    0    0    0  501 -0.00000000000E+00 -0.00000000000E+00 -0.17539425426E+01  0.17539425426E+01  0.00000000000E+00 0.  1.
          1    1    1    2  502    0  0.16592334825E+02 -0.13546670830E+02  0.12649049582E+03  0.12829132238E+03  0.00000000000E+00 0.  1.
         -1    1    1    2    0  501 -0.16592334825E+02  0.13546670830E+02  0.13353491117E+03  0.13524196969E+03  0.00000000000E+00 0. -1.
</event>
<event>
 4    1  0.6888348E+001  0.2506689E+02  0.7546771E-02  0.1468056E+00
          2   -1    0    0  502    0  0.00000000000E+00  0.00000000000E+00  0.62297945003E+03  0.62297945003E+03  0.00000000000E+00 0. -1.
         -2   -1    0    0    0  501 -0.00000000000E+00 -0.00000000000E+00 -0.13666660073E+01  0.13666660073E+01  0.00000000000E+00 0.  1.
          1    1    1    2  502    0 -0.22845726436E+02  0.10316088341E+02  0.47059074963E+03  0.47125789386E+03  0.00000000000E+00 0. -1.
         -1    1    1    2    0  501  0.22845726436E+02 -0.10316088341E+02  0.15102203439E+03  0.15308822217E+03  0.00000000000E+00 0.  1.
</event>
<event>
 4    1  0.6888348E+001  0.2155274E+02  0.7546771E-02  0.1511518E+00
          2   -1    0    0  502    0  0.00000000000E+00  0.00000000000E+00  0.19120339392E+02  0.19120339392E+02  0.00000000000E+00 0.  1.
         -2   -1    0    0    0  501 -0.00000000000E+00 -0.00000000000E+00 -0.31045090275E+02  0.31045090275E+02  0.00000000000E+00 0. -1.
          1    1    1    2  502    0  0.21548845110E+02  0.40950100197E+00 -0.17658627318E+02  0.27863013753E+02  0.00000000000E+00 0.  1.
         -1    1    1    2    0  501 -0.21548845110E+02 -0.40950100197E+00  0.57338764349E+01  0.22302415914E+02  0.00000000000E+00 0. -1.
</event>
<event>
 4    1  0.6888348E+001  0.2068723E+02  0.7546771E-02  0.1523778E+00
          2   -1    0    0  502    0  0.00000000000E+00  0.00000000000E+00  0.16510777735E+04  0.16510777735E+04  0.00000000000E+00 0.  1.
         -2   -1    0    0    0  501 -0.00000000000E+00 -0.00000000000E+00 -0.30492994375E+00  0.30492994375E+00  0.00000000000E+00 0. -1.
          1    1    1    2  502    0 -0.47032507085E+01 -0.20145497775E+02  0.11451370817E+04  0.11453239269E+04  0.00000000000E+00 0.  1.
         -1    1    1    2    0  501  0.47032507085E+01  0.20145497775E+02  0.50563576178E+03  0.50605877647E+03  0.00000000000E+00 0. -1.
</event>
<event>
 4    1  0.6888348E+001  0.2004307E+02  0.7546771E-02  0.1533378E+00
          2   -1    0    0  502    0  0.00000000000E+00  0.00000000000E+00  0.13099040479E+03  0.13099040479E+03  0.00000000000E+00 0. -1.
         -2   -1    0    0    0  501 -0.00000000000E+00 -0.00000000000E+00 -0.62846400212E+01  0.62846400212E+01  0.00000000000E+00 0.  1.
          1    1    1    2  502    0 -0.11294466310E+02 -0.16557773506E+02  0.13239274631E+02  0.24020891438E+02  0.00000000000E+00 0.  1.
         -1    1    1    2    0  501  0.11294466310E+02  0.16557773506E+02  0.11146649014E+03  0.11325415337E+03  0.00000000000E+00 0. -1.
</event>
<event>
 4    1  0.6888348E+001  0.2490795E+02  0.7546771E-02  0.1469836E+00
          2   -1    0    0  502    0  0.00000000000E+00  0.00000000000E+00  0.96033315587E+03  0.96033315587E+03  0.00000000000E+00 0. -1.
         -2   -1    0    0    0  501 -0.00000000000E+00 -0.00000000000E+00 -0.80130479962E+00  0.80130479962E+00  0.00000000000E+00 0.  1.
          1    1    1    2  502    0 -0.17345394043E+02  0.17875776311E+02  0.26822091212E+03  0.26937495016E+03  0.00000000000E+00 0.  1.
         -1    1    1    2    0  501  0.17345394043E+02 -0.17875776311E+02  0.69131093895E+03  0.69175951052E+03  0.00000000000E+00 0. -1.
</event>
<event>
 4    1  0.6888348E+001  0.2288040E+02  0.7546771E-02  0.1494005E+00
          2   -1    0    0  502    0  0.00000000000E+00  0.00000000000E+00  0.39309368709E+02  0.39309368709E+02  0.00000000000E+00 0. -1.
         -2   -1    0    0    0  501 -0.00000000000E+00 -0.00000000000E+00 -0.15489157661E+02  0.15489157661E+02  0.00000000000E+00 0.  1.
          1    1    1    2  502    0  0.55196011539E+01  0.22204653081E+02  0.22168868110E+02  0.31858614669E+02  0.00000000000E+00 0.  1.
         -1    1    1    2    0  501 -0.55196011539E+01 -0.22204653081E+02  0.16513429383E+01  0.22939911701E+02  0.00000000000E+00 0. -1.
</event>
<event>
 4    1  0.6888348E+001  0.2411006E+02  0.7546771E-02  0.1479010E+00
          2   -1    0    0  502    0  0.00000000000E+00  0.00000000000E+00  0.18263720442E+04  0.18263720442E+04  0.00000000000E+00 0. -1.
         -2   -1    0    0    0  501 -0.00000000000E+00 -0.00000000000E+00 -0.35074184849E+00  0.35074184849E+00  0.00000000000E+00 0.  1.
          1    1    1    2  502    0  0.23418574855E+02 -0.57328294997E+01  0.11908830517E+04  0.11911270872E+04  0.00000000000E+00 0.  1.
         -1    1    1    2    0  501 -0.23418574855E+02  0.57328294997E+01  0.63513825065E+03  0.63559569887E+03  0.00000000000E+00 0. -1.
</event>
<event>
 4    1  0.6888348E+001  0.2816858E+02  0.7546771E-02  0.1436210E+00
          2   -1    0    0  502    0  0.00000000000E+00  0.00000000000E+00  0.50597587669E+02  0.50597587669E+02  0.00000000000E+00 0. -1.
         -2   -1    0    0    0  501 -0.00000000000E+00 -0.00000000000E+00 -0.15844919969E+02  0.15844919969E+02  0.00000000000E+00 0.  1.
          1    1    1    2  502    0  0.72996017311E+01 -0.27206338281E+02  0.20745479841E+02  0.34983481273E+02  0.00000000000E+00 0. -1.
         -1    1    1    2    0  501 -0.72996017311E+01  0.27206338281E+02  0.14007187860E+02  0.31459026365E+02  0.00000000000E+00 0.  1.
</event>
<event>
 4    1  0.6888348E+001  0.2337973E+02  0.7546771E-02  0.1487784E+00
          2   -1    0    0  502    0  0.00000000000E+00  0.00000000000E+00  0.81824485406E+03  0.81824485406E+03  0.00000000000E+00 0. -1.
         -2   -1    0    0    0  501 -0.00000000000E+00 -0.00000000000E+00 -0.83626658927E+00  0.83626658927E+00  0.00000000000E+00 0.  1.
          1    1    1    2  502    0  0.19599706341E+02 -0.12746112849E+02  0.22501445409E+03  0.22622580850E+03  0.00000000000E+00 0.  1.
         -1    1    1    2    0  501 -0.19599706341E+02  0.12746112849E+02  0.59239413338E+03  0.59285531215E+03  0.00000000000E+00 0. -1.
</event>
<event>
 4    1  0.6888348E+001  0.2085853E+02  0.7546771E-02  0.1521294E+00
          2   -1    0    0  502    0  0.00000000000E+00  0.00000000000E+00  0.48360455670E+01  0.48360455670E+01  0.00000000000E+00 0.  1.
         -2   -1    0    0    0  501 -0.00000000000E+00 -0.00000000000E+00 -0.94429958161E+02  0.94429958161E+02  0.00000000000E+00 0. -1.
          1    1    1    2  502    0  0.20492738438E+02  0.38892302305E+01 -0.34005299525E+02  0.39892841917E+02  0.00000000000E+00 0.  1.
         -1    1    1    2    0  501 -0.20492738438E+02 -0.38892302305E+01 -0.55588613069E+02  0.59373161811E+02  0.00000000000E+00 0. -1.
</event>
<event>
 4    1  0.6888348E+001  0.2065751E+02  0.7546771E-02  0.1524211E+00
          2   -1    0    0  502    0  0.00000000000E+00  0.00000000000E+00  0.14030731975E+03  0.14030731975E+03  0.00000000000E+00 0. -1.
         -2   -1    0    0    0  501 -0.00000000000E+00 -0.00000000000E+00 -0.32172760591E+01  0.32172760591E+01  0.00000000000E+00 0.  1.
          1    1    1    2  502    0 -0.13314925032E+02  0.15793843148E+02  0.51767118342E+02  0.55736588085E+02  0.00000000000E+00 0.  1.
         -1    1    1    2    0  501  0.13314925032E+02 -0.15793843148E+02  0.85322925346E+02  0.87788007720E+02  0.00000000000E+00 0. -1.
</event>
<event>
 4    1  0.6888348E+001  0.2632406E+02  0.7546771E-02  0.1454519E+00
          2   -1    0    0  502    0  0.00000000000E+00  0.00000000000E+00  0.33225884017E+03  0.33225884017E+03  0.00000000000E+00 0.  1.
         -2   -1    0    0    0  501 -0.00000000000E+00 -0.00000000000E+00 -0.20975887672E+01  0.20975887672E+01  0.00000000000E+00 0. -1.
          1    1    1    2  502    0  0.19784282599E+02 -0.17364850693E+02  0.17772446421E+03  0.17966341045E+03  0.00000000000E+00 0. -1.
         -1    1    1    2    0  501 -0.19784282599E+02  0.17364850693E+02  0.15243678719E+03  0.15469301848E+03  0.00000000000E+00 0.  1.
</event>
<event>
 4    1  0.6888348E+001  0.2683809E+02  0.7546771E-02  0.1449241E+00
          2   -1    0    0  502    0  0.00000000000E+00  0.00000000000E+00  0.87783989295E+02  0.87783989295E+02  0.00000000000E+00 0. -1.
         -2   -1    0    0    0  501 -0.00000000000E+00 -0.00000000000E+00 -0.85400377814E+01  0.85400377814E+01  0.00000000000E+00 0.  1.
          1    1    1    2  502    0 -0.26350476950E+02 -0.50926909312E+01  0.30085077925E+02  0.40316188438E+02  0.00000000000E+00 0. -1.
         -1    1    1    2    0  501  0.26350476950E+02  0.50926909312E+01  0.49158873588E+02  0.56007838638E+02  0.00000000000E+00 0.  1.
</event>
<event>
 4    1  0.6888348E+001  0.3175407E+02  0.7546771E-02  0.1404942E+00
          2   -1    0    0  502    0  0.00000000000E+00  0.00000000000E+00  0.76874062467E+02  0.76874062467E+02  0.00000000000E+00 0. -1.
         -2   -1    0    0    0  501 -0.00000000000E+00 -0.00000000000E+00 -0.15335238230E+02  0.15335238230E+02  0.00000000000E+00 0.  1.
          1    1    1    2  502    0 -0.28948328961E+02  0.13050483517E+02  0.48306184468E+02  0.57808375928E+02  0.00000000000E+00 0. -1.
         -1    1    1    2    0  501  0.28948328961E+02 -0.13050483517E+02  0.13232639769E+02  0.34400924768E+02  0.00000000000E+00 0.  1.
</event>
<event>
 4    1  0.6888348E+001  0.2177901E+02  0.7546771E-02  0.1508427E+00
          2   -1    0    0  502    0  0.00000000000E+00  0.00000000000E+00  0.13235964503E+02  0.13235964503E+02  0.00000000000E+00 0.  1.
         -2   -1    0    0    0  501 -0.00000000000E+00 -0.00000000000E+00 -0.48721616218E+02  0.48721616218E+02  0.00000000000E+00 0. -1.
          1    1    1    2  502    0 -0.94441855377E+01 -0.19624796292E+02 -0.33674250813E+02  0.40103371900E+02  0.00000000000E+00 0. -1.
         -1    1    1    2    0  501  0.94441855377E+01  0.19624796292E+02 -0.18114009020E+01  0.21854208821E+02  0.00000000000E+00 0.  1.
</event>
<event>
 4    1  0.6888348E+001  0.3083432E+02  0.7546771E-02  0.1412482E+00
          2   -1    0    0  502    0  0.00000000000E+00  0.00000000000E+00  0.17558003078E+04  0.17558003078E+04  0.00000000000E+00 0.  1.
         -2   -1    0    0    0  501 -0.00000000000E+00 -0.00000000000E+00 -0.54170494865E+00  0.54170494865E+00  0.00000000000E+00 0. -1.
          1    1    1    2  502    0  0.22730254333E+02  0.20834848501E+02  0.89495781392E+03  0.89548882967E+03  0.00000000000E+00 0.  1.
         -1    1    1    2    0  501 -0.22730254333E+02 -0.20834848501E+02  0.86030078889E+03  0.86085318303E+03  0.00000000000E+00 0. -1.
</event>
<event>
 4    1  0.6888348E+001  0.2763494E+02  0.7546771E-02  0.1441332E+00
          2   -1    0    0  502    0  0.00000000000E+00  0.00000000000E+00  0.11722599246E+04  0.11722599246E+04  0.00000000000E+00 0.  1.
         -2   -1    0    0    0  501 -0.00000000000E+00 -0.00000000000E+00 -0.15680803423E+01  0.15680803423E+01  0.00000000000E+00 0. -1.
          1    1    1    2  502    0 -0.27599204553E+02 -0.14049738639E+01  0.13661797079E+03  0.13938493457E+03  0.00000000000E+00 0. -1.
         -1    1    1    2    0  501  0.27599204553E+02  0.14049738639E+01  0.10340738734E+04  0.10344430703E+04  0.00000000000E+00 0.  1.
</event>
<event>
 4    1  0.6888348E+001  0.4142835E+02  0.7546771E-02  0.1340313E+00
          2   -1    0    0  502    0  0.00000000000E+00  0.00000000000E+00  0.41628513162E+03  0.41628513162E+03  0.00000000000E+00 0.  1.
         -2   -1    0    0    0  501 -0.00000000000E+00 -0.00000000000E+00 -0.46269454041E+01  0.46269454041E+01  0.00000000000E+00 0. -1.
          1    1    1    2  502    0  0.39398761335E+02 -0.12808022948E+02  0.27529040009E+03  0.27839021576E+03  0.00000000000E+00 0.  1.
         -1    1    1    2    0  501 -0.39398761335E+02  0.12808022948E+02  0.13636778612E+03  0.14252186127E+03  0.00000000000E+00 0. -1.
</event>
<event>
 4    1  0.6888348E+001  0.4909706E+02  0.7546771E-02  0.1302135E+00
          2   -1    0    0  502    0  0.00000000000E+00  0.00000000000E+00  0.32097351627E+02  0.32097351627E+02  0.00000000000E+00 0.  1.
         -2   -1    0    0    0  501 -0.00000000000E+00 -0.00000000000E+00 -0.92446813970E+02  0.92446813970E+02  0.00000000000E+00 0. -1.
          1    1    1    2  502    0 -0.27036179348E+02 -0.40982512417E+02 -0.32002378483E+01  0.49201248358E+02  0.00000000000E+00 0.  1.
         -1    1    1    2    0  501  0.27036179348E+02  0.40982512417E+02 -0.57149224494E+02  0.75342917238E+02  0.00000000000E+00 0. -1.
</event>
<event>
 4    1  0.6888348E+001  0.2309367E+02  0.7546771E-02  0.1491325E+00
          2   -1    0    0  502    0  0.00000000000E+00  0.00000000000E+00  0.26762772301E+03  0.26762772301E+03  0.00000000000E+00 0. -1.
         -2   -1    0    0    0  501 -0.00000000000E+00 -0.00000000000E+00 -0.44303396792E+01  0.44303396792E+01  0.00000000000E+00 0.  1.
          1    1    1    2  502    0 -0.44435366487E+01  0.22662142176E+02  0.30698372130E+02  0.38414941850E+02  0.00000000000E+00 0.  1.
         -1    1    1    2    0  501  0.44435366487E+01 -0.22662142176E+02  0.23249901120E+03  0.23364312083E+03  0.00000000000E+00 0. -1.
</event>
<event>
 4    1  0.6888348E+001  0.9398891E+02  0.7546771E-02  0.1174652E+00
          2   -1    0    0  502    0  0.00000000000E+00  0.00000000000E+00  0.27235984160E+02  0.27235984160E+02  0.00000000000E+00 0.  1.
         -2   -1    0    0    0  501 -0.00000000000E+00 -0.00000000000E+00 -0.32445051709E+03  0.32445051709E+03  0.00000000000E+00 0. -1.
          1    1    1    2  502    0 -0.78619478128E+02 -0.51506239731E+02 -0.15174522718E+03  0.17849517933E+03  0.00000000000E+00 0. -1.
         -1    1    1    2    0  501  0.78619478128E+02  0.51506239731E+02 -0.14546930575E+03  0.17319132192E+03  0.00000000000E+00 0.  1.
</event>
<event>
 4    1  0.6888348E+001  0.2452058E+02  0.7546771E-02  0.1474239E+00
          2   -1    0    0  502    0  0.00000000000E+00  0.00000000000E+00  0.35185977892E+01  0.35185977892E+01  0.00000000000E+00 0.  1.
         -2   -1    0    0    0  501 -0.00000000000E+00 -0.00000000000E+00 -0.17110998737E+03  0.17110998737E+03  0.00000000000E+00 0. -1.
          1    1    1    2  502    0 -0.17126233317E+02 -0.17548537922E+02 -0.86994699377E+02  0.90384383443E+02  0.00000000000E+00 0.  1.
         -1    1    1    2    0  501  0.17126233317E+02  0.17548537922E+02 -0.80596690206E+02  0.84244201718E+02  0.00000000000E+00 0. -1.
</event>
<event>
 4    1  0.6888348E+001  0.2472965E+02  0.7546771E-02  0.1471851E+00
          2   -1    0    0  502    0  0.00000000000E+00  0.00000000000E+00  0.65229466873E+03  0.65229466873E+03  0.00000000000E+00 0. -1.
         -2   -1    0    0    0  501 -0.00000000000E+00 -0.00000000000E+00 -0.94203091561E+00  0.94203091561E+00  0.00000000000E+00 0.  1.
          1    1    1    2  502    0  0.24158623450E+02  0.52836014902E+01  0.30313709252E+03  0.30414413095E+03  0.00000000000E+00 0.  1.
         -1    1    1    2    0  501 -0.24158623450E+02 -0.52836014902E+01  0.34821554530E+03  0.34909256870E+03  0.00000000000E+00 0. -1.
</event>
<event>
 4    1  0.6888348E+001  0.3243068E+02  0.7546771E-02  0.1399586E+00
          2   -1    0    0  502    0  0.00000000000E+00  0.00000000000E+00  0.20633685312E+03  0.20633685312E+03  0.00000000000E+00 0.  1.
         -2   -1    0    0    0  501 -0.00000000000E+00 -0.00000000000E+00 -0.50974728979E+01  0.50974728979E+01  0.00000000000E+00 0. -1.
          1    1    1    2  502    0  0.31374574364E+02 -0.82088345113E+01  0.99908234566E+02  0.10504001245E+03  0.00000000000E+00 0. -1.
         -1    1    1    2    0  501 -0.31374574364E+02  0.82088345113E+01  0.10133114566E+03  0.10639431358E+03  0.00000000000E+00 0.  1.
</event>
<event>
 4    1  0.6888348E+001  0.2681860E+02  0.7546771E-02  0.1449439E+00
          2   -1    0    0  502    0  0.00000000000E+00  0.00000000000E+00  0.31493481626E+03  0.31493481626E+03  0.00000000000E+00 0. -1.
         -2   -1    0    0    0  501 -0.00000000000E+00 -0.00000000000E+00 -0.23050396682E+01  0.23050396682E+01  0.00000000000E+00 0.  1.
          1    1    1    2  502    0 -0.23892273258E+02  0.12181803194E+02  0.17155372774E+03  0.17363731901E+03  0.00000000000E+00 0. -1.
         -1    1    1    2    0  501  0.23892273258E+02 -0.12181803194E+02  0.14107604885E+03  0.14360253692E+03  0.00000000000E+00 0.  1.
</event>
<event>
 4    1  0.6888348E+001  0.2114189E+02  0.7546771E-02  0.1517249E+00
          2   -1    0    0  502    0  0.00000000000E+00  0.00000000000E+00  0.32776089177E+03  0.32776089177E+03  0.00000000000E+00 0.  1.
         -2   -1    0    0    0  501 -0.00000000000E+00 -0.00000000000E+00 -0.13744544710E+01  0.13744544710E+01  0.00000000000E+00 0. -1.
          1    1    1    2  502    0 -0.77100465690E+01  0.19685905226E+02  0.14866127138E+03  0.15015709537E+03  0.00000000000E+00 0. -1.
         -1    1    1    2    0  501  0.77100465690E+01 -0.19685905226E+02  0.17772516592E+03  0.17897825087E+03  0.00000000000E+00 0.  1.
</event>
<event>
 4    1  0.6888348E+001  0.2842303E+02  0.7546771E-02  0.1433814E+00
          2   -1    0    0  502    0  0.00000000000E+00  0.00000000000E+00  0.44136017350E+03  0.44136017350E+03  0.00000000000E+00 0. -1.
         -2   -1    0    0    0  501 -0.00000000000E+00 -0.00000000000E+00 -0.29870004429E+01  0.29870004429E+01  0.00000000000E+00 0.  1.
          1    1    1    2  502    0  0.26901804351E+02  0.91739747747E+01  0.80936603448E+02  0.85782298105E+02  0.00000000000E+00 0.  1.
         -1    1    1    2    0  501 -0.26901804351E+02 -0.91739747747E+01  0.35743656961E+03  0.35856487584E+03  0.00000000000E+00 0. -1.
</event>
<event>
 4    1  0.6888348E+001  0.3243637E+02  0.7546771E-02  0.1399541E+00
          2   -1    0    0  502    0  0.00000000000E+00  0.00000000000E+00  0.21616168397E+04  0.21616168397E+04  0.00000000000E+00 0.  1.
         -2   -1    0    0    0  501 -0.00000000000E+00 -0.00000000000E+00 -0.65834669887E+00  0.65834669887E+00  0.00000000000E+00 0. -1.
          1    1    1    2  502    0  0.31372184039E+02 -0.82403948217E+01  0.52848219054E+03  0.52947666970E+03  0.00000000000E+00 0. -1.
         -1    1    1    2    0  501 -0.31372184039E+02  0.82403948217E+01  0.16324763025E+04  0.16327985167E+04  0.00000000000E+00 0.  1.
</event>
<event>
 4    1  0.6888348E+001  0.2484943E+02  0.7546771E-02  0.1470495E+00
          2   -1    0    0  502    0  0.00000000000E+00  0.00000000000E+00  0.93215239514E+02  0.93215239514E+02  0.00000000000E+00 0.  1.
         -2   -1    0    0    0  501 -0.00000000000E+00 -0.00000000000E+00 -0.77920239267E+01  0.77920239267E+01  0.00000000000E+00 0. -1.
          1    1    1    2  502    0  0.11152238709E+01 -0.24824395527E+02  0.23161446252E+02  0.33969794377E+02  0.00000000000E+00 0. -1.
         -1    1    1    2    0  501 -0.11152238709E+01  0.24824395527E+02  0.62261769336E+02  0.67037469063E+02  0.00000000000E+00 0.  1.
</event>
<event>
 4    1  0.6888348E+001  0.2099455E+02  0.7546771E-02  0.1519343E+00
          2   -1    0    0  502    0  0.00000000000E+00  0.00000000000E+00  0.98039646682E+03  0.98039646682E+03  0.00000000000E+00 0. -1.
         -2   -1    0    0    0  501 -0.00000000000E+00 -0.00000000000E+00 -0.52615920540E+00  0.52615920540E+00  0.00000000000E+00 0.  1.
          1    1    1    2  502    0 -0.61140243129E+00  0.20985642093E+02  0.30282858489E+03  0.30355546909E+03  0.00000000000E+00 0. -1.
         -1    1    1    2    0  501  0.61140243129E+00 -0.20985642093E+02  0.67704172272E+03  0.67736715693E+03  0.00000000000E+00 0.  1.
</event>
<event>
 4    1  0.6888348E+001  0.2048852E+02  0.7546771E-02  0.1526694E+00
          2   -1    0    0  502    0  0.00000000000E+00  0.00000000000E+00  0.68902666201E+02  0.68902666201E+02  0.00000000000E+00 0.  1.
         -2   -1    0    0    0  501 -0.00000000000E+00 -0.00000000000E+00 -0.81870661747E+01  0.81870661747E+01  0.00000000000E+00 0. -1.
          1    1    1    2  502    0  0.20465547395E+02 -0.96986512561E+00  0.10860933449E+02  0.23189203175E+02  0.00000000000E+00 0. -1.
         -1    1    1    2    0  501 -0.20465547395E+02  0.96986512561E+00  0.49854666577E+02  0.53900529200E+02  0.00000000000E+00 0.  1.
</event>
<event>
 4    1  0.6888348E+001  0.2052476E+02  0.7546771E-02  0.1526159E+00
          2   -1    0    0  502    0  0.00000000000E+00  0.00000000000E+00  0.72215814444E+00  0.72215814444E+00  0.00000000000E+00 0. -1.
         -2   -1    0    0    0  501 -0.00000000000E+00 -0.00000000000E+00 -0.64503942373E+03  0.64503942373E+03  0.00000000000E+00 0.  1.
          1    1    1    2  502    0  0.18877713468E+02 -0.80559082877E+01 -0.22230130867E+03  0.22324680863E+03  0.00000000000E+00 0.  1.
         -1    1    1    2    0  501 -0.18877713468E+02  0.80559082877E+01 -0.42201595691E+03  0.42251477325E+03  0.00000000000E+00 0. -1.
</event>
<event>
 4    1  0.6888348E+001  0.5137053E+02  0.7546771E-02  0.1292337E+00
          2   -1    0    0  502    0  0.00000000000E+00  0.00000000000E+00  0.74119614313E+03  0.74119614313E+03  0.00000000000E+00 0. -1.
         -2   -1    0    0    0  501 -0.00000000000E+00 -0.00000000000E+00 -0.61582374131E+01  0.61582374131E+01  0.00000000000E+00 0.  1.
          1    1    1    2  502    0  0.32183955905E+02  0.40039035952E+02  0.12481492188E+03  0.13497294597E+03  0.00000000000E+00 0.  1.
         -1    1    1    2    0  501 -0.32183955905E+02 -0.40039035952E+02  0.61022298383E+03  0.61238143458E+03  0.00000000000E+00 0. -1.
</event>
<event>
 4    1  0.6888348E+001  0.3229680E+02  0.7546771E-02  0.1400633E+00
          2   -1    0    0  502    0  0.00000000000E+00  0.00000000000E+00  0.13824554643E+04  0.13824554643E+04  0.00000000000E+00 0.  1.
         -2   -1    0    0    0  501 -0.00000000000E+00 -0.00000000000E+00 -0.75468329810E+00  0.75468329810E+00  0.00000000000E+00 0. -1.
          1    1    1    2  502    0  0.20581196760E+02  0.24889709389E+02  0.68052038866E+03  0.68128634411E+03  0.00000000000E+00 0. -1.
         -1    1    1    2    0  501 -0.20581196760E+02 -0.24889709389E+02  0.70118039236E+03  0.70192380350E+03  0.00000000000E+00 0.  1.
</event>
<event>
 4    1  0.6888348E+001  0.2240788E+02  0.7546771E-02  0.1500070E+00
          2   -1    0    0  502    0  0.00000000000E+00  0.00000000000E+00  0.86638782638E+03  0.86638782638E+03  0.00000000000E+00 0. -1.
         -2   -1    0    0    0  501 -0.00000000000E+00 -0.00000000000E+00 -0.58071134895E+00  0.58071134895E+00  0.00000000000E+00 0.  1.
          1    1    1    2  502    0 -0.22407587547E+02 -0.11432053778E+00  0.41349875704E+03  0.41410546376E+03  0.00000000000E+00 0.  1.
         -1    1    1    2    0  501  0.22407587547E+02  0.11432053778E+00  0.45230835800E+03  0.45286307397E+03  0.00000000000E+00 0. -1.
</event>
<event>
 4    1  0.6888348E+001  0.3530569E+02  0.7546771E-02  0.1378427E+00
          2   -1    0    0  502    0  0.00000000000E+00  0.00000000000E+00  0.98618038988E+01  0.98618038988E+01  0.00000000000E+00 0.  1.
         -2   -1    0    0    0  501 -0.00000000000E+00 -0.00000000000E+00 -0.15199970709E+03  0.15199970709E+03  0.00000000000E+00 0. -1.
          1    1    1    2  502    0 -0.31294435698E+02 -0.16344725825E+02 -0.10428472202E+03  0.11009902367E+03  0.00000000000E+00 0.  1.
         -1    1    1    2    0  501  0.31294435698E+02  0.16344725825E+02 -0.37853181174E+02  0.51762487314E+02  0.00000000000E+00 0. -1.
</event>
<event>
 4    1  0.6888348E+001  0.3163368E+02  0.7546771E-02  0.1405912E+00
          2   -1    0    0  502    0  0.00000000000E+00  0.00000000000E+00  0.12963228124E+04  0.12963228124E+04  0.00000000000E+00 0. -1.
         -2   -1    0    0    0  501 -0.00000000000E+00 -0.00000000000E+00 -0.79139377080E+00  0.79139377080E+00  0.00000000000E+00 0.  1.
          1    1    1    2  502    0 -0.27175614314E+02  0.16191838184E+02  0.74943747484E+03  0.75010480490E+03  0.00000000000E+00 0. -1.
         -1    1    1    2    0  501  0.27175614314E+02 -0.16191838184E+02  0.54609394377E+03  0.54700940125E+03  0.00000000000E+00 0.  1.
</event>
<event>
 4    1  0.6888348E+001  0.2369155E+02  0.7546771E-02  0.1483992E+00
          2   -1    0    0  502    0  0.00000000000E+00  0.00000000000E+00  0.18953578907E+04  0.18953578907E+04  0.00000000000E+00 0.  1.
         -2   -1    0    0    0  501 -0.00000000000E+00 -0.00000000000E+00 -0.31275276435E+00  0.31275276435E+00  0.00000000000E+00 0. -1.
          1    1    1    2  502    0  0.97830757645E+01  0.21577326875E+02  0.72906613330E+03  0.72945096911E+03  0.00000000000E+00 0. -1.
         -1    1    1    2    0  501 -0.97830757645E+01 -0.21577326875E+02  0.11659790047E+04  0.11662196744E+04  0.00000000000E+00 0.  1.
</event>
<event>
 4    1  0.6888348E+001  0.2570580E+02  0.7546771E-02  0.1461060E+00
          2   -1    0    0  502    0  0.00000000000E+00  0.00000000000E+00  0.51616617447E+01  0.51616617447E+01  0.00000000000E+00 0.  1.
         -2   -1    0    0    0  501 -0.00000000000E+00 -0.00000000000E+00 -0.13557081263E+03  0.13557081263E+03  0.00000000000E+00 0. -1.
          1    1    1    2  502    0 -0.19639615383E+02  0.16585339738E+02 -0.81812767687E+02  0.85756148137E+02  0.00000000000E+00 0.  1.
         -1    1    1    2    0  501  0.19639615383E+02 -0.16585339738E+02 -0.48596383195E+02  0.54976326235E+02  0.00000000000E+00 0. -1.
</event>
<event>
 4    1  0.6888348E+001  0.2519987E+02  0.7546771E-02  0.1466580E+00
          2   -1    0    0  502    0  0.00000000000E+00  0.00000000000E+00  0.52592454829E+03  0.52592454829E+03  0.00000000000E+00 0.  1.
         -2   -1    0    0    0  501 -0.00000000000E+00 -0.00000000000E+00 -0.13481848527E+01  0.13481848527E+01  0.00000000000E+00 0. -1.
          1    1    1    2  502    0 -0.24861238058E+02 -0.41172931220E+01  0.17711265890E+03  0.17889641473E+03  0.00000000000E+00 0. -1.
         -1    1    1    2    0  501  0.24861238058E+02  0.41172931220E+01  0.34746370454E+03  0.34837631842E+03  0.00000000000E+00 0.  1.
</event>
<event>
 4    1  0.6888348E+001  0.2376946E+02  0.7546771E-02  0.1483056E+00
          2   -1    0    0  502    0  0.00000000000E+00  0.00000000000E+00  0.23029116731E+04  0.23029116731E+04  0.00000000000E+00 0.  1.
         -2   -1    0    0    0  501 -0.00000000000E+00 -0.00000000000E+00 -0.25495658467E+00  0.25495658467E+00  0.00000000000E+00 0. -1.
          1    1    1    2  502    0 -0.22716329749E+02 -0.69968411712E+01  0.13750253703E+04  0.13752308011E+04  0.00000000000E+00 0. -1.
         -1    1    1    2    0  501  0.22716329749E+02  0.69968411712E+01  0.92763134627E+03  0.92793582860E+03  0.00000000000E+00 0.  1.
</event>
<event>
 4    1  0.6888348E+001  0.2324528E+02  0.7546771E-02  0.1489441E+00
          2   -1    0    0  502    0  0.00000000000E+00  0.00000000000E+00  0.72609705360E+03  0.72609705360E+03  0.00000000000E+00 0. -1.
         -2   -1    0    0    0  501 -0.00000000000E+00 -0.00000000000E+00 -0.82596423404E+00  0.82596423404E+00  0.00000000000E+00 0.  1.
          1    1    1    2  502    0 -0.17495611683E+02 -0.15305115346E+02  0.24826164245E+03  0.24934752073E+03  0.00000000000E+00 0.  1.
         -1    1    1    2    0  501  0.17495611683E+02  0.15305115346E+02  0.47700944692E+03  0.47757549711E+03  0.00000000000E+00 0. -1.
</event>
<event>
 4    1  0.6888348E+001  0.2461549E+02  0.7546771E-02  0.1473151E+00
          2   -1    0    0  502    0  0.00000000000E+00  0.00000000000E+00  0.88932282600E+02  0.88932282600E+02  0.00000000000E+00 0. -1.
         -2   -1    0    0    0  501 -0.00000000000E+00 -0.00000000000E+00 -0.16154330829E+02  0.16154330829E+02  0.00000000000E+00 0.  1.
          1    1    1    2  502    0  0.24383737405E+02 -0.33698044077E+01 -0.35659510269E+01  0.24872439332E+02  0.00000000000E+00 0.  1.
         -1    1    1    2    0  501 -0.24383737405E+02  0.33698044077E+01  0.76343902798E+02  0.80214174097E+02  0.00000000000E+00 0. -1.
</event>
<event>
 4    1  0.6888348E+001  0.5032269E+02  0.7546771E-02  0.1296779E+00
          2   -1    0    0  502    0  0.00000000000E+00  0.00000000000E+00  0.60250569310E+02  0.60250569310E+02  0.00000000000E+00 0.  1.
         -2   -1    0    0    0  501 -0.00000000000E+00 -0.00000000000E+00 -0.42240206841E+02  0.42240206841E+02  0.00000000000E+00 0. -1.
          1    1    1    2  502    0 -0.49695243373E+02  0.79218368453E+01  0.53960207602E+01  0.50611162336E+02  0.00000000000E+00 0. -1.
         -1    1    1    2    0  501  0.49695243373E+02 -0.79218368453E+01  0.12614341709E+02  0.51879613816E+02  0.00000000000E+00 0.  1.
</event>
<event>
 4    1  0.6888348E+001  0.2858062E+02  0.7546771E-02  0.1432345E+00
          2   -1    0    0  502    0  0.00000000000E+00  0.00000000000E+00  0.16170139787E+03  0.16170139787E+03  0.00000000000E+00 0. -1.
         -2   -1    0    0    0  501 -0.00000000000E+00 -0.00000000000E+00 -0.52650130462E+01  0.52650130462E+01  0.00000000000E+00 0.  1.
          1    1    1    2  502    0  0.27324385291E+02 -0.83803332546E+01  0.61410731956E+02  0.67735736627E+02  0.00000000000E+00 0.  1.
         -1    1    1    2    0  501 -0.27324385291E+02  0.83803332546E+01  0.95025652872E+02  0.99230674293E+02  0.00000000000E+00 0. -1.
</event>
<event>
 4    1  0.6888348E+001  0.2969607E+02  0.7546771E-02  0.1422256E+00
          2   -1    0    0  502    0  0.00000000000E+00  0.00000000000E+00  0.14243572823E+02  0.14243572823E+02  0.00000000000E+00 0.  1.
         -2   -1    0    0    0  501 -0.00000000000E+00 -0.00000000000E+00 -0.64776654151E+02  0.64776654151E+02  0.00000000000E+00 0. -1.
          1    1    1    2  502    0  0.21219296941E+02 -0.20774935509E+02 -0.16958659702E+02  0.34197260811E+02  0.00000000000E+00 0.  1.
         -1    1    1    2    0  501 -0.21219296941E+02  0.20774935509E+02 -0.33574421626E+02  0.44822966163E+02  0.00000000000E+00 0. -1.
</event>
<event>
 4    1  0.6888348E+001  0.3011734E+02  0.7546771E-02  0.1418579E+00
          2   -1    0    0  502    0  0.00000000000E+00  0.00000000000E+00  0.25114233065E+03  0.25114233065E+03  0.00000000000E+00 0.  1.
         -2   -1    0    0    0  501 -0.00000000000E+00 -0.00000000000E+00 -0.49479098790E+01  0.49479098790E+01  0.00000000000E+00 0. -1.
          1    1    1    2  502    0 -0.29620627193E+02  0.54472822825E+01  0.18963786933E+03  0.19201452008E+03  0.00000000000E+00 0.  1.
         -1    1    1    2    0  501  0.29620627193E+02 -0.54472822825E+01  0.56556551445E+02  0.64075720448E+02  0.00000000000E+00 0. -1.
</event>
<event>
 4    1  0.6888348E+001  0.2394048E+02  0.7546771E-02  0.1481015E+00
          2   -1    0    0  502    0  0.00000000000E+00  0.00000000000E+00  0.60657066971E+03  0.60657066971E+03  0.00000000000E+00 0. -1.
         -2   -1    0    0    0  501 -0.00000000000E+00 -0.00000000000E+00 -0.10958027880E+01  0.10958027880E+01  0.00000000000E+00 0.  1.
          1    1    1    2  502    0  0.10773354046E+02 -0.21379461525E+02  0.18998584298E+03  0.19148829485E+03  0.00000000000E+00 0.  1.
         -1    1    1    2    0  501 -0.10773354046E+02  0.21379461525E+02  0.41548902394E+03  0.41617817765E+03  0.00000000000E+00 0. -1.
</event>
<event>
 4    1  0.6888348E+001  0.2447412E+02  0.7546771E-02  0.1474773E+00
          2   -1    0    0  502    0  0.00000000000E+00  0.00000000000E+00  0.11381532256E+04  0.11381532256E+04  0.00000000000E+00 0.  1.
         -2   -1    0    0    0  501 -0.00000000000E+00 -0.00000000000E+00 -0.54323720588E+00  0.54323720588E+00  0.00000000000E+00 0. -1.
          1    1    1    2  502    0  0.53649569211E+01  0.23878853462E+02  0.66940898349E+03  0.66985623053E+03  0.00000000000E+00 0.  1.
         -1    1    1    2    0  501 -0.53649569211E+01 -0.23878853462E+02  0.46820100495E+03  0.46884023232E+03  0.00000000000E+00 0. -1.
</event>
<event>
 4    1  0.6888348E+001  0.2025785E+02  0.7546771E-02  0.1530130E+00
          2   -1    0    0  502    0  0.00000000000E+00  0.00000000000E+00  0.85622028684E+03  0.85622028684E+03  0.00000000000E+00 0.  1.
         -2   -1    0    0    0  501 -0.00000000000E+00 -0.00000000000E+00 -0.47950766066E+00  0.47950766066E+00  0.00000000000E+00 0. -1.
          1    1    1    2  502    0  0.18093801627E+02 -0.91101427775E+01  0.43693426586E+03  0.43740362714E+03  0.00000000000E+00 0. -1.
         -1    1    1    2    0  501 -0.18093801627E+02  0.91101427775E+01  0.41880651333E+03  0.41929616736E+03  0.00000000000E+00 0.  1.
</event>
<event>
 4    1  0.6888348E+001  0.2368950E+02  0.7546771E-02  0.1484017E+00
          2   -1    0    0  502    0  0.00000000000E+00  0.00000000000E+00  0.83400232383E+03  0.83400232383E+03  0.00000000000E+00 0. -1.
         -2   -1    0    0    0  501 -0.00000000000E+00 -0.00000000000E+00 -0.12556517025E+01  0.12556517025E+01  0.00000000000E+00 0.  1.
          1    1    1    2  502    0  0.60103801907E+01  0.22914360159E+02  0.70088574200E+03  0.70128597299E+03  0.00000000000E+00 0. -1.
         -1    1    1    2    0  501 -0.60103801907E+01 -0.22914360159E+02  0.13186093013E+03  0.13397200255E+03  0.00000000000E+00 0.  1.
</event>
<event>
 4    1  0.6888348E+001  0.3819955E+02  0.7546771E-02  0.1359372E+00
          2   -1    0    0  502    0  0.00000000000E+00  0.00000000000E+00  0.10400382214E+03  0.10400382214E+03  0.00000000000E+00 0. -1.
         -2   -1    0    0    0  501 -0.00000000000E+00 -0.00000000000E+00 -0.35677078417E+02  0.35677078417E+02  0.00000000000E+00 0.  1.
          1    1    1    2  502    0  0.12454047232E+02  0.36112357626E+02  0.88564630030E+02  0.96451538910E+02  0.00000000000E+00 0. -1.
         -1    1    1    2    0  501 -0.12454047232E+02 -0.36112357626E+02 -0.20237886311E+02  0.43229361643E+02  0.00000000000E+00 0.  1.
</event>
<event>
 4    1  0.6888348E+001  0.2230875E+02  0.7546771E-02  0.1501365E+00
          2   -1    0    0  502    0  0.00000000000E+00  0.00000000000E+00  0.42186881663E+02  0.42186881663E+02  0.00000000000E+00 0. -1.
         -2   -1    0    0    0  501 -0.00000000000E+00 -0.00000000000E+00 -0.28562947607E+02  0.28562947607E+02  0.00000000000E+00 0.  1.
          1    1    1    2  502    0  0.18887803188E+00 -0.22307953191E+02  0.33914344290E+02  0.40593881301E+02  0.00000000000E+00 0. -1.
         -1    1    1    2    0  501 -0.18887803188E+00  0.22307953191E+02 -0.20290410234E+02  0.30155947969E+02  0.00000000000E+00 0.  1.
</event>
<event>
 4    1  0.6888348E+001  0.2538717E+02  0.7546771E-02  0.1464518E+00
          2   -1    0    0  502    0  0.00000000000E+00  0.00000000000E+00  0.19222760832E+02  0.19222760832E+02  0.00000000000E+00 0.  1.
         -2   -1    0    0    0  501 -0.00000000000E+00 -0.00000000000E+00 -0.49972626183E+02  0.49972626183E+02  0.00000000000E+00 0. -1.
          1    1    1    2  502    0 -0.83201383894E+00  0.25373537388E+02 -0.35221601448E+02  0.43417391160E+02  0.00000000000E+00 0. -1.
         -1    1    1    2    0  501  0.83201383894E+00 -0.25373537388E+02  0.44717360966E+01  0.25777995855E+02  0.00000000000E+00 0.  1.
</event>
<event>
 4    1  0.6888348E+001  0.3082378E+02  0.7546771E-02  0.1412570E+00
          2   -1    0    0  502    0  0.00000000000E+00  0.00000000000E+00  0.23814831868E+03  0.23814831868E+03  0.00000000000E+00 0.  1.
         -2   -1    0    0    0  501 -0.00000000000E+00 -0.00000000000E+00 -0.45657547759E+01  0.45657547759E+01  0.00000000000E+00 0. -1.
          1    1    1    2  502    0 -0.25081227840E+01 -0.30721565851E+02  0.15990307137E+03  0.16284685297E+03  0.00000000000E+00 0.  1.
         -1    1    1    2    0  501  0.25081227840E+01  0.30721565851E+02  0.73679492531E+02  0.79867220484E+02  0.00000000000E+00 0. -1.
</event>
<event>
 4    1  0.6888348E+001  0.2075655E+02  0.7546771E-02  0.1522769E+00
          2   -1    0    0  502    0  0.00000000000E+00  0.00000000000E+00  0.74227723494E+00  0.74227723494E+00  0.00000000000E+00 0.  1.
         -2   -1    0    0    0  501 -0.00000000000E+00 -0.00000000000E+00 -0.58674015391E+03  0.58674015391E+03  0.00000000000E+00 0. -1.
          1    1    1    2  502    0 -0.15853765045E+02  0.13397483524E+02 -0.26251866494E+03  0.26333796512E+03  0.00000000000E+00 0.  1.
         -1    1    1    2    0  501  0.15853765045E+02 -0.13397483524E+02 -0.32347921174E+03  0.32414446603E+03  0.00000000000E+00 0. -1.
</event>
<event>
 4    1  0.6888348E+001  0.6116819E+02  0.7546771E-02  0.1255914E+00
          2   -1    0    0  502    0  0.00000000000E+00  0.00000000000E+00  0.21777015389E+04  0.21777015389E+04  0.00000000000E+00 0.  1.
         -2   -1    0    0    0  501 -0.00000000000E+00 -0.00000000000E+00 -0.17325456345E+01  0.17325456345E+01  0.00000000000E+00 0. -1.
          1    1    1    2  502    0 -0.51610235691E+02 -0.32831854022E+02  0.98854088527E+03  0.99043153672E+03  0.00000000000E+00 0. -1.
         -1    1    1    2    0  501  0.51610235691E+02  0.32831854022E+02  0.11874281079E+04  0.11890025478E+04  0.00000000000E+00 0.  1.
</event>
<event>
 4    1  0.6888348E+001  0.3031094E+02  0.7546771E-02  0.1416913E+00
          2   -1    0    0  502    0  0.00000000000E+00  0.00000000000E+00  0.89755304942E+01  0.89755304942E+01  0.00000000000E+00 0. -1.
         -2   -1    0    0    0  501 -0.00000000000E+00 -0.00000000000E+00 -0.15253982591E+03  0.15253982591E+03  0.00000000000E+00 0.  1.
          1    1    1    2  502    0  0.11742104389E+02 -0.27944158835E+02 -0.11809998038E+03  0.12192767690E+03  0.00000000000E+00 0.  1.
         -1    1    1    2    0  501 -0.11742104389E+02  0.27944158835E+02 -0.25464315041E+02  0.39587679510E+02  0.00000000000E+00 0. -1.
</event>
<event>
 4    1  0.6888348E+001  0.2638676E+02  0.7546771E-02  0.1453867E+00
          2   -1    0    0  502    0  0.00000000000E+00  0.00000000000E+00  0.19784341269E+04  0.19784341269E+04  0.00000000000E+00 0. -1.
         -2   -1    0    0    0  501 -0.00000000000E+00 -0.00000000000E+00 -0.13074432219E+01  0.13074432219E+01  0.00000000000E+00 0.  1.
          1    1    1    2  502    0  0.25240285737E+02 -0.76934606783E+01  0.18347895422E+04  0.18349792711E+04  0.00000000000E+00 0. -1.
         -1    1    1    2    0  501 -0.25240285737E+02  0.76934606783E+01  0.14233714149E+03  0.14476229899E+03  0.00000000000E+00 0.  1.
</event>
<event>
 4    1  0.6888348E+001  0.2665646E+02  0.7546771E-02  0.1451090E+00
          2   -1    0    0  502    0  0.00000000000E+00  0.00000000000E+00  0.73404744596E+00  0.73404744596E+00  0.00000000000E+00 0. -1.
         -2   -1    0    0    0  501 -0.00000000000E+00 -0.00000000000E+00 -0.97206280443E+03  0.97206280443E+03  0.00000000000E+00 0.  1.
          1    1    1    2  502    0  0.28952786668E+01  0.26498757467E+02 -0.51706310363E+03  0.51774976574E+03  0.00000000000E+00 0.  1.
         -1    1    1    2    0  501 -0.28952786668E+01 -0.26498757467E+02 -0.45426565335E+03  0.45504708614E+03  0.00000000000E+00 0. -1.
</event>
<event>
 4    1  0.6888348E+001  0.2091770E+02  0.7546771E-02  0.1520443E+00
          2   -1    0    0  502    0  0.00000000000E+00  0.00000000000E+00  0.61982839869E+03  0.61982839869E+03  0.00000000000E+00 0. -1.
         -2   -1    0    0    0  501 -0.00000000000E+00 -0.00000000000E+00 -0.70691241647E+00  0.70691241647E+00  0.00000000000E+00 0.  1.
          1    1    1    2  502    0  0.58669309314E+01  0.20078081352E+02  0.32117681668E+03  0.32185726309E+03  0.00000000000E+00 0.  1.
         -1    1    1    2    0  501 -0.58669309314E+01 -0.20078081352E+02  0.29794466960E+03  0.29867804802E+03  0.00000000000E+00 0. -1.
</event>
<event>
 4    1  0.6888348E+001  0.3283129E+02  0.7546771E-02  0.1396486E+00
          2   -1    0    0  502    0  0.00000000000E+00  0.00000000000E+00  0.41171624405E+03  0.41171624405E+03  0.00000000000E+00 0. -1.
         -2   -1    0    0    0  501 -0.00000000000E+00 -0.00000000000E+00 -0.28969343324E+01  0.28969343324E+01  0.00000000000E+00 0.  1.
          1    1    1    2  502    0  0.25509585344E+02 -0.20667727421E+02  0.14008825571E+03  0.14388402722E+03  0.00000000000E+00 0.  1.
         -1    1    1    2    0  501 -0.25509585344E+02  0.20667727421E+02  0.26873105401E+03  0.27072915116E+03  0.00000000000E+00 0. -1.
</event>
<event>
 4    1  0.6888348E+001  0.3041336E+02  0.7546771E-02  0.1416038E+00
          2   -1    0    0  502    0  0.00000000000E+00  0.00000000000E+00  0.80512191459E+03  0.80512191459E+03  0.00000000000E+00 0.  1.
         -2   -1    0    0    0  501 -0.00000000000E+00 -0.00000000000E+00 -0.14920719852E+01  0.14920719852E+01  0.00000000000E+00 0. -1.
          1    1    1    2  502    0  0.29518934990E+02  0.73215532692E+01  0.59524403842E+03  0.59602050127E+03  0.00000000000E+00 0.  1.
         -1    1    1    2    0  501 -0.29518934990E+02 -0.73215532692E+01  0.20838580419E+03  0.21059348530E+03  0.00000000000E+00 0. -1.
</event>
<event>
 4    1  0.6888348E+001  0.2601919E+02  0.7546771E-02  0.1457717E+00
          2   -1    0    0  502    0  0.00000000000E+00  0.00000000000E+00  0.59378993564E+03  0.59378993564E+03  0.00000000000E+00 0. -1.
         -2   -1    0    0    0  501 -0.00000000000E+00 -0.00000000000E+00 -0.12359475225E+01  0.12359475225E+01  0.00000000000E+00 0.  1.
          1    1    1    2  502    0  0.19272450625E+02  0.17480588594E+02  0.21343968516E+03  0.21501976080E+03  0.00000000000E+00 0.  1.
         -1    1    1    2    0  501 -0.19272450625E+02 -0.17480588594E+02  0.37911430296E+03  0.38000612237E+03  0.00000000000E+00 0. -1.
</event>
<event>
 4    1  0.6888348E+001  0.2760169E+02  0.7546771E-02  0.1441656E+00
          2   -1    0    0  502    0  0.00000000000E+00  0.00000000000E+00  0.43405960886E+03  0.43405960886E+03  0.00000000000E+00 0.  1.
         -2   -1    0    0    0  501 -0.00000000000E+00 -0.00000000000E+00 -0.19958777173E+01  0.19958777173E+01  0.00000000000E+00 0. -1.
          1    1    1    2  502    0  0.27460554063E+01 -0.27464746466E+02  0.29174653008E+03  0.29304929779E+03  0.00000000000E+00 0.  1.
         -1    1    1    2    0  501 -0.27460554063E+01  0.27464746466E+02  0.14031720106E+03  0.14300618879E+03  0.00000000000E+00 0. -1.
</event>
<event>
 4    1  0.6888348E+001  0.2120410E+02  0.7546771E-02  0.1516371E+00
          2   -1    0    0  502    0  0.00000000000E+00  0.00000000000E+00  0.36166075230E+03  0.36166075230E+03  0.00000000000E+00 0.  1.
         -2   -1    0    0    0  501 -0.00000000000E+00 -0.00000000000E+00 -0.17146250583E+01  0.17146250583E+01  0.00000000000E+00 0. -1.
          1    1    1    2  502    0 -0.20440404923E+02  0.56394810169E+01  0.27524187529E+03  0.27605742847E+03  0.00000000000E+00 0.  1.
         -1    1    1    2    0  501  0.20440404923E+02 -0.56394810169E+01  0.84704251947E+02  0.87317948885E+02  0.00000000000E+00 0. -1.
</event>
<event>
 4    1  0.6888348E+001  0.2632827E+02  0.7546771E-02  0.1454475E+00
          2   -1    0    0  502    0  0.00000000000E+00  0.00000000000E+00  0.23299974465E+01  0.23299974465E+01  0.00000000000E+00 0. -1.
         -2   -1    0    0    0  501 -0.00000000000E+00 -0.00000000000E+00 -0.29879441044E+03  0.29879441044E+03  0.00000000000E+00 0.  1.
          1    1    1    2  502    0 -0.81494810783E+01  0.25035245672E+02 -0.13832785525E+03  0.14081112565E+03  0.00000000000E+00 0. -1.
         -1    1    1    2    0  501  0.81494810783E+01 -0.25035245672E+02 -0.15813655774E+03  0.16031328224E+03  0.00000000000E+00 0.  1.
</event>
<event>
 4    1  0.6888348E+001  0.2898126E+02  0.7546771E-02  0.1428661E+00
          2   -1    0    0  502    0  0.00000000000E+00  0.00000000000E+00  0.42199350095E+01  0.42199350095E+01  0.00000000000E+00 0.  1.
         -2   -1    0    0    0  501 -0.00000000000E+00 -0.00000000000E+00 -0.24393507337E+03  0.24393507337E+03  0.00000000000E+00 0. -1.
          1    1    1    2  502    0 -0.19315004965E+02  0.21606567272E+02 -0.17309061089E+03  0.17550006480E+03  0.00000000000E+00 0. -1.
         -1    1    1    2    0  501  0.19315004965E+02 -0.21606567272E+02 -0.66624527470E+02  0.72654943580E+02  0.00000000000E+00 0.  1.
</event>
<event>
 4    1  0.6888348E+001  0.3727370E+02  0.7546771E-02  0.1365248E+00
          2   -1    0    0  502    0  0.00000000000E+00  0.00000000000E+00  0.35113415353E+03  0.35113415353E+03  0.00000000000E+00 0. -1.
         -2   -1    0    0    0  501 -0.00000000000E+00 -0.00000000000E+00 -0.39603298580E+01  0.39603298580E+01  0.00000000000E+00 0.  1.
          1    1    1    2  502    0 -0.26935966550E+01  0.37176240841E+02  0.16820296805E+03  0.17228339098E+03  0.00000000000E+00 0.  1.
         -1    1    1    2    0  501  0.26935966550E+01 -0.37176240841E+02  0.17897085562E+03  0.18281109240E+03  0.00000000000E+00 0. -1.
</event>
<event>
 4    1  0.6888348E+001  0.2571430E+02  0.7546771E-02  0.1460969E+00
          2   -1    0    0  502    0  0.00000000000E+00  0.00000000000E+00  0.26749075533E+01  0.26749075533E+01  0.00000000000E+00 0. -1.
         -2   -1    0    0    0  501 -0.00000000000E+00 -0.00000000000E+00 -0.33738516607E+03  0.33738516607E+03  0.00000000000E+00 0.  1.
          1    1    1    2  502    0  0.20585446482E+02  0.15409888318E+02 -0.79444597498E+02  0.83502510959E+02  0.00000000000E+00 0. -1.
         -1    1    1    2    0  501 -0.20585446482E+02 -0.15409888318E+02 -0.25526566102E+03  0.25655756267E+03  0.00000000000E+00 0.  1.
</event>
<event>
 4    1  0.6888348E+001  0.2000679E+02  0.7546771E-02  0.1533932E+00
          2   -1    0    0  502    0  0.00000000000E+00  0.00000000000E+00  0.29010873877E+02  0.29010873877E+02  0.00000000000E+00 0. -1.
         -2   -1    0    0    0  501 -0.00000000000E+00 -0.00000000000E+00 -0.17382862601E+02  0.17382862601E+02  0.00000000000E+00 0.  1.
          1    1    1    2  502    0  0.10328922573E+02  0.17134327239E+02 -0.47213012717E+01  0.20556324992E+02  0.00000000000E+00 0.  1.
         -1    1    1    2    0  501 -0.10328922573E+02 -0.17134327239E+02  0.16349312548E+02  0.25837411485E+02  0.00000000000E+00 0. -1.
</event>
<event>
 4    1  0.6888348E+001  0.2030724E+02  0.7546771E-02  0.1529390E+00
          2   -1    0    0  502    0  0.00000000000E+00  0.00000000000E+00  0.10604984825E+02  0.10604984825E+02  0.00000000000E+00 0. -1.
         -2   -1    0    0    0  501 -0.00000000000E+00 -0.00000000000E+00 -0.39059713050E+02  0.39059713050E+02  0.00000000000E+00 0.  1.
          1    1    1    2  502    0 -0.12619475289E+02 -0.15910144741E+02 -0.12570620205E+02  0.23883139547E+02  0.00000000000E+00 0.  1.
         -1    1    1    2    0  501  0.12619475289E+02  0.15910144741E+02 -0.15884108020E+02  0.25781558328E+02  0.00000000000E+00 0. -1.
</event>
<event>
 4    1  0.6888348E+001  0.2987193E+02  0.7546771E-02  0.1420713E+00
          2   -1    0    0  502    0  0.00000000000E+00  0.00000000000E+00  0.10070704696E+03  0.10070704696E+03  0.00000000000E+00 0. -1.
         -2   -1    0    0    0  501 -0.00000000000E+00 -0.00000000000E+00 -0.11015750170E+02  0.11015750170E+02  0.00000000000E+00 0.  1.
          1    1    1    2  502    0  0.27760152818E+02  0.11032060114E+02  0.20137741521E+02  0.36025838899E+02  0.00000000000E+00 0.  1.
         -1    1    1    2    0  501 -0.27760152818E+02 -0.11032060114E+02  0.69553555266E+02  0.75696958228E+02  0.00000000000E+00 0. -1.
</event>
<event>
 4    1  0.6888348E+001  0.3398026E+02  0.7546771E-02  0.1387877E+00
          2   -1    0    0  502    0  0.00000000000E+00  0.00000000000E+00  0.26446826171E+03  0.26446826171E+03  0.00000000000E+00 0. -1.
         -2   -1    0    0    0  501 -0.00000000000E+00 -0.00000000000E+00 -0.52768589753E+01  0.52768589753E+01  0.00000000000E+00 0.  1.
          1    1    1    2  502    0 -0.60956367369E+01  0.33429044426E+02  0.73559199908E+02  0.81028474560E+02  0.00000000000E+00 0.  1.
         -1    1    1    2    0  501  0.60956367369E+01 -0.33429044426E+02  0.18563220283E+03  0.18871664612E+03  0.00000000000E+00 0. -1.
</event>
<event>
 4    1  0.6888348E+001  0.2082375E+02  0.7546771E-02  0.1521796E+00
          2   -1    0    0  502    0  0.00000000000E+00  0.00000000000E+00  0.11305268651E+04  0.11305268651E+04  0.00000000000E+00 0. -1.
         -2   -1    0    0    0  501 -0.00000000000E+00 -0.00000000000E+00 -0.43475191647E+00  0.43475191647E+00  0.00000000000E+00 0.  1.
          1    1    1    2  502    0 -0.20354096839E+02 -0.43976537995E+01  0.37100938954E+03  0.37159332037E+03  0.00000000000E+00 0.  1.
         -1    1    1    2    0  501  0.20354096839E+02  0.43976537995E+01  0.75908272366E+03  0.75936829666E+03  0.00000000000E+00 0. -1.
</event>
<event>
 4    1  0.6888348E+001  0.4482273E+02  0.7546771E-02  0.1322328E+00
          2   -1    0    0  502    0  0.00000000000E+00  0.00000000000E+00  0.20981102560E+04  0.20981102560E+04  0.00000000000E+00 0. -1.
         -2   -1    0    0    0  501 -0.00000000000E+00 -0.00000000000E+00 -0.97567542425E+00  0.97567542425E+00  0.00000000000E+00 0.  1.
          1    1    1    2  502    0 -0.44820926304E+02 -0.40232168800E+00  0.90557591286E+03  0.90668451583E+03  0.00000000000E+00 0.  1.
         -1    1    1    2    0  501  0.44820926304E+02  0.40232168800E+00  0.11915586677E+04  0.11924014156E+04  0.00000000000E+00 0. -1.
</event>
<event>
 4    1  0.6888348E+001  0.3625701E+02  0.7546771E-02  0.1371935E+00
          2   -1    0    0  502    0  0.00000000000E+00  0.00000000000E+00  0.10555163002E+04  0.10555163002E+04  0.00000000000E+00 0.  1.
         -2   -1    0    0    0  501 -0.00000000000E+00 -0.00000000000E+00 -0.15493866363E+01  0.15493866363E+01  0.00000000000E+00 0. -1.
          1    1    1    2  502    0 -0.22556308070E+02  0.28386330940E+02  0.29288504586E+03  0.29512068871E+03  0.00000000000E+00 0.  1.
         -1    1    1    2    0  501  0.22556308070E+02 -0.28386330940E+02  0.76108186769E+03  0.76194499811E+03  0.00000000000E+00 0. -1.
</event>
<event>
 4    1  0.6888348E+001  0.2061415E+02  0.7546771E-02  0.1524846E+00
          2   -1    0    0  502    0  0.00000000000E+00  0.00000000000E+00  0.10136936468E+04  0.10136936468E+04  0.00000000000E+00 0.  1.
         -2   -1    0    0    0  501 -0.00000000000E+00 -0.00000000000E+00 -0.43808846851E+00  0.43808846851E+00  0.00000000000E+00 0. -1.
          1    1    1    2  502    0  0.12787768464E+02  0.16168366357E+02  0.61190902939E+03  0.61225615827E+03  0.00000000000E+00 0. -1.
         -1    1    1    2    0  501 -0.12787768464E+02 -0.16168366357E+02  0.40134652897E+03  0.40187557703E+03  0.00000000000E+00 0.  1.
</event>
<event>
 4    1  0.6888348E+001  0.2360837E+02  0.7546771E-02  0.1484997E+00
          2   -1    0    0  502    0  0.00000000000E+00  0.00000000000E+00  0.16559007583E+02  0.16559007583E+02  0.00000000000E+00 0. -1.
         -2   -1    0    0    0  501 -0.00000000000E+00 -0.00000000000E+00 -0.38171200391E+02  0.38171200391E+02  0.00000000000E+00 0.  1.
          1    1    1    2  502    0 -0.22311684975E+02 -0.77164803159E+01 -0.13972619871E+01  0.23649687016E+02  0.00000000000E+00 0. -1.
         -1    1    1    2    0  501  0.22311684975E+02  0.77164803159E+01 -0.20214930821E+02  0.31080520957E+02  0.00000000000E+00 0.  1.
</event>
<event>
 4    1  0.6888348E+001  0.2847140E+02  0.7546771E-02  0.1433362E+00
          2   -1    0    0  502    0  0.00000000000E+00  0.00000000000E+00  0.15574609966E+04  0.15574609966E+04  0.00000000000E+00 0. -1.
         -2   -1    0    0    0  501 -0.00000000000E+00 -0.00000000000E+00 -0.52324961770E+00  0.52324961770E+00  0.00000000000E+00 0.  1.
          1    1    1    2  502    0 -0.54211217248E+01 -0.27950530298E+02  0.72175095898E+03  0.72231230607E+03  0.00000000000E+00 0. -1.
         -1    1    1    2    0  501  0.54211217248E+01  0.27950530298E+02  0.83518678805E+03  0.83567194020E+03  0.00000000000E+00 0.  1.
</event>
<event>
 4    1  0.6888348E+001  0.2369535E+02  0.7546771E-02  0.1483946E+00
          2   -1    0    0  502    0  0.00000000000E+00  0.00000000000E+00  0.25714648018E+03  0.25714648018E+03  0.00000000000E+00 0.  1.
         -2   -1    0    0    0  501 -0.00000000000E+00 -0.00000000000E+00 -0.21848491048E+01  0.21848491048E+01  0.00000000000E+00 0. -1.
          1    1    1    2  502    0  0.21908690403E+02  0.90265740776E+01  0.12421452266E+03  0.12645440836E+03  0.00000000000E+00 0. -1.
         -1    1    1    2    0  501 -0.21908690403E+02 -0.90265740776E+01  0.13074710842E+03  0.13287692093E+03  0.00000000000E+00 0.  1.
</event>
<event>
 4    1  0.6888348E+001  0.2847398E+02  0.7546771E-02  0.1433338E+00
          2   -1    0    0  502    0  0.00000000000E+00  0.00000000000E+00  0.71439858378E+03  0.71439858378E+03  0.00000000000E+00 0.  1.
         -2   -1    0    0    0  501 -0.00000000000E+00 -0.00000000000E+00 -0.12051909506E+01  0.12051909506E+01  0.00000000000E+00 0. -1.
          1    1    1    2  502    0 -0.15069520533E+02 -0.24159408681E+02  0.44300976638E+03  0.44392389053E+03  0.00000000000E+00 0.  1.
         -1    1    1    2    0  501  0.15069520533E+02  0.24159408681E+02  0.27018362645E+03  0.27167988420E+03  0.00000000000E+00 0. -1.
</event>
<event>
 4    1  0.6888348E+001  0.2388668E+02  0.7546771E-02  0.1481654E+00
          2   -1    0    0  502    0  0.00000000000E+00  0.00000000000E+00  0.11670861204E+03  0.11670861204E+03  0.00000000000E+00 0. -1.
         -2   -1    0    0    0  501 -0.00000000000E+00 -0.00000000000E+00 -0.51470501201E+01  0.51470501201E+01  0.00000000000E+00 0.  1.
          1    1    1    2  502    0 -0.11635730985E+02  0.20861049170E+02  0.69426461821E+02  0.73420754621E+02  0.00000000000E+00 0.  1.
         -1    1    1    2    0  501  0.11635730985E+02 -0.20861049170E+02  0.42135100096E+02  0.48434907537E+02  0.00000000000E+00 0. -1.
</event>
<event>
 4    1  0.6888348E+001  0.2230917E+02  0.7546771E-02  0.1501360E+00
          2   -1    0    0  502    0  0.00000000000E+00  0.00000000000E+00  0.17552092264E+03  0.17552092264E+03  0.00000000000E+00 0. -1.
         -2   -1    0    0    0  501 -0.00000000000E+00 -0.00000000000E+00 -0.28570663040E+01  0.28570663040E+01  0.00000000000E+00 0.  1.
          1    1    1    2  502    0  0.21498205658E+02  0.59603875372E+01  0.78592767026E+02  0.81697748408E+02  0.00000000000E+00 0. -1.
         -1    1    1    2    0  501 -0.21498205658E+02 -0.59603875372E+01  0.94071089308E+02  0.96680240534E+02  0.00000000000E+00 0.  1.
</event>
<event>
 4    1  0.6888348E+001  0.1188222E+03  0.7546771E-02  0.1134679E+00
          2   -1    0    0  502    0  0.00000000000E+00  0.00000000000E+00  0.48893891658E+03  0.48893891658E+03  0.00000000000E+00 0. -1.
         -2   -1    0    0    0  501 -0.00000000000E+00 -0.00000000000E+00 -0.30437536526E+02  0.30437536526E+02  0.00000000000E+00 0.  1.
          1    1    1    2  502    0 -0.11866338342E+03 -0.61420930729E+01  0.17043565025E+03  0.20776677970E+03  0.00000000000E+00 0.  1.
         -1    1    1    2    0  501  0.11866338342E+03  0.61420930729E+01  0.28806572981E+03  0.31160967341E+03  0.00000000000E+00 0. -1.
</event>
<event>
 4    1  0.6888348E+001  0.5068481E+02  0.7546771E-02  0.1295230E+00
          2   -1    0    0  502    0  0.00000000000E+00  0.00000000000E+00  0.22489777644E+04  0.22489777644E+04  0.00000000000E+00 0. -1.
         -2   -1    0    0    0  501 -0.00000000000E+00 -0.00000000000E+00 -0.19554466481E+01  0.19554466481E+01  0.00000000000E+00 0.  1.
          1    1    1    2  502    0 -0.50196097905E+02  0.70215125330E+01  0.18492842854E+04  0.18499787345E+04  0.00000000000E+00 0. -1.
         -1    1    1    2    0  501  0.50196097905E+02 -0.70215125330E+01  0.39773803237E+03  0.40095447657E+03  0.00000000000E+00 0.  1.
</event>
<event>
 4    1  0.6888348E+001  0.2230733E+02  0.7546771E-02  0.1501384E+00
          2   -1    0    0  502    0  0.00000000000E+00  0.00000000000E+00  0.36130556620E+03  0.36130556620E+03  0.00000000000E+00 0.  1.
         -2   -1    0    0    0  501 -0.00000000000E+00 -0.00000000000E+00 -0.16956810200E+01  0.16956810200E+01  0.00000000000E+00 0. -1.
          1    1    1    2  502    0 -0.27959064550E+01  0.22131424883E+02  0.25845459305E+03  0.25941548475E+03  0.00000000000E+00 0.  1.
         -1    1    1    2    0  501  0.27959064550E+01 -0.22131424883E+02  0.10115529213E+03  0.10358576247E+03  0.00000000000E+00 0. -1.
</event>
<event>
 4    1  0.6888348E+001  0.2194507E+02  0.7546771E-02  0.1506188E+00
          2   -1    0    0  502    0  0.00000000000E+00  0.00000000000E+00  0.83873662285E+03  0.83873662285E+03  0.00000000000E+00 0. -1.
         -2   -1    0    0    0  501 -0.00000000000E+00 -0.00000000000E+00 -0.64818379233E+00  0.64818379233E+00  0.00000000000E+00 0.  1.
          1    1    1    2  502    0 -0.20569521959E+02  0.76472687723E+01  0.27723369754E+03  0.27810089717E+03  0.00000000000E+00 0.  1.
         -1    1    1    2    0  501  0.20569521959E+02 -0.76472687723E+01  0.56085474151E+03  0.56128390947E+03  0.00000000000E+00 0. -1.
</event>
<event>
 4    1  0.6888348E+001  0.4998452E+02  0.7546771E-02  0.1298240E+00
          2   -1    0    0  502    0  0.00000000000E+00  0.00000000000E+00  0.23385763677E+03  0.23385763677E+03  0.00000000000E+00 0.  1.
         -2   -1    0    0    0  501 -0.00000000000E+00 -0.00000000000E+00 -0.12488059877E+02  0.12488059877E+02  0.00000000000E+00 0. -1.
          1    1    1    2  502    0  0.48917887116E+02 -0.10270961909E+02  0.63864346459E+02  0.81099365516E+02  0.00000000000E+00 0. -1.
         -1    1    1    2    0  501 -0.48917887116E+02  0.10270961909E+02  0.15750523044E+03  0.16524633114E+03  0.00000000000E+00 0.  1.
</event>
<event>
 4    1  0.6888348E+001  0.3136513E+02  0.7546771E-02  0.1408093E+00
          2   -1    0    0  502    0  0.00000000000E+00  0.00000000000E+00  0.18385308327E+03  0.18385308327E+03  0.00000000000E+00 0.  1.
         -2   -1    0    0    0  501 -0.00000000000E+00 -0.00000000000E+00 -0.67845594133E+01  0.67845594133E+01  0.00000000000E+00 0. -1.
          1    1    1    2  502    0 -0.27212239964E+02  0.15596959933E+02  0.44716754226E+02  0.54620136136E+02  0.00000000000E+00 0. -1.
         -1    1    1    2    0  501  0.27212239964E+02 -0.15596959933E+02  0.13235176964E+03  0.13601750655E+03  0.00000000000E+00 0.  1.
</event>
<event>
 4    1  0.6888348E+001  0.2235813E+02  0.7546771E-02  0.1500719E+00
          2   -1    0    0  502    0  0.00000000000E+00  0.00000000000E+00  0.13891376093E+02  0.13891376093E+02  0.00000000000E+00 0.  1.
         -2   -1    0    0    0  501 -0.00000000000E+00 -0.00000000000E+00 -0.42637260242E+02  0.42637260242E+02  0.00000000000E+00 0. -1.
          1    1    1    2  502    0  0.58918950960E-01 -0.22358048239E+02 -0.32089988794E+01  0.22587241229E+02  0.00000000000E+00 0.  1.
         -1    1    1    2    0  501 -0.58918950960E-01  0.22358048239E+02 -0.25536885269E+02  0.33941395107E+02  0.00000000000E+00 0. -1.
</event>
<event>
 4    1  0.6888348E+001  0.2141627E+02  0.7546771E-02  0.1513404E+00
          2   -1    0    0  502    0  0.00000000000E+00  0.00000000000E+00  0.23070060178E+03  0.23070060178E+03  0.00000000000E+00 0. -1.
         -2   -1    0    0    0  501 -0.00000000000E+00 -0.00000000000E+00 -0.38631620322E+01  0.38631620322E+01  0.00000000000E+00 0.  1.
          1    1    1    2  502    0  0.22768576071E+01 -0.21294898357E+02  0.19512714260E+03  0.19629890105E+03  0.00000000000E+00 0. -1.
         -1    1    1    2    0  501 -0.22768576071E+01  0.21294898357E+02  0.31710297153E+02  0.38264862761E+02  0.00000000000E+00 0.  1.
</event>
<event>
 4    1  0.6888348E+001  0.2792773E+02  0.7546771E-02  0.1438505E+00
          2   -1    0    0  502    0  0.00000000000E+00  0.00000000000E+00  0.21970082139E+03  0.21970082139E+03  0.00000000000E+00 0. -1.
         -2   -1    0    0    0  501 -0.00000000000E+00 -0.00000000000E+00 -0.35756656832E+01  0.35756656832E+01  0.00000000000E+00 0.  1.
          1    1    1    2  502    0  0.23133992083E+02 -0.15645342364E+02  0.11750369729E+03  0.12077697298E+03  0.00000000000E+00 0.  1.
         -1    1    1    2    0  501 -0.23133992083E+02  0.15645342364E+02  0.98621458421E+02  0.10249951409E+03  0.00000000000E+00 0. -1.
</event>
<event>
 4    1  0.6888348E+001  0.2185013E+02  0.7546771E-02  0.1507465E+00
          2   -1    0    0  502    0  0.00000000000E+00  0.00000000000E+00  0.33853401160E+01  0.33853401160E+01  0.00000000000E+00 0. -1.
         -2   -1    0    0    0  501 -0.00000000000E+00 -0.00000000000E+00 -0.14341579096E+03  0.14341579096E+03  0.00000000000E+00 0.  1.
          1    1    1    2  502    0  0.19586840273E+02  0.96842159947E+01 -0.79485941281E+02  0.82434478301E+02  0.00000000000E+00 0.  1.
         -1    1    1    2    0  501 -0.19586840273E+02 -0.96842159947E+01 -0.60544509566E+02  0.64366652779E+02  0.00000000000E+00 0. -1.
</event>
<event>
 4    1  0.6888348E+001  0.2489390E+02  0.7546771E-02  0.1469994E+00
          2   -1    0    0  502    0  0.00000000000E+00  0.00000000000E+00  0.96724828348E+02  0.96724828348E+02  0.00000000000E+00 0. -1.
         -2   -1    0    0    0  501 -0.00000000000E+00 -0.00000000000E+00 -0.64451944389E+01  0.64451944389E+01  0.00000000000E+00 0.  1.
          1    1    1    2  502    0 -0.17471559400E+01 -0.24832513396E+02  0.41163555115E+02  0.48105556281E+02  0.00000000000E+00 0.  1.
         -1    1    1    2    0  501  0.17471559400E+01  0.24832513396E+02  0.49116078794E+02  0.55064466505E+02  0.00000000000E+00 0. -1.
</event>
<event>
 4    1  0.6888348E+001  0.2165984E+02  0.7546771E-02  0.1510049E+00
          2   -1    0    0  502    0  0.00000000000E+00  0.00000000000E+00  0.56609919725E+01  0.56609919725E+01  0.00000000000E+00 0.  1.
         -2   -1    0    0    0  501 -0.00000000000E+00 -0.00000000000E+00 -0.83420328241E+02  0.83420328241E+02  0.00000000000E+00 0. -1.
          1    1    1    2  502    0 -0.21978296632E+01  0.21548045293E+02 -0.42484385557E+02  0.47687228137E+02  0.00000000000E+00 0. -1.
         -1    1    1    2    0  501  0.21978296632E+01 -0.21548045293E+02 -0.35274950712E+02  0.41394092077E+02  0.00000000000E+00 0.  1.
</event>
<event>
 4    1  0.6888348E+001  0.2247234E+02  0.7546771E-02  0.1499232E+00
          2   -1    0    0  502    0  0.00000000000E+00  0.00000000000E+00  0.19228249366E+04  0.19228249366E+04  0.00000000000E+00 0.  1.
         -2   -1    0    0    0  501 -0.00000000000E+00 -0.00000000000E+00 -0.28871162975E+00  0.28871162975E+00  0.00000000000E+00 0. -1.
          1    1    1    2  502    0 -0.17484142947E+02 -0.14117750661E+02  0.67230204824E+03  0.67267752319E+03  0.00000000000E+00 0. -1.
         -1    1    1    2    0  501  0.17484142947E+02  0.14117750661E+02  0.12502341767E+04  0.12504361250E+04  0.00000000000E+00 0.  1.
</event>
<event>
 4    1  0.6888348E+001  0.3097036E+02  0.7546771E-02  0.1411347E+00
          2   -1    0    0  502    0  0.00000000000E+00  0.00000000000E+00  0.26333508954E+02  0.26333508954E+02  0.00000000000E+00 0. -1.
         -2   -1    0    0    0  501 -0.00000000000E+00 -0.00000000000E+00 -0.41199378052E+02  0.41199378052E+02  0.00000000000E+00 0.  1.
          1    1    1    2  502    0  0.10793452762E+02 -0.29028682169E+02  0.40633876101E+01  0.31235782844E+02  0.00000000000E+00 0.  1.
         -1    1    1    2    0  501 -0.10793452762E+02  0.29028682169E+02 -0.18929256709E+02  0.36297104162E+02  0.00000000000E+00 0. -1.
</event>
<event>
 4    1  0.6888348E+001  0.2469872E+02  0.7546771E-02  0.1472202E+00
          2   -1    0    0  502    0  0.00000000000E+00  0.00000000000E+00  0.14502408339E+04  0.14502408339E+04  0.00000000000E+00 0. -1.
         -2   -1    0    0    0  501 -0.00000000000E+00 -0.00000000000E+00 -0.44522722929E+00  0.44522722929E+00  0.00000000000E+00 0.  1.
          1    1    1    2  502    0 -0.22548490349E+02 -0.10079294691E+02  0.55443726434E+03  0.55498712299E+03  0.00000000000E+00 0.  1.
         -1    1    1    2    0  501  0.22548490349E+02  0.10079294691E+02  0.89535834229E+03  0.89569893810E+03  0.00000000000E+00 0. -1.
</event>
<event>
 4    1  0.6888348E+001  0.2789638E+02  0.7546771E-02  0.1438806E+00
          2   -1    0    0  502    0  0.00000000000E+00  0.00000000000E+00  0.43413493040E+03  0.43413493040E+03  0.00000000000E+00 0.  1.
         -2   -1    0    0    0  501 -0.00000000000E+00 -0.00000000000E+00 -0.24336123241E+01  0.24336123241E+01  0.00000000000E+00 0. -1.
          1    1    1    2  502    0 -0.27835403922E+02 -0.18435144754E+01  0.32788395580E+03  0.32906852892E+03  0.00000000000E+00 0.  1.
         -1    1    1    2    0  501  0.27835403922E+02  0.18435144754E+01  0.10381736228E+03  0.10750001380E+03  0.00000000000E+00 0. -1.
</event>
<event>
 4    1  0.6888348E+001  0.2668598E+02  0.7546771E-02  0.1450788E+00
          2   -1    0    0  502    0  0.00000000000E+00  0.00000000000E+00  0.11856653460E+04  0.11856653460E+04  0.00000000000E+00 0. -1.
         -2   -1    0    0    0  501 -0.00000000000E+00 -0.00000000000E+00 -0.13860735916E+01  0.13860735916E+01  0.00000000000E+00 0.  1.
          1    1    1    2  502    0 -0.20541569170E+02 -0.17034832197E+02  0.14534807111E+03  0.14777754684E+03  0.00000000000E+00 0.  1.
         -1    1    1    2    0  501  0.20541569170E+02  0.17034832197E+02  0.10389312013E+04  0.10392738728E+04  0.00000000000E+00 0. -1.
</event>
<event>
 4    1  0.6888348E+001  0.3841914E+02  0.7546771E-02  0.1358007E+00
          2   -1    0    0  502    0  0.00000000000E+00  0.00000000000E+00  0.10370483187E+03  0.10370483187E+03  0.00000000000E+00 0. -1.
         -2   -1    0    0    0  501 -0.00000000000E+00 -0.00000000000E+00 -0.18794413513E+02  0.18794413513E+02  0.00000000000E+00 0.  1.
          1    1    1    2  502    0 -0.37218024634E+02 -0.95314617369E+01  0.72629640650E+02  0.82165046226E+02  0.00000000000E+00 0. -1.
         -1    1    1    2    0  501  0.37218024634E+02  0.95314617369E+01  0.12280777708E+02  0.40334199157E+02  0.00000000000E+00 0.  1.
</event>
<event>
 4    1  0.6888348E+001  0.3206377E+02  0.7546771E-02  0.1402471E+00
          2   -1    0    0  502    0  0.00000000000E+00  0.00000000000E+00  0.10629939371E+02  0.10629939371E+02  0.00000000000E+00 0. -1.
         -2   -1    0    0    0  501 -0.00000000000E+00 -0.00000000000E+00 -0.12624765758E+03  0.12624765758E+03  0.00000000000E+00 0.  1.
          1    1    1    2  502    0  0.20406092619E+02  0.24732097733E+02 -0.90909361372E+02  0.96398118547E+02  0.00000000000E+00 0.  1.
         -1    1    1    2    0  501 -0.20406092619E+02 -0.24732097733E+02 -0.24708356832E+02  0.40479478400E+02  0.00000000000E+00 0. -1.
</event>
<event>
 4    1  0.6888348E+001  0.2036129E+02  0.7546771E-02  0.1528582E+00
          2   -1    0    0  502    0  0.00000000000E+00  0.00000000000E+00  0.13215163465E+04  0.13215163465E+04  0.00000000000E+00 0.  1.
         -2   -1    0    0    0  501 -0.00000000000E+00 -0.00000000000E+00 -0.45111643938E+00  0.45111643938E+00  0.00000000000E+00 0. -1.
          1    1    1    2  502    0  0.39068833160E+01 -0.19982954597E+02  0.29574604358E+03  0.29644612411E+03  0.00000000000E+00 0.  1.
         -1    1    1    2    0  501 -0.39068833160E+01  0.19982954597E+02  0.10253191864E+04  0.10255213388E+04  0.00000000000E+00 0. -1.
</event>
<event>
 4    1  0.6888348E+001  0.4380565E+02  0.7546771E-02  0.1327521E+00
          2   -1    0    0  502    0  0.00000000000E+00  0.00000000000E+00  0.30605249228E+03  0.30605249228E+03  0.00000000000E+00 0.  1.
         -2   -1    0    0    0  501 -0.00000000000E+00 -0.00000000000E+00 -0.64126892297E+01  0.64126892297E+01  0.00000000000E+00 0. -1.
          1    1    1    2  502    0  0.42641027327E+02 -0.10033811230E+02  0.17312867696E+03  0.17858463922E+03  0.00000000000E+00 0. -1.
         -1    1    1    2    0  501 -0.42641027327E+02  0.10033811230E+02  0.12651112610E+03  0.13388054230E+03  0.00000000000E+00 0.  1.
</event>
<event>
 4    1  0.6888348E+001  0.2965244E+02  0.7546771E-02  0.1422641E+00
          2   -1    0    0  502    0  0.00000000000E+00  0.00000000000E+00  0.21610876626E+03  0.21610876626E+03  0.00000000000E+00 0.  1.
         -2   -1    0    0    0  501 -0.00000000000E+00 -0.00000000000E+00 -0.41948160424E+01  0.41948160424E+01  0.00000000000E+00 0. -1.
          1    1    1    2  502    0 -0.27718424472E+02  0.10533566336E+02  0.12506153591E+03  0.12852880937E+03  0.00000000000E+00 0. -1.
         -1    1    1    2    0  501  0.27718424472E+02 -0.10533566336E+02  0.86852414310E+02  0.91774772930E+02  0.00000000000E+00 0.  1.
</event>
<event>
 4    1  0.6888348E+001  0.2812288E+02  0.7546771E-02  0.1436643E+00
          2   -1    0    0  502    0  0.00000000000E+00  0.00000000000E+00  0.42082419043E+00  0.42082419043E+00  0.00000000000E+00 0.  1.
         -2   -1    0    0    0  501 -0.00000000000E+00 -0.00000000000E+00 -0.20078903711E+04  0.20078903711E+04  0.00000000000E+00 0. -1.
          1    1    1    2  502    0 -0.78435991153E+01  0.27006928641E+02 -0.12577555771E+04  0.12580699456E+04  0.00000000000E+00 0. -1.
         -1    1    1    2    0  501  0.78435991153E+01 -0.27006928641E+02 -0.74971396979E+03  0.75024124969E+03  0.00000000000E+00 0.  1.
</event>
<event>
 4    1  0.6888348E+001  0.3674892E+02  0.7546771E-02  0.1368668E+00
          2   -1    0    0  502    0  0.00000000000E+00  0.00000000000E+00  0.69331868199E+03  0.69331868199E+03  0.00000000000E+00 0. -1.
         -2   -1    0    0    0  501 -0.00000000000E+00 -0.00000000000E+00 -0.19525553484E+01  0.19525553484E+01  0.00000000000E+00 0.  1.
          1    1    1    2  502    0  0.36681624353E+02  0.22229050311E+01  0.36274310846E+03  0.36459984313E+03  0.00000000000E+00 0. -1.
         -1    1    1    2    0  501 -0.36681624353E+02 -0.22229050311E+01  0.32862301818E+03  0.33067139421E+03  0.00000000000E+00 0.  1.
</event>
<event>
 4    1  0.6888348E+001  0.2376098E+02  0.7546771E-02  0.1483157E+00
          2   -1    0    0  502    0  0.00000000000E+00  0.00000000000E+00  0.38747606349E+03  0.38747606349E+03  0.00000000000E+00 0.  1.
         -2   -1    0    0    0  501 -0.00000000000E+00 -0.00000000000E+00 -0.24240077459E+01  0.24240077459E+01  0.00000000000E+00 0. -1.
          1    1    1    2  502    0  0.23262890933E+02  0.48396313868E+01  0.31565295370E+03  0.31654600188E+03  0.00000000000E+00 0.  1.
         -1    1    1    2    0  501 -0.23262890933E+02 -0.48396313868E+01  0.69399102041E+02  0.73354069353E+02  0.00000000000E+00 0. -1.
</event>
<event>
 4    1  0.6888348E+001  0.2743958E+02  0.7546771E-02  0.1443242E+00
          2   -1    0    0  502    0  0.00000000000E+00  0.00000000000E+00  0.58196585042E+03  0.58196585042E+03  0.00000000000E+00 0. -1.
         -2   -1    0    0    0  501 -0.00000000000E+00 -0.00000000000E+00 -0.13139542669E+01  0.13139542669E+01  0.00000000000E+00 0.  1.
          1    1    1    2  502    0 -0.27055167495E+02  0.45769431878E+01  0.25418052207E+03  0.25565732592E+03  0.00000000000E+00 0.  1.
         -1    1    1    2    0  501  0.27055167495E+02 -0.45769431878E+01  0.32647137408E+03  0.32762247877E+03  0.00000000000E+00 0. -1.
</event>
<event>
 4    1  0.6888348E+001  0.2316326E+02  0.7546771E-02  0.1490458E+00
          2   -1    0    0  502    0  0.00000000000E+00  0.00000000000E+00  0.82821262972E+03  0.82821262972E+03  0.00000000000E+00 0.  1.
         -2   -1    0    0    0  501 -0.00000000000E+00 -0.00000000000E+00 -0.84426466127E+00  0.84426466127E+00  0.00000000000E+00 0. -1.
          1    1    1    2  502    0 -0.21201077558E+02 -0.93301042673E+01  0.61363815569E+03  0.61407517671E+03  0.00000000000E+00 0.  1.
         -1    1    1    2    0  501  0.21201077558E+02  0.93301042673E+01  0.21373020937E+03  0.21498171767E+03  0.00000000000E+00 0. -1.
</event>
<event>
 4    1  0.6888348E+001  0.2269038E+02  0.7546771E-02  0.1496423E+00
          2   -1    0    0  502    0  0.00000000000E+00  0.00000000000E+00  0.67063209990E+03  0.67063209990E+03  0.00000000000E+00 0. -1.
         -2   -1    0    0    0  501 -0.00000000000E+00 -0.00000000000E+00 -0.89366313639E+00  0.89366313639E+00  0.00000000000E+00 0.  1.
          1    1    1    2  502    0  0.72452384369E+01  0.21502550038E+02  0.20881868742E+03  0.21004784539E+03  0.00000000000E+00 0.  1.
         -1    1    1    2    0  501 -0.72452384369E+01 -0.21502550038E+02  0.46091974935E+03  0.46147791765E+03  0.00000000000E+00 0. -1.
</event>
<event>
 4    1  0.6888348E+001  0.2513204E+02  0.7546771E-02  0.1467332E+00
          2   -1    0    0  502    0  0.00000000000E+00  0.00000000000E+00  0.63500477568E+02  0.63500477568E+02  0.00000000000E+00 0. -1.
         -2   -1    0    0    0  501 -0.00000000000E+00 -0.00000000000E+00 -0.13787462380E+02  0.13787462380E+02  0.00000000000E+00 0.  1.
          1    1    1    2  502    0 -0.85043350422E+01  0.23649437358E+02  0.45252686751E+02  0.51763165089E+02  0.00000000000E+00 0. -1.
         -1    1    1    2    0  501  0.85043350422E+01 -0.23649437358E+02  0.44603284372E+01  0.25524774859E+02  0.00000000000E+00 0.  1.
</event>
<event>
 4    1  0.6888348E+001  0.2539167E+02  0.7546771E-02  0.1464469E+00
          2   -1    0    0  502    0  0.00000000000E+00  0.00000000000E+00  0.87624500192E+03  0.87624500192E+03  0.00000000000E+00 0. -1.
         -2   -1    0    0    0  501 -0.00000000000E+00 -0.00000000000E+00 -0.77657406640E+00  0.77657406640E+00  0.00000000000E+00 0.  1.
          1    1    1    2  502    0  0.13899082971E+02  0.21249756382E+02  0.33724771678E+03  0.33820224589E+03  0.00000000000E+00 0.  1.
         -1    1    1    2    0  501 -0.13899082971E+02 -0.21249756382E+02  0.53822071108E+03  0.53881933010E+03  0.00000000000E+00 0. -1.
</event>
<event>
 4    1  0.6888348E+001  0.3237505E+02  0.7546771E-02  0.1400020E+00
          2   -1    0    0  502    0  0.00000000000E+00  0.00000000000E+00  0.75394981030E+01  0.75394981030E+01  0.00000000000E+00 0.  1.
         -2   -1    0    0    0  501 -0.00000000000E+00 -0.00000000000E+00 -0.31376115115E+03  0.31376115115E+03  0.00000000000E+00 0. -1.
          1    1    1    2  502    0 -0.29865547931E+00 -0.32373672264E+02 -0.27299977559E+03  0.27491275220E+03  0.00000000000E+00 0. -1.
         -1    1    1    2    0  501  0.29865547931E+00  0.32373672264E+02 -0.33221877453E+02  0.46387897048E+02  0.00000000000E+00 0.  1.
</event>
<event>
 4    1  0.6888348E+001  0.2242223E+02  0.7546771E-02  0.1499884E+00
          2   -1    0    0  502    0  0.00000000000E+00  0.00000000000E+00  0.18364393472E+04  0.18364393472E+04  0.00000000000E+00 0.  1.
         -2   -1    0    0    0  501 -0.00000000000E+00 -0.00000000000E+00 -0.27993819378E+00  0.27993819378E+00  0.00000000000E+00 0. -1.
          1    1    1    2  502    0 -0.19713881021E+02 -0.10682663538E+02  0.10544337238E+04  0.10546720980E+04  0.00000000000E+00 0.  1.
         -1    1    1    2    0  501  0.19713881021E+02  0.10682663538E+02  0.78172568521E+03  0.78204718740E+03  0.00000000000E+00 0. -1.
</event>
<event>
 4    1  0.6888348E+001  0.2245253E+02  0.7546771E-02  0.1499490E+00
          2   -1    0    0  502    0  0.00000000000E+00  0.00000000000E+00  0.67457808458E+02  0.67457808458E+02  0.00000000000E+00 0. -1.
         -2   -1    0    0    0  501 -0.00000000000E+00 -0.00000000000E+00 -0.89431904914E+01  0.89431904914E+01  0.00000000000E+00 0.  1.
          1    1    1    2  502    0 -0.17719605765E+02 -0.13788822595E+02  0.13769101210E+02  0.26338265037E+02  0.00000000000E+00 0.  1.
         -1    1    1    2    0  501  0.17719605765E+02  0.13788822595E+02  0.44745516757E+02  0.50062733913E+02  0.00000000000E+00 0. -1.
</event>
<event>
 4    1  0.6888348E+001  0.4658732E+02  0.7546771E-02  0.1313688E+00
          2   -1    0    0  502    0  0.00000000000E+00  0.00000000000E+00  0.67630958422E+01  0.67630958422E+01  0.00000000000E+00 0.  1.
         -2   -1    0    0    0  501 -0.00000000000E+00 -0.00000000000E+00 -0.32306500635E+03  0.32306500635E+03  0.00000000000E+00 0. -1.
          1    1    1    2  502    0  0.18011459735E+02 -0.42964699893E+02 -0.17160473375E+03  0.17781609254E+03  0.00000000000E+00 0. -1.
         -1    1    1    2    0  501 -0.18011459735E+02  0.42964699893E+02 -0.14469717675E+03  0.15201200966E+03  0.00000000000E+00 0.  1.
</event>
<event>
 4    1  0.6888348E+001  0.4014363E+02  0.7546771E-02  0.1347646E+00
          2   -1    0    0  502    0  0.00000000000E+00  0.00000000000E+00  0.20170079067E+02  0.20170079067E+02  0.00000000000E+00 0. -1.
         -2   -1    0    0    0  501 -0.00000000000E+00 -0.00000000000E+00 -0.11011440455E+03  0.11011440455E+03  0.00000000000E+00 0.  1.
          1    1    1    2  502    0  0.28305374104E+02  0.28466066811E+02 -0.79097385793E+02  0.88701226610E+02  0.00000000000E+00 0.  1.
         -1    1    1    2    0  501 -0.28305374104E+02 -0.28466066811E+02 -0.10846939695E+02  0.41583257011E+02  0.00000000000E+00 0. -1.
</event>
<event>
 4    1  0.6888348E+001  0.5184128E+02  0.7546771E-02  0.1290381E+00
          2   -1    0    0  502    0  0.00000000000E+00  0.00000000000E+00  0.29630862463E+03  0.29630862463E+03  0.00000000000E+00 0. -1.
         -2   -1    0    0    0  501 -0.00000000000E+00 -0.00000000000E+00 -0.94103175807E+01  0.94103175807E+01  0.00000000000E+00 0.  1.
          1    1    1    2  502    0  0.17116716164E+02 -0.48933998871E+02  0.17251845359E+03  0.18013921019E+03  0.00000000000E+00 0.  1.
         -1    1    1    2    0  501 -0.17116716164E+02  0.48933998871E+02  0.11437985346E+03  0.12557973203E+03  0.00000000000E+00 0. -1.
</event>
<event>
 4    1  0.6888348E+001  0.2742896E+02  0.7546771E-02  0.1443346E+00
          2   -1    0    0  502    0  0.00000000000E+00  0.00000000000E+00  0.30184835862E+03  0.30184835862E+03  0.00000000000E+00 0.  1.
         -2   -1    0    0    0  501 -0.00000000000E+00 -0.00000000000E+00 -0.25733348970E+01  0.25733348970E+01  0.00000000000E+00 0. -1.
          1    1    1    2  502    0 -0.22617398871E+02  0.15517775916E+02  0.12265537290E+03  0.12568487818E+03  0.00000000000E+00 0.  1.
         -1    1    1    2    0  501  0.22617398871E+02 -0.15517775916E+02  0.17661965082E+03  0.17873681534E+03  0.00000000000E+00 0. -1.
</event>
<event>
 4    1  0.6888348E+001  0.3389474E+02  0.7546771E-02  0.1388504E+00
          2   -1    0    0  502    0  0.00000000000E+00  0.00000000000E+00  0.20851187572E+03  0.20851187572E+03  0.00000000000E+00 0.  1.
         -2   -1    0    0    0  501 -0.00000000000E+00 -0.00000000000E+00 -0.65753098855E+01  0.65753098855E+01  0.00000000000E+00 0. -1.
          1    1    1    2  502    0 -0.22723137806E+02  0.25149801595E+02  0.57676021435E+02  0.66898258278E+02  0.00000000000E+00 0. -1.
         -1    1    1    2    0  501  0.22723137806E+02 -0.25149801595E+02  0.14426054440E+03  0.14818892733E+03  0.00000000000E+00 0.  1.
</event>
<event>
 4    1  0.6888348E+001  0.2654613E+02  0.7546771E-02  0.1452221E+00
          2   -1    0    0  502    0  0.00000000000E+00  0.00000000000E+00  0.22912862757E+04  0.22912862757E+04  0.00000000000E+00 0. -1.
         -2   -1    0    0    0  501 -0.00000000000E+00 -0.00000000000E+00 -0.35341992465E+00  0.35341992465E+00  0.00000000000E+00 0.  1.
          1    1    1    2  502    0  0.16002074690E+02  0.21180908502E+02  0.15582378884E+04  0.15584639919E+04  0.00000000000E+00 0.  1.
         -1    1    1    2    0  501 -0.16002074690E+02 -0.21180908502E+02  0.73269496739E+03  0.73317570372E+03  0.00000000000E+00 0. -1.
</event>
<event>
 4    1  0.6888348E+001  0.2026622E+02  0.7546771E-02  0.1530004E+00
          2   -1    0    0  502    0  0.00000000000E+00  0.00000000000E+00  0.88083452803E+03  0.88083452803E+03  0.00000000000E+00 0. -1.
         -2   -1    0    0    0  501 -0.00000000000E+00 -0.00000000000E+00 -0.80133319951E+00  0.80133319951E+00  0.00000000000E+00 0.  1.
          1    1    1    2  502    0  0.16418245967E+02 -0.11881115023E+02  0.72505705016E+03  0.72534022753E+03  0.00000000000E+00 0. -1.
         -1    1    1    2    0  501 -0.16418245967E+02  0.11881115023E+02  0.15497614467E+03  0.15629563369E+03  0.00000000000E+00 0.  1.
</event>
<event>
 4    1  0.6888348E+001  0.2810340E+02  0.7546771E-02  0.1436828E+00
          2   -1    0    0  502    0  0.00000000000E+00  0.00000000000E+00  0.73024916484E+03  0.73024916484E+03  0.00000000000E+00 0.  1.
         -2   -1    0    0    0  501 -0.00000000000E+00 -0.00000000000E+00 -0.32704664027E+01  0.32704664027E+01  0.00000000000E+00 0. -1.
          1    1    1    2  502    0  0.10580430360E+01 -0.28083479947E+02  0.66353783854E+03  0.66413271601E+03  0.00000000000E+00 0.  1.
         -1    1    1    2    0  501 -0.10580430360E+01  0.28083479947E+02  0.63440859899E+02  0.69386915234E+02  0.00000000000E+00 0. -1.
</event>
<event>
 4    1  0.6888348E+001  0.2929380E+02  0.7546771E-02  0.1425834E+00
          2   -1    0    0  502    0  0.00000000000E+00  0.00000000000E+00  0.29382682755E+03  0.29382682755E+03  0.00000000000E+00 0.  1.
         -2   -1    0    0    0  501 -0.00000000000E+00 -0.00000000000E+00 -0.31948147281E+01  0.31948147281E+01  0.00000000000E+00 0. -1.
          1    1    1    2  502    0 -0.55998477787E+01  0.28753582192E+02  0.18883160011E+03  0.19109029276E+03  0.00000000000E+00 0.  1.
         -1    1    1    2    0  501  0.55998477787E+01 -0.28753582192E+02  0.10180041271E+03  0.10593134952E+03  0.00000000000E+00 0. -1.
</event>
<event>
 4    1  0.6888348E+001  0.2409307E+02  0.7546771E-02  0.1479210E+00
          2   -1    0    0  502    0  0.00000000000E+00  0.00000000000E+00  0.20923892674E+04  0.20923892674E+04  0.00000000000E+00 0.  1.
         -2   -1    0    0    0  501 -0.00000000000E+00 -0.00000000000E+00 -0.51972790153E+00  0.51972790153E+00  0.00000000000E+00 0. -1.
          1    1    1    2  502    0 -0.10416908955E+02 -0.21724727932E+02  0.17604539785E+04  0.17606188362E+04  0.00000000000E+00 0.  1.
         -1    1    1    2    0  501  0.10416908955E+02  0.21724727932E+02  0.33141556103E+03  0.33229015918E+03  0.00000000000E+00 0. -1.
</event>
<event>
 4    1  0.6888348E+001  0.2081698E+02  0.7546771E-02  0.1521894E+00
          2   -1    0    0  502    0  0.00000000000E+00  0.00000000000E+00  0.86587430057E+03  0.86587430057E+03  0.00000000000E+00 0.  1.
         -2   -1    0    0    0  501 -0.00000000000E+00 -0.00000000000E+00 -0.50076153853E+00  0.50076153853E+00  0.00000000000E+00 0. -1.
          1    1    1    2  502    0  0.12824956221E+02  0.16397166018E+02  0.44308826039E+03  0.44357699788E+03  0.00000000000E+00 0.  1.
         -1    1    1    2    0  501 -0.12824956221E+02 -0.16397166018E+02  0.42228527864E+03  0.42279806423E+03  0.00000000000E+00 0. -1.
</event>
<event>
 4    1  0.6888348E+001  0.2119412E+02  0.7546771E-02  0.1516511E+00
          2   -1    0    0  502    0  0.00000000000E+00  0.00000000000E+00  0.79527946031E+02  0.79527946031E+02  0.00000000000E+00 0.  1.
         -2   -1    0    0    0  501 -0.00000000000E+00 -0.00000000000E+00 -0.57299117764E+01  0.57299117764E+01  0.00000000000E+00 0. -1.
          1    1    1    2  502    0 -0.20709819595E+02  0.45049074839E+01  0.31808793329E+02  0.38222900886E+02  0.00000000000E+00 0. -1.
         -1    1    1    2    0  501  0.20709819595E+02 -0.45049074839E+01  0.41989240926E+02  0.47034956922E+02  0.00000000000E+00 0.  1.
</event>
<event>
 4    1  0.6888348E+001  0.2013908E+02  0.7546771E-02  0.1531920E+00
          2   -1    0    0  502    0  0.00000000000E+00  0.00000000000E+00  0.26339354269E+03  0.26339354269E+03  0.00000000000E+00 0.  1.
         -2   -1    0    0    0  501 -0.00000000000E+00 -0.00000000000E+00 -0.45462875173E+01  0.45462875173E+01  0.00000000000E+00 0. -1.
          1    1    1    2  502    0 -0.12275648881E+02  0.15965303912E+02  0.20478944903E+02  0.28722285230E+02  0.00000000000E+00 0. -1.
         -1    1    1    2    0  501  0.12275648881E+02 -0.15965303912E+02  0.23836831027E+03  0.23921754498E+03  0.00000000000E+00 0.  1.
</event>
<event>
 4    1  0.6888348E+001  0.2608173E+02  0.7546771E-02  0.1457057E+00
          2   -1    0    0  502    0  0.00000000000E+00  0.00000000000E+00  0.48293381922E+03  0.48293381922E+03  0.00000000000E+00 0. -1.
         -2   -1    0    0    0  501 -0.00000000000E+00 -0.00000000000E+00 -0.29545962533E+01  0.29545962533E+01  0.00000000000E+00 0.  1.
          1    1    1    2  502    0  0.24911268635E+02  0.77256195756E+01  0.41572647921E+03  0.41654382965E+03  0.00000000000E+00 0. -1.
         -1    1    1    2    0  501 -0.24911268635E+02 -0.77256195756E+01  0.64252743760E+02  0.69344585827E+02  0.00000000000E+00 0.  1.
</event>
<event>
 4    1  0.6888348E+001  0.2441590E+02  0.7546771E-02  0.1475445E+00
          2   -1    0    0  502    0  0.00000000000E+00  0.00000000000E+00  0.80559368924E+03  0.80559368924E+03  0.00000000000E+00 0. -1.
         -2   -1    0    0    0  501 -0.00000000000E+00 -0.00000000000E+00 -0.95852227780E+00  0.95852227780E+00  0.00000000000E+00 0.  1.
          1    1    1    2  502    0 -0.21607701547E+02 -0.11368535828E+02  0.20976342957E+03  0.21117962202E+03  0.00000000000E+00 0.  1.
         -1    1    1    2    0  501  0.21607701547E+02  0.11368535828E+02  0.59487173739E+03  0.59537258950E+03  0.00000000000E+00 0. -1.
</event>
<event>
 4    1  0.6888348E+001  0.2168469E+02  0.7546771E-02  0.1509710E+00
          2   -1    0    0  502    0  0.00000000000E+00  0.00000000000E+00  0.95476615758E+03  0.95476615758E+03  0.00000000000E+00 0.  1.
         -2   -1    0    0    0  501 -0.00000000000E+00 -0.00000000000E+00 -0.51621120878E+00  0.51621120878E+00  0.00000000000E+00 0. -1.
          1    1    1    2  502    0 -0.20450822453E+02 -0.72103742786E+01  0.37476428236E+03  0.37539111999E+03  0.00000000000E+00 0. -1.
         -1    1    1    2    0  501  0.20450822453E+02  0.72103742786E+01  0.57948566401E+03  0.57989124880E+03  0.00000000000E+00 0.  1.
</event>
<event>
 4    1  0.6888348E+001  0.2985893E+02  0.7546771E-02  0.1420826E+00
          2   -1    0    0  502    0  0.00000000000E+00  0.00000000000E+00  0.32584471780E+02  0.32584471780E+02  0.00000000000E+00 0. -1.
         -2   -1    0    0    0  501 -0.00000000000E+00 -0.00000000000E+00 -0.40782681235E+02  0.40782681235E+02  0.00000000000E+00 0.  1.
          1    1    1    2  502    0  0.14350220550E+02  0.26184477858E+02 -0.25143250247E+02  0.39035096304E+02  0.00000000000E+00 0.  1.
         -1    1    1    2    0  501 -0.14350220550E+02 -0.26184477858E+02  0.16945040792E+02  0.34332056710E+02  0.00000000000E+00 0. -1.
</event>
<event>
 4    1  0.6888348E+001  0.2468465E+02  0.7546771E-02  0.1472362E+00
          2   -1    0    0  502    0  0.00000000000E+00  0.00000000000E+00  0.68610468118E+03  0.68610468118E+03  0.00000000000E+00 0. -1.
         -2   -1    0    0    0  501 -0.00000000000E+00 -0.00000000000E+00 -0.11192331844E+01  0.11192331844E+01  0.00000000000E+00 0.  1.
          1    1    1    2  502    0  0.22106790665E+01  0.24585464392E+02  0.18634502871E+03  0.18797287540E+03  0.00000000000E+00 0. -1.
         -1    1    1    2    0  501 -0.22106790665E+01 -0.24585464392E+02  0.49864041929E+03  0.49925103897E+03  0.00000000000E+00 0.  1.
</event>
<event>
 4    1  0.6888348E+001  0.2870359E+02  0.7546771E-02  0.1431207E+00
          2   -1    0    0  502    0  0.00000000000E+00  0.00000000000E+00  0.50168259456E+01  0.50168259456E+01  0.00000000000E+00 0.  1.
         -2   -1    0    0    0  501 -0.00000000000E+00 -0.00000000000E+00 -0.17042402551E+03  0.17042402551E+03  0.00000000000E+00 0. -1.
          1    1    1    2  502    0  0.25726751910E+02 -0.12729114928E+02 -0.65975680018E+02  0.71949193772E+02  0.00000000000E+00 0.  1.
         -1    1    1    2    0  501 -0.25726751910E+02  0.12729114928E+02 -0.99431519546E+02  0.10349165768E+03  0.00000000000E+00 0. -1.
</event>
<event>
 4    1  0.6888348E+001  0.2151511E+02  0.7546771E-02  0.1512036E+00
          2   -1    0    0  502    0  0.00000000000E+00  0.00000000000E+00  0.20804471152E+04  0.20804471152E+04  0.00000000000E+00 0.  1.
         -2   -1    0    0    0  501 -0.00000000000E+00 -0.00000000000E+00 -0.22251342711E+00  0.22251342711E+00  0.00000000000E+00 0. -1.
          1    1    1    2  502    0  0.20955660626E+02  0.48744485631E+01  0.10321003359E+04  0.10323245630E+04  0.00000000000E+00 0.  1.
         -1    1    1    2    0  501 -0.20955660626E+02 -0.48744485631E+01  0.10481242659E+04  0.10483450657E+04  0.00000000000E+00 0. -1.
</event>
<event>
 4    1  0.6888348E+001  0.4779246E+02  0.7546771E-02  0.1308038E+00
          2   -1    0    0  502    0  0.00000000000E+00  0.00000000000E+00  0.19510312223E+03  0.19510312223E+03  0.00000000000E+00 0.  1.
         -2   -1    0    0    0  501 -0.00000000000E+00 -0.00000000000E+00 -0.14852634339E+02  0.14852634339E+02  0.00000000000E+00 0. -1.
          1    1    1    2  502    0  0.37608586914E+02 -0.29490901145E+02  0.41815626023E+02  0.63503272670E+02  0.00000000000E+00 0. -1.
         -1    1    1    2    0  501 -0.37608586914E+02  0.29490901145E+02  0.13843486187E+03  0.14645248390E+03  0.00000000000E+00 0.  1.
</event>
<event>
 4    1  0.6888348E+001  0.2401421E+02  0.7546771E-02  0.1480141E+00
          2   -1    0    0  502    0  0.00000000000E+00  0.00000000000E+00  0.21134749356E+04  0.21134749356E+04  0.00000000000E+00 0.  1.
         -2   -1    0    0    0  501 -0.00000000000E+00 -0.00000000000E+00 -0.35916839417E+00  0.35916839417E+00  0.00000000000E+00 0. -1.
          1    1    1    2  502    0 -0.23088535878E+02  0.66031653109E+01  0.15746642746E+04  0.15748473768E+04  0.00000000000E+00 0.  1.
         -1    1    1    2    0  501  0.23088535878E+02 -0.66031653109E+01  0.53845149254E+03  0.53898672720E+03  0.00000000000E+00 0. -1.
</event>
<event>
 4    1  0.6888348E+001  0.3070132E+02  0.7546771E-02  0.1413598E+00
          2   -1    0    0  502    0  0.00000000000E+00  0.00000000000E+00  0.28032027774E+04  0.28032027774E+04  0.00000000000E+00 0. -1.
         -2   -1    0    0    0  501 -0.00000000000E+00 -0.00000000000E+00 -0.41613665126E+00  0.41613665126E+00  0.00000000000E+00 0.  1.
          1    1    1    2  502    0  0.26431689888E+02 -0.15618470157E+02  0.20155992693E+04  0.20158330747E+04  0.00000000000E+00 0.  1.
         -1    1    1    2    0  501 -0.26431689888E+02  0.15618470157E+02  0.78718737152E+03  0.78778583938E+03  0.00000000000E+00 0. -1.
</event>
<event>
 4    1  0.6888348E+001  0.2143102E+02  0.7546771E-02  0.1513199E+00
          2   -1    0    0  502    0  0.00000000000E+00  0.00000000000E+00  0.69090797132E+03  0.69090797132E+03  0.00000000000E+00 0. -1.
         -2   -1    0    0    0  501 -0.00000000000E+00 -0.00000000000E+00 -0.21763622022E+01  0.21763622022E+01  0.00000000000E+00 0.  1.
          1    1    1    2  502    0  0.22161675342E+01  0.21316125350E+02  0.63317374478E+03  0.63353632862E+03  0.00000000000E+00 0. -1.
         -1    1    1    2    0  501 -0.22161675342E+01 -0.21316125350E+02  0.55557864340E+02  0.59548004907E+02  0.00000000000E+00 0.  1.
</event>
<event>
 4    1  0.6888348E+001  0.2257699E+02  0.7546771E-02  0.1497879E+00
          2   -1    0    0  502    0  0.00000000000E+00  0.00000000000E+00  0.13277106895E+03  0.13277106895E+03  0.00000000000E+00 0. -1.
         -2   -1    0    0    0  501 -0.00000000000E+00 -0.00000000000E+00 -0.60293974360E+01  0.60293974360E+01  0.00000000000E+00 0.  1.
          1    1    1    2  502    0  0.22207616964E+02  0.40671979620E+01  0.21541948366E+02  0.31205382387E+02  0.00000000000E+00 0.  1.
         -1    1    1    2    0  501 -0.22207616964E+02 -0.40671979620E+01  0.10519972315E+03  0.10759508400E+03  0.00000000000E+00 0. -1.
</event>
<event>
 4    1  0.6888348E+001  0.7051241E+02  0.7546771E-02  0.1227771E+00
          2   -1    0    0  502    0  0.00000000000E+00  0.00000000000E+00  0.34520713745E+03  0.34520713745E+03  0.00000000000E+00 0.  1.
         -2   -1    0    0    0  501 -0.00000000000E+00 -0.00000000000E+00 -0.16915863706E+02  0.16915863706E+02  0.00000000000E+00 0. -1.
          1    1    1    2  502    0 -0.22662986953E+01  0.70475984526E+02  0.94359690341E+02  0.11779538049E+03  0.00000000000E+00 0. -1.
         -1    1    1    2    0  501  0.22662986953E+01 -0.70475984526E+02  0.23393158340E+03  0.24432762066E+03  0.00000000000E+00 0.  1.
</event>
<event>
 4    1  0.6888348E+001  0.3030939E+02  0.7546771E-02  0.1416926E+00
          2   -1    0    0  502    0  0.00000000000E+00  0.00000000000E+00  0.18224035169E+04  0.18224035169E+04  0.00000000000E+00 0.  1.
         -2   -1    0    0    0  501 -0.00000000000E+00 -0.00000000000E+00 -0.65942768569E+00  0.65942768569E+00  0.00000000000E+00 0. -1.
          1    1    1    2  502    0  0.30195305428E+02  0.26272880417E+01  0.46846336508E+03  0.46944284374E+03  0.00000000000E+00 0. -1.
         -1    1    1    2    0  501 -0.30195305428E+02 -0.26272880417E+01  0.13532807241E+04  0.13536201008E+04  0.00000000000E+00 0.  1.
</event>
<event>
 4    1  0.6888348E+001  0.2992927E+02  0.7546771E-02  0.1420212E+00
          2   -1    0    0  502    0  0.00000000000E+00  0.00000000000E+00  0.19374730811E+02  0.19374730811E+02  0.00000000000E+00 0.  1.
         -2   -1    0    0    0  501 -0.00000000000E+00 -0.00000000000E+00 -0.53784748423E+02  0.53784748423E+02  0.00000000000E+00 0. -1.
          1    1    1    2  502    0 -0.27606937941E+02  0.11559334036E+02 -0.30911332953E+02  0.43026407365E+02  0.00000000000E+00 0.  1.
         -1    1    1    2    0  501  0.27606937941E+02 -0.11559334036E+02 -0.34986846591E+01  0.30133071868E+02  0.00000000000E+00 0. -1.
</event>
<event>
 4    1  0.6888348E+001  0.4035912E+02  0.7546771E-02  0.1346394E+00
          2   -1    0    0  502    0  0.00000000000E+00  0.00000000000E+00  0.21815171936E+04  0.21815171936E+04  0.00000000000E+00 0.  1.
         -2   -1    0    0    0  501 -0.00000000000E+00 -0.00000000000E+00 -0.75583836656E+00  0.75583836656E+00  0.00000000000E+00 0. -1.
          1    1    1    2  502    0  0.36748478137E+02  0.16685551759E+02  0.12106002382E+04  0.12112727996E+04  0.00000000000E+00 0.  1.
         -1    1    1    2    0  501 -0.36748478137E+02 -0.16685551759E+02  0.97016111708E+03  0.97100023243E+03  0.00000000000E+00 0. -1.
</event>
<event>
 4    1  0.6888348E+001  0.2115477E+02  0.7546771E-02  0.1517067E+00
          2   -1    0    0  502    0  0.00000000000E+00  0.00000000000E+00  0.12964602662E+04  0.12964602662E+04  0.00000000000E+00 0.  1.
         -2   -1    0    0    0  501 -0.00000000000E+00 -0.00000000000E+00 -0.39317444272E+00  0.39317444272E+00  0.00000000000E+00 0. -1.
          1    1    1    2  502    0  0.79293014926E+01 -0.19612503253E+02  0.42150547448E+03  0.42203600454E+03  0.00000000000E+00 0.  1.
         -1    1    1    2    0  501 -0.79293014926E+01  0.19612503253E+02  0.87456161728E+03  0.87481743612E+03  0.00000000000E+00 0. -1.
</event>
<event>
 4    1  0.6888348E+001  0.2235984E+02  0.7546771E-02  0.1500697E+00
          2   -1    0    0  502    0  0.00000000000E+00  0.00000000000E+00  0.18969663275E+01  0.18969663275E+01  0.00000000000E+00 0. -1.
         -2   -1    0    0    0  501 -0.00000000000E+00 -0.00000000000E+00 -0.27694487611E+03  0.27694487611E+03  0.00000000000E+00 0.  1.
          1    1    1    2  502    0 -0.13872871325E+02  0.17535847235E+02 -0.10687221584E+03  0.10918623089E+03  0.00000000000E+00 0. -1.
         -1    1    1    2    0  501  0.13872871325E+02 -0.17535847235E+02 -0.16817569394E+03  0.16965561155E+03  0.00000000000E+00 0.  1.
</event>
<event>
 4    1  0.6888348E+001  0.2450671E+02  0.7546771E-02  0.1474398E+00
          2   -1    0    0  502    0  0.00000000000E+00  0.00000000000E+00  0.85422886596E+03  0.85422886596E+03  0.00000000000E+00 0.  1.
         -2   -1    0    0    0  501 -0.00000000000E+00 -0.00000000000E+00 -0.86171283155E+00  0.86171283155E+00  0.00000000000E+00 0. -1.
          1    1    1    2  502    0  0.11198033025E+02 -0.21798685359E+02  0.61013351932E+03  0.61062549080E+03  0.00000000000E+00 0.  1.
         -1    1    1    2    0  501 -0.11198033025E+02  0.21798685359E+02  0.24323363381E+03  0.24446508798E+03  0.00000000000E+00 0. -1.
</event>
<event>
 4    1  0.6888348E+001  0.2479211E+02  0.7546771E-02  0.1471143E+00
          2   -1    0    0  502    0  0.00000000000E+00  0.00000000000E+00  0.12049495204E+04  0.12049495204E+04  0.00000000000E+00 0. -1.
         -2   -1    0    0    0  501 -0.00000000000E+00 -0.00000000000E+00 -0.51442668229E+00  0.51442668229E+00  0.00000000000E+00 0.  1.
          1    1    1    2  502    0  0.23783873652E+02  0.69982796595E+01  0.65747375566E+03  0.65794102163E+03  0.00000000000E+00 0. -1.
         -1    1    1    2    0  501 -0.23783873652E+02 -0.69982796595E+01  0.54696133805E+03  0.54752292544E+03  0.00000000000E+00 0.  1.
</event>
<event>
 4    1  0.6888348E+001  0.2687968E+02  0.7546771E-02  0.1448820E+00
          2   -1    0    0  502    0  0.00000000000E+00  0.00000000000E+00  0.40854210354E+01  0.40854210354E+01  0.00000000000E+00 0.  1.
         -2   -1    0    0    0  501 -0.00000000000E+00 -0.00000000000E+00 -0.18529790787E+03  0.18529790787E+03  0.00000000000E+00 0. -1.
          1    1    1    2  502    0  0.19058215862E+02 -0.18955259450E+02 -0.70390790426E+02  0.75348396329E+02  0.00000000000E+00 0.  1.
         -1    1    1    2    0  501 -0.19058215862E+02  0.18955259450E+02 -0.11082169641E+03  0.11403493257E+03  0.00000000000E+00 0. -1.
</event>
<event>
 4    1  0.6888348E+001  0.2912460E+02  0.7546771E-02  0.1427359E+00
          2   -1    0    0  502    0  0.00000000000E+00  0.00000000000E+00  0.38433273949E+02  0.38433273949E+02  0.00000000000E+00 0.  1.
         -2   -1    0    0    0  501 -0.00000000000E+00 -0.00000000000E+00 -0.22072816859E+02  0.22072816859E+02  0.00000000000E+00 0. -1.
          1    1    1    2  502    0 -0.21956459181E+02  0.19135216545E+02  0.78720938068E+01  0.30169727756E+02  0.00000000000E+00 0. -1.
         -1    1    1    2    0  501  0.21956459181E+02 -0.19135216545E+02  0.84883632825E+01  0.30336363052E+02  0.00000000000E+00 0.  1.
</event>
<event>
 4    1  0.6888348E+001  0.2238491E+02  0.7546771E-02  0.1500370E+00
          2   -1    0    0  502    0  0.00000000000E+00  0.00000000000E+00  0.32535157226E+02  0.32535157226E+02  0.00000000000E+00 0. -1.
         -2   -1    0    0    0  501 -0.00000000000E+00 -0.00000000000E+00 -0.16487910992E+02  0.16487910992E+02  0.00000000000E+00 0.  1.
          1    1    1    2  502    0  0.16784466671E+02  0.14811005566E+02  0.17311450319E+01  0.22451749830E+02  0.00000000000E+00 0.  1.
         -1    1    1    2    0  501 -0.16784466671E+02 -0.14811005566E+02  0.14316101202E+02  0.26571318389E+02  0.00000000000E+00 0. -1.
</event>
<event>
 4    1  0.6888348E+001  0.2376531E+02  0.7546771E-02  0.1483105E+00
          2   -1    0    0  502    0  0.00000000000E+00  0.00000000000E+00  0.82062565543E+02  0.82062565543E+02  0.00000000000E+00 0.  1.
         -2   -1    0    0    0  501 -0.00000000000E+00 -0.00000000000E+00 -0.80548136726E+01  0.80548136726E+01  0.00000000000E+00 0. -1.
          1    1    1    2  502    0  0.23041553711E+02 -0.58203719011E+01  0.54194258650E+02  0.59176072843E+02  0.00000000000E+00 0.  1.
         -1    1    1    2    0  501 -0.23041553711E+02  0.58203719011E+01  0.19813493220E+02  0.30941306373E+02  0.00000000000E+00 0. -1.
</event>
<event>
 4    1  0.6888348E+001  0.2358504E+02  0.7546771E-02  0.1485280E+00
          2   -1    0    0  502    0  0.00000000000E+00  0.00000000000E+00  0.99827926581E+01  0.99827926581E+01  0.00000000000E+00 0. -1.
         -2   -1    0    0    0  501 -0.00000000000E+00 -0.00000000000E+00 -0.57090102525E+02  0.57090102525E+02  0.00000000000E+00 0.  1.
          1    1    1    2  502    0  0.10489732055E+02  0.21123916655E+02 -0.18360818082E+02  0.29889362223E+02  0.00000000000E+00 0. -1.
         -1    1    1    2    0  501 -0.10489732055E+02 -0.21123916655E+02 -0.28746491785E+02  0.37183532960E+02  0.00000000000E+00 0.  1.
</event>
<event>
 4    1  0.6888348E+001  0.3031750E+02  0.7546771E-02  0.1416857E+00
          2   -1    0    0  502    0  0.00000000000E+00  0.00000000000E+00  0.13643288165E+04  0.13643288165E+04  0.00000000000E+00 0. -1.
         -2   -1    0    0    0  501 -0.00000000000E+00 -0.00000000000E+00 -0.71822255973E+00  0.71822255973E+00  0.00000000000E+00 0.  1.
          1    1    1    2  502    0 -0.28995866636E+02 -0.88538411209E+01  0.51187556768E+03  0.51277260806E+03  0.00000000000E+00 0.  1.
         -1    1    1    2    0  501  0.28995866636E+02  0.88538411209E+01  0.85173502624E+03  0.85227443098E+03  0.00000000000E+00 0. -1.
</event>
<event>
 4    1  0.6888348E+001  0.2159031E+02  0.7546771E-02  0.1511001E+00
          2   -1    0    0  502    0  0.00000000000E+00  0.00000000000E+00  0.24653837152E+03  0.24653837152E+03  0.00000000000E+00 0.  1.
         -2   -1    0    0    0  501 -0.00000000000E+00 -0.00000000000E+00 -0.19529030693E+01  0.19529030693E+01  0.00000000000E+00 0. -1.
          1    1    1    2  502    0  0.20482672954E+02 -0.68265329440E+01  0.14445866734E+03  0.14606316446E+03  0.00000000000E+00 0.  1.
         -1    1    1    2    0  501 -0.20482672954E+02  0.68265329440E+01  0.10012680111E+03  0.10242811013E+03  0.00000000000E+00 0. -1.
</event>
<event>
 4    1  0.6888348E+001  0.2314005E+02  0.7546771E-02  0.1490747E+00
          2   -1    0    0  502    0  0.00000000000E+00  0.00000000000E+00  0.20773925038E+04  0.20773925038E+04  0.00000000000E+00 0.  1.
         -2   -1    0    0    0  501 -0.00000000000E+00 -0.00000000000E+00 -0.44460090293E+00  0.44460090293E+00  0.00000000000E+00 0. -1.
          1    1    1    2  502    0 -0.13018205958E+02 -0.19130815246E+02  0.17119717460E+04  0.17121281263E+04  0.00000000000E+00 0.  1.
         -1    1    1    2    0  501  0.13018205958E+02  0.19130815246E+02  0.36497615689E+03  0.36570897839E+03  0.00000000000E+00 0. -1.
</event>
<event>
 4    1  0.6888348E+001  0.2010787E+02  0.7546771E-02  0.1532393E+00
          2   -1    0    0  502    0  0.00000000000E+00  0.00000000000E+00  0.15200358930E+04  0.15200358930E+04  0.00000000000E+00 0. -1.
         -2   -1    0    0    0  501 -0.00000000000E+00 -0.00000000000E+00 -0.26602822797E+00  0.26602822797E+00  0.00000000000E+00 0.  1.
          1    1    1    2  502    0 -0.18135215273E+02  0.86856397259E+01  0.75176995991E+03  0.75203882811E+03  0.00000000000E+00 0.  1.
         -1    1    1    2    0  501  0.18135215273E+02 -0.86856397259E+01  0.76799990483E+03  0.76826309308E+03  0.00000000000E+00 0. -1.
</event>
<event>
 4    1  0.6888348E+001  0.3239606E+02  0.7546771E-02  0.1399856E+00
          2   -1    0    0  502    0  0.00000000000E+00  0.00000000000E+00  0.44282862077E+01  0.44282862077E+01  0.00000000000E+00 0. -1.
         -2   -1    0    0    0  501 -0.00000000000E+00 -0.00000000000E+00 -0.30508794518E+03  0.30508794518E+03  0.00000000000E+00 0.  1.
          1    1    1    2  502    0  0.30977210403E+02  0.94824710757E+01 -0.22343958130E+03  0.22577588736E+03  0.00000000000E+00 0.  1.
         -1    1    1    2    0  501 -0.30977210403E+02 -0.94824710757E+01 -0.77220077678E+02  0.83740344032E+02  0.00000000000E+00 0. -1.
</event>
<event>
 4    1  0.6888348E+001  0.2184961E+02  0.7546771E-02  0.1507472E+00
          2   -1    0    0  502    0  0.00000000000E+00  0.00000000000E+00  0.12354904234E+04  0.12354904234E+04  0.00000000000E+00 0.  1.
         -2   -1    0    0    0  501 -0.00000000000E+00 -0.00000000000E+00 -0.13966816079E+01  0.13966816079E+01  0.00000000000E+00 0. -1.
          1    1    1    2  502    0 -0.13161600439E+02 -0.17440686513E+02  0.11430284498E+04  0.11432372643E+04  0.00000000000E+00 0.  1.
         -1    1    1    2    0  501  0.13161600439E+02  0.17440686513E+02  0.91065292006E+02  0.93649840792E+02  0.00000000000E+00 0. -1.
</event>
<event>
 4    1  0.6888348E+001  0.3003065E+02  0.7546771E-02  0.1419330E+00
          2   -1    0    0  502    0  0.00000000000E+00  0.00000000000E+00  0.19883756939E+02  0.19883756939E+02  0.00000000000E+00 0.  1.
         -2   -1    0    0    0  501 -0.00000000000E+00 -0.00000000000E+00 -0.53168262339E+02  0.53168262339E+02  0.00000000000E+00 0. -1.
          1    1    1    2  502    0  0.28592167584E+02  0.91830082296E+01 -0.30643785357E+02  0.42905492286E+02  0.00000000000E+00 0.  1.
         -1    1    1    2    0  501 -0.28592167584E+02 -0.91830082296E+01 -0.26407200437E+01  0.30146526992E+02  0.00000000000E+00 0. -1.
</event>
<event>
 4    1  0.6888348E+001  0.3270760E+02  0.7546771E-02  0.1397438E+00
          2   -1    0    0  502    0  0.00000000000E+00  0.00000000000E+00  0.92790914285E+02  0.92790914285E+02  0.00000000000E+00 0.  1.
         -2   -1    0    0    0  501 -0.00000000000E+00 -0.00000000000E+00 -0.11635602662E+02  0.11635602662E+02  0.00000000000E+00 0. -1.
          1    1    1    2  502    0 -0.32702582933E+02 -0.57269055886E+00  0.45575243349E+02  0.56097145304E+02  0.00000000000E+00 0.  1.
         -1    1    1    2    0  501  0.32702582933E+02  0.57269055886E+00  0.35580068274E+02  0.48329371642E+02  0.00000000000E+00 0. -1.
</event>
<event>
 4    1  0.6888348E+001  0.2310155E+02  0.7546771E-02  0.1491227E+00
          2   -1    0    0  502    0  0.00000000000E+00  0.00000000000E+00  0.35458867376E+03  0.35458867376E+03  0.00000000000E+00 0.  1.
         -2   -1    0    0    0  501 -0.00000000000E+00 -0.00000000000E+00 -0.16498403857E+01  0.16498403857E+01  0.00000000000E+00 0. -1.
          1    1    1    2  502    0  0.20490181617E+02 -0.10669307881E+02  0.12370684243E+03  0.12584539935E+03  0.00000000000E+00 0. -1.
         -1    1    1    2    0  501 -0.20490181617E+02  0.10669307881E+02  0.22923199095E+03  0.23039311480E+03  0.00000000000E+00 0.  1.
</event>
<event>
 4    1  0.6888348E+001  0.2153584E+02  0.7546771E-02  0.1511750E+00
          2   -1    0    0  502    0  0.00000000000E+00  0.00000000000E+00  0.18053785748E+03  0.18053785748E+03  0.00000000000E+00 0.  1.
         -2   -1    0    0    0  501 -0.00000000000E+00 -0.00000000000E+00 -0.26262683244E+01  0.26262683244E+01  0.00000000000E+00 0. -1.
          1    1    1    2  502    0 -0.11547731810E+02 -0.18178069758E+02  0.75425850954E+02  0.78440112967E+02  0.00000000000E+00 0.  1.
         -1    1    1    2    0  501  0.11547731810E+02  0.18178069758E+02  0.10248573820E+03  0.10472401283E+03  0.00000000000E+00 0. -1.
</event>
<event>
 4    1  0.6888348E+001  0.2170840E+02  0.7546771E-02  0.1509386E+00
          2   -1    0    0  502    0  0.00000000000E+00  0.00000000000E+00  0.17616000302E+04  0.17616000302E+04  0.00000000000E+00 0. -1.
         -2   -1    0    0    0  501 -0.00000000000E+00 -0.00000000000E+00 -0.35159350290E+00  0.35159350290E+00  0.00000000000E+00 0.  1.
          1    1    1    2  502    0 -0.12228022172E+02 -0.17936839317E+02  0.44981438178E+03  0.45033790956E+03  0.00000000000E+00 0.  1.
         -1    1    1    2    0  501  0.12228022172E+02  0.17936839317E+02  0.13114340549E+04  0.13116137142E+04  0.00000000000E+00 0. -1.
</event>
<event>
 4    1  0.6888348E+001  0.2004909E+02  0.7546771E-02  0.1533287E+00
          2   -1    0    0  502    0  0.00000000000E+00  0.00000000000E+00  0.18541269647E+03  0.18541269647E+03  0.00000000000E+00 0.  1.
         -2   -1    0    0    0  501 -0.00000000000E+00 -0.00000000000E+00 -0.43145087952E+01  0.43145087952E+01  0.00000000000E+00 0. -1.
          1    1    1    2  502    0  0.96848660343E+00  0.20025687886E+02  0.23636948523E+02  0.30994700791E+02  0.00000000000E+00 0. -1.
         -1    1    1    2    0  501 -0.96848660343E+00 -0.20025687886E+02  0.15746123915E+03  0.15873250447E+03  0.00000000000E+00 0.  1.
</event>
<event>
 4    1  0.6888348E+001  0.3253865E+02  0.7546771E-02  0.1398745E+00
          2   -1    0    0  502    0  0.00000000000E+00  0.00000000000E+00  0.81082956727E+03  0.81082956727E+03  0.00000000000E+00 0. -1.
         -2   -1    0    0    0  501 -0.00000000000E+00 -0.00000000000E+00 -0.13077169246E+01  0.13077169246E+01  0.00000000000E+00 0.  1.
          1    1    1    2  502    0  0.23679825227E+02 -0.22316574602E+02  0.38912608424E+03  0.39048415212E+03  0.00000000000E+00 0. -1.
         -1    1    1    2    0  501 -0.23679825227E+02  0.22316574602E+02  0.42039576611E+03  0.42165313207E+03  0.00000000000E+00 0.  1.
</event>
<event>
 4    1  0.6888348E+001  0.6571568E+02  0.7546771E-02  0.1241559E+00
          2   -1    0    0  502    0  0.00000000000E+00  0.00000000000E+00  0.18637930596E+03  0.18637930596E+03  0.00000000000E+00 0. -1.
         -2   -1    0    0    0  501 -0.00000000000E+00 -0.00000000000E+00 -0.25751108822E+02  0.25751108822E+02  0.00000000000E+00 0.  1.
          1    1    1    2  502    0  0.53552926964E+02  0.38087193857E+02  0.46739245697E+02  0.80641846523E+02  0.00000000000E+00 0. -1.
         -1    1    1    2    0  501 -0.53552926964E+02 -0.38087193857E+02  0.11388895145E+03  0.13148856826E+03  0.00000000000E+00 0.  1.
</event>
<event>
 4    1  0.6888348E+001  0.2291965E+02  0.7546771E-02  0.1493510E+00
          2   -1    0    0  502    0  0.00000000000E+00  0.00000000000E+00  0.51239148298E+02  0.51239148298E+02  0.00000000000E+00 0. -1.
         -2   -1    0    0    0  501 -0.00000000000E+00 -0.00000000000E+00 -0.14827565046E+02  0.14827565046E+02  0.00000000000E+00 0.  1.
          1    1    1    2  502    0 -0.85929625359E+01 -0.21247853907E+02  0.36555707836E+02  0.43146611410E+02  0.00000000000E+00 0. -1.
         -1    1    1    2    0  501  0.85929625359E+01  0.21247853907E+02 -0.14412458370E+00  0.22920101935E+02  0.00000000000E+00 0.  1.
</event>
<event>
 4    1  0.6888348E+001  0.2147618E+02  0.7546771E-02  0.1512574E+00
          2   -1    0    0  502    0  0.00000000000E+00  0.00000000000E+00  0.40724282326E+02  0.40724282326E+02  0.00000000000E+00 0.  1.
         -2   -1    0    0    0  501 -0.00000000000E+00 -0.00000000000E+00 -0.13416783940E+02  0.13416783940E+02  0.00000000000E+00 0. -1.
          1    1    1    2  502    0  0.21323899807E+02  0.25529806028E+01  0.29663990876E+01  0.21680081561E+02  0.00000000000E+00 0. -1.
         -1    1    1    2    0  501 -0.21323899807E+02 -0.25529806028E+01  0.24341099298E+02  0.32460984705E+02  0.00000000000E+00 0.  1.
</event>
<event>
 4    1  0.6888348E+001  0.3082932E+02  0.7546771E-02  0.1412524E+00
          2   -1    0    0  502    0  0.00000000000E+00  0.00000000000E+00  0.10736701735E+02  0.10736701735E+02  0.00000000000E+00 0.  1.
         -2   -1    0    0    0  501 -0.00000000000E+00 -0.00000000000E+00 -0.91529892524E+02  0.91529892524E+02  0.00000000000E+00 0. -1.
          1    1    1    2  502    0  0.12814095615E+02 -0.28040073094E+02 -0.31128940504E+02  0.43811615840E+02  0.00000000000E+00 0. -1.
         -1    1    1    2    0  501 -0.12814095615E+02  0.28040073094E+02 -0.49664250285E+02  0.58454978419E+02  0.00000000000E+00 0.  1.
</event>
<event>
 4    1  0.6888348E+001  0.3135048E+02  0.7546771E-02  0.1408213E+00
          2   -1    0    0  502    0  0.00000000000E+00  0.00000000000E+00  0.10521916698E+03  0.10521916698E+03  0.00000000000E+00 0. -1.
         -2   -1    0    0    0  501 -0.00000000000E+00 -0.00000000000E+00 -0.93412538531E+01  0.93412538531E+01  0.00000000000E+00 0.  1.
          1    1    1    2  502    0 -0.14573156144E+02 -0.27757442450E+02  0.48236143871E+02  0.57528932433E+02  0.00000000000E+00 0. -1.
         -1    1    1    2    0  501  0.14573156144E+02  0.27757442450E+02  0.47641769261E+02  0.57031488405E+02  0.00000000000E+00 0.  1.
</event>
<event>
 4    1  0.6888348E+001  0.2522470E+02  0.7546771E-02  0.1466305E+00
          2   -1    0    0  502    0  0.00000000000E+00  0.00000000000E+00  0.49612729894E+01  0.49612729894E+01  0.00000000000E+00 0. -1.
         -2   -1    0    0    0  501 -0.00000000000E+00 -0.00000000000E+00 -0.16099555194E+03  0.16099555194E+03  0.00000000000E+00 0.  1.
          1    1    1    2  502    0  0.12829315871E+02 -0.21718525220E+02 -0.11543949345E+03  0.11816328674E+03  0.00000000000E+00 0.  1.
         -1    1    1    2    0  501 -0.12829315871E+02  0.21718525220E+02 -0.40594785493E+02  0.47793538189E+02  0.00000000000E+00 0. -1.
</event>
<event>
 4    1  0.6888348E+001  0.3523512E+02  0.7546771E-02  0.1378918E+00
          2   -1    0    0  502    0  0.00000000000E+00  0.00000000000E+00  0.72979132205E+02  0.72979132205E+02  0.00000000000E+00 0.  1.
         -2   -1    0    0    0  501 -0.00000000000E+00 -0.00000000000E+00 -0.22599382294E+02  0.22599382294E+02  0.00000000000E+00 0. -1.
          1    1    1    2  502    0 -0.13559087142E+02  0.32521756608E+02  0.48952268480E+02  0.60314493170E+02  0.00000000000E+00 0.  1.
         -1    1    1    2    0  501  0.13559087142E+02 -0.32521756608E+02  0.14274814314E+01  0.35264021328E+02  0.00000000000E+00 0. -1.
</event>
<event>
 4    1  0.6888348E+001  0.4403310E+02  0.7546771E-02  0.1326345E+00
          2   -1    0    0  502    0  0.00000000000E+00  0.00000000000E+00  0.47239224224E+03  0.47239224224E+03  0.00000000000E+00 0. -1.
         -2   -1    0    0    0  501 -0.00000000000E+00 -0.00000000000E+00 -0.41723450371E+01  0.41723450371E+01  0.00000000000E+00 0.  1.
          1    1    1    2  502    0 -0.32250773145E+02  0.29980020614E+02  0.26450450846E+03  0.26814464194E+03  0.00000000000E+00 0. -1.
         -1    1    1    2    0  501  0.32250773145E+02 -0.29980020614E+02  0.20371538874E+03  0.20841994534E+03  0.00000000000E+00 0.  1.
</event>
<event>
 4    1  0.6888348E+001  0.2944139E+02  0.7546771E-02  0.1424514E+00
          2   -1    0    0  502    0  0.00000000000E+00  0.00000000000E+00  0.18031100420E+03  0.18031100420E+03  0.00000000000E+00 0.  1.
         -2   -1    0    0    0  501 -0.00000000000E+00 -0.00000000000E+00 -0.11026046515E+02  0.11026046515E+02  0.00000000000E+00 0. -1.
          1    1    1    2  502    0  0.67972892030E+01 -0.28645987468E+02  0.12794727119E+02  0.32101413997E+02  0.00000000000E+00 0. -1.
         -1    1    1    2    0  501 -0.67972892030E+01  0.28645987468E+02  0.15649023057E+03  0.15923563672E+03  0.00000000000E+00 0.  1.
</event>
<event>
 4    1  0.6888348E+001  0.2104320E+02  0.7546771E-02  0.1518649E+00
          2   -1    0    0  502    0  0.00000000000E+00  0.00000000000E+00  0.42696852187E+03  0.42696852187E+03  0.00000000000E+00 0.  1.
         -2   -1    0    0    0  501 -0.00000000000E+00 -0.00000000000E+00 -0.12709965433E+01  0.12709965433E+01  0.00000000000E+00 0. -1.
          1    1    1    2  502    0  0.21042999470E+02 -0.91556033675E-01  0.12099839379E+03  0.12281460626E+03  0.00000000000E+00 0. -1.
         -1    1    1    2    0  501 -0.21042999470E+02  0.91556033675E-01  0.30469913153E+03  0.30542491216E+03  0.00000000000E+00 0.  1.
</event>
<event>
 4    1  0.6888348E+001  0.2926797E+02  0.7546771E-02  0.1426066E+00
          2   -1    0    0  502    0  0.00000000000E+00  0.00000000000E+00  0.35143938633E+02  0.35143938633E+02  0.00000000000E+00 0.  1.
         -2   -1    0    0    0  501 -0.00000000000E+00 -0.00000000000E+00 -0.32657697352E+02  0.32657697352E+02  0.00000000000E+00 0. -1.
          1    1    1    2  502    0  0.26398287376E+02 -0.12639008724E+02 -0.15830190512E+02  0.33274750931E+02  0.00000000000E+00 0. -1.
         -1    1    1    2    0  501 -0.26398287376E+02  0.12639008724E+02  0.18316431793E+02  0.34526885054E+02  0.00000000000E+00 0.  1.
</event>
<event>
 4    1  0.6888348E+001  0.2591065E+02  0.7546771E-02  0.1458869E+00
          2   -1    0    0  502    0  0.00000000000E+00  0.00000000000E+00  0.68265914236E+02  0.68265914236E+02  0.00000000000E+00 0.  1.
         -2   -1    0    0    0  501 -0.00000000000E+00 -0.00000000000E+00 -0.16307237416E+02  0.16307237416E+02  0.00000000000E+00 0. -1.
          1    1    1    2  502    0  0.80395206654E+01  0.24631847152E+02 -0.66199734581E+00  0.25919105446E+02  0.00000000000E+00 0. -1.
         -1    1    1    2    0  501 -0.80395206654E+01 -0.24631847152E+02  0.52620674166E+02  0.58654046206E+02  0.00000000000E+00 0.  1.
</event>
<event>
 4    1  0.6888348E+001  0.4450104E+02  0.7546771E-02  0.1323953E+00
          2   -1    0    0  502    0  0.00000000000E+00  0.00000000000E+00  0.64489487507E+03  0.64489487507E+03  0.00000000000E+00 0.  1.
         -2   -1    0    0    0  501 -0.00000000000E+00 -0.00000000000E+00 -0.31945943505E+01  0.31945943505E+01  0.00000000000E+00 0. -1.
          1    1    1    2  502    0 -0.26483638948E+02 -0.35762545165E+02  0.25706072118E+03  0.26088418339E+03  0.00000000000E+00 0. -1.
         -1    1    1    2    0  501  0.26483638948E+02  0.35762545165E+02  0.38463955954E+03  0.38720528603E+03  0.00000000000E+00 0.  1.
</event>
<event>
 4    1  0.6888348E+001  0.2311747E+02  0.7546771E-02  0.1491028E+00
          2   -1    0    0  502    0  0.00000000000E+00  0.00000000000E+00  0.29333857253E+03  0.29333857253E+03  0.00000000000E+00 0. -1.
         -2   -1    0    0    0  501 -0.00000000000E+00 -0.00000000000E+00 -0.18382519782E+01  0.18382519782E+01  0.00000000000E+00 0.  1.
          1    1    1    2  502    0 -0.14932521308E+02  0.17647584462E+02  0.15969338464E+03  0.16135797014E+03  0.00000000000E+00 0.  1.
         -1    1    1    2    0  501  0.14932521308E+02 -0.17647584462E+02  0.13180693592E+03  0.13381885438E+03  0.00000000000E+00 0. -1.
</event>
<event>
 4    1  0.6888348E+001  0.3082420E+02  0.7546771E-02  0.1412567E+00
          2   -1    0    0  502    0  0.00000000000E+00  0.00000000000E+00  0.21348175899E+03  0.21348175899E+03  0.00000000000E+00 0. -1.
         -2   -1    0    0    0  501 -0.00000000000E+00 -0.00000000000E+00 -0.48491864623E+01  0.48491864623E+01  0.00000000000E+00 0.  1.
          1    1    1    2  502    0 -0.17642436074E+02  0.25275987243E+02  0.13561227952E+03  0.13907128186E+03  0.00000000000E+00 0. -1.
         -1    1    1    2    0  501  0.17642436074E+02 -0.25275987243E+02  0.73020293010E+02  0.79259663594E+02  0.00000000000E+00 0.  1.
</event>
<event>
 4    1  0.6888348E+001  0.3441120E+02  0.7546771E-02  0.1384750E+00
          2   -1    0    0  502    0  0.00000000000E+00  0.00000000000E+00  0.90167562721E+00  0.90167562721E+00  0.00000000000E+00 0. -1.
         -2   -1    0    0    0  501 -0.00000000000E+00 -0.00000000000E+00 -0.13811256438E+04  0.13811256438E+04  0.00000000000E+00 0.  1.
          1    1    1    2  502    0 -0.91405524183E+01 -0.33175007231E+02 -0.53692979787E+03  0.53803135471E+03  0.00000000000E+00 0. -1.
         -1    1    1    2    0  501  0.91405524183E+01  0.33175007231E+02 -0.84329417026E+03  0.84399596468E+03  0.00000000000E+00 0.  1.
</event>
<event>
 4    1  0.6888348E+001  0.2014104E+02  0.7546771E-02  0.1531891E+00
          2   -1    0    0  502    0  0.00000000000E+00  0.00000000000E+00  0.71272807982E+01  0.71272807982E+01  0.00000000000E+00 0.  1.
         -2   -1    0    0    0  501 -0.00000000000E+00 -0.00000000000E+00 -0.70556751407E+02  0.70556751407E+02  0.00000000000E+00 0. -1.
          1    1    1    2  502    0 -0.18484197834E+02 -0.79997458532E+01 -0.14636616444E+02  0.24897631297E+02  0.00000000000E+00 0.  1.
         -1    1    1    2    0  501  0.18484197834E+02  0.79997458532E+01 -0.48792854165E+02  0.52786400908E+02  0.00000000000E+00 0. -1.
</event>
<event>
 4    1  0.6888348E+001  0.1020788E+03  0.7546771E-02  0.1160254E+00
          2   -1    0    0  502    0  0.00000000000E+00  0.00000000000E+00  0.24970741759E+04  0.24970741759E+04  0.00000000000E+00 0.  1.
         -2   -1    0    0    0  501 -0.00000000000E+00 -0.00000000000E+00 -0.41752036277E+01  0.41752036277E+01  0.00000000000E+00 0. -1.
          1    1    1    2  502    0 -0.41423330488E+02 -0.93296264076E+02  0.12757120820E+04  0.12797895926E+04  0.00000000000E+00 0. -1.
         -1    1    1    2    0  501  0.41423330488E+02  0.93296264076E+02  0.12171868903E+04  0.12214597869E+04  0.00000000000E+00 0.  1.
</event>
<event>
 4    1  0.6888348E+001  0.2161606E+02  0.7546771E-02  0.1510648E+00
          2   -1    0    0  502    0  0.00000000000E+00  0.00000000000E+00  0.35502675001E+02  0.35502675001E+02  0.00000000000E+00 0. -1.
         -2   -1    0    0    0  501 -0.00000000000E+00 -0.00000000000E+00 -0.13881261929E+02  0.13881261929E+02  0.00000000000E+00 0.  1.
          1    1    1    2  502    0 -0.21598691383E+02  0.86643223503E+00  0.51865550203E+01  0.22229586755E+02  0.00000000000E+00 0.  1.
         -1    1    1    2    0  501  0.21598691383E+02 -0.86643223503E+00  0.16434858051E+02  0.27154350175E+02  0.00000000000E+00 0. -1.
</event>
<event>
 4    1  0.6888348E+001  0.2780612E+02  0.7546771E-02  0.1439674E+00
          2   -1    0    0  502    0  0.00000000000E+00  0.00000000000E+00  0.17445426146E+03  0.17445426146E+03  0.00000000000E+00 0. -1.
         -2   -1    0    0    0  501 -0.00000000000E+00 -0.00000000000E+00 -0.45331593715E+01  0.45331593715E+01  0.00000000000E+00 0.  1.
          1    1    1    2  502    0 -0.27730150427E+02 -0.20540285079E+01  0.98329815693E+02  0.10218577655E+03  0.00000000000E+00 0. -1.
         -1    1    1    2    0  501  0.27730150427E+02  0.20540285079E+01  0.71591286392E+02  0.76801644273E+02  0.00000000000E+00 0.  1.
</event>
<event>
 4    1  0.6888348E+001  0.2203339E+02  0.7546771E-02  0.1505006E+00
          2   -1    0    0  502    0  0.00000000000E+00  0.00000000000E+00  0.16007600618E+04  0.16007600618E+04  0.00000000000E+00 0. -1.
         -2   -1    0    0    0  501 -0.00000000000E+00 -0.00000000000E+00 -0.32958677461E+00  0.32958677461E+00  0.00000000000E+00 0.  1.
          1    1    1    2  502    0  0.16646510045E+02 -0.14434818471E+02  0.10264071149E+04  0.10266435777E+04  0.00000000000E+00 0. -1.
         -1    1    1    2    0  501 -0.16646510045E+02  0.14434818471E+02  0.57402336019E+03  0.57444607086E+03  0.00000000000E+00 0.  1.
</event>
<event>
 4    1  0.6888348E+001  0.5461472E+02  0.7546771E-02  0.1279316E+00
          2   -1    0    0  502    0  0.00000000000E+00  0.00000000000E+00  0.25669213679E+04  0.25669213679E+04  0.00000000000E+00 0. -1.
         -2   -1    0    0    0  501 -0.00000000000E+00 -0.00000000000E+00 -0.12480568167E+01  0.12480568167E+01  0.00000000000E+00 0.  1.
          1    1    1    2  502    0  0.21647989701E+02 -0.50141127112E+02  0.16200181816E+04  0.16209385173E+04  0.00000000000E+00 0. -1.
         -1    1    1    2    0  501 -0.21647989701E+02  0.50141127112E+02  0.94565512952E+03  0.94723090747E+03  0.00000000000E+00 0.  1.
</event>
<event>
 4    1  0.6888348E+001  0.2243887E+02  0.7546771E-02  0.1499667E+00
          2   -1    0    0  502    0  0.00000000000E+00  0.00000000000E+00  0.57470697560E+01  0.57470697560E+01  0.00000000000E+00 0.  1.
         -2   -1    0    0    0  501 -0.00000000000E+00 -0.00000000000E+00 -0.13207311759E+03  0.13207311759E+03  0.00000000000E+00 0. -1.
          1    1    1    2  502    0 -0.40444683330E+01 -0.22071365088E+02 -0.10314587842E+03  0.10555839671E+03  0.00000000000E+00 0. -1.
         -1    1    1    2    0  501  0.40444683330E+01  0.22071365088E+02 -0.23180169413E+02  0.32261790635E+02  0.00000000000E+00 0.  1.
</event>
<event>
 4    1  0.6888348E+001  0.2707229E+02  0.7546771E-02  0.1446883E+00
          2   -1    0    0  502    0  0.00000000000E+00  0.00000000000E+00  0.11683376407E+03  0.11683376407E+03  0.00000000000E+00 0.  1.
         -2   -1    0    0    0  501 -0.00000000000E+00 -0.00000000000E+00 -0.64377864925E+01  0.64377864925E+01  0.00000000000E+00 0. -1.
          1    1    1    2  502    0 -0.25380160666E+02 -0.94210544520E+01  0.65056369018E+02  0.70464458929E+02  0.00000000000E+00 0.  1.
         -1    1    1    2    0  501  0.25380160666E+02  0.94210544520E+01  0.45339608559E+02  0.52807091633E+02  0.00000000000E+00 0. -1.
</event>
<event>
 4    1  0.6888348E+001  0.2010608E+02  0.7546771E-02  0.1532420E+00
          2   -1    0    0  502    0  0.00000000000E+00  0.00000000000E+00  0.20167133019E+01  0.20167133019E+01  0.00000000000E+00 0. -1.
         -2   -1    0    0    0  501 -0.00000000000E+00 -0.00000000000E+00 -0.20083497723E+03  0.20083497723E+03  0.00000000000E+00 0.  1.
          1    1    1    2  502    0  0.74834139529E+01  0.18661542279E+02 -0.10383699889E+03  0.10576567016E+03  0.00000000000E+00 0.  1.
         -1    1    1    2    0  501 -0.74834139529E+01 -0.18661542279E+02 -0.94981265036E+02  0.97086020376E+02  0.00000000000E+00 0. -1.
</event>
<event>
 4    1  0.6888348E+001  0.2091033E+02  0.7546771E-02  0.1520549E+00
          2   -1    0    0  502    0  0.00000000000E+00  0.00000000000E+00  0.37523212994E+03  0.37523212994E+03  0.00000000000E+00 0.  1.
         -2   -1    0    0    0  501 -0.00000000000E+00 -0.00000000000E+00 -0.13406225652E+01  0.13406225652E+01  0.00000000000E+00 0. -1.
          1    1    1    2  502    0  0.15850139616E+02 -0.13638734067E+02  0.25504422703E+03  0.25589997994E+03  0.00000000000E+00 0.  1.
         -1    1    1    2    0  501 -0.15850139616E+02  0.13638734067E+02  0.11884728035E+03  0.12067277256E+03  0.00000000000E+00 0. -1.
</event>
<event>
 4    1  0.6888348E+001  0.2772475E+02  0.7546771E-02  0.1440461E+00
          2   -1    0    0  502    0  0.00000000000E+00  0.00000000000E+00  0.58540558717E+01  0.58540558717E+01  0.00000000000E+00 0.  1.
         -2   -1    0    0    0  501 -0.00000000000E+00 -0.00000000000E+00 -0.14204675813E+03  0.14204675813E+03  0.00000000000E+00 0. -1.
          1    1    1    2  502    0 -0.39181708751E+01 -0.27446492877E+02 -0.88432984913E+02  0.92677153899E+02  0.00000000000E+00 0.  1.
         -1    1    1    2    0  501  0.39181708751E+01  0.27446492877E+02 -0.47759717346E+02  0.55223660103E+02  0.00000000000E+00 0. -1.
</event>
<event>
 4    1  0.6888348E+001  0.3073334E+02  0.7546771E-02  0.1413329E+00
          2   -1    0    0  502    0  0.00000000000E+00  0.00000000000E+00  0.55082196498E+03  0.55082196498E+03  0.00000000000E+00 0. -1.
         -2   -1    0    0    0  501 -0.00000000000E+00 -0.00000000000E+00 -0.27819425897E+01  0.27819425897E+01  0.00000000000E+00 0.  1.
          1    1    1    2  502    0  0.76631822613E+01 -0.29762628992E+02  0.44545930983E+03  0.44651823609E+03  0.00000000000E+00 0. -1.
         -1    1    1    2    0  501 -0.76631822613E+01  0.29762628992E+02  0.10258071256E+03  0.10708567148E+03  0.00000000000E+00 0.  1.
</event>
<event>
 4    1  0.6888348E+001  0.3418724E+02  0.7546771E-02  0.1386369E+00
          2   -1    0    0  502    0  0.00000000000E+00  0.00000000000E+00  0.84337816682E+01  0.84337816682E+01  0.00000000000E+00 0.  1.
         -2   -1    0    0    0  501 -0.00000000000E+00 -0.00000000000E+00 -0.29427067017E+03  0.29427067017E+03  0.00000000000E+00 0. -1.
          1    1    1    2  502    0 -0.12687119675E+02 -0.31745930198E+02 -0.25300755505E+03  0.25530685459E+03  0.00000000000E+00 0. -1.
         -1    1    1    2    0  501  0.12687119675E+02  0.31745930198E+02 -0.32829333454E+02  0.47397597248E+02  0.00000000000E+00 0.  1.
</event>
<event>
 4    1  0.6888348E+001  0.2720486E+02  0.7546771E-02  0.1445561E+00
          2   -1    0    0  502    0  0.00000000000E+00  0.00000000000E+00  0.94476242525E+02  0.94476242525E+02  0.00000000000E+00 0.  1.
         -2   -1    0    0    0  501 -0.00000000000E+00 -0.00000000000E+00 -0.78821081338E+01  0.78821081338E+01  0.00000000000E+00 0. -1.
          1    1    1    2  502    0  0.21699332463E+02 -0.16408631163E+02  0.39288749640E+02  0.47788179022E+02  0.00000000000E+00 0. -1.
         -1    1    1    2    0  501 -0.21699332463E+02  0.16408631163E+02  0.47305384751E+02  0.54570171637E+02  0.00000000000E+00 0.  1.
</event>
<event>
 4    1  0.6888348E+001  0.2219894E+02  0.7546771E-02  0.1502810E+00
          2   -1    0    0  502    0  0.00000000000E+00  0.00000000000E+00  0.10874297930E+04  0.10874297930E+04  0.00000000000E+00 0.  1.
         -2   -1    0    0    0  501 -0.00000000000E+00 -0.00000000000E+00 -0.46380386278E+00  0.46380386278E+00  0.00000000000E+00 0. -1.
          1    1    1    2  502    0 -0.16473693321E+02 -0.14879867774E+02  0.62583766717E+03  0.62623125017E+03  0.00000000000E+00 0.  1.
         -1    1    1    2    0  501  0.16473693321E+02  0.14879867774E+02  0.46112832200E+03  0.46166234672E+03  0.00000000000E+00 0. -1.
</event>
<event>
 4    1  0.6888348E+001  0.2477737E+02  0.7546771E-02  0.1471309E+00
          2   -1    0    0  502    0  0.00000000000E+00  0.00000000000E+00  0.13558387026E+03  0.13558387026E+03  0.00000000000E+00 0. -1.
         -2   -1    0    0    0  501 -0.00000000000E+00 -0.00000000000E+00 -0.46345660590E+01  0.46345660590E+01  0.00000000000E+00 0.  1.
          1    1    1    2  502    0 -0.13817681322E+02  0.20566713652E+02  0.76107907397E+02  0.80039562692E+02  0.00000000000E+00 0. -1.
         -1    1    1    2    0  501  0.13817681322E+02 -0.20566713652E+02  0.54841396801E+02  0.60178873624E+02  0.00000000000E+00 0.  1.
</event>
<event>
 4    1  0.6888348E+001  0.2271077E+02  0.7546771E-02  0.1496162E+00
          2   -1    0    0  502    0  0.00000000000E+00  0.00000000000E+00  0.72148899928E+03  0.72148899928E+03  0.00000000000E+00 0. -1.
         -2   -1    0    0    0  501 -0.00000000000E+00 -0.00000000000E+00 -0.94918750073E+00  0.94918750073E+00  0.00000000000E+00 0.  1.
          1    1    1    2  502    0  0.13756779553E+02 -0.18070138539E+02  0.18080203252E+03  0.18222281376E+03  0.00000000000E+00 0.  1.
         -1    1    1    2    0  501 -0.13756779553E+02  0.18070138539E+02  0.53973777926E+03  0.54021537302E+03  0.00000000000E+00 0. -1.
</event>
<event>
 4    1  0.6888348E+001  0.2323520E+02  0.7546771E-02  0.1489566E+00
          2   -1    0    0  502    0  0.00000000000E+00  0.00000000000E+00  0.24110852818E+02  0.24110852818E+02  0.00000000000E+00 0.  1.
         -2   -1    0    0    0  501 -0.00000000000E+00 -0.00000000000E+00 -0.40678834565E+02  0.40678834565E+02  0.00000000000E+00 0. -1.
          1    1    1    2  502    0  0.16521441163E+02  0.16337582672E+02  0.13436447389E+02  0.26840505660E+02  0.00000000000E+00 0.  1.
         -1    1    1    2    0  501 -0.16521441163E+02 -0.16337582672E+02 -0.30004429136E+02  0.37949181723E+02  0.00000000000E+00 0. -1.
</event>
<event>
 4    1  0.6888348E+001  0.2340128E+02  0.7546771E-02  0.1487520E+00
          2   -1    0    0  502    0  0.00000000000E+00  0.00000000000E+00  0.81300730156E+03  0.81300730156E+03  0.00000000000E+00 0.  1.
         -2   -1    0    0    0  501 -0.00000000000E+00 -0.00000000000E+00 -0.13564079036E+01  0.13564079036E+01  0.00000000000E+00 0. -1.
          1    1    1    2  502    0 -0.21830783863E+02  0.84283327140E+01  0.69472778595E+03  0.69512179975E+03  0.00000000000E+00 0.  1.
         -1    1    1    2    0  501  0.21830783863E+02 -0.84283327140E+01  0.11692310770E+03  0.11924190971E+03  0.00000000000E+00 0. -1.
</event>
<event>
 4    1  0.6888348E+001  0.2554951E+02  0.7546771E-02  0.1462749E+00
          2   -1    0    0  502    0  0.00000000000E+00  0.00000000000E+00  0.19552711711E+04  0.19552711711E+04  0.00000000000E+00 0.  1.
         -2   -1    0    0    0  501 -0.00000000000E+00 -0.00000000000E+00 -0.37930715979E+00  0.37930715979E+00  0.00000000000E+00 0. -1.
          1    1    1    2  502    0  0.25381599429E+02  0.29243928725E+01  0.63895931416E+03  0.63946992331E+03  0.00000000000E+00 0. -1.
         -1    1    1    2    0  501 -0.25381599429E+02 -0.29243928725E+01  0.13159325498E+04  0.13161805550E+04  0.00000000000E+00 0.  1.
</event>
<event>
 4    1  0.6888348E+001  0.2349384E+02  0.7546771E-02  0.1486388E+00
          2   -1    0    0  502    0  0.00000000000E+00  0.00000000000E+00  0.89838888355E+00  0.89838888355E+00  0.00000000000E+00 0.  1.
         -2   -1    0    0    0  501 -0.00000000000E+00 -0.00000000000E+00 -0.81063689027E+03  0.81063689027E+03  0.00000000000E+00 0. -1.
          1    1    1    2  502    0  0.19859970855E+02  0.12551571724E+02 -0.20522052448E+03  0.20656094515E+03  0.00000000000E+00 0.  1.
         -1    1    1    2    0  501 -0.19859970855E+02 -0.12551571724E+02 -0.60451797691E+03  0.60497433401E+03  0.00000000000E+00 0. -1.
</event>
<event>
 4    1  0.6888348E+001  0.3183855E+02  0.7546771E-02  0.1404265E+00
          2   -1    0    0  502    0  0.00000000000E+00  0.00000000000E+00  0.15101989037E+04  0.15101989037E+04  0.00000000000E+00 0.  1.
         -2   -1    0    0    0  501 -0.00000000000E+00 -0.00000000000E+00 -0.86015078011E+00  0.86015078011E+00  0.00000000000E+00 0. -1.
          1    1    1    2  502    0 -0.27825720677E+02 -0.15473275880E+02  0.40058860050E+03  0.40185186307E+03  0.00000000000E+00 0.  1.
         -1    1    1    2    0  501  0.27825720677E+02  0.15473275880E+02  0.11087501524E+04  0.11092071914E+04  0.00000000000E+00 0. -1.
</event>
<event>
 4    1  0.6888348E+001  0.2431193E+02  0.7546771E-02  0.1476650E+00
          2   -1    0    0  502    0  0.00000000000E+00  0.00000000000E+00  0.42634962520E+02  0.42634962520E+02  0.00000000000E+00 0.  1.
         -2   -1    0    0    0  501 -0.00000000000E+00 -0.00000000000E+00 -0.14013618436E+02  0.14013618436E+02  0.00000000000E+00 0. -1.
          1    1    1    2  502    0  0.23952950346E+02 -0.41624753575E+01  0.17242194048E+02  0.29805423785E+02  0.00000000000E+00 0.  1.
         -1    1    1    2    0  501 -0.23952950346E+02  0.41624753575E+01  0.11379150036E+02  0.26843157172E+02  0.00000000000E+00 0. -1.
</event>
<event>
 4    1  0.6888348E+001  0.4100930E+02  0.7546771E-02  0.1342671E+00
          2   -1    0    0  502    0  0.00000000000E+00  0.00000000000E+00  0.13499086162E+04  0.13499086162E+04  0.00000000000E+00 0. -1.
         -2   -1    0    0    0  501 -0.00000000000E+00 -0.00000000000E+00 -0.13086046643E+01  0.13086046643E+01  0.00000000000E+00 0.  1.
          1    1    1    2  502    0 -0.23828915356E+02 -0.33375817382E+02  0.52633179247E+03  0.52792700079E+03  0.00000000000E+00 0.  1.
         -1    1    1    2    0  501  0.23828915356E+02  0.33375817382E+02  0.82226821909E+03  0.82329022010E+03  0.00000000000E+00 0. -1.
</event>
<event>
 4    1  0.6888348E+001  0.2054595E+02  0.7546771E-02  0.1525847E+00
          2   -1    0    0  502    0  0.00000000000E+00  0.00000000000E+00  0.66843163468E+02  0.66843163468E+02  0.00000000000E+00 0.  1.
         -2   -1    0    0    0  501 -0.00000000000E+00 -0.00000000000E+00 -0.11111269934E+02  0.11111269934E+02  0.00000000000E+00 0. -1.
          1    1    1    2  502    0 -0.81587356647E+01  0.18856588419E+02  0.22584961382E+01  0.20669704866E+02  0.00000000000E+00 0. -1.
         -1    1    1    2    0  501  0.81587356647E+01 -0.18856588419E+02  0.53473397396E+02  0.57284728537E+02  0.00000000000E+00 0.  1.
</event>
<event>
 4    1  0.6888348E+001  0.4844024E+02  0.7546771E-02  0.1305080E+00
          2   -1    0    0  502    0  0.00000000000E+00  0.00000000000E+00  0.28324887391E+02  0.28324887391E+02  0.00000000000E+00 0. -1.
         -2   -1    0    0    0  501 -0.00000000000E+00 -0.00000000000E+00 -0.15832026370E+03  0.15832026370E+03  0.00000000000E+00 0.  1.
          1    1    1    2  502    0 -0.43622626919E+02 -0.21059985040E+02 -0.12943432195E+03  0.13820166514E+03  0.00000000000E+00 0.  1.
         -1    1    1    2    0  501  0.43622626919E+02  0.21059985040E+02 -0.56105436146E+00  0.48443485953E+02  0.00000000000E+00 0. -1.
</event>
<event>
 4    1  0.6888348E+001  0.5357229E+02  0.7546771E-02  0.1283385E+00
          2   -1    0    0  502    0  0.00000000000E+00  0.00000000000E+00  0.40185103561E+03  0.40185103561E+03  0.00000000000E+00 0.  1.
         -2   -1    0    0    0  501 -0.00000000000E+00 -0.00000000000E+00 -0.71621444860E+01  0.71621444860E+01  0.00000000000E+00 0. -1.
          1    1    1    2  502    0 -0.48692512968E+02  0.22338976099E+02  0.20820999569E+03  0.21499161141E+03  0.00000000000E+00 0. -1.
         -1    1    1    2    0  501  0.48692512968E+02 -0.22338976099E+02  0.18647889543E+03  0.19402156868E+03  0.00000000000E+00 0.  1.
</event>
<event>
 4    1  0.6888348E+001  0.2046211E+02  0.7546771E-02  0.1527085E+00
          2   -1    0    0  502    0  0.00000000000E+00  0.00000000000E+00  0.64288502727E+01  0.64288502727E+01  0.00000000000E+00 0. -1.
         -2   -1    0    0    0  501 -0.00000000000E+00 -0.00000000000E+00 -0.65170163206E+02  0.65170163206E+02  0.00000000000E+00 0.  1.
          1    1    1    2  502    0 -0.20372062970E+02 -0.19175847578E+01 -0.30281373002E+02  0.36546677439E+02  0.00000000000E+00 0. -1.
         -1    1    1    2    0  501  0.20372062970E+02  0.19175847578E+01 -0.28459939931E+02  0.35052336040E+02  0.00000000000E+00 0.  1.
</event>
<event>
 4    1  0.6888348E+001  0.2181727E+02  0.7546771E-02  0.1507909E+00
          2   -1    0    0  502    0  0.00000000000E+00  0.00000000000E+00  0.52075755024E+01  0.52075755024E+01  0.00000000000E+00 0. -1.
         -2   -1    0    0    0  501 -0.00000000000E+00 -0.00000000000E+00 -0.10156369742E+03  0.10156369742E+03  0.00000000000E+00 0.  1.
          1    1    1    2  502    0 -0.71926049724E+00  0.21805410032E+02 -0.31293276752E+02  0.38147901806E+02  0.00000000000E+00 0. -1.
         -1    1    1    2    0  501  0.71926049724E+00 -0.21805410032E+02 -0.65062845167E+02  0.68623371117E+02  0.00000000000E+00 0.  1.
</event>
<event>
 4    1  0.6888348E+001  0.3567466E+02  0.7546771E-02  0.1375881E+00
          2   -1    0    0  502    0  0.00000000000E+00  0.00000000000E+00  0.16765886144E+04  0.16765886144E+04  0.00000000000E+00 0. -1.
         -2   -1    0    0    0  501 -0.00000000000E+00 -0.00000000000E+00 -0.97225090073E+00  0.97225090073E+00  0.00000000000E+00 0.  1.
          1    1    1    2  502    0  0.35592795939E+02  0.24153697936E+01  0.12305554755E+04  0.12310724834E+04  0.00000000000E+00 0. -1.
         -1    1    1    2    0  501 -0.35592795939E+02 -0.24153697936E+01  0.44506088804E+03  0.44648838193E+03  0.00000000000E+00 0.  1.
</event>
<event>
 4    1  0.6888348E+001  0.2333479E+02  0.7546771E-02  0.1488336E+00
          2   -1    0    0  502    0  0.00000000000E+00  0.00000000000E+00  0.35500929274E+02  0.35500929274E+02  0.00000000000E+00 0.  1.
         -2   -1    0    0    0  501 -0.00000000000E+00 -0.00000000000E+00 -0.17215866761E+02  0.17215866761E+02  0.00000000000E+00 0. -1.
          1    1    1    2  502    0 -0.23052806615E+02  0.36166922476E+01  0.17847954210E+02  0.29377913900E+02  0.00000000000E+00 0.  1.
         -1    1    1    2    0  501  0.23052806615E+02 -0.36166922476E+01  0.43710830358E+00  0.23338882135E+02  0.00000000000E+00 0. -1.
</event>
<event>
 4    1  0.6888348E+001  0.2641506E+02  0.7546771E-02  0.1453574E+00
          2   -1    0    0  502    0  0.00000000000E+00  0.00000000000E+00  0.27353944780E+03  0.27353944780E+03  0.00000000000E+00 0. -1.
         -2   -1    0    0    0  501 -0.00000000000E+00 -0.00000000000E+00 -0.25865425620E+01  0.25865425620E+01  0.00000000000E+00 0.  1.
          1    1    1    2  502    0 -0.20115429980E+02 -0.17120894016E+02  0.15169692073E+03  0.15397958077E+03  0.00000000000E+00 0.  1.
         -1    1    1    2    0  501  0.20115429980E+02  0.17120894016E+02  0.11925598450E+03  0.12214640958E+03  0.00000000000E+00 0. -1.
</event>
<event>
 4    1  0.6888348E+001  0.5625589E+02  0.7546771E-02  0.1273113E+00
          2   -1    0    0  502    0  0.00000000000E+00  0.00000000000E+00  0.29896839063E+03  0.29896839063E+03  0.00000000000E+00 0.  1.
         -2   -1    0    0    0  501 -0.00000000000E+00 -0.00000000000E+00 -0.11383667520E+02  0.11383667520E+02  0.00000000000E+00 0. -1.
          1    1    1    2  502    0 -0.23734858695E+02  0.51003744148E+02  0.10270250540E+03  0.11710051259E+03  0.00000000000E+00 0. -1.
         -1    1    1    2    0  501  0.23734858695E+02 -0.51003744148E+02  0.18488221771E+03  0.19325154556E+03  0.00000000000E+00 0.  1.
</event>
<event>
 4    1  0.6888348E+001  0.1148092E+03  0.7546771E-02  0.1140362E+00
          2   -1    0    0  502    0  0.00000000000E+00  0.00000000000E+00  0.15006776685E+04  0.15006776685E+04  0.00000000000E+00 0.  1.
         -2   -1    0    0    0  501 -0.00000000000E+00 -0.00000000000E+00 -0.13869493913E+02  0.13869493913E+02  0.00000000000E+00 0. -1.
          1    1    1    2  502    0  0.49150811455E+02  0.10375625608E+03  0.12019803142E+04  0.12074509674E+04  0.00000000000E+00 0.  1.
         -1    1    1    2    0  501 -0.49150811455E+02 -0.10375625608E+03  0.28482786042E+03  0.30709619505E+03  0.00000000000E+00 0. -1.
</event>
<event>
 4    1  0.6888348E+001  0.2057787E+02  0.7546771E-02  0.1525378E+00
          2   -1    0    0  502    0  0.00000000000E+00  0.00000000000E+00  0.57973827166E+01  0.57973827166E+01  0.00000000000E+00 0.  1.
         -2   -1    0    0    0  501 -0.00000000000E+00 -0.00000000000E+00 -0.74070924518E+02  0.74070924518E+02  0.00000000000E+00 0. -1.
          1    1    1    2  502    0  0.20338610431E+02  0.31288170210E+01 -0.29428594085E+02  0.35909479528E+02  0.00000000000E+00 0. -1.
         -1    1    1    2    0  501 -0.20338610431E+02 -0.31288170210E+01 -0.38844947716E+02  0.43958827706E+02  0.00000000000E+00 0.  1.
</event>
<event>
 4    1  0.6888348E+001  0.3560246E+02  0.7546771E-02  0.1376377E+00
          2   -1    0    0  502    0  0.00000000000E+00  0.00000000000E+00  0.14656937699E+04  0.14656937699E+04  0.00000000000E+00 0. -1.
         -2   -1    0    0    0  501 -0.00000000000E+00 -0.00000000000E+00 -0.88925010039E+00  0.88925010039E+00  0.00000000000E+00 0.  1.
          1    1    1    2  502    0 -0.35319422390E+02 -0.44803664896E+01  0.85398864965E+03  0.85473045401E+03  0.00000000000E+00 0. -1.
         -1    1    1    2    0  501  0.35319422390E+02  0.44803664896E+01  0.61081587013E+03  0.61185256597E+03  0.00000000000E+00 0.  1.
</event>
<event>
 4    1  0.6888348E+001  0.2251190E+02  0.7546771E-02  0.1498720E+00
          2   -1    0    0  502    0  0.00000000000E+00  0.00000000000E+00  0.50496625765E+03  0.50496625765E+03  0.00000000000E+00 0.  1.
         -2   -1    0    0    0  501 -0.00000000000E+00 -0.00000000000E+00 -0.65501108815E+01  0.65501108815E+01  0.00000000000E+00 0. -1.
          1    1    1    2  502    0  0.10035133619E+02  0.20151468515E+02  0.13857621746E+02  0.26435190003E+02  0.00000000000E+00 0. -1.
         -1    1    1    2    0  501 -0.10035133619E+02 -0.20151468515E+02  0.48455852503E+03  0.48508117853E+03  0.00000000000E+00 0.  1.
</event>
<event>
 4    1  0.6888348E+001  0.2465855E+02  0.7546771E-02  0.1472660E+00
          2   -1    0    0  502    0  0.00000000000E+00  0.00000000000E+00  0.31324179570E+02  0.31324179570E+02  0.00000000000E+00 0.  1.
         -2   -1    0    0    0  501 -0.00000000000E+00 -0.00000000000E+00 -0.20833008066E+02  0.20833008066E+02  0.00000000000E+00 0. -1.
          1    1    1    2  502    0 -0.41973228286E+01  0.24298699557E+02  0.12058096327E+02  0.27448898086E+02  0.00000000000E+00 0. -1.
         -1    1    1    2    0  501  0.41973228286E+01 -0.24298699557E+02 -0.15669248237E+01  0.24708289550E+02  0.00000000000E+00 0.  1.
</event>
<event>
 4    1  0.6888348E+001  0.2785516E+02  0.7546771E-02  0.1439202E+00
          2   -1    0    0  502    0  0.00000000000E+00  0.00000000000E+00  0.26204335833E+04  0.26204335833E+04  0.00000000000E+00 0.  1.
         -2   -1    0    0    0  501 -0.00000000000E+00 -0.00000000000E+00 -0.43294651552E+00  0.43294651552E+00  0.00000000000E+00 0. -1.
          1    1    1    2  502    0 -0.19245222947E+02  0.20137812314E+02  0.20467413092E+04  0.20469308481E+04  0.00000000000E+00 0. -1.
         -1    1    1    2    0  501  0.19245222947E+02 -0.20137812314E+02  0.57325932760E+03  0.57393568173E+03  0.00000000000E+00 0.  1.
</event>
<event>
 4    1  0.6888348E+001  0.3912850E+02  0.7546771E-02  0.1353670E+00
          2   -1    0    0  502    0  0.00000000000E+00  0.00000000000E+00  0.13142154627E+04  0.13142154627E+04  0.00000000000E+00 0.  1.
         -2   -1    0    0    0  501 -0.00000000000E+00 -0.00000000000E+00 -0.40759642333E+01  0.40759642333E+01  0.00000000000E+00 0. -1.
          1    1    1    2  502    0  0.34079334163E+02  0.19225989146E+02  0.12121091253E+04  0.12127405211E+04  0.00000000000E+00 0.  1.
         -1    1    1    2    0  501 -0.34079334163E+02 -0.19225989146E+02  0.98030373074E+02  0.10555090583E+03  0.00000000000E+00 0. -1.
</event>
<event>
 4    1  0.6888348E+001  0.4298302E+02  0.7546771E-02  0.1331839E+00
          2   -1    0    0  502    0  0.00000000000E+00  0.00000000000E+00  0.53282946544E+02  0.53282946544E+02  0.00000000000E+00 0. -1.
         -2   -1    0    0    0  501 -0.00000000000E+00 -0.00000000000E+00 -0.51914812261E+02  0.51914812261E+02  0.00000000000E+00 0.  1.
          1    1    1    2  502    0  0.31456234752E+02 -0.29292414806E+02  0.30995604549E+02  0.52993091731E+02  0.00000000000E+00 0. -1.
         -1    1    1    2    0  501 -0.31456234752E+02  0.29292414806E+02 -0.29627470266E+02  0.52204667074E+02  0.00000000000E+00 0.  1.
</event>
<event>
 4    1  0.6888348E+001  0.2539244E+02  0.7546771E-02  0.1464461E+00
          2   -1    0    0  502    0  0.00000000000E+00  0.00000000000E+00  0.55463258782E+03  0.55463258782E+03  0.00000000000E+00 0.  1.
         -2   -1    0    0    0  501 -0.00000000000E+00 -0.00000000000E+00 -0.12076107517E+01  0.12076107517E+01  0.00000000000E+00 0. -1.
          1    1    1    2  502    0 -0.23684992762E+02  0.91540871864E+01  0.22301434942E+03  0.22445528785E+03  0.00000000000E+00 0.  1.
         -1    1    1    2    0  501  0.23684992762E+02 -0.91540871864E+01  0.33041062765E+03  0.33138491073E+03  0.00000000000E+00 0. -1.
</event>
<event>
 4    1  0.6888348E+001  0.2059708E+02  0.7546771E-02  0.1525096E+00
          2   -1    0    0  502    0  0.00000000000E+00  0.00000000000E+00  0.57144602909E+03  0.57144602909E+03  0.00000000000E+00 0. -1.
         -2   -1    0    0    0  501 -0.00000000000E+00 -0.00000000000E+00 -0.74252896407E+00  0.74252896407E+00  0.00000000000E+00 0.  1.
          1    1    1    2  502    0  0.12619903733E+02  0.16278131077E+02  0.28917322671E+03  0.28990583742E+03  0.00000000000E+00 0. -1.
         -1    1    1    2    0  501 -0.12619903733E+02 -0.16278131077E+02  0.28153027341E+03  0.28228272063E+03  0.00000000000E+00 0.  1.
</event>
<event>
 4    1  0.6888348E+001  0.2070801E+02  0.7546771E-02  0.1523475E+00
          2   -1    0    0  502    0  0.00000000000E+00  0.00000000000E+00  0.23427646955E+02  0.23427646955E+02  0.00000000000E+00 0.  1.
         -2   -1    0    0    0  501 -0.00000000000E+00 -0.00000000000E+00 -0.18900720614E+02  0.18900720614E+02  0.00000000000E+00 0. -1.
          1    1    1    2  502    0 -0.50307762406E+01  0.20087637098E+02  0.60236837077E+01  0.21566331148E+02  0.00000000000E+00 0.  1.
         -1    1    1    2    0  501  0.50307762406E+01 -0.20087637098E+02 -0.14967573661E+01  0.20762036422E+02  0.00000000000E+00 0. -1.
</event>
<event>
 4    1  0.6888348E+001  0.3390441E+02  0.7546771E-02  0.1388433E+00
          2   -1    0    0  502    0  0.00000000000E+00  0.00000000000E+00  0.11306923992E+04  0.11306923992E+04  0.00000000000E+00 0.  1.
         -2   -1    0    0    0  501 -0.00000000000E+00 -0.00000000000E+00 -0.10911881314E+01  0.10911881314E+01  0.00000000000E+00 0. -1.
          1    1    1    2  502    0 -0.33705694850E+02  0.36654147767E+01  0.41689086272E+03  0.41826725972E+03  0.00000000000E+00 0. -1.
         -1    1    1    2    0  501  0.33705694850E+02 -0.36654147767E+01  0.71271034834E+03  0.71351632761E+03  0.00000000000E+00 0.  1.
</event>
<event>
 4    1  0.6888348E+001  0.3118389E+02  0.7546771E-02  0.1409580E+00
          2   -1    0    0  502    0  0.00000000000E+00  0.00000000000E+00  0.20066082560E+04  0.20066082560E+04  0.00000000000E+00 0. -1.
         -2   -1    0    0    0  501 -0.00000000000E+00 -0.00000000000E+00 -0.53853757031E+00  0.53853757031E+00  0.00000000000E+00 0.  1.
          1    1    1    2  502    0  0.24790145039E+01 -0.31085199953E+02  0.13205913492E+04  0.13209594796E+04  0.00000000000E+00 0. -1.
         -1    1    1    2    0  501 -0.24790145039E+01  0.31085199953E+02  0.68547836926E+03  0.68618731400E+03  0.00000000000E+00 0.  1.
</event>
<event>
 4    1  0.6888348E+001  0.2403890E+02  0.7546771E-02  0.1479849E+00
          2   -1    0    0  502    0  0.00000000000E+00  0.00000000000E+00  0.49180509315E+01  0.49180509315E+01  0.00000000000E+00 0. -1.
         -2   -1    0    0    0  501 -0.00000000000E+00 -0.00000000000E+00 -0.16266449854E+03  0.16266449854E+03  0.00000000000E+00 0.  1.
          1    1    1    2  502    0 -0.23526210788E+02 -0.49382326948E+01 -0.12302551063E+03  0.12535208415E+03  0.00000000000E+00 0.  1.
         -1    1    1    2    0  501  0.23526210788E+02  0.49382326948E+01 -0.34720936977E+02  0.42230465315E+02  0.00000000000E+00 0. -1.
</event>
<event>
 4    1  0.6888348E+001  0.5520147E+02  0.7546771E-02  0.1277070E+00
          2   -1    0    0  502    0  0.00000000000E+00  0.00000000000E+00  0.16553136366E+04  0.16553136366E+04  0.00000000000E+00 0.  1.
         -2   -1    0    0    0  501 -0.00000000000E+00 -0.00000000000E+00 -0.33750249113E+01  0.33750249113E+01  0.00000000000E+00 0. -1.
          1    1    1    2  502    0  0.50292652763E+02 -0.22756358325E+02  0.26681428149E+03  0.27246479328E+03  0.00000000000E+00 0. -1.
         -1    1    1    2    0  501 -0.50292652763E+02  0.22756358325E+02  0.13851243302E+04  0.13862238682E+04  0.00000000000E+00 0.  1.
</event>
<event>
 4    1  0.6888348E+001  0.2106139E+02  0.7546771E-02  0.1518390E+00
          2   -1    0    0  502    0  0.00000000000E+00  0.00000000000E+00  0.18154592571E+02  0.18154592571E+02  0.00000000000E+00 0. -1.
         -2   -1    0    0    0  501 -0.00000000000E+00 -0.00000000000E+00 -0.26226425981E+02  0.26226425981E+02  0.00000000000E+00 0.  1.
          1    1    1    2  502    0  0.12903985557E+02 -0.16645397749E+02 -0.98377654993E+01  0.23245725187E+02  0.00000000000E+00 0.  1.
         -1    1    1    2    0  501 -0.12903985557E+02  0.16645397749E+02  0.17659320892E+01  0.21135293365E+02  0.00000000000E+00 0. -1.
</event>
<event>
 4    1  0.6888348E+001  0.2240831E+02  0.7546771E-02  0.1500065E+00
          2   -1    0    0  502    0  0.00000000000E+00  0.00000000000E+00  0.18614461816E+04  0.18614461816E+04  0.00000000000E+00 0.  1.
         -2   -1    0    0    0  501 -0.00000000000E+00 -0.00000000000E+00 -0.28811915051E+00  0.28811915051E+00  0.00000000000E+00 0. -1.
          1    1    1    2  502    0  0.58310377615E+01  0.21636348440E+02  0.11655957445E+04  0.11658111220E+04  0.00000000000E+00 0. -1.
         -1    1    1    2    0  501 -0.58310377615E+01 -0.21636348440E+02  0.69556231788E+03  0.69592317868E+03  0.00000000000E+00 0.  1.
</event>
<event>
 4    1  0.6888348E+001  0.5380852E+02  0.7546771E-02  0.1282454E+00
          2   -1    0    0  502    0  0.00000000000E+00  0.00000000000E+00  0.10935239442E+03  0.10935239442E+03  0.00000000000E+00 0. -1.
         -2   -1    0    0    0  501 -0.00000000000E+00 -0.00000000000E+00 -0.39906302855E+02  0.39906302855E+02  0.00000000000E+00 0.  1.
          1    1    1    2  502    0  0.40122724613E+02  0.35854205158E+02  0.78015345185E+02  0.94772101075E+02  0.00000000000E+00 0. -1.
         -1    1    1    2    0  501 -0.40122724613E+02 -0.35854205158E+02 -0.85692536190E+01  0.54486596200E+02  0.00000000000E+00 0.  1.
</event>
<event>
 4    1  0.6888348E+001  0.2489768E+02  0.7546771E-02  0.1469951E+00
          2   -1    0    0  502    0  0.00000000000E+00  0.00000000000E+00  0.10422222985E+02  0.10422222985E+02  0.00000000000E+00 0. -1.
         -2   -1    0    0    0  501 -0.00000000000E+00 -0.00000000000E+00 -0.67591768751E+02  0.67591768751E+02  0.00000000000E+00 0.  1.
          1    1    1    2  502    0  0.24871891270E+02 -0.11329037915E+01 -0.42099371226E+02  0.48910648165E+02  0.00000000000E+00 0.  1.
         -1    1    1    2    0  501 -0.24871891270E+02  0.11329037915E+01 -0.15070174541E+02  0.29103343571E+02  0.00000000000E+00 0. -1.
</event>
<event>
 4    1  0.6888348E+001  0.2007017E+02  0.7546771E-02  0.1532966E+00
          2   -1    0    0  502    0  0.00000000000E+00  0.00000000000E+00  0.67269715697E+03  0.67269715697E+03  0.00000000000E+00 0. -1.
         -2   -1    0    0    0  501 -0.00000000000E+00 -0.00000000000E+00 -0.17579059126E+01  0.17579059126E+01  0.00000000000E+00 0.  1.
          1    1    1    2  502    0 -0.19802602600E+02 -0.32663181014E+01  0.61636152269E+02  0.64821502375E+02  0.00000000000E+00 0.  1.
         -1    1    1    2    0  501  0.19802602600E+02  0.32663181014E+01  0.60930309879E+03  0.60963356051E+03  0.00000000000E+00 0. -1.
</event>
<event>
 4    1  0.6888348E+001  0.2147859E+02  0.7546771E-02  0.1512540E+00
          2   -1    0    0  502    0  0.00000000000E+00  0.00000000000E+00  0.71800306979E+02  0.71800306979E+02  0.00000000000E+00 0. -1.
         -2   -1    0    0    0  501 -0.00000000000E+00 -0.00000000000E+00 -0.79526622395E+01  0.79526622395E+01  0.00000000000E+00 0.  1.
          1    1    1    2  502    0  0.20350250230E+02 -0.68700284233E+01  0.49400083504E+02  0.53867413388E+02  0.00000000000E+00 0. -1.
         -1    1    1    2    0  501 -0.20350250230E+02  0.68700284233E+01  0.14447561236E+02  0.25885555830E+02  0.00000000000E+00 0.  1.
</event>
<event>
 4    1  0.6888348E+001  0.5299889E+02  0.7546771E-02  0.1285669E+00
          2   -1    0    0  502    0  0.00000000000E+00  0.00000000000E+00  0.94321831896E+03  0.94321831896E+03  0.00000000000E+00 0. -1.
         -2   -1    0    0    0  501 -0.00000000000E+00 -0.00000000000E+00 -0.31332498050E+01  0.31332498050E+01  0.00000000000E+00 0.  1.
          1    1    1    2  502    0 -0.35743339114E+02  0.39131781967E+02  0.57537746580E+03  0.57781321445E+03  0.00000000000E+00 0. -1.
         -1    1    1    2    0  501  0.35743339114E+02 -0.39131781967E+02  0.36470760336E+03  0.36853835432E+03  0.00000000000E+00 0.  1.
</event>
<event>
 4    1  0.6888348E+001  0.2292668E+02  0.7546771E-02  0.1493421E+00
          2   -1    0    0  502    0  0.00000000000E+00  0.00000000000E+00  0.93152117179E+03  0.93152117179E+03  0.00000000000E+00 0. -1.
         -2   -1    0    0    0  501 -0.00000000000E+00 -0.00000000000E+00 -0.56877620908E+00  0.56877620908E+00  0.00000000000E+00 0.  1.
          1    1    1    2  502    0  0.21255837896E+02  0.85919690891E+01  0.50694304545E+03  0.50746121419E+03  0.00000000000E+00 0.  1.
         -1    1    1    2    0  501 -0.21255837896E+02 -0.85919690891E+01  0.42400935013E+03  0.42462873381E+03  0.00000000000E+00 0. -1.
</event>
<event>
 4    1  0.6888348E+001  0.2156910E+02  0.7546771E-02  0.1511293E+00
          2   -1    0    0  502    0  0.00000000000E+00  0.00000000000E+00  0.42352540857E+01  0.42352540857E+01  0.00000000000E+00 0. -1.
         -2   -1    0    0    0  501 -0.00000000000E+00 -0.00000000000E+00 -0.15603079546E+03  0.15603079546E+03  0.00000000000E+00 0.  1.
          1    1    1    2  502    0  0.20199581954E+02  0.75632629964E+01 -0.32300880456E+02  0.38840351910E+02  0.00000000000E+00 0. -1.
         -1    1    1    2    0  501 -0.20199581954E+02 -0.75632629964E+01 -0.11949466092E+03  0.12142569764E+03  0.00000000000E+00 0.  1.
</event>
<event>
 4    1  0.6888348E+001  0.2050451E+02  0.7546771E-02  0.1526458E+00
          2   -1    0    0  502    0  0.00000000000E+00  0.00000000000E+00  0.38257201986E+02  0.38257201986E+02  0.00000000000E+00 0.  1.
         -2   -1    0    0    0  501 -0.00000000000E+00 -0.00000000000E+00 -0.11161560240E+02  0.11161560240E+02  0.00000000000E+00 0. -1.
          1    1    1    2  502    0  0.17812610562E+02  0.10156066470E+02  0.16614017840E+02  0.26390535614E+02  0.00000000000E+00 0.  1.
         -1    1    1    2    0  501 -0.17812610562E+02 -0.10156066470E+02  0.10481623907E+02  0.23028226612E+02  0.00000000000E+00 0. -1.
</event>
<event>
 4    1  0.6888348E+001  0.2295689E+02  0.7546771E-02  0.1493040E+00
          2   -1    0    0  502    0  0.00000000000E+00  0.00000000000E+00  0.13496299937E+03  0.13496299937E+03  0.00000000000E+00 0.  1.
         -2   -1    0    0    0  501 -0.00000000000E+00 -0.00000000000E+00 -0.39694801147E+01  0.39694801147E+01  0.00000000000E+00 0. -1.
          1    1    1    2  502    0 -0.27246242088E+01 -0.22794635113E+02  0.74356230301E+02  0.77819457410E+02  0.00000000000E+00 0. -1.
         -1    1    1    2    0  501  0.27246242088E+01  0.22794635113E+02  0.56637288954E+02  0.61113022074E+02  0.00000000000E+00 0.  1.
</event>
<event>
 4    1  0.6888348E+001  0.2078909E+02  0.7546771E-02  0.1522298E+00
          2   -1    0    0  502    0  0.00000000000E+00  0.00000000000E+00  0.73328200238E+03  0.73328200238E+03  0.00000000000E+00 0. -1.
         -2   -1    0    0    0  501 -0.00000000000E+00 -0.00000000000E+00 -0.60519738533E+00  0.60519738533E+00  0.00000000000E+00 0.  1.
          1    1    1    2  502    0 -0.10723453334E+02  0.17809933961E+02  0.42564933710E+03  0.42615671340E+03  0.00000000000E+00 0. -1.
         -1    1    1    2    0  501  0.10723453334E+02 -0.17809933961E+02  0.30702746789E+03  0.30773048637E+03  0.00000000000E+00 0.  1.
</event>
<event>
 4    1  0.6888348E+001  0.2206916E+02  0.7546771E-02  0.1504530E+00
          2   -1    0    0  502    0  0.00000000000E+00  0.00000000000E+00  0.59861251377E+03  0.59861251377E+03  0.00000000000E+00 0. -1.
         -2   -1    0    0    0  501 -0.00000000000E+00 -0.00000000000E+00 -0.84148918290E+00  0.84148918290E+00  0.00000000000E+00 0.  1.
          1    1    1    2  502    0  0.13868662222E+02 -0.17167062695E+02  0.35342389730E+03  0.35411226894E+03  0.00000000000E+00 0. -1.
         -1    1    1    2    0  501 -0.13868662222E+02  0.17167062695E+02  0.24434712728E+03  0.24534173401E+03  0.00000000000E+00 0.  1.
</event>
<event>
 4    1  0.6888348E+001  0.2441845E+02  0.7546771E-02  0.1475415E+00
          2   -1    0    0  502    0  0.00000000000E+00  0.00000000000E+00  0.29074061477E+03  0.29074061477E+03  0.00000000000E+00 0. -1.
         -2   -1    0    0    0  501 -0.00000000000E+00 -0.00000000000E+00 -0.20827848400E+01  0.20827848400E+01  0.00000000000E+00 0.  1.
          1    1    1    2  502    0 -0.74230181970E+01  0.23262837378E+02  0.12619493125E+03  0.12853568172E+03  0.00000000000E+00 0.  1.
         -1    1    1    2    0  501  0.74230181970E+01 -0.23262837378E+02  0.16246289869E+03  0.16428771790E+03  0.00000000000E+00 0. -1.
</event>
<event>
 4    1  0.6888348E+001  0.2932412E+02  0.7546771E-02  0.1425562E+00
          2   -1    0    0  502    0  0.00000000000E+00  0.00000000000E+00  0.10372485658E+02  0.10372485658E+02  0.00000000000E+00 0. -1.
         -2   -1    0    0    0  501 -0.00000000000E+00 -0.00000000000E+00 -0.87104021380E+02  0.87104021380E+02  0.00000000000E+00 0.  1.
          1    1    1    2  502    0  0.18639313685E+02 -0.22638016070E+02 -0.27661421380E+02  0.40312008372E+02  0.00000000000E+00 0. -1.
         -1    1    1    2    0  501 -0.18639313685E+02  0.22638016070E+02 -0.49070114342E+02  0.57164498666E+02  0.00000000000E+00 0.  1.
</event>
<event>
 4    1  0.6888348E+001  0.5966528E+02  0.7546771E-02  0.1260974E+00
          2   -1    0    0  502    0  0.00000000000E+00  0.00000000000E+00  0.51620587211E+03  0.51620587211E+03  0.00000000000E+00 0. -1.
         -2   -1    0    0    0  501 -0.00000000000E+00 -0.00000000000E+00 -0.78937235917E+01  0.78937235917E+01  0.00000000000E+00 0.  1.
          1    1    1    2  502    0  0.47986403512E+02  0.35457736197E+02  0.16100931495E+03  0.17170889750E+03  0.00000000000E+00 0. -1.
         -1    1    1    2    0  501 -0.47986403512E+02 -0.35457736197E+02  0.34730283357E+03  0.35239069820E+03  0.00000000000E+00 0.  1.
</event>
<event>
 4    1  0.6888348E+001  0.1681761E+03  0.7546771E-02  0.1080319E+00
          2   -1    0    0  502    0  0.00000000000E+00  0.00000000000E+00  0.10320755908E+03  0.10320755908E+03  0.00000000000E+00 0.  1.
         -2   -1    0    0    0  501 -0.00000000000E+00 -0.00000000000E+00 -0.48923071775E+03  0.48923071775E+03  0.00000000000E+00 0. -1.
          1    1    1    2  502    0 -0.79265313782E+01  0.16798920917E+03  0.34447476983E+01  0.16821138660E+03  0.00000000000E+00 0.  1.
         -1    1    1    2    0  501  0.79265313782E+01 -0.16798920917E+03 -0.38946790637E+03  0.42422689022E+03  0.00000000000E+00 0. -1.
</event>
<event>
 4    1  0.6888348E+001  0.2361677E+02  0.7546771E-02  0.1484895E+00
          2   -1    0    0  502    0  0.00000000000E+00  0.00000000000E+00  0.10738940544E+04  0.10738940544E+04  0.00000000000E+00 0. -1.
         -2   -1    0    0    0  501 -0.00000000000E+00 -0.00000000000E+00 -0.53919923278E+00  0.53919923278E+00  0.00000000000E+00 0.  1.
          1    1    1    2  502    0  0.36166455556E+01 -0.23338206112E+02  0.63969011148E+03  0.64012591786E+03  0.00000000000E+00 0. -1.
         -1    1    1    2    0  501 -0.36166455556E+01  0.23338206112E+02  0.43366474369E+03  0.43430733577E+03  0.00000000000E+00 0.  1.
</event>
<event>
 4    1  0.6888348E+001  0.2839844E+02  0.7546771E-02  0.1434045E+00
          2   -1    0    0  502    0  0.00000000000E+00  0.00000000000E+00  0.27761964354E+04  0.27761964354E+04  0.00000000000E+00 0. -1.
         -2   -1    0    0    0  501 -0.00000000000E+00 -0.00000000000E+00 -0.34863261028E+00  0.34863261028E+00  0.00000000000E+00 0.  1.
          1    1    1    2  502    0 -0.44361565454E+01 -0.28049806287E+02  0.19548408025E+04  0.19550470670E+04  0.00000000000E+00 0. -1.
         -1    1    1    2    0  501  0.44361565454E+01  0.28049806287E+02  0.82100700032E+03  0.82149800103E+03  0.00000000000E+00 0.  1.
</event>
<event>
 4    1  0.6888348E+001  0.3732098E+02  0.7546771E-02  0.1364943E+00
          2   -1    0    0  502    0  0.00000000000E+00  0.00000000000E+00  0.53890150361E+03  0.53890150361E+03  0.00000000000E+00 0.  1.
         -2   -1    0    0    0  501 -0.00000000000E+00 -0.00000000000E+00 -0.39016251107E+01  0.39016251107E+01  0.00000000000E+00 0. -1.
          1    1    1    2  502    0 -0.23574887109E+02  0.28932342335E+02  0.10981752242E+03  0.11598596452E+03  0.00000000000E+00 0. -1.
         -1    1    1    2    0  501  0.23574887109E+02 -0.28932342335E+02  0.42518235607E+03  0.42681716419E+03  0.00000000000E+00 0.  1.
</event>
<event>
 4    1  0.6888348E+001  0.2877070E+02  0.7546771E-02  0.1430588E+00
          2   -1    0    0  502    0  0.00000000000E+00  0.00000000000E+00  0.30503066550E+03  0.30503066550E+03  0.00000000000E+00 0.  1.
         -2   -1    0    0    0  501 -0.00000000000E+00 -0.00000000000E+00 -0.32798402993E+01  0.32798402993E+01  0.00000000000E+00 0. -1.
          1    1    1    2  502    0 -0.18868858646E+01 -0.28708760301E+02  0.21492327693E+03  0.21684042110E+03  0.00000000000E+00 0.  1.
         -1    1    1    2    0  501  0.18868858646E+01  0.28708760301E+02  0.86827548270E+02  0.91470084699E+02  0.00000000000E+00 0. -1.
</event>
<event>
 4    1  0.6888348E+001  0.4512998E+02  0.7546771E-02  0.1320791E+00
          2   -1    0    0  502    0  0.00000000000E+00  0.00000000000E+00  0.37689866287E+03  0.37689866287E+03  0.00000000000E+00 0. -1.
         -2   -1    0    0    0  501 -0.00000000000E+00 -0.00000000000E+00 -0.84528785321E+01  0.84528785321E+01  0.00000000000E+00 0.  1.
          1    1    1    2  502    0  0.45042622845E+02 -0.28066495305E+01  0.29994155241E+03  0.30331773772E+03  0.00000000000E+00 0.  1.
         -1    1    1    2    0  501 -0.45042622845E+02  0.28066495305E+01  0.68504231929E+02  0.82033803682E+02  0.00000000000E+00 0. -1.
</event>
<event>
 4    1  0.6888348E+001  0.2611592E+02  0.7546771E-02  0.1456697E+00
          2   -1    0    0  502    0  0.00000000000E+00  0.00000000000E+00  0.10993776777E+02  0.10993776777E+02  0.00000000000E+00 0.  1.
         -2   -1    0    0    0  501 -0.00000000000E+00 -0.00000000000E+00 -0.87852014501E+02  0.87852014501E+02  0.00000000000E+00 0. -1.
          1    1    1    2  502    0  0.18127022214E+02 -0.18800323987E+02 -0.11639097167E+02  0.28592126525E+02  0.00000000000E+00 0.  1.
         -1    1    1    2    0  501 -0.18127022214E+02  0.18800323987E+02 -0.65219140556E+02  0.70253664753E+02  0.00000000000E+00 0. -1.
</event>
<event>
 4    1  0.6888348E+001  0.6357649E+02  0.7546771E-02  0.1248142E+00
          2   -1    0    0  502    0  0.00000000000E+00  0.00000000000E+00  0.45092643719E+03  0.45092643719E+03  0.00000000000E+00 0.  1.
         -2   -1    0    0    0  501 -0.00000000000E+00 -0.00000000000E+00 -0.10184378996E+02  0.10184378996E+02  0.00000000000E+00 0. -1.
          1    1    1    2  502    0  0.53865770520E+02  0.33770541285E+02  0.30019038633E+03  0.30684888584E+03  0.00000000000E+00 0.  1.
         -1    1    1    2    0  501 -0.53865770520E+02 -0.33770541285E+02  0.14055167186E+03  0.15426193035E+03  0.00000000000E+00 0. -1.
</event>
<event>
 4    1  0.6888348E+001  0.2691844E+02  0.7546771E-02  0.1448429E+00
          2   -1    0    0  502    0  0.00000000000E+00  0.00000000000E+00  0.14490942789E+04  0.14490942789E+04  0.00000000000E+00 0. -1.
         -2   -1    0    0    0  501 -0.00000000000E+00 -0.00000000000E+00 -0.50257017452E+00  0.50257017452E+00  0.00000000000E+00 0.  1.
          1    1    1    2  502    0 -0.25022599862E+02 -0.99233124812E+01  0.77574051278E+03  0.77620741159E+03  0.00000000000E+00 0. -1.
         -1    1    1    2    0  501  0.25022599862E+02  0.99233124812E+01  0.67285119590E+03  0.67338943745E+03  0.00000000000E+00 0.  1.
</event>
<event>
 4    1  0.6888348E+001  0.3215237E+02  0.7546771E-02  0.1401770E+00
          2   -1    0    0  502    0  0.00000000000E+00  0.00000000000E+00  0.57941827373E+03  0.57941827373E+03  0.00000000000E+00 0. -1.
         -2   -1    0    0    0  501 -0.00000000000E+00 -0.00000000000E+00 -0.35488522588E+01  0.35488522588E+01  0.00000000000E+00 0.  1.
          1    1    1    2  502    0 -0.32288775912E+01 -0.31989827803E+02  0.82390789771E+02  0.88442167389E+02  0.00000000000E+00 0.  1.
         -1    1    1    2    0  501  0.32288775912E+01  0.31989827803E+02  0.49347863170E+03  0.49452495860E+03  0.00000000000E+00 0. -1.
</event>
<event>
 4    1  0.6888348E+001  0.2058889E+02  0.7546771E-02  0.1525216E+00
          2   -1    0    0  502    0  0.00000000000E+00  0.00000000000E+00  0.52449923764E+02  0.52449923764E+02  0.00000000000E+00 0.  1.
         -2   -1    0    0    0  501 -0.00000000000E+00 -0.00000000000E+00 -0.87036557748E+01  0.87036557748E+01  0.00000000000E+00 0. -1.
          1    1    1    2  502    0 -0.56680391449E+00  0.20581084301E+02  0.30044649484E+02  0.36422290706E+02  0.00000000000E+00 0. -1.
         -1    1    1    2    0  501  0.56680391449E+00 -0.20581084301E+02  0.13701618506E+02  0.24731288833E+02  0.00000000000E+00 0.  1.
</event>
<event>
 4    1  0.6888348E+001  0.3867289E+02  0.7546771E-02  0.1356443E+00
          2   -1    0    0  502    0  0.00000000000E+00  0.00000000000E+00  0.21012161405E+03  0.21012161405E+03  0.00000000000E+00 0.  1.
         -2   -1    0    0    0  501 -0.00000000000E+00 -0.00000000000E+00 -0.11679445132E+02  0.11679445132E+02  0.00000000000E+00 0. -1.
          1    1    1    2  502    0  0.37793043099E+02 -0.82023579895E+01  0.29912709041E+02  0.48891338143E+02  0.00000000000E+00 0. -1.
         -1    1    1    2    0  501 -0.37793043099E+02  0.82023579895E+01  0.16852945988E+03  0.17290972104E+03  0.00000000000E+00 0.  1.
</event>
<event>
 4    1  0.6888348E+001  0.2166754E+02  0.7546771E-02  0.1509944E+00
          2   -1    0    0  502    0  0.00000000000E+00  0.00000000000E+00  0.73812133617E+01  0.73812133617E+01  0.00000000000E+00 0.  1.
         -2   -1    0    0    0  501 -0.00000000000E+00 -0.00000000000E+00 -0.96513583687E+02  0.96513583687E+02  0.00000000000E+00 0. -1.
          1    1    1    2  502    0  0.20423125181E+02  0.72372898119E+01 -0.14232590220E+02  0.25923908469E+02  0.00000000000E+00 0.  1.
         -1    1    1    2    0  501 -0.20423125181E+02 -0.72372898119E+01 -0.74899780106E+02  0.77970888580E+02  0.00000000000E+00 0. -1.
</event>
<event>
 4    1  0.6888348E+001  0.2358022E+02  0.7546771E-02  0.1485338E+00
          2   -1    0    0  502    0  0.00000000000E+00  0.00000000000E+00  0.13238710292E+01  0.13238710292E+01  0.00000000000E+00 0. -1.
         -2   -1    0    0    0  501 -0.00000000000E+00 -0.00000000000E+00 -0.47343631800E+03  0.47343631800E+03  0.00000000000E+00 0.  1.
          1    1    1    2  502    0 -0.17359642931E+02  0.15958365001E+02 -0.15630646624E+03  0.15807510241E+03  0.00000000000E+00 0. -1.
         -1    1    1    2    0  501  0.17359642931E+02 -0.15958365001E+02 -0.31580598074E+03  0.31668508662E+03  0.00000000000E+00 0.  1.
</event>
<event>
 4    1  0.6888348E+001  0.2102935E+02  0.7546771E-02  0.1518846E+00
          2   -1    0    0  502    0  0.00000000000E+00  0.00000000000E+00  0.23344471695E+02  0.23344471695E+02  0.00000000000E+00 0.  1.
         -2   -1    0    0    0  501 -0.00000000000E+00 -0.00000000000E+00 -0.20158953528E+02  0.20158953528E+02  0.00000000000E+00 0. -1.
          1    1    1    2  502    0  0.13872913071E+02 -0.15804302242E+02 -0.37475919917E+01  0.21360667877E+02  0.00000000000E+00 0. -1.
         -1    1    1    2    0  501 -0.13872913071E+02  0.15804302242E+02  0.69331101595E+01  0.22142757346E+02  0.00000000000E+00 0.  1.
</event>
<event>
 4    1  0.6888348E+001  0.2327778E+02  0.7546771E-02  0.1489039E+00
          2   -1    0    0  502    0  0.00000000000E+00  0.00000000000E+00  0.56167478929E+03  0.56167478929E+03  0.00000000000E+00 0. -1.
         -2   -1    0    0    0  501 -0.00000000000E+00 -0.00000000000E+00 -0.99149607703E+00  0.99149607703E+00  0.00000000000E+00 0.  1.
          1    1    1    2  502    0 -0.18100870430E+02 -0.14636042010E+02  0.23410335212E+03  0.23525780478E+03  0.00000000000E+00 0.  1.
         -1    1    1    2    0  501  0.18100870430E+02  0.14636042010E+02  0.32657994109E+03  0.32740848059E+03  0.00000000000E+00 0. -1.
</event>
<event>
 4    1  0.6888348E+001  0.9192826E+02  0.7546771E-02  0.1178581E+00
          2   -1    0    0  502    0  0.00000000000E+00  0.00000000000E+00  0.10563805785E+04  0.10563805785E+04  0.00000000000E+00 0. -1.
         -2   -1    0    0    0  501 -0.00000000000E+00 -0.00000000000E+00 -0.83486803870E+01  0.83486803870E+01  0.00000000000E+00 0.  1.
          1    1    1    2  502    0  0.88068471731E+02  0.26358086985E+02  0.41518420878E+03  0.42523961679E+03  0.00000000000E+00 0.  1.
         -1    1    1    2    0  501 -0.88068471731E+02 -0.26358086985E+02  0.63284768932E+03  0.63948964209E+03  0.00000000000E+00 0. -1.
</event>
<event>
 4    1  0.6888348E+001  0.2237645E+02  0.7546771E-02  0.1500480E+00
          2   -1    0    0  502    0  0.00000000000E+00  0.00000000000E+00  0.20223195297E+03  0.20223195297E+03  0.00000000000E+00 0. -1.
         -2   -1    0    0    0  501 -0.00000000000E+00 -0.00000000000E+00 -0.24934868586E+01  0.24934868586E+01  0.00000000000E+00 0.  1.
          1    1    1    2  502    0 -0.20279569314E+02 -0.94575107150E+01  0.10846673351E+03  0.11075079106E+03  0.00000000000E+00 0. -1.
         -1    1    1    2    0  501  0.20279569314E+02  0.94575107150E+01  0.91271732602E+02  0.93974648777E+02  0.00000000000E+00 0.  1.
</event>
<event>
 4    1  0.6888348E+001  0.3092873E+02  0.7546771E-02  0.1411694E+00
          2   -1    0    0  502    0  0.00000000000E+00  0.00000000000E+00  0.22309367874E+03  0.22309367874E+03  0.00000000000E+00 0.  1.
         -2   -1    0    0    0  501 -0.00000000000E+00 -0.00000000000E+00 -0.78137505504E+01  0.78137505504E+01  0.00000000000E+00 0. -1.
          1    1    1    2  502    0 -0.29199905791E+02 -0.10195673736E+02  0.30084068644E+02  0.43146696830E+02  0.00000000000E+00 0. -1.
         -1    1    1    2    0  501  0.29199905791E+02  0.10195673736E+02  0.18519585955E+03  0.18776073246E+03  0.00000000000E+00 0.  1.
</event>
<event>
 4    1  0.6888348E+001  0.2402415E+02  0.7546771E-02  0.1480023E+00
          2   -1    0    0  502    0  0.00000000000E+00  0.00000000000E+00  0.14832759244E+04  0.14832759244E+04  0.00000000000E+00 0. -1.
         -2   -1    0    0    0  501 -0.00000000000E+00 -0.00000000000E+00 -0.47152658410E+00  0.47152658410E+00  0.00000000000E+00 0.  1.
          1    1    1    2  502    0 -0.15949950775E+02 -0.17965487725E+02  0.43124610067E+03  0.43191475898E+03  0.00000000000E+00 0.  1.
         -1    1    1    2    0  501  0.15949950775E+02  0.17965487725E+02  0.10515582971E+04  0.10518326920E+04  0.00000000000E+00 0. -1.
</event>
<event>
 4    1  0.6888348E+001  0.2102044E+02  0.7546771E-02  0.1518973E+00
          2   -1    0    0  502    0  0.00000000000E+00  0.00000000000E+00  0.76034693535E+01  0.76034693535E+01  0.00000000000E+00 0.  1.
         -2   -1    0    0    0  501 -0.00000000000E+00 -0.00000000000E+00 -0.16981958716E+03  0.16981958716E+03  0.00000000000E+00 0. -1.
          1    1    1    2  502    0 -0.11663639690E+02  0.17487668896E+02 -0.91588687139E+01  0.22929106619E+02  0.00000000000E+00 0.  1.
         -1    1    1    2    0  501  0.11663639690E+02 -0.17487668896E+02 -0.15305724909E+03  0.15449394989E+03  0.00000000000E+00 0. -1.
</event>
<event>
 4    1  0.6888348E+001  0.3038327E+02  0.7546771E-02  0.1416295E+00
          2   -1    0    0  502    0  0.00000000000E+00  0.00000000000E+00  0.51945053243E+01  0.51945053243E+01  0.00000000000E+00 0.  1.
         -2   -1    0    0    0  501 -0.00000000000E+00 -0.00000000000E+00 -0.17794556141E+03  0.17794556141E+03  0.00000000000E+00 0. -1.
          1    1    1    2  502    0 -0.26771903022E+02 -0.14366909443E+02 -0.89669770307E+02  0.94677402717E+02  0.00000000000E+00 0. -1.
         -1    1    1    2    0  501  0.26771903022E+02  0.14366909443E+02 -0.83081285782E+02  0.88462664021E+02  0.00000000000E+00 0.  1.
</event>
<event>
 4    1  0.6888348E+001  0.3401636E+02  0.7546771E-02  0.1387613E+00
          2   -1    0    0  502    0  0.00000000000E+00  0.00000000000E+00  0.15472218263E+02  0.15472218263E+02  0.00000000000E+00 0. -1.
         -2   -1    0    0    0  501 -0.00000000000E+00 -0.00000000000E+00 -0.10351363514E+03  0.10351363514E+03  0.00000000000E+00 0.  1.
          1    1    1    2  502    0 -0.21696739463E+02  0.26198552032E+02 -0.75361713360E+02  0.82683132938E+02  0.00000000000E+00 0.  1.
         -1    1    1    2    0  501  0.21696739463E+02 -0.26198552032E+02 -0.12679703518E+02  0.36302720466E+02  0.00000000000E+00 0. -1.
</event>
<event>
 4    1  0.6888348E+001  0.6936395E+02  0.7546771E-02  0.1230957E+00
          2   -1    0    0  502    0  0.00000000000E+00  0.00000000000E+00  0.10052210389E+04  0.10052210389E+04  0.00000000000E+00 0. -1.
         -2   -1    0    0    0  501 -0.00000000000E+00 -0.00000000000E+00 -0.49803342157E+01  0.49803342157E+01  0.00000000000E+00 0.  1.
          1    1    1    2  502    0  0.21454069134E+02 -0.65962715214E+02  0.59980144730E+03  0.60379891774E+03  0.00000000000E+00 0. -1.
         -1    1    1    2    0  501 -0.21454069134E+02  0.65962715214E+02  0.40043925738E+03  0.40640245538E+03  0.00000000000E+00 0.  1.
</event>
<event>
 4    1  0.6888348E+001  0.2075506E+02  0.7546771E-02  0.1522791E+00
          2   -1    0    0  502    0  0.00000000000E+00  0.00000000000E+00  0.25000395916E+01  0.25000395916E+01  0.00000000000E+00 0.  1.
         -2   -1    0    0    0  501 -0.00000000000E+00 -0.00000000000E+00 -0.36576155237E+03  0.36576155237E+03  0.00000000000E+00 0. -1.
          1    1    1    2  502    0  0.20210412539E+02  0.47235459087E+01 -0.31554218009E+03  0.31622403463E+03  0.00000000000E+00 0. -1.
         -1    1    1    2    0  501 -0.20210412539E+02 -0.47235459087E+01 -0.47719332691E+02  0.52037557336E+02  0.00000000000E+00 0.  1.
</event>
<event>
 4    1  0.6888348E+001  0.2383693E+02  0.7546771E-02  0.1482248E+00
          2   -1    0    0  502    0  0.00000000000E+00  0.00000000000E+00  0.61192725870E+01  0.61192725870E+01  0.00000000000E+00 0. -1.
         -2   -1    0    0    0  501 -0.00000000000E+00 -0.00000000000E+00 -0.14304732627E+03  0.14304732627E+03  0.00000000000E+00 0.  1.
          1    1    1    2  502    0 -0.94210086429E+00  0.23818310406E+02 -0.24284166896E+02  0.34028226907E+02  0.00000000000E+00 0. -1.
         -1    1    1    2    0  501  0.94210086429E+00 -0.23818310406E+02 -0.11264388679E+03  0.11513837195E+03  0.00000000000E+00 0.  1.
</event>
<event>
 4    1  0.6888348E+001  0.3871091E+02  0.7546771E-02  0.1356210E+00
          2   -1    0    0  502    0  0.00000000000E+00  0.00000000000E+00  0.15462021454E+03  0.15462021454E+03  0.00000000000E+00 0. -1.
         -2   -1    0    0    0  501 -0.00000000000E+00 -0.00000000000E+00 -0.11627053174E+02  0.11627053174E+02  0.00000000000E+00 0.  1.
          1    1    1    2  502    0 -0.33382335874E+02 -0.19599845071E+02  0.37583387254E+02  0.53954103391E+02  0.00000000000E+00 0.  1.
         -1    1    1    2    0  501  0.33382335874E+02  0.19599845071E+02  0.10540977411E+03  0.11229316432E+03  0.00000000000E+00 0. -1.
</event>
<event>
 4    1  0.6888348E+001  0.2179452E+02  0.7546771E-02  0.1508217E+00
          2   -1    0    0  502    0  0.00000000000E+00  0.00000000000E+00  0.10406284751E+03  0.10406284751E+03  0.00000000000E+00 0. -1.
         -2   -1    0    0    0  501 -0.00000000000E+00 -0.00000000000E+00 -0.10635832615E+02  0.10635832615E+02  0.00000000000E+00 0.  1.
          1    1    1    2  502    0  0.19330298233E+02 -0.10066812790E+02  0.33841217660E+01  0.22055689281E+02  0.00000000000E+00 0.  1.
         -1    1    1    2    0  501 -0.19330298233E+02  0.10066812790E+02  0.90042893127E+02  0.92642990842E+02  0.00000000000E+00 0. -1.
</event>
<event>
 4    1  0.6888348E+001  0.6368544E+02  0.7546771E-02  0.1247800E+00
          2   -1    0    0  502    0  0.00000000000E+00  0.00000000000E+00  0.33465973055E+03  0.33465973055E+03  0.00000000000E+00 0. -1.
         -2   -1    0    0    0  501 -0.00000000000E+00 -0.00000000000E+00 -0.13442362390E+02  0.13442362390E+02  0.00000000000E+00 0.  1.
          1    1    1    2  502    0 -0.62786466504E+02  0.10662797031E+02  0.10600373944E+03  0.12366336722E+03  0.00000000000E+00 0.  1.
         -1    1    1    2    0  501  0.62786466504E+02 -0.10662797031E+02  0.21521362872E+03  0.22443872572E+03  0.00000000000E+00 0. -1.
</event>
<event>
 4    1  0.6888348E+001  0.2075463E+02  0.7546771E-02  0.1522797E+00
          2   -1    0    0  502    0  0.00000000000E+00  0.00000000000E+00  0.83974619785E+00  0.83974619785E+00  0.00000000000E+00 0. -1.
         -2   -1    0    0    0  501 -0.00000000000E+00 -0.00000000000E+00 -0.57345399550E+03  0.57345399550E+03  0.00000000000E+00 0.  1.
          1    1    1    2  502    0  0.20733805766E+02  0.92951987149E+00 -0.19304241405E+03  0.19415490808E+03  0.00000000000E+00 0. -1.
         -1    1    1    2    0  501 -0.20733805766E+02 -0.92951987149E+00 -0.37957183525E+03  0.38013883361E+03  0.00000000000E+00 0.  1.
</event>
<event>
 4    1  0.6888348E+001  0.2604771E+02  0.7546771E-02  0.1457416E+00
          2   -1    0    0  502    0  0.00000000000E+00  0.00000000000E+00  0.41486510739E+01  0.41486510739E+01  0.00000000000E+00 0. -1.
         -2   -1    0    0    0  501 -0.00000000000E+00 -0.00000000000E+00 -0.19004396597E+03  0.19004396597E+03  0.00000000000E+00 0.  1.
          1    1    1    2  502    0  0.37656137333E+01 -0.25774086321E+02 -0.56689520746E+02  0.62387379612E+02  0.00000000000E+00 0. -1.
         -1    1    1    2    0  501 -0.37656137333E+01  0.25774086321E+02 -0.12920579416E+03  0.13180523744E+03  0.00000000000E+00 0.  1.
</event>
<event>
 4    1  0.6888348E+001  0.2134917E+02  0.7546771E-02  0.1514338E+00
          2   -1    0    0  502    0  0.00000000000E+00  0.00000000000E+00  0.16584066196E+04  0.16584066196E+04  0.00000000000E+00 0.  1.
         -2   -1    0    0    0  501 -0.00000000000E+00 -0.00000000000E+00 -0.61061470390E+00  0.61061470390E+00  0.00000000000E+00 0. -1.
          1    1    1    2  502    0  0.77223442566E+00 -0.21335194867E+02  0.14440252993E+04  0.14441831089E+04  0.00000000000E+00 0.  1.
         -1    1    1    2    0  501 -0.77223442566E+00  0.21335194867E+02  0.21377070562E+03  0.21483412547E+03  0.00000000000E+00 0. -1.
</event>
<event>
 4    1  0.6888348E+001  0.2535156E+02  0.7546771E-02  0.1464909E+00
          2   -1    0    0  502    0  0.00000000000E+00  0.00000000000E+00  0.16246529737E+04  0.16246529737E+04  0.00000000000E+00 0.  1.
         -2   -1    0    0    0  501 -0.00000000000E+00 -0.00000000000E+00 -0.62997407315E+00  0.62997407315E+00  0.00000000000E+00 0. -1.
          1    1    1    2  502    0  0.50271694159E+01  0.24848121251E+02  0.13076885251E+04  0.13079342416E+04  0.00000000000E+00 0.  1.
         -1    1    1    2    0  501 -0.50271694159E+01 -0.24848121251E+02  0.31633447447E+03  0.31734870616E+03  0.00000000000E+00 0. -1.
</event>
<event>
 4    1  0.6888348E+001  0.2604606E+02  0.7546771E-02  0.1457433E+00
          2   -1    0    0  502    0  0.00000000000E+00  0.00000000000E+00  0.18776811291E+02  0.18776811291E+02  0.00000000000E+00 0.  1.
         -2   -1    0    0    0  501 -0.00000000000E+00 -0.00000000000E+00 -0.43593078235E+02  0.43593078235E+02  0.00000000000E+00 0. -1.
          1    1    1    2  502    0 -0.13684752001E+02 -0.22161340728E+02  0.49540253241E+00  0.26050775111E+02  0.00000000000E+00 0. -1.
         -1    1    1    2    0  501  0.13684752001E+02  0.22161340728E+02 -0.25311669477E+02  0.36319114415E+02  0.00000000000E+00 0.  1.
</event>
<event>
 4    1  0.6888348E+001  0.2070618E+02  0.7546771E-02  0.1523501E+00
          2   -1    0    0  502    0  0.00000000000E+00  0.00000000000E+00  0.11433834418E+03  0.11433834418E+03  0.00000000000E+00 0.  1.
         -2   -1    0    0    0  501 -0.00000000000E+00 -0.00000000000E+00 -0.11972919871E+02  0.11972919871E+02  0.00000000000E+00 0. -1.
          1    1    1    2  502    0  0.98910226300E+01 -0.18191030310E+02 -0.11568831962E+01  0.20738473694E+02  0.00000000000E+00 0. -1.
         -1    1    1    2    0  501 -0.98910226300E+01  0.18191030310E+02  0.10352230750E+03  0.10557279035E+03  0.00000000000E+00 0.  1.
</event>
<event>
 4    1  0.6888348E+001  0.2162864E+02  0.7546771E-02  0.1510476E+00
          2   -1    0    0  502    0  0.00000000000E+00  0.00000000000E+00  0.43297784162E+03  0.43297784162E+03  0.00000000000E+00 0.  1.
         -2   -1    0    0    0  501 -0.00000000000E+00 -0.00000000000E+00 -0.15982189468E+01  0.15982189468E+01  0.00000000000E+00 0. -1.
          1    1    1    2  502    0  0.15590969702E+02 -0.14990654369E+02  0.33936942393E+03  0.34005794206E+03  0.00000000000E+00 0.  1.
         -1    1    1    2    0  501 -0.15590969702E+02  0.14990654369E+02  0.92010198743E+02  0.94518118513E+02  0.00000000000E+00 0. -1.
</event>
<event>
 4    1  0.6888348E+001  0.2570524E+02  0.7546771E-02  0.1461066E+00
          2   -1    0    0  502    0  0.00000000000E+00  0.00000000000E+00  0.73109759887E+01  0.73109759887E+01  0.00000000000E+00 0. -1.
         -2   -1    0    0    0  501 -0.00000000000E+00 -0.00000000000E+00 -0.96098718517E+02  0.96098718517E+02  0.00000000000E+00 0.  1.
          1    1    1    2  502    0 -0.25705237381E+02  0.88866766798E-02 -0.31779760863E+02  0.40874350249E+02  0.00000000000E+00 0.  1.
         -1    1    1    2    0  501  0.25705237381E+02 -0.88866766798E-02 -0.57007981665E+02  0.62535344257E+02  0.00000000000E+00 0. -1.
</event>
<event>
 4    1  0.6888348E+001  0.2383182E+02  0.7546771E-02  0.1482309E+00
          2   -1    0    0  502    0  0.00000000000E+00  0.00000000000E+00  0.14642701309E+03  0.14642701309E+03  0.00000000000E+00 0.  1.
         -2   -1    0    0    0  501 -0.00000000000E+00 -0.00000000000E+00 -0.43232999096E+01  0.43232999096E+01  0.00000000000E+00 0. -1.
          1    1    1    2  502    0 -0.17127764973E+02 -0.16570914164E+02  0.46881950504E+02  0.52591565980E+02  0.00000000000E+00 0. -1.
         -1    1    1    2    0  501  0.17127764973E+02  0.16570914164E+02  0.95221762676E+02  0.98158747018E+02  0.00000000000E+00 0.  1.
</event>
<event>
 4    1  0.6888348E+001  0.2453345E+02  0.7546771E-02  0.1474091E+00
          2   -1    0    0  502    0  0.00000000000E+00  0.00000000000E+00  0.15182427521E+04  0.15182427521E+04  0.00000000000E+00 0.  1.
         -2   -1    0    0    0  501 -0.00000000000E+00 -0.00000000000E+00 -0.40278420086E+00  0.40278420086E+00  0.00000000000E+00 0. -1.
          1    1    1    2  502    0  0.24034202155E+02 -0.49241516192E+01  0.85422682514E+03  0.85457905365E+03  0.00000000000E+00 0. -1.
         -1    1    1    2    0  501 -0.24034202155E+02  0.49241516192E+01  0.66361314274E+03  0.66406648264E+03  0.00000000000E+00 0.  1.
</event>
<event>
 4    1  0.6888348E+001  0.2111892E+02  0.7546771E-02  0.1517574E+00
          2   -1    0    0  502    0  0.00000000000E+00  0.00000000000E+00  0.34231988856E+03  0.34231988856E+03  0.00000000000E+00 0.  1.
         -2   -1    0    0    0  501 -0.00000000000E+00 -0.00000000000E+00 -0.13130684885E+01  0.13130684885E+01  0.00000000000E+00 0. -1.
          1    1    1    2  502    0  0.10173592160E+02  0.18506938089E+02  0.18562299393E+03  0.18682051443E+03  0.00000000000E+00 0.  1.
         -1    1    1    2    0  501 -0.10173592160E+02 -0.18506938089E+02  0.15538382613E+03  0.15681244261E+03  0.00000000000E+00 0. -1.
</event>
<event>
 4    1  0.6888348E+001  0.2757371E+02  0.7546771E-02  0.1441929E+00
          2   -1    0    0  502    0  0.00000000000E+00  0.00000000000E+00  0.25266641350E+02  0.25266641350E+02  0.00000000000E+00 0.  1.
         -2   -1    0    0    0  501 -0.00000000000E+00 -0.00000000000E+00 -0.53482004808E+02  0.53482004808E+02  0.00000000000E+00 0. -1.
          1    1    1    2  502    0  0.26732252999E+02  0.67599033004E+01  0.11931636420E+02  0.30044526801E+02  0.00000000000E+00 0.  1.
         -1    1    1    2    0  501 -0.26732252999E+02 -0.67599033004E+01 -0.40146999879E+02  0.48704119357E+02  0.00000000000E+00 0. -1.
</event>
<event>
 4    1  0.6888348E+001  0.2001829E+02  0.7546771E-02  0.1533756E+00
          2   -1    0    0  502    0  0.00000000000E+00  0.00000000000E+00  0.94764050836E+01  0.94764050836E+01  0.00000000000E+00 0.  1.
         -2   -1    0    0    0  501 -0.00000000000E+00 -0.00000000000E+00 -0.54784072501E+02  0.54784072501E+02  0.00000000000E+00 0. -1.
          1    1    1    2  502    0  0.28766631198E+01  0.19810525446E+02 -0.37999465265E+02  0.42949871590E+02  0.00000000000E+00 0.  1.
         -1    1    1    2    0  501 -0.28766631198E+01 -0.19810525446E+02 -0.73082021520E+01  0.21310605994E+02  0.00000000000E+00 0. -1.
</event>
<event>
 4    1  0.6888348E+001  0.2390812E+02  0.7546771E-02  0.1481399E+00
          2   -1    0    0  502    0  0.00000000000E+00  0.00000000000E+00  0.53453905179E+03  0.53453905179E+03  0.00000000000E+00 0. -1.
         -2   -1    0    0    0  501 -0.00000000000E+00 -0.00000000000E+00 -0.11033996781E+01  0.11033996781E+01  0.00000000000E+00 0.  1.
          1    1    1    2  502    0  0.20710920473E+02  0.11943870242E+02  0.31377947343E+03  0.31468898329E+03  0.00000000000E+00 0. -1.
         -1    1    1    2    0  501 -0.20710920473E+02 -0.11943870242E+02  0.21965617868E+03  0.22095346817E+03  0.00000000000E+00 0.  1.
</event>
<event>
 4    1  0.6888348E+001  0.2150187E+02  0.7546771E-02  0.1512219E+00
          2   -1    0    0  502    0  0.00000000000E+00  0.00000000000E+00  0.33499170122E+03  0.33499170122E+03  0.00000000000E+00 0. -1.
         -2   -1    0    0    0  501 -0.00000000000E+00 -0.00000000000E+00 -0.16862594511E+01  0.16862594511E+01  0.00000000000E+00 0.  1.
          1    1    1    2  502    0 -0.87995804271E+01  0.19618815293E+02  0.23837901110E+03  0.23934678495E+03  0.00000000000E+00 0. -1.
         -1    1    1    2    0  501  0.87995804271E+01 -0.19618815293E+02  0.94926430666E+02  0.97331175726E+02  0.00000000000E+00 0.  1.
</event>
<event>
 4    1  0.6888348E+001  0.4272640E+02  0.7546771E-02  0.1333209E+00
          2   -1    0    0  502    0  0.00000000000E+00  0.00000000000E+00  0.36381055753E+03  0.36381055753E+03  0.00000000000E+00 0.  1.
         -2   -1    0    0    0  501 -0.00000000000E+00 -0.00000000000E+00 -0.51749005766E+01  0.51749005766E+01  0.00000000000E+00 0. -1.
          1    1    1    2  502    0  0.42726399845E+02  0.12119507490E-01  0.14717727160E+03  0.15325369381E+03  0.00000000000E+00 0.  1.
         -1    1    1    2    0  501 -0.42726399845E+02 -0.12119507490E-01  0.21145838535E+03  0.21573176430E+03  0.00000000000E+00 0. -1.
</event>
<event>
 4    1  0.6888348E+001  0.3564698E+02  0.7546771E-02  0.1376071E+00
          2   -1    0    0  502    0  0.00000000000E+00  0.00000000000E+00  0.31506111436E+01  0.31506111436E+01  0.00000000000E+00 0. -1.
         -2   -1    0    0    0  501 -0.00000000000E+00 -0.00000000000E+00 -0.58081357682E+03  0.58081357682E+03  0.00000000000E+00 0.  1.
          1    1    1    2  502    0  0.17169853657E+01  0.35605603264E+02 -0.45024064191E+03  0.45164957948E+03  0.00000000000E+00 0.  1.
         -1    1    1    2    0  501 -0.17169853657E+01 -0.35605603264E+02 -0.12742232378E+03  0.13231460849E+03  0.00000000000E+00 0. -1.
</event>
<event>
 4    1  0.6888348E+001  0.2189252E+02  0.7546771E-02  0.1506894E+00
          2   -1    0    0  502    0  0.00000000000E+00  0.00000000000E+00  0.18969367772E+02  0.18969367772E+02  0.00000000000E+00 0. -1.
         -2   -1    0    0    0  501 -0.00000000000E+00 -0.00000000000E+00 -0.49727428347E+02  0.49727428347E+02  0.00000000000E+00 0.  1.
          1    1    1    2  502    0  0.20635729656E+02  0.73108767824E+01  0.87116108603E+01  0.23562139579E+02  0.00000000000E+00 0. -1.
         -1    1    1    2    0  501 -0.20635729656E+02 -0.73108767824E+01 -0.39469671435E+02  0.45134656540E+02  0.00000000000E+00 0.  1.
</event>
<event>
 4    1  0.6888348E+001  0.2284046E+02  0.7546771E-02  0.1494511E+00
          2   -1    0    0  502    0  0.00000000000E+00  0.00000000000E+00  0.21103988398E+01  0.21103988398E+01  0.00000000000E+00 0.  1.
         -2   -1    0    0    0  501 -0.00000000000E+00 -0.00000000000E+00 -0.24954225254E+03  0.24954225254E+03  0.00000000000E+00 0. -1.
          1    1    1    2  502    0  0.18089250908E+02 -0.13945098452E+02 -0.11152085822E+03  0.11383579660E+03  0.00000000000E+00 0.  1.
         -1    1    1    2    0  501 -0.18089250908E+02  0.13945098452E+02 -0.13591099548E+03  0.13781685478E+03  0.00000000000E+00 0. -1.
</event>
<event>
 4    1  0.6888348E+001  0.3659185E+02  0.7546771E-02  0.1369705E+00
          2   -1    0    0  502    0  0.00000000000E+00  0.00000000000E+00  0.32083926515E+04  0.32083926515E+04  0.00000000000E+00 0. -1.
         -2   -1    0    0    0  501 -0.00000000000E+00 -0.00000000000E+00 -0.48945457448E+00  0.48945457448E+00  0.00000000000E+00 0.  1.
          1    1    1    2  502    0  0.14936459034E+02  0.33404573425E+02  0.98805944608E+03  0.98873678617E+03  0.00000000000E+00 0.  1.
         -1    1    1    2    0  501 -0.14936459034E+02 -0.33404573425E+02  0.22198437509E+04  0.22201453199E+04  0.00000000000E+00 0. -1.
</event>
<event>
 4    1  0.6888348E+001  0.2827204E+02  0.7546771E-02  0.1435232E+00
          2   -1    0    0  502    0  0.00000000000E+00  0.00000000000E+00  0.97498271156E+03  0.97498271156E+03  0.00000000000E+00 0.  1.
         -2   -1    0    0    0  501 -0.00000000000E+00 -0.00000000000E+00 -0.91802837338E+00  0.91802837338E+00  0.00000000000E+00 0. -1.
          1    1    1    2  502    0 -0.21204430447E+01 -0.28192412374E+02  0.32743478397E+03  0.32865307871E+03  0.00000000000E+00 0. -1.
         -1    1    1    2    0  501  0.21204430447E+01  0.28192412374E+02  0.64662989922E+03  0.64724766123E+03  0.00000000000E+00 0.  1.
</event>
<event>
 4    1  0.6888348E+001  0.2042872E+02  0.7546771E-02  0.1527580E+00
          2   -1    0    0  502    0  0.00000000000E+00  0.00000000000E+00  0.25395190340E+03  0.25395190340E+03  0.00000000000E+00 0.  1.
         -2   -1    0    0    0  501 -0.00000000000E+00 -0.00000000000E+00 -0.19482493278E+01  0.19482493278E+01  0.00000000000E+00 0. -1.
          1    1    1    2  502    0  0.20428109750E+02  0.15754845081E+00  0.75385019372E+02  0.78103992441E+02  0.00000000000E+00 0. -1.
         -1    1    1    2    0  501 -0.20428109750E+02 -0.15754845081E+00  0.17661863470E+03  0.17779616029E+03  0.00000000000E+00 0.  1.
</event>
<event>
 4    1  0.6888348E+001  0.2174290E+02  0.7546771E-02  0.1508917E+00
          2   -1    0    0  502    0  0.00000000000E+00  0.00000000000E+00  0.51709560779E+03  0.51709560779E+03  0.00000000000E+00 0.  1.
         -2   -1    0    0    0  501 -0.00000000000E+00 -0.00000000000E+00 -0.10372870032E+01  0.10372870032E+01  0.00000000000E+00 0. -1.
          1    1    1    2  502    0 -0.69184465320E+01  0.20612825653E+02  0.16880477069E+03  0.17019930696E+03  0.00000000000E+00 0. -1.
         -1    1    1    2    0  501  0.69184465320E+01 -0.20612825653E+02  0.34725355010E+03  0.34793358783E+03  0.00000000000E+00 0.  1.
</event>
<event>
 4    1  0.6888348E+001  0.3090230E+02  0.7546771E-02  0.1411914E+00
          2   -1    0    0  502    0  0.00000000000E+00  0.00000000000E+00  0.17575433673E+03  0.17575433673E+03  0.00000000000E+00 0. -1.
         -2   -1    0    0    0  501 -0.00000000000E+00 -0.00000000000E+00 -0.56520492965E+01  0.56520492965E+01  0.00000000000E+00 0.  1.
          1    1    1    2  502    0 -0.27374198563E+02  0.14338948172E+02  0.10288910530E+03  0.10742960566E+03  0.00000000000E+00 0. -1.
         -1    1    1    2    0  501  0.27374198563E+02 -0.14338948172E+02  0.67213182130E+02  0.73976780368E+02  0.00000000000E+00 0.  1.
</event>
<event>
 4    1  0.6888348E+001  0.5831742E+02  0.7546771E-02  0.1265659E+00
          2   -1    0    0  502    0  0.00000000000E+00  0.00000000000E+00  0.21197509740E+04  0.21197509740E+04  0.00000000000E+00 0.  1.
         -2   -1    0    0    0  501 -0.00000000000E+00 -0.00000000000E+00 -0.17877564187E+01  0.17877564187E+01  0.00000000000E+00 0. -1.
          1    1    1    2  502    0  0.22603097906E+02 -0.53758918361E+02  0.71926339249E+03  0.72162368941E+03  0.00000000000E+00 0. -1.
         -1    1    1    2    0  501 -0.22603097906E+02  0.53758918361E+02  0.13986998251E+04  0.13999150410E+04  0.00000000000E+00 0.  1.
</event>
<event>
 4    1  0.6888348E+001  0.4666473E+02  0.7546771E-02  0.1313319E+00
          2   -1    0    0  502    0  0.00000000000E+00  0.00000000000E+00  0.16951004962E+04  0.16951004962E+04  0.00000000000E+00 0.  1.
         -2   -1    0    0    0  501 -0.00000000000E+00 -0.00000000000E+00 -0.14887409974E+01  0.14887409974E+01  0.00000000000E+00 0. -1.
          1    1    1    2  502    0  0.24598733337E+02 -0.39654756785E+02  0.11608983256E+04  0.11618358403E+04  0.00000000000E+00 0. -1.
         -1    1    1    2    0  501 -0.24598733337E+02  0.39654756785E+02  0.53271342956E+03  0.53475339686E+03  0.00000000000E+00 0.  1.
</event>
<event>
 4    1  0.6888348E+001  0.4305669E+02  0.7546771E-02  0.1331448E+00
          2   -1    0    0  502    0  0.00000000000E+00  0.00000000000E+00  0.16651277344E+02  0.16651277344E+02  0.00000000000E+00 0.  1.
         -2   -1    0    0    0  501 -0.00000000000E+00 -0.00000000000E+00 -0.12477913033E+03  0.12477913033E+03  0.00000000000E+00 0. -1.
          1    1    1    2  502    0  0.42880176557E+02 -0.38947269974E+01 -0.30852600312E+02  0.52969438226E+02  0.00000000000E+00 0.  1.
         -1    1    1    2    0  501 -0.42880176557E+02  0.38947269974E+01 -0.77275252669E+02  0.88460969444E+02  0.00000000000E+00 0. -1.
</event>
<event>
 4    1  0.6888348E+001  0.3456376E+02  0.7546771E-02  0.1383656E+00
          2   -1    0    0  502    0  0.00000000000E+00  0.00000000000E+00  0.29624193385E+04  0.29624193385E+04  0.00000000000E+00 0. -1.
         -2   -1    0    0    0  501 -0.00000000000E+00 -0.00000000000E+00 -0.40626781777E+00  0.40626781777E+00  0.00000000000E+00 0.  1.
          1    1    1    2  502    0 -0.33121770983E+02 -0.98793576011E+01  0.16082710679E+04  0.16086424342E+04  0.00000000000E+00 0. -1.
         -1    1    1    2    0  501  0.33121770983E+02  0.98793576011E+01  0.13537420028E+04  0.13541831720E+04  0.00000000000E+00 0.  1.
</event>
<event>
 4    1  0.6888348E+001  0.2692703E+02  0.7546771E-02  0.1448343E+00
          2   -1    0    0  502    0  0.00000000000E+00  0.00000000000E+00  0.13504685592E+02  0.13504685592E+02  0.00000000000E+00 0. -1.
         -2   -1    0    0    0  501 -0.00000000000E+00 -0.00000000000E+00 -0.57070977247E+02  0.57070977247E+02  0.00000000000E+00 0.  1.
          1    1    1    2  502    0  0.26589657526E+02 -0.42491140874E+01 -0.30372224472E+02  0.40589861754E+02  0.00000000000E+00 0.  1.
         -1    1    1    2    0  501 -0.26589657526E+02  0.42491140874E+01 -0.13194067183E+02  0.29985801085E+02  0.00000000000E+00 0. -1.
</event>
<event>
 4    1  0.6888348E+001  0.4073995E+02  0.7546771E-02  0.1344203E+00
          2   -1    0    0  502    0  0.00000000000E+00  0.00000000000E+00  0.17668755790E+02  0.17668755790E+02  0.00000000000E+00 0. -1.
         -2   -1    0    0    0  501 -0.00000000000E+00 -0.00000000000E+00 -0.95249724729E+02  0.95249724729E+02  0.00000000000E+00 0.  1.
          1    1    1    2  502    0  0.26147958516E+02  0.31241441219E+02 -0.45419531676E+02  0.61013746333E+02  0.00000000000E+00 0. -1.
         -1    1    1    2    0  501 -0.26147958516E+02 -0.31241441219E+02 -0.32161437264E+02  0.51904734185E+02  0.00000000000E+00 0.  1.
</event>
<event>
 4    1  0.6888348E+001  0.2383500E+02  0.7546771E-02  0.1482271E+00
          2   -1    0    0  502    0  0.00000000000E+00  0.00000000000E+00  0.39460928271E+03  0.39460928271E+03  0.00000000000E+00 0.  1.
         -2   -1    0    0    0  501 -0.00000000000E+00 -0.00000000000E+00 -0.20787190274E+01  0.20787190274E+01  0.00000000000E+00 0. -1.
          1    1    1    2  502    0 -0.10442094502E+02  0.21425921375E+02  0.86291792280E+02  0.89523074452E+02  0.00000000000E+00 0. -1.
         -1    1    1    2    0  501  0.10442094502E+02 -0.21425921375E+02  0.30623877140E+03  0.30716492728E+03  0.00000000000E+00 0.  1.
</event>
<event>
 4    1  0.6888348E+001  0.2320903E+02  0.7546771E-02  0.1489890E+00
          2   -1    0    0  502    0  0.00000000000E+00  0.00000000000E+00  0.78519064439E+02  0.78519064439E+02  0.00000000000E+00 0. -1.
         -2   -1    0    0    0  501 -0.00000000000E+00 -0.00000000000E+00 -0.83754610022E+01  0.83754610022E+01  0.00000000000E+00 0.  1.
          1    1    1    2  502    0  0.19759816357E+02 -0.12174097439E+02  0.16592004105E+02  0.28529871910E+02  0.00000000000E+00 0. -1.
         -1    1    1    2    0  501 -0.19759816357E+02  0.12174097439E+02  0.53551599332E+02  0.58364653532E+02  0.00000000000E+00 0.  1.
</event>
<event>
 4    1  0.6888348E+001  0.2165757E+02  0.7546771E-02  0.1510080E+00
          2   -1    0    0  502    0  0.00000000000E+00  0.00000000000E+00  0.12764719225E+04  0.12764719225E+04  0.00000000000E+00 0. -1.
         -2   -1    0    0    0  501 -0.00000000000E+00 -0.00000000000E+00 -0.47965935054E+00  0.47965935054E+00  0.00000000000E+00 0.  1.
          1    1    1    2  502    0  0.20057566887E+02 -0.81697193616E+01  0.94679541606E+03  0.94704308781E+03  0.00000000000E+00 0. -1.
         -1    1    1    2    0  501 -0.20057566887E+02  0.81697193616E+01  0.32919684710E+03  0.32990849405E+03  0.00000000000E+00 0.  1.
</event>
<event>
 4    1  0.6888348E+001  0.3845785E+02  0.7546771E-02  0.1357768E+00
          2   -1    0    0  502    0  0.00000000000E+00  0.00000000000E+00  0.76013506523E+01  0.76013506523E+01  0.00000000000E+00 0. -1.
         -2   -1    0    0    0  501 -0.00000000000E+00 -0.00000000000E+00 -0.22377015916E+03  0.22377015916E+03  0.00000000000E+00 0.  1.
          1    1    1    2  502    0 -0.36855235893E+02 -0.10986260552E+02 -0.66295582957E+02  0.76642746906E+02  0.00000000000E+00 0. -1.
         -1    1    1    2    0  501  0.36855235893E+02  0.10986260552E+02 -0.14987322556E+03  0.15472876291E+03  0.00000000000E+00 0.  1.
</event>
<event>
 4    1  0.6888348E+001  0.2523707E+02  0.7546771E-02  0.1466169E+00
          2   -1    0    0  502    0  0.00000000000E+00  0.00000000000E+00  0.33092377056E+01  0.33092377056E+01  0.00000000000E+00 0.  1.
         -2   -1    0    0    0  501 -0.00000000000E+00 -0.00000000000E+00 -0.32495097103E+03  0.32495097103E+03  0.00000000000E+00 0. -1.
          1    1    1    2  502    0  0.50925042676E+01 -0.24717934160E+02 -0.56019838421E+02  0.61442104175E+02  0.00000000000E+00 0.  1.
         -1    1    1    2    0  501 -0.50925042676E+01  0.24717934160E+02 -0.26562189490E+03  0.26681810456E+03  0.00000000000E+00 0. -1.
</event>
<event>
 4    1  0.6888348E+001  0.3340854E+02  0.7546771E-02  0.1392110E+00
          2   -1    0    0  502    0  0.00000000000E+00  0.00000000000E+00  0.25779679608E+04  0.25779679608E+04  0.00000000000E+00 0.  1.
         -2   -1    0    0    0  501 -0.00000000000E+00 -0.00000000000E+00 -0.60923899286E+00  0.60923899286E+00  0.00000000000E+00 0. -1.
          1    1    1    2  502    0  0.27027195656E+02  0.19638263125E+02  0.59514312734E+03  0.59608008917E+03  0.00000000000E+00 0. -1.
         -1    1    1    2    0  501 -0.27027195656E+02 -0.19638263125E+02  0.19822155944E+04  0.19824971106E+04  0.00000000000E+00 0.  1.
</event>
<event>
 4    1  0.6888348E+001  0.4582623E+02  0.7546771E-02  0.1317359E+00
          2   -1    0    0  502    0  0.00000000000E+00  0.00000000000E+00  0.80389781492E+03  0.80389781492E+03  0.00000000000E+00 0.  1.
         -2   -1    0    0    0  501 -0.00000000000E+00 -0.00000000000E+00 -0.26699601759E+01  0.26699601759E+01  0.00000000000E+00 0. -1.
          1    1    1    2  502    0 -0.45773923313E+02 -0.21888038813E+01  0.34136238322E+03  0.34442462106E+03  0.00000000000E+00 0. -1.
         -1    1    1    2    0  501  0.45773923313E+02  0.21888038813E+01  0.45986547152E+03  0.46214315403E+03  0.00000000000E+00 0.  1.
</event>
<event>
 4    1  0.6888348E+001  0.4440955E+02  0.7546771E-02  0.1324418E+00
          2   -1    0    0  502    0  0.00000000000E+00  0.00000000000E+00  0.10397625545E+04  0.10397625545E+04  0.00000000000E+00 0.  1.
         -2   -1    0    0    0  501 -0.00000000000E+00 -0.00000000000E+00 -0.19419758035E+01  0.19419758035E+01  0.00000000000E+00 0. -1.
          1    1    1    2  502    0 -0.25573246479E+02 -0.36307258571E+02  0.59836299663E+03  0.60000873635E+03  0.00000000000E+00 0. -1.
         -1    1    1    2    0  501  0.25573246479E+02  0.36307258571E+02  0.43945758207E+03  0.44169579395E+03  0.00000000000E+00 0.  1.
</event>
<event>
 4    1  0.6888348E+001  0.2075615E+02  0.7546771E-02  0.1522775E+00
          2   -1    0    0  502    0  0.00000000000E+00  0.00000000000E+00  0.67935914734E+03  0.67935914734E+03  0.00000000000E+00 0. -1.
         -2   -1    0    0    0  501 -0.00000000000E+00 -0.00000000000E+00 -0.82041372130E+00  0.82041372130E+00  0.00000000000E+00 0.  1.
          1    1    1    2  502    0  0.18933579634E+02  0.85051322699E+01  0.50131511564E+03  0.50174461918E+03  0.00000000000E+00 0. -1.
         -1    1    1    2    0  501 -0.18933579634E+02 -0.85051322699E+01  0.17722361798E+03  0.17843494188E+03  0.00000000000E+00 0.  1.
</event>
<event>
 4    1  0.6888348E+001  0.5011115E+02  0.7546771E-02  0.1297691E+00
          2   -1    0    0  502    0  0.00000000000E+00  0.00000000000E+00  0.28692192046E+02  0.28692192046E+02  0.00000000000E+00 0.  1.
         -2   -1    0    0    0  501 -0.00000000000E+00 -0.00000000000E+00 -0.10279082498E+03  0.10279082498E+03  0.00000000000E+00 0. -1.
          1    1    1    2  502    0 -0.28269689975E+02  0.41375737557E+02 -0.11709673685E+02  0.51461087119E+02  0.00000000000E+00 0.  1.
         -1    1    1    2    0  501  0.28269689975E+02 -0.41375737557E+02 -0.62388959248E+02  0.80021929905E+02  0.00000000000E+00 0. -1.
</event>
<event>
 4    1  0.6888348E+001  0.2794241E+02  0.7546771E-02  0.1438364E+00
          2   -1    0    0  502    0  0.00000000000E+00  0.00000000000E+00  0.23196950688E+02  0.23196950688E+02  0.00000000000E+00 0. -1.
         -2   -1    0    0    0  501 -0.00000000000E+00 -0.00000000000E+00 -0.34568743287E+02  0.34568743287E+02  0.00000000000E+00 0.  1.
          1    1    1    2  502    0 -0.64921720653E+00 -0.27934867575E+02 -0.99950625163E+00  0.27960281153E+02  0.00000000000E+00 0. -1.
         -1    1    1    2    0  501  0.64921720653E+00  0.27934867575E+02 -0.10372286348E+02  0.29805412822E+02  0.00000000000E+00 0.  1.
</event>
<event>
 4    1  0.6888348E+001  0.1163989E+03  0.7546771E-02  0.1138080E+00
          2   -1    0    0  502    0  0.00000000000E+00  0.00000000000E+00  0.33244924244E+03  0.33244924244E+03  0.00000000000E+00 0.  1.
         -2   -1    0    0    0  501 -0.00000000000E+00 -0.00000000000E+00 -0.13516310551E+03  0.13516310551E+03  0.00000000000E+00 0. -1.
          1    1    1    2  502    0  0.52928060718E+01 -0.11627855223E+03 -0.96760859100E+02  0.15136505329E+03  0.00000000000E+00 0. -1.
         -1    1    1    2    0  501 -0.52928060718E+01  0.11627855223E+03  0.29404699603E+03  0.31624729466E+03  0.00000000000E+00 0.  1.
</event>
<event>
 4    1  0.6888348E+001  0.8631997E+02  0.7546771E-02  0.1189889E+00
          2   -1    0    0  502    0  0.00000000000E+00  0.00000000000E+00  0.66921196148E+03  0.66921196148E+03  0.00000000000E+00 0.  1.
         -2   -1    0    0    0  501 -0.00000000000E+00 -0.00000000000E+00 -0.17479126079E+02  0.17479126079E+02  0.00000000000E+00 0. -1.
          1    1    1    2  502    0 -0.51661573450E+01 -0.86165234148E+02  0.53273045562E+03  0.53967849235E+03  0.00000000000E+00 0.  1.
         -1    1    1    2    0  501  0.51661573450E+01  0.86165234148E+02  0.11900237978E+03  0.14701259522E+03  0.00000000000E+00 0. -1.
</event>
<event>
 4    1  0.6888348E+001  0.2069440E+02  0.7546771E-02  0.1523673E+00
          2   -1    0    0  502    0  0.00000000000E+00  0.00000000000E+00  0.69741847082E+03  0.69741847082E+03  0.00000000000E+00 0.  1.
         -2   -1    0    0    0  501 -0.00000000000E+00 -0.00000000000E+00 -0.72348122485E+00  0.72348122485E+00  0.00000000000E+00 0. -1.
          1    1    1    2  502    0  0.93201652183E+01  0.18476819140E+02  0.21259540800E+03  0.21360024773E+03  0.00000000000E+00 0.  1.
         -1    1    1    2    0  501 -0.93201652183E+01 -0.18476819140E+02  0.48409958159E+03  0.48454170432E+03  0.00000000000E+00 0. -1.
</event>
<event>
 4    1  0.6888348E+001  0.2111516E+02  0.7546771E-02  0.1517627E+00
          2   -1    0    0  502    0  0.00000000000E+00  0.00000000000E+00  0.88215728552E+02  0.88215728552E+02  0.00000000000E+00 0. -1.
         -2   -1    0    0    0  501 -0.00000000000E+00 -0.00000000000E+00 -0.55779080841E+01  0.55779080841E+01  0.00000000000E+00 0.  1.
          1    1    1    2  502    0 -0.13695169114E+02 -0.16071478750E+02  0.26947525068E+02  0.34234765861E+02  0.00000000000E+00 0.  1.
         -1    1    1    2    0  501  0.13695169114E+02  0.16071478750E+02  0.55690295400E+02  0.59558870775E+02  0.00000000000E+00 0. -1.
</event>
<event>
 4    1  0.6888348E+001  0.2391983E+02  0.7546771E-02  0.1481260E+00
          2   -1    0    0  502    0  0.00000000000E+00  0.00000000000E+00  0.24816960601E+04  0.24816960601E+04  0.00000000000E+00 0. -1.
         -2   -1    0    0    0  501 -0.00000000000E+00 -0.00000000000E+00 -0.23289312023E+00  0.23289312023E+00  0.00000000000E+00 0.  1.
          1    1    1    2  502    0  0.21121687552E+02 -0.11226429697E+02  0.13651692822E+04  0.13653788219E+04  0.00000000000E+00 0.  1.
         -1    1    1    2    0  501 -0.21121687552E+02  0.11226429697E+02  0.11162938848E+04  0.11165501313E+04  0.00000000000E+00 0. -1.
</event>
<event>
 4    1  0.6888348E+001  0.2113157E+02  0.7546771E-02  0.1517395E+00
          2   -1    0    0  502    0  0.00000000000E+00  0.00000000000E+00  0.21068388316E+02  0.21068388316E+02  0.00000000000E+00 0. -1.
         -2   -1    0    0    0  501 -0.00000000000E+00 -0.00000000000E+00 -0.26330345984E+02  0.26330345984E+02  0.00000000000E+00 0.  1.
          1    1    1    2  502    0  0.19933457552E+02  0.70142969765E+01  0.78353922112E+01  0.22537445799E+02  0.00000000000E+00 0. -1.
         -1    1    1    2    0  501 -0.19933457552E+02 -0.70142969765E+01 -0.13097349880E+02  0.24861288501E+02  0.00000000000E+00 0.  1.
</event>
<event>
 4    1  0.6888348E+001  0.2978236E+02  0.7546771E-02  0.1421497E+00
          2   -1    0    0  502    0  0.00000000000E+00  0.00000000000E+00  0.11246686887E+04  0.11246686887E+04  0.00000000000E+00 0. -1.
         -2   -1    0    0    0  501 -0.00000000000E+00 -0.00000000000E+00 -0.83134825256E+00  0.83134825256E+00  0.00000000000E+00 0.  1.
          1    1    1    2  502    0  0.10489500498E+02  0.27873995490E+02  0.68942796908E+03  0.69007094838E+03  0.00000000000E+00 0.  1.
         -1    1    1    2    0  501 -0.10489500498E+02 -0.27873995490E+02  0.43440937139E+03  0.43542908860E+03  0.00000000000E+00 0. -1.
</event>
<event>
 4    1  0.6888348E+001  0.2638865E+02  0.7546771E-02  0.1453848E+00
          2   -1    0    0  502    0  0.00000000000E+00  0.00000000000E+00  0.20807244751E+04  0.20807244751E+04  0.00000000000E+00 0.  1.
         -2   -1    0    0    0  501 -0.00000000000E+00 -0.00000000000E+00 -0.33974001897E+00  0.33974001897E+00  0.00000000000E+00 0. -1.
          1    1    1    2  502    0 -0.40455800992E+01 -0.26076698779E+02  0.11672750881E+04  0.11675733348E+04  0.00000000000E+00 0.  1.
         -1    1    1    2    0  501  0.40455800992E+01  0.26076698779E+02  0.91310964699E+03  0.91349088028E+03  0.00000000000E+00 0. -1.
</event>
<event>
 4    1  0.6888348E+001  0.2245630E+02  0.7546771E-02  0.1499441E+00
          2   -1    0    0  502    0  0.00000000000E+00  0.00000000000E+00  0.22939921073E+04  0.22939921073E+04  0.00000000000E+00 0. -1.
         -2   -1    0    0    0  501 -0.00000000000E+00 -0.00000000000E+00 -0.22233890258E+00  0.22233890258E+00  0.00000000000E+00 0.  1.
          1    1    1    2  502    0 -0.10462437048E+02 -0.19870144182E+02  0.10249988804E+04  0.10252448440E+04  0.00000000000E+00 0. -1.
         -1    1    1    2    0  501  0.10462437048E+02  0.19870144182E+02  0.12687708880E+04  0.12689696022E+04  0.00000000000E+00 0.  1.
</event>
<event>
 4    1  0.6888348E+001  0.2040857E+02  0.7546771E-02  0.1527879E+00
          2   -1    0    0  502    0  0.00000000000E+00  0.00000000000E+00  0.10359396366E+04  0.10359396366E+04  0.00000000000E+00 0.  1.
         -2   -1    0    0    0  501 -0.00000000000E+00 -0.00000000000E+00 -0.59837472309E+00  0.59837472309E+00  0.00000000000E+00 0. -1.
          1    1    1    2  502    0  0.14975276216E+02  0.13865460019E+02  0.22081515460E+03  0.22175626796E+03  0.00000000000E+00 0. -1.
         -1    1    1    2    0  501 -0.14975276216E+02 -0.13865460019E+02  0.81452610732E+03  0.81478174340E+03  0.00000000000E+00 0.  1.
</event>
<event>
 4    1  0.6888348E+001  0.3889029E+02  0.7546771E-02  0.1355114E+00
          2   -1    0    0  502    0  0.00000000000E+00  0.00000000000E+00  0.50759261659E+03  0.50759261659E+03  0.00000000000E+00 0. -1.
         -2   -1    0    0    0  501 -0.00000000000E+00 -0.00000000000E+00 -0.45573637733E+01  0.45573637733E+01  0.00000000000E+00 0.  1.
          1    1    1    2  502    0  0.20974834422E+02 -0.32749215289E+02  0.40218620072E+03  0.40406211754E+03  0.00000000000E+00 0. -1.
         -1    1    1    2    0  501 -0.20974834422E+02  0.32749215289E+02  0.10084905210E+03  0.10808786283E+03  0.00000000000E+00 0.  1.
</event>
<event>
 4    1  0.6888348E+001  0.2189399E+02  0.7546771E-02  0.1506874E+00
          2   -1    0    0  502    0  0.00000000000E+00  0.00000000000E+00  0.19966255500E+03  0.19966255500E+03  0.00000000000E+00 0. -1.
         -2   -1    0    0    0  501 -0.00000000000E+00 -0.00000000000E+00 -0.29429332921E+01  0.29429332921E+01  0.00000000000E+00 0.  1.
          1    1    1    2  502    0  0.18526108431E+02 -0.11667484558E+02  0.14183985766E+03  0.14351965758E+03  0.00000000000E+00 0. -1.
         -1    1    1    2    0  501 -0.18526108431E+02  0.11667484558E+02  0.54879764046E+02  0.59085830715E+02  0.00000000000E+00 0.  1.
</event>
<event>
 4    1  0.6888348E+001  0.2900202E+02  0.7546771E-02  0.1428472E+00
          2   -1    0    0  502    0  0.00000000000E+00  0.00000000000E+00  0.10574123609E+04  0.10574123609E+04  0.00000000000E+00 0. -1.
         -2   -1    0    0    0  501 -0.00000000000E+00 -0.00000000000E+00 -0.25486174185E+01  0.25486174185E+01  0.00000000000E+00 0.  1.
          1    1    1    2  502    0  0.28718012336E+02 -0.40487937535E+01  0.96699317535E+03  0.96742799119E+03  0.00000000000E+00 0. -1.
         -1    1    1    2    0  501 -0.28718012336E+02  0.40487937535E+01  0.87870568144E+02  0.92532987141E+02  0.00000000000E+00 0.  1.
</event>
<event>
 4    1  0.6888348E+001  0.2645083E+02  0.7546771E-02  0.1453204E+00
          2   -1    0    0  502    0  0.00000000000E+00  0.00000000000E+00  0.29842480569E+02  0.29842480569E+02  0.00000000000E+00 0. -1.
         -2   -1    0    0    0  501 -0.00000000000E+00 -0.00000000000E+00 -0.33160993359E+02  0.33160993359E+02  0.00000000000E+00 0.  1.
          1    1    1    2  502    0  0.24592386909E+02  0.97396581665E+01 -0.18711134503E+02  0.32399891813E+02  0.00000000000E+00 0.  1.
         -1    1    1    2    0  501 -0.24592386909E+02 -0.97396581665E+01  0.15392621713E+02  0.30603582116E+02  0.00000000000E+00 0. -1.
</event>
<event>
 4    1  0.6888348E+001  0.2250086E+02  0.7546771E-02  0.1498863E+00
          2   -1    0    0  502    0  0.00000000000E+00  0.00000000000E+00  0.36203522763E+02  0.36203522763E+02  0.00000000000E+00 0. -1.
         -2   -1    0    0    0  501 -0.00000000000E+00 -0.00000000000E+00 -0.14424702111E+02  0.14424702111E+02  0.00000000000E+00 0.  1.
          1    1    1    2  502    0  0.18028739811E+01 -0.22428516815E+02  0.15311502067E+02  0.27216370380E+02  0.00000000000E+00 0. -1.
         -1    1    1    2    0  501 -0.18028739811E+01  0.22428516815E+02  0.64673185850E+01  0.23411854493E+02  0.00000000000E+00 0.  1.
</event>
<event>
 4    1  0.6888348E+001  0.2155133E+02  0.7546771E-02  0.1511537E+00
          2   -1    0    0  502    0  0.00000000000E+00  0.00000000000E+00  0.90578976166E+02  0.90578976166E+02  0.00000000000E+00 0.  1.
         -2   -1    0    0    0  501 -0.00000000000E+00 -0.00000000000E+00 -0.10173257211E+02  0.10173257211E+02  0.00000000000E+00 0. -1.
          1    1    1    2  502    0  0.27700186806E+01  0.21372570590E+02  0.47255880981E+01  0.22063339729E+02  0.00000000000E+00 0. -1.
         -1    1    1    2    0  501 -0.27700186806E+01 -0.21372570590E+02  0.75680130857E+02  0.78688893648E+02  0.00000000000E+00 0.  1.
</event>
<event>
 4    1  0.6888348E+001  0.2149555E+02  0.7546771E-02  0.1512306E+00
          2   -1    0    0  502    0  0.00000000000E+00  0.00000000000E+00  0.45180323274E+03  0.45180323274E+03  0.00000000000E+00 0.  1.
         -2   -1    0    0    0  501 -0.00000000000E+00 -0.00000000000E+00 -0.10241287394E+01  0.10241287394E+01  0.00000000000E+00 0. -1.
          1    1    1    2  502    0 -0.19597932035E+02 -0.88306191484E+01  0.21693026865E+03  0.21799266096E+03  0.00000000000E+00 0. -1.
         -1    1    1    2    0  501  0.19597932035E+02  0.88306191484E+01  0.23384883535E+03  0.23483470052E+03  0.00000000000E+00 0.  1.
</event>
<event>
 4    1  0.6888348E+001  0.2283716E+02  0.7546771E-02  0.1494553E+00
          2   -1    0    0  502    0  0.00000000000E+00  0.00000000000E+00  0.12076283148E+03  0.12076283148E+03  0.00000000000E+00 0.  1.
         -2   -1    0    0    0  501 -0.00000000000E+00 -0.00000000000E+00 -0.83380226990E+01  0.83380226990E+01  0.00000000000E+00 0. -1.
          1    1    1    2  502    0 -0.22814376037E+02 -0.10199714672E+01  0.11395168248E+02  0.25522263911E+02  0.00000000000E+00 0. -1.
         -1    1    1    2    0  501  0.22814376037E+02  0.10199714672E+01  0.10102964054E+03  0.10357859027E+03  0.00000000000E+00 0.  1.
</event>
<event>
 4    1  0.6888348E+001  0.2160472E+02  0.7546771E-02  0.1510803E+00
          2   -1    0    0  502    0  0.00000000000E+00  0.00000000000E+00  0.12723296916E+04  0.12723296916E+04  0.00000000000E+00 0. -1.
         -2   -1    0    0    0  501 -0.00000000000E+00 -0.00000000000E+00 -0.37729362599E+00  0.37729362599E+00  0.00000000000E+00 0.  1.
          1    1    1    2  502    0  0.18125402991E+02 -0.11757289156E+02  0.53014299514E+03  0.53058303721E+03  0.00000000000E+00 0.  1.
         -1    1    1    2    0  501 -0.18125402991E+02  0.11757289156E+02  0.74180940284E+03  0.74212394802E+03  0.00000000000E+00 0. -1.
</event>
<event>
 4    1  0.6888348E+001  0.2401500E+02  0.7546771E-02  0.1480131E+00
          2   -1    0    0  502    0  0.00000000000E+00  0.00000000000E+00  0.14211467478E+04  0.14211467478E+04  0.00000000000E+00 0. -1.
         -2   -1    0    0    0  501 -0.00000000000E+00 -0.00000000000E+00 -0.41117728273E+00  0.41117728273E+00  0.00000000000E+00 0.  1.
          1    1    1    2  502    0 -0.22967024527E+02 -0.70168372148E+01  0.62918487997E+03  0.62964302061E+03  0.00000000000E+00 0. -1.
         -1    1    1    2    0  501  0.22967024527E+02  0.70168372148E+01  0.79155069059E+03  0.79191490452E+03  0.00000000000E+00 0.  1.
</event>
<event>
 4    1  0.6888348E+001  0.4103401E+02  0.7546771E-02  0.1342531E+00
          2   -1    0    0  502    0  0.00000000000E+00  0.00000000000E+00  0.20948342447E+04  0.20948342447E+04  0.00000000000E+00 0. -1.
         -2   -1    0    0    0  501 -0.00000000000E+00 -0.00000000000E+00 -0.80414850906E+00  0.80414850906E+00  0.00000000000E+00 0.  1.
          1    1    1    2  502    0 -0.56850944783E+01  0.40638278978E+02  0.10246447244E+04  0.10254660410E+04  0.00000000000E+00 0.  1.
         -1    1    1    2    0  501  0.56850944783E+01 -0.40638278978E+02  0.10693853718E+04  0.10701723522E+04  0.00000000000E+00 0. -1.
</event>
<event>
 4    1  0.6888348E+001  0.2039447E+02  0.7546771E-02  0.1528088E+00
          2   -1    0    0  502    0  0.00000000000E+00  0.00000000000E+00  0.21974607143E+04  0.21974607143E+04  0.00000000000E+00 0. -1.
         -2   -1    0    0    0  501 -0.00000000000E+00 -0.00000000000E+00 -0.22069399693E+00  0.22069399693E+00  0.00000000000E+00 0.  1.
          1    1    1    2  502    0  0.16422561413E+02 -0.12092727115E+02  0.68404457350E+03  0.68434853189E+03  0.00000000000E+00 0.  1.
         -1    1    1    2    0  501 -0.16422561413E+02  0.12092727115E+02  0.15131954468E+04  0.15133328764E+04  0.00000000000E+00 0. -1.
</event>
<event>
 4    1  0.6888348E+001  0.3386949E+02  0.7546771E-02  0.1388690E+00
          2   -1    0    0  502    0  0.00000000000E+00  0.00000000000E+00  0.14086233915E+03  0.14086233915E+03  0.00000000000E+00 0. -1.
         -2   -1    0    0    0  501 -0.00000000000E+00 -0.00000000000E+00 -0.81530921458E+01  0.81530921458E+01  0.00000000000E+00 0.  1.
          1    1    1    2  502    0 -0.54463283634E+00  0.33865111152E+02  0.63827447041E+02  0.72257078366E+02  0.00000000000E+00 0.  1.
         -1    1    1    2    0  501  0.54463283634E+00 -0.33865111152E+02  0.68881799964E+02  0.76758352930E+02  0.00000000000E+00 0. -1.
</event>
<event>
 4    1  0.6888348E+001  0.2113934E+02  0.7546771E-02  0.1517285E+00
          2   -1    0    0  502    0  0.00000000000E+00  0.00000000000E+00  0.33657988959E+03  0.33657988959E+03  0.00000000000E+00 0. -1.
         -2   -1    0    0    0  501 -0.00000000000E+00 -0.00000000000E+00 -0.25329691788E+01  0.25329691788E+01  0.00000000000E+00 0.  1.
          1    1    1    2  502    0 -0.21064676957E+02  0.17750696169E+01  0.50061577653E+02  0.54341816721E+02  0.00000000000E+00 0. -1.
         -1    1    1    2    0  501  0.21064676957E+02 -0.17750696169E+01  0.28398534276E+03  0.28477104205E+03  0.00000000000E+00 0.  1.
</event>
<event>
 4    1  0.6888348E+001  0.3857040E+02  0.7546771E-02  0.1357073E+00
          2   -1    0    0  502    0  0.00000000000E+00  0.00000000000E+00  0.36579827870E+04  0.36579827870E+04  0.00000000000E+00 0.  1.
         -2   -1    0    0    0  501 -0.00000000000E+00 -0.00000000000E+00 -0.40977849050E+00  0.40977849050E+00  0.00000000000E+00 0. -1.
          1    1    1    2  502    0 -0.13095838874E+02  0.36279119137E+02  0.16700569868E+04  0.16705023240E+04  0.00000000000E+00 0.  1.
         -1    1    1    2    0  501  0.13095838874E+02 -0.36279119137E+02  0.19875160218E+04  0.19878902415E+04  0.00000000000E+00 0. -1.
</event>
<event>
 4    1  0.6888348E+001  0.3534300E+02  0.7546771E-02  0.1378168E+00
          2   -1    0    0  502    0  0.00000000000E+00  0.00000000000E+00  0.29952547764E+02  0.29952547764E+02  0.00000000000E+00 0. -1.
         -2   -1    0    0    0  501 -0.00000000000E+00 -0.00000000000E+00 -0.17760372449E+03  0.17760372449E+03  0.00000000000E+00 0.  1.
          1    1    1    2  502    0 -0.34129387502E+02 -0.91821912535E+01 -0.16460551571E+03  0.16835707152E+03  0.00000000000E+00 0.  1.
         -1    1    1    2    0  501  0.34129387502E+02  0.91821912535E+01  0.16954338989E+02  0.39199200732E+02  0.00000000000E+00 0. -1.
</event>
<event>
 4    1  0.6888348E+001  0.3194940E+02  0.7546771E-02  0.1403380E+00
          2   -1    0    0  502    0  0.00000000000E+00  0.00000000000E+00  0.33545657714E+03  0.33545657714E+03  0.00000000000E+00 0. -1.
         -2   -1    0    0    0  501 -0.00000000000E+00 -0.00000000000E+00 -0.49891109481E+01  0.49891109481E+01  0.00000000000E+00 0.  1.
          1    1    1    2  502    0 -0.38669484715E+01  0.31714521021E+02  0.27155009682E+03  0.27342315048E+03  0.00000000000E+00 0. -1.
         -1    1    1    2    0  501  0.38669484715E+01 -0.31714521021E+02  0.58917369370E+02  0.67022537609E+02  0.00000000000E+00 0.  1.
</event>
<event>
 4    1  0.6888348E+001  0.3058126E+02  0.7546771E-02  0.1414611E+00
          2   -1    0    0  502    0  0.00000000000E+00  0.00000000000E+00  0.74486011508E+02  0.74486011508E+02  0.00000000000E+00 0. -1.
         -2   -1    0    0    0  501 -0.00000000000E+00 -0.00000000000E+00 -0.13765218771E+02  0.13765218771E+02  0.00000000000E+00 0.  1.
          1    1    1    2  502    0  0.47241580110E+01 -0.30214166238E+02  0.17279700842E+02  0.35125511691E+02  0.00000000000E+00 0.  1.
         -1    1    1    2    0  501 -0.47241580110E+01  0.30214166238E+02  0.43441091895E+02  0.53125718588E+02  0.00000000000E+00 0. -1.
</event>
<event>
 4    1  0.6888348E+001  0.2294025E+02  0.7546771E-02  0.1493250E+00
          2   -1    0    0  502    0  0.00000000000E+00  0.00000000000E+00  0.22314086847E+03  0.22314086847E+03  0.00000000000E+00 0. -1.
         -2   -1    0    0    0  501 -0.00000000000E+00 -0.00000000000E+00 -0.41738327725E+01  0.41738327725E+01  0.00000000000E+00 0.  1.
          1    1    1    2  502    0  0.17967599655E+02 -0.14262556141E+02  0.18444190633E+03  0.18586304624E+03  0.00000000000E+00 0. -1.
         -1    1    1    2    0  501 -0.17967599655E+02  0.14262556141E+02  0.34525129368E+02  0.41451655008E+02  0.00000000000E+00 0.  1.
</event>
<event>
 4    1  0.6888348E+001  0.2531078E+02  0.7546771E-02  0.1465357E+00
          2   -1    0    0  502    0  0.00000000000E+00  0.00000000000E+00  0.49753607211E+01  0.49753607211E+01  0.00000000000E+00 0.  1.
         -2   -1    0    0    0  501 -0.00000000000E+00 -0.00000000000E+00 -0.29545129000E+03  0.29545129000E+03  0.00000000000E+00 0. -1.
          1    1    1    2  502    0  0.24501596107E+02  0.63488058930E+01 -0.25806673308E+03  0.25930498312E+03  0.00000000000E+00 0. -1.
         -1    1    1    2    0  501 -0.24501596107E+02 -0.63488058930E+01 -0.32409196199E+02  0.41121667601E+02  0.00000000000E+00 0.  1.
</event>
<event>
 4    1  0.6888348E+001  0.2002659E+02  0.7546771E-02  0.1533629E+00
          2   -1    0    0  502    0  0.00000000000E+00  0.00000000000E+00  0.96893742513E+03  0.96893742513E+03  0.00000000000E+00 0.  1.
         -2   -1    0    0    0  501 -0.00000000000E+00 -0.00000000000E+00 -0.44113645352E+00  0.44113645352E+00  0.00000000000E+00 0. -1.
          1    1    1    2  502    0 -0.14809314580E+02  0.13481419971E+02  0.60463443449E+03  0.60496600223E+03  0.00000000000E+00 0.  1.
         -1    1    1    2    0  501  0.14809314580E+02 -0.13481419971E+02  0.36386185419E+03  0.36441255935E+03  0.00000000000E+00 0. -1.
</event>
<event>
 4    1  0.6888348E+001  0.2321034E+02  0.7546771E-02  0.1489874E+00
          2   -1    0    0  502    0  0.00000000000E+00  0.00000000000E+00  0.25689669465E+03  0.25689669465E+03  0.00000000000E+00 0.  1.
         -2   -1    0    0    0  501 -0.00000000000E+00 -0.00000000000E+00 -0.21001540455E+01  0.21001540455E+01  0.00000000000E+00 0. -1.
          1    1    1    2  502    0 -0.22954253782E+02 -0.34383079065E+01  0.12240262466E+03  0.12458379610E+03  0.00000000000E+00 0.  1.
         -1    1    1    2    0  501  0.22954253782E+02  0.34383079065E+01  0.13239391595E+03  0.13441305260E+03  0.00000000000E+00 0. -1.
</event>
<event>
 4    1  0.6888348E+001  0.2405444E+02  0.7546771E-02  0.1479666E+00
          2   -1    0    0  502    0  0.00000000000E+00  0.00000000000E+00  0.28895090340E+03  0.28895090340E+03  0.00000000000E+00 0.  1.
         -2   -1    0    0    0  501 -0.00000000000E+00 -0.00000000000E+00 -0.21174437425E+01  0.21174437425E+01  0.00000000000E+00 0. -1.
          1    1    1    2  502    0 -0.14449392154E+02  0.19230991103E+02  0.10950456439E+03  0.11211541185E+03  0.00000000000E+00 0. -1.
         -1    1    1    2    0  501  0.14449392154E+02 -0.19230991103E+02  0.17732889527E+03  0.17895293530E+03  0.00000000000E+00 0.  1.
</event>
<event>
 4    1  0.6888348E+001  0.8287767E+02  0.7546771E-02  0.1197320E+00
          2   -1    0    0  502    0  0.00000000000E+00  0.00000000000E+00  0.83189347548E+03  0.83189347548E+03  0.00000000000E+00 0.  1.
         -2   -1    0    0    0  501 -0.00000000000E+00 -0.00000000000E+00 -0.28023997890E+02  0.28023997890E+02  0.00000000000E+00 0. -1.
          1    1    1    2  502    0 -0.32477864015E+02  0.76248915049E+02  0.76304115336E+03  0.76752883361E+03  0.00000000000E+00 0.  1.
         -1    1    1    2    0  501  0.32477864015E+02 -0.76248915049E+02  0.40828324224E+02  0.92388639756E+02  0.00000000000E+00 0. -1.
</event>
<event>
 4    1  0.6888348E+001  0.3649282E+02  0.7546771E-02  0.1370361E+00
          2   -1    0    0  502    0  0.00000000000E+00  0.00000000000E+00  0.38631315877E+03  0.38631315877E+03  0.00000000000E+00 0. -1.
         -2   -1    0    0    0  501 -0.00000000000E+00 -0.00000000000E+00 -0.39278575857E+01  0.39278575857E+01  0.00000000000E+00 0.  1.
          1    1    1    2  502    0  0.57034641281E+01 -0.36044371893E+02  0.12294137725E+03  0.12824316157E+03  0.00000000000E+00 0.  1.
         -1    1    1    2    0  501 -0.57034641281E+01  0.36044371893E+02  0.25944392393E+03  0.26199785479E+03  0.00000000000E+00 0. -1.
</event>
<event>
 4    1  0.6888348E+001  0.2506260E+02  0.7546771E-02  0.1468104E+00
          2   -1    0    0  502    0  0.00000000000E+00  0.00000000000E+00  0.61427731645E+02  0.61427731645E+02  0.00000000000E+00 0.  1.
         -2   -1    0    0    0  501 -0.00000000000E+00 -0.00000000000E+00 -0.10260842619E+02  0.10260842619E+02  0.00000000000E+00 0. -1.
          1    1    1    2  502    0 -0.16620759064E+02  0.18758583886E+02  0.27684773380E+02  0.37344086257E+02  0.00000000000E+00 0.  1.
         -1    1    1    2    0  501  0.16620759064E+02 -0.18758583886E+02  0.23482115646E+02  0.34344488007E+02  0.00000000000E+00 0. -1.
</event>
<event>
 4    1  0.6888348E+001  0.2841108E+02  0.7546771E-02  0.1433926E+00
          2   -1    0    0  502    0  0.00000000000E+00  0.00000000000E+00  0.11347571144E+04  0.11347571144E+04  0.00000000000E+00 0. -1.
         -2   -1    0    0    0  501 -0.00000000000E+00 -0.00000000000E+00 -0.72373228651E+00  0.72373228651E+00  0.00000000000E+00 0.  1.
          1    1    1    2  502    0  0.16544316315E+02  0.23097074462E+02  0.64133119185E+03  0.64196019105E+03  0.00000000000E+00 0. -1.
         -1    1    1    2    0  501 -0.16544316315E+02 -0.23097074462E+02  0.49270219023E+03  0.49352065560E+03  0.00000000000E+00 0.  1.
</event>
<event>
 4    1  0.6888348E+001  0.2038724E+02  0.7546771E-02  0.1528196E+00
          2   -1    0    0  502    0  0.00000000000E+00  0.00000000000E+00  0.94275784828E+03  0.94275784828E+03  0.00000000000E+00 0.  1.
         -2   -1    0    0    0  501 -0.00000000000E+00 -0.00000000000E+00 -0.51876676679E+00  0.51876676679E+00  0.00000000000E+00 0. -1.
          1    1    1    2  502    0  0.20161810458E+02  0.30234246180E+01  0.28836640373E+03  0.28908618524E+03  0.00000000000E+00 0. -1.
         -1    1    1    2    0  501 -0.20161810458E+02 -0.30234246180E+01  0.65387267778E+03  0.65419042981E+03  0.00000000000E+00 0.  1.
</event>
<event>
 4    1  0.6888348E+001  0.2548059E+02  0.7546771E-02  0.1463498E+00
          2   -1    0    0  502    0  0.00000000000E+00  0.00000000000E+00  0.62271670522E+01  0.62271670522E+01  0.00000000000E+00 0. -1.
         -2   -1    0    0    0  501 -0.00000000000E+00 -0.00000000000E+00 -0.22328966577E+03  0.22328966577E+03  0.00000000000E+00 0.  1.
          1    1    1    2  502    0  0.23272633661E+02  0.10375200142E+02 -0.19231758701E+03  0.19399823332E+03  0.00000000000E+00 0.  1.
         -1    1    1    2    0  501 -0.23272633661E+02 -0.10375200142E+02 -0.24744911703E+02  0.35518599504E+02  0.00000000000E+00 0. -1.
</event>
<event>
 4    1  0.6888348E+001  0.2771717E+02  0.7546771E-02  0.1440534E+00
          2   -1    0    0  502    0  0.00000000000E+00  0.00000000000E+00  0.12047554823E+04  0.12047554823E+04  0.00000000000E+00 0.  1.
         -2   -1    0    0    0  501 -0.00000000000E+00 -0.00000000000E+00 -0.11093964128E+01  0.11093964128E+01  0.00000000000E+00 0. -1.
          1    1    1    2  502    0 -0.27154646931E+02  0.55557793097E+01  0.99498222087E+03  0.99536820392E+03  0.00000000000E+00 0.  1.
         -1    1    1    2    0  501  0.27154646931E+02 -0.55557793097E+01  0.20866386505E+03  0.21049667482E+03  0.00000000000E+00 0. -1.
</event>
<event>
 4    1  0.6888348E+001  0.2343813E+02  0.7546771E-02  0.1487069E+00
          2   -1    0    0  502    0  0.00000000000E+00  0.00000000000E+00  0.59786758605E+02  0.59786758605E+02  0.00000000000E+00 0.  1.
         -2   -1    0    0    0  501 -0.00000000000E+00 -0.00000000000E+00 -0.16958022490E+02  0.16958022490E+02  0.00000000000E+00 0. -1.
          1    1    1    2  502    0 -0.22523531834E+01  0.23329657659E+02 -0.45591376689E+01  0.23877431973E+02  0.00000000000E+00 0. -1.
         -1    1    1    2    0  501  0.22523531834E+01 -0.23329657659E+02  0.47387873784E+02  0.52867349122E+02  0.00000000000E+00 0.  1.
</event>
<event>
 4    1  0.6888348E+001  0.2174249E+02  0.7546771E-02  0.1508923E+00
          2   -1    0    0  502    0  0.00000000000E+00  0.00000000000E+00  0.99296874840E+02  0.99296874840E+02  0.00000000000E+00 0. -1.
         -2   -1    0    0    0  501 -0.00000000000E+00 -0.00000000000E+00 -0.61663347318E+01  0.61663347318E+01  0.00000000000E+00 0.  1.
          1    1    1    2  502    0 -0.97285887029E+01  0.19444544138E+02  0.21390048911E+02  0.30500326676E+02  0.00000000000E+00 0.  1.
         -1    1    1    2    0  501  0.97285887029E+01 -0.19444544138E+02  0.71740491197E+02  0.74962882896E+02  0.00000000000E+00 0. -1.
</event>
<event>
 4    1  0.6888348E+001  0.2178198E+02  0.7546771E-02  0.1508387E+00
          2   -1    0    0  502    0  0.00000000000E+00  0.00000000000E+00  0.10829460974E+03  0.10829460974E+03  0.00000000000E+00 0.  1.
         -2   -1    0    0    0  501 -0.00000000000E+00 -0.00000000000E+00 -0.48572879883E+01  0.48572879883E+01  0.00000000000E+00 0. -1.
          1    1    1    2  502    0 -0.78922024318E+01 -0.20301917777E+02  0.69432071828E+02  0.72768587474E+02  0.00000000000E+00 0.  1.
         -1    1    1    2    0  501  0.78922024318E+01  0.20301917777E+02  0.34005249920E+02  0.40383310250E+02  0.00000000000E+00 0. -1.
</event>
<event>
 4    1  0.6888348E+001  0.3120814E+02  0.7546771E-02  0.1409380E+00
          2   -1    0    0  502    0  0.00000000000E+00  0.00000000000E+00  0.32785446469E+01  0.32785446469E+01  0.00000000000E+00 0.  1.
         -2   -1    0    0    0  501 -0.00000000000E+00 -0.00000000000E+00 -0.87629476867E+03  0.87629476867E+03  0.00000000000E+00 0. -1.
          1    1    1    2  502    0  0.30379108993E+01 -0.31059924910E+02 -0.79406206068E+03  0.79467509338E+03  0.00000000000E+00 0. -1.
         -1    1    1    2    0  501 -0.30379108993E+01  0.31059924910E+02 -0.78954163343E+02  0.84898219930E+02  0.00000000000E+00 0.  1.
</event>
<event>
 4    1  0.6888348E+001  0.3354252E+02  0.7546771E-02  0.1391110E+00
          2   -1    0    0  502    0  0.00000000000E+00  0.00000000000E+00  0.16954465092E+02  0.16954465092E+02  0.00000000000E+00 0. -1.
         -2   -1    0    0    0  501 -0.00000000000E+00 -0.00000000000E+00 -0.68439398813E+02  0.68439398813E+02  0.00000000000E+00 0.  1.
          1    1    1    2  502    0  0.24373098011E+00 -0.33541633186E+02 -0.18300314389E+02  0.38209973414E+02  0.00000000000E+00 0. -1.
         -1    1    1    2    0  501 -0.24373098011E+00  0.33541633186E+02 -0.33184619332E+02  0.47183890490E+02  0.00000000000E+00 0.  1.
</event>
<event>
 4    1  0.6888348E+001  0.2941398E+02  0.7546771E-02  0.1424758E+00
          2   -1    0    0  502    0  0.00000000000E+00  0.00000000000E+00  0.25221080894E+03  0.25221080894E+03  0.00000000000E+00 0. -1.
         -2   -1    0    0    0  501 -0.00000000000E+00 -0.00000000000E+00 -0.41791409633E+01  0.41791409633E+01  0.00000000000E+00 0.  1.
          1    1    1    2  502    0  0.13527950186E+02 -0.26118515711E+02  0.69753908930E+02  0.75701982208E+02  0.00000000000E+00 0.  1.
         -1    1    1    2    0  501 -0.13527950186E+02  0.26118515711E+02  0.17827775904E+03  0.18068796769E+03  0.00000000000E+00 0. -1.
</event>
<event>
 4    1  0.6888348E+001  0.4159339E+02  0.7546771E-02  0.1339393E+00
          2   -1    0    0  502    0  0.00000000000E+00  0.00000000000E+00  0.98336398675E+03  0.98336398675E+03  0.00000000000E+00 0.  1.
         -2   -1    0    0    0  501 -0.00000000000E+00 -0.00000000000E+00 -0.19564402779E+01  0.19564402779E+01  0.00000000000E+00 0. -1.
          1    1    1    2  502    0 -0.39793956367E+02 -0.12101702139E+02  0.64710013035E+03  0.64843549321E+03  0.00000000000E+00 0.  1.
         -1    1    1    2    0  501  0.39793956367E+02  0.12101702139E+02  0.33430741613E+03  0.33688493382E+03  0.00000000000E+00 0. -1.
</event>
<event>
 4    1  0.6888348E+001  0.2732545E+02  0.7546771E-02  0.1444366E+00
          2   -1    0    0  502    0  0.00000000000E+00  0.00000000000E+00  0.62455826627E+03  0.62455826627E+03  0.00000000000E+00 0. -1.
         -2   -1    0    0    0  501 -0.00000000000E+00 -0.00000000000E+00 -0.24134967359E+01  0.24134967359E+01  0.00000000000E+00 0.  1.
          1    1    1    2  502    0  0.20756996776E+02 -0.17771532480E+02  0.53376803369E+03  0.53446701869E+03  0.00000000000E+00 0. -1.
         -1    1    1    2    0  501 -0.20756996776E+02  0.17771532480E+02  0.88376735843E+02  0.92504744311E+02  0.00000000000E+00 0.  1.
</event>
<event>
 4    1  0.6888348E+001  0.6138924E+02  0.7546771E-02  0.1255184E+00
          2   -1    0    0  502    0  0.00000000000E+00  0.00000000000E+00  0.11597426622E+04  0.11597426622E+04  0.00000000000E+00 0. -1.
         -2   -1    0    0    0  501 -0.00000000000E+00 -0.00000000000E+00 -0.38319097229E+01  0.38319097229E+01  0.00000000000E+00 0.  1.
          1    1    1    2  502    0  0.57628951971E+02 -0.21155191506E+02  0.80476077792E+03  0.80709884643E+03  0.00000000000E+00 0. -1.
         -1    1    1    2    0  501 -0.57628951971E+02  0.21155191506E+02  0.35114997456E+03  0.35647572549E+03  0.00000000000E+00 0.  1.
</event>
<event>
 4    1  0.6888348E+001  0.3215512E+02  0.7546771E-02  0.1401748E+00
          2   -1    0    0  502    0  0.00000000000E+00  0.00000000000E+00  0.23737601651E+04  0.23737601651E+04  0.00000000000E+00 0.  1.
         -2   -1    0    0    0  501 -0.00000000000E+00 -0.00000000000E+00 -0.43589934109E+00  0.43589934109E+00  0.00000000000E+00 0. -1.
          1    1    1    2  502    0 -0.23875002082E+02  0.21539167952E+02  0.11542996785E+04  0.11547474613E+04  0.00000000000E+00 0.  1.
         -1    1    1    2    0  501  0.23875002082E+02 -0.21539167952E+02  0.12190245872E+04  0.12194486031E+04  0.00000000000E+00 0. -1.
</event>
<event>
 4    1  0.6888348E+001  0.2032724E+02  0.7546771E-02  0.1529091E+00
          2   -1    0    0  502    0  0.00000000000E+00  0.00000000000E+00  0.76555568058E+01  0.76555568058E+01  0.00000000000E+00 0.  1.
         -2   -1    0    0    0  501 -0.00000000000E+00 -0.00000000000E+00 -0.61525787285E+02  0.61525787285E+02  0.00000000000E+00 0. -1.
          1    1    1    2  502    0  0.18203958460E+02 -0.90450259410E+01 -0.39054258086E+02  0.44027623971E+02  0.00000000000E+00 0.  1.
         -1    1    1    2    0  501 -0.18203958460E+02  0.90450259410E+01 -0.14815972393E+02  0.25153720120E+02  0.00000000000E+00 0. -1.
</event>
<event>
 4    1  0.6888348E+001  0.2482398E+02  0.7546771E-02  0.1470782E+00
          2   -1    0    0  502    0  0.00000000000E+00  0.00000000000E+00  0.24449293249E+03  0.24449293249E+03  0.00000000000E+00 0. -1.
         -2   -1    0    0    0  501 -0.00000000000E+00 -0.00000000000E+00 -0.25530663038E+01  0.25530663038E+01  0.00000000000E+00 0.  1.
          1    1    1    2  502    0 -0.11229701669E+01 -0.24798566965E+02  0.13493344838E+03  0.13719790624E+03  0.00000000000E+00 0. -1.
         -1    1    1    2    0  501  0.11229701669E+01  0.24798566965E+02  0.10700641780E+03  0.10984809255E+03  0.00000000000E+00 0.  1.
</event>
<event>
 4    1  0.6888348E+001  0.2251029E+02  0.7546771E-02  0.1498741E+00
          2   -1    0    0  502    0  0.00000000000E+00  0.00000000000E+00  0.64506099551E+03  0.64506099551E+03  0.00000000000E+00 0. -1.
         -2   -1    0    0    0  501 -0.00000000000E+00 -0.00000000000E+00 -0.16375080070E+01  0.16375080070E+01  0.00000000000E+00 0.  1.
          1    1    1    2  502    0  0.12386005162E+02  0.18796271786E+02  0.55494745668E+03  0.55540381042E+03  0.00000000000E+00 0. -1.
         -1    1    1    2    0  501 -0.12386005162E+02 -0.18796271786E+02  0.88476030828E+02  0.91294693099E+02  0.00000000000E+00 0.  1.
</event>
<event>
 4    1  0.6888348E+001  0.2308434E+02  0.7546771E-02  0.1491442E+00
          2   -1    0    0  502    0  0.00000000000E+00  0.00000000000E+00  0.12758785029E+01  0.12758785029E+01  0.00000000000E+00 0. -1.
         -2   -1    0    0    0  501 -0.00000000000E+00 -0.00000000000E+00 -0.43056336437E+03  0.43056336437E+03  0.00000000000E+00 0.  1.
          1    1    1    2  502    0  0.12386404348E+02 -0.19479834657E+02 -0.25201848060E+03  0.25307351014E+03  0.00000000000E+00 0.  1.
         -1    1    1    2    0  501 -0.12386404348E+02  0.19479834657E+02 -0.17726900526E+03  0.17876573273E+03  0.00000000000E+00 0. -1.
</event>
<event>
 4    1  0.6888348E+001  0.2199901E+02  0.7546771E-02  0.1505465E+00
          2   -1    0    0  502    0  0.00000000000E+00  0.00000000000E+00  0.25141014082E+01  0.25141014082E+01  0.00000000000E+00 0. -1.
         -2   -1    0    0    0  501 -0.00000000000E+00 -0.00000000000E+00 -0.19716190579E+03  0.19716190579E+03  0.00000000000E+00 0.  1.
          1    1    1    2  502    0 -0.43119016778E+01  0.21572294515E+02 -0.11268126997E+03  0.11480864509E+03  0.00000000000E+00 0.  1.
         -1    1    1    2    0  501  0.43119016778E+01 -0.21572294515E+02 -0.81966534413E+02  0.84867362103E+02  0.00000000000E+00 0. -1.
</event>
<event>
 4    1  0.6888348E+001  0.2257540E+02  0.7546771E-02  0.1497900E+00
          2   -1    0    0  502    0  0.00000000000E+00  0.00000000000E+00  0.76402863862E+03  0.76402863862E+03  0.00000000000E+00 0.  1.
         -2   -1    0    0    0  501 -0.00000000000E+00 -0.00000000000E+00 -0.74446893784E+00  0.74446893784E+00  0.00000000000E+00 0. -1.
          1    1    1    2  502    0 -0.15179792347E+02 -0.16709960597E+02  0.50494967189E+03  0.50545407311E+03  0.00000000000E+00 0.  1.
         -1    1    1    2    0  501  0.15179792347E+02  0.16709960597E+02  0.25833449778E+03  0.25931903444E+03  0.00000000000E+00 0. -1.
</event>
<event>
 4    1  0.6888348E+001  0.2242865E+02  0.7546771E-02  0.1499800E+00
          2   -1    0    0  502    0  0.00000000000E+00  0.00000000000E+00  0.75603434562E+01  0.75603434562E+01  0.00000000000E+00 0.  1.
         -2   -1    0    0    0  501 -0.00000000000E+00 -0.00000000000E+00 -0.74785953318E+02  0.74785953318E+02  0.00000000000E+00 0. -1.
          1    1    1    2  502    0  0.14021733304E+02 -0.17505296884E+02 -0.19938758909E+02  0.30009973854E+02  0.00000000000E+00 0. -1.
         -1    1    1    2    0  501 -0.14021733304E+02  0.17505296884E+02 -0.47286850952E+02  0.52336322920E+02  0.00000000000E+00 0.  1.
</event>
<event>
 4    1  0.6888348E+001  0.3089730E+02  0.7546771E-02  0.1411956E+00
          2   -1    0    0  502    0  0.00000000000E+00  0.00000000000E+00  0.13223784873E+03  0.13223784873E+03  0.00000000000E+00 0.  1.
         -2   -1    0    0    0  501 -0.00000000000E+00 -0.00000000000E+00 -0.87449026689E+01  0.87449026689E+01  0.00000000000E+00 0. -1.
          1    1    1    2  502    0  0.26320198465E+02  0.16183024848E+02  0.91190853580E+02  0.96282993914E+02  0.00000000000E+00 0.  1.
         -1    1    1    2    0  501 -0.26320198465E+02 -0.16183024848E+02  0.32302092480E+02  0.44699757483E+02  0.00000000000E+00 0. -1.
</event>
<event>
 4    1  0.6888348E+001  0.2396021E+02  0.7546771E-02  0.1480780E+00
          2   -1    0    0  502    0  0.00000000000E+00  0.00000000000E+00  0.28030050391E+03  0.28030050391E+03  0.00000000000E+00 0. -1.
         -2   -1    0    0    0  501 -0.00000000000E+00 -0.00000000000E+00 -0.21086436814E+01  0.21086436814E+01  0.00000000000E+00 0.  1.
          1    1    1    2  502    0  0.37040405733E+01 -0.23672174164E+02  0.11517513834E+03  0.11764099726E+03  0.00000000000E+00 0. -1.
         -1    1    1    2    0  501 -0.37040405733E+01  0.23672174164E+02  0.16301672190E+03  0.16476815033E+03  0.00000000000E+00 0.  1.
</event>
<event>
 4    1  0.6888348E+001  0.2018705E+02  0.7546771E-02  0.1531195E+00
          2   -1    0    0  502    0  0.00000000000E+00  0.00000000000E+00  0.72286141913E+02  0.72286141913E+02  0.00000000000E+00 0.  1.
         -2   -1    0    0    0  501 -0.00000000000E+00 -0.00000000000E+00 -0.12607214379E+02  0.12607214379E+02  0.00000000000E+00 0. -1.
          1    1    1    2  502    0 -0.74766189541E+01 -0.18751456540E+02  0.61399680702E+02  0.64633100991E+02  0.00000000000E+00 0. -1.
         -1    1    1    2    0  501  0.74766189541E+01  0.18751456540E+02 -0.17207531680E+01  0.20260255300E+02  0.00000000000E+00 0.  1.
</event>
<event>
 4    1  0.6888348E+001  0.2617391E+02  0.7546771E-02  0.1456088E+00
          2   -1    0    0  502    0  0.00000000000E+00  0.00000000000E+00  0.11269801552E+02  0.11269801552E+02  0.00000000000E+00 0.  1.
         -2   -1    0    0    0  501 -0.00000000000E+00 -0.00000000000E+00 -0.72704103060E+02  0.72704103060E+02  0.00000000000E+00 0. -1.
          1    1    1    2  502    0 -0.26171470563E+02 -0.35702933010E+00 -0.13719280645E+02  0.29551514391E+02  0.00000000000E+00 0.  1.
         -1    1    1    2    0  501  0.26171470563E+02  0.35702933010E+00 -0.47715020862E+02  0.54422390220E+02  0.00000000000E+00 0. -1.
</event>
<event>
 4    1  0.6888348E+001  0.2315546E+02  0.7546771E-02  0.1490555E+00
          2   -1    0    0  502    0  0.00000000000E+00  0.00000000000E+00  0.78961775795E+02  0.78961775795E+02  0.00000000000E+00 0.  1.
         -2   -1    0    0    0  501 -0.00000000000E+00 -0.00000000000E+00 -0.68149636155E+01  0.68149636155E+01  0.00000000000E+00 0. -1.
          1    1    1    2  502    0 -0.20411942246E+02 -0.10932883307E+02  0.33494088581E+02  0.40718905849E+02  0.00000000000E+00 0.  1.
         -1    1    1    2    0  501  0.20411942246E+02  0.10932883307E+02  0.38652723599E+02  0.45057833562E+02  0.00000000000E+00 0. -1.
</event>
<event>
 4    1  0.6888348E+001  0.2141380E+02  0.7546771E-02  0.1513438E+00
          2   -1    0    0  502    0  0.00000000000E+00  0.00000000000E+00  0.17414243166E+04  0.17414243166E+04  0.00000000000E+00 0.  1.
         -2   -1    0    0    0  501 -0.00000000000E+00 -0.00000000000E+00 -0.28148102388E+00  0.28148102388E+00  0.00000000000E+00 0. -1.
          1    1    1    2  502    0  0.31721773877E+01  0.21177540585E+02  0.64936552215E+03  0.64971850235E+03  0.00000000000E+00 0. -1.
         -1    1    1    2    0  501 -0.31721773877E+01 -0.21177540585E+02  0.10917773134E+04  0.10919872953E+04  0.00000000000E+00 0.  1.
</event>
<event>
 4    1  0.6888348E+001  0.1152605E+03  0.7546771E-02  0.1139710E+00
          2   -1    0    0  502    0  0.00000000000E+00  0.00000000000E+00  0.78074124505E+03  0.78074124505E+03  0.00000000000E+00 0.  1.
         -2   -1    0    0    0  501 -0.00000000000E+00 -0.00000000000E+00 -0.22052310483E+02  0.22052310483E+02  0.00000000000E+00 0. -1.
          1    1    1    2  502    0 -0.72175030908E+02  0.89865180280E+02  0.57117114573E+03  0.58268470328E+03  0.00000000000E+00 0.  1.
         -1    1    1    2    0  501  0.72175030908E+02 -0.89865180280E+02  0.18751778884E+03  0.22010885226E+03  0.00000000000E+00 0. -1.
</event>
<event>
 4    1  0.6888348E+001  0.2310579E+02  0.7546771E-02  0.1491174E+00
          2   -1    0    0  502    0  0.00000000000E+00  0.00000000000E+00  0.23191408667E+02  0.23191408667E+02  0.00000000000E+00 0.  1.
         -2   -1    0    0    0  501 -0.00000000000E+00 -0.00000000000E+00 -0.34574814299E+02  0.34574814299E+02  0.00000000000E+00 0. -1.
          1    1    1    2  502    0 -0.17931450186E+02 -0.14571914584E+02 -0.22388620938E+02  0.32173404357E+02  0.00000000000E+00 0. -1.
         -1    1    1    2    0  501  0.17931450186E+02  0.14571914584E+02  0.11005215305E+02  0.25592818609E+02  0.00000000000E+00 0.  1.
</event>
<event>
 4    1  0.6888348E+001  0.2794477E+02  0.7546771E-02  0.1438342E+00
          2   -1    0    0  502    0  0.00000000000E+00  0.00000000000E+00  0.12894534022E+02  0.12894534022E+02  0.00000000000E+00 0. -1.
         -2   -1    0    0    0  501 -0.00000000000E+00 -0.00000000000E+00 -0.67918554702E+02  0.67918554702E+02  0.00000000000E+00 0.  1.
          1    1    1    2  502    0  0.18297164026E+02  0.21121653135E+02 -0.14213169524E+02  0.31351628832E+02  0.00000000000E+00 0.  1.
         -1    1    1    2    0  501 -0.18297164026E+02 -0.21121653135E+02 -0.40810851156E+02  0.49461459891E+02  0.00000000000E+00 0. -1.
</event>
<event>
 4    1  0.6888348E+001  0.2151281E+02  0.7546771E-02  0.1512068E+00
          2   -1    0    0  502    0  0.00000000000E+00  0.00000000000E+00  0.29861962409E+02  0.29861962409E+02  0.00000000000E+00 0.  1.
         -2   -1    0    0    0  501 -0.00000000000E+00 -0.00000000000E+00 -0.18333325636E+02  0.18333325636E+02  0.00000000000E+00 0. -1.
          1    1    1    2  502    0  0.73886491992E+01 -0.20204183599E+02 -0.37123176977E+01  0.21830768988E+02  0.00000000000E+00 0. -1.
         -1    1    1    2    0  501 -0.73886491992E+01  0.20204183599E+02  0.15240954471E+02  0.26364519057E+02  0.00000000000E+00 0.  1.
</event>
<event>
 4    1  0.6888348E+001  0.2166675E+02  0.7546771E-02  0.1509955E+00
          2   -1    0    0  502    0  0.00000000000E+00  0.00000000000E+00  0.81543891727E+03  0.81543891727E+03  0.00000000000E+00 0. -1.
         -2   -1    0    0    0  501 -0.00000000000E+00 -0.00000000000E+00 -0.67132147067E+00  0.67132147067E+00  0.00000000000E+00 0.  1.
          1    1    1    2  502    0  0.75331939398E-01  0.21666620582E+02  0.56138760076E+03  0.56180555926E+03  0.00000000000E+00 0. -1.
         -1    1    1    2    0  501 -0.75331939398E-01 -0.21666620582E+02  0.25337999503E+03  0.25430467948E+03  0.00000000000E+00 0.  1.
</event>
<event>
 4    1  0.6888348E+001  0.2166226E+02  0.7546771E-02  0.1510016E+00
          2   -1    0    0  502    0  0.00000000000E+00  0.00000000000E+00  0.11685661613E+04  0.11685661613E+04  0.00000000000E+00 0.  1.
         -2   -1    0    0    0  501 -0.00000000000E+00 -0.00000000000E+00 -0.42631730537E+00  0.42631730537E+00  0.00000000000E+00 0. -1.
          1    1    1    2  502    0  0.11269213631E+02  0.18500224270E+02  0.44322650437E+03  0.44375554943E+03  0.00000000000E+00 0. -1.
         -1    1    1    2    0  501 -0.11269213631E+02 -0.18500224270E+02  0.72491333959E+03  0.72523692914E+03  0.00000000000E+00 0.  1.
</event>
<event>
 4    1  0.6888348E+001  0.5274077E+02  0.7546771E-02  0.1286708E+00
          2   -1    0    0  502    0  0.00000000000E+00  0.00000000000E+00  0.21325082558E+02  0.21325082558E+02  0.00000000000E+00 0. -1.
         -2   -1    0    0    0  501 -0.00000000000E+00 -0.00000000000E+00 -0.25685824442E+03  0.25685824442E+03  0.00000000000E+00 0.  1.
          1    1    1    2  502    0 -0.11257602589E+02  0.51525288922E+02 -0.21534721460E+03  0.22171155101E+03  0.00000000000E+00 0.  1.
         -1    1    1    2    0  501  0.11257602589E+02 -0.51525288922E+02 -0.20185947266E+02  0.56471775973E+02  0.00000000000E+00 0. -1.
</event>
<event>
 4    1  0.6888348E+001  0.3431844E+02  0.7546771E-02  0.1385419E+00
          2   -1    0    0  502    0  0.00000000000E+00  0.00000000000E+00  0.53151670416E+03  0.53151670416E+03  0.00000000000E+00 0.  1.
         -2   -1    0    0    0  501 -0.00000000000E+00 -0.00000000000E+00 -0.23111127084E+01  0.23111127084E+01  0.00000000000E+00 0. -1.
          1    1    1    2  502    0 -0.30240769862E+02 -0.16225019691E+02  0.31879630162E+03  0.32063817201E+03  0.00000000000E+00 0.  1.
         -1    1    1    2    0  501  0.30240769862E+02  0.16225019691E+02  0.21040928983E+03  0.21318964486E+03  0.00000000000E+00 0. -1.
</event>
<event>
 4    1  0.6888348E+001  0.2444882E+02  0.7546771E-02  0.1475065E+00
          2   -1    0    0  502    0  0.00000000000E+00  0.00000000000E+00  0.28632375173E+01  0.28632375173E+01  0.00000000000E+00 0.  1.
         -2   -1    0    0    0  501 -0.00000000000E+00 -0.00000000000E+00 -0.20957261755E+03  0.20957261755E+03  0.00000000000E+00 0. -1.
          1    1    1    2  502    0 -0.15606692673E+02  0.18819558627E+02 -0.10994722423E+03  0.11263275172E+03  0.00000000000E+00 0. -1.
         -1    1    1    2    0  501  0.15606692673E+02 -0.18819558627E+02 -0.96762155801E+02  0.99803103350E+02  0.00000000000E+00 0.  1.
</event>
<event>
 4    1  0.6888348E+001  0.2028514E+02  0.7546771E-02  0.1529721E+00
          2   -1    0    0  502    0  0.00000000000E+00  0.00000000000E+00  0.39291599846E+03  0.39291599846E+03  0.00000000000E+00 0.  1.
         -2   -1    0    0    0  501 -0.00000000000E+00 -0.00000000000E+00 -0.15182634730E+02  0.15182634730E+02  0.00000000000E+00 0. -1.
          1    1    1    2  502    0 -0.53422573323E+01 -0.19569035462E+02  0.38575283388E+03  0.38628582127E+03  0.00000000000E+00 0.  1.
         -1    1    1    2    0  501  0.53422573323E+01  0.19569035462E+02 -0.80194701562E+01  0.21812811921E+02  0.00000000000E+00 0. -1.
</event>
<event>
 4    1  0.6888348E+001  0.2842939E+02  0.7546771E-02  0.1433755E+00
          2   -1    0    0  502    0  0.00000000000E+00  0.00000000000E+00  0.52465100392E+03  0.52465100392E+03  0.00000000000E+00 0. -1.
         -2   -1    0    0    0  501 -0.00000000000E+00 -0.00000000000E+00 -0.23166162121E+01  0.23166162121E+01  0.00000000000E+00 0.  1.
          1    1    1    2  502    0  0.23104870544E+02 -0.16564873837E+02  0.41367338864E+03  0.41464913186E+03  0.00000000000E+00 0. -1.
         -1    1    1    2    0  501 -0.23104870544E+02  0.16564873837E+02  0.10866099908E+03  0.11231848828E+03  0.00000000000E+00 0.  1.
</event>
<event>
 4    1  0.6888348E+001  0.3470277E+02  0.7546771E-02  0.1382665E+00
          2   -1    0    0  502    0  0.00000000000E+00  0.00000000000E+00  0.81430664523E+03  0.81430664523E+03  0.00000000000E+00 0. -1.
         -2   -1    0    0    0  501 -0.00000000000E+00 -0.00000000000E+00 -0.15525345455E+01  0.15525345455E+01  0.00000000000E+00 0.  1.
          1    1    1    2  502    0  0.18946084249E+02  0.29074528798E+02  0.49521326861E+03  0.49642770243E+03  0.00000000000E+00 0. -1.
         -1    1    1    2    0  501 -0.18946084249E+02 -0.29074528798E+02  0.31754084207E+03  0.31943147734E+03  0.00000000000E+00 0.  1.
</event>
<event>
 4    1  0.6888348E+001  0.2447864E+02  0.7546771E-02  0.1474721E+00
          2   -1    0    0  502    0  0.00000000000E+00  0.00000000000E+00  0.11920246629E+04  0.11920246629E+04  0.00000000000E+00 0. -1.
         -2   -1    0    0    0  501 -0.00000000000E+00 -0.00000000000E+00 -0.50901988205E+00  0.50901988205E+00  0.00000000000E+00 0.  1.
          1    1    1    2  502    0 -0.16100823688E+02  0.18438207702E+02  0.52920015730E+03  0.52976599599E+03  0.00000000000E+00 0. -1.
         -1    1    1    2    0  501  0.16100823688E+02 -0.18438207702E+02  0.66231548574E+03  0.66276768681E+03  0.00000000000E+00 0.  1.
</event>
<event>
 4    1  0.6888348E+001  0.3098972E+02  0.7546771E-02  0.1411186E+00
          2   -1    0    0  502    0  0.00000000000E+00  0.00000000000E+00  0.28023308327E+04  0.28023308327E+04  0.00000000000E+00 0. -1.
         -2   -1    0    0    0  501 -0.00000000000E+00 -0.00000000000E+00 -0.40547604337E+00  0.40547604337E+00  0.00000000000E+00 0.  1.
          1    1    1    2  502    0  0.25922859379E+02 -0.16981401891E+02  0.84956893461E+03  0.85013395256E+03  0.00000000000E+00 0.  1.
         -1    1    1    2    0  501 -0.25922859379E+02  0.16981401891E+02  0.19523564221E+04  0.19526023562E+04  0.00000000000E+00 0. -1.
</event>
<event>
 4    1  0.6888348E+001  0.2066211E+02  0.7546771E-02  0.1524144E+00
          2   -1    0    0  502    0  0.00000000000E+00  0.00000000000E+00  0.56019059393E+03  0.56019059393E+03  0.00000000000E+00 0. -1.
         -2   -1    0    0    0  501 -0.00000000000E+00 -0.00000000000E+00 -0.95315660063E+00  0.95315660063E+00  0.00000000000E+00 0.  1.
          1    1    1    2  502    0 -0.47215856187E+01  0.20115402300E+02  0.40523326273E+03  0.40575968257E+03  0.00000000000E+00 0. -1.
         -1    1    1    2    0  501  0.47215856187E+01 -0.20115402300E+02  0.15400417460E+03  0.15538406796E+03  0.00000000000E+00 0.  1.
</event>
<event>
 4    1  0.6888348E+001  0.3970935E+02  0.7546771E-02  0.1350197E+00
          2   -1    0    0  502    0  0.00000000000E+00  0.00000000000E+00  0.30916495536E+03  0.30916495536E+03  0.00000000000E+00 0. -1.
         -2   -1    0    0    0  501 -0.00000000000E+00 -0.00000000000E+00 -0.64585544242E+01  0.64585544242E+01  0.00000000000E+00 0.  1.
          1    1    1    2  502    0  0.39356272891E+02  0.52835707931E+01  0.22372395879E+03  0.22722069024E+03  0.00000000000E+00 0. -1.
         -1    1    1    2    0  501 -0.39356272891E+02 -0.52835707931E+01  0.78982442146E+02  0.88402819545E+02  0.00000000000E+00 0.  1.
</event>
<event>
 4    1  0.6888348E+001  0.3004744E+02  0.7546771E-02  0.1419185E+00
          2   -1    0    0  502    0  0.00000000000E+00  0.00000000000E+00  0.79658048215E+01  0.79658048215E+01  0.00000000000E+00 0.  1.
         -2   -1    0    0    0  501 -0.00000000000E+00 -0.00000000000E+00 -0.11335351350E+03  0.11335351350E+03  0.00000000000E+00 0. -1.
          1    1    1    2  502    0  0.10426926831E+02 -0.28180271828E+02 -0.52044601525E+02  0.60095665995E+02  0.00000000000E+00 0. -1.
         -1    1    1    2    0  501 -0.10426926831E+02  0.28180271828E+02 -0.53343107157E+02  0.61223652330E+02  0.00000000000E+00 0.  1.
</event>
<event>
 4    1  0.6888348E+001  0.2093890E+02  0.7546771E-02  0.1520139E+00
          2   -1    0    0  502    0  0.00000000000E+00  0.00000000000E+00  0.90334584563E+02  0.90334584563E+02  0.00000000000E+00 0.  1.
         -2   -1    0    0    0  501 -0.00000000000E+00 -0.00000000000E+00 -0.48646595171E+01  0.48646595171E+01  0.00000000000E+00 0. -1.
          1    1    1    2  502    0  0.20736552816E+02 -0.29039482154E+01  0.40453598932E+02  0.45551412760E+02  0.00000000000E+00 0.  1.
         -1    1    1    2    0  501 -0.20736552816E+02  0.29039482154E+01  0.45016326114E+02  0.49647831320E+02  0.00000000000E+00 0. -1.
</event>
<event>
 4    1  0.6888348E+001  0.2172586E+02  0.7546771E-02  0.1509149E+00
          2   -1    0    0  502    0  0.00000000000E+00  0.00000000000E+00  0.74747138079E+03  0.74747138079E+03  0.00000000000E+00 0. -1.
         -2   -1    0    0    0  501 -0.00000000000E+00 -0.00000000000E+00 -0.79515439377E+00  0.79515439377E+00  0.00000000000E+00 0.  1.
          1    1    1    2  502    0 -0.42854669620E+01 -0.21299007516E+02  0.54308095223E+03  0.54351534810E+03  0.00000000000E+00 0. -1.
         -1    1    1    2    0  501  0.42854669620E+01  0.21299007516E+02  0.20359527416E+03  0.20475118708E+03  0.00000000000E+00 0.  1.
</event>
<event>
 4    1  0.6888348E+001  0.4592279E+02  0.7546771E-02  0.1316889E+00
          2   -1    0    0  502    0  0.00000000000E+00  0.00000000000E+00  0.17733650182E+04  0.17733650182E+04  0.00000000000E+00 0. -1.
         -2   -1    0    0    0  501 -0.00000000000E+00 -0.00000000000E+00 -0.15673862443E+01  0.15673862443E+01  0.00000000000E+00 0.  1.
          1    1    1    2  502    0 -0.76592525491E-01 -0.45922730126E+02  0.13218230975E+04  0.13226205821E+04  0.00000000000E+00 0. -1.
         -1    1    1    2    0  501  0.76592525491E-01  0.45922730126E+02  0.44997453448E+03  0.45231182241E+03  0.00000000000E+00 0.  1.
</event>
<event>
 4    1  0.6888348E+001  0.2120806E+02  0.7546771E-02  0.1516315E+00
          2   -1    0    0  502    0  0.00000000000E+00  0.00000000000E+00  0.17339837837E+04  0.17339837837E+04  0.00000000000E+00 0.  1.
         -2   -1    0    0    0  501 -0.00000000000E+00 -0.00000000000E+00 -0.27236830548E+00  0.27236830548E+00  0.00000000000E+00 0. -1.
          1    1    1    2  502    0 -0.13452836503E+02  0.16395217164E+02  0.67758809524E+03  0.67791991324E+03  0.00000000000E+00 0. -1.
         -1    1    1    2    0  501  0.13452836503E+02 -0.16395217164E+02  0.10561233201E+04  0.10563362387E+04  0.00000000000E+00 0.  1.
</event>
<event>
 4    1  0.6888348E+001  0.4581160E+02  0.7546771E-02  0.1317430E+00
          2   -1    0    0  502    0  0.00000000000E+00  0.00000000000E+00  0.37070704686E+03  0.37070704686E+03  0.00000000000E+00 0. -1.
         -2   -1    0    0    0  501 -0.00000000000E+00 -0.00000000000E+00 -0.11467265117E+02  0.11467265117E+02  0.00000000000E+00 0.  1.
          1    1    1    2  502    0 -0.16980963824E+02  0.42548205426E+02  0.43651845954E+02  0.63278642310E+02  0.00000000000E+00 0. -1.
         -1    1    1    2    0  501  0.16980963824E+02 -0.42548205426E+02  0.31558793579E+03  0.31889566967E+03  0.00000000000E+00 0.  1.
</event>
<event>
 4    1  0.6888348E+001  0.3090832E+02  0.7546771E-02  0.1411864E+00
          2   -1    0    0  502    0  0.00000000000E+00  0.00000000000E+00  0.24621884711E+04  0.24621884711E+04  0.00000000000E+00 0. -1.
         -2   -1    0    0    0  501 -0.00000000000E+00 -0.00000000000E+00 -0.44150926346E+00  0.44150926346E+00  0.00000000000E+00 0.  1.
          1    1    1    2  502    0 -0.17041531865E+02  0.25785859537E+02  0.80220495361E+03  0.80280016938E+03  0.00000000000E+00 0.  1.
         -1    1    1    2    0  501  0.17041531865E+02 -0.25785859537E+02  0.16595420083E+04  0.16598298110E+04  0.00000000000E+00 0. -1.
</event>
<event>
 4    1  0.6888348E+001  0.2102488E+02  0.7546771E-02  0.1518910E+00
          2   -1    0    0  502    0  0.00000000000E+00  0.00000000000E+00  0.84840654520E+03  0.84840654520E+03  0.00000000000E+00 0.  1.
         -2   -1    0    0    0  501 -0.00000000000E+00 -0.00000000000E+00 -0.54255185336E+00  0.54255185336E+00  0.00000000000E+00 0. -1.
          1    1    1    2  502    0  0.11267171934E+02  0.17750955729E+02  0.33939108364E+03  0.34004169339E+03  0.00000000000E+00 0. -1.
         -1    1    1    2    0  501 -0.11267171934E+02 -0.17750955729E+02  0.50847290971E+03  0.50890740366E+03  0.00000000000E+00 0.  1.
</event>
<event>
 4    1  0.6888348E+001  0.2132173E+02  0.7546771E-02  0.1514721E+00
          2   -1    0    0  502    0  0.00000000000E+00  0.00000000000E+00  0.12825361130E+04  0.12825361130E+04  0.00000000000E+00 0. -1.
         -2   -1    0    0    0  501 -0.00000000000E+00 -0.00000000000E+00 -0.36734197367E+00  0.36734197367E+00  0.00000000000E+00 0.  1.
          1    1    1    2  502    0  0.21289999301E+02 -0.11627390976E+01  0.76117554209E+03  0.76147411112E+03  0.00000000000E+00 0.  1.
         -1    1    1    2    0  501 -0.21289999301E+02  0.11627390976E+01  0.52099322892E+03  0.52142934383E+03  0.00000000000E+00 0. -1.
</event>
<event>
 4    1  0.6888348E+001  0.2027270E+02  0.7546771E-02  0.1529907E+00
          2   -1    0    0  502    0  0.00000000000E+00  0.00000000000E+00  0.12276214689E+04  0.12276214689E+04  0.00000000000E+00 0.  1.
         -2   -1    0    0    0  501 -0.00000000000E+00 -0.00000000000E+00 -0.34110114509E+00  0.34110114509E+00  0.00000000000E+00 0. -1.
          1    1    1    2  502    0 -0.20148791739E+02 -0.22379493447E+01  0.53005365029E+03  0.53044118846E+03  0.00000000000E+00 0.  1.
         -1    1    1    2    0  501  0.20148791739E+02  0.22379493447E+01  0.69722671748E+03  0.69752138160E+03  0.00000000000E+00 0. -1.
</event>
<event>
 4    1  0.6888348E+001  0.2445416E+02  0.7546771E-02  0.1475003E+00
          2   -1    0    0  502    0  0.00000000000E+00  0.00000000000E+00  0.26285894354E+03  0.26285894354E+03  0.00000000000E+00 0. -1.
         -2   -1    0    0    0  501 -0.00000000000E+00 -0.00000000000E+00 -0.24477559599E+01  0.24477559599E+01  0.00000000000E+00 0.  1.
          1    1    1    2  502    0 -0.21958981380E+02  0.10761463174E+02  0.16544607299E+03  0.16724356197E+03  0.00000000000E+00 0. -1.
         -1    1    1    2    0  501  0.21958981380E+02 -0.10761463174E+02  0.94965114587E+02  0.98063137526E+02  0.00000000000E+00 0.  1.
</event>
<event>
 4    1  0.6888348E+001  0.5728801E+02  0.7546771E-02  0.1269336E+00
          2   -1    0    0  502    0  0.00000000000E+00  0.00000000000E+00  0.16085684429E+04  0.16085684429E+04  0.00000000000E+00 0. -1.
         -2   -1    0    0    0  501 -0.00000000000E+00 -0.00000000000E+00 -0.23215321843E+01  0.23215321843E+01  0.00000000000E+00 0.  1.
          1    1    1    2  502    0  0.54641610200E+02  0.17210759998E+02  0.10834752207E+04  0.10849886957E+04  0.00000000000E+00 0.  1.
         -1    1    1    2    0  501 -0.54641610200E+02 -0.17210759998E+02  0.52277169001E+03  0.52590127942E+03  0.00000000000E+00 0. -1.
</event>
<event>
 4    1  0.6888348E+001  0.3278858E+02  0.7546771E-02  0.1396814E+00
          2   -1    0    0  502    0  0.00000000000E+00  0.00000000000E+00  0.46436345987E+03  0.46436345987E+03  0.00000000000E+00 0.  1.
         -2   -1    0    0    0  501 -0.00000000000E+00 -0.00000000000E+00 -0.26686012166E+01  0.26686012166E+01  0.00000000000E+00 0. -1.
          1    1    1    2  502    0 -0.17974052378E+02 -0.27423067993E+02  0.31582668755E+03  0.31752415308E+03  0.00000000000E+00 0. -1.
         -1    1    1    2    0  501  0.17974052378E+02  0.27423067993E+02  0.14586817110E+03  0.14950790801E+03  0.00000000000E+00 0.  1.
</event>
<event>
 4    1  0.6888348E+001  0.2297627E+02  0.7546771E-02  0.1492796E+00
          2   -1    0    0  502    0  0.00000000000E+00  0.00000000000E+00  0.62849648406E+01  0.62849648406E+01  0.00000000000E+00 0.  1.
         -2   -1    0    0    0  501 -0.00000000000E+00 -0.00000000000E+00 -0.97098271115E+02  0.97098271115E+02  0.00000000000E+00 0. -1.
          1    1    1    2  502    0 -0.83829939269E+01 -0.21392396128E+02 -0.26417971738E+02  0.35011689905E+02  0.00000000000E+00 0. -1.
         -1    1    1    2    0  501  0.83829939269E+01  0.21392396128E+02 -0.64395334537E+02  0.68371546051E+02  0.00000000000E+00 0.  1.
</event>
<event>
 4    1  0.6888348E+001  0.2959328E+02  0.7546771E-02  0.1423164E+00
          2   -1    0    0  502    0  0.00000000000E+00  0.00000000000E+00  0.42918876803E+03  0.42918876803E+03  0.00000000000E+00 0. -1.
         -2   -1    0    0    0  501 -0.00000000000E+00 -0.00000000000E+00 -0.21521423260E+01  0.21521423260E+01  0.00000000000E+00 0.  1.
          1    1    1    2  502    0 -0.19660065791E+02 -0.22118856822E+02  0.16439823730E+03  0.16704054131E+03  0.00000000000E+00 0.  1.
         -1    1    1    2    0  501  0.19660065791E+02  0.22118856822E+02  0.26263838840E+03  0.26430036905E+03  0.00000000000E+00 0. -1.
</event>
<event>
 4    1  0.6888348E+001  0.2613469E+02  0.7546771E-02  0.1456499E+00
          2   -1    0    0  502    0  0.00000000000E+00  0.00000000000E+00  0.27912569811E+03  0.27912569811E+03  0.00000000000E+00 0.  1.
         -2   -1    0    0    0  501 -0.00000000000E+00 -0.00000000000E+00 -0.37675001768E+01  0.37675001768E+01  0.00000000000E+00 0. -1.
          1    1    1    2  502    0  0.24266263322E+02 -0.97041415952E+01  0.22141936294E+03  0.22295639974E+03  0.00000000000E+00 0.  1.
         -1    1    1    2    0  501 -0.24266263322E+02  0.97041415952E+01  0.53938834989E+02  0.59936798544E+02  0.00000000000E+00 0. -1.
</event>
<event>
 4    1  0.6888348E+001  0.2880387E+02  0.7546771E-02  0.1430283E+00
          2   -1    0    0  502    0  0.00000000000E+00  0.00000000000E+00  0.50744362378E+01  0.50744362378E+01  0.00000000000E+00 0.  1.
         -2   -1    0    0    0  501 -0.00000000000E+00 -0.00000000000E+00 -0.17836523755E+03  0.17836523755E+03  0.00000000000E+00 0. -1.
          1    1    1    2  502    0 -0.28785593673E+02  0.10258386145E+01 -0.60165527353E+02  0.66704973050E+02  0.00000000000E+00 0.  1.
         -1    1    1    2    0  501  0.28785593673E+02 -0.10258386145E+01 -0.11312527396E+03  0.11673470074E+03  0.00000000000E+00 0. -1.
</event>
<event>
 4    1  0.6888348E+001  0.2200839E+02  0.7546771E-02  0.1505340E+00
          2   -1    0    0  502    0  0.00000000000E+00  0.00000000000E+00  0.13806344327E+04  0.13806344327E+04  0.00000000000E+00 0.  1.
         -2   -1    0    0    0  501 -0.00000000000E+00 -0.00000000000E+00 -0.11459347052E+01  0.11459347052E+01  0.00000000000E+00 0. -1.
          1    1    1    2  502    0 -0.37717969496E+01  0.21682771708E+02  0.11424993454E+03  0.11635040432E+03  0.00000000000E+00 0. -1.
         -1    1    1    2    0  501  0.37717969496E+01 -0.21682771708E+02  0.12652385635E+04  0.12654299631E+04  0.00000000000E+00 0.  1.
</event>
<event>
 4    1  0.6888348E+001  0.2923826E+02  0.7546771E-02  0.1426333E+00
          2   -1    0    0  502    0  0.00000000000E+00  0.00000000000E+00  0.63192797748E+01  0.63192797748E+01  0.00000000000E+00 0. -1.
         -2   -1    0    0    0  501 -0.00000000000E+00 -0.00000000000E+00 -0.15002545325E+03  0.15002545325E+03  0.00000000000E+00 0.  1.
          1    1    1    2  502    0 -0.25360936886E+02 -0.14549876199E+02 -0.47346045663E+02  0.55646419984E+02  0.00000000000E+00 0. -1.
         -1    1    1    2    0  501  0.25360936886E+02  0.14549876199E+02 -0.96360127811E+02  0.10069831304E+03  0.00000000000E+00 0.  1.
</event>
<event>
 4    1  0.6888348E+001  0.2534466E+02  0.7546771E-02  0.1464984E+00
          2   -1    0    0  502    0  0.00000000000E+00  0.00000000000E+00  0.32405661984E+03  0.32405661984E+03  0.00000000000E+00 0. -1.
         -2   -1    0    0    0  501 -0.00000000000E+00 -0.00000000000E+00 -0.21531415810E+01  0.21531415810E+01  0.00000000000E+00 0.  1.
          1    1    1    2  502    0 -0.19809970803E+02  0.15808751042E+02  0.11499714256E+03  0.11775692910E+03  0.00000000000E+00 0.  1.
         -1    1    1    2    0  501  0.19809970803E+02 -0.15808751042E+02  0.20690633569E+03  0.20845283232E+03  0.00000000000E+00 0. -1.
</event>
<event>
 4    1  0.6888348E+001  0.2649569E+02  0.7546771E-02  0.1452741E+00
          2   -1    0    0  502    0  0.00000000000E+00  0.00000000000E+00  0.10013270820E+04  0.10013270820E+04  0.00000000000E+00 0. -1.
         -2   -1    0    0    0  501 -0.00000000000E+00 -0.00000000000E+00 -0.12213032407E+01  0.12213032407E+01  0.00000000000E+00 0.  1.
          1    1    1    2  502    0 -0.26419728154E+02  0.20049135655E+01  0.17289775076E+03  0.17491613399E+03  0.00000000000E+00 0.  1.
         -1    1    1    2    0  501  0.26419728154E+02 -0.20049135655E+01  0.82720802805E+03  0.82763225129E+03  0.00000000000E+00 0. -1.
</event>
<event>
 4    1  0.6888348E+001  0.5616503E+02  0.7546771E-02  0.1273450E+00
          2   -1    0    0  502    0  0.00000000000E+00  0.00000000000E+00  0.25343033915E+02  0.25343033915E+02  0.00000000000E+00 0. -1.
         -2   -1    0    0    0  501 -0.00000000000E+00 -0.00000000000E+00 -0.15064865165E+03  0.15064865165E+03  0.00000000000E+00 0.  1.
          1    1    1    2  502    0 -0.56096774849E+02 -0.27681437096E+01 -0.99333071491E+02  0.11411209340E+03  0.00000000000E+00 0.  1.
         -1    1    1    2    0  501  0.56096774849E+02  0.27681437096E+01 -0.25972546241E+02  0.61879592163E+02  0.00000000000E+00 0. -1.
</event>
<event>
 4    1  0.6888348E+001  0.2347343E+02  0.7546771E-02  0.1486637E+00
          2   -1    0    0  502    0  0.00000000000E+00  0.00000000000E+00  0.14785464194E+01  0.14785464194E+01  0.00000000000E+00 0.  1.
         -2   -1    0    0    0  501 -0.00000000000E+00 -0.00000000000E+00 -0.37815003484E+03  0.37815003484E+03  0.00000000000E+00 0. -1.
          1    1    1    2  502    0 -0.15208812975E+02 -0.17879981974E+02 -0.21119734905E+03  0.21249781645E+03  0.00000000000E+00 0. -1.
         -1    1    1    2    0  501  0.15208812975E+02  0.17879981974E+02 -0.16547413937E+03  0.16713076481E+03  0.00000000000E+00 0.  1.
</event>
<event>
 4    1  0.6888348E+001  0.2059601E+02  0.7546771E-02  0.1525112E+00
          2   -1    0    0  502    0  0.00000000000E+00  0.00000000000E+00  0.10459204113E+03  0.10459204113E+03  0.00000000000E+00 0.  1.
         -2   -1    0    0    0  501 -0.00000000000E+00 -0.00000000000E+00 -0.40730306714E+01  0.40730306714E+01  0.00000000000E+00 0. -1.
          1    1    1    2  502    0  0.15993406964E+02  0.12977156676E+02  0.53801946214E+02  0.57609418311E+02  0.00000000000E+00 0.  1.
         -1    1    1    2    0  501 -0.15993406964E+02 -0.12977156676E+02  0.46717064245E+02  0.51055653490E+02  0.00000000000E+00 0. -1.
</event>
<event>
 4    1  0.6888348E+001  0.2219234E+02  0.7546771E-02  0.1502897E+00
          2   -1    0    0  502    0  0.00000000000E+00  0.00000000000E+00  0.51525282435E+01  0.51525282435E+01  0.00000000000E+00 0.  1.
         -2   -1    0    0    0  501 -0.00000000000E+00 -0.00000000000E+00 -0.10688268008E+03  0.10688268008E+03  0.00000000000E+00 0. -1.
          1    1    1    2  502    0  0.17149962999E+02 -0.14084701804E+02 -0.69078086883E+02  0.72555372945E+02  0.00000000000E+00 0. -1.
         -1    1    1    2    0  501 -0.17149962999E+02  0.14084701804E+02 -0.32652064953E+02  0.39479835378E+02  0.00000000000E+00 0.  1.
</event>
<event>
 4    1  0.6888348E+001  0.3862194E+02  0.7546771E-02  0.1356756E+00
          2   -1    0    0  502    0  0.00000000000E+00  0.00000000000E+00  0.34023266824E+02  0.34023266824E+02  0.00000000000E+00 0.  1.
         -2   -1    0    0    0  501 -0.00000000000E+00 -0.00000000000E+00 -0.26238937665E+03  0.26238937665E+03  0.00000000000E+00 0. -1.
          1    1    1    2  502    0 -0.32402246211E+02  0.21017816835E+02 -0.24944207138E+03  0.25241434420E+03  0.00000000000E+00 0. -1.
         -1    1    1    2    0  501  0.32402246211E+02 -0.21017816835E+02  0.21075961550E+02  0.43998299277E+02  0.00000000000E+00 0.  1.
</event>
<event>
 4    1  0.6888348E+001  0.2950624E+02  0.7546771E-02  0.1423936E+00
          2   -1    0    0  502    0  0.00000000000E+00  0.00000000000E+00  0.44013381779E+02  0.44013381779E+02  0.00000000000E+00 0. -1.
         -2   -1    0    0    0  501 -0.00000000000E+00 -0.00000000000E+00 -0.26208037982E+02  0.26208037982E+02  0.00000000000E+00 0.  1.
          1    1    1    2  502    0 -0.28929998865E+02  0.58028700996E+01 -0.84847784172E+01  0.30701947829E+02  0.00000000000E+00 0.  1.
         -1    1    1    2    0  501  0.28929998865E+02 -0.58028700996E+01  0.26290122215E+02  0.39519471932E+02  0.00000000000E+00 0. -1.
</event>
<event>
 4    1  0.6888348E+001  0.2070359E+02  0.7546771E-02  0.1523539E+00
          2   -1    0    0  502    0  0.00000000000E+00  0.00000000000E+00  0.93335894924E+03  0.93335894924E+03  0.00000000000E+00 0. -1.
         -2   -1    0    0    0  501 -0.00000000000E+00 -0.00000000000E+00 -0.45936720037E+00  0.45936720037E+00  0.00000000000E+00 0.  1.
          1    1    1    2  502    0  0.14210324624E+02  0.15056738223E+02  0.47412294835E+03  0.47457476633E+03  0.00000000000E+00 0.  1.
         -1    1    1    2    0  501 -0.14210324624E+02 -0.15056738223E+02  0.45877663370E+03  0.45924355011E+03  0.00000000000E+00 0. -1.
</event>
<event>
 4    1  0.6888348E+001  0.2167809E+02  0.7546771E-02  0.1509800E+00
          2   -1    0    0  502    0  0.00000000000E+00  0.00000000000E+00  0.65552160687E+01  0.65552160687E+01  0.00000000000E+00 0.  1.
         -2   -1    0    0    0  501 -0.00000000000E+00 -0.00000000000E+00 -0.80824822622E+02  0.80824822622E+02  0.00000000000E+00 0. -1.
          1    1    1    2  502    0  0.97408853532E+01  0.19366326811E+02 -0.22446408292E+02  0.31205459568E+02  0.00000000000E+00 0.  1.
         -1    1    1    2    0  501 -0.97408853532E+01 -0.19366326811E+02 -0.51823198261E+02  0.56174579123E+02  0.00000000000E+00 0. -1.
</event>
<event>
 4    1  0.6888348E+001  0.2028162E+02  0.7546771E-02  0.1529773E+00
          2   -1    0    0  502    0  0.00000000000E+00  0.00000000000E+00  0.10138532708E+03  0.10138532708E+03  0.00000000000E+00 0.  1.
         -2   -1    0    0    0  501 -0.00000000000E+00 -0.00000000000E+00 -0.41073129317E+01  0.41073129317E+01  0.00000000000E+00 0. -1.
          1    1    1    2  502    0  0.40499414529E+01  0.19873147370E+02  0.54463258459E+02  0.58117041685E+02  0.00000000000E+00 0. -1.
         -1    1    1    2    0  501 -0.40499414529E+01 -0.19873147370E+02  0.42814755692E+02  0.47375598330E+02  0.00000000000E+00 0.  1.
</event>
<event>
 4    1  0.6888348E+001  0.3385535E+02  0.7546771E-02  0.1388794E+00
          2   -1    0    0  502    0  0.00000000000E+00  0.00000000000E+00  0.74616649401E+03  0.74616649401E+03  0.00000000000E+00 0. -1.
         -2   -1    0    0    0  501 -0.00000000000E+00 -0.00000000000E+00 -0.15364237489E+01  0.15364237489E+01  0.00000000000E+00 0.  1.
          1    1    1    2  502    0  0.26243366568E+02 -0.21388555298E+02  0.36686839837E+03  0.36842720626E+03  0.00000000000E+00 0. -1.
         -1    1    1    2    0  501 -0.26243366568E+02  0.21388555298E+02  0.37776167189E+03  0.37927571150E+03  0.00000000000E+00 0.  1.
</event>
<event>
 4    1  0.6888348E+001  0.2312806E+02  0.7546771E-02  0.1490896E+00
          2   -1    0    0  502    0  0.00000000000E+00  0.00000000000E+00  0.34861596768E+02  0.34861596768E+02  0.00000000000E+00 0. -1.
         -2   -1    0    0    0  501 -0.00000000000E+00 -0.00000000000E+00 -0.22219792981E+02  0.22219792981E+02  0.00000000000E+00 0.  1.
          1    1    1    2  502    0 -0.21605390829E+02 -0.82531472255E+01 -0.95559384449E+01  0.25024454271E+02  0.00000000000E+00 0.  1.
         -1    1    1    2    0  501  0.21605390829E+02  0.82531472255E+01  0.22197742232E+02  0.32056935477E+02  0.00000000000E+00 0. -1.
</event>
<event>
 4    1  0.6888348E+001  0.2758167E+02  0.7546771E-02  0.1441851E+00
          2   -1    0    0  502    0  0.00000000000E+00  0.00000000000E+00  0.12104524694E+04  0.12104524694E+04  0.00000000000E+00 0. -1.
         -2   -1    0    0    0  501 -0.00000000000E+00 -0.00000000000E+00 -0.80097544855E+00  0.80097544855E+00  0.00000000000E+00 0.  1.
          1    1    1    2  502    0 -0.27478686049E+02  0.23812745318E+01  0.88587382566E+03  0.88630309920E+03  0.00000000000E+00 0. -1.
         -1    1    1    2    0  501  0.27478686049E+02 -0.23812745318E+01  0.32377766830E+03  0.32495034567E+03  0.00000000000E+00 0.  1.
</event>
<event>
 4    1  0.6888348E+001  0.3309874E+02  0.7546771E-02  0.1394446E+00
          2   -1    0    0  502    0  0.00000000000E+00  0.00000000000E+00  0.25075335106E+04  0.25075335106E+04  0.00000000000E+00 0. -1.
         -2   -1    0    0    0  501 -0.00000000000E+00 -0.00000000000E+00 -0.45539853283E+00  0.45539853283E+00  0.00000000000E+00 0.  1.
          1    1    1    2  502    0  0.86628449678E+01  0.31944977312E+02  0.15063165111E+04  0.15066801114E+04  0.00000000000E+00 0.  1.
         -1    1    1    2    0  501 -0.86628449678E+01 -0.31944977312E+02  0.10007616009E+04  0.10013087977E+04  0.00000000000E+00 0. -1.
</event>
<event>
 4    1  0.6888348E+001  0.3315390E+02  0.7546771E-02  0.1394028E+00
          2   -1    0    0  502    0  0.00000000000E+00  0.00000000000E+00  0.54612146167E+03  0.54612146167E+03  0.00000000000E+00 0. -1.
         -2   -1    0    0    0  501 -0.00000000000E+00 -0.00000000000E+00 -0.21486914156E+01  0.21486914156E+01  0.00000000000E+00 0.  1.
          1    1    1    2  502    0 -0.42105446199E+01  0.32885443804E+02  0.34095098391E+03  0.34255912559E+03  0.00000000000E+00 0. -1.
         -1    1    1    2    0  501  0.42105446199E+01 -0.32885443804E+02  0.20302178635E+03  0.20571102750E+03  0.00000000000E+00 0.  1.
</event>
<event>
 4    1  0.6888348E+001  0.2287097E+02  0.7546771E-02  0.1494125E+00
          2   -1    0    0  502    0  0.00000000000E+00  0.00000000000E+00  0.35100493754E+02  0.35100493754E+02  0.00000000000E+00 0. -1.
         -2   -1    0    0    0  501 -0.00000000000E+00 -0.00000000000E+00 -0.14989821360E+02  0.14989821360E+02  0.00000000000E+00 0.  1.
          1    1    1    2  502    0 -0.21326592779E+02 -0.82618264912E+01  0.81426098982E+01  0.24277220444E+02  0.00000000000E+00 0.  1.
         -1    1    1    2    0  501  0.21326592779E+02  0.82618264912E+01  0.11968062496E+02  0.25813094670E+02  0.00000000000E+00 0. -1.
</event>
<event>
 4    1  0.6888348E+001  0.2384917E+02  0.7546771E-02  0.1482102E+00
          2   -1    0    0  502    0  0.00000000000E+00  0.00000000000E+00  0.23662454407E+03  0.23662454407E+03  0.00000000000E+00 0.  1.
         -2   -1    0    0    0  501 -0.00000000000E+00 -0.00000000000E+00 -0.24058786801E+01  0.24058786801E+01  0.00000000000E+00 0. -1.
          1    1    1    2  502    0 -0.23845628863E+02 -0.41090649032E+00  0.12067628359E+03  0.12301035843E+03  0.00000000000E+00 0. -1.
         -1    1    1    2    0  501  0.23845628863E+02  0.41090649032E+00  0.11354238180E+03  0.11602006432E+03  0.00000000000E+00 0.  1.
</event>
<event>
 4    1  0.6888348E+001  0.2114009E+02  0.7546771E-02  0.1517274E+00
          2   -1    0    0  502    0  0.00000000000E+00  0.00000000000E+00  0.10806807541E+02  0.10806807541E+02  0.00000000000E+00 0. -1.
         -2   -1    0    0    0  501 -0.00000000000E+00 -0.00000000000E+00 -0.12431567281E+03  0.12431567281E+03  0.00000000000E+00 0.  1.
          1    1    1    2  502    0 -0.19476501060E+02  0.82200485752E+01 -0.11194613202E+03  0.11392471096E+03  0.00000000000E+00 0.  1.
         -1    1    1    2    0  501  0.19476501060E+02 -0.82200485752E+01 -0.15627332497E+01  0.21197769395E+02  0.00000000000E+00 0. -1.
</event>
<event>
 4    1  0.6888348E+001  0.2477892E+02  0.7546771E-02  0.1471292E+00
          2   -1    0    0  502    0  0.00000000000E+00  0.00000000000E+00  0.21060978606E+02  0.21060978606E+02  0.00000000000E+00 0. -1.
         -2   -1    0    0    0  501 -0.00000000000E+00 -0.00000000000E+00 -0.18724466400E+03  0.18724466400E+03  0.00000000000E+00 0.  1.
          1    1    1    2  502    0 -0.16973952001E+02 -0.18052144846E+02  0.12610048551E+02  0.27803026895E+02  0.00000000000E+00 0. -1.
         -1    1    1    2    0  501  0.16973952001E+02  0.18052144846E+02 -0.17879373395E+03  0.18050261571E+03  0.00000000000E+00 0.  1.
</event>
<event>
 4    1  0.6888348E+001  0.3435194E+02  0.7546771E-02  0.1385177E+00
          2   -1    0    0  502    0  0.00000000000E+00  0.00000000000E+00  0.10114733781E+03  0.10114733781E+03  0.00000000000E+00 0.  1.
         -2   -1    0    0    0  501 -0.00000000000E+00 -0.00000000000E+00 -0.22425501805E+02  0.22425501805E+02  0.00000000000E+00 0. -1.
          1    1    1    2  502    0  0.39679641756E+01  0.34122002289E+02 -0.34351503872E+01  0.34523268068E+02  0.00000000000E+00 0. -1.
         -1    1    1    2    0  501 -0.39679641756E+01 -0.34122002289E+02  0.82156986395E+02  0.89049571551E+02  0.00000000000E+00 0.  1.
</event>
<event>
 4    1  0.6888348E+001  0.2984446E+02  0.7546771E-02  0.1420953E+00
          2   -1    0    0  502    0  0.00000000000E+00  0.00000000000E+00  0.86093503470E+02  0.86093503470E+02  0.00000000000E+00 0.  1.
         -2   -1    0    0    0  501 -0.00000000000E+00 -0.00000000000E+00 -0.28196186339E+02  0.28196186339E+02  0.00000000000E+00 0. -1.
          1    1    1    2  502    0 -0.21349677479E+01 -0.29767996716E+02  0.74416854673E+02  0.80178301149E+02  0.00000000000E+00 0.  1.
         -1    1    1    2    0  501  0.21349677479E+01  0.29767996716E+02 -0.16519537541E+02  0.34111388660E+02  0.00000000000E+00 0. -1.
</event>
<event>
 4    1  0.6888348E+001  0.3041262E+02  0.7546771E-02  0.1416044E+00
          2   -1    0    0  502    0  0.00000000000E+00  0.00000000000E+00  0.15173167686E+03  0.15173167686E+03  0.00000000000E+00 0. -1.
         -2   -1    0    0    0  501 -0.00000000000E+00 -0.00000000000E+00 -0.62181407297E+01  0.62181407297E+01  0.00000000000E+00 0.  1.
          1    1    1    2  502    0  0.20860195213E+02  0.22130967189E+02  0.83833888486E+02  0.89179864946E+02  0.00000000000E+00 0. -1.
         -1    1    1    2    0  501 -0.20860195213E+02 -0.22130967189E+02  0.61679647642E+02  0.68769952642E+02  0.00000000000E+00 0.  1.
</event>
<event>
 4    1  0.6888348E+001  0.2245918E+02  0.7546771E-02  0.1499403E+00
          2   -1    0    0  502    0  0.00000000000E+00  0.00000000000E+00  0.12829114511E+04  0.12829114511E+04  0.00000000000E+00 0.  1.
         -2   -1    0    0    0  501 -0.00000000000E+00 -0.00000000000E+00 -0.39356132326E+00  0.39356132326E+00  0.00000000000E+00 0. -1.
          1    1    1    2  502    0 -0.54983772603E+00 -0.22452445479E+02  0.66124190642E+03  0.66162321108E+03  0.00000000000E+00 0. -1.
         -1    1    1    2    0  501  0.54983772603E+00  0.22452445479E+02  0.62127598331E+03  0.62168180130E+03  0.00000000000E+00 0.  1.
</event>
<event>
 4    1  0.6888348E+001  0.2742203E+02  0.7546771E-02  0.1443414E+00
          2   -1    0    0  502    0  0.00000000000E+00  0.00000000000E+00  0.28320830825E+01  0.28320830825E+01  0.00000000000E+00 0. -1.
         -2   -1    0    0    0  501 -0.00000000000E+00 -0.00000000000E+00 -0.37650643498E+03  0.37650643498E+03  0.00000000000E+00 0.  1.
          1    1    1    2  502    0 -0.22390352316E+01 -0.27330466509E+02 -0.83857730796E+02  0.88227471303E+02  0.00000000000E+00 0. -1.
         -1    1    1    2    0  501  0.22390352316E+01  0.27330466509E+02 -0.28981662110E+03  0.29111104675E+03  0.00000000000E+00 0.  1.
</event>
<event>
 4    1  0.6888348E+001  0.2237715E+02  0.7546771E-02  0.1500471E+00
          2   -1    0    0  502    0  0.00000000000E+00  0.00000000000E+00  0.16828934914E+04  0.16828934914E+04  0.00000000000E+00 0.  1.
         -2   -1    0    0    0  501 -0.00000000000E+00 -0.00000000000E+00 -0.65975824415E+00  0.65975824415E+00  0.00000000000E+00 0. -1.
          1    1    1    2  502    0 -0.20433567220E+02 -0.91217458674E+01  0.21740144976E+03  0.21855005668E+03  0.00000000000E+00 0. -1.
         -1    1    1    2    0  501  0.20433567220E+02  0.91217458674E+01  0.14648322834E+04  0.14650031930E+04  0.00000000000E+00 0.  1.
</event>
<event>
 4    1  0.6888348E+001  0.4274321E+02  0.7546771E-02  0.1333119E+00
          2   -1    0    0  502    0  0.00000000000E+00  0.00000000000E+00  0.32764473882E+02  0.32764473882E+02  0.00000000000E+00 0. -1.
         -2   -1    0    0    0  501 -0.00000000000E+00 -0.00000000000E+00 -0.58461658800E+02  0.58461658800E+02  0.00000000000E+00 0.  1.
          1    1    1    2  502    0 -0.18157345665E+02  0.38694867494E+02 -0.30450439974E+01  0.42851537487E+02  0.00000000000E+00 0.  1.
         -1    1    1    2    0  501  0.18157345665E+02 -0.38694867494E+02 -0.22652140921E+02  0.48374595195E+02  0.00000000000E+00 0. -1.
</event>
<event>
 4    1  0.6888348E+001  0.5355416E+02  0.7546771E-02  0.1283457E+00
          2   -1    0    0  502    0  0.00000000000E+00  0.00000000000E+00  0.26788694736E+04  0.26788694736E+04  0.00000000000E+00 0. -1.
         -2   -1    0    0    0  501 -0.00000000000E+00 -0.00000000000E+00 -0.19863811705E+01  0.19863811705E+01  0.00000000000E+00 0.  1.
          1    1    1    2  502    0 -0.52689364928E+02 -0.95853689588E+01  0.22485717551E+04  0.22492094136E+04  0.00000000000E+00 0. -1.
         -1    1    1    2    0  501  0.52689364928E+02  0.95853689588E+01  0.42831133731E+03  0.43164644114E+03  0.00000000000E+00 0.  1.
</event>
<event>
 4    1  0.6888348E+001  0.2192081E+02  0.7546771E-02  0.1506513E+00
          2   -1    0    0  502    0  0.00000000000E+00  0.00000000000E+00  0.43996843064E+03  0.43996843064E+03  0.00000000000E+00 0.  1.
         -2   -1    0    0    0  501 -0.00000000000E+00 -0.00000000000E+00 -0.35521538445E+01  0.35521538445E+01  0.00000000000E+00 0. -1.
          1    1    1    2  502    0 -0.15227478355E+02  0.15768510394E+02  0.40275373581E+03  0.40334984037E+03  0.00000000000E+00 0.  1.
         -1    1    1    2    0  501  0.15227478355E+02 -0.15768510394E+02  0.33662540979E+02  0.40170744109E+02  0.00000000000E+00 0. -1.
</event>
<event>
 4    1  0.6888348E+001  0.2395673E+02  0.7546771E-02  0.1480822E+00
          2   -1    0    0  502    0  0.00000000000E+00  0.00000000000E+00  0.86291147135E+03  0.86291147135E+03  0.00000000000E+00 0.  1.
         -2   -1    0    0    0  501 -0.00000000000E+00 -0.00000000000E+00 -0.13678308683E+01  0.13678308683E+01  0.00000000000E+00 0. -1.
          1    1    1    2  502    0 -0.52506804764E+01 -0.23374242399E+02  0.12102877718E+03  0.12337702282E+03  0.00000000000E+00 0. -1.
         -1    1    1    2    0  501  0.52506804764E+01  0.23374242399E+02  0.74051486331E+03  0.74090227941E+03  0.00000000000E+00 0.  1.
</event>
<event>
 4    1  0.6888348E+001  0.2281262E+02  0.7546771E-02  0.1494865E+00
          2   -1    0    0  502    0  0.00000000000E+00  0.00000000000E+00  0.90028372290E+01  0.90028372290E+01  0.00000000000E+00 0.  1.
         -2   -1    0    0    0  501 -0.00000000000E+00 -0.00000000000E+00 -0.60305398300E+02  0.60305398300E+02  0.00000000000E+00 0. -1.
          1    1    1    2  502    0 -0.16516422616E+02  0.15736049572E+02 -0.18595924002E+02  0.29431681258E+02  0.00000000000E+00 0.  1.
         -1    1    1    2    0  501  0.16516422616E+02 -0.15736049572E+02 -0.32706637069E+02  0.39876554271E+02  0.00000000000E+00 0. -1.
</event>
<event>
 4    1  0.6888348E+001  0.4942195E+02  0.7546771E-02  0.1300698E+00
          2   -1    0    0  502    0  0.00000000000E+00  0.00000000000E+00  0.71805194879E+02  0.71805194879E+02  0.00000000000E+00 0. -1.
         -2   -1    0    0    0  501 -0.00000000000E+00 -0.00000000000E+00 -0.36878931682E+02  0.36878931682E+02  0.00000000000E+00 0.  1.
          1    1    1    2  502    0 -0.50347732297E+01  0.49164831836E+02  0.23223569267E+01  0.49476489089E+02  0.00000000000E+00 0.  1.
         -1    1    1    2    0  501  0.50347732297E+01 -0.49164831836E+02  0.32603906270E+02  0.59207637472E+02  0.00000000000E+00 0. -1.
</event>
<event>
 4    1  0.6888348E+001  0.2403988E+02  0.7546771E-02  0.1479837E+00
          2   -1    0    0  502    0  0.00000000000E+00  0.00000000000E+00  0.14013932434E+04  0.14013932434E+04  0.00000000000E+00 0. -1.
         -2   -1    0    0    0  501 -0.00000000000E+00 -0.00000000000E+00 -0.43384193611E+00  0.43384193611E+00  0.00000000000E+00 0.  1.
          1    1    1    2  502    0 -0.14109083165E+02 -0.19464054448E+02  0.85635146192E+03  0.85668882447E+03  0.00000000000E+00 0. -1.
         -1    1    1    2    0  501  0.14109083165E+02  0.19464054448E+02  0.54460793953E+03  0.54513826085E+03  0.00000000000E+00 0.  1.
</event>
<event>
 4    1  0.6888348E+001  0.4696162E+02  0.7546771E-02  0.1311912E+00
          2   -1    0    0  502    0  0.00000000000E+00  0.00000000000E+00  0.58500333722E+03  0.58500333722E+03  0.00000000000E+00 0.  1.
         -2   -1    0    0    0  501 -0.00000000000E+00 -0.00000000000E+00 -0.44448091301E+01  0.44448091301E+01  0.00000000000E+00 0. -1.
          1    1    1    2  502    0 -0.43843574557E+02  0.16826616678E+02  0.17543290901E+03  0.18160974540E+03  0.00000000000E+00 0. -1.
         -1    1    1    2    0  501  0.43843574557E+02 -0.16826616678E+02  0.40512561908E+03  0.40783840095E+03  0.00000000000E+00 0.  1.
</event>
<event>
 4    1  0.6888348E+001  0.3037221E+02  0.7546771E-02  0.1416389E+00
          2   -1    0    0  502    0  0.00000000000E+00  0.00000000000E+00  0.17736028046E+03  0.17736028046E+03  0.00000000000E+00 0. -1.
         -2   -1    0    0    0  501 -0.00000000000E+00 -0.00000000000E+00 -0.52072594246E+01  0.52072594246E+01  0.00000000000E+00 0.  1.
          1    1    1    2  502    0  0.30365593317E+02  0.63376706758E+00  0.82940419051E+02  0.88326576015E+02  0.00000000000E+00 0. -1.
         -1    1    1    2    0  501 -0.30365593317E+02 -0.63376706758E+00  0.89212601988E+02  0.94240963873E+02  0.00000000000E+00 0.  1.
</event>
<event>
 4    1  0.6888348E+001  0.6855394E+02  0.7546771E-02  0.1233247E+00
          2   -1    0    0  502    0  0.00000000000E+00  0.00000000000E+00  0.91275990268E+03  0.91275990268E+03  0.00000000000E+00 0.  1.
         -2   -1    0    0    0  501 -0.00000000000E+00 -0.00000000000E+00 -0.54755981886E+01  0.54755981886E+01  0.00000000000E+00 0. -1.
          1    1    1    2  502    0  0.32849340507E+02 -0.60171119443E+02  0.56580014018E+03  0.56993810314E+03  0.00000000000E+00 0.  1.
         -1    1    1    2    0  501 -0.32849340507E+02  0.60171119443E+02  0.34148416431E+03  0.34829739772E+03  0.00000000000E+00 0. -1.
</event>
<event>
 4    1  0.6888348E+001  0.6987712E+02  0.7546771E-02  0.1229525E+00
          2   -1    0    0  502    0  0.00000000000E+00  0.00000000000E+00  0.10913765122E+04  0.10913765122E+04  0.00000000000E+00 0. -1.
         -2   -1    0    0    0  501 -0.00000000000E+00 -0.00000000000E+00 -0.71831407249E+01  0.71831407249E+01  0.00000000000E+00 0.  1.
          1    1    1    2  502    0  0.44515623194E+02  0.53862527375E+02  0.87942491064E+03  0.88219668216E+03  0.00000000000E+00 0. -1.
         -1    1    1    2    0  501 -0.44515623194E+02 -0.53862527375E+02  0.20476846080E+03  0.21636297072E+03  0.00000000000E+00 0.  1.
</event>
<event>
 4    1  0.6888348E+001  0.2016271E+02  0.7546771E-02  0.1531563E+00
          2   -1    0    0  502    0  0.00000000000E+00  0.00000000000E+00  0.16972054699E+04  0.16972054699E+04  0.00000000000E+00 0.  1.
         -2   -1    0    0    0  501 -0.00000000000E+00 -0.00000000000E+00 -0.27192961946E+00  0.27192961946E+00  0.00000000000E+00 0. -1.
          1    1    1    2  502    0  0.63021428903E+01  0.19152493140E+02  0.11414227619E+04  0.11416008305E+04  0.00000000000E+00 0.  1.
         -1    1    1    2    0  501 -0.63021428903E+01 -0.19152493140E+02  0.55551077839E+03  0.55587656894E+03  0.00000000000E+00 0. -1.
</event>
<event>
 4    1  0.6888348E+001  0.2766732E+02  0.7546771E-02  0.1441018E+00
          2   -1    0    0  502    0  0.00000000000E+00  0.00000000000E+00  0.42733380451E+03  0.42733380451E+03  0.00000000000E+00 0.  1.
         -2   -1    0    0    0  501 -0.00000000000E+00 -0.00000000000E+00 -0.19744567742E+01  0.19744567742E+01  0.00000000000E+00 0. -1.
          1    1    1    2  502    0 -0.19757714413E+02 -0.19367841532E+02  0.14730134626E+03  0.14987717362E+03  0.00000000000E+00 0. -1.
         -1    1    1    2    0  501  0.19757714413E+02  0.19367841532E+02  0.27805800148E+03  0.27943108766E+03  0.00000000000E+00 0.  1.
</event>
<event>
 4    1  0.6888348E+001  0.2516959E+02  0.7546771E-02  0.1466915E+00
          2   -1    0    0  502    0  0.00000000000E+00  0.00000000000E+00  0.49708337073E+01  0.49708337073E+01  0.00000000000E+00 0.  1.
         -2   -1    0    0    0  501 -0.00000000000E+00 -0.00000000000E+00 -0.22261319317E+03  0.22261319317E+03  0.00000000000E+00 0. -1.
          1    1    1    2  502    0  0.24448534869E+02  0.59814191290E+01 -0.18322274849E+03  0.18494346108E+03  0.00000000000E+00 0. -1.
         -1    1    1    2    0  501 -0.24448534869E+02 -0.59814191290E+01 -0.34419610974E+02  0.42640565799E+02  0.00000000000E+00 0.  1.
</event>
<event>
 4    1  0.6888348E+001  0.2745247E+02  0.7546771E-02  0.1443115E+00
          2   -1    0    0  502    0  0.00000000000E+00  0.00000000000E+00  0.50335961028E+03  0.50335961028E+03  0.00000000000E+00 0.  1.
         -2   -1    0    0    0  501 -0.00000000000E+00 -0.00000000000E+00 -0.15720758689E+01  0.15720758689E+01  0.00000000000E+00 0. -1.
          1    1    1    2  502    0 -0.47832742125E+01 -0.27032539153E+02  0.30598613395E+03  0.30721515596E+03  0.00000000000E+00 0. -1.
         -1    1    1    2    0  501  0.47832742125E+01  0.27032539153E+02  0.19580140047E+03  0.19771653019E+03  0.00000000000E+00 0.  1.
</event>
<event>
 4    1  0.6888348E+001  0.2249241E+02  0.7546771E-02  0.1498972E+00
          2   -1    0    0  502    0  0.00000000000E+00  0.00000000000E+00  0.13559619980E+03  0.13559619980E+03  0.00000000000E+00 0.  1.
         -2   -1    0    0    0  501 -0.00000000000E+00 -0.00000000000E+00 -0.37758415753E+01  0.37758415753E+01  0.00000000000E+00 0. -1.
          1    1    1    2  502    0  0.22315444704E+02  0.28159420482E+01  0.73504841613E+02  0.76869176804E+02  0.00000000000E+00 0.  1.
         -1    1    1    2    0  501 -0.22315444704E+02 -0.28159420482E+01  0.58315516608E+02  0.62502864568E+02  0.00000000000E+00 0. -1.
</event>
<event>
 4    1  0.6888348E+001  0.2675248E+02  0.7546771E-02  0.1450110E+00
          2   -1    0    0  502    0  0.00000000000E+00  0.00000000000E+00  0.73101539012E+03  0.73101539012E+03  0.00000000000E+00 0.  1.
         -2   -1    0    0    0  501 -0.00000000000E+00 -0.00000000000E+00 -0.31825095885E+01  0.31825095885E+01  0.00000000000E+00 0. -1.
          1    1    1    2  502    0 -0.19775168126E+02 -0.18017712389E+02  0.58458406084E+02  0.64289038537E+02  0.00000000000E+00 0. -1.
         -1    1    1    2    0  501  0.19775168126E+02  0.18017712389E+02  0.66937447445E+03  0.66990886118E+03  0.00000000000E+00 0.  1.
</event>
<event>
 4    1  0.6888348E+001  0.2731240E+02  0.7546771E-02  0.1444495E+00
          2   -1    0    0  502    0  0.00000000000E+00  0.00000000000E+00  0.85004318889E+00  0.85004318889E+00  0.00000000000E+00 0. -1.
         -2   -1    0    0    0  501 -0.00000000000E+00 -0.00000000000E+00 -0.88328437572E+03  0.88328437572E+03  0.00000000000E+00 0.  1.
          1    1    1    2  502    0 -0.15205175307E+02 -0.22688537244E+02 -0.40564090989E+03  0.40655936203E+03  0.00000000000E+00 0. -1.
         -1    1    1    2    0  501  0.15205175307E+02  0.22688537244E+02 -0.47679342264E+03  0.47757505688E+03  0.00000000000E+00 0.  1.
</event>
<event>
 4    1  0.6888348E+001  0.2968445E+02  0.7546771E-02  0.1422359E+00
          2   -1    0    0  502    0  0.00000000000E+00  0.00000000000E+00  0.32928911843E+03  0.32928911843E+03  0.00000000000E+00 0. -1.
         -2   -1    0    0    0  501 -0.00000000000E+00 -0.00000000000E+00 -0.27710935916E+01  0.27710935916E+01  0.00000000000E+00 0.  1.
          1    1    1    2  502    0  0.46876816644E+01  0.29311983081E+02  0.19402089635E+03  0.19627856463E+03  0.00000000000E+00 0.  1.
         -1    1    1    2    0  501 -0.46876816644E+01 -0.29311983081E+02  0.13249712848E+03  0.13578164739E+03  0.00000000000E+00 0. -1.
</event>
<event>
 4    1  0.6888348E+001  0.4164593E+02  0.7546771E-02  0.1339102E+00
          2   -1    0    0  502    0  0.00000000000E+00  0.00000000000E+00  0.14465271849E+04  0.14465271849E+04  0.00000000000E+00 0. -1.
         -2   -1    0    0    0  501 -0.00000000000E+00 -0.00000000000E+00 -0.12522079215E+01  0.12522079215E+01  0.00000000000E+00 0.  1.
          1    1    1    2  502    0 -0.16667359117E+02 -0.38165205355E+02  0.57341684574E+03  0.57492718038E+03  0.00000000000E+00 0.  1.
         -1    1    1    2    0  501  0.16667359117E+02  0.38165205355E+02  0.87185813125E+03  0.87285221245E+03  0.00000000000E+00 0. -1.
</event>
<event>
 4    1  0.6888348E+001  0.2114888E+02  0.7546771E-02  0.1517150E+00
          2   -1    0    0  502    0  0.00000000000E+00  0.00000000000E+00  0.43489112823E+03  0.43489112823E+03  0.00000000000E+00 0. -1.
         -2   -1    0    0    0  501 -0.00000000000E+00 -0.00000000000E+00 -0.10322801291E+01  0.10322801291E+01  0.00000000000E+00 0.  1.
          1    1    1    2  502    0 -0.21139600994E+02 -0.62638706543E+00  0.23016091080E+03  0.23113052579E+03  0.00000000000E+00 0. -1.
         -1    1    1    2    0  501  0.21139600994E+02  0.62638706543E+00  0.20369793730E+03  0.20479288257E+03  0.00000000000E+00 0.  1.
</event>
<event>
 4    1  0.6888348E+001  0.2011884E+02  0.7546771E-02  0.1532227E+00
          2   -1    0    0  502    0  0.00000000000E+00  0.00000000000E+00  0.51510086875E+03  0.51510086875E+03  0.00000000000E+00 0. -1.
         -2   -1    0    0    0  501 -0.00000000000E+00 -0.00000000000E+00 -0.10027617013E+01  0.10027617013E+01  0.00000000000E+00 0.  1.
          1    1    1    2  502    0  0.72270173015E+01 -0.18775988482E+02  0.37708108049E+03  0.37761741059E+03  0.00000000000E+00 0. -1.
         -1    1    1    2    0  501 -0.72270173015E+01  0.18775988482E+02  0.13701702656E+03  0.13848621986E+03  0.00000000000E+00 0.  1.
</event>
<event>
 4    1  0.6888348E+001  0.2045270E+02  0.7546771E-02  0.1527224E+00
          2   -1    0    0  502    0  0.00000000000E+00  0.00000000000E+00  0.15903324483E+04  0.15903324483E+04  0.00000000000E+00 0.  1.
         -2   -1    0    0    0  501 -0.00000000000E+00 -0.00000000000E+00 -0.30618981491E+00  0.30618981491E+00  0.00000000000E+00 0. -1.
          1    1    1    2  502    0 -0.79537453926E+01  0.18842798495E+02  0.49643313123E+03  0.49685427129E+03  0.00000000000E+00 0. -1.
         -1    1    1    2    0  501  0.79537453926E+01 -0.18842798495E+02  0.10935931273E+04  0.10937843668E+04  0.00000000000E+00 0.  1.
</event>
<event>
 4    1  0.6888348E+001  0.2313567E+02  0.7546771E-02  0.1490802E+00
          2   -1    0    0  502    0  0.00000000000E+00  0.00000000000E+00  0.23341196314E+02  0.23341196314E+02  0.00000000000E+00 0.  1.
         -2   -1    0    0    0  501 -0.00000000000E+00 -0.00000000000E+00 -0.24669658197E+02  0.24669658197E+02  0.00000000000E+00 0. -1.
          1    1    1    2  502    0  0.86615658513E+01  0.21453125058E+02  0.57068847379E+01  0.23829138280E+02  0.00000000000E+00 0. -1.
         -1    1    1    2    0  501 -0.86615658513E+01 -0.21453125058E+02 -0.70353466206E+01  0.24181716230E+02  0.00000000000E+00 0.  1.
</event>
<event>
 4    1  0.6888348E+001  0.4738996E+02  0.7546771E-02  0.1309903E+00
          2   -1    0    0  502    0  0.00000000000E+00  0.00000000000E+00  0.12683990206E+04  0.12683990206E+04  0.00000000000E+00 0.  1.
         -2   -1    0    0    0  501 -0.00000000000E+00 -0.00000000000E+00 -0.17925377058E+01  0.17925377058E+01  0.00000000000E+00 0. -1.
          1    1    1    2  502    0  0.22997906506E+02  0.41435548919E+02  0.70358587559E+03  0.70518004279E+03  0.00000000000E+00 0.  1.
         -1    1    1    2    0  501 -0.22997906506E+02 -0.41435548919E+02  0.56302060735E+03  0.56501151556E+03  0.00000000000E+00 0. -1.
</event>
<event>
 4    1  0.6888348E+001  0.3157181E+02  0.7546771E-02  0.1406412E+00
          2   -1    0    0  502    0  0.00000000000E+00  0.00000000000E+00  0.48947204656E+03  0.48947204656E+03  0.00000000000E+00 0.  1.
         -2   -1    0    0    0  501 -0.00000000000E+00 -0.00000000000E+00 -0.22916359846E+01  0.22916359846E+01  0.00000000000E+00 0. -1.
          1    1    1    2  502    0  0.18171016719E+02  0.25818467953E+02  0.16153751019E+03  0.16459388304E+03  0.00000000000E+00 0. -1.
         -1    1    1    2    0  501 -0.18171016719E+02 -0.25818467953E+02  0.32564290039E+03  0.32716979950E+03  0.00000000000E+00 0.  1.
</event>
<event>
 4    1  0.6888348E+001  0.2310653E+02  0.7546771E-02  0.1491165E+00
          2   -1    0    0  502    0  0.00000000000E+00  0.00000000000E+00  0.39376910258E+03  0.39376910258E+03  0.00000000000E+00 0.  1.
         -2   -1    0    0    0  501 -0.00000000000E+00 -0.00000000000E+00 -0.15864724070E+01  0.15864724070E+01  0.00000000000E+00 0. -1.
          1    1    1    2  502    0 -0.19162926746E+02  0.12911005436E+02  0.27145195321E+03  0.27243361526E+03  0.00000000000E+00 0.  1.
         -1    1    1    2    0  501  0.19162926746E+02 -0.12911005436E+02  0.12073067696E+03  0.12292195973E+03  0.00000000000E+00 0. -1.
</event>
<event>
 4    1  0.6888348E+001  0.2863012E+02  0.7546771E-02  0.1431886E+00
          2   -1    0    0  502    0  0.00000000000E+00  0.00000000000E+00  0.98966015652E+03  0.98966015652E+03  0.00000000000E+00 0.  1.
         -2   -1    0    0    0  501 -0.00000000000E+00 -0.00000000000E+00 -0.16332103147E+01  0.16332103147E+01  0.00000000000E+00 0. -1.
          1    1    1    2  502    0 -0.21025585801E+02 -0.19432156464E+02  0.14604576374E+03  0.14882556592E+03  0.00000000000E+00 0. -1.
         -1    1    1    2    0  501  0.21025585801E+02  0.19432156464E+02  0.84198118246E+03  0.84246780092E+03  0.00000000000E+00 0.  1.
</event>
<event>
 4    1  0.6888348E+001  0.2147592E+02  0.7546771E-02  0.1512577E+00
          2   -1    0    0  502    0  0.00000000000E+00  0.00000000000E+00  0.89220196253E+02  0.89220196253E+02  0.00000000000E+00 0. -1.
         -2   -1    0    0    0  501 -0.00000000000E+00 -0.00000000000E+00 -0.54756097813E+01  0.54756097813E+01  0.00000000000E+00 0.  1.
          1    1    1    2  502    0 -0.21229331570E+02  0.32450665568E+01  0.53069077012E+02  0.57249820182E+02  0.00000000000E+00 0. -1.
         -1    1    1    2    0  501  0.21229331570E+02 -0.32450665568E+01  0.30675509460E+02  0.37445985853E+02  0.00000000000E+00 0.  1.
</event>
<event>
 4    1  0.6888348E+001  0.3357313E+02  0.7546771E-02  0.1390882E+00
          2   -1    0    0  502    0  0.00000000000E+00  0.00000000000E+00  0.93374500694E+02  0.93374500694E+02  0.00000000000E+00 0. -1.
         -2   -1    0    0    0  501 -0.00000000000E+00 -0.00000000000E+00 -0.12244328043E+02  0.12244328043E+02  0.00000000000E+00 0.  1.
          1    1    1    2  502    0 -0.29375598532E+02 -0.16255132456E+02  0.46842126955E+02  0.57631067818E+02  0.00000000000E+00 0.  1.
         -1    1    1    2    0  501  0.29375598532E+02  0.16255132456E+02  0.34288045697E+02  0.47987760919E+02  0.00000000000E+00 0. -1.
</event>
<event>
 4    1  0.6888348E+001  0.4599568E+02  0.7546771E-02  0.1316534E+00
          2   -1    0    0  502    0  0.00000000000E+00  0.00000000000E+00  0.32339081263E+02  0.32339081263E+02  0.00000000000E+00 0.  1.
         -2   -1    0    0    0  501 -0.00000000000E+00 -0.00000000000E+00 -0.82237704934E+02  0.82237704934E+02  0.00000000000E+00 0. -1.
          1    1    1    2  502    0 -0.19214083720E+02 -0.41790211778E+02  0.95800595616E+00  0.46005658229E+02  0.00000000000E+00 0.  1.
         -1    1    1    2    0  501  0.19214083720E+02  0.41790211778E+02 -0.50856629628E+02  0.68571127968E+02  0.00000000000E+00 0. -1.
</event>
<event>
 4    1  0.6888348E+001  0.2357827E+02  0.7546771E-02  0.1485362E+00
          2   -1    0    0  502    0  0.00000000000E+00  0.00000000000E+00  0.14052358177E+03  0.14052358177E+03  0.00000000000E+00 0. -1.
         -2   -1    0    0    0  501 -0.00000000000E+00 -0.00000000000E+00 -0.40766998569E+01  0.40766998569E+01  0.00000000000E+00 0.  1.
          1    1    1    2  502    0 -0.23011496003E+02 -0.51386552771E+01  0.80655351910E+02  0.84031068767E+02  0.00000000000E+00 0. -1.
         -1    1    1    2    0  501  0.23011496003E+02  0.51386552771E+01  0.55791530001E+02  0.60569212858E+02  0.00000000000E+00 0.  1.
</event>
<event>
 4    1  0.6888348E+001  0.2569219E+02  0.7546771E-02  0.1461207E+00
          2   -1    0    0  502    0  0.00000000000E+00  0.00000000000E+00  0.68782989708E+01  0.68782989708E+01  0.00000000000E+00 0. -1.
         -2   -1    0    0    0  501 -0.00000000000E+00 -0.00000000000E+00 -0.10150042640E+03  0.10150042640E+03  0.00000000000E+00 0.  1.
          1    1    1    2  502    0  0.16344291551E+02 -0.19823042468E+02 -0.59963727318E+02  0.65236013618E+02  0.00000000000E+00 0.  1.
         -1    1    1    2    0  501 -0.16344291551E+02  0.19823042468E+02 -0.34658400109E+02  0.43142711750E+02  0.00000000000E+00 0. -1.
</event>
<event>
 4    1  0.6888348E+001  0.3369585E+02  0.7546771E-02  0.1389971E+00
          2   -1    0    0  502    0  0.00000000000E+00  0.00000000000E+00  0.68806824156E+03  0.68806824156E+03  0.00000000000E+00 0.  1.
         -2   -1    0    0    0  501 -0.00000000000E+00 -0.00000000000E+00 -0.17380175548E+01  0.17380175548E+01  0.00000000000E+00 0. -1.
          1    1    1    2  502    0 -0.32278301797E+02 -0.96706599238E+01  0.42071901215E+03  0.42206622421E+03  0.00000000000E+00 0.  1.
         -1    1    1    2    0  501  0.32278301797E+02  0.96706599238E+01  0.26561121186E+03  0.26774003491E+03  0.00000000000E+00 0. -1.
</event>
<event>
 4    1  0.6888348E+001  0.2100425E+02  0.7546771E-02  0.1519204E+00
          2   -1    0    0  502    0  0.00000000000E+00  0.00000000000E+00  0.13760515357E+02  0.13760515357E+02  0.00000000000E+00 0. -1.
         -2   -1    0    0    0  501 -0.00000000000E+00 -0.00000000000E+00 -0.68296592305E+02  0.68296592305E+02  0.00000000000E+00 0.  1.
          1    1    1    2  502    0 -0.10821514384E+02 -0.18002037039E+02  0.26169594216E+01  0.21166648004E+02  0.00000000000E+00 0. -1.
         -1    1    1    2    0  501  0.10821514384E+02  0.18002037039E+02 -0.57153036369E+02  0.60890459658E+02  0.00000000000E+00 0.  1.
</event>
<event>
 4    1  0.6888348E+001  0.2701759E+02  0.7546771E-02  0.1447431E+00
          2   -1    0    0  502    0  0.00000000000E+00  0.00000000000E+00  0.71102219098E+03  0.71102219098E+03  0.00000000000E+00 0.  1.
         -2   -1    0    0    0  501 -0.00000000000E+00 -0.00000000000E+00 -0.53458694678E+01  0.53458694678E+01  0.00000000000E+00 0. -1.
          1    1    1    2  502    0  0.21482073445E+02  0.16385077595E+02  0.30878736417E+02  0.41029825858E+02  0.00000000000E+00 0. -1.
         -1    1    1    2    0  501 -0.21482073445E+02 -0.16385077595E+02  0.67479758510E+03  0.67533823459E+03  0.00000000000E+00 0.  1.
</event>
<event>
 4    1  0.6888348E+001  0.3234843E+02  0.7546771E-02  0.1400229E+00
          2   -1    0    0  502    0  0.00000000000E+00  0.00000000000E+00  0.61875267739E+01  0.61875267739E+01  0.00000000000E+00 0. -1.
         -2   -1    0    0    0  501 -0.00000000000E+00 -0.00000000000E+00 -0.17019241265E+03  0.17019241265E+03  0.00000000000E+00 0.  1.
          1    1    1    2  502    0 -0.12256213797E+02 -0.29936704238E+02 -0.74994814098E+02  0.81674005527E+02  0.00000000000E+00 0.  1.
         -1    1    1    2    0  501  0.12256213797E+02  0.29936704238E+02 -0.89010071781E+02  0.94705933900E+02  0.00000000000E+00 0. -1.
</event>
<event>
 4    1  0.6888348E+001  0.2670020E+02  0.7546771E-02  0.1450643E+00
          2   -1    0    0  502    0  0.00000000000E+00  0.00000000000E+00  0.21855108498E+04  0.21855108498E+04  0.00000000000E+00 0. -1.
         -2   -1    0    0    0  501 -0.00000000000E+00 -0.00000000000E+00 -0.37187449709E+00  0.37187449709E+00  0.00000000000E+00 0.  1.
          1    1    1    2  502    0 -0.11637592671E+02 -0.24030546912E+02  0.14756266543E+04  0.14758681932E+04  0.00000000000E+00 0. -1.
         -1    1    1    2    0  501  0.11637592671E+02  0.24030546912E+02  0.70951232098E+03  0.71001453109E+03  0.00000000000E+00 0.  1.
</event>
<event>
 4    1  0.6888348E+001  0.1186606E+03  0.7546771E-02  0.1134903E+00
          2   -1    0    0  502    0  0.00000000000E+00  0.00000000000E+00  0.13029784904E+04  0.13029784904E+04  0.00000000000E+00 0.  1.
         -2   -1    0    0    0  501 -0.00000000000E+00 -0.00000000000E+00 -0.10813616438E+02  0.10813616438E+02  0.00000000000E+00 0. -1.
          1    1    1    2  502    0  0.88209812602E+02 -0.79368515630E+02  0.62895610774E+03  0.64005165243E+03  0.00000000000E+00 0. -1.
         -1    1    1    2    0  501 -0.88209812602E+02  0.79368515630E+02  0.66320876617E+03  0.67374045436E+03  0.00000000000E+00 0.  1.
</event>
<event>
 4    1  0.6888348E+001  0.6621892E+02  0.7546771E-02  0.1240051E+00
          2   -1    0    0  502    0  0.00000000000E+00  0.00000000000E+00  0.17083577608E+03  0.17083577608E+03  0.00000000000E+00 0.  1.
         -2   -1    0    0    0  501 -0.00000000000E+00 -0.00000000000E+00 -0.25814063636E+02  0.25814063636E+02  0.00000000000E+00 0. -1.
          1    1    1    2  502    0 -0.32345933408E+01  0.66139871813E+02  0.79917010526E+02  0.10378667452E+03  0.00000000000E+00 0. -1.
         -1    1    1    2    0  501  0.32345933408E+01 -0.66139871813E+02  0.65104701917E+02  0.92863165190E+02  0.00000000000E+00 0.  1.
</event>
<event>
 4    1  0.6888348E+001  0.2022411E+02  0.7546771E-02  0.1530637E+00
          2   -1    0    0  502    0  0.00000000000E+00  0.00000000000E+00  0.16209839623E+04  0.16209839623E+04  0.00000000000E+00 0.  1.
         -2   -1    0    0    0  501 -0.00000000000E+00 -0.00000000000E+00 -0.44689155379E+00  0.44689155379E+00  0.00000000000E+00 0. -1.
          1    1    1    2  502    0 -0.19791651958E+02 -0.41599229895E+01  0.27533270819E+03  0.27607447300E+03  0.00000000000E+00 0. -1.
         -1    1    1    2    0  501  0.19791651958E+02  0.41599229895E+01  0.13452043626E+04  0.13453563809E+04  0.00000000000E+00 0.  1.
</event>
<event>
 4    1  0.6888348E+001  0.2115668E+02  0.7546771E-02  0.1517040E+00
          2   -1    0    0  502    0  0.00000000000E+00  0.00000000000E+00  0.62824052036E+02  0.62824052036E+02  0.00000000000E+00 0.  1.
         -2   -1    0    0    0  501 -0.00000000000E+00 -0.00000000000E+00 -0.71279951503E+01  0.71279951503E+01  0.00000000000E+00 0. -1.
          1    1    1    2  502    0 -0.16124527520E+00  0.21156063779E+02  0.28595464758E+02  0.35571134918E+02  0.00000000000E+00 0.  1.
         -1    1    1    2    0  501  0.16124527520E+00 -0.21156063779E+02  0.27100592128E+02  0.34380912268E+02  0.00000000000E+00 0. -1.
</event>
<event>
 4    1  0.6888348E+001  0.2240356E+02  0.7546771E-02  0.1500127E+00
          2   -1    0    0  502    0  0.00000000000E+00  0.00000000000E+00  0.23891131554E+03  0.23891131554E+03  0.00000000000E+00 0.  1.
         -2   -1    0    0    0  501 -0.00000000000E+00 -0.00000000000E+00 -0.26756244745E+01  0.26756244745E+01  0.00000000000E+00 0. -1.
          1    1    1    2  502    0 -0.22269634604E+02  0.24459723519E+01  0.17410334430E+03  0.17553886722E+03  0.00000000000E+00 0.  1.
         -1    1    1    2    0  501  0.22269634604E+02 -0.24459723519E+01  0.62132346764E+02  0.66048072799E+02  0.00000000000E+00 0. -1.
</event>
<event>
 4    1  0.6888348E+001  0.2398429E+02  0.7546771E-02  0.1480495E+00
          2   -1    0    0  502    0  0.00000000000E+00  0.00000000000E+00  0.10759177412E+01  0.10759177412E+01  0.00000000000E+00 0.  1.
         -2   -1    0    0    0  501 -0.00000000000E+00 -0.00000000000E+00 -0.70261879425E+03  0.70261879425E+03  0.00000000000E+00 0. -1.
          1    1    1    2  502    0 -0.11730384672E+02  0.20919953622E+02 -0.17874296091E+03  0.18034492634E+03  0.00000000000E+00 0.  1.
         -1    1    1    2    0  501  0.11730384672E+02 -0.20919953622E+02 -0.52279991561E+03  0.52334978565E+03  0.00000000000E+00 0. -1.
</event>
<event>
 4    1  0.6888348E+001  0.2114983E+02  0.7546771E-02  0.1517136E+00
          2   -1    0    0  502    0  0.00000000000E+00  0.00000000000E+00  0.20988327654E+01  0.20988327654E+01  0.00000000000E+00 0.  1.
         -2   -1    0    0    0  501 -0.00000000000E+00 -0.00000000000E+00 -0.23670994374E+03  0.23670994374E+03  0.00000000000E+00 0. -1.
          1    1    1    2  502    0  0.44974147142E+01  0.20666119174E+02 -0.15499527739E+03  0.15643161840E+03  0.00000000000E+00 0. -1.
         -1    1    1    2    0  501 -0.44974147142E+01 -0.20666119174E+02 -0.79615833587E+02  0.82377158112E+02  0.00000000000E+00 0.  1.
</event>
<event>
 4    1  0.6888348E+001  0.2428790E+02  0.7546771E-02  0.1476930E+00
          2   -1    0    0  502    0  0.00000000000E+00  0.00000000000E+00  0.33433138117E+01  0.33433138117E+01  0.00000000000E+00 0. -1.
         -2   -1    0    0    0  501 -0.00000000000E+00 -0.00000000000E+00 -0.17717976060E+03  0.17717976060E+03  0.00000000000E+00 0.  1.
          1    1    1    2  502    0  0.12944719111E+02  0.20550824323E+02 -0.81095160831E+02  0.84654162588E+02  0.00000000000E+00 0. -1.
         -1    1    1    2    0  501 -0.12944719111E+02 -0.20550824323E+02 -0.92741285954E+02  0.95868911820E+02  0.00000000000E+00 0.  1.
</event>
<event>
 4    1  0.6888348E+001  0.9998069E+02  0.7546771E-02  0.1163841E+00
          2   -1    0    0  502    0  0.00000000000E+00  0.00000000000E+00  0.30647221118E+02  0.30647221118E+02  0.00000000000E+00 0.  1.
         -2   -1    0    0    0  501 -0.00000000000E+00 -0.00000000000E+00 -0.36352169648E+03  0.36352169648E+03  0.00000000000E+00 0. -1.
          1    1    1    2  502    0 -0.92218106662E+01 -0.99554491295E+02 -0.22961362930E+03  0.25043673311E+03  0.00000000000E+00 0. -1.
         -1    1    1    2    0  501  0.92218106662E+01  0.99554491295E+02 -0.10326084606E+03  0.14373218449E+03  0.00000000000E+00 0.  1.
</event>
<event>
 4    1  0.6888348E+001  0.2348199E+02  0.7546771E-02  0.1486533E+00
          2   -1    0    0  502    0  0.00000000000E+00  0.00000000000E+00  0.48713963351E+01  0.48713963351E+01  0.00000000000E+00 0. -1.
         -2   -1    0    0    0  501 -0.00000000000E+00 -0.00000000000E+00 -0.11485138319E+03  0.11485138319E+03  0.00000000000E+00 0.  1.
          1    1    1    2  502    0 -0.79169384307E+01  0.22107148888E+02 -0.47795021017E+02  0.53251929355E+02  0.00000000000E+00 0.  1.
         -1    1    1    2    0  501  0.79169384307E+01 -0.22107148888E+02 -0.62184965841E+02  0.66470850173E+02  0.00000000000E+00 0. -1.
</event>
<event>
 4    1  0.6888348E+001  0.2683183E+02  0.7546771E-02  0.1449305E+00
          2   -1    0    0  502    0  0.00000000000E+00  0.00000000000E+00  0.13947198950E+03  0.13947198950E+03  0.00000000000E+00 0. -1.
         -2   -1    0    0    0  501 -0.00000000000E+00 -0.00000000000E+00 -0.80516930191E+01  0.80516930191E+01  0.00000000000E+00 0.  1.
          1    1    1    2  502    0 -0.32082654897E+01 -0.26639336059E+02  0.10989952612E+03  0.11312759626E+03  0.00000000000E+00 0. -1.
         -1    1    1    2    0  501  0.32082654897E+01  0.26639336059E+02  0.21520770352E+02  0.34396086255E+02  0.00000000000E+00 0.  1.
</event>
<event>
 4    1  0.6888348E+001  0.2823783E+02  0.7546771E-02  0.1435555E+00
          2   -1    0    0  502    0  0.00000000000E+00  0.00000000000E+00  0.66296831293E+02  0.66296831293E+02  0.00000000000E+00 0.  1.
         -2   -1    0    0    0  501 -0.00000000000E+00 -0.00000000000E+00 -0.12044653888E+02  0.12044653888E+02  0.00000000000E+00 0. -1.
          1    1    1    2  502    0 -0.12444728397E+02  0.25347654414E+02  0.25641173224E+02  0.38142425374E+02  0.00000000000E+00 0. -1.
         -1    1    1    2    0  501  0.12444728397E+02 -0.25347654414E+02  0.28611004181E+02  0.40199059807E+02  0.00000000000E+00 0.  1.
</event>
<event>
 4    1  0.6888348E+001  0.4535887E+02  0.7546771E-02  0.1319655E+00
          2   -1    0    0  502    0  0.00000000000E+00  0.00000000000E+00  0.48233421829E+01  0.48233421829E+01  0.00000000000E+00 0. -1.
         -2   -1    0    0    0  501 -0.00000000000E+00 -0.00000000000E+00 -0.42699114725E+03  0.42699114725E+03  0.00000000000E+00 0.  1.
          1    1    1    2  502    0 -0.12104801968E+02 -0.43713854915E+02 -0.20419436282E+03  0.20917161650E+03  0.00000000000E+00 0. -1.
         -1    1    1    2    0  501  0.12104801968E+02  0.43713854915E+02 -0.21797344225E+03  0.22264287293E+03  0.00000000000E+00 0.  1.
</event>
<event>
 4    1  0.6888348E+001  0.2625309E+02  0.7546771E-02  0.1455259E+00
          2   -1    0    0  502    0  0.00000000000E+00  0.00000000000E+00  0.16465638314E+03  0.16465638314E+03  0.00000000000E+00 0. -1.
         -2   -1    0    0    0  501 -0.00000000000E+00 -0.00000000000E+00 -0.58281498054E+01  0.58281498054E+01  0.00000000000E+00 0.  1.
          1    1    1    2  502    0  0.26078277259E+02 -0.30246213632E+01  0.34164229985E+02  0.43086186761E+02  0.00000000000E+00 0.  1.
         -1    1    1    2    0  501 -0.26078277259E+02  0.30246213632E+01  0.12466400335E+03  0.12739834618E+03  0.00000000000E+00 0. -1.
</event>
<event>
 4    1  0.6888348E+001  0.2400809E+02  0.7546771E-02  0.1480213E+00
          2   -1    0    0  502    0  0.00000000000E+00  0.00000000000E+00  0.99511137429E+02  0.99511137429E+02  0.00000000000E+00 0.  1.
         -2   -1    0    0    0  501 -0.00000000000E+00 -0.00000000000E+00 -0.22810503083E+02  0.22810503083E+02  0.00000000000E+00 0. -1.
          1    1    1    2  502    0 -0.11640868676E+02 -0.20997112459E+02  0.91178293894E+02  0.94286106254E+02  0.00000000000E+00 0.  1.
         -1    1    1    2    0  501  0.11640868676E+02  0.20997112459E+02 -0.14477659548E+02  0.28035534258E+02  0.00000000000E+00 0. -1.
</event>
<event>
 4    1  0.6888348E+001  0.2701956E+02  0.7546771E-02  0.1447412E+00
          2   -1    0    0  502    0  0.00000000000E+00  0.00000000000E+00  0.30504315004E+02  0.30504315004E+02  0.00000000000E+00 0. -1.
         -2   -1    0    0    0  501 -0.00000000000E+00 -0.00000000000E+00 -0.35464264022E+02  0.35464264022E+02  0.00000000000E+00 0.  1.
          1    1    1    2  502    0 -0.26436618412E+02  0.55822864215E+01  0.16328431999E+02  0.31570150559E+02  0.00000000000E+00 0. -1.
         -1    1    1    2    0  501  0.26436618412E+02 -0.55822864215E+01 -0.21288381017E+02  0.34398428468E+02  0.00000000000E+00 0.  1.
</event>
<event>
 4    1  0.6888348E+001  0.2362371E+02  0.7546771E-02  0.1484811E+00
          2   -1    0    0  502    0  0.00000000000E+00  0.00000000000E+00  0.84086523748E+02  0.84086523748E+02  0.00000000000E+00 0.  1.
         -2   -1    0    0    0  501 -0.00000000000E+00 -0.00000000000E+00 -0.18184171755E+02  0.18184171755E+02  0.00000000000E+00 0. -1.
          1    1    1    2  502    0 -0.22067528167E+02  0.84323118724E+01 -0.77974378749E+01  0.24877293268E+02  0.00000000000E+00 0. -1.
         -1    1    1    2    0  501  0.22067528167E+02 -0.84323118724E+01  0.73699789868E+02  0.77393402235E+02  0.00000000000E+00 0.  1.
</event>
<event>
 4    1  0.6888348E+001  0.3299311E+02  0.7546771E-02  0.1395249E+00
          2   -1    0    0  502    0  0.00000000000E+00  0.00000000000E+00  0.55079369174E+03  0.55079369174E+03  0.00000000000E+00 0. -1.
         -2   -1    0    0    0  501 -0.00000000000E+00 -0.00000000000E+00 -0.19993253385E+01  0.19993253385E+01  0.00000000000E+00 0.  1.
          1    1    1    2  502    0 -0.16580145306E+01 -0.32951420554E+02  0.24474915052E+03  0.24696293610E+03  0.00000000000E+00 0.  1.
         -1    1    1    2    0  501  0.16580145306E+01  0.32951420554E+02  0.30404521588E+03  0.30583008097E+03  0.00000000000E+00 0. -1.
</event>
<event>
 4    1  0.6888348E+001  0.3794276E+02  0.7546771E-02  0.1360982E+00
          2   -1    0    0  502    0  0.00000000000E+00  0.00000000000E+00  0.11316015708E+03  0.11316015708E+03  0.00000000000E+00 0. -1.
         -2   -1    0    0    0  501 -0.00000000000E+00 -0.00000000000E+00 -0.12723085919E+02  0.12723085919E+02  0.00000000000E+00 0.  1.
          1    1    1    2  502    0 -0.39215666901E+01 -0.37739556640E+02  0.50725978841E+02  0.63346489643E+02  0.00000000000E+00 0. -1.
         -1    1    1    2    0  501  0.39215666901E+01  0.37739556640E+02  0.49711092319E+02  0.62536753356E+02  0.00000000000E+00 0.  1.
</event>
<event>
 4    1  0.6888348E+001  0.2192601E+02  0.7546771E-02  0.1506443E+00
          2   -1    0    0  502    0  0.00000000000E+00  0.00000000000E+00  0.18999461759E+01  0.18999461759E+01  0.00000000000E+00 0.  1.
         -2   -1    0    0    0  501 -0.00000000000E+00 -0.00000000000E+00 -0.68328866160E+03  0.68328866160E+03  0.00000000000E+00 0. -1.
          1    1    1    2  502    0 -0.19348411544E+02  0.10314494287E+02 -0.61255174010E+03  0.61294403017E+03  0.00000000000E+00 0. -1.
         -1    1    1    2    0  501  0.19348411544E+02 -0.10314494287E+02 -0.68836975325E+02  0.72244577606E+02  0.00000000000E+00 0.  1.
</event>
<event>
 4    1  0.6888348E+001  0.2491360E+02  0.7546771E-02  0.1469772E+00
          2   -1    0    0  502    0  0.00000000000E+00  0.00000000000E+00  0.36928561428E+03  0.36928561428E+03  0.00000000000E+00 0. -1.
         -2   -1    0    0    0  501 -0.00000000000E+00 -0.00000000000E+00 -0.22262970929E+01  0.22262970929E+01  0.00000000000E+00 0.  1.
          1    1    1    2  502    0 -0.80648998013E+01 -0.23572121448E+02  0.27548050962E+03  0.27660476984E+03  0.00000000000E+00 0. -1.
         -1    1    1    2    0  501  0.80648998013E+01  0.23572121448E+02  0.91578807572E+02  0.94907141536E+02  0.00000000000E+00 0.  1.
</event>
<event>
 4    1  0.6888348E+001  0.2661394E+02  0.7546771E-02  0.1451525E+00
          2   -1    0    0  502    0  0.00000000000E+00  0.00000000000E+00  0.10948204885E+01  0.10948204885E+01  0.00000000000E+00 0. -1.
         -2   -1    0    0    0  501 -0.00000000000E+00 -0.00000000000E+00 -0.93976763528E+03  0.93976763528E+03  0.00000000000E+00 0.  1.
          1    1    1    2  502    0 -0.27744660706E+01  0.26468924586E+02 -0.20674565672E+03  0.20845159679E+03  0.00000000000E+00 0. -1.
         -1    1    1    2    0  501  0.27744660706E+01 -0.26468924586E+02 -0.73192715807E+03  0.73241085898E+03  0.00000000000E+00 0.  1.
</event>
<event>
 4    1  0.6888348E+001  0.2655244E+02  0.7546771E-02  0.1452157E+00
          2   -1    0    0  502    0  0.00000000000E+00  0.00000000000E+00  0.58961919619E+03  0.58961919619E+03  0.00000000000E+00 0.  1.
         -2   -1    0    0    0  501 -0.00000000000E+00 -0.00000000000E+00 -0.12224162282E+01  0.12224162282E+01  0.00000000000E+00 0. -1.
          1    1    1    2  502    0  0.26535863735E+02 -0.93796443018E+00  0.25055829591E+03  0.25196128966E+03  0.00000000000E+00 0. -1.
         -1    1    1    2    0  501 -0.26535863735E+02  0.93796443018E+00  0.33783848406E+03  0.33888032275E+03  0.00000000000E+00 0.  1.
</event>
<event>
 4    1  0.6888348E+001  0.2788077E+02  0.7546771E-02  0.1438956E+00
          2   -1    0    0  502    0  0.00000000000E+00  0.00000000000E+00  0.35225596387E+01  0.35225596387E+01  0.00000000000E+00 0. -1.
         -2   -1    0    0    0  501 -0.00000000000E+00 -0.00000000000E+00 -0.25573331752E+03  0.25573331752E+03  0.00000000000E+00 0.  1.
          1    1    1    2  502    0  0.44874923989E+01 -0.27517264060E+02 -0.17410154421E+03  0.17631983753E+03  0.00000000000E+00 0.  1.
         -1    1    1    2    0  501 -0.44874923989E+01  0.27517264060E+02 -0.78109213666E+02  0.82936039627E+02  0.00000000000E+00 0. -1.
</event>
<event>
 4    1  0.6888348E+001  0.2800219E+02  0.7546771E-02  0.1437793E+00
          2   -1    0    0  502    0  0.00000000000E+00  0.00000000000E+00  0.29517627747E+02  0.29517627747E+02  0.00000000000E+00 0.  1.
         -2   -1    0    0    0  501 -0.00000000000E+00 -0.00000000000E+00 -0.29374376133E+02  0.29374376133E+02  0.00000000000E+00 0. -1.
          1    1    1    2  502    0 -0.18224995479E+01  0.27942816886E+02  0.91787587594E+01  0.29468154548E+02  0.00000000000E+00 0.  1.
         -1    1    1    2    0  501  0.18224995479E+01 -0.27942816886E+02 -0.90355071450E+01  0.29423849331E+02  0.00000000000E+00 0. -1.
</event>
<event>
 4    1  0.6888348E+001  0.2203859E+02  0.7546771E-02  0.1504937E+00
          2   -1    0    0  502    0  0.00000000000E+00  0.00000000000E+00  0.35825729536E+01  0.35825729536E+01  0.00000000000E+00 0. -1.
         -2   -1    0    0    0  501 -0.00000000000E+00 -0.00000000000E+00 -0.13791569513E+03  0.13791569513E+03  0.00000000000E+00 0.  1.
          1    1    1    2  502    0  0.11716885617E+02 -0.18665852741E+02 -0.57945303051E+02  0.61994819242E+02  0.00000000000E+00 0.  1.
         -1    1    1    2    0  501 -0.11716885617E+02  0.18665852741E+02 -0.76387819129E+02  0.79503448846E+02  0.00000000000E+00 0. -1.
</event>
<event>
 4    1  0.6888348E+001  0.3253070E+02  0.7546771E-02  0.1398807E+00
          2   -1    0    0  502    0  0.00000000000E+00  0.00000000000E+00  0.50962377183E+03  0.50962377183E+03  0.00000000000E+00 0.  1.
         -2   -1    0    0    0  501 -0.00000000000E+00 -0.00000000000E+00 -0.21812169762E+01  0.21812169762E+01  0.00000000000E+00 0. -1.
          1    1    1    2  502    0  0.25670568784E+02  0.19981706373E+02  0.30978488193E+03  0.31148823375E+03  0.00000000000E+00 0.  1.
         -1    1    1    2    0  501 -0.25670568784E+02 -0.19981706373E+02  0.19765767292E+03  0.20031675506E+03  0.00000000000E+00 0. -1.
</event>
<event>
 4    1  0.6888348E+001  0.2146067E+02  0.7546771E-02  0.1512788E+00
          2   -1    0    0  502    0  0.00000000000E+00  0.00000000000E+00  0.14814037262E+04  0.14814037262E+04  0.00000000000E+00 0.  1.
         -2   -1    0    0    0  501 -0.00000000000E+00 -0.00000000000E+00 -0.92871053327E+00  0.92871053327E+00  0.00000000000E+00 0. -1.
          1    1    1    2  502    0  0.17466051742E+02 -0.12469865313E+02  0.13447495584E+04  0.13449207915E+04  0.00000000000E+00 0.  1.
         -1    1    1    2    0  501 -0.17466051742E+02  0.12469865313E+02  0.13572545726E+03  0.13741164526E+03  0.00000000000E+00 0. -1.
</event>
<event>
 4    1  0.6888348E+001  0.2230046E+02  0.7546771E-02  0.1501474E+00
          2   -1    0    0  502    0  0.00000000000E+00  0.00000000000E+00  0.10445024075E+04  0.10445024075E+04  0.00000000000E+00 0.  1.
         -2   -1    0    0    0  501 -0.00000000000E+00 -0.00000000000E+00 -0.69831834206E+00  0.69831834206E+00  0.00000000000E+00 0. -1.
          1    1    1    2  502    0  0.12746227676E+02 -0.18298747332E+02  0.22711287095E+03  0.22820509772E+03  0.00000000000E+00 0. -1.
         -1    1    1    2    0  501 -0.12746227676E+02  0.18298747332E+02  0.81669121825E+03  0.81699562817E+03  0.00000000000E+00 0.  1.
</event>
<event>
 4    1  0.6888348E+001  0.3201969E+02  0.7546771E-02  0.1402821E+00
          2   -1    0    0  502    0  0.00000000000E+00  0.00000000000E+00  0.13601492399E+02  0.13601492399E+02  0.00000000000E+00 0. -1.
         -2   -1    0    0    0  501 -0.00000000000E+00 -0.00000000000E+00 -0.80432259346E+02  0.80432259346E+02  0.00000000000E+00 0.  1.
          1    1    1    2  502    0  0.24590572241E+02 -0.20507669973E+02 -0.45200768545E+02  0.55392871815E+02  0.00000000000E+00 0.  1.
         -1    1    1    2    0  501 -0.24590572241E+02  0.20507669973E+02 -0.21629998403E+02  0.38640879930E+02  0.00000000000E+00 0. -1.
</event>
<event>
 4    1  0.6888348E+001  0.2170068E+02  0.7546771E-02  0.1509492E+00
          2   -1    0    0  502    0  0.00000000000E+00  0.00000000000E+00  0.32365718877E+02  0.32365718877E+02  0.00000000000E+00 0.  1.
         -2   -1    0    0    0  501 -0.00000000000E+00 -0.00000000000E+00 -0.14569549835E+02  0.14569549835E+02  0.00000000000E+00 0. -1.
          1    1    1    2  502    0  0.10479931495E+02 -0.19002380586E+02  0.80372355292E+01  0.23141231320E+02  0.00000000000E+00 0.  1.
         -1    1    1    2    0  501 -0.10479931495E+02  0.19002380586E+02  0.97589335136E+01  0.23794037392E+02  0.00000000000E+00 0. -1.
</event>
<event>
 4    1  0.6888348E+001  0.2220148E+02  0.7546771E-02  0.1502776E+00
          2   -1    0    0  502    0  0.00000000000E+00  0.00000000000E+00  0.94921986110E+02  0.94921986110E+02  0.00000000000E+00 0.  1.
         -2   -1    0    0    0  501 -0.00000000000E+00 -0.00000000000E+00 -0.55893552193E+01  0.55893552193E+01  0.00000000000E+00 0. -1.
          1    1    1    2  502    0  0.12475153336E+01  0.22166400786E+02  0.58053413938E+02  0.62153877499E+02  0.00000000000E+00 0.  1.
         -1    1    1    2    0  501 -0.12475153336E+01 -0.22166400786E+02  0.31279216953E+02  0.38357463831E+02  0.00000000000E+00 0. -1.
</event>
<event>
 4    1  0.6888348E+001  0.2363347E+02  0.7546771E-02  0.1484693E+00
          2   -1    0    0  502    0  0.00000000000E+00  0.00000000000E+00  0.41461477296E+01  0.41461477296E+01  0.00000000000E+00 0. -1.
         -2   -1    0    0    0  501 -0.00000000000E+00 -0.00000000000E+00 -0.13552609818E+03  0.13552609818E+03  0.00000000000E+00 0.  1.
          1    1    1    2  502    0 -0.15559167209E+02  0.17789135999E+02 -0.71098425522E+02  0.74923475330E+02  0.00000000000E+00 0. -1.
         -1    1    1    2    0  501  0.15559167209E+02 -0.17789135999E+02 -0.60281524924E+02  0.64748770575E+02  0.00000000000E+00 0.  1.
</event>
<event>
 4    1  0.6888348E+001  0.3144703E+02  0.7546771E-02  0.1407425E+00
          2   -1    0    0  502    0  0.00000000000E+00  0.00000000000E+00  0.24158507381E+03  0.24158507381E+03  0.00000000000E+00 0.  1.
         -2   -1    0    0    0  501 -0.00000000000E+00 -0.00000000000E+00 -0.41788530827E+01  0.41788530827E+01  0.00000000000E+00 0. -1.
          1    1    1    2  502    0 -0.29625903523E+02  0.10546151396E+02  0.10113575532E+03  0.10591202232E+03  0.00000000000E+00 0. -1.
         -1    1    1    2    0  501  0.29625903523E+02 -0.10546151396E+02  0.13627046541E+03  0.13985190457E+03  0.00000000000E+00 0.  1.
</event>
<event>
 4    1  0.6888348E+001  0.2014534E+02  0.7546771E-02  0.1531825E+00
          2   -1    0    0  502    0  0.00000000000E+00  0.00000000000E+00  0.45531824248E+03  0.45531824248E+03  0.00000000000E+00 0.  1.
         -2   -1    0    0    0  501 -0.00000000000E+00 -0.00000000000E+00 -0.21447049804E+01  0.21447049804E+01  0.00000000000E+00 0. -1.
          1    1    1    2  502    0  0.16206335508E+02 -0.11966185435E+02  0.40144422022E+03  0.40194937100E+03  0.00000000000E+00 0.  1.
         -1    1    1    2    0  501 -0.16206335508E+02  0.11966185435E+02  0.51729317277E+02  0.55513576451E+02  0.00000000000E+00 0. -1.
</event>
<event>
 4    1  0.6888348E+001  0.2522487E+02  0.7546771E-02  0.1466303E+00
          2   -1    0    0  502    0  0.00000000000E+00  0.00000000000E+00  0.11301171258E+02  0.11301171258E+02  0.00000000000E+00 0. -1.
         -2   -1    0    0    0  501 -0.00000000000E+00 -0.00000000000E+00 -0.56438325576E+02  0.56438325576E+02  0.00000000000E+00 0.  1.
          1    1    1    2  502    0  0.22431428992E+02 -0.11537978052E+02 -0.24224850818E+02  0.34973380467E+02  0.00000000000E+00 0. -1.
         -1    1    1    2    0  501 -0.22431428992E+02  0.11537978052E+02 -0.20912303500E+02  0.32766116368E+02  0.00000000000E+00 0.  1.
</event>
<event>
 4    1  0.6888348E+001  0.2578257E+02  0.7546771E-02  0.1460236E+00
          2   -1    0    0  502    0  0.00000000000E+00  0.00000000000E+00  0.85802023545E+02  0.85802023545E+02  0.00000000000E+00 0.  1.
         -2   -1    0    0    0  501 -0.00000000000E+00 -0.00000000000E+00 -0.25844491647E+02  0.25844491647E+02  0.00000000000E+00 0. -1.
          1    1    1    2  502    0  0.21442616559E+01 -0.25693251507E+02  0.76691554246E+02  0.80909427904E+02  0.00000000000E+00 0.  1.
         -1    1    1    2    0  501 -0.21442616559E+01  0.25693251507E+02 -0.16734022348E+02  0.30737087289E+02  0.00000000000E+00 0. -1.
</event>
<event>
 4    1  0.6888348E+001  0.2367543E+02  0.7546771E-02  0.1484187E+00
          2   -1    0    0  502    0  0.00000000000E+00  0.00000000000E+00  0.23451081625E+03  0.23451081625E+03  0.00000000000E+00 0. -1.
         -2   -1    0    0    0  501 -0.00000000000E+00 -0.00000000000E+00 -0.24678775082E+01  0.24678775082E+01  0.00000000000E+00 0.  1.
          1    1    1    2  502    0  0.25938491121E+01  0.23532906935E+02  0.94998750609E+02  0.97904486002E+02  0.00000000000E+00 0.  1.
         -1    1    1    2    0  501 -0.25938491121E+01 -0.23532906935E+02  0.13704418813E+03  0.13907420775E+03  0.00000000000E+00 0. -1.
</event>
<event>
 4    1  0.6888348E+001  0.2835024E+02  0.7546771E-02  0.1434497E+00
          2   -1    0    0  502    0  0.00000000000E+00  0.00000000000E+00  0.18719141902E+01  0.18719141902E+01  0.00000000000E+00 0. -1.
         -2   -1    0    0    0  501 -0.00000000000E+00 -0.00000000000E+00 -0.69892922223E+03  0.69892922223E+03  0.00000000000E+00 0.  1.
          1    1    1    2  502    0  0.11717762474E+02 -0.25815309895E+02 -0.56613851729E+03  0.56684791342E+03  0.00000000000E+00 0.  1.
         -1    1    1    2    0  501 -0.11717762474E+02  0.25815309895E+02 -0.13091879075E+03  0.13395322300E+03  0.00000000000E+00 0. -1.
</event>
<event>
 4    1  0.6888348E+001  0.6391451E+02  0.7546771E-02  0.1247083E+00
          2   -1    0    0  502    0  0.00000000000E+00  0.00000000000E+00  0.19758156573E+03  0.19758156573E+03  0.00000000000E+00 0.  1.
         -2   -1    0    0    0  501 -0.00000000000E+00 -0.00000000000E+00 -0.23152167970E+02  0.23152167970E+02  0.00000000000E+00 0. -1.
          1    1    1    2  502    0 -0.38491777698E+02  0.51023990329E+02  0.51116006290E+02  0.81840763917E+02  0.00000000000E+00 0. -1.
         -1    1    1    2    0  501  0.38491777698E+02 -0.51023990329E+02  0.12331339147E+03  0.13889296978E+03  0.00000000000E+00 0.  1.
</event>
<event>
 4    1  0.6888348E+001  0.2146390E+02  0.7546771E-02  0.1512744E+00
          2   -1    0    0  502    0  0.00000000000E+00  0.00000000000E+00  0.30776507471E+04  0.30776507471E+04  0.00000000000E+00 0. -1.
         -2   -1    0    0    0  501 -0.00000000000E+00 -0.00000000000E+00 -0.14979700154E+00  0.14979700154E+00  0.00000000000E+00 0.  1.
          1    1    1    2  502    0  0.80412064259E+01  0.19900703146E+02  0.15795385078E+04  0.15796843345E+04  0.00000000000E+00 0.  1.
         -1    1    1    2    0  501 -0.80412064259E+01 -0.19900703146E+02  0.14979624423E+04  0.14981162096E+04  0.00000000000E+00 0. -1.
</event>
<event>
 4    1  0.6888348E+001  0.2877132E+02  0.7546771E-02  0.1430583E+00
          2   -1    0    0  502    0  0.00000000000E+00  0.00000000000E+00  0.20992392285E+02  0.20992392285E+02  0.00000000000E+00 0. -1.
         -2   -1    0    0    0  501 -0.00000000000E+00 -0.00000000000E+00 -0.55144426553E+02  0.55144426553E+02  0.00000000000E+00 0.  1.
          1    1    1    2  502    0  0.14526353052E+02  0.24834929180E+02 -0.37396059184E+02  0.47183194920E+02  0.00000000000E+00 0.  1.
         -1    1    1    2    0  501 -0.14526353052E+02 -0.24834929180E+02  0.32440249159E+01  0.28953623918E+02  0.00000000000E+00 0. -1.
</event>
<event>
 4    1  0.6888348E+001  0.2168897E+02  0.7546771E-02  0.1509651E+00
          2   -1    0    0  502    0  0.00000000000E+00  0.00000000000E+00  0.13667653989E+04  0.13667653989E+04  0.00000000000E+00 0.  1.
         -2   -1    0    0    0  501 -0.00000000000E+00 -0.00000000000E+00 -0.38394808498E+00  0.38394808498E+00  0.00000000000E+00 0. -1.
          1    1    1    2  502    0  0.10156839282E+02  0.19163773199E+02  0.90319136916E+03  0.90345174797E+03  0.00000000000E+00 0. -1.
         -1    1    1    2    0  501 -0.10156839282E+02 -0.19163773199E+02  0.46319008169E+03  0.46369759905E+03  0.00000000000E+00 0.  1.
</event>
<event>
 4    1  0.6888348E+001  0.3041487E+02  0.7546771E-02  0.1416025E+00
          2   -1    0    0  502    0  0.00000000000E+00  0.00000000000E+00  0.71113627998E+02  0.71113627998E+02  0.00000000000E+00 0. -1.
         -2   -1    0    0    0  501 -0.00000000000E+00 -0.00000000000E+00 -0.14891407527E+02  0.14891407527E+02  0.00000000000E+00 0.  1.
          1    1    1    2  502    0  0.84211983034E+01  0.29225805846E+02  0.12818958663E+02  0.33005908705E+02  0.00000000000E+00 0.  1.
         -1    1    1    2    0  501 -0.84211983034E+01 -0.29225805846E+02  0.43403261808E+02  0.52999126821E+02  0.00000000000E+00 0. -1.
</event>
<event>
 4    1  0.6888348E+001  0.3771198E+02  0.7546771E-02  0.1362441E+00
          2   -1    0    0  502    0  0.00000000000E+00  0.00000000000E+00  0.12281947109E+02  0.12281947109E+02  0.00000000000E+00 0. -1.
         -2   -1    0    0    0  501 -0.00000000000E+00 -0.00000000000E+00 -0.14594004957E+03  0.14594004957E+03  0.00000000000E+00 0.  1.
          1    1    1    2  502    0  0.18960436588E+02  0.32599009978E+02 -0.30874458694E+02  0.48738340213E+02  0.00000000000E+00 0. -1.
         -1    1    1    2    0  501 -0.18960436588E+02 -0.32599009978E+02 -0.10278364377E+03  0.10948365647E+03  0.00000000000E+00 0.  1.
</event>
<event>
 4    1  0.6888348E+001  0.4837631E+02  0.7546771E-02  0.1305370E+00
          2   -1    0    0  502    0  0.00000000000E+00  0.00000000000E+00  0.19306394412E+03  0.19306394412E+03  0.00000000000E+00 0. -1.
         -2   -1    0    0    0  501 -0.00000000000E+00 -0.00000000000E+00 -0.14520966347E+02  0.14520966347E+02  0.00000000000E+00 0.  1.
          1    1    1    2  502    0  0.48375141789E+02 -0.33646489897E+00  0.47081906892E+02  0.67505359108E+02  0.00000000000E+00 0.  1.
         -1    1    1    2    0  501 -0.48375141789E+02  0.33646489897E+00  0.13146107088E+03  0.14007955136E+03  0.00000000000E+00 0. -1.
</event>
<event>
 4    1  0.6888348E+001  0.2877489E+02  0.7546771E-02  0.1430550E+00
          2   -1    0    0  502    0  0.00000000000E+00  0.00000000000E+00  0.95738572767E+03  0.95738572767E+03  0.00000000000E+00 0. -1.
         -2   -1    0    0    0  501 -0.00000000000E+00 -0.00000000000E+00 -0.88457570693E+00  0.88457570693E+00  0.00000000000E+00 0.  1.
          1    1    1    2  502    0  0.51762031953E+01  0.28305498680E+02  0.40669969271E+03  0.40771636511E+03  0.00000000000E+00 0. -1.
         -1    1    1    2    0  501 -0.51762031953E+01 -0.28305498680E+02  0.54980145925E+03  0.55055393826E+03  0.00000000000E+00 0.  1.
</event>
<event>
 4    1  0.6888348E+001  0.2767478E+02  0.7546771E-02  0.1440945E+00
          2   -1    0    0  502    0  0.00000000000E+00  0.00000000000E+00  0.23854816447E+03  0.23854816447E+03  0.00000000000E+00 0. -1.
         -2   -1    0    0    0  501 -0.00000000000E+00 -0.00000000000E+00 -0.32215568121E+01  0.32215568121E+01  0.00000000000E+00 0.  1.
          1    1    1    2  502    0 -0.15215712253E+02  0.23116564033E+02  0.11062787219E+03  0.11403692182E+03  0.00000000000E+00 0. -1.
         -1    1    1    2    0  501  0.15215712253E+02 -0.23116564033E+02  0.12469873547E+03  0.12773279947E+03  0.00000000000E+00 0.  1.
</event>
<event>
 4    1  0.6888348E+001  0.2392054E+02  0.7546771E-02  0.1481251E+00
          2   -1    0    0  502    0  0.00000000000E+00  0.00000000000E+00  0.11062403885E+04  0.11062403885E+04  0.00000000000E+00 0.  1.
         -2   -1    0    0    0  501 -0.00000000000E+00 -0.00000000000E+00 -0.54191811992E+00  0.54191811992E+00  0.00000000000E+00 0. -1.
          1    1    1    2  502    0 -0.14441750572E+02 -0.19069029848E+02  0.43475758790E+03  0.43541514937E+03  0.00000000000E+00 0. -1.
         -1    1    1    2    0  501  0.14441750572E+02  0.19069029848E+02  0.67094088244E+03  0.67136715722E+03  0.00000000000E+00 0.  1.
</event>
<event>
 4    1  0.6888348E+001  0.2108846E+02  0.7546771E-02  0.1518006E+00
          2   -1    0    0  502    0  0.00000000000E+00  0.00000000000E+00  0.20754056451E+02  0.20754056451E+02  0.00000000000E+00 0. -1.
         -2   -1    0    0    0  501 -0.00000000000E+00 -0.00000000000E+00 -0.21773427742E+02  0.21773427742E+02  0.00000000000E+00 0.  1.
          1    1    1    2  502    0 -0.14687477128E+02  0.15132782302E+02  0.21676231253E+01  0.21199567793E+02  0.00000000000E+00 0. -1.
         -1    1    1    2    0  501  0.14687477128E+02 -0.15132782302E+02 -0.31869944165E+01  0.21327916401E+02  0.00000000000E+00 0.  1.
</event>
<event>
 4    1  0.6888348E+001  0.3189785E+02  0.7546771E-02  0.1403791E+00
          2   -1    0    0  502    0  0.00000000000E+00  0.00000000000E+00  0.39070554827E+03  0.39070554827E+03  0.00000000000E+00 0.  1.
         -2   -1    0    0    0  501 -0.00000000000E+00 -0.00000000000E+00 -0.30354434346E+01  0.30354434346E+01  0.00000000000E+00 0. -1.
          1    1    1    2  502    0 -0.30820055129E+02  0.82217363914E+01  0.11962987371E+03  0.12380944807E+03  0.00000000000E+00 0. -1.
         -1    1    1    2    0  501  0.30820055129E+02 -0.82217363914E+01  0.26804023112E+03  0.26993154363E+03  0.00000000000E+00 0.  1.
</event>
<event>
 4    1  0.6888348E+001  0.2597414E+02  0.7546771E-02  0.1458194E+00
          2   -1    0    0  502    0  0.00000000000E+00  0.00000000000E+00  0.12222344015E+02  0.12222344015E+02  0.00000000000E+00 0.  1.
         -2   -1    0    0    0  501 -0.00000000000E+00 -0.00000000000E+00 -0.80635144089E+02  0.80635144089E+02  0.00000000000E+00 0. -1.
          1    1    1    2  502    0 -0.28873320589E+00  0.25972536084E+02 -0.81296177169E+01  0.27216661840E+02  0.00000000000E+00 0.  1.
         -1    1    1    2    0  501  0.28873320589E+00 -0.25972536084E+02 -0.60283182357E+02  0.65640826264E+02  0.00000000000E+00 0. -1.
</event>
<event>
 4    1  0.6888348E+001  0.2711134E+02  0.7546771E-02  0.1446493E+00
          2   -1    0    0  502    0  0.00000000000E+00  0.00000000000E+00  0.15644830685E+03  0.15644830685E+03  0.00000000000E+00 0. -1.
         -2   -1    0    0    0  501 -0.00000000000E+00 -0.00000000000E+00 -0.47775240037E+01  0.47775240037E+01  0.00000000000E+00 0.  1.
          1    1    1    2  502    0 -0.18316706779E+02  0.19988070520E+02  0.65447720421E+02  0.70840869691E+02  0.00000000000E+00 0.  1.
         -1    1    1    2    0  501  0.18316706779E+02 -0.19988070520E+02  0.86223062426E+02  0.90384961163E+02  0.00000000000E+00 0. -1.
</event>
<event>
 4    1  0.6888348E+001  0.3208768E+02  0.7546771E-02  0.1402282E+00
          2   -1    0    0  502    0  0.00000000000E+00  0.00000000000E+00  0.84918988479E+01  0.84918988479E+01  0.00000000000E+00 0. -1.
         -2   -1    0    0    0  501 -0.00000000000E+00 -0.00000000000E+00 -0.15138926701E+03  0.15138926701E+03  0.00000000000E+00 0.  1.
          1    1    1    2  502    0 -0.32087448384E+02 -0.12135136172E+00 -0.10711893696E+03  0.11182166930E+03  0.00000000000E+00 0.  1.
         -1    1    1    2    0  501  0.32087448384E+02  0.12135136172E+00 -0.35778431200E+02  0.48059496555E+02  0.00000000000E+00 0. -1.
</event>
<event>
 4    1  0.6888348E+001  0.2401844E+02  0.7546771E-02  0.1480091E+00
          2   -1    0    0  502    0  0.00000000000E+00  0.00000000000E+00  0.67391302442E+02  0.67391302442E+02  0.00000000000E+00 0.  1.
         -2   -1    0    0    0  501 -0.00000000000E+00 -0.00000000000E+00 -0.86290368259E+01  0.86290368259E+01  0.00000000000E+00 0. -1.
          1    1    1    2  502    0 -0.23793033815E+02 -0.32828647314E+01  0.32775085926E+02  0.40633630362E+02  0.00000000000E+00 0. -1.
         -1    1    1    2    0  501  0.23793033815E+02  0.32828647314E+01  0.25987179690E+02  0.35386708906E+02  0.00000000000E+00 0.  1.
</event>
<event>
 4    1  0.6888348E+001  0.2404372E+02  0.7546771E-02  0.1479792E+00
          2   -1    0    0  502    0  0.00000000000E+00  0.00000000000E+00  0.63019022522E+02  0.63019022522E+02  0.00000000000E+00 0.  1.
         -2   -1    0    0    0  501 -0.00000000000E+00 -0.00000000000E+00 -0.10992115207E+02  0.10992115207E+02  0.00000000000E+00 0. -1.
          1    1    1    2  502    0 -0.62283173011E+01 -0.23223016341E+02  0.41065846121E+02  0.47586806386E+02  0.00000000000E+00 0.  1.
         -1    1    1    2    0  501  0.62283173011E+01  0.23223016341E+02  0.10961061194E+02  0.26424331343E+02  0.00000000000E+00 0. -1.
</event>
<event>
 4    1  0.6888348E+001  0.2821451E+02  0.7546771E-02  0.1435775E+00
          2   -1    0    0  502    0  0.00000000000E+00  0.00000000000E+00  0.69943524690E+03  0.69943524690E+03  0.00000000000E+00 0. -1.
         -2   -1    0    0    0  501 -0.00000000000E+00 -0.00000000000E+00 -0.14459209796E+01  0.14459209796E+01  0.00000000000E+00 0.  1.
          1    1    1    2  502    0  0.62604816473E+01 -0.27511176846E+02  0.18731338764E+03  0.18942640701E+03  0.00000000000E+00 0.  1.
         -1    1    1    2    0  501 -0.62604816473E+01  0.27511176846E+02  0.51067593828E+03  0.51145476087E+03  0.00000000000E+00 0. -1.
</event>
<event>
 4    1  0.6888348E+001  0.2461573E+02  0.7546771E-02  0.1473148E+00
          2   -1    0    0  502    0  0.00000000000E+00  0.00000000000E+00  0.21537497007E+04  0.21537497007E+04  0.00000000000E+00 0. -1.
         -2   -1    0    0    0  501 -0.00000000000E+00 -0.00000000000E+00 -0.36933879056E+00  0.36933879056E+00  0.00000000000E+00 0.  1.
          1    1    1    2  502    0 -0.21544552989E+02 -0.11906561786E+02  0.16024263351E+04  0.16026153916E+04  0.00000000000E+00 0. -1.
         -1    1    1    2    0  501  0.21544552989E+02  0.11906561786E+02  0.55095402683E+03  0.55150364791E+03  0.00000000000E+00 0.  1.
</event>
<event>
 4    1  0.6888348E+001  0.2407306E+02  0.7546771E-02  0.1479446E+00
          2   -1    0    0  502    0  0.00000000000E+00  0.00000000000E+00  0.16450318881E+03  0.16450318881E+03  0.00000000000E+00 0.  1.
         -2   -1    0    0    0  501 -0.00000000000E+00 -0.00000000000E+00 -0.39971359123E+01  0.39971359123E+01  0.00000000000E+00 0. -1.
          1    1    1    2  502    0 -0.13733504351E+02  0.19771271430E+02  0.10927573564E+03  0.11189592805E+03  0.00000000000E+00 0.  1.
         -1    1    1    2    0  501  0.13733504351E+02 -0.19771271430E+02  0.51230317258E+02  0.56604396667E+02  0.00000000000E+00 0. -1.
</event>
<event>
 4    1  0.6888348E+001  0.2123823E+02  0.7546771E-02  0.1515891E+00
          2   -1    0    0  502    0  0.00000000000E+00  0.00000000000E+00  0.75977354295E+01  0.75977354295E+01  0.00000000000E+00 0. -1.
         -2   -1    0    0    0  501 -0.00000000000E+00 -0.00000000000E+00 -0.31370643868E+03  0.31370643868E+03  0.00000000000E+00 0.  1.
          1    1    1    2  502    0 -0.95224161875E+01  0.18983835913E+02 -0.84002850408E+01  0.22839159897E+02  0.00000000000E+00 0. -1.
         -1    1    1    2    0  501  0.95224161875E+01 -0.18983835913E+02 -0.29770841821E+03  0.29846501421E+03  0.00000000000E+00 0.  1.
</event>
<event>
 4    1  0.6888348E+001  0.2063072E+02  0.7546771E-02  0.1524603E+00
          2   -1    0    0  502    0  0.00000000000E+00  0.00000000000E+00  0.19189442328E+04  0.19189442328E+04  0.00000000000E+00 0. -1.
         -2   -1    0    0    0  501 -0.00000000000E+00 -0.00000000000E+00 -0.25069976239E+00  0.25069976239E+00  0.00000000000E+00 0.  1.
          1    1    1    2  502    0 -0.34648580244E+01  0.20337687793E+02  0.12851383531E+04  0.12853039381E+04  0.00000000000E+00 0. -1.
         -1    1    1    2    0  501  0.34648580244E+01 -0.20337687793E+02  0.63355517999E+03  0.63389099447E+03  0.00000000000E+00 0.  1.
</event>
<event>
 4    1  0.6888348E+001  0.2345109E+02  0.7546771E-02  0.1486910E+00
          2   -1    0    0  502    0  0.00000000000E+00  0.00000000000E+00  0.47713518451E+02  0.47713518451E+02  0.00000000000E+00 0.  1.
         -2   -1    0    0    0  501 -0.00000000000E+00 -0.00000000000E+00 -0.12774143558E+02  0.12774143558E+02  0.00000000000E+00 0. -1.
          1    1    1    2  502    0 -0.26448536711E+01 -0.23301462248E+02  0.26922831249E+02  0.35704232750E+02  0.00000000000E+00 0. -1.
         -1    1    1    2    0  501  0.26448536711E+01  0.23301462248E+02  0.80165436450E+01  0.24783429259E+02  0.00000000000E+00 0.  1.
</event>
<event>
 4    1  0.6888348E+001  0.3122929E+02  0.7546771E-02  0.1409206E+00
          2   -1    0    0  502    0  0.00000000000E+00  0.00000000000E+00  0.58197239928E+03  0.58197239928E+03  0.00000000000E+00 0.  1.
         -2   -1    0    0    0  501 -0.00000000000E+00 -0.00000000000E+00 -0.33550437367E+01  0.33550437367E+01  0.00000000000E+00 0. -1.
          1    1    1    2  502    0 -0.24072923509E+02 -0.19893794169E+02  0.82257926033E+02  0.87986561974E+02  0.00000000000E+00 0. -1.
         -1    1    1    2    0  501  0.24072923509E+02  0.19893794169E+02  0.49635942951E+03  0.49734088105E+03  0.00000000000E+00 0.  1.
</event>
<event>
 4    1  0.6888348E+001  0.2228364E+02  0.7546771E-02  0.1501695E+00
          2   -1    0    0  502    0  0.00000000000E+00  0.00000000000E+00  0.13985302574E+02  0.13985302574E+02  0.00000000000E+00 0.  1.
         -2   -1    0    0    0  501 -0.00000000000E+00 -0.00000000000E+00 -0.96993606218E+02  0.96993606218E+02  0.00000000000E+00 0. -1.
          1    1    1    2  502    0 -0.21425355257E+02 -0.61249400661E+01  0.26765948500E+01  0.22443816491E+02  0.00000000000E+00 0. -1.
         -1    1    1    2    0  501  0.21425355257E+02  0.61249400661E+01 -0.85684898495E+02  0.88535092301E+02  0.00000000000E+00 0.  1.
</event>
<event>
 4    1  0.6888348E+001  0.2005325E+02  0.7546771E-02  0.1533223E+00
          2   -1    0    0  502    0  0.00000000000E+00  0.00000000000E+00  0.65821595124E+02  0.65821595124E+02  0.00000000000E+00 0. -1.
         -2   -1    0    0    0  501 -0.00000000000E+00 -0.00000000000E+00 -0.85321848445E+01  0.85321848445E+01  0.00000000000E+00 0.  1.
          1    1    1    2  502    0 -0.94510422255E+01 -0.17686454975E+02  0.88341321834E+01  0.21912890730E+02  0.00000000000E+00 0.  1.
         -1    1    1    2    0  501  0.94510422255E+01  0.17686454975E+02  0.48455278096E+02  0.52440889238E+02  0.00000000000E+00 0. -1.
</event>
<event>
 4    1  0.6888348E+001  0.2015434E+02  0.7546771E-02  0.1531689E+00
          2   -1    0    0  502    0  0.00000000000E+00  0.00000000000E+00  0.27896405622E+02  0.27896405622E+02  0.00000000000E+00 0. -1.
         -2   -1    0    0    0  501 -0.00000000000E+00 -0.00000000000E+00 -0.32714598095E+02  0.32714598095E+02  0.00000000000E+00 0.  1.
          1    1    1    2  502    0 -0.72587494652E+01  0.18801812750E+02 -0.24984362559E+02  0.32100093130E+02  0.00000000000E+00 0.  1.
         -1    1    1    2    0  501  0.72587494652E+01 -0.18801812750E+02  0.20166170086E+02  0.28510910586E+02  0.00000000000E+00 0. -1.
</event>
<event>
 4    1  0.6888348E+001  0.2333130E+02  0.7546771E-02  0.1488379E+00
          2   -1    0    0  502    0  0.00000000000E+00  0.00000000000E+00  0.18535692237E+02  0.18535692237E+02  0.00000000000E+00 0.  1.
         -2   -1    0    0    0  501 -0.00000000000E+00 -0.00000000000E+00 -0.32691465321E+02  0.32691465321E+02  0.00000000000E+00 0. -1.
          1    1    1    2  502    0 -0.22387120446E+02  0.65701298290E+01 -0.15245051946E+02  0.27870439118E+02  0.00000000000E+00 0.  1.
         -1    1    1    2    0  501  0.22387120446E+02 -0.65701298290E+01  0.10892788621E+01  0.23356718440E+02  0.00000000000E+00 0. -1.
</event>
<event>
 4    1  0.6888348E+001  0.2423995E+02  0.7546771E-02  0.1477489E+00
          2   -1    0    0  502    0  0.00000000000E+00  0.00000000000E+00  0.10933134574E+04  0.10933134574E+04  0.00000000000E+00 0. -1.
         -2   -1    0    0    0  501 -0.00000000000E+00 -0.00000000000E+00 -0.55158243744E+00  0.55158243744E+00  0.00000000000E+00 0.  1.
          1    1    1    2  502    0  0.24155006227E+02  0.20275707078E+01  0.45876130216E+03  0.45940124916E+03  0.00000000000E+00 0. -1.
         -1    1    1    2    0  501 -0.24155006227E+02 -0.20275707078E+01  0.63400057286E+03  0.63446379073E+03  0.00000000000E+00 0.  1.
</event>
<event>
 4    1  0.6888348E+001  0.2301526E+02  0.7546771E-02  0.1492307E+00
          2   -1    0    0  502    0  0.00000000000E+00  0.00000000000E+00  0.33065966488E+03  0.33065966488E+03  0.00000000000E+00 0.  1.
         -2   -1    0    0    0  501 -0.00000000000E+00 -0.00000000000E+00 -0.23202936858E+01  0.23202936858E+01  0.00000000000E+00 0. -1.
          1    1    1    2  502    0  0.11519039253E+02 -0.19925213724E+02  0.71533473698E+02  0.75144795340E+02  0.00000000000E+00 0. -1.
         -1    1    1    2    0  501 -0.11519039253E+02  0.19925213724E+02  0.25680589750E+03  0.25783516323E+03  0.00000000000E+00 0.  1.
</event>
<event>
 4    1  0.6888348E+001  0.3914973E+02  0.7546771E-02  0.1353542E+00
          2   -1    0    0  502    0  0.00000000000E+00  0.00000000000E+00  0.32189526420E+04  0.32189526420E+04  0.00000000000E+00 0.  1.
         -2   -1    0    0    0  501 -0.00000000000E+00 -0.00000000000E+00 -0.68422807730E+00  0.68422807730E+00  0.00000000000E+00 0. -1.
          1    1    1    2  502    0  0.36804776074E+02  0.13345775295E+02  0.72138437347E+03  0.72244592569E+03  0.00000000000E+00 0. -1.
         -1    1    1    2    0  501 -0.36804776074E+02 -0.13345775295E+02  0.24968840405E+04  0.24971909444E+04  0.00000000000E+00 0.  1.
</event>
<event>
 4    1  0.6888348E+001  0.3170110E+02  0.7546771E-02  0.1405368E+00
          2   -1    0    0  502    0  0.00000000000E+00  0.00000000000E+00  0.60717888852E+03  0.60717888852E+03  0.00000000000E+00 0. -1.
         -2   -1    0    0    0  501 -0.00000000000E+00 -0.00000000000E+00 -0.19069688644E+01  0.19069688644E+01  0.00000000000E+00 0.  1.
          1    1    1    2  502    0  0.29683060235E+02 -0.11129935532E+02  0.19196370618E+03  0.19456367601E+03  0.00000000000E+00 0.  1.
         -1    1    1    2    0  501 -0.29683060235E+02  0.11129935532E+02  0.41330821347E+03  0.41452218138E+03  0.00000000000E+00 0. -1.
</event>
<event>
 4    1  0.6888348E+001  0.2014656E+02  0.7546771E-02  0.1531807E+00
          2   -1    0    0  502    0  0.00000000000E+00  0.00000000000E+00  0.50406057496E+03  0.50406057496E+03  0.00000000000E+00 0. -1.
         -2   -1    0    0    0  501 -0.00000000000E+00 -0.00000000000E+00 -0.15669180808E+01  0.15669180808E+01  0.00000000000E+00 0.  1.
          1    1    1    2  502    0 -0.10048000853E+02  0.17462004427E+02  0.42751202026E+03  0.42798646169E+03  0.00000000000E+00 0. -1.
         -1    1    1    2    0  501  0.10048000853E+02 -0.17462004427E+02  0.74981636622E+02  0.77641031358E+02  0.00000000000E+00 0.  1.
</event>
<event>
 4    1  0.6888348E+001  0.2303401E+02  0.7546771E-02  0.1492072E+00
          2   -1    0    0  502    0  0.00000000000E+00  0.00000000000E+00  0.23601582598E+03  0.23601582598E+03  0.00000000000E+00 0.  1.
         -2   -1    0    0    0  501 -0.00000000000E+00 -0.00000000000E+00 -0.33223464487E+01  0.33223464487E+01  0.00000000000E+00 0. -1.
          1    1    1    2  502    0  0.21647527652E+02 -0.78708354606E+01  0.18439703934E+03  0.18583012033E+03  0.00000000000E+00 0.  1.
         -1    1    1    2    0  501 -0.21647527652E+02  0.78708354606E+01  0.48296440191E+02  0.53508052099E+02  0.00000000000E+00 0. -1.
</event>
<event>
 4    1  0.6888348E+001  0.2645938E+02  0.7546771E-02  0.1453116E+00
          2   -1    0    0  502    0  0.00000000000E+00  0.00000000000E+00  0.47721220195E+03  0.47721220195E+03  0.00000000000E+00 0.  1.
         -2   -1    0    0    0  501 -0.00000000000E+00 -0.00000000000E+00 -0.15066083193E+01  0.15066083193E+01  0.00000000000E+00 0. -1.
          1    1    1    2  502    0 -0.14814341242E+02  0.21923367467E+02  0.19907202343E+03  0.20082273094E+03  0.00000000000E+00 0. -1.
         -1    1    1    2    0  501  0.14814341242E+02 -0.21923367467E+02  0.27663357020E+03  0.27789607933E+03  0.00000000000E+00 0.  1.
</event>
<event>
 4    1  0.6888348E+001  0.2119468E+02  0.7546771E-02  0.1516503E+00
          2   -1    0    0  502    0  0.00000000000E+00  0.00000000000E+00  0.12404787517E+04  0.12404787517E+04  0.00000000000E+00 0.  1.
         -2   -1    0    0    0  501 -0.00000000000E+00 -0.00000000000E+00 -0.48435368874E+00  0.48435368874E+00  0.00000000000E+00 0. -1.
          1    1    1    2  502    0  0.18770361552E+02 -0.98431598892E+01  0.93168922569E+03  0.93193026967E+03  0.00000000000E+00 0.  1.
         -1    1    1    2    0  501 -0.18770361552E+02  0.98431598892E+01  0.30830517236E+03  0.30903283575E+03  0.00000000000E+00 0. -1.
</event>
<event>
 4    1  0.6888348E+001  0.2756898E+02  0.7546771E-02  0.1441975E+00
          2   -1    0    0  502    0  0.00000000000E+00  0.00000000000E+00  0.31823661987E+02  0.31823661987E+02  0.00000000000E+00 0. -1.
         -2   -1    0    0    0  501 -0.00000000000E+00 -0.00000000000E+00 -0.24150744715E+02  0.24150744715E+02  0.00000000000E+00 0.  1.
          1    1    1    2  502    0  0.27190570669E+02 -0.45520886239E+01  0.67825726154E+01  0.28391053792E+02  0.00000000000E+00 0. -1.
         -1    1    1    2    0  501 -0.27190570669E+02  0.45520886239E+01  0.89034465665E+00  0.27583352910E+02  0.00000000000E+00 0.  1.
</event>
<event>
 4    1  0.6888348E+001  0.2539497E+02  0.7546771E-02  0.1464433E+00
          2   -1    0    0  502    0  0.00000000000E+00  0.00000000000E+00  0.21594702039E+04  0.21594702039E+04  0.00000000000E+00 0.  1.
         -2   -1    0    0    0  501 -0.00000000000E+00 -0.00000000000E+00 -0.52288723263E+00  0.52288723263E+00  0.00000000000E+00 0. -1.
          1    1    1    2  502    0  0.94797475174E+01 -0.23559261127E+02  0.17867380554E+04  0.17869185160E+04  0.00000000000E+00 0.  1.
         -1    1    1    2    0  501 -0.94797475174E+01  0.23559261127E+02  0.37220926131E+03  0.37307457513E+03  0.00000000000E+00 0. -1.
</event>
<event>
 4    1  0.6888348E+001  0.2029664E+02  0.7546771E-02  0.1529548E+00
          2   -1    0    0  502    0  0.00000000000E+00  0.00000000000E+00  0.13155318874E+03  0.13155318874E+03  0.00000000000E+00 0.  1.
         -2   -1    0    0    0  501 -0.00000000000E+00 -0.00000000000E+00 -0.58854326038E+01  0.58854326038E+01  0.00000000000E+00 0. -1.
          1    1    1    2  502    0 -0.14778478073E+02 -0.13912229975E+02  0.15826134862E+02  0.25737523224E+02  0.00000000000E+00 0. -1.
         -1    1    1    2    0  501  0.14778478073E+02  0.13912229975E+02  0.10984162127E+03  0.11170109812E+03  0.00000000000E+00 0.  1.
</event>
<event>
 4    1  0.6888348E+001  0.2278370E+02  0.7546771E-02  0.1495232E+00
          2   -1    0    0  502    0  0.00000000000E+00  0.00000000000E+00  0.30097122607E+03  0.30097122607E+03  0.00000000000E+00 0.  1.
         -2   -1    0    0    0  501 -0.00000000000E+00 -0.00000000000E+00 -0.31870486075E+01  0.31870486075E+01  0.00000000000E+00 0. -1.
          1    1    1    2  502    0  0.20192441247E+02  0.10552823182E+02  0.45878388190E+02  0.51224244880E+02  0.00000000000E+00 0. -1.
         -1    1    1    2    0  501 -0.20192441247E+02 -0.10552823182E+02  0.25190578927E+03  0.25293402980E+03  0.00000000000E+00 0.  1.
</event>
<event>
 4    1  0.6888348E+001  0.2126538E+02  0.7546771E-02  0.1515509E+00
          2   -1    0    0  502    0  0.00000000000E+00  0.00000000000E+00  0.60581339802E+03  0.60581339802E+03  0.00000000000E+00 0.  1.
         -2   -1    0    0    0  501 -0.00000000000E+00 -0.00000000000E+00 -0.12089662946E+01  0.12089662946E+01  0.00000000000E+00 0. -1.
          1    1    1    2  502    0  0.20386605027E+02 -0.60500312506E+01  0.49002871949E+03  0.49048992087E+03  0.00000000000E+00 0.  1.
         -1    1    1    2    0  501 -0.20386605027E+02  0.60500312506E+01  0.11457571223E+03  0.11653244345E+03  0.00000000000E+00 0. -1.
</event>
<event>
 4    1  0.6888348E+001  0.2089765E+02  0.7546771E-02  0.1520731E+00
          2   -1    0    0  502    0  0.00000000000E+00  0.00000000000E+00  0.27072975276E+02  0.27072975276E+02  0.00000000000E+00 0. -1.
         -2   -1    0    0    0  501 -0.00000000000E+00 -0.00000000000E+00 -0.16506392540E+02  0.16506392540E+02  0.00000000000E+00 0.  1.
          1    1    1    2  502    0  0.27428611617E+01  0.20716866273E+02  0.19969141339E+01  0.20992844057E+02  0.00000000000E+00 0.  1.
         -1    1    1    2    0  501 -0.27428611617E+01 -0.20716866273E+02  0.85696686027E+01  0.22586523759E+02  0.00000000000E+00 0. -1.
</event>
<event>
 4    1  0.6888348E+001  0.3170691E+02  0.7546771E-02  0.1405321E+00
          2   -1    0    0  502    0  0.00000000000E+00  0.00000000000E+00  0.61852948954E+03  0.61852948954E+03  0.00000000000E+00 0.  1.
         -2   -1    0    0    0  501 -0.00000000000E+00 -0.00000000000E+00 -0.17344027629E+01  0.17344027629E+01  0.00000000000E+00 0. -1.
          1    1    1    2  502    0  0.15849031618E+02  0.27461544228E+02  0.38616280713E+03  0.38746231020E+03  0.00000000000E+00 0.  1.
         -1    1    1    2    0  501 -0.15849031618E+02 -0.27461544228E+02  0.23063227965E+03  0.23280158211E+03  0.00000000000E+00 0. -1.
</event>
<event>
 4    1  0.6888348E+001  0.2266812E+02  0.7546771E-02  0.1496708E+00
          2   -1    0    0  502    0  0.00000000000E+00  0.00000000000E+00  0.25699377039E+01  0.25699377039E+01  0.00000000000E+00 0. -1.
         -2   -1    0    0    0  501 -0.00000000000E+00 -0.00000000000E+00 -0.20100358705E+03  0.20100358705E+03  0.00000000000E+00 0.  1.
          1    1    1    2  502    0 -0.88529494907E+01 -0.20867891098E+02 -0.10660709236E+03  0.10899043873E+03  0.00000000000E+00 0. -1.
         -1    1    1    2    0  501  0.88529494907E+01  0.20867891098E+02 -0.91826556995E+02  0.94583086031E+02  0.00000000000E+00 0.  1.
</event>
<event>
 4    1  0.6888348E+001  0.3263345E+02  0.7546771E-02  0.1398010E+00
          2   -1    0    0  502    0  0.00000000000E+00  0.00000000000E+00  0.10287245772E+02  0.10287245772E+02  0.00000000000E+00 0.  1.
         -2   -1    0    0    0  501 -0.00000000000E+00 -0.00000000000E+00 -0.10508811692E+03  0.10508811692E+03  0.00000000000E+00 0. -1.
          1    1    1    2  502    0 -0.45220931350E+01 -0.32318613865E+02 -0.54445885162E+02  0.63476740145E+02  0.00000000000E+00 0. -1.
         -1    1    1    2    0  501  0.45220931350E+01  0.32318613865E+02 -0.40354985990E+02  0.51898622551E+02  0.00000000000E+00 0.  1.
</event>
<event>
 4    1  0.6888348E+001  0.3368716E+02  0.7546771E-02  0.1390035E+00
          2   -1    0    0  502    0  0.00000000000E+00  0.00000000000E+00  0.56983700045E+01  0.56983700045E+01  0.00000000000E+00 0.  1.
         -2   -1    0    0    0  501 -0.00000000000E+00 -0.00000000000E+00 -0.19919228661E+03  0.19919228661E+03  0.00000000000E+00 0. -1.
          1    1    1    2  502    0 -0.30902189324E+02  0.13411918300E+02 -0.98256633242E+02  0.10387102981E+03  0.00000000000E+00 0. -1.
         -1    1    1    2    0  501  0.30902189324E+02 -0.13411918300E+02 -0.95237283359E+02  0.10101962680E+03  0.00000000000E+00 0.  1.
</event>
<event>
 4    1  0.6888348E+001  0.2576754E+02  0.7546771E-02  0.1460397E+00
          2   -1    0    0  502    0  0.00000000000E+00  0.00000000000E+00  0.13200351936E+04  0.13200351936E+04  0.00000000000E+00 0. -1.
         -2   -1    0    0    0  501 -0.00000000000E+00 -0.00000000000E+00 -0.55329147273E+00  0.55329147273E+00  0.00000000000E+00 0.  1.
          1    1    1    2  502    0  0.21835964491E+01 -0.25674853685E+02  0.46065285092E+03  0.46137296764E+03  0.00000000000E+00 0.  1.
         -1    1    1    2    0  501 -0.21835964491E+01  0.25674853685E+02  0.85882905121E+03  0.85921551744E+03  0.00000000000E+00 0. -1.
</event>
<event>
 4    1  0.6888348E+001  0.2051118E+02  0.7546771E-02  0.1526360E+00
          2   -1    0    0  502    0  0.00000000000E+00  0.00000000000E+00  0.15976702436E+04  0.15976702436E+04  0.00000000000E+00 0.  1.
         -2   -1    0    0    0  501 -0.00000000000E+00 -0.00000000000E+00 -0.30617465778E+00  0.30617465778E+00  0.00000000000E+00 0. -1.
          1    1    1    2  502    0 -0.37268837015E+01  0.20169754427E+02  0.49978428552E+03  0.50020499868E+03  0.00000000000E+00 0. -1.
         -1    1    1    2    0  501  0.37268837015E+01 -0.20169754427E+02  0.10975797834E+04  0.10977714196E+04  0.00000000000E+00 0.  1.
</event>
<event>
 4    1  0.6888348E+001  0.2253511E+02  0.7546771E-02  0.1498420E+00
          2   -1    0    0  502    0  0.00000000000E+00  0.00000000000E+00  0.71352728349E+03  0.71352728349E+03  0.00000000000E+00 0. -1.
         -2   -1    0    0    0  501 -0.00000000000E+00 -0.00000000000E+00 -0.75024272401E+00  0.75024272401E+00  0.00000000000E+00 0.  1.
          1    1    1    2  502    0  0.15545426191E+02 -0.16314741777E+02  0.43731656371E+03  0.43789680059E+03  0.00000000000E+00 0.  1.
         -1    1    1    2    0  501 -0.15545426191E+02  0.16314741777E+02  0.27546047705E+03  0.27638072562E+03  0.00000000000E+00 0. -1.
</event>
<event>
 4    1  0.6888348E+001  0.2132058E+02  0.7546771E-02  0.1514737E+00
          2   -1    0    0  502    0  0.00000000000E+00  0.00000000000E+00  0.20842049229E+03  0.20842049229E+03  0.00000000000E+00 0.  1.
         -2   -1    0    0    0  501 -0.00000000000E+00 -0.00000000000E+00 -0.21957428626E+01  0.21957428626E+01  0.00000000000E+00 0. -1.
          1    1    1    2  502    0 -0.19229710807E+02 -0.92079059102E+01  0.94486455047E+02  0.96862053954E+02  0.00000000000E+00 0. -1.
         -1    1    1    2    0  501  0.19229710807E+02  0.92079059102E+01  0.11173829438E+03  0.11375418120E+03  0.00000000000E+00 0.  1.
</event>
<event>
 4    1  0.6888348E+001  0.2198573E+02  0.7546771E-02  0.1505643E+00
          2   -1    0    0  502    0  0.00000000000E+00  0.00000000000E+00  0.20055519541E+03  0.20055519541E+03  0.00000000000E+00 0.  1.
         -2   -1    0    0    0  501 -0.00000000000E+00 -0.00000000000E+00 -0.25867010755E+01  0.25867010755E+01  0.00000000000E+00 0. -1.
          1    1    1    2  502    0  0.11940781454E+02  0.18460497351E+02  0.12551846567E+03  0.12742942144E+03  0.00000000000E+00 0. -1.
         -1    1    1    2    0  501 -0.11940781454E+02 -0.18460497351E+02  0.72450028671E+02  0.75712475052E+02  0.00000000000E+00 0.  1.
</event>
<event>
 4    1  0.6888348E+001  0.2053218E+02  0.7546771E-02  0.1526050E+00
          2   -1    0    0  502    0  0.00000000000E+00  0.00000000000E+00  0.25693548994E+02  0.25693548994E+02  0.00000000000E+00 0. -1.
         -2   -1    0    0    0  501 -0.00000000000E+00 -0.00000000000E+00 -0.16411175728E+02  0.16411175728E+02  0.00000000000E+00 0.  1.
          1    1    1    2  502    0 -0.16882582596E+02 -0.11685407110E+02  0.49504803647E+01  0.21120549005E+02  0.00000000000E+00 0. -1.
         -1    1    1    2    0  501  0.16882582596E+02  0.11685407110E+02  0.43318929020E+01  0.20984175717E+02  0.00000000000E+00 0.  1.
</event>
<event>
 4    1  0.6888348E+001  0.4310740E+02  0.7546771E-02  0.1331179E+00
          2   -1    0    0  502    0  0.00000000000E+00  0.00000000000E+00  0.19326300810E+03  0.19326300810E+03  0.00000000000E+00 0.  1.
         -2   -1    0    0    0  501 -0.00000000000E+00 -0.00000000000E+00 -0.10920275834E+02  0.10920275834E+02  0.00000000000E+00 0. -1.
          1    1    1    2  502    0 -0.37710747814E+02  0.20884141747E+02  0.55877126798E+02  0.70572665929E+02  0.00000000000E+00 0. -1.
         -1    1    1    2    0  501  0.37710747814E+02 -0.20884141747E+02  0.12646560547E+03  0.13361061800E+03  0.00000000000E+00 0.  1.
</event>
<event>
 4    1  0.6888348E+001  0.9429092E+02  0.7546771E-02  0.1174086E+00
          2   -1    0    0  502    0  0.00000000000E+00  0.00000000000E+00  0.33749381742E+04  0.33749381742E+04  0.00000000000E+00 0.  1.
         -2   -1    0    0    0  501 -0.00000000000E+00 -0.00000000000E+00 -0.10354579318E+02  0.10354579318E+02  0.00000000000E+00 0. -1.
          1    1    1    2  502    0  0.80091296078E+02 -0.49761045035E+02  0.31438463571E+04  0.31452600361E+04  0.00000000000E+00 0.  1.
         -1    1    1    2    0  501 -0.80091296078E+02  0.49761045035E+02  0.22073723775E+03  0.24003271743E+03  0.00000000000E+00 0. -1.
</event>
<event>
 4    1  0.6888348E+001  0.2285365E+02  0.7546771E-02  0.1494344E+00
          2   -1    0    0  502    0  0.00000000000E+00  0.00000000000E+00  0.98476734050E+03  0.98476734050E+03  0.00000000000E+00 0.  1.
         -2   -1    0    0    0  501 -0.00000000000E+00 -0.00000000000E+00 -0.76451186890E+00  0.76451186890E+00  0.00000000000E+00 0. -1.
          1    1    1    2  502    0  0.37277604981E+01  0.22547579132E+02  0.21929865274E+03  0.22048625494E+03  0.00000000000E+00 0. -1.
         -1    1    1    2    0  501 -0.37277604981E+01 -0.22547579132E+02  0.76470417589E+03  0.76504559743E+03  0.00000000000E+00 0.  1.
</event>
<event>
 4    1  0.6888348E+001  0.3368265E+02  0.7546771E-02  0.1390069E+00
          2   -1    0    0  502    0  0.00000000000E+00  0.00000000000E+00  0.82195550536E+01  0.82195550536E+01  0.00000000000E+00 0.  1.
         -2   -1    0    0    0  501 -0.00000000000E+00 -0.00000000000E+00 -0.14219309653E+03  0.14219309653E+03  0.00000000000E+00 0. -1.
          1    1    1    2  502    0  0.22985170530E+02  0.24621189951E+02 -0.79859670783E+02  0.86672302822E+02  0.00000000000E+00 0.  1.
         -1    1    1    2    0  501 -0.22985170530E+02 -0.24621189951E+02 -0.54113870694E+02  0.63740348762E+02  0.00000000000E+00 0. -1.
</event>
<event>
 4    1  0.6888348E+001  0.2104379E+02  0.7546771E-02  0.1518641E+00
          2   -1    0    0  502    0  0.00000000000E+00  0.00000000000E+00  0.79968367304E+01  0.79968367304E+01  0.00000000000E+00 0. -1.
         -2   -1    0    0    0  501 -0.00000000000E+00 -0.00000000000E+00 -0.62363130762E+02  0.62363130762E+02  0.00000000000E+00 0.  1.
          1    1    1    2  502    0  0.20946621227E+02  0.20199054260E+01 -0.15408455847E+02  0.26081822604E+02  0.00000000000E+00 0.  1.
         -1    1    1    2    0  501 -0.20946621227E+02 -0.20199054260E+01 -0.38957838185E+02  0.44278144889E+02  0.00000000000E+00 0. -1.
</event>
<event>
 4    1  0.6888348E+001  0.2559350E+02  0.7546771E-02  0.1462272E+00
          2   -1    0    0  502    0  0.00000000000E+00  0.00000000000E+00  0.76536140677E+03  0.76536140677E+03  0.00000000000E+00 0. -1.
         -2   -1    0    0    0  501 -0.00000000000E+00 -0.00000000000E+00 -0.10332374006E+01  0.10332374006E+01  0.00000000000E+00 0.  1.
          1    1    1    2  502    0  0.17727306219E+02  0.18459950405E+02  0.22338414414E+03  0.22484550920E+03  0.00000000000E+00 0.  1.
         -1    1    1    2    0  501 -0.17727306219E+02 -0.18459950405E+02  0.54094402523E+03  0.54154913497E+03  0.00000000000E+00 0. -1.
</event>
<event>
 4    1  0.6888348E+001  0.2396925E+02  0.7546771E-02  0.1480673E+00
          2   -1    0    0  502    0  0.00000000000E+00  0.00000000000E+00  0.51285214540E+01  0.51285214540E+01  0.00000000000E+00 0. -1.
         -2   -1    0    0    0  501 -0.00000000000E+00 -0.00000000000E+00 -0.14223709529E+03  0.14223709529E+03  0.00000000000E+00 0.  1.
          1    1    1    2  502    0  0.13663176534E+02 -0.19693723699E+02 -0.34595934599E+02  0.42088048623E+02  0.00000000000E+00 0. -1.
         -1    1    1    2    0  501 -0.13663176534E+02  0.19693723699E+02 -0.10251263924E+03  0.10527756812E+03  0.00000000000E+00 0.  1.
</event>
<event>
 4    1  0.6888348E+001  0.2513839E+02  0.7546771E-02  0.1467261E+00
          2   -1    0    0  502    0  0.00000000000E+00  0.00000000000E+00  0.46513012480E+02  0.46513012480E+02  0.00000000000E+00 0.  1.
         -2   -1    0    0    0  501 -0.00000000000E+00 -0.00000000000E+00 -0.16775420239E+02  0.16775420239E+02  0.00000000000E+00 0. -1.
          1    1    1    2  502    0 -0.18812590195E+02  0.16674080839E+02  0.28666120458E+02  0.38127221034E+02  0.00000000000E+00 0.  1.
         -1    1    1    2    0  501  0.18812590195E+02 -0.16674080839E+02  0.10714717833E+01  0.25161211684E+02  0.00000000000E+00 0. -1.
</event>
<event>
 4    1  0.6888348E+001  0.2108805E+02  0.7546771E-02  0.1518011E+00
          2   -1    0    0  502    0  0.00000000000E+00  0.00000000000E+00  0.60428717798E+03  0.60428717798E+03  0.00000000000E+00 0. -1.
         -2   -1    0    0    0  501 -0.00000000000E+00 -0.00000000000E+00 -0.74149468314E+00  0.74149468314E+00  0.00000000000E+00 0.  1.
          1    1    1    2  502    0 -0.10385350916E+02 -0.18353481931E+02  0.27553791537E+03  0.27634371464E+03  0.00000000000E+00 0.  1.
         -1    1    1    2    0  501  0.10385350916E+02  0.18353481931E+02  0.32800776793E+03  0.32868495803E+03  0.00000000000E+00 0. -1.
</event>
<event>
 4    1  0.6888348E+001  0.2083077E+02  0.7546771E-02  0.1521695E+00
          2   -1    0    0  502    0  0.00000000000E+00  0.00000000000E+00  0.18279517558E+01  0.18279517558E+01  0.00000000000E+00 0. -1.
         -2   -1    0    0    0  501 -0.00000000000E+00 -0.00000000000E+00 -0.24586556461E+03  0.24586556461E+03  0.00000000000E+00 0.  1.
          1    1    1    2  502    0 -0.19210109456E+02 -0.80555968630E+01 -0.14502535891E+03  0.14651373886E+03  0.00000000000E+00 0. -1.
         -1    1    1    2    0  501  0.19210109456E+02  0.80555968630E+01 -0.99012253939E+02  0.10117977751E+03  0.00000000000E+00 0.  1.
</event>
<event>
 4    1  0.6888348E+001  0.2383677E+02  0.7546771E-02  0.1482250E+00
          2   -1    0    0  502    0  0.00000000000E+00  0.00000000000E+00  0.79313843784E+03  0.79313843784E+03  0.00000000000E+00 0.  1.
         -2   -1    0    0    0  501 -0.00000000000E+00 -0.00000000000E+00 -0.17207833858E+01  0.17207833858E+01  0.00000000000E+00 0. -1.
          1    1    1    2  502    0  0.11440168855E+02  0.20912058058E+02  0.92074861264E+02  0.95110313386E+02  0.00000000000E+00 0. -1.
         -1    1    1    2    0  501 -0.11440168855E+02 -0.20912058058E+02  0.69934279319E+03  0.69974890784E+03  0.00000000000E+00 0.  1.
</event>
<event>
 4    1  0.6888348E+001  0.3023275E+02  0.7546771E-02  0.1417584E+00
          2   -1    0    0  502    0  0.00000000000E+00  0.00000000000E+00  0.52958557074E+02  0.52958557074E+02  0.00000000000E+00 0. -1.
         -2   -1    0    0    0  501 -0.00000000000E+00 -0.00000000000E+00 -0.17759852366E+02  0.17759852366E+02  0.00000000000E+00 0.  1.
          1    1    1    2  502    0  0.30061532760E+02  0.32130155919E+01  0.11662224579E+02  0.32404115528E+02  0.00000000000E+00 0.  1.
         -1    1    1    2    0  501 -0.30061532760E+02 -0.32130155919E+01  0.23536480129E+02  0.38314293911E+02  0.00000000000E+00 0. -1.
</event>
<event>
 4    1  0.6888348E+001  0.4058788E+02  0.7546771E-02  0.1345075E+00
          2   -1    0    0  502    0  0.00000000000E+00  0.00000000000E+00  0.49472210716E+03  0.49472210716E+03  0.00000000000E+00 0.  1.
         -2   -1    0    0    0  501 -0.00000000000E+00 -0.00000000000E+00 -0.33662272351E+01  0.33662272351E+01  0.00000000000E+00 0. -1.
          1    1    1    2  502    0 -0.33965122719E+02  0.22220406305E+02  0.27154876525E+03  0.27456530721E+03  0.00000000000E+00 0.  1.
         -1    1    1    2    0  501  0.33965122719E+02 -0.22220406305E+02  0.21980711467E+03  0.22352302718E+03  0.00000000000E+00 0. -1.
</event>
<event>
 4    1  0.6888348E+001  0.2781869E+02  0.7546771E-02  0.1439553E+00
          2   -1    0    0  502    0  0.00000000000E+00  0.00000000000E+00  0.18729461677E+04  0.18729461677E+04  0.00000000000E+00 0. -1.
         -2   -1    0    0    0  501 -0.00000000000E+00 -0.00000000000E+00 -0.70278968868E+00  0.70278968868E+00  0.00000000000E+00 0.  1.
          1    1    1    2  502    0 -0.25768076319E+02  0.10482627656E+02  0.33474589819E+03  0.33589982970E+03  0.00000000000E+00 0.  1.
         -1    1    1    2    0  501  0.25768076319E+02 -0.10482627656E+02  0.15374974798E+04  0.15377491277E+04  0.00000000000E+00 0. -1.
</event>
<event>
 4    1  0.6888348E+001  0.2058524E+02  0.7546771E-02  0.1525270E+00
          2   -1    0    0  502    0  0.00000000000E+00  0.00000000000E+00  0.26943802015E+03  0.26943802015E+03  0.00000000000E+00 0. -1.
         -2   -1    0    0    0  501 -0.00000000000E+00 -0.00000000000E+00 -0.15835254215E+01  0.15835254215E+01  0.00000000000E+00 0.  1.
          1    1    1    2  502    0  0.13542991336E+02 -0.15502879922E+02  0.14511859546E+03  0.14657134321E+03  0.00000000000E+00 0. -1.
         -1    1    1    2    0  501 -0.13542991336E+02  0.15502879922E+02  0.12273589927E+03  0.12445020237E+03  0.00000000000E+00 0.  1.
</event>
<event>
 4    1  0.6888348E+001  0.5254706E+02  0.7546771E-02  0.1287492E+00
          2   -1    0    0  502    0  0.00000000000E+00  0.00000000000E+00  0.45050405395E+02  0.45050405395E+02  0.00000000000E+00 0. -1.
         -2   -1    0    0    0  501 -0.00000000000E+00 -0.00000000000E+00 -0.75306014994E+02  0.75306014994E+02  0.00000000000E+00 0.  1.
          1    1    1    2  502    0 -0.96318311245E+01 -0.51656762609E+02 -0.41088609925E+02  0.66704326394E+02  0.00000000000E+00 0.  1.
         -1    1    1    2    0  501  0.96318311245E+01  0.51656762609E+02  0.10833000326E+02  0.53652093996E+02  0.00000000000E+00 0. -1.
</event>
<event>
 4    1  0.6888348E+001  0.2170822E+02  0.7546771E-02  0.1509389E+00
          2   -1    0    0  502    0  0.00000000000E+00  0.00000000000E+00  0.28767862609E+03  0.28767862609E+03  0.00000000000E+00 0. -1.
         -2   -1    0    0    0  501 -0.00000000000E+00 -0.00000000000E+00 -0.17964523798E+01  0.17964523798E+01  0.00000000000E+00 0.  1.
          1    1    1    2  502    0  0.11917091799E+02 -0.18144685686E+02  0.99969240414E+02  0.10229905046E+03  0.00000000000E+00 0.  1.
         -1    1    1    2    0  501 -0.11917091799E+02  0.18144685686E+02  0.18591293330E+03  0.18717602801E+03  0.00000000000E+00 0. -1.
</event>
<event>
 4    1  0.6888348E+001  0.2180332E+02  0.7546771E-02  0.1508098E+00
          2   -1    0    0  502    0  0.00000000000E+00  0.00000000000E+00  0.29914704435E+01  0.29914704435E+01  0.00000000000E+00 0.  1.
         -2   -1    0    0    0  501 -0.00000000000E+00 -0.00000000000E+00 -0.15953031628E+03  0.15953031628E+03  0.00000000000E+00 0. -1.
          1    1    1    2  502    0 -0.20286368971E+02  0.79904890070E+01 -0.83322780002E+02  0.86128220392E+02  0.00000000000E+00 0. -1.
         -1    1    1    2    0  501  0.20286368971E+02 -0.79904890070E+01 -0.73216065833E+02  0.76393566330E+02  0.00000000000E+00 0.  1.
</event>
<event>
 4    1  0.6888348E+001  0.4666005E+02  0.7546771E-02  0.1313341E+00
          2   -1    0    0  502    0  0.00000000000E+00  0.00000000000E+00  0.49633813583E+03  0.49633813583E+03  0.00000000000E+00 0.  1.
         -2   -1    0    0    0  501 -0.00000000000E+00 -0.00000000000E+00 -0.43990999289E+01  0.43990999289E+01  0.00000000000E+00 0. -1.
          1    1    1    2  502    0 -0.30397739571E+02 -0.35399691235E+02  0.23254183764E+03  0.23717686853E+03  0.00000000000E+00 0.  1.
         -1    1    1    2    0  501  0.30397739571E+02  0.35399691235E+02  0.25939719826E+03  0.26356036723E+03  0.00000000000E+00 0. -1.
</event>
<event>
 4    1  0.6888348E+001  0.2638925E+02  0.7546771E-02  0.1453842E+00
          2   -1    0    0  502    0  0.00000000000E+00  0.00000000000E+00  0.42637614390E+03  0.42637614390E+03  0.00000000000E+00 0. -1.
         -2   -1    0    0    0  501 -0.00000000000E+00 -0.00000000000E+00 -0.23117555580E+01  0.23117555580E+01  0.00000000000E+00 0.  1.
          1    1    1    2  502    0 -0.38549357705E-01 -0.26389220187E+02  0.95912261037E+02  0.99476400445E+02  0.00000000000E+00 0.  1.
         -1    1    1    2    0  501  0.38549357705E-01  0.26389220187E+02  0.32815212730E+03  0.32921149901E+03  0.00000000000E+00 0. -1.
</event>
<event>
 4    1  0.6888348E+001  0.3709580E+02  0.7546771E-02  0.1366399E+00
          2   -1    0    0  502    0  0.00000000000E+00  0.00000000000E+00  0.21662817404E+03  0.21662817404E+03  0.00000000000E+00 0. -1.
         -2   -1    0    0    0  501 -0.00000000000E+00 -0.00000000000E+00 -0.90873807826E+01  0.90873807826E+01  0.00000000000E+00 0.  1.
          1    1    1    2  502    0 -0.12905015113E+01 -0.37073345812E+02  0.41855792697E+02  0.55928577187E+02  0.00000000000E+00 0.  1.
         -1    1    1    2    0  501  0.12905015113E+01  0.37073345812E+02  0.16568500056E+03  0.16978697763E+03  0.00000000000E+00 0. -1.
</event>
<event>
 4    1  0.6888348E+001  0.4029868E+02  0.7546771E-02  0.1346744E+00
          2   -1    0    0  502    0  0.00000000000E+00  0.00000000000E+00  0.27466601659E+03  0.27466601659E+03  0.00000000000E+00 0. -1.
         -2   -1    0    0    0  501 -0.00000000000E+00 -0.00000000000E+00 -0.59924344916E+01  0.59924344916E+01  0.00000000000E+00 0.  1.
          1    1    1    2  502    0  0.26043234861E+02 -0.30752778843E+02  0.11813701158E+03  0.12482122013E+03  0.00000000000E+00 0. -1.
         -1    1    1    2    0  501 -0.26043234861E+02  0.30752778843E+02  0.15053657051E+03  0.15583723095E+03  0.00000000000E+00 0.  1.
</event>
<event>
 4    1  0.6888348E+001  0.2047813E+02  0.7546771E-02  0.1526848E+00
          2   -1    0    0  502    0  0.00000000000E+00  0.00000000000E+00  0.64095119990E+01  0.64095119990E+01  0.00000000000E+00 0. -1.
         -2   -1    0    0    0  501 -0.00000000000E+00 -0.00000000000E+00 -0.67036739848E+02  0.67036739848E+02  0.00000000000E+00 0.  1.
          1    1    1    2  502    0 -0.20432073197E+02  0.13727083460E+01 -0.24622644361E+02  0.32025436120E+02  0.00000000000E+00 0. -1.
         -1    1    1    2    0  501  0.20432073197E+02 -0.13727083460E+01 -0.36004583488E+02  0.41420815727E+02  0.00000000000E+00 0.  1.
</event>
<event>
 4    1  0.6888348E+001  0.2236444E+02  0.7546771E-02  0.1500637E+00
          2   -1    0    0  502    0  0.00000000000E+00  0.00000000000E+00  0.13301026412E+04  0.13301026412E+04  0.00000000000E+00 0.  1.
         -2   -1    0    0    0  501 -0.00000000000E+00 -0.00000000000E+00 -0.39039581293E+00  0.39039581293E+00  0.00000000000E+00 0. -1.
          1    1    1    2  502    0 -0.15276477859E+02  0.16333928536E+02  0.53727478845E+03  0.53774005458E+03  0.00000000000E+00 0. -1.
         -1    1    1    2    0  501  0.15276477859E+02 -0.16333928536E+02  0.79243745695E+03  0.79275298244E+03  0.00000000000E+00 0.  1.
</event>
<event>
 4    1  0.6888348E+001  0.3341309E+02  0.7546771E-02  0.1392076E+00
          2   -1    0    0  502    0  0.00000000000E+00  0.00000000000E+00  0.23811695706E+03  0.23811695706E+03  0.00000000000E+00 0.  1.
         -2   -1    0    0    0  501 -0.00000000000E+00 -0.00000000000E+00 -0.54737302473E+01  0.54737302473E+01  0.00000000000E+00 0. -1.
          1    1    1    2  502    0  0.33317170394E+02  0.25299809723E+01  0.70194057289E+02  0.77740853645E+02  0.00000000000E+00 0. -1.
         -1    1    1    2    0  501 -0.33317170394E+02 -0.25299809723E+01  0.16244916952E+03  0.16584983366E+03  0.00000000000E+00 0.  1.
</event>
<event>
 4    1  0.6888348E+001  0.2094485E+02  0.7546771E-02  0.1520054E+00
          2   -1    0    0  502    0  0.00000000000E+00  0.00000000000E+00  0.12525198393E+04  0.12525198393E+04  0.00000000000E+00 0. -1.
         -2   -1    0    0    0  501 -0.00000000000E+00 -0.00000000000E+00 -0.35027731148E+00  0.35027731148E+00  0.00000000000E+00 0.  1.
          1    1    1    2  502    0 -0.18865051131E+02  0.90992586483E+01  0.63225901690E+03  0.63260584183E+03  0.00000000000E+00 0.  1.
         -1    1    1    2    0  501  0.18865051131E+02 -0.90992586483E+01  0.61991054508E+03  0.62026427478E+03  0.00000000000E+00 0. -1.
</event>
<event>
 4    1  0.6888348E+001  0.4499836E+02  0.7546771E-02  0.1321448E+00
          2   -1    0    0  502    0  0.00000000000E+00  0.00000000000E+00  0.31875986340E+02  0.31875986340E+02  0.00000000000E+00 0.  1.
         -2   -1    0    0    0  501 -0.00000000000E+00 -0.00000000000E+00 -0.67313347495E+02  0.67313347495E+02  0.00000000000E+00 0. -1.
          1    1    1    2  502    0  0.21266566007E+02  0.39655835136E+02 -0.59498036175E+01  0.45390001687E+02  0.00000000000E+00 0.  1.
         -1    1    1    2    0  501 -0.21266566007E+02 -0.39655835136E+02 -0.29487557537E+02  0.53799332148E+02  0.00000000000E+00 0. -1.
</event>
<event>
 4    1  0.6888348E+001  0.2890684E+02  0.7546771E-02  0.1429340E+00
          2   -1    0    0  502    0  0.00000000000E+00  0.00000000000E+00  0.86628127965E+03  0.86628127965E+03  0.00000000000E+00 0. -1.
         -2   -1    0    0    0  501 -0.00000000000E+00 -0.00000000000E+00 -0.10627150017E+01  0.10627150017E+01  0.00000000000E+00 0.  1.
          1    1    1    2  502    0  0.11366898841E+02  0.26578169401E+02  0.56438785818E+03  0.56512764925E+03  0.00000000000E+00 0. -1.
         -1    1    1    2    0  501 -0.11366898841E+02 -0.26578169401E+02  0.30083070646E+03  0.30221634540E+03  0.00000000000E+00 0.  1.
</event>
<event>
 4    1  0.6888348E+001  0.2393029E+02  0.7546771E-02  0.1481136E+00
          2   -1    0    0  502    0  0.00000000000E+00  0.00000000000E+00  0.21954320614E+01  0.21954320614E+01  0.00000000000E+00 0. -1.
         -2   -1    0    0    0  501 -0.00000000000E+00 -0.00000000000E+00 -0.28391071488E+03  0.28391071488E+03  0.00000000000E+00 0.  1.
          1    1    1    2  502    0  0.23072980268E+01  0.23818798917E+02 -0.10007954616E+03  0.10290079866E+03  0.00000000000E+00 0.  1.
         -1    1    1    2    0  501 -0.23072980268E+01 -0.23818798917E+02 -0.18163573665E+03  0.18320534827E+03  0.00000000000E+00 0. -1.
</event>
<event>
 4    1  0.6888348E+001  0.2029152E+02  0.7546771E-02  0.1529625E+00
          2   -1    0    0  502    0  0.00000000000E+00  0.00000000000E+00  0.99078477816E+02  0.99078477816E+02  0.00000000000E+00 0.  1.
         -2   -1    0    0    0  501 -0.00000000000E+00 -0.00000000000E+00 -0.60324626981E+01  0.60324626981E+01  0.00000000000E+00 0. -1.
          1    1    1    2  502    0 -0.20002101090E+02 -0.34149137206E+01  0.17209408036E+02  0.26606567022E+02  0.00000000000E+00 0. -1.
         -1    1    1    2    0  501  0.20002101090E+02  0.34149137206E+01  0.75836607082E+02  0.78504373493E+02  0.00000000000E+00 0.  1.
</event>
<event>
 4    1  0.6888348E+001  0.2081469E+02  0.7546771E-02  0.1521927E+00
          2   -1    0    0  502    0  0.00000000000E+00  0.00000000000E+00  0.22456657748E+03  0.22456657748E+03  0.00000000000E+00 0. -1.
         -2   -1    0    0    0  501 -0.00000000000E+00 -0.00000000000E+00 -0.19433029137E+01  0.19433029137E+01  0.00000000000E+00 0.  1.
          1    1    1    2  502    0 -0.19187516165E+02  0.80678688153E+01  0.12093312172E+03  0.12271133286E+03  0.00000000000E+00 0.  1.
         -1    1    1    2    0  501  0.19187516165E+02 -0.80678688153E+01  0.10169015285E+03  0.10379854753E+03  0.00000000000E+00 0. -1.
</event>
<event>
 4    1  0.6888348E+001  0.2734925E+02  0.7546771E-02  0.1444131E+00
          2   -1    0    0  502    0  0.00000000000E+00  0.00000000000E+00  0.33427450597E+01  0.33427450597E+01  0.00000000000E+00 0.  1.
         -2   -1    0    0    0  501 -0.00000000000E+00 -0.00000000000E+00 -0.25843913129E+03  0.25843913129E+03  0.00000000000E+00 0. -1.
          1    1    1    2  502    0 -0.20105368957E+02  0.18540640886E+02 -0.17549375984E+03  0.17761205187E+03  0.00000000000E+00 0. -1.
         -1    1    1    2    0  501  0.20105368957E+02 -0.18540640886E+02 -0.79602626392E+02  0.84169824485E+02  0.00000000000E+00 0.  1.
</event>
<event>
 4    1  0.6888348E+001  0.2154738E+02  0.7546771E-02  0.1511591E+00
          2   -1    0    0  502    0  0.00000000000E+00  0.00000000000E+00  0.79245032427E+03  0.79245032427E+03  0.00000000000E+00 0.  1.
         -2   -1    0    0    0  501 -0.00000000000E+00 -0.00000000000E+00 -0.97476351333E+00  0.97476351333E+00  0.00000000000E+00 0. -1.
          1    1    1    2  502    0 -0.21479931627E+02  0.17035370477E+01  0.64630827622E+03  0.64666736226E+03  0.00000000000E+00 0.  1.
         -1    1    1    2    0  501  0.21479931627E+02 -0.17035370477E+01  0.14516728454E+03  0.14675772553E+03  0.00000000000E+00 0. -1.
</event>
<event>
 4    1  0.6888348E+001  0.1033120E+03  0.7546771E-02  0.1158189E+00
          2   -1    0    0  502    0  0.00000000000E+00  0.00000000000E+00  0.25163079483E+04  0.25163079483E+04  0.00000000000E+00 0. -1.
         -2   -1    0    0    0  501 -0.00000000000E+00 -0.00000000000E+00 -0.46298753360E+01  0.46298753360E+01  0.00000000000E+00 0.  1.
          1    1    1    2  502    0  0.45779642165E+01  0.10321052761E+03  0.16208224808E+04  0.16241117219E+04  0.00000000000E+00 0. -1.
         -1    1    1    2    0  501 -0.45779642165E+01 -0.10321052761E+03  0.89085559211E+03  0.89682610174E+03  0.00000000000E+00 0.  1.
</event>
<event>
 4    1  0.6888348E+001  0.2317778E+02  0.7546771E-02  0.1490278E+00
          2   -1    0    0  502    0  0.00000000000E+00  0.00000000000E+00  0.28546516625E+03  0.28546516625E+03  0.00000000000E+00 0. -1.
         -2   -1    0    0    0  501 -0.00000000000E+00 -0.00000000000E+00 -0.19296476752E+01  0.19296476752E+01  0.00000000000E+00 0.  1.
          1    1    1    2  502    0 -0.90527150197E+01 -0.21336766880E+02  0.11915739821E+03  0.12139067022E+03  0.00000000000E+00 0.  1.
         -1    1    1    2    0  501  0.90527150197E+01  0.21336766880E+02  0.16437812036E+03  0.16600414370E+03  0.00000000000E+00 0. -1.
</event>
<event>
 4    1  0.6888348E+001  0.2617929E+02  0.7546771E-02  0.1456031E+00
          2   -1    0    0  502    0  0.00000000000E+00  0.00000000000E+00  0.31735849662E+03  0.31735849662E+03  0.00000000000E+00 0.  1.
         -2   -1    0    0    0  501 -0.00000000000E+00 -0.00000000000E+00 -0.53895026925E+01  0.53895026925E+01  0.00000000000E+00 0. -1.
          1    1    1    2  502    0  0.14780168301E+02 -0.21607906905E+02  0.28091156896E+03  0.28212880851E+03  0.00000000000E+00 0.  1.
         -1    1    1    2    0  501 -0.14780168301E+02  0.21607906905E+02  0.31057424966E+02  0.40619190801E+02  0.00000000000E+00 0. -1.
</event>
<event>
 4    1  0.6888348E+001  0.2206112E+02  0.7546771E-02  0.1504637E+00
          2   -1    0    0  502    0  0.00000000000E+00  0.00000000000E+00  0.10719460203E+03  0.10719460203E+03  0.00000000000E+00 0. -1.
         -2   -1    0    0    0  501 -0.00000000000E+00 -0.00000000000E+00 -0.11481407668E+02  0.11481407668E+02  0.00000000000E+00 0.  1.
          1    1    1    2  502    0 -0.19469951630E+02 -0.10373722654E+02  0.93993718638E+02  0.96547979169E+02  0.00000000000E+00 0. -1.
         -1    1    1    2    0  501  0.19469951630E+02  0.10373722654E+02  0.17194757206E+01  0.22128030525E+02  0.00000000000E+00 0.  1.
</event>
<event>
 4    1  0.6888348E+001  0.2347282E+02  0.7546771E-02  0.1486645E+00
          2   -1    0    0  502    0  0.00000000000E+00  0.00000000000E+00  0.12922911489E+04  0.12922911489E+04  0.00000000000E+00 0. -1.
         -2   -1    0    0    0  501 -0.00000000000E+00 -0.00000000000E+00 -0.42764946713E+00  0.42764946713E+00  0.00000000000E+00 0.  1.
          1    1    1    2  502    0 -0.16941642437E+02  0.16246664209E+02  0.68150825522E+03  0.68191236627E+03  0.00000000000E+00 0. -1.
         -1    1    1    2    0  501  0.16941642437E+02 -0.16246664209E+02  0.61035524423E+03  0.61080643210E+03  0.00000000000E+00 0.  1.
</event>
<event>
 4    1  0.6888348E+001  0.2120462E+02  0.7546771E-02  0.1516363E+00
          2   -1    0    0  502    0  0.00000000000E+00  0.00000000000E+00  0.34283701583E+03  0.34283701583E+03  0.00000000000E+00 0. -1.
         -2   -1    0    0    0  501 -0.00000000000E+00 -0.00000000000E+00 -0.14906088637E+01  0.14906088637E+01  0.00000000000E+00 0.  1.
          1    1    1    2  502    0  0.12308342765E+02 -0.17266751726E+02  0.11099717377E+03  0.11300446275E+03  0.00000000000E+00 0.  1.
         -1    1    1    2    0  501 -0.12308342765E+02  0.17266751726E+02  0.23034923320E+03  0.23132316195E+03  0.00000000000E+00 0. -1.
</event>
<event>
 4    1  0.6888348E+001  0.2277046E+02  0.7546771E-02  0.1495401E+00
          2   -1    0    0  502    0  0.00000000000E+00  0.00000000000E+00  0.19908459336E+02  0.19908459336E+02  0.00000000000E+00 0. -1.
         -2   -1    0    0    0  501 -0.00000000000E+00 -0.00000000000E+00 -0.65063532728E+02  0.65063532728E+02  0.00000000000E+00 0.  1.
          1    1    1    2  502    0 -0.12353724324E+02 -0.19127978333E+02 -0.55479251595E+02  0.59970337812E+02  0.00000000000E+00 0.  1.
         -1    1    1    2    0  501  0.12353724324E+02  0.19127978333E+02  0.10324178203E+02  0.25001654252E+02  0.00000000000E+00 0. -1.
</event>
<event>
 4    1  0.6888348E+001  0.2769091E+02  0.7546771E-02  0.1440789E+00
          2   -1    0    0  502    0  0.00000000000E+00  0.00000000000E+00  0.16922814574E+04  0.16922814574E+04  0.00000000000E+00 0. -1.
         -2   -1    0    0    0  501 -0.00000000000E+00 -0.00000000000E+00 -0.50194754419E+00  0.50194754419E+00  0.00000000000E+00 0.  1.
          1    1    1    2  502    0  0.15455340309E+02 -0.22976492785E+02  0.11099036124E+04  0.11102489881E+04  0.00000000000E+00 0. -1.
         -1    1    1    2    0  501 -0.15455340309E+02  0.22976492785E+02  0.58187589748E+03  0.58253441687E+03  0.00000000000E+00 0.  1.
</event>
<event>
 4    1  0.6888348E+001  0.2339656E+02  0.7546771E-02  0.1487578E+00
          2   -1    0    0  502    0  0.00000000000E+00  0.00000000000E+00  0.52995139148E+01  0.52995139148E+01  0.00000000000E+00 0. -1.
         -2   -1    0    0    0  501 -0.00000000000E+00 -0.00000000000E+00 -0.15919635496E+03  0.15919635496E+03  0.00000000000E+00 0.  1.
          1    1    1    2  502    0 -0.23394990472E+02 -0.27117973550E+00 -0.12568779995E+03  0.12784687002E+03  0.00000000000E+00 0.  1.
         -1    1    1    2    0  501  0.23394990472E+02  0.27117973550E+00 -0.28209041101E+02  0.36648998860E+02  0.00000000000E+00 0. -1.
</event>
<event>
 4    1  0.6888348E+001  0.2264428E+02  0.7546771E-02  0.1497014E+00
          2   -1    0    0  502    0  0.00000000000E+00  0.00000000000E+00  0.38808982694E+02  0.38808982694E+02  0.00000000000E+00 0.  1.
         -2   -1    0    0    0  501 -0.00000000000E+00 -0.00000000000E+00 -0.13591933401E+02  0.13591933401E+02  0.00000000000E+00 0. -1.
          1    1    1    2  502    0  0.22432501778E+02  0.30897020151E+01  0.82308819622E+01  0.24093791989E+02  0.00000000000E+00 0. -1.
         -1    1    1    2    0  501 -0.22432501778E+02 -0.30897020151E+01  0.16986167330E+02  0.28307124105E+02  0.00000000000E+00 0.  1.
</event>
<event>
 4    1  0.6888348E+001  0.7501735E+02  0.7546771E-02  0.1215913E+00
          2   -1    0    0  502    0  0.00000000000E+00  0.00000000000E+00  0.15262520347E+03  0.15262520347E+03  0.00000000000E+00 0.  1.
         -2   -1    0    0    0  501 -0.00000000000E+00 -0.00000000000E+00 -0.63644067399E+02  0.63644067399E+02  0.00000000000E+00 0. -1.
          1    1    1    2  502    0  0.74897304127E+02  0.42422422060E+01 -0.25643087812E+02  0.79279068719E+02  0.00000000000E+00 0. -1.
         -1    1    1    2    0  501 -0.74897304127E+02 -0.42422422060E+01  0.11462422388E+03  0.13699020215E+03  0.00000000000E+00 0.  1.
</event>
<event>
 4    1  0.6888348E+001  0.2089199E+02  0.7546771E-02  0.1520813E+00
          2   -1    0    0  502    0  0.00000000000E+00  0.00000000000E+00  0.20273494239E+03  0.20273494239E+03  0.00000000000E+00 0. -1.
         -2   -1    0    0    0  501 -0.00000000000E+00 -0.00000000000E+00 -0.21574218508E+01  0.21574218508E+01  0.00000000000E+00 0.  1.
          1    1    1    2  502    0  0.35755858673E+01 -0.20583741231E+02  0.10496055486E+03  0.10701959303E+03  0.00000000000E+00 0.  1.
         -1    1    1    2    0  501 -0.35755858673E+01  0.20583741231E+02  0.95616965685E+02  0.97872771209E+02  0.00000000000E+00 0. -1.
</event>
<event>
 4    1  0.6888348E+001  0.2286220E+02  0.7546771E-02  0.1494236E+00
          2   -1    0    0  502    0  0.00000000000E+00  0.00000000000E+00  0.26380648766E+04  0.26380648766E+04  0.00000000000E+00 0. -1.
         -2   -1    0    0    0  501 -0.00000000000E+00 -0.00000000000E+00 -0.19819818662E+00  0.19819818662E+00  0.00000000000E+00 0.  1.
          1    1    1    2  502    0 -0.49425707294E+01  0.22321540450E+02  0.13433749177E+04  0.13435694435E+04  0.00000000000E+00 0. -1.
         -1    1    1    2    0  501  0.49425707294E+01 -0.22321540450E+02  0.12944917608E+04  0.12946936313E+04  0.00000000000E+00 0.  1.
</event>
<event>
 4    1  0.6888348E+001  0.2086634E+02  0.7546771E-02  0.1521182E+00
          2   -1    0    0  502    0  0.00000000000E+00  0.00000000000E+00  0.83815157523E+01  0.83815157523E+01  0.00000000000E+00 0. -1.
         -2   -1    0    0    0  501 -0.00000000000E+00 -0.00000000000E+00 -0.87078989042E+02  0.87078989042E+02  0.00000000000E+00 0.  1.
          1    1    1    2  502    0 -0.20187377615E+02  0.52795740807E+01 -0.90320739730E+01  0.22737248683E+02  0.00000000000E+00 0. -1.
         -1    1    1    2    0  501  0.20187377615E+02 -0.52795740807E+01 -0.69665399317E+02  0.72723256111E+02  0.00000000000E+00 0.  1.
</event>
<event>
 4    1  0.6888348E+001  0.3001174E+02  0.7546771E-02  0.1419495E+00
          2   -1    0    0  502    0  0.00000000000E+00  0.00000000000E+00  0.40519122492E+03  0.40519122492E+03  0.00000000000E+00 0. -1.
         -2   -1    0    0    0  501 -0.00000000000E+00 -0.00000000000E+00 -0.31048892398E+01  0.31048892398E+01  0.00000000000E+00 0.  1.
          1    1    1    2  502    0 -0.28130432929E+02  0.10458643758E+02  0.30984866898E+03  0.31129873458E+03  0.00000000000E+00 0. -1.
         -1    1    1    2    0  501  0.28130432929E+02 -0.10458643758E+02  0.92237666707E+02  0.96997379581E+02  0.00000000000E+00 0.  1.
</event>
<event>
 4    1  0.6888348E+001  0.2240945E+02  0.7546771E-02  0.1500050E+00
          2   -1    0    0  502    0  0.00000000000E+00  0.00000000000E+00  0.12481741714E+03  0.12481741714E+03  0.00000000000E+00 0.  1.
         -2   -1    0    0    0  501 -0.00000000000E+00 -0.00000000000E+00 -0.40299085205E+01  0.40299085205E+01  0.00000000000E+00 0. -1.
          1    1    1    2  502    0 -0.22074437184E+02 -0.38603778845E+01  0.57793421158E+02  0.61985988930E+02  0.00000000000E+00 0. -1.
         -1    1    1    2    0  501  0.22074437184E+02  0.38603778845E+01  0.62994087463E+02  0.66861336733E+02  0.00000000000E+00 0.  1.
</event>
<event>
 4    1  0.6888348E+001  0.2257341E+02  0.7546771E-02  0.1497926E+00
          2   -1    0    0  502    0  0.00000000000E+00  0.00000000000E+00  0.98577136545E+00  0.98577136545E+00  0.00000000000E+00 0.  1.
         -2   -1    0    0    0  501 -0.00000000000E+00 -0.00000000000E+00 -0.52643697792E+03  0.52643697792E+03  0.00000000000E+00 0. -1.
          1    1    1    2  502    0 -0.15780632729E+02  0.16140951639E+02 -0.29819466510E+03  0.29904785066E+03  0.00000000000E+00 0. -1.
         -1    1    1    2    0  501  0.15780632729E+02 -0.16140951639E+02 -0.22725654146E+03  0.22837489863E+03  0.00000000000E+00 0.  1.
</event>
<event>
 4    1  0.6888348E+001  0.2365485E+02  0.7546771E-02  0.1484435E+00
          2   -1    0    0  502    0  0.00000000000E+00  0.00000000000E+00  0.83091946168E+02  0.83091946168E+02  0.00000000000E+00 0. -1.
         -2   -1    0    0    0  501 -0.00000000000E+00 -0.00000000000E+00 -0.11903451114E+02  0.11903451114E+02  0.00000000000E+00 0.  1.
          1    1    1    2  502    0  0.12348869527E+02  0.20175658343E+02  0.42936248247E+01  0.24041359826E+02  0.00000000000E+00 0.  1.
         -1    1    1    2    0  501 -0.12348869527E+02 -0.20175658343E+02  0.66894870230E+02  0.70954037456E+02  0.00000000000E+00 0. -1.
</event>
<event>
 4    1  0.6888348E+001  0.2126442E+02  0.7546771E-02  0.1515523E+00
          2   -1    0    0  502    0  0.00000000000E+00  0.00000000000E+00  0.61146202896E+03  0.61146202896E+03  0.00000000000E+00 0. -1.
         -2   -1    0    0    0  501 -0.00000000000E+00 -0.00000000000E+00 -0.11963094948E+01  0.11963094948E+01  0.00000000000E+00 0.  1.
          1    1    1    2  502    0 -0.13020306536E+02 -0.16812111332E+02  0.49442591635E+03  0.49488297832E+03  0.00000000000E+00 0. -1.
         -1    1    1    2    0  501  0.13020306536E+02  0.16812111332E+02  0.11583980312E+03  0.11777536014E+03  0.00000000000E+00 0.  1.
</event>
<event>
 4    1  0.6888348E+001  0.2819672E+02  0.7546771E-02  0.1435944E+00
          2   -1    0    0  502    0  0.00000000000E+00  0.00000000000E+00  0.70512816961E+03  0.70512816961E+03  0.00000000000E+00 0.  1.
         -2   -1    0    0    0  501 -0.00000000000E+00 -0.00000000000E+00 -0.12088382159E+01  0.12088382159E+01  0.00000000000E+00 0. -1.
          1    1    1    2  502    0 -0.80206435982E+01 -0.27031910180E+02  0.26036745294E+03  0.26188979637E+03  0.00000000000E+00 0. -1.
         -1    1    1    2    0  501  0.80206435982E+01  0.27031910180E+02  0.44355187845E+03  0.44444721146E+03  0.00000000000E+00 0.  1.
</event>
<event>
 4    1  0.6888348E+001  0.2073691E+02  0.7546771E-02  0.1523055E+00
          2   -1    0    0  502    0  0.00000000000E+00  0.00000000000E+00  0.41425582812E+01  0.41425582812E+01  0.00000000000E+00 0. -1.
         -2   -1    0    0    0  501 -0.00000000000E+00 -0.00000000000E+00 -0.12687592036E+03  0.12687592036E+03  0.00000000000E+00 0.  1.
          1    1    1    2  502    0 -0.51049789224E+01  0.20098717056E+02 -0.89301328764E+02  0.91677404829E+02  0.00000000000E+00 0. -1.
         -1    1    1    2    0  501  0.51049789224E+01 -0.20098717056E+02 -0.33432033310E+02  0.39341073807E+02  0.00000000000E+00 0.  1.
</event>
<event>
 4    1  0.6888348E+001  0.3812594E+02  0.7546771E-02  0.1359832E+00
          2   -1    0    0  502    0  0.00000000000E+00  0.00000000000E+00  0.29790946472E+03  0.29790946472E+03  0.00000000000E+00 0. -1.
         -2   -1    0    0    0  501 -0.00000000000E+00 -0.00000000000E+00 -0.49013496175E+01  0.49013496175E+01  0.00000000000E+00 0.  1.
          1    1    1    2  502    0  0.35786642872E+02  0.13149275213E+02  0.13634710210E+03  0.14157725628E+03  0.00000000000E+00 0. -1.
         -1    1    1    2    0  501 -0.35786642872E+02 -0.13149275213E+02  0.15666101300E+03  0.16123355805E+03  0.00000000000E+00 0.  1.
</event>
<event>
 4    1  0.6888348E+001  0.2988389E+02  0.7546771E-02  0.1420608E+00
          2   -1    0    0  502    0  0.00000000000E+00  0.00000000000E+00  0.33959387957E+01  0.33959387957E+01  0.00000000000E+00 0. -1.
         -2   -1    0    0    0  501 -0.00000000000E+00 -0.00000000000E+00 -0.27464285557E+03  0.27464285557E+03  0.00000000000E+00 0.  1.
          1    1    1    2  502    0  0.17409769312E+02  0.24288820298E+02 -0.16427761099E+03  0.16697359172E+03  0.00000000000E+00 0.  1.
         -1    1    1    2    0  501 -0.17409769312E+02 -0.24288820298E+02 -0.10696930579E+03  0.11106520265E+03  0.00000000000E+00 0. -1.
</event>
<event>
 4    1  0.6888348E+001  0.2628467E+02  0.7546771E-02  0.1454929E+00
          2   -1    0    0  502    0  0.00000000000E+00  0.00000000000E+00  0.49783386997E+03  0.49783386997E+03  0.00000000000E+00 0. -1.
         -2   -1    0    0    0  501 -0.00000000000E+00 -0.00000000000E+00 -0.28013769213E+01  0.28013769213E+01  0.00000000000E+00 0.  1.
          1    1    1    2  502    0 -0.26173130934E+02 -0.24188869785E+01  0.69701212562E+02  0.74492568957E+02  0.00000000000E+00 0.  1.
         -1    1    1    2    0  501  0.26173130934E+02  0.24188869785E+01  0.42533128049E+03  0.42614267794E+03  0.00000000000E+00 0. -1.
</event>
<event>
 4    1  0.6888348E+001  0.3236745E+02  0.7546771E-02  0.1400080E+00
          2   -1    0    0  502    0  0.00000000000E+00  0.00000000000E+00  0.19143418938E+04  0.19143418938E+04  0.00000000000E+00 0.  1.
         -2   -1    0    0    0  501 -0.00000000000E+00 -0.00000000000E+00 -0.59087714089E+00  0.59087714089E+00  0.00000000000E+00 0. -1.
          1    1    1    2  502    0 -0.18294909330E+02  0.26701088084E+02  0.69675178842E+03  0.69750319460E+03  0.00000000000E+00 0. -1.
         -1    1    1    2    0  501  0.18294909330E+02 -0.26701088084E+02  0.12169992282E+04  0.12174295763E+04  0.00000000000E+00 0.  1.
</event>
<event>
 4    1  0.6888348E+001  0.2051740E+02  0.7546771E-02  0.1526268E+00
          2   -1    0    0  502    0  0.00000000000E+00  0.00000000000E+00  0.19392407112E+03  0.19392407112E+03  0.00000000000E+00 0. -1.
         -2   -1    0    0    0  501 -0.00000000000E+00 -0.00000000000E+00 -0.21751347989E+01  0.21751347989E+01  0.00000000000E+00 0.  1.
          1    1    1    2  502    0 -0.10306527397E+02  0.17740890891E+02  0.10026887314E+03  0.10234652235E+03  0.00000000000E+00 0.  1.
         -1    1    1    2    0  501  0.10306527397E+02 -0.17740890891E+02  0.91480063188E+02  0.93752683575E+02  0.00000000000E+00 0. -1.
</event>
<event>
 4    1  0.6888348E+001  0.4877611E+02  0.7546771E-02  0.1303568E+00
          2   -1    0    0  502    0  0.00000000000E+00  0.00000000000E+00  0.23624247768E+03  0.23624247768E+03  0.00000000000E+00 0.  1.
         -2   -1    0    0    0  501 -0.00000000000E+00 -0.00000000000E+00 -0.10082570352E+02  0.10082570352E+02  0.00000000000E+00 0. -1.
          1    1    1    2  502    0  0.43023771513E+02 -0.22979633491E+02  0.11731993605E+03  0.12705540471E+03  0.00000000000E+00 0.  1.
         -1    1    1    2    0  501 -0.43023771513E+02  0.22979633491E+02  0.10883997127E+03  0.11926964332E+03  0.00000000000E+00 0. -1.
</event>
<event>
 4    1  0.6888348E+001  0.2149398E+02  0.7546771E-02  0.1512328E+00
          2   -1    0    0  502    0  0.00000000000E+00  0.00000000000E+00  0.53607304171E+03  0.53607304171E+03  0.00000000000E+00 0. -1.
         -2   -1    0    0    0  501 -0.00000000000E+00 -0.00000000000E+00 -0.86997191905E+00  0.86997191905E+00  0.00000000000E+00 0.  1.
          1    1    1    2  502    0 -0.21472038099E+02  0.97092948160E+00  0.24159154632E+03  0.24254580264E+03  0.00000000000E+00 0.  1.
         -1    1    1    2    0  501  0.21472038099E+02 -0.97092948160E+00  0.29361152348E+03  0.29439721100E+03  0.00000000000E+00 0. -1.
</event>
<event>
 4    1  0.6888348E+001  0.2715706E+02  0.7546771E-02  0.1446037E+00
          2   -1    0    0  502    0  0.00000000000E+00  0.00000000000E+00  0.39886214501E+01  0.39886214501E+01  0.00000000000E+00 0.  1.
         -2   -1    0    0    0  501 -0.00000000000E+00 -0.00000000000E+00 -0.18724046319E+03  0.18724046319E+03  0.00000000000E+00 0. -1.
          1    1    1    2  502    0  0.27040659962E+02 -0.25116848836E+01 -0.10231027276E+03  0.10585318967E+03  0.00000000000E+00 0. -1.
         -1    1    1    2    0  501 -0.27040659962E+02  0.25116848836E+01 -0.80941568981E+02  0.85375894966E+02  0.00000000000E+00 0.  1.
</event>
<event>
 4    1  0.6888348E+001  0.2409934E+02  0.7546771E-02  0.1479137E+00
          2   -1    0    0  502    0  0.00000000000E+00  0.00000000000E+00  0.76946169632E+02  0.76946169632E+02  0.00000000000E+00 0.  1.
         -2   -1    0    0    0  501 -0.00000000000E+00 -0.00000000000E+00 -0.90834148805E+01  0.90834148805E+01  0.00000000000E+00 0. -1.
          1    1    1    2  502    0  0.77927948767E+01  0.22804616465E+02  0.51617281674E+02  0.56965971874E+02  0.00000000000E+00 0.  1.
         -1    1    1    2    0  501 -0.77927948767E+01 -0.22804616465E+02  0.16245473078E+02  0.29063612639E+02  0.00000000000E+00 0. -1.
</event>
<event>
 4    1  0.6888348E+001  0.2049849E+02  0.7546771E-02  0.1526547E+00
          2   -1    0    0  502    0  0.00000000000E+00  0.00000000000E+00  0.79480191351E+03  0.79480191351E+03  0.00000000000E+00 0. -1.
         -2   -1    0    0    0  501 -0.00000000000E+00 -0.00000000000E+00 -0.78788965581E+00  0.78788965581E+00  0.00000000000E+00 0.  1.
          1    1    1    2  502    0 -0.20323270831E+02 -0.26744967861E+01  0.62517783912E+03  0.62551380384E+03  0.00000000000E+00 0. -1.
         -1    1    1    2    0  501  0.20323270831E+02  0.26744967861E+01  0.16883618473E+03  0.17007599932E+03  0.00000000000E+00 0.  1.
</event>
<event>
 4    1  0.6888348E+001  0.3005210E+02  0.7546771E-02  0.1419144E+00
          2   -1    0    0  502    0  0.00000000000E+00  0.00000000000E+00  0.11893591877E+04  0.11893591877E+04  0.00000000000E+00 0.  1.
         -2   -1    0    0    0  501 -0.00000000000E+00 -0.00000000000E+00 -0.98268111447E+00  0.98268111447E+00  0.00000000000E+00 0. -1.
          1    1    1    2  502    0  0.19706790984E+02  0.22688573574E+02  0.87792719900E+03  0.87844140142E+03  0.00000000000E+00 0.  1.
         -1    1    1    2    0  501 -0.19706790984E+02 -0.22688573574E+02  0.31044930759E+03  0.31190046741E+03  0.00000000000E+00 0. -1.
</event>
<event>
 4    1  0.6888348E+001  0.2386954E+02  0.7546771E-02  0.1481859E+00
          2   -1    0    0  502    0  0.00000000000E+00  0.00000000000E+00  0.12640387596E+04  0.12640387596E+04  0.00000000000E+00 0.  1.
         -2   -1    0    0    0  501 -0.00000000000E+00 -0.00000000000E+00 -0.58045408753E+00  0.58045408753E+00  0.00000000000E+00 0. -1.
          1    1    1    2  502    0  0.18748025484E+02  0.14773844438E+02  0.93063652271E+03  0.93094258273E+03  0.00000000000E+00 0.  1.
         -1    1    1    2    0  501 -0.18748025484E+02 -0.14773844438E+02  0.33282178276E+03  0.33367663091E+03  0.00000000000E+00 0. -1.
</event>
<event>
 4    1  0.6888348E+001  0.2119197E+02  0.7546771E-02  0.1516542E+00
          2   -1    0    0  502    0  0.00000000000E+00  0.00000000000E+00  0.33228934274E+02  0.33228934274E+02  0.00000000000E+00 0. -1.
         -2   -1    0    0    0  501 -0.00000000000E+00 -0.00000000000E+00 -0.15823104635E+02  0.15823104635E+02  0.00000000000E+00 0.  1.
          1    1    1    2  502    0 -0.17739805124E+01  0.21117590723E+02 -0.66362010719E+00  0.21202359218E+02  0.00000000000E+00 0. -1.
         -1    1    1    2    0  501  0.17739805124E+01 -0.21117590723E+02  0.18069449746E+02  0.27849679691E+02  0.00000000000E+00 0.  1.
</event>
<event>
 4    1  0.6888348E+001  0.2266666E+02  0.7546771E-02  0.1496727E+00
          2   -1    0    0  502    0  0.00000000000E+00  0.00000000000E+00  0.12756737129E+03  0.12756737129E+03  0.00000000000E+00 0.  1.
         -2   -1    0    0    0  501 -0.00000000000E+00 -0.00000000000E+00 -0.54921125793E+01  0.54921125793E+01  0.00000000000E+00 0. -1.
          1    1    1    2  502    0 -0.15623391452E+02  0.16422147617E+02  0.95394044844E+02  0.98049992782E+02  0.00000000000E+00 0.  1.
         -1    1    1    2    0  501  0.15623391452E+02 -0.16422147617E+02  0.26681213869E+02  0.35009491090E+02  0.00000000000E+00 0. -1.
</event>
<event>
 4    1  0.6888348E+001  0.3161847E+02  0.7546771E-02  0.1406035E+00
          2   -1    0    0  502    0  0.00000000000E+00  0.00000000000E+00  0.17658965649E+03  0.17658965649E+03  0.00000000000E+00 0. -1.
         -2   -1    0    0    0  501 -0.00000000000E+00 -0.00000000000E+00 -0.70075194893E+01  0.70075194893E+01  0.00000000000E+00 0.  1.
          1    1    1    2  502    0  0.29602283127E+02  0.11110006104E+02  0.44555380310E+02  0.54634323612E+02  0.00000000000E+00 0.  1.
         -1    1    1    2    0  501 -0.29602283127E+02 -0.11110006104E+02  0.12502675669E+03  0.12896285236E+03  0.00000000000E+00 0. -1.
</event>
<event>
 4    1  0.6888348E+001  0.2112869E+02  0.7546771E-02  0.1517435E+00
          2   -1    0    0  502    0  0.00000000000E+00  0.00000000000E+00  0.36037695999E+02  0.36037695999E+02  0.00000000000E+00 0.  1.
         -2   -1    0    0    0  501 -0.00000000000E+00 -0.00000000000E+00 -0.25938986956E+02  0.25938986956E+02  0.00000000000E+00 0. -1.
          1    1    1    2  502    0 -0.11066850283E+02 -0.17998515847E+02  0.27447557401E+02  0.34637987170E+02  0.00000000000E+00 0.  1.
         -1    1    1    2    0  501  0.11066850283E+02  0.17998515847E+02 -0.17348848358E+02  0.27338695785E+02  0.00000000000E+00 0. -1.
</event>
<event>
 4    1  0.6888348E+001  0.2450888E+02  0.7546771E-02  0.1474373E+00
          2   -1    0    0  502    0  0.00000000000E+00  0.00000000000E+00  0.19789910621E+03  0.19789910621E+03  0.00000000000E+00 0.  1.
         -2   -1    0    0    0  501 -0.00000000000E+00 -0.00000000000E+00 -0.36255283441E+01  0.36255283441E+01  0.00000000000E+00 0. -1.
          1    1    1    2  502    0 -0.19708697202E+02  0.14568888300E+02  0.56481352180E+02  0.61569703554E+02  0.00000000000E+00 0. -1.
         -1    1    1    2    0  501  0.19708697202E+02 -0.14568888300E+02  0.13779222569E+03  0.13995493100E+03  0.00000000000E+00 0.  1.
</event>
<event>
 4    1  0.6888348E+001  0.2041915E+02  0.7546771E-02  0.1527722E+00
          2   -1    0    0  502    0  0.00000000000E+00  0.00000000000E+00  0.75140325680E+01  0.75140325680E+01  0.00000000000E+00 0. -1.
         -2   -1    0    0    0  501 -0.00000000000E+00 -0.00000000000E+00 -0.55732522816E+02  0.55732522816E+02  0.00000000000E+00 0.  1.
          1    1    1    2  502    0  0.78088541320E+01 -0.18866990919E+02 -0.22016250920E+02  0.30027601532E+02  0.00000000000E+00 0.  1.
         -1    1    1    2    0  501 -0.78088541320E+01  0.18866990919E+02 -0.26202239328E+02  0.33218953852E+02  0.00000000000E+00 0. -1.
</event>
<event>
 4    1  0.6888348E+001  0.2367899E+02  0.7546771E-02  0.1484144E+00
          2   -1    0    0  502    0  0.00000000000E+00  0.00000000000E+00  0.54581697055E+03  0.54581697055E+03  0.00000000000E+00 0.  1.
         -2   -1    0    0    0  501 -0.00000000000E+00 -0.00000000000E+00 -0.17726447238E+01  0.17726447238E+01  0.00000000000E+00 0. -1.
          1    1    1    2  502    0 -0.47576899574E+01  0.23196101380E+02  0.94478471477E+02  0.97400597049E+02  0.00000000000E+00 0. -1.
         -1    1    1    2    0  501  0.47576899574E+01 -0.23196101380E+02  0.44956585435E+03  0.45018901823E+03  0.00000000000E+00 0.  1.
</event>
<event>
 4    1  0.6888348E+001  0.3543308E+02  0.7546771E-02  0.1377544E+00
          2   -1    0    0  502    0  0.00000000000E+00  0.00000000000E+00  0.49773103209E+02  0.49773103209E+02  0.00000000000E+00 0. -1.
         -2   -1    0    0    0  501 -0.00000000000E+00 -0.00000000000E+00 -0.58580699173E+02  0.58580699173E+02  0.00000000000E+00 0.  1.
          1    1    1    2  502    0 -0.32990404850E+02 -0.12928112639E+02  0.36477530365E+02  0.50853840859E+02  0.00000000000E+00 0. -1.
         -1    1    1    2    0  501  0.32990404850E+02  0.12928112639E+02 -0.45285126329E+02  0.57499961524E+02  0.00000000000E+00 0.  1.
</event>
<event>
 4    1  0.6888348E+001  0.3370708E+02  0.7546771E-02  0.1389888E+00
          2   -1    0    0  502    0  0.00000000000E+00  0.00000000000E+00  0.44001253282E+01  0.44001253282E+01  0.00000000000E+00 0. -1.
         -2   -1    0    0    0  501 -0.00000000000E+00 -0.00000000000E+00 -0.52987136291E+03  0.52987136291E+03  0.00000000000E+00 0.  1.
          1    1    1    2  502    0  0.22579014720E+02  0.25027090080E+02 -0.45401085954E+03  0.45526039551E+03  0.00000000000E+00 0.  1.
         -1    1    1    2    0  501 -0.22579014720E+02 -0.25027090080E+02 -0.71460378044E+02  0.79011092726E+02  0.00000000000E+00 0. -1.
</event>
<event>
 4    1  0.6888348E+001  0.2872243E+02  0.7546771E-02  0.1431033E+00
          2   -1    0    0  502    0  0.00000000000E+00  0.00000000000E+00  0.29160398226E+02  0.29160398226E+02  0.00000000000E+00 0.  1.
         -2   -1    0    0    0  501 -0.00000000000E+00 -0.00000000000E+00 -0.36546660493E+02  0.36546660493E+02  0.00000000000E+00 0. -1.
          1    1    1    2  502    0  0.24397673146E+02  0.15156895436E+02 -0.19307811368E+02  0.34608806885E+02  0.00000000000E+00 0. -1.
         -1    1    1    2    0  501 -0.24397673146E+02 -0.15156895436E+02  0.11921549101E+02  0.31098251834E+02  0.00000000000E+00 0.  1.
</event>
<event>
 4    1  0.6888348E+001  0.2608912E+02  0.7546771E-02  0.1456979E+00
          2   -1    0    0  502    0  0.00000000000E+00  0.00000000000E+00  0.16389552429E+04  0.16389552429E+04  0.00000000000E+00 0.  1.
         -2   -1    0    0    0  501 -0.00000000000E+00 -0.00000000000E+00 -0.67054761856E+00  0.67054761856E+00  0.00000000000E+00 0. -1.
          1    1    1    2  502    0 -0.26088699751E+02 -0.14839914218E+00  0.31333049491E+03  0.31441476002E+03  0.00000000000E+00 0. -1.
         -1    1    1    2    0  501  0.26088699751E+02  0.14839914218E+00  0.13249542004E+04  0.13252110305E+04  0.00000000000E+00 0.  1.
</event>
<event>
 4    1  0.6888348E+001  0.3205728E+02  0.7546771E-02  0.1402522E+00
          2   -1    0    0  502    0  0.00000000000E+00  0.00000000000E+00  0.35405967495E+03  0.35405967495E+03  0.00000000000E+00 0.  1.
         -2   -1    0    0    0  501 -0.00000000000E+00 -0.00000000000E+00 -0.41884254971E+01  0.41884254971E+01  0.00000000000E+00 0. -1.
          1    1    1    2  502    0 -0.30577225666E+02 -0.96282223817E+01  0.27418575157E+03  0.27605342917E+03  0.00000000000E+00 0.  1.
         -1    1    1    2    0  501  0.30577225666E+02  0.96282223817E+01  0.75685497882E+02  0.82194671270E+02  0.00000000000E+00 0. -1.
</event>
<event>
 4    1  0.6888348E+001  0.2741618E+02  0.7546771E-02  0.1443472E+00
          2   -1    0    0  502    0  0.00000000000E+00  0.00000000000E+00  0.85902581727E+02  0.85902581727E+02  0.00000000000E+00 0.  1.
         -2   -1    0    0    0  501 -0.00000000000E+00 -0.00000000000E+00 -0.91518312746E+01  0.91518312746E+01  0.00000000000E+00 0. -1.
          1    1    1    2  502    0 -0.26295356797E+02  0.77589434462E+01  0.48334333511E+02  0.55568469373E+02  0.00000000000E+00 0.  1.
         -1    1    1    2    0  501  0.26295356797E+02 -0.77589434462E+01  0.28416416941E+02  0.39485943629E+02  0.00000000000E+00 0. -1.
</event>
<event>
 4    1  0.6888348E+001  0.3285406E+02  0.7546771E-02  0.1396312E+00
          2   -1    0    0  502    0  0.00000000000E+00  0.00000000000E+00  0.11447243393E+04  0.11447243393E+04  0.00000000000E+00 0.  1.
         -2   -1    0    0    0  501 -0.00000000000E+00 -0.00000000000E+00 -0.17430115418E+01  0.17430115418E+01  0.00000000000E+00 0. -1.
          1    1    1    2  502    0  0.12098683783E+02  0.30545232953E+02  0.18311679839E+03  0.18604072473E+03  0.00000000000E+00 0. -1.
         -1    1    1    2    0  501 -0.12098683783E+02 -0.30545232953E+02  0.95986452932E+03  0.96042662606E+03  0.00000000000E+00 0.  1.
</event>
<event>
 4    1  0.6888348E+001  0.3781535E+02  0.7546771E-02  0.1361786E+00
          2   -1    0    0  502    0  0.00000000000E+00  0.00000000000E+00  0.38155329512E+01  0.38155329512E+01  0.00000000000E+00 0. -1.
         -2   -1    0    0    0  501 -0.00000000000E+00 -0.00000000000E+00 -0.58415057889E+03  0.58415057889E+03  0.00000000000E+00 0.  1.
          1    1    1    2  502    0  0.37430496998E+02 -0.53812907272E+01 -0.46616792338E+03  0.46769919091E+03  0.00000000000E+00 0.  1.
         -1    1    1    2    0  501 -0.37430496998E+02  0.53812907272E+01 -0.11416712256E+03  0.12026692093E+03  0.00000000000E+00 0. -1.
</event>
<event>
 4    1  0.6888348E+001  0.2643103E+02  0.7546771E-02  0.1453409E+00
          2   -1    0    0  502    0  0.00000000000E+00  0.00000000000E+00  0.13122725345E+02  0.13122725345E+02  0.00000000000E+00 0.  1.
         -2   -1    0    0    0  501 -0.00000000000E+00 -0.00000000000E+00 -0.21361092915E+03  0.21361092915E+03  0.00000000000E+00 0. -1.
          1    1    1    2  502    0  0.12339660554E+01  0.26402207787E+02 -0.20144241597E+01  0.26507681018E+02  0.00000000000E+00 0.  1.
         -1    1    1    2    0  501 -0.12339660554E+01 -0.26402207787E+02 -0.19847377965E+03  0.20022597348E+03  0.00000000000E+00 0. -1.
</event>
<event>
 4    1  0.6888348E+001  0.2887446E+02  0.7546771E-02  0.1429636E+00
          2   -1    0    0  502    0  0.00000000000E+00  0.00000000000E+00  0.49509170062E+01  0.49509170062E+01  0.00000000000E+00 0. -1.
         -2   -1    0    0    0  501 -0.00000000000E+00 -0.00000000000E+00 -0.17027778327E+03  0.17027778327E+03  0.00000000000E+00 0.  1.
          1    1    1    2  502    0  0.22677030606E+02  0.17874188155E+02 -0.73462721388E+02  0.78933552771E+02  0.00000000000E+00 0. -1.
         -1    1    1    2    0  501 -0.22677030606E+02 -0.17874188155E+02 -0.91864144876E+02  0.96295147505E+02  0.00000000000E+00 0.  1.
</event>
<event>
 4    1  0.6888348E+001  0.2357490E+02  0.7546771E-02  0.1485403E+00
          2   -1    0    0  502    0  0.00000000000E+00  0.00000000000E+00  0.32570984896E+02  0.32570984896E+02  0.00000000000E+00 0. -1.
         -2   -1    0    0    0  501 -0.00000000000E+00 -0.00000000000E+00 -0.21406244030E+02  0.21406244030E+02  0.00000000000E+00 0.  1.
          1    1    1    2  502    0 -0.13266589337E+02  0.19487782266E+02  0.17738375101E+02  0.29502982925E+02  0.00000000000E+00 0. -1.
         -1    1    1    2    0  501  0.13266589337E+02 -0.19487782266E+02 -0.65736342352E+01  0.24474246001E+02  0.00000000000E+00 0.  1.
</event>
<event>
 4    1  0.6888348E+001  0.2314731E+02  0.7546771E-02  0.1490657E+00
          2   -1    0    0  502    0  0.00000000000E+00  0.00000000000E+00  0.23775131942E+03  0.23775131942E+03  0.00000000000E+00 0. -1.
         -2   -1    0    0    0  501 -0.00000000000E+00 -0.00000000000E+00 -0.22540040661E+01  0.22540040661E+01  0.00000000000E+00 0.  1.
          1    1    1    2  502    0 -0.23147060986E+02  0.10769150507E+00  0.11615585057E+03  0.11843977225E+03  0.00000000000E+00 0. -1.
         -1    1    1    2    0  501  0.23147060986E+02 -0.10769150507E+00  0.11934146478E+03  0.12156555123E+03  0.00000000000E+00 0.  1.
</event>
<event>
 4    1  0.6888348E+001  0.5619875E+02  0.7546771E-02  0.1273325E+00
          2   -1    0    0  502    0  0.00000000000E+00  0.00000000000E+00  0.17495702450E+03  0.17495702450E+03  0.00000000000E+00 0. -1.
         -2   -1    0    0    0  501 -0.00000000000E+00 -0.00000000000E+00 -0.21832009236E+02  0.21832009236E+02  0.00000000000E+00 0.  1.
          1    1    1    2  502    0 -0.52584502364E+02  0.19828504794E+02  0.35619608656E+02  0.66536125617E+02  0.00000000000E+00 0.  1.
         -1    1    1    2    0  501  0.52584502364E+02 -0.19828504794E+02  0.11750540660E+03  0.13025290812E+03  0.00000000000E+00 0. -1.
</event>
<event>
 4    1  0.6888348E+001  0.2070819E+02  0.7546771E-02  0.1523472E+00
          2   -1    0    0  502    0  0.00000000000E+00  0.00000000000E+00  0.21050014648E+04  0.21050014648E+04  0.00000000000E+00 0.  1.
         -2   -1    0    0    0  501 -0.00000000000E+00 -0.00000000000E+00 -0.20537613047E+00  0.20537613047E+00  0.00000000000E+00 0. -1.
          1    1    1    2  502    0  0.22234187731E+00  0.20706997761E+02  0.95785200978E+03  0.95807583303E+03  0.00000000000E+00 0.  1.
         -1    1    1    2    0  501 -0.22234187731E+00 -0.20706997761E+02  0.11469440789E+04  0.11471310079E+04  0.00000000000E+00 0. -1.
</event>
<event>
 4    1  0.6888348E+001  0.5949699E+02  0.7546771E-02  0.1261551E+00
          2   -1    0    0  502    0  0.00000000000E+00  0.00000000000E+00  0.18384822891E+04  0.18384822891E+04  0.00000000000E+00 0. -1.
         -2   -1    0    0    0  501 -0.00000000000E+00 -0.00000000000E+00 -0.21793497422E+01  0.21793497422E+01  0.00000000000E+00 0.  1.
          1    1    1    2  502    0  0.26797662493E+02  0.53120401163E+02  0.60401516025E+03  0.60693838694E+03  0.00000000000E+00 0.  1.
         -1    1    1    2    0  501 -0.26797662493E+02 -0.53120401163E+02  0.12322877791E+04  0.12337232519E+04  0.00000000000E+00 0. -1.
</event>
<event>
 4    1  0.6888348E+001  0.3338879E+02  0.7546771E-02  0.1392259E+00
          2   -1    0    0  502    0  0.00000000000E+00  0.00000000000E+00  0.10383893580E+03  0.10383893580E+03  0.00000000000E+00 0.  1.
         -2   -1    0    0    0  501 -0.00000000000E+00 -0.00000000000E+00 -0.13313409755E+02  0.13313409755E+02  0.00000000000E+00 0. -1.
          1    1    1    2  502    0  0.12403687805E+02 -0.30999349543E+02  0.19489402072E+02  0.38660676874E+02  0.00000000000E+00 0.  1.
         -1    1    1    2    0  501 -0.12403687805E+02  0.30999349543E+02  0.71036123976E+02  0.78491668684E+02  0.00000000000E+00 0. -1.
</event>
<event>
 4    1  0.6888348E+001  0.3883136E+02  0.7546771E-02  0.1355473E+00
          2   -1    0    0  502    0  0.00000000000E+00  0.00000000000E+00  0.59665503036E+03  0.59665503036E+03  0.00000000000E+00 0.  1.
         -2   -1    0    0    0  501 -0.00000000000E+00 -0.00000000000E+00 -0.34656945980E+01  0.34656945980E+01  0.00000000000E+00 0. -1.
          1    1    1    2  502    0  0.13071123194E+02 -0.36565282746E+02  0.14045025918E+03  0.14571942035E+03  0.00000000000E+00 0. -1.
         -1    1    1    2    0  501 -0.13071123194E+02  0.36565282746E+02  0.45273907658E+03  0.45440130460E+03  0.00000000000E+00 0.  1.
</event>
<event>
 4    1  0.6888348E+001  0.2382464E+02  0.7546771E-02  0.1482395E+00
          2   -1    0    0  502    0  0.00000000000E+00  0.00000000000E+00  0.18868114039E+02  0.18868114039E+02  0.00000000000E+00 0.  1.
         -2   -1    0    0    0  501 -0.00000000000E+00 -0.00000000000E+00 -0.30929122614E+02  0.30929122614E+02  0.00000000000E+00 0. -1.
          1    1    1    2  502    0  0.74214894503E+01  0.22639234461E+02 -0.19128098044E+01  0.23901302977E+02  0.00000000000E+00 0.  1.
         -1    1    1    2    0  501 -0.74214894503E+01 -0.22639234461E+02 -0.10148198770E+02  0.25895933676E+02  0.00000000000E+00 0. -1.
</event>
<event>
 4    1  0.6888348E+001  0.2240951E+02  0.7546771E-02  0.1500049E+00
          2   -1    0    0  502    0  0.00000000000E+00  0.00000000000E+00  0.85332584336E+01  0.85332584336E+01  0.00000000000E+00 0. -1.
         -2   -1    0    0    0  501 -0.00000000000E+00 -0.00000000000E+00 -0.10610406637E+03  0.10610406637E+03  0.00000000000E+00 0.  1.
          1    1    1    2  502    0 -0.20704610551E+02 -0.85735080018E+01 -0.87036831311E+02  0.89875446826E+02  0.00000000000E+00 0.  1.
         -1    1    1    2    0  501  0.20704610551E+02  0.85735080018E+01 -0.10533976628E+02  0.24761877980E+02  0.00000000000E+00 0. -1.
</event>
<event>
 4    1  0.6888348E+001  0.2005694E+02  0.7546771E-02  0.1533167E+00
          2   -1    0    0  502    0  0.00000000000E+00  0.00000000000E+00  0.17575469449E+03  0.17575469449E+03  0.00000000000E+00 0. -1.
         -2   -1    0    0    0  501 -0.00000000000E+00 -0.00000000000E+00 -0.29888855151E+01  0.29888855151E+01  0.00000000000E+00 0.  1.
          1    1    1    2  502    0  0.95593104866E+01 -0.17632368806E+02  0.43131767100E+02  0.47567112377E+02  0.00000000000E+00 0.  1.
         -1    1    1    2    0  501 -0.95593104866E+01  0.17632368806E+02  0.12963404187E+03  0.13117646763E+03  0.00000000000E+00 0. -1.
</event>
<event>
 4    1  0.6888348E+001  0.2443784E+02  0.7546771E-02  0.1475192E+00
          2   -1    0    0  502    0  0.00000000000E+00  0.00000000000E+00  0.12196822639E+02  0.12196822639E+02  0.00000000000E+00 0.  1.
         -2   -1    0    0    0  501 -0.00000000000E+00 -0.00000000000E+00 -0.87714864259E+02  0.87714864259E+02  0.00000000000E+00 0. -1.
          1    1    1    2  502    0 -0.22025460523E+02 -0.10587115804E+02 -0.45551167586E+01  0.24858741339E+02  0.00000000000E+00 0.  1.
         -1    1    1    2    0  501  0.22025460523E+02  0.10587115804E+02 -0.70962924861E+02  0.75052945560E+02  0.00000000000E+00 0. -1.
</event>
<event>
 4    1  0.6888348E+001  0.2298462E+02  0.7546771E-02  0.1492691E+00
          2   -1    0    0  502    0  0.00000000000E+00  0.00000000000E+00  0.18559931371E+02  0.18559931371E+02  0.00000000000E+00 0.  1.
         -2   -1    0    0    0  501 -0.00000000000E+00 -0.00000000000E+00 -0.46594315844E+02  0.46594315844E+02  0.00000000000E+00 0. -1.
          1    1    1    2  502    0 -0.22646250239E+02  0.39293614709E+01 -0.34338293696E+02  0.41320829437E+02  0.00000000000E+00 0.  1.
         -1    1    1    2    0  501  0.22646250239E+02 -0.39293614709E+01  0.63039092227E+01  0.23833417777E+02  0.00000000000E+00 0. -1.
</event>
<event>
 4    1  0.6888348E+001  0.2763816E+02  0.7546771E-02  0.1441301E+00
          2   -1    0    0  502    0  0.00000000000E+00  0.00000000000E+00  0.94805032895E+03  0.94805032895E+03  0.00000000000E+00 0.  1.
         -2   -1    0    0    0  501 -0.00000000000E+00 -0.00000000000E+00 -0.92412158535E+00  0.92412158535E+00  0.00000000000E+00 0. -1.
          1    1    1    2  502    0  0.80244998167E+01  0.26447593311E+02  0.64339907356E+03  0.64399241894E+03  0.00000000000E+00 0.  1.
         -1    1    1    2    0  501 -0.80244998167E+01 -0.26447593311E+02  0.30372713380E+03  0.30498203160E+03  0.00000000000E+00 0. -1.
</event>
<event>
 4    1  0.6888348E+001  0.2723219E+02  0.7546771E-02  0.1445290E+00
          2   -1    0    0  502    0  0.00000000000E+00  0.00000000000E+00  0.70694568743E+01  0.70694568743E+01  0.00000000000E+00 0. -1.
         -2   -1    0    0    0  501 -0.00000000000E+00 -0.00000000000E+00 -0.14108315663E+03  0.14108315663E+03  0.00000000000E+00 0.  1.
          1    1    1    2  502    0 -0.20831565211E+02  0.17539619280E+02 -0.29493176575E+02  0.40142743031E+02  0.00000000000E+00 0. -1.
         -1    1    1    2    0  501  0.20831565211E+02 -0.17539619280E+02 -0.10452052319E+03  0.10800987048E+03  0.00000000000E+00 0.  1.
</event>
<event>
 4    1  0.6888348E+001  0.4366272E+02  0.7546771E-02  0.1328263E+00
          2   -1    0    0  502    0  0.00000000000E+00  0.00000000000E+00  0.45572861004E+02  0.45572861004E+02  0.00000000000E+00 0. -1.
         -2   -1    0    0    0  501 -0.00000000000E+00 -0.00000000000E+00 -0.10537568346E+03  0.10537568346E+03  0.00000000000E+00 0.  1.
          1    1    1    2  502    0  0.43193237381E+02 -0.63857373992E+01 -0.88510195733E+02  0.98693911394E+02  0.00000000000E+00 0.  1.
         -1    1    1    2    0  501 -0.43193237381E+02  0.63857373992E+01  0.28707373272E+02  0.52254633075E+02  0.00000000000E+00 0. -1.
</event>
<event>
 4    1  0.6888348E+001  0.2437524E+02  0.7546771E-02  0.1475915E+00
          2   -1    0    0  502    0  0.00000000000E+00  0.00000000000E+00  0.16945426980E+04  0.16945426980E+04  0.00000000000E+00 0. -1.
         -2   -1    0    0    0  501 -0.00000000000E+00 -0.00000000000E+00 -0.35604411680E+00  0.35604411680E+00  0.00000000000E+00 0.  1.
          1    1    1    2  502    0  0.14279838679E+02 -0.19754455646E+02  0.95162516915E+03  0.95193729566E+03  0.00000000000E+00 0. -1.
         -1    1    1    2    0  501 -0.14279838679E+02  0.19754455646E+02  0.74256148475E+03  0.74296144647E+03  0.00000000000E+00 0.  1.
</event>
<event>
 4    1  0.6888348E+001  0.3284306E+02  0.7546771E-02  0.1396396E+00
          2   -1    0    0  502    0  0.00000000000E+00  0.00000000000E+00  0.72185218574E+02  0.72185218574E+02  0.00000000000E+00 0. -1.
         -2   -1    0    0    0  501 -0.00000000000E+00 -0.00000000000E+00 -0.19152640160E+02  0.19152640160E+02  0.00000000000E+00 0.  1.
          1    1    1    2  502    0  0.29293705663E+02  0.14850767409E+02  0.47926799503E+02  0.58100297716E+02  0.00000000000E+00 0. -1.
         -1    1    1    2    0  501 -0.29293705663E+02 -0.14850767409E+02  0.51057789109E+01  0.33237561018E+02  0.00000000000E+00 0.  1.
</event>
<event>
 4    1  0.6888348E+001  0.2354744E+02  0.7546771E-02  0.1485736E+00
          2   -1    0    0  502    0  0.00000000000E+00  0.00000000000E+00  0.13300579648E+01  0.13300579648E+01  0.00000000000E+00 0.  1.
         -2   -1    0    0    0  501 -0.00000000000E+00 -0.00000000000E+00 -0.41688799707E+03  0.41688799707E+03  0.00000000000E+00 0. -1.
          1    1    1    2  502    0  0.53128267074E+01 -0.22940266400E+02 -0.20828528619E+03  0.20961212368E+03  0.00000000000E+00 0. -1.
         -1    1    1    2    0  501 -0.53128267074E+01  0.22940266400E+02 -0.20727265291E+03  0.20860593135E+03  0.00000000000E+00 0.  1.
</event>
<event>
 4    1  0.6888348E+001  0.2963853E+02  0.7546771E-02  0.1422764E+00
          2   -1    0    0  502    0  0.00000000000E+00  0.00000000000E+00  0.87574974590E+00  0.87574974590E+00  0.00000000000E+00 0. -1.
         -2   -1    0    0    0  501 -0.00000000000E+00 -0.00000000000E+00 -0.10160879071E+04  0.10160879071E+04  0.00000000000E+00 0.  1.
          1    1    1    2  502    0  0.28787642703E+02  0.70508051354E+01 -0.45006134929E+03  0.45103620737E+03  0.00000000000E+00 0.  1.
         -1    1    1    2    0  501 -0.28787642703E+02 -0.70508051354E+01 -0.56515080806E+03  0.56592744948E+03  0.00000000000E+00 0. -1.
</event>
<event>
 4    1  0.6888348E+001  0.2978396E+02  0.7546771E-02  0.1421483E+00
          2   -1    0    0  502    0  0.00000000000E+00  0.00000000000E+00  0.10825381778E+02  0.10825381778E+02  0.00000000000E+00 0. -1.
         -2   -1    0    0    0  501 -0.00000000000E+00 -0.00000000000E+00 -0.88124508216E+02  0.88124508216E+02  0.00000000000E+00 0.  1.
          1    1    1    2  502    0  0.86727247169E+01 -0.28493300493E+02 -0.25548122335E+02  0.39240169238E+02  0.00000000000E+00 0. -1.
         -1    1    1    2    0  501 -0.86727247169E+01  0.28493300493E+02 -0.51751004103E+02  0.59709720756E+02  0.00000000000E+00 0.  1.
</event>
<event>
 4    1  0.6888348E+001  0.2217732E+02  0.7546771E-02  0.1503095E+00
          2   -1    0    0  502    0  0.00000000000E+00  0.00000000000E+00  0.12896279067E+04  0.12896279067E+04  0.00000000000E+00 0. -1.
         -2   -1    0    0    0  501 -0.00000000000E+00 -0.00000000000E+00 -0.48298642667E+00  0.48298642667E+00  0.00000000000E+00 0.  1.
          1    1    1    2  502    0  0.13854845558E+02 -0.17316949891E+02  0.34870437982E+03  0.34940889800E+03  0.00000000000E+00 0.  1.
         -1    1    1    2    0  501 -0.13854845558E+02  0.17316949891E+02  0.94044054044E+03  0.94070199511E+03  0.00000000000E+00 0. -1.
</event>
<event>
 4    1  0.6888348E+001  0.4541260E+02  0.7546771E-02  0.1319389E+00
          2   -1    0    0  502    0  0.00000000000E+00  0.00000000000E+00  0.44405063228E+03  0.44405063228E+03  0.00000000000E+00 0.  1.
         -2   -1    0    0    0  501 -0.00000000000E+00 -0.00000000000E+00 -0.46671382978E+01  0.46671382978E+01  0.00000000000E+00 0. -1.
          1    1    1    2  502    0 -0.40810799276E+02  0.19919412907E+02  0.23538633345E+03  0.23972699122E+03  0.00000000000E+00 0. -1.
         -1    1    1    2    0  501  0.40810799276E+02 -0.19919412907E+02  0.20399716053E+03  0.20899077935E+03  0.00000000000E+00 0.  1.
</event>
<event>
 4    1  0.6888348E+001  0.2051408E+02  0.7546771E-02  0.1526317E+00
          2   -1    0    0  502    0  0.00000000000E+00  0.00000000000E+00  0.17167083206E+04  0.17167083206E+04  0.00000000000E+00 0. -1.
         -2   -1    0    0    0  501 -0.00000000000E+00 -0.00000000000E+00 -0.26219464829E+00  0.26219464829E+00  0.00000000000E+00 0.  1.
          1    1    1    2  502    0 -0.19671687748E+02  0.58182739793E+01  0.63925096064E+03  0.63958003274E+03  0.00000000000E+00 0. -1.
         -1    1    1    2    0  501  0.19671687748E+02 -0.58182739793E+01  0.10771951654E+04  0.10773904826E+04  0.00000000000E+00 0.  1.
</event>
<event>
 4    1  0.6888348E+001  0.2792980E+02  0.7546771E-02  0.1438485E+00
          2   -1    0    0  502    0  0.00000000000E+00  0.00000000000E+00  0.13443283734E+04  0.13443283734E+04  0.00000000000E+00 0.  1.
         -2   -1    0    0    0  501 -0.00000000000E+00 -0.00000000000E+00 -0.15107578465E+01  0.15107578465E+01  0.00000000000E+00 0. -1.
          1    1    1    2  502    0 -0.53322125761E+01 -0.27416077359E+02  0.14330291193E+03  0.14599930944E+03  0.00000000000E+00 0. -1.
         -1    1    1    2    0  501  0.53322125761E+01  0.27416077359E+02  0.11995147036E+04  0.11998398218E+04  0.00000000000E+00 0.  1.
</event>
<event>
 4    1  0.6888348E+001  0.2737066E+02  0.7546771E-02  0.1443920E+00
          2   -1    0    0  502    0  0.00000000000E+00  0.00000000000E+00  0.98197019629E+03  0.98197019629E+03  0.00000000000E+00 0.  1.
         -2   -1    0    0    0  501 -0.00000000000E+00 -0.00000000000E+00 -0.20935476665E+01  0.20935476665E+01  0.00000000000E+00 0. -1.
          1    1    1    2  502    0  0.14417094016E+02 -0.23265859925E+02  0.97671070429E+02  0.10143367703E+03  0.00000000000E+00 0. -1.
         -1    1    1    2    0  501 -0.14417094016E+02  0.23265859925E+02  0.88220557819E+03  0.88263006692E+03  0.00000000000E+00 0.  1.
</event>
<event>
 4    1  0.6888348E+001  0.2488606E+02  0.7546771E-02  0.1470082E+00
          2   -1    0    0  502    0  0.00000000000E+00  0.00000000000E+00  0.21762240263E+03  0.21762240263E+03  0.00000000000E+00 0.  1.
         -2   -1    0    0    0  501 -0.00000000000E+00 -0.00000000000E+00 -0.37978871593E+01  0.37978871593E+01  0.00000000000E+00 0. -1.
          1    1    1    2  502    0  0.23833661237E+02 -0.71604861188E+01  0.51481819295E+02  0.57181235448E+02  0.00000000000E+00 0. -1.
         -1    1    1    2    0  501 -0.23833661237E+02  0.71604861188E+01  0.16234269617E+03  0.16423905434E+03  0.00000000000E+00 0.  1.
</event>
<event>
 4    1  0.6888348E+001  0.2291750E+02  0.7546771E-02  0.1493537E+00
          2   -1    0    0  502    0  0.00000000000E+00  0.00000000000E+00  0.17526394914E+03  0.17526394914E+03  0.00000000000E+00 0. -1.
         -2   -1    0    0    0  501 -0.00000000000E+00 -0.00000000000E+00 -0.31207810739E+01  0.31207810739E+01  0.00000000000E+00 0.  1.
          1    1    1    2  502    0 -0.22683990568E+01  0.22804963356E+02  0.68286183021E+02  0.72029263355E+02  0.00000000000E+00 0. -1.
         -1    1    1    2    0  501  0.22683990568E+01 -0.22804963356E+02  0.10385698504E+03  0.10635546686E+03  0.00000000000E+00 0.  1.
</event>
<event>
 4    1  0.6888348E+001  0.2250723E+02  0.7546771E-02  0.1498780E+00
          2   -1    0    0  502    0  0.00000000000E+00  0.00000000000E+00  0.43459435274E+01  0.43459435274E+01  0.00000000000E+00 0. -1.
         -2   -1    0    0    0  501 -0.00000000000E+00 -0.00000000000E+00 -0.11657993120E+03  0.11657993120E+03  0.00000000000E+00 0.  1.
          1    1    1    2  502    0 -0.12214908555E+02 -0.18904269143E+02 -0.56849758168E+02  0.61143032200E+02  0.00000000000E+00 0. -1.
         -1    1    1    2    0  501  0.12214908555E+02  0.18904269143E+02 -0.55384229502E+02  0.59782842525E+02  0.00000000000E+00 0.  1.
</event>
<event>
 4    1  0.6888348E+001  0.2763769E+02  0.7546771E-02  0.1441305E+00
          2   -1    0    0  502    0  0.00000000000E+00  0.00000000000E+00  0.21451147235E+02  0.21451147235E+02  0.00000000000E+00 0. -1.
         -2   -1    0    0    0  501 -0.00000000000E+00 -0.00000000000E+00 -0.70093108749E+02  0.70093108749E+02  0.00000000000E+00 0.  1.
          1    1    1    2  502    0  0.17404602221E+02 -0.21469084784E+02  0.77843023575E+01  0.28713013481E+02  0.00000000000E+00 0. -1.
         -1    1    1    2    0  501 -0.17404602221E+02  0.21469084784E+02 -0.56426263871E+02  0.62831242503E+02  0.00000000000E+00 0.  1.
</event>
<event>
 4    1  0.6888348E+001  0.3476034E+02  0.7546771E-02  0.1382256E+00
          2   -1    0    0  502    0  0.00000000000E+00  0.00000000000E+00  0.86172686782E+03  0.86172686782E+03  0.00000000000E+00 0.  1.
         -2   -1    0    0    0  501 -0.00000000000E+00 -0.00000000000E+00 -0.14177506140E+01  0.14177506140E+01  0.00000000000E+00 0. -1.
          1    1    1    2  502    0  0.13718470327E+02  0.31938762767E+02  0.47540805271E+03  0.47667714187E+03  0.00000000000E+00 0.  1.
         -1    1    1    2    0  501 -0.13718470327E+02 -0.31938762767E+02  0.38490106449E+03  0.38646747656E+03  0.00000000000E+00 0. -1.
</event>
<event>
 4    1  0.6888348E+001  0.2091061E+02  0.7546771E-02  0.1520545E+00
          2   -1    0    0  502    0  0.00000000000E+00  0.00000000000E+00  0.10208263236E+03  0.10208263236E+03  0.00000000000E+00 0. -1.
         -2   -1    0    0    0  501 -0.00000000000E+00 -0.00000000000E+00 -0.44853835635E+01  0.44853835635E+01  0.00000000000E+00 0.  1.
          1    1    1    2  502    0 -0.19792140063E+02 -0.67471923557E+01  0.37489412672E+02  0.42926792047E+02  0.00000000000E+00 0.  1.
         -1    1    1    2    0  501  0.19792140063E+02  0.67471923557E+01  0.60107836122E+02  0.63641223874E+02  0.00000000000E+00 0. -1.
</event>
<event>
 4    1  0.6888348E+001  0.5235637E+02  0.7546771E-02  0.1288267E+00
          2   -1    0    0  502    0  0.00000000000E+00  0.00000000000E+00  0.36651136181E+03  0.36651136181E+03  0.00000000000E+00 0. -1.
         -2   -1    0    0    0  501 -0.00000000000E+00 -0.00000000000E+00 -0.92455771796E+01  0.92455771796E+01  0.00000000000E+00 0.  1.
          1    1    1    2  502    0 -0.39956391834E+02 -0.33833060735E+02  0.26075484719E+03  0.26595916900E+03  0.00000000000E+00 0.  1.
         -1    1    1    2    0  501  0.39956391834E+02  0.33833060735E+02  0.96510937443E+02  0.10979776998E+03  0.00000000000E+00 0. -1.
</event>
<event>
 4    1  0.6888348E+001  0.3030080E+02  0.7546771E-02  0.1417000E+00
          2   -1    0    0  502    0  0.00000000000E+00  0.00000000000E+00  0.46152113106E+03  0.46152113106E+03  0.00000000000E+00 0.  1.
         -2   -1    0    0    0  501 -0.00000000000E+00 -0.00000000000E+00 -0.34176747864E+01  0.34176747864E+01  0.00000000000E+00 0. -1.
          1    1    1    2  502    0 -0.28960783599E+02 -0.89113039979E+01  0.78768605995E+02  0.84395684818E+02  0.00000000000E+00 0. -1.
         -1    1    1    2    0  501  0.28960783599E+02  0.89113039979E+01  0.37933485028E+03  0.38054312103E+03  0.00000000000E+00 0.  1.
</event>
<event>
 4    1  0.6888348E+001  0.2429399E+02  0.7546771E-02  0.1476859E+00
          2   -1    0    0  502    0  0.00000000000E+00  0.00000000000E+00  0.59297197554E+02  0.59297197554E+02  0.00000000000E+00 0. -1.
         -2   -1    0    0    0  501 -0.00000000000E+00 -0.00000000000E+00 -0.20741139399E+02  0.20741139399E+02  0.00000000000E+00 0.  1.
          1    1    1    2  502    0 -0.20504338276E+02  0.13029586450E+02  0.48139643203E+02  0.53922381799E+02  0.00000000000E+00 0. -1.
         -1    1    1    2    0  501  0.20504338276E+02 -0.13029586450E+02 -0.95835850486E+01  0.26115955154E+02  0.00000000000E+00 0.  1.
</event>
<event>
 4    1  0.6888348E+001  0.2091266E+02  0.7546771E-02  0.1520515E+00
          2   -1    0    0  502    0  0.00000000000E+00  0.00000000000E+00  0.20966810918E+02  0.20966810918E+02  0.00000000000E+00 0.  1.
         -2   -1    0    0    0  501 -0.00000000000E+00 -0.00000000000E+00 -0.24928882460E+02  0.24928882460E+02  0.00000000000E+00 0. -1.
          1    1    1    2  502    0 -0.71295506583E+01  0.19659831536E+02  0.72915293495E+01  0.22147367087E+02  0.00000000000E+00 0.  1.
         -1    1    1    2    0  501  0.71295506583E+01 -0.19659831536E+02 -0.11253600891E+02  0.23748326291E+02  0.00000000000E+00 0. -1.
</event>
<event>
 4    1  0.6888348E+001  0.4213078E+02  0.7546771E-02  0.1336432E+00
          2   -1    0    0  502    0  0.00000000000E+00  0.00000000000E+00  0.33113842411E+01  0.33113842411E+01  0.00000000000E+00 0. -1.
         -2   -1    0    0    0  501 -0.00000000000E+00 -0.00000000000E+00 -0.54489395559E+03  0.54489395559E+03  0.00000000000E+00 0.  1.
          1    1    1    2  502    0  0.22776038519E+02  0.35443683439E+02 -0.30575046308E+03  0.30863951189E+03  0.00000000000E+00 0. -1.
         -1    1    1    2    0  501 -0.22776038519E+02 -0.35443683439E+02 -0.23583210827E+03  0.23956582794E+03  0.00000000000E+00 0.  1.
</event>
<event>
 4    1  0.6888348E+001  0.3098361E+02  0.7546771E-02  0.1411237E+00
          2   -1    0    0  502    0  0.00000000000E+00  0.00000000000E+00  0.16190246519E+04  0.16190246519E+04  0.00000000000E+00 0. -1.
         -2   -1    0    0    0  501 -0.00000000000E+00 -0.00000000000E+00 -0.59485019121E+00  0.59485019121E+00  0.00000000000E+00 0.  1.
          1    1    1    2  502    0 -0.23915950762E+02 -0.19697999017E+02  0.76332041417E+03  0.76394897640E+03  0.00000000000E+00 0.  1.
         -1    1    1    2    0  501  0.23915950762E+02  0.19697999017E+02  0.85510938754E+03  0.85567052569E+03  0.00000000000E+00 0. -1.
</event>
<event>
 4    1  0.6888348E+001  0.2184591E+02  0.7546771E-02  0.1507522E+00
          2   -1    0    0  502    0  0.00000000000E+00  0.00000000000E+00  0.14216951296E+01  0.14216951296E+01  0.00000000000E+00 0.  1.
         -2   -1    0    0    0  501 -0.00000000000E+00 -0.00000000000E+00 -0.34562995536E+03  0.34562995536E+03  0.00000000000E+00 0. -1.
          1    1    1    2  502    0 -0.90010842604E+01  0.19905378365E+02 -0.14267136712E+03  0.14433420455E+03  0.00000000000E+00 0.  1.
         -1    1    1    2    0  501  0.90010842604E+01 -0.19905378365E+02 -0.20153689311E+03  0.20271744594E+03  0.00000000000E+00 0. -1.
</event>
<event>
 4    1  0.6888348E+001  0.2231094E+02  0.7546771E-02  0.1501337E+00
          2   -1    0    0  502    0  0.00000000000E+00  0.00000000000E+00  0.98792687199E+01  0.98792687199E+01  0.00000000000E+00 0.  1.
         -2   -1    0    0    0  501 -0.00000000000E+00 -0.00000000000E+00 -0.51926987694E+02  0.51926987694E+02  0.00000000000E+00 0. -1.
          1    1    1    2  502    0 -0.20317327370E+02  0.92186937259E+01 -0.15700481263E+02  0.27281554526E+02  0.00000000000E+00 0. -1.
         -1    1    1    2    0  501  0.20317327370E+02 -0.92186937259E+01 -0.26347237712E+02  0.34524701889E+02  0.00000000000E+00 0.  1.
</event>
<event>
 4    1  0.6888348E+001  0.2444098E+02  0.7546771E-02  0.1475155E+00
          2   -1    0    0  502    0  0.00000000000E+00  0.00000000000E+00  0.36094729582E+02  0.36094729582E+02  0.00000000000E+00 0. -1.
         -2   -1    0    0    0  501 -0.00000000000E+00 -0.00000000000E+00 -0.23602551021E+02  0.23602551021E+02  0.00000000000E+00 0.  1.
          1    1    1    2  502    0 -0.24234510728E+02  0.31701939689E+01 -0.10070276439E+02  0.26434297940E+02  0.00000000000E+00 0.  1.
         -1    1    1    2    0  501  0.24234510728E+02 -0.31701939689E+01  0.22562455000E+02  0.33262982663E+02  0.00000000000E+00 0. -1.
</event>
<event>
 4    1  0.6888348E+001  0.2011479E+02  0.7546771E-02  0.1532288E+00
          2   -1    0    0  502    0  0.00000000000E+00  0.00000000000E+00  0.80650906037E+02  0.80650906037E+02  0.00000000000E+00 0.  1.
         -2   -1    0    0    0  501 -0.00000000000E+00 -0.00000000000E+00 -0.66024224935E+01  0.66024224935E+01  0.00000000000E+00 0. -1.
          1    1    1    2  502    0 -0.25330314814E+01 -0.19954658141E+02  0.15644204334E+02  0.25482263621E+02  0.00000000000E+00 0. -1.
         -1    1    1    2    0  501  0.25330314814E+01  0.19954658141E+02  0.58404279209E+02  0.61771064909E+02  0.00000000000E+00 0.  1.
</event>
<event>
 4    1  0.6888348E+001  0.2016868E+02  0.7546771E-02  0.1531473E+00
          2   -1    0    0  502    0  0.00000000000E+00  0.00000000000E+00  0.21716254918E+03  0.21716254918E+03  0.00000000000E+00 0. -1.
         -2   -1    0    0    0  501 -0.00000000000E+00 -0.00000000000E+00 -0.20071423473E+01  0.20071423473E+01  0.00000000000E+00 0.  1.
          1    1    1    2  502    0  0.17038477222E+02  0.10791939044E+02  0.79262536145E+02  0.81788295559E+02  0.00000000000E+00 0. -1.
         -1    1    1    2    0  501 -0.17038477222E+02 -0.10791939044E+02  0.13589287069E+03  0.13738139597E+03  0.00000000000E+00 0.  1.
</event>
<event>
 4    1  0.6888348E+001  0.2146322E+02  0.7546771E-02  0.1512753E+00
          2   -1    0    0  502    0  0.00000000000E+00  0.00000000000E+00  0.42540121819E+03  0.42540121819E+03  0.00000000000E+00 0. -1.
         -2   -1    0    0    0  501 -0.00000000000E+00 -0.00000000000E+00 -0.10838728117E+01  0.10838728117E+01  0.00000000000E+00 0.  1.
          1    1    1    2  502    0  0.20489343598E+01 -0.21365193579E+02  0.20579065341E+03  0.20690689370E+03  0.00000000000E+00 0. -1.
         -1    1    1    2    0  501 -0.20489343598E+01  0.21365193579E+02  0.21852669196E+03  0.21957819730E+03  0.00000000000E+00 0.  1.
</event>
<event>
 4    1  0.6888348E+001  0.5599320E+02  0.7546771E-02  0.1274090E+00
          2   -1    0    0  502    0  0.00000000000E+00  0.00000000000E+00  0.17004276767E+03  0.17004276767E+03  0.00000000000E+00 0.  1.
         -2   -1    0    0    0  501 -0.00000000000E+00 -0.00000000000E+00 -0.21621305665E+02  0.21621305665E+02  0.00000000000E+00 0. -1.
          1    1    1    2  502    0  0.45528357322E+02 -0.32594593716E+02  0.11098235564E+03  0.12430736955E+03  0.00000000000E+00 0.  1.
         -1    1    1    2    0  501 -0.45528357322E+02  0.32594593716E+02  0.37439106366E+02  0.67356703790E+02  0.00000000000E+00 0. -1.
</event>
<event>
 4    1  0.6888348E+001  0.2164925E+02  0.7546771E-02  0.1510194E+00
          2   -1    0    0  502    0  0.00000000000E+00  0.00000000000E+00  0.13533087575E+01  0.13533087575E+01  0.00000000000E+00 0. -1.
         -2   -1    0    0    0  501 -0.00000000000E+00 -0.00000000000E+00 -0.82401226873E+03  0.82401226873E+03  0.00000000000E+00 0.  1.
          1    1    1    2  502    0  0.18947189103E+02  0.10473499667E+02 -0.72553911527E+03  0.72586203783E+03  0.00000000000E+00 0.  1.
         -1    1    1    2    0  501 -0.18947189103E+02 -0.10473499667E+02 -0.97119844707E+02  0.99503539667E+02  0.00000000000E+00 0. -1.
</event>
<event>
 4    1  0.6888348E+001  0.4613953E+02  0.7546771E-02  0.1315838E+00
          2   -1    0    0  502    0  0.00000000000E+00  0.00000000000E+00  0.63079806806E+03  0.63079806806E+03  0.00000000000E+00 0. -1.
         -2   -1    0    0    0  501 -0.00000000000E+00 -0.00000000000E+00 -0.59331448015E+01  0.59331448015E+01  0.00000000000E+00 0.  1.
          1    1    1    2  502    0  0.44761960878E+02 -0.11190303318E+02  0.10337869369E+03  0.11320781925E+03  0.00000000000E+00 0.  1.
         -1    1    1    2    0  501 -0.44761960878E+02  0.11190303318E+02  0.52148622958E+03  0.52352339362E+03  0.00000000000E+00 0. -1.
</event>
<event>
 4    1  0.6888348E+001  0.2053794E+02  0.7546771E-02  0.1525965E+00
          2   -1    0    0  502    0  0.00000000000E+00  0.00000000000E+00  0.15355425661E+04  0.15355425661E+04  0.00000000000E+00 0. -1.
         -2   -1    0    0    0  501 -0.00000000000E+00 -0.00000000000E+00 -0.31717002141E+00  0.31717002141E+00  0.00000000000E+00 0.  1.
          1    1    1    2  502    0 -0.13700583788E+02  0.15300359441E+02  0.10486335427E+04  0.10488346456E+04  0.00000000000E+00 0.  1.
         -1    1    1    2    0  501  0.13700583788E+02 -0.15300359441E+02  0.48659185336E+03  0.48702509047E+03  0.00000000000E+00 0. -1.
</event>
<event>
 4    1  0.6888348E+001  0.3788442E+02  0.7546771E-02  0.1361350E+00
          2   -1    0    0  502    0  0.00000000000E+00  0.00000000000E+00  0.31436774484E+02  0.31436774484E+02  0.00000000000E+00 0. -1.
         -2   -1    0    0    0  501 -0.00000000000E+00 -0.00000000000E+00 -0.57276167180E+02  0.57276167180E+02  0.00000000000E+00 0.  1.
          1    1    1    2  502    0 -0.22642212751E+02  0.30373661415E+02  0.70607364013E+01  0.38536776001E+02  0.00000000000E+00 0. -1.
         -1    1    1    2    0  501  0.22642212751E+02 -0.30373661415E+02 -0.32900129098E+02  0.50176165663E+02  0.00000000000E+00 0.  1.
</event>
<event>
 4    1  0.6888348E+001  0.2790638E+02  0.7546771E-02  0.1438710E+00
          2   -1    0    0  502    0  0.00000000000E+00  0.00000000000E+00  0.76490727064E+03  0.76490727064E+03  0.00000000000E+00 0. -1.
         -2   -1    0    0    0  501 -0.00000000000E+00 -0.00000000000E+00 -0.10830735358E+01  0.10830735358E+01  0.00000000000E+00 0.  1.
          1    1    1    2  502    0 -0.26920231170E+02 -0.73530312433E+01  0.47570547615E+03  0.47652331103E+03  0.00000000000E+00 0. -1.
         -1    1    1    2    0  501  0.26920231170E+02  0.73530312433E+01  0.28811872095E+03  0.28946703314E+03  0.00000000000E+00 0.  1.
</event>
<event>
 4    1  0.6888348E+001  0.3256387E+02  0.7546771E-02  0.1398549E+00
          2   -1    0    0  502    0  0.00000000000E+00  0.00000000000E+00  0.27302579869E+03  0.27302579869E+03  0.00000000000E+00 0. -1.
         -2   -1    0    0    0  501 -0.00000000000E+00 -0.00000000000E+00 -0.40166200994E+01  0.40166200994E+01  0.00000000000E+00 0.  1.
          1    1    1    2  502    0  0.93369215450E+01  0.31196593632E+02  0.10932490399E+03  0.11407164499E+03  0.00000000000E+00 0. -1.
         -1    1    1    2    0  501 -0.93369215450E+01 -0.31196593632E+02  0.15968427460E+03  0.16297077380E+03  0.00000000000E+00 0.  1.
</event>
<event>
 4    1  0.6888348E+001  0.3338176E+02  0.7546771E-02  0.1392311E+00
          2   -1    0    0  502    0  0.00000000000E+00  0.00000000000E+00  0.11422422546E+02  0.11422422546E+02  0.00000000000E+00 0.  1.
         -2   -1    0    0    0  501 -0.00000000000E+00 -0.00000000000E+00 -0.15893236507E+03  0.15893236507E+03  0.00000000000E+00 0. -1.
          1    1    1    2  502    0 -0.29803922958E+02  0.15035570017E+02 -0.20823532735E+02  0.39344144481E+02  0.00000000000E+00 0.  1.
         -1    1    1    2    0  501  0.29803922958E+02 -0.15035570017E+02 -0.12668640979E+03  0.13101064314E+03  0.00000000000E+00 0. -1.
</event>
<event>
 4    1  0.6888348E+001  0.2342656E+02  0.7546771E-02  0.1487210E+00
          2   -1    0    0  502    0  0.00000000000E+00  0.00000000000E+00  0.71634274311E+03  0.71634274311E+03  0.00000000000E+00 0. -1.
         -2   -1    0    0    0  501 -0.00000000000E+00 -0.00000000000E+00 -0.14036285856E+01  0.14036285856E+01  0.00000000000E+00 0.  1.
          1    1    1    2  502    0  0.21260596397E+02 -0.98382400706E+01  0.59932630055E+03  0.59978397649E+03  0.00000000000E+00 0. -1.
         -1    1    1    2    0  501 -0.21260596397E+02  0.98382400706E+01  0.11561281397E+03  0.11796239520E+03  0.00000000000E+00 0.  1.
</event>
<event>
 4    1  0.6888348E+001  0.2218949E+02  0.7546771E-02  0.1502935E+00
          2   -1    0    0  502    0  0.00000000000E+00  0.00000000000E+00  0.15760026368E+02  0.15760026368E+02  0.00000000000E+00 0.  1.
         -2   -1    0    0    0  501 -0.00000000000E+00 -0.00000000000E+00 -0.32576694534E+02  0.32576694534E+02  0.00000000000E+00 0. -1.
          1    1    1    2  502    0  0.71721864413E+01 -0.20998404784E+02 -0.13300485840E+02  0.25870372734E+02  0.00000000000E+00 0. -1.
         -1    1    1    2    0  501 -0.71721864413E+01  0.20998404784E+02 -0.35161823259E+01  0.22466348167E+02  0.00000000000E+00 0.  1.
</event>
<event>
 4    1  0.6888348E+001  0.2279215E+02  0.7546771E-02  0.1495125E+00
          2   -1    0    0  502    0  0.00000000000E+00  0.00000000000E+00  0.40920694456E+03  0.40920694456E+03  0.00000000000E+00 0.  1.
         -2   -1    0    0    0  501 -0.00000000000E+00 -0.00000000000E+00 -0.15181512016E+01  0.15181512016E+01  0.00000000000E+00 0. -1.
          1    1    1    2  502    0  0.22729507869E+02 -0.16886886780E+01  0.12073084229E+03  0.12286341391E+03  0.00000000000E+00 0. -1.
         -1    1    1    2    0  501 -0.22729507869E+02  0.16886886780E+01  0.28695795107E+03  0.28786168186E+03  0.00000000000E+00 0.  1.
</event>
<event>
 4    1  0.6888348E+001  0.2204046E+02  0.7546771E-02  0.1504912E+00
          2   -1    0    0  502    0  0.00000000000E+00  0.00000000000E+00  0.10597463238E+04  0.10597463238E+04  0.00000000000E+00 0.  1.
         -2   -1    0    0    0  501 -0.00000000000E+00 -0.00000000000E+00 -0.72707806521E+00  0.72707806521E+00  0.00000000000E+00 0. -1.
          1    1    1    2  502    0  0.21714211708E+02 -0.37782118895E+01  0.20718029483E+03  0.20834936150E+03  0.00000000000E+00 0. -1.
         -1    1    1    2    0  501 -0.21714211708E+02  0.37782118895E+01  0.85183895088E+03  0.85212404033E+03  0.00000000000E+00 0.  1.
</event>
<event>
 4    1  0.6888348E+001  0.2365210E+02  0.7546771E-02  0.1484468E+00
          2   -1    0    0  502    0  0.00000000000E+00  0.00000000000E+00  0.11026785979E+04  0.11026785979E+04  0.00000000000E+00 0. -1.
         -2   -1    0    0    0  501 -0.00000000000E+00 -0.00000000000E+00 -0.52578247502E+00  0.52578247502E+00  0.00000000000E+00 0.  1.
          1    1    1    2  502    0 -0.65070401676E+01  0.22739403199E+02  0.44774098709E+03  0.44836526801E+03  0.00000000000E+00 0.  1.
         -1    1    1    2    0  501  0.65070401676E+01 -0.22739403199E+02  0.65441182837E+03  0.65483911241E+03  0.00000000000E+00 0. -1.
</event>
<event>
 4    1  0.6888348E+001  0.2342180E+02  0.7546771E-02  0.1487268E+00
          2   -1    0    0  502    0  0.00000000000E+00  0.00000000000E+00  0.20069502209E+03  0.20069502209E+03  0.00000000000E+00 0.  1.
         -2   -1    0    0    0  501 -0.00000000000E+00 -0.00000000000E+00 -0.36213834801E+01  0.36213834801E+01  0.00000000000E+00 0. -1.
          1    1    1    2  502    0  0.22847804046E+02 -0.51534930539E+01  0.14912363850E+03  0.15095178104E+03  0.00000000000E+00 0.  1.
         -1    1    1    2    0  501 -0.22847804046E+02  0.51534930539E+01  0.47950000103E+02  0.53364624521E+02  0.00000000000E+00 0. -1.
</event>
<event>
 4    1  0.6888348E+001  0.2104082E+02  0.7546771E-02  0.1518683E+00
          2   -1    0    0  502    0  0.00000000000E+00  0.00000000000E+00  0.49409297959E+03  0.49409297959E+03  0.00000000000E+00 0.  1.
         -2   -1    0    0    0  501 -0.00000000000E+00 -0.00000000000E+00 -0.10317641347E+01  0.10317641347E+01  0.00000000000E+00 0. -1.
          1    1    1    2  502    0 -0.14454248029E+02 -0.15290224544E+02  0.33632681586E+03  0.33698433690E+03  0.00000000000E+00 0.  1.
         -1    1    1    2    0  501  0.14454248029E+02  0.15290224544E+02  0.15673439960E+03  0.15814040683E+03  0.00000000000E+00 0. -1.
</event>
<event>
 4    1  0.6888348E+001  0.2317630E+02  0.7546771E-02  0.1490296E+00
          2   -1    0    0  502    0  0.00000000000E+00  0.00000000000E+00  0.52646984740E+01  0.52646984740E+01  0.00000000000E+00 0. -1.
         -2   -1    0    0    0  501 -0.00000000000E+00 -0.00000000000E+00 -0.13669901100E+03  0.13669901100E+03  0.00000000000E+00 0.  1.
          1    1    1    2  502    0  0.20798987845E+02 -0.10224618918E+02 -0.29968891775E+02  0.37885026087E+02  0.00000000000E+00 0. -1.
         -1    1    1    2    0  501 -0.20798987845E+02  0.10224618918E+02 -0.10146542075E+03  0.10407868339E+03  0.00000000000E+00 0.  1.
</event>
<event>
 4    1  0.6888348E+001  0.3558121E+02  0.7546771E-02  0.1376523E+00
          2   -1    0    0  502    0  0.00000000000E+00  0.00000000000E+00  0.11925612075E+04  0.11925612075E+04  0.00000000000E+00 0. -1.
         -2   -1    0    0    0  501 -0.00000000000E+00 -0.00000000000E+00 -0.11132764778E+01  0.11132764778E+01  0.00000000000E+00 0.  1.
          1    1    1    2  502    0  0.15060954434E+02 -0.32236475174E+02  0.46713553368E+03  0.46848866529E+03  0.00000000000E+00 0.  1.
         -1    1    1    2    0  501 -0.15060954434E+02  0.32236475174E+02  0.72431239733E+03  0.72518581868E+03  0.00000000000E+00 0. -1.
</event>
<event>
 4    1  0.6888348E+001  0.2193650E+02  0.7546771E-02  0.1506302E+00
          2   -1    0    0  502    0  0.00000000000E+00  0.00000000000E+00  0.20139372660E+02  0.20139372660E+02  0.00000000000E+00 0. -1.
         -2   -1    0    0    0  501 -0.00000000000E+00 -0.00000000000E+00 -0.25886280525E+02  0.25886280525E+02  0.00000000000E+00 0.  1.
          1    1    1    2  502    0  0.19075203675E+02 -0.10832668289E+02 -0.92577170474E+01  0.23809985771E+02  0.00000000000E+00 0.  1.
         -1    1    1    2    0  501 -0.19075203675E+02  0.10832668289E+02  0.35108091825E+01  0.22215667413E+02  0.00000000000E+00 0. -1.
</event>
<event>
 4    1  0.6888348E+001  0.2217799E+02  0.7546771E-02  0.1503086E+00
          2   -1    0    0  502    0  0.00000000000E+00  0.00000000000E+00  0.13482808149E+04  0.13482808149E+04  0.00000000000E+00 0. -1.
         -2   -1    0    0    0  501 -0.00000000000E+00 -0.00000000000E+00 -0.14400195004E+01  0.14400195004E+01  0.00000000000E+00 0.  1.
          1    1    1    2  502    0  0.30739956123E+01  0.21963919024E+02  0.90275089522E+02  0.92959426505E+02  0.00000000000E+00 0.  1.
         -1    1    1    2    0  501 -0.30739956123E+01 -0.21963919024E+02  0.12565657059E+04  0.12567614079E+04  0.00000000000E+00 0. -1.
</event>
<event>
 4    1  0.6888348E+001  0.2142503E+02  0.7546771E-02  0.1513282E+00
          2   -1    0    0  502    0  0.00000000000E+00  0.00000000000E+00  0.48747823815E+02  0.48747823815E+02  0.00000000000E+00 0. -1.
         -2   -1    0    0    0  501 -0.00000000000E+00 -0.00000000000E+00 -0.10136679979E+02  0.10136679979E+02  0.00000000000E+00 0.  1.
          1    1    1    2  502    0 -0.19620949893E+02  0.86052406748E+01  0.11457620556E+02  0.24296273595E+02  0.00000000000E+00 0. -1.
         -1    1    1    2    0  501  0.19620949893E+02 -0.86052406748E+01  0.27153523280E+02  0.34588230199E+02  0.00000000000E+00 0.  1.
</event>
<event>
 4    1  0.6888348E+001  0.3867885E+02  0.7546771E-02  0.1356407E+00
          2   -1    0    0  502    0  0.00000000000E+00  0.00000000000E+00  0.27911831642E+04  0.27911831642E+04  0.00000000000E+00 0. -1.
         -2   -1    0    0    0  501 -0.00000000000E+00 -0.00000000000E+00 -0.54830577784E+00  0.54830577784E+00  0.00000000000E+00 0.  1.
          1    1    1    2  502    0  0.29283413944E+02 -0.25269246510E+02  0.16044971832E+04  0.16049633217E+04  0.00000000000E+00 0. -1.
         -1    1    1    2    0  501 -0.29283413944E+02  0.25269246510E+02  0.11861376752E+04  0.11867681482E+04  0.00000000000E+00 0.  1.
</event>
<event>
 4    1  0.6888348E+001  0.3076131E+02  0.7546771E-02  0.1413094E+00
          2   -1    0    0  502    0  0.00000000000E+00  0.00000000000E+00  0.85706630757E+03  0.85706630757E+03  0.00000000000E+00 0.  1.
         -2   -1    0    0    0  501 -0.00000000000E+00 -0.00000000000E+00 -0.21626510648E+01  0.21626510648E+01  0.00000000000E+00 0. -1.
          1    1    1    2  502    0  0.29982459138E+02 -0.68782355320E+01  0.72802382347E+03  0.72867341486E+03  0.00000000000E+00 0.  1.
         -1    1    1    2    0  501 -0.29982459138E+02  0.68782355320E+01  0.12687983304E+03  0.13055554378E+03  0.00000000000E+00 0. -1.
</event>
<event>
 4    1  0.6888348E+001  0.3524833E+02  0.7546771E-02  0.1378826E+00
          2   -1    0    0  502    0  0.00000000000E+00  0.00000000000E+00  0.36636995872E+04  0.36636995872E+04  0.00000000000E+00 0.  1.
         -2   -1    0    0    0  501 -0.00000000000E+00 -0.00000000000E+00 -0.34302992722E+00  0.34302992722E+00  0.00000000000E+00 0. -1.
          1    1    1    2  502    0  0.13571611358E+01  0.35222188543E+02  0.16361599934E+04  0.16365396324E+04  0.00000000000E+00 0. -1.
         -1    1    1    2    0  501 -0.13571611358E+01 -0.35222188543E+02  0.20271965639E+04  0.20275029847E+04  0.00000000000E+00 0.  1.
</event>
<event>
 4    1  0.6888348E+001  0.5257298E+02  0.7546771E-02  0.1287386E+00
          2   -1    0    0  502    0  0.00000000000E+00  0.00000000000E+00  0.44102299873E+03  0.44102299873E+03  0.00000000000E+00 0.  1.
         -2   -1    0    0    0  501 -0.00000000000E+00 -0.00000000000E+00 -0.78563586476E+01  0.78563586476E+01  0.00000000000E+00 0. -1.
          1    1    1    2  502    0  0.47437041743E+02 -0.22663749220E+02  0.31752986917E+03  0.32185266237E+03  0.00000000000E+00 0.  1.
         -1    1    1    2    0  501 -0.47437041743E+02  0.22663749220E+02  0.11563677091E+03  0.12702669501E+03  0.00000000000E+00 0. -1.
</event>
<event>
 4    1  0.6888348E+001  0.2384179E+02  0.7546771E-02  0.1482190E+00
          2   -1    0    0  502    0  0.00000000000E+00  0.00000000000E+00  0.93592675373E+03  0.93592675373E+03  0.00000000000E+00 0. -1.
         -2   -1    0    0    0  501 -0.00000000000E+00 -0.00000000000E+00 -0.12488556285E+01  0.12488556285E+01  0.00000000000E+00 0.  1.
          1    1    1    2  502    0  0.14279207425E+02 -0.19092810717E+02  0.13149577938E+03  0.13363970660E+03  0.00000000000E+00 0.  1.
         -1    1    1    2    0  501 -0.14279207425E+02  0.19092810717E+02  0.80318211872E+03  0.80353590276E+03  0.00000000000E+00 0. -1.
</event>
<event>
 4    1  0.6888348E+001  0.2601661E+02  0.7546771E-02  0.1457745E+00
          2   -1    0    0  502    0  0.00000000000E+00  0.00000000000E+00  0.75055087107E+01  0.75055087107E+01  0.00000000000E+00 0.  1.
         -2   -1    0    0    0  501 -0.00000000000E+00 -0.00000000000E+00 -0.95850006956E+02  0.95850006956E+02  0.00000000000E+00 0. -1.
          1    1    1    2  502    0  0.79271375080E+01  0.24779512733E+02 -0.31605796450E+02  0.40936415691E+02  0.00000000000E+00 0.  1.
         -1    1    1    2    0  501 -0.79271375080E+01 -0.24779512733E+02 -0.56738701795E+02  0.62419099976E+02  0.00000000000E+00 0. -1.
</event>
<event>
 4    1  0.6888348E+001  0.2425423E+02  0.7546771E-02  0.1477322E+00
          2   -1    0    0  502    0  0.00000000000E+00  0.00000000000E+00  0.13705612145E+02  0.13705612145E+02  0.00000000000E+00 0.  1.
         -2   -1    0    0    0  501 -0.00000000000E+00 -0.00000000000E+00 -0.43276728116E+02  0.43276728116E+02  0.00000000000E+00 0. -1.
          1    1    1    2  502    0  0.24002708106E+02  0.34839462624E+01 -0.12204916902E+02  0.27151940530E+02  0.00000000000E+00 0.  1.
         -1    1    1    2    0  501 -0.24002708106E+02 -0.34839462624E+01 -0.17366199069E+02  0.29830399730E+02  0.00000000000E+00 0. -1.
</event>
<event>
 4    1  0.6888348E+001  0.2550081E+02  0.7546771E-02  0.1463278E+00
          2   -1    0    0  502    0  0.00000000000E+00  0.00000000000E+00  0.44272161270E+03  0.44272161270E+03  0.00000000000E+00 0. -1.
         -2   -1    0    0    0  501 -0.00000000000E+00 -0.00000000000E+00 -0.14690094204E+01  0.14690094204E+01  0.00000000000E+00 0.  1.
          1    1    1    2  502    0 -0.15484005212E+02 -0.20261713357E+02  0.22294315725E+03  0.22439684225E+03  0.00000000000E+00 0.  1.
         -1    1    1    2    0  501  0.15484005212E+02  0.20261713357E+02  0.21830944603E+03  0.21979377987E+03  0.00000000000E+00 0. -1.
</event>
<event>
 4    1  0.6888348E+001  0.2160858E+02  0.7546771E-02  0.1510751E+00
          2   -1    0    0  502    0  0.00000000000E+00  0.00000000000E+00  0.22811329111E+04  0.22811329111E+04  0.00000000000E+00 0.  1.
         -2   -1    0    0    0  501 -0.00000000000E+00 -0.00000000000E+00 -0.23711464919E+00  0.23711464919E+00  0.00000000000E+00 0. -1.
          1    1    1    2  502    0  0.55205394457E+01 -0.20891489715E+02  0.15622490258E+04  0.15623984605E+04  0.00000000000E+00 0.  1.
         -1    1    1    2    0  501 -0.55205394457E+01  0.20891489715E+02  0.71864677063E+03  0.71897156525E+03  0.00000000000E+00 0. -1.
</event>
<event>
 4    1  0.6888348E+001  0.2763331E+02  0.7546771E-02  0.1441348E+00
          2   -1    0    0  502    0  0.00000000000E+00  0.00000000000E+00  0.98075505746E+01  0.98075505746E+01  0.00000000000E+00 0.  1.
         -2   -1    0    0    0  501 -0.00000000000E+00 -0.00000000000E+00 -0.89839228203E+02  0.89839228203E+02  0.00000000000E+00 0. -1.
          1    1    1    2  502    0  0.16755641505E+02  0.21973805036E+02 -0.21821145989E+02  0.35210254789E+02  0.00000000000E+00 0.  1.
         -1    1    1    2    0  501 -0.16755641505E+02 -0.21973805036E+02 -0.58210531640E+02  0.64436523989E+02  0.00000000000E+00 0. -1.
</event>
<event>
 4    1  0.6888348E+001  0.3500491E+02  0.7546771E-02  0.1380529E+00
          2   -1    0    0  502    0  0.00000000000E+00  0.00000000000E+00  0.35675853478E+03  0.35675853478E+03  0.00000000000E+00 0. -1.
         -2   -1    0    0    0  501 -0.00000000000E+00 -0.00000000000E+00 -0.83480368435E+01  0.83480368435E+01  0.00000000000E+00 0.  1.
          1    1    1    2  502    0  0.32715661672E+02  0.12451079997E+02  0.34153815810E+02  0.48906308858E+02  0.00000000000E+00 0.  1.
         -1    1    1    2    0  501 -0.32715661672E+02 -0.12451079997E+02  0.31425668213E+03  0.31620026277E+03  0.00000000000E+00 0. -1.
</event>
<event>
 4    1  0.6888348E+001  0.2362602E+02  0.7546771E-02  0.1484783E+00
          2   -1    0    0  502    0  0.00000000000E+00  0.00000000000E+00  0.74303207525E+03  0.74303207525E+03  0.00000000000E+00 0.  1.
         -2   -1    0    0    0  501 -0.00000000000E+00 -0.00000000000E+00 -0.77093412847E+00  0.77093412847E+00  0.00000000000E+00 0. -1.
          1    1    1    2  502    0  0.68495818442E+01 -0.22611330514E+02  0.43058473692E+03  0.43123242539E+03  0.00000000000E+00 0.  1.
         -1    1    1    2    0  501 -0.68495818442E+01  0.22611330514E+02  0.31167640420E+03  0.31257058399E+03  0.00000000000E+00 0. -1.
</event>
<event>
 4    1  0.6888348E+001  0.2964762E+02  0.7546771E-02  0.1422684E+00
          2   -1    0    0  502    0  0.00000000000E+00  0.00000000000E+00  0.30321206269E+04  0.30321206269E+04  0.00000000000E+00 0. -1.
         -2   -1    0    0    0  501 -0.00000000000E+00 -0.00000000000E+00 -0.35339976998E+00  0.35339976998E+00  0.00000000000E+00 0.  1.
          1    1    1    2  502    0 -0.23341586370E+02 -0.18279820638E+02  0.21586515114E+04  0.21588550968E+04  0.00000000000E+00 0. -1.
         -1    1    1    2    0  501  0.23341586370E+02  0.18279820638E+02  0.87311571581E+03  0.87361892990E+03  0.00000000000E+00 0.  1.
</event>
<event>
 4    1  0.6888348E+001  0.2295317E+02  0.7546771E-02  0.1493087E+00
          2   -1    0    0  502    0  0.00000000000E+00  0.00000000000E+00  0.44273539132E+03  0.44273539132E+03  0.00000000000E+00 0. -1.
         -2   -1    0    0    0  501 -0.00000000000E+00 -0.00000000000E+00 -0.12507992539E+01  0.12507992539E+01  0.00000000000E+00 0.  1.
          1    1    1    2  502    0  0.29128498605E+01 -0.22767595752E+02  0.26969213720E+03  0.27066713317E+03  0.00000000000E+00 0.  1.
         -1    1    1    2    0  501 -0.29128498605E+01  0.22767595752E+02  0.17179245487E+03  0.17331905740E+03  0.00000000000E+00 0. -1.
</event>
<event>
 4    1  0.6888348E+001  0.2407448E+02  0.7546771E-02  0.1479429E+00
          2   -1    0    0  502    0  0.00000000000E+00  0.00000000000E+00  0.14094105144E+03  0.14094105144E+03  0.00000000000E+00 0.  1.
         -2   -1    0    0    0  501 -0.00000000000E+00 -0.00000000000E+00 -0.41428760271E+01  0.41428760271E+01  0.00000000000E+00 0. -1.
          1    1    1    2  502    0 -0.22429357100E+02  0.87466796600E+01  0.74639360711E+02  0.78425854361E+02  0.00000000000E+00 0.  1.
         -1    1    1    2    0  501  0.22429357100E+02 -0.87466796600E+01  0.62158814701E+02  0.66658073105E+02  0.00000000000E+00 0. -1.
</event>
<event>
 4    1  0.6888348E+001  0.2325810E+02  0.7546771E-02  0.1489282E+00
          2   -1    0    0  502    0  0.00000000000E+00  0.00000000000E+00  0.13168529248E+04  0.13168529248E+04  0.00000000000E+00 0.  1.
         -2   -1    0    0    0  501 -0.00000000000E+00 -0.00000000000E+00 -0.43881948684E+00  0.43881948684E+00  0.00000000000E+00 0. -1.
          1    1    1    2  502    0  0.93814060102E+01  0.21282117093E+02  0.49172029745E+03  0.49227003790E+03  0.00000000000E+00 0. -1.
         -1    1    1    2    0  501 -0.93814060102E+01 -0.21282117093E+02  0.82469380787E+03  0.82502170639E+03  0.00000000000E+00 0.  1.
</event>
<event>
 4    1  0.6888348E+001  0.3089650E+02  0.7546771E-02  0.1411962E+00
          2   -1    0    0  502    0  0.00000000000E+00  0.00000000000E+00  0.67545924983E+02  0.67545924983E+02  0.00000000000E+00 0.  1.
         -2   -1    0    0    0  501 -0.00000000000E+00 -0.00000000000E+00 -0.22161041906E+02  0.22161041906E+02  0.00000000000E+00 0. -1.
          1    1    1    2  502    0 -0.30882674878E+02 -0.92414623451E+00 -0.43047806600E+01  0.31194948155E+02  0.00000000000E+00 0. -1.
         -1    1    1    2    0  501  0.30882674878E+02  0.92414623451E+00  0.49689663737E+02  0.58512018733E+02  0.00000000000E+00 0.  1.
</event>
<event>
 4    1  0.6888348E+001  0.2092616E+02  0.7546771E-02  0.1520322E+00
          2   -1    0    0  502    0  0.00000000000E+00  0.00000000000E+00  0.90974543991E+01  0.90974543991E+01  0.00000000000E+00 0.  1.
         -2   -1    0    0    0  501 -0.00000000000E+00 -0.00000000000E+00 -0.50472879486E+02  0.50472879486E+02  0.00000000000E+00 0. -1.
          1    1    1    2  502    0  0.41945479898E+01 -0.20501459537E+02 -0.14277072843E+02  0.25332565700E+02  0.00000000000E+00 0. -1.
         -1    1    1    2    0  501 -0.41945479898E+01  0.20501459537E+02 -0.27098352244E+02  0.34237768186E+02  0.00000000000E+00 0.  1.
</event>
<event>
 4    1  0.6888348E+001  0.4954770E+02  0.7546771E-02  0.1300145E+00
          2   -1    0    0  502    0  0.00000000000E+00  0.00000000000E+00  0.85837742537E+02  0.85837742537E+02  0.00000000000E+00 0.  1.
         -2   -1    0    0    0  501 -0.00000000000E+00 -0.00000000000E+00 -0.49557204808E+02  0.49557204808E+02  0.00000000000E+00 0. -1.
          1    1    1    2  502    0 -0.49384476718E+02  0.40184510185E+01  0.62163703499E+02  0.79494028216E+02  0.00000000000E+00 0.  1.
         -1    1    1    2    0  501  0.49384476718E+02 -0.40184510185E+01 -0.25883165770E+02  0.55900919129E+02  0.00000000000E+00 0. -1.
</event>
<event>
 4    1  0.6888348E+001  0.2097908E+02  0.7546771E-02  0.1519564E+00
          2   -1    0    0  502    0  0.00000000000E+00  0.00000000000E+00  0.11049269870E+04  0.11049269870E+04  0.00000000000E+00 0.  1.
         -2   -1    0    0    0  501 -0.00000000000E+00 -0.00000000000E+00 -0.41213342260E+00  0.41213342260E+00  0.00000000000E+00 0. -1.
          1    1    1    2  502    0  0.12331774905E+02 -0.16972011636E+02  0.45110113226E+03  0.45158869934E+03  0.00000000000E+00 0.  1.
         -1    1    1    2    0  501 -0.12331774905E+02  0.16972011636E+02  0.65341372136E+03  0.65375042112E+03  0.00000000000E+00 0. -1.
</event>
<event>
 4    1  0.6888348E+001  0.2550490E+02  0.7546771E-02  0.1463234E+00
          2   -1    0    0  502    0  0.00000000000E+00  0.00000000000E+00  0.68395814299E+03  0.68395814299E+03  0.00000000000E+00 0.  1.
         -2   -1    0    0    0  501 -0.00000000000E+00 -0.00000000000E+00 -0.13586849409E+01  0.13586849409E+01  0.00000000000E+00 0. -1.
          1    1    1    2  502    0  0.12378901668E+01 -0.25474844565E+02  0.52898095440E+03  0.52959545901E+03  0.00000000000E+00 0.  1.
         -1    1    1    2    0  501 -0.12378901668E+01  0.25474844565E+02  0.15361850364E+03  0.15572136892E+03  0.00000000000E+00 0. -1.
</event>
<event>
 4    1  0.6888348E+001  0.2501450E+02  0.7546771E-02  0.1468641E+00
          2   -1    0    0  502    0  0.00000000000E+00  0.00000000000E+00  0.19514365489E+03  0.19514365489E+03  0.00000000000E+00 0. -1.
         -2   -1    0    0    0  501 -0.00000000000E+00 -0.00000000000E+00 -0.44353993391E+01  0.44353993391E+01  0.00000000000E+00 0.  1.
          1    1    1    2  502    0  0.49859941779E+01  0.24512551803E+02  0.14788072745E+03  0.14998144847E+03  0.00000000000E+00 0. -1.
         -1    1    1    2    0  501 -0.49859941779E+01 -0.24512551803E+02  0.42827528099E+02  0.49597605758E+02  0.00000000000E+00 0.  1.
</event>
<event>
 4    1  0.6888348E+001  0.2129821E+02  0.7546771E-02  0.1515050E+00
          2   -1    0    0  502    0  0.00000000000E+00  0.00000000000E+00  0.78039042115E+02  0.78039042115E+02  0.00000000000E+00 0. -1.
         -2   -1    0    0    0  501 -0.00000000000E+00 -0.00000000000E+00 -0.60271166722E+01  0.60271166722E+01  0.00000000000E+00 0.  1.
          1    1    1    2  502    0 -0.14140620273E+02  0.15926594146E+02  0.28076978528E+02  0.35241031002E+02  0.00000000000E+00 0.  1.
         -1    1    1    2    0  501  0.14140620273E+02 -0.15926594146E+02  0.43934946914E+02  0.48825127785E+02  0.00000000000E+00 0. -1.
</event>
<event>
 4    1  0.6888348E+001  0.2343047E+02  0.7546771E-02  0.1487162E+00
          2   -1    0    0  502    0  0.00000000000E+00  0.00000000000E+00  0.88803415549E+00  0.88803415549E+00  0.00000000000E+00 0.  1.
         -2   -1    0    0    0  501 -0.00000000000E+00 -0.00000000000E+00 -0.65218122445E+03  0.65218122445E+03  0.00000000000E+00 0. -1.
          1    1    1    2  502    0 -0.20461715656E+02  0.11415135620E+02 -0.40017689134E+03  0.40086223505E+03  0.00000000000E+00 0. -1.
         -1    1    1    2    0  501  0.20461715656E+02 -0.11415135620E+02 -0.25111629896E+03  0.25220702356E+03  0.00000000000E+00 0.  1.
</event>
<event>
 4    1  0.6888348E+001  0.3370138E+02  0.7546771E-02  0.1389930E+00
          2   -1    0    0  502    0  0.00000000000E+00  0.00000000000E+00  0.78781231277E+01  0.78781231277E+01  0.00000000000E+00 0.  1.
         -2   -1    0    0    0  501 -0.00000000000E+00 -0.00000000000E+00 -0.15056469318E+03  0.15056469318E+03  0.00000000000E+00 0. -1.
          1    1    1    2  502    0 -0.25306907772E+02 -0.22256316211E+02 -0.55015926764E+02  0.64517713769E+02  0.00000000000E+00 0. -1.
         -1    1    1    2    0  501  0.25306907772E+02  0.22256316211E+02 -0.87670643285E+02  0.93925102535E+02  0.00000000000E+00 0.  1.
</event>
<event>
 4    1  0.6888348E+001  0.2246457E+02  0.7546771E-02  0.1499333E+00
          2   -1    0    0  502    0  0.00000000000E+00  0.00000000000E+00  0.18526709562E+04  0.18526709562E+04  0.00000000000E+00 0. -1.
         -2   -1    0    0    0  501 -0.00000000000E+00 -0.00000000000E+00 -0.70062934447E+00  0.70062934447E+00  0.00000000000E+00 0.  1.
          1    1    1    2  502    0 -0.69464087834E+00 -0.22453825638E+02  0.16504703326E+04  0.16506232082E+04  0.00000000000E+00 0. -1.
         -1    1    1    2    0  501  0.69464087834E+00  0.22453825638E+02  0.20149999429E+03  0.20274837733E+03  0.00000000000E+00 0.  1.
</event>
<event>
 4    1  0.6888348E+001  0.2207890E+02  0.7546771E-02  0.1504400E+00
          2   -1    0    0  502    0  0.00000000000E+00  0.00000000000E+00  0.76577664436E+03  0.76577664436E+03  0.00000000000E+00 0.  1.
         -2   -1    0    0    0  501 -0.00000000000E+00 -0.00000000000E+00 -0.70925032501E+00  0.70925032501E+00  0.00000000000E+00 0. -1.
          1    1    1    2  502    0  0.49986889938E+01 -0.21505604897E+02  0.25985939787E+03  0.26079567595E+03  0.00000000000E+00 0. -1.
         -1    1    1    2    0  501 -0.49986889938E+01  0.21505604897E+02  0.50520799616E+03  0.50569021873E+03  0.00000000000E+00 0.  1.
</event>
<event>
 4    1  0.6888348E+001  0.2245343E+02  0.7546771E-02  0.1499478E+00
          2   -1    0    0  502    0  0.00000000000E+00  0.00000000000E+00  0.46746031057E+01  0.46746031057E+01  0.00000000000E+00 0. -1.
         -2   -1    0    0    0  501 -0.00000000000E+00 -0.00000000000E+00 -0.26295948506E+03  0.26295948506E+03  0.00000000000E+00 0.  1.
          1    1    1    2  502    0  0.88690533457E+01  0.20627567695E+02 -0.26367797922E+02  0.34632606363E+02  0.00000000000E+00 0. -1.
         -1    1    1    2    0  501 -0.88690533457E+01 -0.20627567695E+02 -0.23191708403E+03  0.23300148180E+03  0.00000000000E+00 0.  1.
</event>
<event>
 4    1  0.6888348E+001  0.2163484E+02  0.7546771E-02  0.1510391E+00
          2   -1    0    0  502    0  0.00000000000E+00  0.00000000000E+00  0.10628787135E+03  0.10628787135E+03  0.00000000000E+00 0. -1.
         -2   -1    0    0    0  501 -0.00000000000E+00 -0.00000000000E+00 -0.44435800544E+01  0.44435800544E+01  0.00000000000E+00 0.  1.
          1    1    1    2  502    0 -0.21606001391E+02  0.11166515358E+01  0.56163324597E+02  0.60186254548E+02  0.00000000000E+00 0.  1.
         -1    1    1    2    0  501  0.21606001391E+02 -0.11166515358E+01  0.45680966702E+02  0.50545196859E+02  0.00000000000E+00 0. -1.
</event>
<event>
 4    1  0.6888348E+001  0.3291173E+02  0.7546771E-02  0.1395870E+00
          2   -1    0    0  502    0  0.00000000000E+00  0.00000000000E+00  0.66247721964E+03  0.66247721964E+03  0.00000000000E+00 0.  1.
         -2   -1    0    0    0  501 -0.00000000000E+00 -0.00000000000E+00 -0.18543795299E+01  0.18543795299E+01  0.00000000000E+00 0. -1.
          1    1    1    2  502    0 -0.12707153583E+02 -0.30359678697E+02  0.21607450920E+03  0.21856663828E+03  0.00000000000E+00 0.  1.
         -1    1    1    2    0  501  0.12707153583E+02  0.30359678697E+02  0.44454833092E+03  0.44576496090E+03  0.00000000000E+00 0. -1.
</event>
<event>
 4    1  0.6888348E+001  0.2194269E+02  0.7546771E-02  0.1506219E+00
          2   -1    0    0  502    0  0.00000000000E+00  0.00000000000E+00  0.46749325390E+02  0.46749325390E+02  0.00000000000E+00 0.  1.
         -2   -1    0    0    0  501 -0.00000000000E+00 -0.00000000000E+00 -0.15183476194E+02  0.15183476194E+02  0.00000000000E+00 0. -1.
          1    1    1    2  502    0 -0.17216458703E+02 -0.13604239174E+02  0.33346145529E+02  0.39918005905E+02  0.00000000000E+00 0.  1.
         -1    1    1    2    0  501  0.17216458703E+02  0.13604239174E+02 -0.17802963337E+01  0.22014795679E+02  0.00000000000E+00 0. -1.
</event>
<event>
 4    1  0.6888348E+001  0.2580985E+02  0.7546771E-02  0.1459944E+00
          2   -1    0    0  502    0  0.00000000000E+00  0.00000000000E+00  0.65776750602E+03  0.65776750602E+03  0.00000000000E+00 0.  1.
         -2   -1    0    0    0  501 -0.00000000000E+00 -0.00000000000E+00 -0.10140268681E+01  0.10140268681E+01  0.00000000000E+00 0. -1.
          1    1    1    2  502    0 -0.19883265783E+02 -0.16456124939E+02  0.31664837241E+03  0.31769850496E+03  0.00000000000E+00 0. -1.
         -1    1    1    2    0  501  0.19883265783E+02  0.16456124939E+02  0.34010510675E+03  0.34108302793E+03  0.00000000000E+00 0.  1.
</event>
<event>
 4    1  0.6888348E+001  0.3171803E+02  0.7546771E-02  0.1405232E+00
          2   -1    0    0  502    0  0.00000000000E+00  0.00000000000E+00  0.31864044027E+03  0.31864044027E+03  0.00000000000E+00 0.  1.
         -2   -1    0    0    0  501 -0.00000000000E+00 -0.00000000000E+00 -0.40292439810E+01  0.40292439810E+01  0.00000000000E+00 0. -1.
          1    1    1    2  502    0 -0.66100763147E+01 -0.31021607099E+02  0.82252489435E+02  0.88156141216E+02  0.00000000000E+00 0. -1.
         -1    1    1    2    0  501  0.66100763147E+01  0.31021607099E+02  0.23235870685E+03  0.23451354303E+03  0.00000000000E+00 0.  1.
</event>
<event>
 4    1  0.6888348E+001  0.2587800E+02  0.7546771E-02  0.1459216E+00
          2   -1    0    0  502    0  0.00000000000E+00  0.00000000000E+00  0.19674167014E+04  0.19674167014E+04  0.00000000000E+00 0.  1.
         -2   -1    0    0    0  501 -0.00000000000E+00 -0.00000000000E+00 -0.38776372476E+00  0.38776372476E+00  0.00000000000E+00 0. -1.
          1    1    1    2  502    0  0.68332975196E+01  0.24959505247E+02  0.63957713476E+03  0.64010044694E+03  0.00000000000E+00 0.  1.
         -1    1    1    2    0  501 -0.68332975196E+01 -0.24959505247E+02  0.13274518029E+04  0.13277040181E+04  0.00000000000E+00 0. -1.
</event>
<event>
 4    1  0.6888348E+001  0.2191142E+02  0.7546771E-02  0.1506639E+00
          2   -1    0    0  502    0  0.00000000000E+00  0.00000000000E+00  0.10436482809E+03  0.10436482809E+03  0.00000000000E+00 0.  1.
         -2   -1    0    0    0  501 -0.00000000000E+00 -0.00000000000E+00 -0.53958447358E+01  0.53958447358E+01  0.00000000000E+00 0. -1.
          1    1    1    2  502    0  0.20572768437E+02 -0.75413287577E+01  0.70557033994E+02  0.73881022506E+02  0.00000000000E+00 0.  1.
         -1    1    1    2    0  501 -0.20572768437E+02  0.75413287577E+01  0.28411949359E+02  0.35879650318E+02  0.00000000000E+00 0. -1.
</event>
<event>
 4    1  0.6888348E+001  0.2351777E+02  0.7546771E-02  0.1486097E+00
          2   -1    0    0  502    0  0.00000000000E+00  0.00000000000E+00  0.47682371314E+02  0.47682371314E+02  0.00000000000E+00 0.  1.
         -2   -1    0    0    0  501 -0.00000000000E+00 -0.00000000000E+00 -0.11605207878E+02  0.11605207878E+02  0.00000000000E+00 0. -1.
          1    1    1    2  502    0 -0.49591799081E+01  0.22988955777E+02  0.17373817134E+02  0.29239272817E+02  0.00000000000E+00 0. -1.
         -1    1    1    2    0  501  0.49591799081E+01 -0.22988955777E+02  0.18703346302E+02  0.30048306374E+02  0.00000000000E+00 0.  1.
</event>
<event>
 4    1  0.6888348E+001  0.2113332E+02  0.7546771E-02  0.1517370E+00
          2   -1    0    0  502    0  0.00000000000E+00  0.00000000000E+00  0.57906809541E+00  0.57906809541E+00  0.00000000000E+00 0. -1.
         -2   -1    0    0    0  501 -0.00000000000E+00 -0.00000000000E+00 -0.77179836783E+03  0.77179836783E+03  0.00000000000E+00 0.  1.
          1    1    1    2  502    0  0.15394775366E+02  0.14478200494E+02 -0.37549766847E+03  0.37609189891E+03  0.00000000000E+00 0.  1.
         -1    1    1    2    0  501 -0.15394775366E+02 -0.14478200494E+02 -0.39572163126E+03  0.39628553701E+03  0.00000000000E+00 0. -1.
</event>
<event>
 4    1  0.6888348E+001  0.2216221E+02  0.7546771E-02  0.1503295E+00
          2   -1    0    0  502    0  0.00000000000E+00  0.00000000000E+00  0.15789613029E+04  0.15789613029E+04  0.00000000000E+00 0. -1.
         -2   -1    0    0    0  501 -0.00000000000E+00 -0.00000000000E+00 -0.33766071846E+00  0.33766071846E+00  0.00000000000E+00 0.  1.
          1    1    1    2  502    0 -0.73988958125E+01  0.20890662135E+02  0.10109171314E+04  0.10111600318E+04  0.00000000000E+00 0. -1.
         -1    1    1    2    0  501  0.73988958125E+01 -0.20890662135E+02  0.56770651081E+03  0.56813893181E+03  0.00000000000E+00 0.  1.
</event>
<event>
 4    1  0.6888348E+001  0.3589756E+02  0.7546771E-02  0.1374361E+00
          2   -1    0    0  502    0  0.00000000000E+00  0.00000000000E+00  0.19214592562E+04  0.19214592562E+04  0.00000000000E+00 0.  1.
         -2   -1    0    0    0  501 -0.00000000000E+00 -0.00000000000E+00 -0.69400963016E+00  0.69400963016E+00  0.00000000000E+00 0. -1.
          1    1    1    2  502    0 -0.53028744586E+01  0.35503725145E+02  0.11366889774E+04  0.11372556732E+04  0.00000000000E+00 0.  1.
         -1    1    1    2    0  501  0.53028744586E+01 -0.35503725145E+02  0.78407626921E+03  0.78489759263E+03  0.00000000000E+00 0. -1.
</event>
<event>
 4    1  0.6888348E+001  0.2507731E+02  0.7546771E-02  0.1467940E+00
          2   -1    0    0  502    0  0.00000000000E+00  0.00000000000E+00  0.55699436086E+03  0.55699436086E+03  0.00000000000E+00 0. -1.
         -2   -1    0    0    0  501 -0.00000000000E+00 -0.00000000000E+00 -0.11871384729E+01  0.11871384729E+01  0.00000000000E+00 0.  1.
          1    1    1    2  502    0  0.84604957297E+01  0.23607022903E+02  0.21616460577E+03  0.21761435684E+03  0.00000000000E+00 0.  1.
         -1    1    1    2    0  501 -0.84604957297E+01 -0.23607022903E+02  0.33964261662E+03  0.34056714248E+03  0.00000000000E+00 0. -1.
</event>
<event>
 4    1  0.6888348E+001  0.5051114E+02  0.7546771E-02  0.1295971E+00
          2   -1    0    0  502    0  0.00000000000E+00  0.00000000000E+00  0.36085463813E+02  0.36085463813E+02  0.00000000000E+00 0. -1.
         -2   -1    0    0    0  501 -0.00000000000E+00 -0.00000000000E+00 -0.73784815976E+02  0.73784815976E+02  0.00000000000E+00 0.  1.
          1    1    1    2  502    0 -0.22935443672E+02 -0.45003784950E+02 -0.76237578448E+01  0.51083235214E+02  0.00000000000E+00 0. -1.
         -1    1    1    2    0  501  0.22935443672E+02  0.45003784950E+02 -0.30075594318E+02  0.58787044575E+02  0.00000000000E+00 0.  1.
</event>
<event>
 4    1  0.6888348E+001  0.2059785E+02  0.7546771E-02  0.1525085E+00
          2   -1    0    0  502    0  0.00000000000E+00  0.00000000000E+00  0.10841719348E+04  0.10841719348E+04  0.00000000000E+00 0. -1.
         -2   -1    0    0    0  501 -0.00000000000E+00 -0.00000000000E+00 -0.40866342454E+00  0.40866342454E+00  0.00000000000E+00 0.  1.
          1    1    1    2  502    0 -0.20582107445E+02 -0.80516584334E+00  0.43020482791E+03  0.43069764963E+03  0.00000000000E+00 0.  1.
         -1    1    1    2    0  501  0.20582107445E+02  0.80516584334E+00  0.65355844346E+03  0.65388294859E+03  0.00000000000E+00 0. -1.
</event>
<event>
 4    1  0.6888348E+001  0.2611741E+02  0.7546771E-02  0.1456681E+00
          2   -1    0    0  502    0  0.00000000000E+00  0.00000000000E+00  0.30464758641E+03  0.30464758641E+03  0.00000000000E+00 0. -1.
         -2   -1    0    0    0  501 -0.00000000000E+00 -0.00000000000E+00 -0.22478258531E+01  0.22478258531E+01  0.00000000000E+00 0.  1.
          1    1    1    2  502    0  0.19074774302E+02  0.17840183473E+02  0.14160835821E+03  0.14399668842E+03  0.00000000000E+00 0.  1.
         -1    1    1    2    0  501 -0.19074774302E+02 -0.17840183473E+02  0.16079140235E+03  0.16289872384E+03  0.00000000000E+00 0. -1.
</event>
<event>
 4    1  0.6888348E+001  0.2025734E+02  0.7546771E-02  0.1530137E+00
          2   -1    0    0  502    0  0.00000000000E+00  0.00000000000E+00  0.52627150710E+03  0.52627150710E+03  0.00000000000E+00 0. -1.
         -2   -1    0    0    0  501 -0.00000000000E+00 -0.00000000000E+00 -0.15557743265E+01  0.15557743265E+01  0.00000000000E+00 0.  1.
          1    1    1    2  502    0 -0.13856450603E+02 -0.14776964296E+02  0.75966251723E+02  0.78620807030E+02  0.00000000000E+00 0.  1.
         -1    1    1    2    0  501  0.13856450603E+02  0.14776964296E+02  0.44874948105E+03  0.44920647440E+03  0.00000000000E+00 0. -1.
</event>
<event>
 4    1  0.6888348E+001  0.2133602E+02  0.7546771E-02  0.1514521E+00
          2   -1    0    0  502    0  0.00000000000E+00  0.00000000000E+00  0.27759605380E+02  0.27759605380E+02  0.00000000000E+00 0. -1.
         -2   -1    0    0    0  501 -0.00000000000E+00 -0.00000000000E+00 -0.16555121885E+02  0.16555121885E+02  0.00000000000E+00 0.  1.
          1    1    1    2  502    0  0.20243152557E+02 -0.67409696086E+01  0.77549129557E+01  0.22701642488E+02  0.00000000000E+00 0. -1.
         -1    1    1    2    0  501 -0.20243152557E+02  0.67409696086E+01  0.34495705395E+01  0.21613084778E+02  0.00000000000E+00 0.  1.
</event>
<event>
 4    1  0.6888348E+001  0.2115374E+02  0.7546771E-02  0.1517081E+00
          2   -1    0    0  502    0  0.00000000000E+00  0.00000000000E+00  0.27551859950E+03  0.27551859950E+03  0.00000000000E+00 0. -1.
         -2   -1    0    0    0  501 -0.00000000000E+00 -0.00000000000E+00 -0.19780968818E+01  0.19780968818E+01  0.00000000000E+00 0.  1.
          1    1    1    2  502    0 -0.14085101694E+02  0.15782599267E+02  0.78078134029E+02  0.80892988218E+02  0.00000000000E+00 0.  1.
         -1    1    1    2    0  501  0.14085101694E+02 -0.15782599267E+02  0.19546236858E+03  0.19660370816E+03  0.00000000000E+00 0. -1.
</event>
<event>
 4    1  0.6888348E+001  0.3814059E+02  0.7546771E-02  0.1359740E+00
          2   -1    0    0  502    0  0.00000000000E+00  0.00000000000E+00  0.48366485733E+01  0.48366485733E+01  0.00000000000E+00 0. -1.
         -2   -1    0    0    0  501 -0.00000000000E+00 -0.00000000000E+00 -0.31218527229E+03  0.31218527229E+03  0.00000000000E+00 0.  1.
          1    1    1    2  502    0 -0.27953178821E+02  0.25948494264E+02 -0.12335968748E+03  0.12912132688E+03  0.00000000000E+00 0. -1.
         -1    1    1    2    0  501  0.27953178821E+02 -0.25948494264E+02 -0.18398893624E+03  0.18790059398E+03  0.00000000000E+00 0.  1.
</event>
<event>
 4    1  0.6888348E+001  0.2005142E+02  0.7546771E-02  0.1533251E+00
          2   -1    0    0  502    0  0.00000000000E+00  0.00000000000E+00  0.39025858753E+02  0.39025858753E+02  0.00000000000E+00 0. -1.
         -2   -1    0    0    0  501 -0.00000000000E+00 -0.00000000000E+00 -0.10864560746E+02  0.10864560746E+02  0.00000000000E+00 0.  1.
          1    1    1    2  502    0 -0.16723065224E+02  0.11063395829E+02  0.84063137811E+01  0.21742257223E+02  0.00000000000E+00 0.  1.
         -1    1    1    2    0  501  0.16723065224E+02 -0.11063395829E+02  0.19754984227E+02  0.28148162277E+02  0.00000000000E+00 0. -1.
</event>
<event>
 4    1  0.6888348E+001  0.3428133E+02  0.7546771E-02  0.1385687E+00
          2   -1    0    0  502    0  0.00000000000E+00  0.00000000000E+00  0.76266606192E+01  0.76266606192E+01  0.00000000000E+00 0. -1.
         -2   -1    0    0    0  501 -0.00000000000E+00 -0.00000000000E+00 -0.38994459459E+03  0.38994459459E+03  0.00000000000E+00 0.  1.
          1    1    1    2  502    0  0.18197632504E+02  0.29052633582E+02 -0.34575687815E+03  0.34745219547E+03  0.00000000000E+00 0.  1.
         -1    1    1    2    0  501 -0.18197632504E+02 -0.29052633582E+02 -0.36561055824E+02  0.50119059745E+02  0.00000000000E+00 0. -1.
</event>
<event>
 4    1  0.6888348E+001  0.2136468E+02  0.7546771E-02  0.1514121E+00
          2   -1    0    0  502    0  0.00000000000E+00  0.00000000000E+00  0.13833760851E+04  0.13833760851E+04  0.00000000000E+00 0. -1.
         -2   -1    0    0    0  501 -0.00000000000E+00 -0.00000000000E+00 -0.32999016173E+00  0.32999016173E+00  0.00000000000E+00 0.  1.
          1    1    1    2  502    0 -0.17266387818E+02  0.12582578554E+02  0.69884053666E+03  0.69916703663E+03  0.00000000000E+00 0.  1.
         -1    1    1    2    0  501  0.17266387818E+02 -0.12582578554E+02  0.68420555824E+03  0.68453903859E+03  0.00000000000E+00 0. -1.
</event>
<event>
 4    1  0.6888348E+001  0.2005643E+02  0.7546771E-02  0.1533175E+00
          2   -1    0    0  502    0  0.00000000000E+00  0.00000000000E+00  0.33683901144E+00  0.33683901144E+00  0.00000000000E+00 0. -1.
         -2   -1    0    0    0  501 -0.00000000000E+00 -0.00000000000E+00 -0.12083619157E+04  0.12083619157E+04  0.00000000000E+00 0.  1.
          1    1    1    2  502    0 -0.13732664166E+02 -0.14617608548E+02 -0.66938782040E+03  0.66968822197E+03  0.00000000000E+00 0. -1.
         -1    1    1    2    0  501  0.13732664166E+02  0.14617608548E+02 -0.53863725628E+03  0.53901053273E+03  0.00000000000E+00 0.  1.
</event>
<event>
 4    1  0.6888348E+001  0.2030833E+02  0.7546771E-02  0.1529373E+00
          2   -1    0    0  502    0  0.00000000000E+00  0.00000000000E+00  0.33446094276E+03  0.33446094276E+03  0.00000000000E+00 0.  1.
         -2   -1    0    0    0  501 -0.00000000000E+00 -0.00000000000E+00 -0.12825439286E+01  0.12825439286E+01  0.00000000000E+00 0. -1.
          1    1    1    2  502    0  0.71967301574E+01 -0.18990400449E+02  0.19954558520E+03  0.20057634159E+03  0.00000000000E+00 0.  1.
         -1    1    1    2    0  501 -0.71967301574E+01  0.18990400449E+02  0.13363281363E+03  0.13516714510E+03  0.00000000000E+00 0. -1.
</event>
<event>
 4    1  0.6888348E+001  0.8163443E+02  0.7546771E-02  0.1200103E+00
          2   -1    0    0  502    0  0.00000000000E+00  0.00000000000E+00  0.11850571099E+03  0.11850571099E+03  0.00000000000E+00 0. -1.
         -2   -1    0    0    0  501 -0.00000000000E+00 -0.00000000000E+00 -0.56780400673E+02  0.56780400673E+02  0.00000000000E+00 0.  1.
          1    1    1    2  502    0  0.26314921701E+02 -0.77276808749E+02  0.22273764234E+02  0.84618560893E+02  0.00000000000E+00 0. -1.
         -1    1    1    2    0  501 -0.26314921701E+02  0.77276808749E+02  0.39451546086E+02  0.90667550772E+02  0.00000000000E+00 0.  1.
</event>
<event>
 4    1  0.6888348E+001  0.2801903E+02  0.7546771E-02  0.1437632E+00
          2   -1    0    0  502    0  0.00000000000E+00  0.00000000000E+00  0.11931787800E+02  0.11931787800E+02  0.00000000000E+00 0.  1.
         -2   -1    0    0    0  501 -0.00000000000E+00 -0.00000000000E+00 -0.65842304364E+02  0.65842304364E+02  0.00000000000E+00 0. -1.
          1    1    1    2  502    0 -0.22046844312E+02  0.17291698615E+02 -0.27984381596E+02  0.39600401493E+02  0.00000000000E+00 0.  1.
         -1    1    1    2    0  501  0.22046844312E+02 -0.17291698615E+02 -0.25926134968E+02  0.38173690672E+02  0.00000000000E+00 0. -1.
</event>
<event>
 4    1  0.6888348E+001  0.3201543E+02  0.7546771E-02  0.1402855E+00
          2   -1    0    0  502    0  0.00000000000E+00  0.00000000000E+00  0.49219405364E+03  0.49219405364E+03  0.00000000000E+00 0.  1.
         -2   -1    0    0    0  501 -0.00000000000E+00 -0.00000000000E+00 -0.35006674613E+01  0.35006674613E+01  0.00000000000E+00 0. -1.
          1    1    1    2  502    0 -0.20389231498E+02 -0.24683335452E+02  0.40209858977E+03  0.40337112404E+03  0.00000000000E+00 0.  1.
         -1    1    1    2    0  501  0.20389231498E+02  0.24683335452E+02  0.86594796403E+02  0.92323597061E+02  0.00000000000E+00 0. -1.
</event>
<event>
 4    1  0.6888348E+001  0.2219562E+02  0.7546771E-02  0.1502854E+00
          2   -1    0    0  502    0  0.00000000000E+00  0.00000000000E+00  0.85513323304E+03  0.85513323304E+03  0.00000000000E+00 0. -1.
         -2   -1    0    0    0  501 -0.00000000000E+00 -0.00000000000E+00 -0.59463409343E+00  0.59463409343E+00  0.00000000000E+00 0.  1.
          1    1    1    2  502    0 -0.63758226885E+01  0.21260159647E+02  0.50279972832E+03  0.50328939220E+03  0.00000000000E+00 0. -1.
         -1    1    1    2    0  501  0.63758226885E+01 -0.21260159647E+02  0.35173887062E+03  0.35243847493E+03  0.00000000000E+00 0.  1.
</event>
<event>
 4    1  0.6888348E+001  0.2740318E+02  0.7546771E-02  0.1443600E+00
          2   -1    0    0  502    0  0.00000000000E+00  0.00000000000E+00  0.56967748991E+01  0.56967748991E+01  0.00000000000E+00 0.  1.
         -2   -1    0    0    0  501 -0.00000000000E+00 -0.00000000000E+00 -0.13447324244E+03  0.13447324244E+03  0.00000000000E+00 0. -1.
          1    1    1    2  502    0 -0.24274579801E+02  0.12715305586E+02 -0.74237547631E+02  0.79133733002E+02  0.00000000000E+00 0. -1.
         -1    1    1    2    0  501  0.24274579801E+02 -0.12715305586E+02 -0.54538919907E+02  0.61036284333E+02  0.00000000000E+00 0.  1.
</event>
<event>
 4    1  0.6888348E+001  0.2154992E+02  0.7546771E-02  0.1511556E+00
          2   -1    0    0  502    0  0.00000000000E+00  0.00000000000E+00  0.30619252691E+03  0.30619252691E+03  0.00000000000E+00 0.  1.
         -2   -1    0    0    0  501 -0.00000000000E+00 -0.00000000000E+00 -0.15174822672E+01  0.15174822672E+01  0.00000000000E+00 0. -1.
          1    1    1    2  502    0 -0.17416965985E+02 -0.12690477976E+02  0.14882052526E+03  0.15037269591E+03  0.00000000000E+00 0. -1.
         -1    1    1    2    0  501  0.17416965985E+02  0.12690477976E+02  0.15585451939E+03  0.15733731327E+03  0.00000000000E+00 0.  1.
</event>
<event>
 4    1  0.6888348E+001  0.2639494E+02  0.7546771E-02  0.1453783E+00
          2   -1    0    0  502    0  0.00000000000E+00  0.00000000000E+00  0.19034318772E+04  0.19034318772E+04  0.00000000000E+00 0. -1.
         -2   -1    0    0    0  501 -0.00000000000E+00 -0.00000000000E+00 -0.39766632647E+00  0.39766632647E+00  0.00000000000E+00 0.  1.
          1    1    1    2  502    0  0.26020352216E+02  0.44310248439E+01  0.12200549178E+04  0.12203404014E+04  0.00000000000E+00 0. -1.
         -1    1    1    2    0  501 -0.26020352216E+02 -0.44310248439E+01  0.68297929304E+03  0.68348914214E+03  0.00000000000E+00 0.  1.
</event>
<event>
 4    1  0.6888348E+001  0.2804379E+02  0.7546771E-02  0.1437396E+00
          2   -1    0    0  502    0  0.00000000000E+00  0.00000000000E+00  0.21576898392E+02  0.21576898392E+02  0.00000000000E+00 0. -1.
         -2   -1    0    0    0  501 -0.00000000000E+00 -0.00000000000E+00 -0.11342368499E+03  0.11342368499E+03  0.00000000000E+00 0.  1.
          1    1    1    2  502    0 -0.27032927310E+02 -0.74615820938E+01  0.96834184421E+01  0.29668551683E+02  0.00000000000E+00 0. -1.
         -1    1    1    2    0  501  0.27032927310E+02  0.74615820938E+01 -0.10153020504E+03  0.10533203170E+03  0.00000000000E+00 0.  1.
</event>
<event>
 4    1  0.6888348E+001  0.2927648E+02  0.7546771E-02  0.1425990E+00
          2   -1    0    0  502    0  0.00000000000E+00  0.00000000000E+00  0.77659726434E+02  0.77659726434E+02  0.00000000000E+00 0. -1.
         -2   -1    0    0    0  501 -0.00000000000E+00 -0.00000000000E+00 -0.15872652400E+02  0.15872652400E+02  0.00000000000E+00 0.  1.
          1    1    1    2  502    0 -0.28846974126E+02 -0.49964133567E+01  0.56706946600E+02  0.63818413138E+02  0.00000000000E+00 0. -1.
         -1    1    1    2    0  501  0.28846974126E+02  0.49964133567E+01  0.50801274335E+01  0.29713965697E+02  0.00000000000E+00 0.  1.
</event>
<event>
 4    1  0.6888348E+001  0.2108632E+02  0.7546771E-02  0.1518036E+00
          2   -1    0    0  502    0  0.00000000000E+00  0.00000000000E+00  0.17676152569E+03  0.17676152569E+03  0.00000000000E+00 0. -1.
         -2   -1    0    0    0  501 -0.00000000000E+00 -0.00000000000E+00 -0.30217501944E+01  0.30217501944E+01  0.00000000000E+00 0.  1.
          1    1    1    2  502    0 -0.18768966281E+02  0.96103513296E+01  0.50074065991E+02  0.54332725247E+02  0.00000000000E+00 0.  1.
         -1    1    1    2    0  501  0.18768966281E+02 -0.96103513296E+01  0.12366570951E+03  0.12545055064E+03  0.00000000000E+00 0. -1.
</event>
<event>
 4    1  0.6888348E+001  0.2026342E+02  0.7546771E-02  0.1530046E+00
          2   -1    0    0  502    0  0.00000000000E+00  0.00000000000E+00  0.17478594699E+04  0.17478594699E+04  0.00000000000E+00 0. -1.
         -2   -1    0    0    0  501 -0.00000000000E+00 -0.00000000000E+00 -0.24908522215E+00  0.24908522215E+00  0.00000000000E+00 0.  1.
          1    1    1    2  502    0  0.10553521766E+02 -0.17298248504E+02  0.66536367905E+03  0.66567216527E+03  0.00000000000E+00 0. -1.
         -1    1    1    2    0  501 -0.10553521766E+02  0.17298248504E+02  0.10822467056E+04  0.10824363898E+04  0.00000000000E+00 0.  1.
</event>
<event>
 4    1  0.6888348E+001  0.2169009E+02  0.7546771E-02  0.1509636E+00
          2   -1    0    0  502    0  0.00000000000E+00  0.00000000000E+00  0.59450864230E+03  0.59450864230E+03  0.00000000000E+00 0. -1.
         -2   -1    0    0    0  501 -0.00000000000E+00 -0.00000000000E+00 -0.90121499162E+00  0.90121499162E+00  0.00000000000E+00 0.  1.
          1    1    1    2  502    0  0.11412092118E+02  0.18445164341E+02  0.19285565616E+03  0.19407154363E+03  0.00000000000E+00 0.  1.
         -1    1    1    2    0  501 -0.11412092118E+02 -0.18445164341E+02  0.40075177115E+03  0.40133831366E+03  0.00000000000E+00 0. -1.
</event>
<event>
 4    1  0.6888348E+001  0.2771471E+02  0.7546771E-02  0.1440558E+00
          2   -1    0    0  502    0  0.00000000000E+00  0.00000000000E+00  0.33464869314E+03  0.33464869314E+03  0.00000000000E+00 0. -1.
         -2   -1    0    0    0  501 -0.00000000000E+00 -0.00000000000E+00 -0.23235087681E+01  0.23235087681E+01  0.00000000000E+00 0.  1.
          1    1    1    2  502    0 -0.15519640351E+02 -0.22961837250E+02  0.14758436030E+03  0.15016407231E+03  0.00000000000E+00 0.  1.
         -1    1    1    2    0  501  0.15519640351E+02  0.22961837250E+02  0.18474082407E+03  0.18680812960E+03  0.00000000000E+00 0. -1.
</event>
<event>
 4    1  0.6888348E+001  0.2903808E+02  0.7546771E-02  0.1428144E+00
          2   -1    0    0  502    0  0.00000000000E+00  0.00000000000E+00  0.25800428593E+02  0.25800428593E+02  0.00000000000E+00 0.  1.
         -2   -1    0    0    0  501 -0.00000000000E+00 -0.00000000000E+00 -0.33252395940E+02  0.33252395940E+02  0.00000000000E+00 0. -1.
          1    1    1    2  502    0  0.13581469291E+01  0.29006300355E+02 -0.75930469692E+01  0.30014402970E+02  0.00000000000E+00 0. -1.
         -1    1    1    2    0  501 -0.13581469291E+01 -0.29006300355E+02  0.14107962181E+00  0.29038421563E+02  0.00000000000E+00 0.  1.
</event>
<event>
 4    1  0.6888348E+001  0.2907129E+02  0.7546771E-02  0.1427842E+00
          2   -1    0    0  502    0  0.00000000000E+00  0.00000000000E+00  0.81217625458E+02  0.81217625458E+02  0.00000000000E+00 0. -1.
         -2   -1    0    0    0  501 -0.00000000000E+00 -0.00000000000E+00 -0.10454416885E+02  0.10454416885E+02  0.00000000000E+00 0.  1.
          1    1    1    2  502    0  0.25152689562E+02  0.14576760804E+02  0.32258011141E+02  0.43424866499E+02  0.00000000000E+00 0.  1.
         -1    1    1    2    0  501 -0.25152689562E+02 -0.14576760804E+02  0.38505197431E+02  0.48247175844E+02  0.00000000000E+00 0. -1.
</event>
<event>
 4    1  0.6888348E+001  0.2917454E+02  0.7546771E-02  0.1426908E+00
          2   -1    0    0  502    0  0.00000000000E+00  0.00000000000E+00  0.53140941011E+01  0.53140941011E+01  0.00000000000E+00 0. -1.
         -2   -1    0    0    0  501 -0.00000000000E+00 -0.00000000000E+00 -0.16028590160E+03  0.16028590160E+03  0.00000000000E+00 0.  1.
          1    1    1    2  502    0  0.23577270927E+02 -0.17183310904E+02 -0.75251127161E+02  0.80708648960E+02  0.00000000000E+00 0.  1.
         -1    1    1    2    0  501 -0.23577270927E+02  0.17183310904E+02 -0.79720680340E+02  0.84891346743E+02  0.00000000000E+00 0. -1.
</event>
<event>
 4    1  0.6888348E+001  0.2445530E+02  0.7546771E-02  0.1474990E+00
          2   -1    0    0  502    0  0.00000000000E+00  0.00000000000E+00  0.55450975785E+02  0.55450975785E+02  0.00000000000E+00 0. -1.
         -2   -1    0    0    0  501 -0.00000000000E+00 -0.00000000000E+00 -0.10891806946E+02  0.10891806946E+02  0.00000000000E+00 0.  1.
          1    1    1    2  502    0  0.19809400999E+01  0.24374936260E+02  0.19001097764E+02  0.30969393885E+02  0.00000000000E+00 0. -1.
         -1    1    1    2    0  501 -0.19809400999E+01 -0.24374936260E+02  0.25558071076E+02  0.35373388846E+02  0.00000000000E+00 0.  1.
</event>
<event>
 4    1  0.6888348E+001  0.2166347E+02  0.7546771E-02  0.1509999E+00
          2   -1    0    0  502    0  0.00000000000E+00  0.00000000000E+00  0.12736926792E+03  0.12736926792E+03  0.00000000000E+00 0.  1.
         -2   -1    0    0    0  501 -0.00000000000E+00 -0.00000000000E+00 -0.39417343719E+01  0.39417343719E+01  0.00000000000E+00 0. -1.
          1    1    1    2  502    0 -0.21616991940E+02 -0.14182817670E+01  0.78482508962E+02  0.81417504731E+02  0.00000000000E+00 0.  1.
         -1    1    1    2    0  501  0.21616991940E+02  0.14182817670E+01  0.44945024582E+02  0.49893497556E+02  0.00000000000E+00 0. -1.
</event>
<event>
 4    1  0.6888348E+001  0.8041978E+02  0.7546771E-02  0.1202876E+00
          2   -1    0    0  502    0  0.00000000000E+00  0.00000000000E+00  0.17431511274E+02  0.17431511274E+02  0.00000000000E+00 0. -1.
         -2   -1    0    0    0  501 -0.00000000000E+00 -0.00000000000E+00 -0.45052076935E+03  0.45052076935E+03  0.00000000000E+00 0.  1.
          1    1    1    2  502    0  0.74192817683E+02 -0.31028488253E+02 -0.11825330386E+03  0.14300764019E+03  0.00000000000E+00 0. -1.
         -1    1    1    2    0  501 -0.74192817683E+02  0.31028488253E+02 -0.31483595422E+03  0.32494464044E+03  0.00000000000E+00 0.  1.
</event>
<event>
 4    1  0.6888348E+001  0.2572328E+02  0.7546771E-02  0.1460872E+00
          2   -1    0    0  502    0  0.00000000000E+00  0.00000000000E+00  0.14807442140E+04  0.14807442140E+04  0.00000000000E+00 0.  1.
         -2   -1    0    0    0  501 -0.00000000000E+00 -0.00000000000E+00 -0.15158351628E+01  0.15158351628E+01  0.00000000000E+00 0. -1.
          1    1    1    2  502    0  0.21693004810E+00  0.25722366163E+02  0.13619889565E+04  0.13622318470E+04  0.00000000000E+00 0.  1.
         -1    1    1    2    0  501 -0.21693004810E+00 -0.25722366163E+02  0.11723942232E+03  0.12002820221E+03  0.00000000000E+00 0. -1.
</event>
<event>
 4    1  0.6888348E+001  0.2676426E+02  0.7546771E-02  0.1449991E+00
          2   -1    0    0  502    0  0.00000000000E+00  0.00000000000E+00  0.12652528039E+02  0.12652528039E+02  0.00000000000E+00 0.  1.
         -2   -1    0    0    0  501 -0.00000000000E+00 -0.00000000000E+00 -0.61003191797E+02  0.61003191797E+02  0.00000000000E+00 0. -1.
          1    1    1    2  502    0  0.12254508030E+02 -0.23793962375E+02 -0.14298167156E+02  0.30344080092E+02  0.00000000000E+00 0.  1.
         -1    1    1    2    0  501 -0.12254508030E+02  0.23793962375E+02 -0.34052496601E+02  0.43311639744E+02  0.00000000000E+00 0. -1.
</event>
<event>
 4    1  0.6888348E+001  0.2557202E+02  0.7546771E-02  0.1462505E+00
          2   -1    0    0  502    0  0.00000000000E+00  0.00000000000E+00  0.42227813467E+01  0.42227813467E+01  0.00000000000E+00 0. -1.
         -2   -1    0    0    0  501 -0.00000000000E+00 -0.00000000000E+00 -0.24269589906E+03  0.24269589906E+03  0.00000000000E+00 0.  1.
          1    1    1    2  502    0  0.20041178785E+02 -0.15883305134E+02 -0.44962766012E+02  0.51725994978E+02  0.00000000000E+00 0. -1.
         -1    1    1    2    0  501 -0.20041178785E+02  0.15883305134E+02 -0.19351035170E+03  0.19519268543E+03  0.00000000000E+00 0.  1.
</event>
<event>
 4    1  0.6888348E+001  0.2314225E+02  0.7546771E-02  0.1490720E+00
          2   -1    0    0  502    0  0.00000000000E+00  0.00000000000E+00  0.53962128045E+03  0.53962128045E+03  0.00000000000E+00 0.  1.
         -2   -1    0    0    0  501 -0.00000000000E+00 -0.00000000000E+00 -0.11153917965E+01  0.11153917965E+01  0.00000000000E+00 0. -1.
          1    1    1    2  502    0 -0.21378857829E+02  0.88604965806E+01  0.35900343159E+03  0.35974856199E+03  0.00000000000E+00 0. -1.
         -1    1    1    2    0  501  0.21378857829E+02 -0.88604965806E+01  0.17950245707E+03  0.18098811026E+03  0.00000000000E+00 0.  1.
</event>
<event>
 4    1  0.6888348E+001  0.3375388E+02  0.7546771E-02  0.1389542E+00
          2   -1    0    0  502    0  0.00000000000E+00  0.00000000000E+00  0.15298536484E+03  0.15298536484E+03  0.00000000000E+00 0. -1.
         -2   -1    0    0    0  501 -0.00000000000E+00 -0.00000000000E+00 -0.10473505516E+02  0.10473505516E+02  0.00000000000E+00 0.  1.
          1    1    1    2  502    0  0.32243287710E+02 -0.99847440723E+01  0.27323707551E+02  0.43427061965E+02  0.00000000000E+00 0.  1.
         -1    1    1    2    0  501 -0.32243287710E+02  0.99847440723E+01  0.11518815178E+03  0.12003180839E+03  0.00000000000E+00 0. -1.
</event>
<event>
 4    1  0.6888348E+001  0.2257262E+02  0.7546771E-02  0.1497936E+00
          2   -1    0    0  502    0  0.00000000000E+00  0.00000000000E+00  0.22942605046E+01  0.22942605046E+01  0.00000000000E+00 0.  1.
         -2   -1    0    0    0  501 -0.00000000000E+00 -0.00000000000E+00 -0.22876015496E+03  0.22876015496E+03  0.00000000000E+00 0. -1.
          1    1    1    2  502    0 -0.67567122131E+01  0.21537646380E+02 -0.13296575671E+03  0.13486814238E+03  0.00000000000E+00 0. -1.
         -1    1    1    2    0  501  0.67567122131E+01 -0.21537646380E+02 -0.93500137744E+02  0.96186273084E+02  0.00000000000E+00 0.  1.
</event>
<event>
 4    1  0.6888348E+001  0.2856340E+02  0.7546771E-02  0.1432505E+00
          2   -1    0    0  502    0  0.00000000000E+00  0.00000000000E+00  0.15204270739E+02  0.15204270739E+02  0.00000000000E+00 0.  1.
         -2   -1    0    0    0  501 -0.00000000000E+00 -0.00000000000E+00 -0.53871985728E+02  0.53871985728E+02  0.00000000000E+00 0. -1.
          1    1    1    2  502    0  0.13984078999E+02  0.24906095133E+02 -0.21498105950E+02  0.35749637755E+02  0.00000000000E+00 0. -1.
         -1    1    1    2    0  501 -0.13984078999E+02 -0.24906095133E+02 -0.17169609039E+02  0.33326618712E+02  0.00000000000E+00 0.  1.
</event>
<event>
 4    1  0.6888348E+001  0.2659467E+02  0.7546771E-02  0.1451723E+00
          2   -1    0    0  502    0  0.00000000000E+00  0.00000000000E+00  0.30046094911E+03  0.30046094911E+03  0.00000000000E+00 0. -1.
         -2   -1    0    0    0  501 -0.00000000000E+00 -0.00000000000E+00 -0.29528731625E+01  0.29528731625E+01  0.00000000000E+00 0.  1.
          1    1    1    2  502    0  0.16776947366E+02  0.20635177144E+02  0.80432010799E+02  0.84714726346E+02  0.00000000000E+00 0.  1.
         -1    1    1    2    0  501 -0.16776947366E+02 -0.20635177144E+02  0.21707606515E+03  0.21869909593E+03  0.00000000000E+00 0. -1.
</event>
<event>
 4    1  0.6888348E+001  0.2825618E+02  0.7546771E-02  0.1435382E+00
          2   -1    0    0  502    0  0.00000000000E+00  0.00000000000E+00  0.14127666874E+04  0.14127666874E+04  0.00000000000E+00 0.  1.
         -2   -1    0    0    0  501 -0.00000000000E+00 -0.00000000000E+00 -0.13572340219E+01  0.13572340219E+01  0.00000000000E+00 0. -1.
          1    1    1    2  502    0  0.57151621074E+01  0.27672167551E+02  0.16554987144E+03  0.16794395454E+03  0.00000000000E+00 0. -1.
         -1    1    1    2    0  501 -0.57151621074E+01 -0.27672167551E+02  0.12458595819E+04  0.12461799669E+04  0.00000000000E+00 0.  1.
</event>
<event>
 4    1  0.6888348E+001  0.2214528E+02  0.7546771E-02  0.1503519E+00
          2   -1    0    0  502    0  0.00000000000E+00  0.00000000000E+00  0.41475084593E+03  0.41475084593E+03  0.00000000000E+00 0.  1.
         -2   -1    0    0    0  501 -0.00000000000E+00 -0.00000000000E+00 -0.20561225332E+01  0.20561225332E+01  0.00000000000E+00 0. -1.
          1    1    1    2  502    0 -0.16051197475E+02  0.15256879995E+02  0.70497218662E+02  0.73893647675E+02  0.00000000000E+00 0. -1.
         -1    1    1    2    0  501  0.16051197475E+02 -0.15256879995E+02  0.34219750473E+03  0.34291332079E+03  0.00000000000E+00 0.  1.
</event>
<event>
 4    1  0.6888348E+001  0.2538213E+02  0.7546771E-02  0.1464574E+00
          2   -1    0    0  502    0  0.00000000000E+00  0.00000000000E+00  0.48801708587E+03  0.48801708587E+03  0.00000000000E+00 0. -1.
         -2   -1    0    0    0  501 -0.00000000000E+00 -0.00000000000E+00 -0.13690844609E+01  0.13690844609E+01  0.00000000000E+00 0.  1.
          1    1    1    2  502    0  0.45082733767E+01  0.24978547172E+02  0.28958819133E+03  0.29069842261E+03  0.00000000000E+00 0. -1.
         -1    1    1    2    0  501 -0.45082733767E+01 -0.24978547172E+02  0.19705981008E+03  0.19868774772E+03  0.00000000000E+00 0.  1.
</event>
<event>
 4    1  0.6888348E+001  0.2201271E+02  0.7546771E-02  0.1505282E+00
          2   -1    0    0  502    0  0.00000000000E+00  0.00000000000E+00  0.10840573204E+04  0.10840573204E+04  0.00000000000E+00 0.  1.
         -2   -1    0    0    0  501 -0.00000000000E+00 -0.00000000000E+00 -0.58677661260E+00  0.58677661260E+00  0.00000000000E+00 0. -1.
          1    1    1    2  502    0  0.12891467793E+02 -0.17842916402E+02  0.27703267485E+03  0.27790585194E+03  0.00000000000E+00 0. -1.
         -1    1    1    2    0  501 -0.12891467793E+02  0.17842916402E+02  0.80643786896E+03  0.80673824510E+03  0.00000000000E+00 0.  1.
</event>
<event>
 4    1  0.6888348E+001  0.2396909E+02  0.7546771E-02  0.1480675E+00
          2   -1    0    0  502    0  0.00000000000E+00  0.00000000000E+00  0.42253528554E+03  0.42253528554E+03  0.00000000000E+00 0. -1.
         -2   -1    0    0    0  501 -0.00000000000E+00 -0.00000000000E+00 -0.14021416974E+01  0.14021416974E+01  0.00000000000E+00 0.  1.
          1    1    1    2  502    0  0.21934986869E+02 -0.96630121111E+01  0.24744886366E+03  0.24860703445E+03  0.00000000000E+00 0.  1.
         -1    1    1    2    0  501 -0.21934986869E+02  0.96630121111E+01  0.17368428018E+03  0.17533039278E+03  0.00000000000E+00 0. -1.
</event>
<event>
 4    1  0.6888348E+001  0.2059141E+02  0.7546771E-02  0.1525179E+00
          2   -1    0    0  502    0  0.00000000000E+00  0.00000000000E+00  0.50159584533E+01  0.50159584533E+01  0.00000000000E+00 0.  1.
         -2   -1    0    0    0  501 -0.00000000000E+00 -0.00000000000E+00 -0.11653408658E+03  0.11653408658E+03  0.00000000000E+00 0. -1.
          1    1    1    2  502    0  0.98939313023E+01  0.18058693824E+02 -0.23910383750E+02  0.31554916421E+02  0.00000000000E+00 0. -1.
         -1    1    1    2    0  501 -0.98939313023E+01 -0.18058693824E+02 -0.87607744378E+02  0.89995128614E+02  0.00000000000E+00 0.  1.
</event>
<event>
 4    1  0.6888348E+001  0.2047353E+02  0.7546771E-02  0.1526916E+00
          2   -1    0    0  502    0  0.00000000000E+00  0.00000000000E+00  0.55664153499E+03  0.55664153499E+03  0.00000000000E+00 0. -1.
         -2   -1    0    0    0  501 -0.00000000000E+00 -0.00000000000E+00 -0.77669897280E+00  0.77669897280E+00  0.00000000000E+00 0.  1.
          1    1    1    2  502    0 -0.97147987664E+01  0.18021877835E+02  0.22927447710E+03  0.23018677469E+03  0.00000000000E+00 0.  1.
         -1    1    1    2    0  501  0.97147987664E+01 -0.18021877835E+02  0.32659035892E+03  0.32723145927E+03  0.00000000000E+00 0. -1.
</event>
<event>
 4    1  0.6888348E+001  0.2302387E+02  0.7546771E-02  0.1492199E+00
          2   -1    0    0  502    0  0.00000000000E+00  0.00000000000E+00  0.29340506552E+02  0.29340506552E+02  0.00000000000E+00 0. -1.
         -2   -1    0    0    0  501 -0.00000000000E+00 -0.00000000000E+00 -0.31344035834E+03  0.31344035834E+03  0.00000000000E+00 0.  1.
          1    1    1    2  502    0 -0.19650737662E+02 -0.11997804243E+02 -0.30842745896E+03  0.30928562242E+03  0.00000000000E+00 0.  1.
         -1    1    1    2    0  501  0.19650737662E+02  0.11997804243E+02  0.24327607172E+02  0.33495242468E+02  0.00000000000E+00 0. -1.
</event>
<event>
 4    1  0.6888348E+001  0.7613847E+02  0.7546771E-02  0.1213108E+00
          2   -1    0    0  502    0  0.00000000000E+00  0.00000000000E+00  0.19387201521E+04  0.19387201521E+04  0.00000000000E+00 0.  1.
         -2   -1    0    0    0  501 -0.00000000000E+00 -0.00000000000E+00 -0.48756963249E+01  0.48756963249E+01  0.00000000000E+00 0. -1.
          1    1    1    2  502    0 -0.97649461347E+01  0.75509685863E+02  0.15712549105E+04  0.15730985540E+04  0.00000000000E+00 0.  1.
         -1    1    1    2    0  501  0.97649461347E+01 -0.75509685863E+02  0.36258954529E+03  0.37049729443E+03  0.00000000000E+00 0. -1.
</event>
<event>
 4    1  0.6888348E+001  0.2227344E+02  0.7546771E-02  0.1501829E+00
          2   -1    0    0  502    0  0.00000000000E+00  0.00000000000E+00  0.61899280926E+03  0.61899280926E+03  0.00000000000E+00 0. -1.
         -2   -1    0    0    0  501 -0.00000000000E+00 -0.00000000000E+00 -0.80665736106E+00  0.80665736106E+00  0.00000000000E+00 0.  1.
          1    1    1    2  502    0  0.22272335771E+02  0.22194837020E+00  0.33393654447E+03  0.33467853521E+03  0.00000000000E+00 0.  1.
         -1    1    1    2    0  501 -0.22272335771E+02 -0.22194837020E+00  0.28424960743E+03  0.28512093140E+03  0.00000000000E+00 0. -1.
</event>
<event>
 4    1  0.6888348E+001  0.2978007E+02  0.7546771E-02  0.1421517E+00
          2   -1    0    0  502    0  0.00000000000E+00  0.00000000000E+00  0.65979225753E+01  0.65979225753E+01  0.00000000000E+00 0. -1.
         -2   -1    0    0    0  501 -0.00000000000E+00 -0.00000000000E+00 -0.18301215619E+03  0.18301215619E+03  0.00000000000E+00 0.  1.
          1    1    1    2  502    0 -0.22227845077E+02 -0.19818564939E+02 -0.13706129636E+03  0.14025922990E+03  0.00000000000E+00 0.  1.
         -1    1    1    2    0  501  0.22227845077E+02  0.19818564939E+02 -0.39352937259E+02  0.49350848867E+02  0.00000000000E+00 0. -1.
</event>
<event>
 4    1  0.6888348E+001  0.2334124E+02  0.7546771E-02  0.1488257E+00
          2   -1    0    0  502    0  0.00000000000E+00  0.00000000000E+00  0.43602212099E+03  0.43602212099E+03  0.00000000000E+00 0. -1.
         -2   -1    0    0    0  501 -0.00000000000E+00 -0.00000000000E+00 -0.18100078156E+01  0.18100078156E+01  0.00000000000E+00 0.  1.
          1    1    1    2  502    0  0.21694477761E+02  0.86117987572E+01  0.95284298111E+02  0.98101533677E+02  0.00000000000E+00 0.  1.
         -1    1    1    2    0  501 -0.21694477761E+02 -0.86117987572E+01  0.33892781507E+03  0.33973059513E+03  0.00000000000E+00 0. -1.
</event>
<event>
 4    1  0.6888348E+001  0.2609985E+02  0.7546771E-02  0.1456866E+00
          2   -1    0    0  502    0  0.00000000000E+00  0.00000000000E+00  0.21582545454E+03  0.21582545454E+03  0.00000000000E+00 0. -1.
         -2   -1    0    0    0  501 -0.00000000000E+00 -0.00000000000E+00 -0.37521066811E+01  0.37521066811E+01  0.00000000000E+00 0.  1.
          1    1    1    2  502    0  0.69383800723E-02  0.26099853684E+02  0.62285906639E+02  0.67533225721E+02  0.00000000000E+00 0.  1.
         -1    1    1    2    0  501 -0.69383800723E-02 -0.26099853684E+02  0.14978744122E+03  0.15204433550E+03  0.00000000000E+00 0. -1.
</event>
<event>
 4    1  0.6888348E+001  0.2566316E+02  0.7546771E-02  0.1461520E+00
          2   -1    0    0  502    0  0.00000000000E+00  0.00000000000E+00  0.92301744284E+00  0.92301744284E+00  0.00000000000E+00 0. -1.
         -2   -1    0    0    0  501 -0.00000000000E+00 -0.00000000000E+00 -0.77137927199E+03  0.77137927199E+03  0.00000000000E+00 0.  1.
          1    1    1    2  502    0  0.36531970745E+01 -0.25401807912E+02 -0.27947718226E+03  0.28065297628E+03  0.00000000000E+00 0. -1.
         -1    1    1    2    0  501 -0.36531970745E+01  0.25401807912E+02 -0.49097907229E+03  0.49164931315E+03  0.00000000000E+00 0.  1.
</event>
<event>
 4    1  0.6888348E+001  0.2046448E+02  0.7546771E-02  0.1527050E+00
          2   -1    0    0  502    0  0.00000000000E+00  0.00000000000E+00  0.19136431274E+03  0.19136431274E+03  0.00000000000E+00 0.  1.
         -2   -1    0    0    0  501 -0.00000000000E+00 -0.00000000000E+00 -0.21888007332E+01  0.21888007332E+01  0.00000000000E+00 0. -1.
          1    1    1    2  502    0 -0.11688619773E+02 -0.16797954860E+02  0.93398726939E+02  0.95614420008E+02  0.00000000000E+00 0.  1.
         -1    1    1    2    0  501  0.11688619773E+02  0.16797954860E+02  0.95776785067E+02  0.97938693464E+02  0.00000000000E+00 0. -1.
</event>
<event>
 4    1  0.6888348E+001  0.2565511E+02  0.7546771E-02  0.1461606E+00
          2   -1    0    0  502    0  0.00000000000E+00  0.00000000000E+00  0.89184746199E+03  0.89184746199E+03  0.00000000000E+00 0.  1.
         -2   -1    0    0    0  501 -0.00000000000E+00 -0.00000000000E+00 -0.81623036146E+00  0.81623036146E+00  0.00000000000E+00 0. -1.
          1    1    1    2  502    0 -0.25651245828E+02  0.44514632746E+00  0.58369257156E+03  0.58425611051E+03  0.00000000000E+00 0.  1.
         -1    1    1    2    0  501  0.25651245828E+02 -0.44514632746E+00  0.30733866006E+03  0.30840758184E+03  0.00000000000E+00 0. -1.
</event>
<event>
 4    1  0.6888348E+001  0.2214653E+02  0.7546771E-02  0.1503503E+00
          2   -1    0    0  502    0  0.00000000000E+00  0.00000000000E+00  0.12517408532E+04  0.12517408532E+04  0.00000000000E+00 0. -1.
         -2   -1    0    0    0  501 -0.00000000000E+00 -0.00000000000E+00 -0.44797625767E+00  0.44797625767E+00  0.00000000000E+00 0.  1.
          1    1    1    2  502    0 -0.45136151991E+01 -0.21681694343E+02  0.40399226631E+03  0.40459883814E+03  0.00000000000E+00 0.  1.
         -1    1    1    2    0  501  0.45136151991E+01  0.21681694343E+02  0.84730061059E+03  0.84758999127E+03  0.00000000000E+00 0. -1.
</event>
<event>
 4    1  0.6888348E+001  0.2018555E+02  0.7546771E-02  0.1531218E+00
          2   -1    0    0  502    0  0.00000000000E+00  0.00000000000E+00  0.17923726227E+02  0.17923726227E+02  0.00000000000E+00 0. -1.
         -2   -1    0    0    0  501 -0.00000000000E+00 -0.00000000000E+00 -0.24186859556E+02  0.24186859556E+02  0.00000000000E+00 0.  1.
          1    1    1    2  502    0 -0.19210246344E+02  0.61986122751E+01  0.20309763504E+01  0.20287464693E+02  0.00000000000E+00 0. -1.
         -1    1    1    2    0  501  0.19210246344E+02 -0.61986122751E+01 -0.82941096799E+01  0.21823121090E+02  0.00000000000E+00 0.  1.
</event>
<event>
 4    1  0.6888348E+001  0.2096886E+02  0.7546771E-02  0.1519710E+00
          2   -1    0    0  502    0  0.00000000000E+00  0.00000000000E+00  0.22961207291E+03  0.22961207291E+03  0.00000000000E+00 0. -1.
         -2   -1    0    0    0  501 -0.00000000000E+00 -0.00000000000E+00 -0.19157435342E+01  0.19157435342E+01  0.00000000000E+00 0.  1.
          1    1    1    2  502    0  0.90997406890E+01  0.18891476453E+02  0.11147614593E+03  0.11343114332E+03  0.00000000000E+00 0. -1.
         -1    1    1    2    0  501 -0.90997406890E+01 -0.18891476453E+02  0.11622018344E+03  0.11809667312E+03  0.00000000000E+00 0.  1.
</event>
<event>
 4    1  0.6888348E+001  0.3323262E+02  0.7546771E-02  0.1393433E+00
          2   -1    0    0  502    0  0.00000000000E+00  0.00000000000E+00  0.41127808154E+03  0.41127808154E+03  0.00000000000E+00 0.  1.
         -2   -1    0    0    0  501 -0.00000000000E+00 -0.00000000000E+00 -0.40555689413E+01  0.40555689413E+01  0.00000000000E+00 0. -1.
          1    1    1    2  502    0  0.10524458225E+02 -0.31522098826E+02  0.32432129889E+03  0.32601949611E+03  0.00000000000E+00 0.  1.
         -1    1    1    2    0  501 -0.10524458225E+02  0.31522098826E+02  0.82901213716E+02  0.89314154371E+02  0.00000000000E+00 0. -1.
</event>
<event>
 4    1  0.6888348E+001  0.2004187E+02  0.7546771E-02  0.1533397E+00
          2   -1    0    0  502    0  0.00000000000E+00  0.00000000000E+00  0.69644734430E+01  0.69644734430E+01  0.00000000000E+00 0.  1.
         -2   -1    0    0    0  501 -0.00000000000E+00 -0.00000000000E+00 -0.75864512962E+02  0.75864512962E+02  0.00000000000E+00 0. -1.
          1    1    1    2  502    0  0.13656390895E+02  0.14669004550E+02 -0.54728824240E+02  0.58283109984E+02  0.00000000000E+00 0. -1.
         -1    1    1    2    0  501 -0.13656390895E+02 -0.14669004550E+02 -0.14171215279E+02  0.24545876421E+02  0.00000000000E+00 0.  1.
</event>
<event>
 4    1  0.6888348E+001  0.2020745E+02  0.7546771E-02  0.1530888E+00
          2   -1    0    0  502    0  0.00000000000E+00  0.00000000000E+00  0.47923544928E+03  0.47923544928E+03  0.00000000000E+00 0. -1.
         -2   -1    0    0    0  501 -0.00000000000E+00 -0.00000000000E+00 -0.85462528267E+00  0.85462528267E+00  0.00000000000E+00 0.  1.
          1    1    1    2  502    0 -0.14716275866E+02  0.13848181891E+02  0.25232277051E+03  0.25313064105E+03  0.00000000000E+00 0.  1.
         -1    1    1    2    0  501  0.14716275866E+02 -0.13848181891E+02  0.22605805349E+03  0.22695943352E+03  0.00000000000E+00 0. -1.
</event>
<event>
 4    1  0.6888348E+001  0.2884645E+02  0.7546771E-02  0.1429893E+00
          2   -1    0    0  502    0  0.00000000000E+00  0.00000000000E+00  0.37712551500E+02  0.37712551500E+02  0.00000000000E+00 0.  1.
         -2   -1    0    0    0  501 -0.00000000000E+00 -0.00000000000E+00 -0.22364823402E+02  0.22364823402E+02  0.00000000000E+00 0. -1.
          1    1    1    2  502    0  0.22396655167E+02 -0.18179865258E+02  0.11153379922E+02  0.30927585537E+02  0.00000000000E+00 0. -1.
         -1    1    1    2    0  501 -0.22396655167E+02  0.18179865258E+02  0.41943481757E+01  0.29149789366E+02  0.00000000000E+00 0.  1.
</event>
<event>
 4    1  0.6888348E+001  0.2974762E+02  0.7546771E-02  0.1421802E+00
          2   -1    0    0  502    0  0.00000000000E+00  0.00000000000E+00  0.19579338631E+04  0.19579338631E+04  0.00000000000E+00 0. -1.
         -2   -1    0    0    0  501 -0.00000000000E+00 -0.00000000000E+00 -0.46532957844E+00  0.46532957844E+00  0.00000000000E+00 0.  1.
          1    1    1    2  502    0 -0.24002127972E+02 -0.17573246567E+02  0.81279890248E+03  0.81334308691E+03  0.00000000000E+00 0.  1.
         -1    1    1    2    0  501  0.24002127972E+02  0.17573246567E+02  0.11446696310E+04  0.11450561057E+04  0.00000000000E+00 0. -1.
</event>
<event>
 4    1  0.6888348E+001  0.3200720E+02  0.7546771E-02  0.1402920E+00
          2   -1    0    0  502    0  0.00000000000E+00  0.00000000000E+00  0.12757326504E+03  0.12757326504E+03  0.00000000000E+00 0.  1.
         -2   -1    0    0    0  501 -0.00000000000E+00 -0.00000000000E+00 -0.81843619269E+01  0.81843619269E+01  0.00000000000E+00 0. -1.
          1    1    1    2  502    0  0.27662301764E+02 -0.16101490108E+02  0.50383665228E+02  0.59690657932E+02  0.00000000000E+00 0. -1.
         -1    1    1    2    0  501 -0.27662301764E+02  0.16101490108E+02  0.69005237888E+02  0.76066969038E+02  0.00000000000E+00 0.  1.
</event>
<event>
 4    1  0.6888348E+001  0.2091874E+02  0.7546771E-02  0.1520428E+00
          2   -1    0    0  502    0  0.00000000000E+00  0.00000000000E+00  0.51708752504E+01  0.51708752504E+01  0.00000000000E+00 0. -1.
         -2   -1    0    0    0  501 -0.00000000000E+00 -0.00000000000E+00 -0.15313299420E+03  0.15313299420E+03  0.00000000000E+00 0.  1.
          1    1    1    2  502    0 -0.43099042159E+01 -0.20469942345E+02 -0.12692211135E+03  0.12863442838E+03  0.00000000000E+00 0.  1.
         -1    1    1    2    0  501  0.43099042159E+01  0.20469942345E+02 -0.21040007601E+02  0.29669441077E+02  0.00000000000E+00 0. -1.
</event>
<event>
 4    1  0.6888348E+001  0.2161641E+02  0.7546771E-02  0.1510643E+00
          2   -1    0    0  502    0  0.00000000000E+00  0.00000000000E+00  0.14260260662E+02  0.14260260662E+02  0.00000000000E+00 0. -1.
         -2   -1    0    0    0  501 -0.00000000000E+00 -0.00000000000E+00 -0.34158895751E+02  0.34158895751E+02  0.00000000000E+00 0.  1.
          1    1    1    2  502    0  0.42761356901E+01 -0.21189237914E+02 -0.50627502013E+01  0.22201364359E+02  0.00000000000E+00 0. -1.
         -1    1    1    2    0  501 -0.42761356901E+01  0.21189237914E+02 -0.14835884887E+02  0.26217792054E+02  0.00000000000E+00 0.  1.
</event>
<event>
 4    1  0.6888348E+001  0.3071757E+02  0.7546771E-02  0.1413461E+00
          2   -1    0    0  502    0  0.00000000000E+00  0.00000000000E+00  0.68305680923E+01  0.68305680923E+01  0.00000000000E+00 0.  1.
         -2   -1    0    0    0  501 -0.00000000000E+00 -0.00000000000E+00 -0.16056888700E+03  0.16056888700E+03  0.00000000000E+00 0. -1.
          1    1    1    2  502    0 -0.30659845310E+02  0.18823254971E+01 -0.10815190620E+03  0.11242955163E+03  0.00000000000E+00 0. -1.
         -1    1    1    2    0  501  0.30659845310E+02 -0.18823254971E+01 -0.45586412706E+02  0.54969903466E+02  0.00000000000E+00 0.  1.
</event>
<event>
 4    1  0.6888348E+001  0.2078731E+02  0.7546771E-02  0.1522323E+00
          2   -1    0    0  502    0  0.00000000000E+00  0.00000000000E+00  0.77577527401E+01  0.77577527401E+01  0.00000000000E+00 0.  1.
         -2   -1    0    0    0  501 -0.00000000000E+00 -0.00000000000E+00 -0.55735506602E+02  0.55735506602E+02  0.00000000000E+00 0. -1.
          1    1    1    2  502    0 -0.14126364265E+02  0.15249860614E+02 -0.23195763464E+02  0.31147325066E+02  0.00000000000E+00 0. -1.
         -1    1    1    2    0  501  0.14126364265E+02 -0.15249860614E+02 -0.24781990398E+02  0.32345934276E+02  0.00000000000E+00 0.  1.
</event>
<event>
 4    1  0.6888348E+001  0.2044596E+02  0.7546771E-02  0.1527324E+00
          2   -1    0    0  502    0  0.00000000000E+00  0.00000000000E+00  0.30115484476E+03  0.30115484476E+03  0.00000000000E+00 0.  1.
         -2   -1    0    0    0  501 -0.00000000000E+00 -0.00000000000E+00 -0.34672230553E+01  0.34672230553E+01  0.00000000000E+00 0. -1.
          1    1    1    2  502    0 -0.17216467782E+02 -0.11028627419E+02  0.30898938324E+02  0.37051069825E+02  0.00000000000E+00 0. -1.
         -1    1    1    2    0  501  0.17216467782E+02  0.11028627419E+02  0.26678868338E+03  0.26757099799E+03  0.00000000000E+00 0.  1.
</event>
<event>
 4    1  0.6888348E+001  0.2120799E+02  0.7546771E-02  0.1516316E+00
          2   -1    0    0  502    0  0.00000000000E+00  0.00000000000E+00  0.59607969775E+02  0.59607969775E+02  0.00000000000E+00 0.  1.
         -2   -1    0    0    0  501 -0.00000000000E+00 -0.00000000000E+00 -0.75526085847E+01  0.75526085847E+01  0.00000000000E+00 0. -1.
          1    1    1    2  502    0 -0.19389441583E+02 -0.85923381273E+01  0.27049615151E+02  0.34372378434E+02  0.00000000000E+00 0. -1.
         -1    1    1    2    0  501  0.19389441583E+02  0.85923381273E+01  0.25005746039E+02  0.32788199926E+02  0.00000000000E+00 0.  1.
</event>
<event>
 4    1  0.6888348E+001  0.2947372E+02  0.7546771E-02  0.1424226E+00
          2   -1    0    0  502    0  0.00000000000E+00  0.00000000000E+00  0.21654988761E+04  0.21654988761E+04  0.00000000000E+00 0. -1.
         -2   -1    0    0    0  501 -0.00000000000E+00 -0.00000000000E+00 -0.40836379271E+00  0.40836379271E+00  0.00000000000E+00 0.  1.
          1    1    1    2  502    0 -0.29473648174E+02 -0.62905769631E-01  0.12264346386E+04  0.12267887441E+04  0.00000000000E+00 0. -1.
         -1    1    1    2    0  501  0.29473648174E+02  0.62905769631E-01  0.93865587373E+03  0.93911849581E+03  0.00000000000E+00 0.  1.
</event>
<event>
 4    1  0.6888348E+001  0.2047065E+02  0.7546771E-02  0.1526958E+00
          2   -1    0    0  502    0  0.00000000000E+00  0.00000000000E+00  0.11302976958E+01  0.11302976958E+01  0.00000000000E+00 0.  1.
         -2   -1    0    0    0  501 -0.00000000000E+00 -0.00000000000E+00 -0.41641332888E+03  0.41641332888E+03  0.00000000000E+00 0. -1.
          1    1    1    2  502    0 -0.11734779157E+02 -0.16773271356E+02 -0.27678260728E+03  0.27753857275E+03  0.00000000000E+00 0. -1.
         -1    1    1    2    0  501  0.11734779157E+02  0.16773271356E+02 -0.13850042391E+03  0.14000505383E+03  0.00000000000E+00 0.  1.
</event>
<event>
 4    1  0.6888348E+001  0.2525120E+02  0.7546771E-02  0.1466013E+00
          2   -1    0    0  502    0  0.00000000000E+00  0.00000000000E+00  0.67817685016E+03  0.67817685016E+03  0.00000000000E+00 0. -1.
         -2   -1    0    0    0  501 -0.00000000000E+00 -0.00000000000E+00 -0.95869521263E+00  0.95869521263E+00  0.00000000000E+00 0.  1.
          1    1    1    2  502    0 -0.10631141361E+02 -0.22904194966E+02  0.38577093852E+03  0.38659648255E+03  0.00000000000E+00 0. -1.
         -1    1    1    2    0  501  0.10631141361E+02  0.22904194966E+02  0.29144721643E+03  0.29253906282E+03  0.00000000000E+00 0.  1.
</event>
<event>
 4    1  0.6888348E+001  0.3763162E+02  0.7546771E-02  0.1362953E+00
          2   -1    0    0  502    0  0.00000000000E+00  0.00000000000E+00  0.25799462541E+03  0.25799462541E+03  0.00000000000E+00 0.  1.
         -2   -1    0    0    0  501 -0.00000000000E+00 -0.00000000000E+00 -0.60120407668E+01  0.60120407668E+01  0.00000000000E+00 0. -1.
          1    1    1    2  502    0 -0.23929184974E+02 -0.29043634642E+02  0.16492554829E+03  0.16916434343E+03  0.00000000000E+00 0.  1.
         -1    1    1    2    0  501  0.23929184974E+02  0.29043634642E+02  0.87057036346E+02  0.94842322748E+02  0.00000000000E+00 0. -1.
</event>
<event>
 4    1  0.6888348E+001  0.2114995E+02  0.7546771E-02  0.1517135E+00
          2   -1    0    0  502    0  0.00000000000E+00  0.00000000000E+00  0.18117878800E+04  0.18117878800E+04  0.00000000000E+00 0.  1.
         -2   -1    0    0    0  501 -0.00000000000E+00 -0.00000000000E+00 -0.27757090925E+00  0.27757090925E+00  0.00000000000E+00 0. -1.
          1    1    1    2  502    0 -0.18149207465E+01  0.21071934378E+02  0.60455194874E+03  0.60492179584E+03  0.00000000000E+00 0. -1.
         -1    1    1    2    0  501  0.18149207465E+01 -0.21071934378E+02  0.12069583603E+04  0.12071436550E+04  0.00000000000E+00 0.  1.
</event>
<event>
 4    1  0.6888348E+001  0.3684258E+02  0.7546771E-02  0.1368052E+00
          2   -1    0    0  502    0  0.00000000000E+00  0.00000000000E+00  0.15575624431E+04  0.15575624431E+04  0.00000000000E+00 0. -1.
         -2   -1    0    0    0  501 -0.00000000000E+00 -0.00000000000E+00 -0.11049642871E+01  0.11049642871E+01  0.00000000000E+00 0.  1.
          1    1    1    2  502    0 -0.14992255439E+02  0.33654242341E+02  0.11364764321E+04  0.11370734613E+04  0.00000000000E+00 0.  1.
         -1    1    1    2    0  501  0.14992255439E+02 -0.33654242341E+02  0.41998104667E+03  0.42159394601E+03  0.00000000000E+00 0. -1.
</event>
<event>
 4    1  0.6888348E+001  0.2239718E+02  0.7546771E-02  0.1500210E+00
          2   -1    0    0  502    0  0.00000000000E+00  0.00000000000E+00  0.10443896204E+03  0.10443896204E+03  0.00000000000E+00 0. -1.
         -2   -1    0    0    0  501 -0.00000000000E+00 -0.00000000000E+00 -0.53010544102E+01  0.53010544102E+01  0.00000000000E+00 0.  1.
          1    1    1    2  502    0  0.54918315055E+01 -0.21713443691E+02  0.32752444192E+02  0.39678160879E+02  0.00000000000E+00 0. -1.
         -1    1    1    2    0  501 -0.54918315055E+01  0.21713443691E+02  0.66385463441E+02  0.70061855574E+02  0.00000000000E+00 0.  1.
</event>
<event>
 4    1  0.6888348E+001  0.3338723E+02  0.7546771E-02  0.1392270E+00
          2   -1    0    0  502    0  0.00000000000E+00  0.00000000000E+00  0.12226185548E+04  0.12226185548E+04  0.00000000000E+00 0.  1.
         -2   -1    0    0    0  501 -0.00000000000E+00 -0.00000000000E+00 -0.14960219695E+01  0.14960219695E+01  0.00000000000E+00 0. -1.
          1    1    1    2  502    0  0.30107587591E+02  0.14430534357E+02  0.22805789325E+03  0.23048884968E+03  0.00000000000E+00 0. -1.
         -1    1    1    2    0  501 -0.30107587591E+02 -0.14430534357E+02  0.99306463960E+03  0.99362572711E+03  0.00000000000E+00 0.  1.
</event>
<event>
 4    1  0.6888348E+001  0.2071274E+02  0.7546771E-02  0.1523406E+00
          2   -1    0    0  502    0  0.00000000000E+00  0.00000000000E+00  0.10894362447E+04  0.10894362447E+04  0.00000000000E+00 0. -1.
         -2   -1    0    0    0  501 -0.00000000000E+00 -0.00000000000E+00 -0.41127678867E+00  0.41127678867E+00  0.00000000000E+00 0.  1.
          1    1    1    2  502    0  0.86980287346E+01  0.18797925556E+02  0.43217478842E+03  0.43267085118E+03  0.00000000000E+00 0.  1.
         -1    1    1    2    0  501 -0.86980287346E+01 -0.18797925556E+02  0.65685017945E+03  0.65717667027E+03  0.00000000000E+00 0. -1.
</event>
<event>
 4    1  0.6888348E+001  0.2059839E+02  0.7546771E-02  0.1525077E+00
          2   -1    0    0  502    0  0.00000000000E+00  0.00000000000E+00  0.43487222042E+02  0.43487222042E+02  0.00000000000E+00 0. -1.
         -2   -1    0    0    0  501 -0.00000000000E+00 -0.00000000000E+00 -0.16455897837E+02  0.16455897837E+02  0.00000000000E+00 0.  1.
          1    1    1    2  502    0  0.19759985144E+02 -0.58169296436E+01  0.32638772781E+02  0.38595118500E+02  0.00000000000E+00 0. -1.
         -1    1    1    2    0  501 -0.19759985144E+02  0.58169296436E+01 -0.56074485752E+01  0.21348001379E+02  0.00000000000E+00 0.  1.
</event>
<event>
 4    1  0.6888348E+001  0.2144405E+02  0.7546771E-02  0.1513018E+00
          2   -1    0    0  502    0  0.00000000000E+00  0.00000000000E+00  0.18885016567E+01  0.18885016567E+01  0.00000000000E+00 0.  1.
         -2   -1    0    0    0  501 -0.00000000000E+00 -0.00000000000E+00 -0.34015008723E+03  0.34015008723E+03  0.00000000000E+00 0. -1.
          1    1    1    2  502    0 -0.14262680872E+02  0.16013222927E+02 -0.77968707977E+02  0.80863878201E+02  0.00000000000E+00 0.  1.
         -1    1    1    2    0  501  0.14262680872E+02 -0.16013222927E+02 -0.26029287760E+03  0.26117471069E+03  0.00000000000E+00 0. -1.
</event>
<event>
 4    1  0.6888348E+001  0.3147104E+02  0.7546771E-02  0.1407230E+00
          2   -1    0    0  502    0  0.00000000000E+00  0.00000000000E+00  0.44000088694E+02  0.44000088694E+02  0.00000000000E+00 0. -1.
         -2   -1    0    0    0  501 -0.00000000000E+00 -0.00000000000E+00 -0.27654030762E+02  0.27654030762E+02  0.00000000000E+00 0.  1.
          1    1    1    2  502    0 -0.27042043541E+02  0.16098268224E+02  0.23625528095E+02  0.39352152882E+02  0.00000000000E+00 0. -1.
         -1    1    1    2    0  501  0.27042043541E+02 -0.16098268224E+02 -0.72794701629E+01  0.32301966574E+02  0.00000000000E+00 0.  1.
</event>
<event>
 4    1  0.6888348E+001  0.3936498E+02  0.7546771E-02  0.1352248E+00
          2   -1    0    0  502    0  0.00000000000E+00  0.00000000000E+00  0.60006700924E+03  0.60006700924E+03  0.00000000000E+00 0. -1.
         -2   -1    0    0    0  501 -0.00000000000E+00 -0.00000000000E+00 -0.26059579831E+01  0.26059579831E+01  0.00000000000E+00 0.  1.
          1    1    1    2  502    0  0.14224988485E+02  0.36704921893E+02  0.27006809813E+03  0.27292192880E+03  0.00000000000E+00 0. -1.
         -1    1    1    2    0  501 -0.14224988485E+02 -0.36704921893E+02  0.32739295313E+03  0.32975103843E+03  0.00000000000E+00 0.  1.
</event>
<event>
 4    1  0.6888348E+001  0.2059662E+02  0.7546771E-02  0.1525103E+00
          2   -1    0    0  502    0  0.00000000000E+00  0.00000000000E+00  0.12531414228E+03  0.12531414228E+03  0.00000000000E+00 0. -1.
         -2   -1    0    0    0  501 -0.00000000000E+00 -0.00000000000E+00 -0.35129743889E+01  0.35129743889E+01  0.00000000000E+00 0.  1.
          1    1    1    2  502    0 -0.46639029870E+01 -0.20061629126E+02  0.73182318346E+02  0.76025473841E+02  0.00000000000E+00 0.  1.
         -1    1    1    2    0  501  0.46639029870E+01  0.20061629126E+02  0.48618849549E+02  0.52801642831E+02  0.00000000000E+00 0. -1.
</event>
<event>
 4    1  0.6888348E+001  0.2122640E+02  0.7546771E-02  0.1516057E+00
          2   -1    0    0  502    0  0.00000000000E+00  0.00000000000E+00  0.51805224726E+03  0.51805224726E+03  0.00000000000E+00 0. -1.
         -2   -1    0    0    0  501 -0.00000000000E+00 -0.00000000000E+00 -0.91330825570E+00  0.91330825570E+00  0.00000000000E+00 0.  1.
          1    1    1    2  502    0  0.16272826173E+02 -0.13629200469E+02  0.20188179216E+03  0.20299462551E+03  0.00000000000E+00 0.  1.
         -1    1    1    2    0  501 -0.16272826173E+02  0.13629200469E+02  0.31525714684E+03  0.31597093001E+03  0.00000000000E+00 0. -1.
</event>
<event>
 4    1  0.6888348E+001  0.2553493E+02  0.7546771E-02  0.1462907E+00
          2   -1    0    0  502    0  0.00000000000E+00  0.00000000000E+00  0.46836694871E+02  0.46836694871E+02  0.00000000000E+00 0. -1.
         -2   -1    0    0    0  501 -0.00000000000E+00 -0.00000000000E+00 -0.14082763452E+02  0.14082763452E+02  0.00000000000E+00 0.  1.
          1    1    1    2  502    0 -0.18250501772E+02 -0.17859221944E+02  0.13116518068E+02  0.28706718196E+02  0.00000000000E+00 0.  1.
         -1    1    1    2    0  501  0.18250501772E+02  0.17859221944E+02  0.19637413351E+02  0.32212740127E+02  0.00000000000E+00 0. -1.
</event>
<event>
 4    1  0.6888348E+001  0.2467444E+02  0.7546771E-02  0.1472478E+00
          2   -1    0    0  502    0  0.00000000000E+00  0.00000000000E+00  0.49175963193E+00  0.49175963193E+00  0.00000000000E+00 0.  1.
         -2   -1    0    0    0  501 -0.00000000000E+00 -0.00000000000E+00 -0.20772996633E+04  0.20772996633E+04  0.00000000000E+00 0. -1.
          1    1    1    2  502    0  0.20548491721E+02 -0.13659704673E+02 -0.16987404749E+04  0.16989196653E+04  0.00000000000E+00 0. -1.
         -1    1    1    2    0  501 -0.20548491721E+02  0.13659704673E+02 -0.37806742876E+03  0.37887175763E+03  0.00000000000E+00 0.  1.
</event>
<event>
 4    1  0.6888348E+001  0.3137213E+02  0.7546771E-02  0.1408036E+00
          2   -1    0    0  502    0  0.00000000000E+00  0.00000000000E+00  0.88479129537E+01  0.88479129537E+01  0.00000000000E+00 0. -1.
         -2   -1    0    0    0  501 -0.00000000000E+00 -0.00000000000E+00 -0.12276669577E+03  0.12276669577E+03  0.00000000000E+00 0.  1.
          1    1    1    2  502    0  0.30839946651E+02  0.57539567992E+01 -0.36791833629E+02  0.48351311772E+02  0.00000000000E+00 0. -1.
         -1    1    1    2    0  501 -0.30839946651E+02 -0.57539567992E+01 -0.77126949188E+02  0.83263296952E+02  0.00000000000E+00 0.  1.
</event>
<event>
 4    1  0.6888348E+001  0.3966596E+02  0.7546771E-02  0.1350454E+00
          2   -1    0    0  502    0  0.00000000000E+00  0.00000000000E+00  0.19469762037E+03  0.19469762037E+03  0.00000000000E+00 0. -1.
         -2   -1    0    0    0  501 -0.00000000000E+00 -0.00000000000E+00 -0.90609993540E+01  0.90609993540E+01  0.00000000000E+00 0.  1.
          1    1    1    2  502    0  0.39614008118E+02  0.20294220611E+01  0.12632017998E+03  0.13240157123E+03  0.00000000000E+00 0. -1.
         -1    1    1    2    0  501 -0.39614008118E+02 -0.20294220611E+01  0.59316441033E+02  0.71357048495E+02  0.00000000000E+00 0.  1.
</event>
<event>
 4    1  0.6888348E+001  0.2434768E+02  0.7546771E-02  0.1476235E+00
          2   -1    0    0  502    0  0.00000000000E+00  0.00000000000E+00  0.12803973423E+01  0.12803973423E+01  0.00000000000E+00 0.  1.
         -2   -1    0    0    0  501 -0.00000000000E+00 -0.00000000000E+00 -0.46489413407E+03  0.46489413407E+03  0.00000000000E+00 0. -1.
          1    1    1    2  502    0  0.23817748733E+02  0.50521471452E+01 -0.21688399959E+03  0.21824637139E+03  0.00000000000E+00 0. -1.
         -1    1    1    2    0  501 -0.23817748733E+02 -0.50521471452E+01 -0.24672973714E+03  0.24792816002E+03  0.00000000000E+00 0.  1.
</event>
<event>
 4    1  0.6888348E+001  0.2824285E+02  0.7546771E-02  0.1435508E+00
          2   -1    0    0  502    0  0.00000000000E+00  0.00000000000E+00  0.22145454096E+04  0.22145454096E+04  0.00000000000E+00 0. -1.
         -2   -1    0    0    0  501 -0.00000000000E+00 -0.00000000000E+00 -0.13927945872E+01  0.13927945872E+01  0.00000000000E+00 0.  1.
          1    1    1    2  502    0  0.28140593098E+02  0.24011264139E+01  0.15257050106E+03  0.15516254762E+03  0.00000000000E+00 0.  1.
         -1    1    1    2    0  501 -0.28140593098E+02 -0.24011264139E+01  0.20605821139E+04  0.20607756565E+04  0.00000000000E+00 0. -1.
</event>
<event>
 4    1  0.6888348E+001  0.2455167E+02  0.7546771E-02  0.1473882E+00
          2   -1    0    0  502    0  0.00000000000E+00  0.00000000000E+00  0.51355956754E+02  0.51355956754E+02  0.00000000000E+00 0.  1.
         -2   -1    0    0    0  501 -0.00000000000E+00 -0.00000000000E+00 -0.12602936248E+02  0.12602936248E+02  0.00000000000E+00 0. -1.
          1    1    1    2  502    0 -0.20363629864E+02 -0.13715211965E+02  0.27757249456E+02  0.37057379263E+02  0.00000000000E+00 0. -1.
         -1    1    1    2    0  501  0.20363629864E+02  0.13715211965E+02  0.10995771050E+02  0.26901513740E+02  0.00000000000E+00 0.  1.
</event>
<event>
 4    1  0.6888348E+001  0.2596712E+02  0.7546771E-02  0.1458269E+00
          2   -1    0    0  502    0  0.00000000000E+00  0.00000000000E+00  0.50467266272E+03  0.50467266272E+03  0.00000000000E+00 0. -1.
         -2   -1    0    0    0  501 -0.00000000000E+00 -0.00000000000E+00 -0.35182590112E+01  0.35182590112E+01  0.00000000000E+00 0.  1.
          1    1    1    2  502    0 -0.15997631575E+02  0.20454029601E+02  0.45069076060E+03  0.45143820533E+03  0.00000000000E+00 0. -1.
         -1    1    1    2    0  501  0.15997631575E+02 -0.20454029601E+02  0.50463643110E+02  0.56752716401E+02  0.00000000000E+00 0.  1.
</event>
<event>
 4    1  0.6888348E+001  0.2297367E+02  0.7546771E-02  0.1492829E+00
          2   -1    0    0  502    0  0.00000000000E+00  0.00000000000E+00  0.10356457730E+03  0.10356457730E+03  0.00000000000E+00 0. -1.
         -2   -1    0    0    0  501 -0.00000000000E+00 -0.00000000000E+00 -0.51651035829E+01  0.51651035829E+01  0.00000000000E+00 0.  1.
          1    1    1    2  502    0  0.13638925800E+02  0.18487000205E+02  0.42922223393E+02  0.48683741994E+02  0.00000000000E+00 0.  1.
         -1    1    1    2    0  501 -0.13638925800E+02 -0.18487000205E+02  0.55477250324E+02  0.60045938889E+02  0.00000000000E+00 0. -1.
</event>
<event>
 4    1  0.6888348E+001  0.2689931E+02  0.7546771E-02  0.1448622E+00
          2   -1    0    0  502    0  0.00000000000E+00  0.00000000000E+00  0.17603737785E+02  0.17603737785E+02  0.00000000000E+00 0.  1.
         -2   -1    0    0    0  501 -0.00000000000E+00 -0.00000000000E+00 -0.62082495745E+02  0.62082495745E+02  0.00000000000E+00 0. -1.
          1    1    1    2  502    0 -0.11540406433E+02 -0.24297986401E+02  0.92188784757E+00  0.26915107300E+02  0.00000000000E+00 0.  1.
         -1    1    1    2    0  501  0.11540406433E+02  0.24297986401E+02 -0.45400645808E+02  0.52771126230E+02  0.00000000000E+00 0. -1.
</event>
<event>
 4    1  0.6888348E+001  0.2862837E+02  0.7546771E-02  0.1431903E+00
          2   -1    0    0  502    0  0.00000000000E+00  0.00000000000E+00  0.55685937432E+03  0.55685937432E+03  0.00000000000E+00 0. -1.
         -2   -1    0    0    0  501 -0.00000000000E+00 -0.00000000000E+00 -0.39153677685E+01  0.39153677685E+01  0.00000000000E+00 0.  1.
          1    1    1    2  502    0 -0.21450759896E+02 -0.18959119852E+02  0.54966393640E+02  0.61974896171E+02  0.00000000000E+00 0.  1.
         -1    1    1    2    0  501  0.21450759896E+02  0.18959119852E+02  0.49797761291E+03  0.49879984592E+03  0.00000000000E+00 0. -1.
</event>
<event>
 4    1  0.6888348E+001  0.2449350E+02  0.7546771E-02  0.1474550E+00
          2   -1    0    0  502    0  0.00000000000E+00  0.00000000000E+00  0.63159050918E+03  0.63159050918E+03  0.00000000000E+00 0.  1.
         -2   -1    0    0    0  501 -0.00000000000E+00 -0.00000000000E+00 -0.10118197816E+01  0.10118197816E+01  0.00000000000E+00 0. -1.
          1    1    1    2  502    0  0.24222789570E+02 -0.36315585192E+01  0.23702694824E+03  0.23828912259E+03  0.00000000000E+00 0.  1.
         -1    1    1    2    0  501 -0.24222789570E+02  0.36315585192E+01  0.39355174116E+03  0.39431320638E+03  0.00000000000E+00 0. -1.
</event>
<event>
 4    1  0.6888348E+001  0.2179144E+02  0.7546771E-02  0.1508258E+00
          2   -1    0    0  502    0  0.00000000000E+00  0.00000000000E+00  0.18570929422E+03  0.18570929422E+03  0.00000000000E+00 0.  1.
         -2   -1    0    0    0  501 -0.00000000000E+00 -0.00000000000E+00 -0.39854826123E+01  0.39854826123E+01  0.00000000000E+00 0. -1.
          1    1    1    2  502    0  0.21299280373E+02 -0.46051463415E+01  0.34079236285E+02  0.40450723887E+02  0.00000000000E+00 0. -1.
         -1    1    1    2    0  501 -0.21299280373E+02  0.46051463415E+01  0.14764457533E+03  0.14924405295E+03  0.00000000000E+00 0.  1.
</event>
<event>
 4    1  0.6888348E+001  0.2913070E+02  0.7546771E-02  0.1427304E+00
          2   -1    0    0  502    0  0.00000000000E+00  0.00000000000E+00  0.13905194156E+03  0.13905194156E+03  0.00000000000E+00 0. -1.
         -2   -1    0    0    0  501 -0.00000000000E+00 -0.00000000000E+00 -0.66293926816E+01  0.66293926816E+01  0.00000000000E+00 0.  1.
          1    1    1    2  502    0  0.16915957856E+02  0.23715993390E+02  0.45680808003E+02  0.54178724537E+02  0.00000000000E+00 0.  1.
         -1    1    1    2    0  501 -0.16915957856E+02 -0.23715993390E+02  0.86741740873E+02  0.91502609702E+02  0.00000000000E+00 0. -1.
</event>
<event>
 4    1  0.6888348E+001  0.2338891E+02  0.7546771E-02  0.1487671E+00
          2   -1    0    0  502    0  0.00000000000E+00  0.00000000000E+00  0.26355626339E+04  0.26355626339E+04  0.00000000000E+00 0.  1.
         -2   -1    0    0    0  501 -0.00000000000E+00 -0.00000000000E+00 -0.20796215427E+00  0.20796215427E+00  0.00000000000E+00 0. -1.
          1    1    1    2  502    0 -0.20021107279E+02  0.12091166409E+02  0.13755309305E+04  0.13757297634E+04  0.00000000000E+00 0.  1.
         -1    1    1    2    0  501  0.20021107279E+02 -0.12091166409E+02  0.12598237412E+04  0.12600408326E+04  0.00000000000E+00 0. -1.
</event>
<event>
 4    1  0.6888348E+001  0.4353773E+02  0.7546771E-02  0.1328915E+00
          2   -1    0    0  502    0  0.00000000000E+00  0.00000000000E+00  0.28850684601E+03  0.28850684601E+03  0.00000000000E+00 0.  1.
         -2   -1    0    0    0  501 -0.00000000000E+00 -0.00000000000E+00 -0.68565629621E+01  0.68565629621E+01  0.00000000000E+00 0. -1.
          1    1    1    2  502    0 -0.11345678018E+02 -0.42033434079E+02  0.11064176213E+03  0.11889967837E+03  0.00000000000E+00 0. -1.
         -1    1    1    2    0  501  0.11345678018E+02  0.42033434079E+02  0.17100852092E+03  0.17646373060E+03  0.00000000000E+00 0.  1.
</event>
<event>
 4    1  0.6888348E+001  0.2404742E+02  0.7546771E-02  0.1479748E+00
          2   -1    0    0  502    0  0.00000000000E+00  0.00000000000E+00  0.44838689299E+03  0.44838689299E+03  0.00000000000E+00 0.  1.
         -2   -1    0    0    0  501 -0.00000000000E+00 -0.00000000000E+00 -0.12992870528E+01  0.12992870528E+01  0.00000000000E+00 0. -1.
          1    1    1    2  502    0 -0.10467482305E+02  0.21649715545E+02  0.20421598340E+03  0.20562695894E+03  0.00000000000E+00 0. -1.
         -1    1    1    2    0  501  0.10467482305E+02 -0.21649715545E+02  0.24287162254E+03  0.24405922110E+03  0.00000000000E+00 0.  1.
</event>
<event>
 4    1  0.6888348E+001  0.2902807E+02  0.7546771E-02  0.1428235E+00
          2   -1    0    0  502    0  0.00000000000E+00  0.00000000000E+00  0.58479783188E+00  0.58479783188E+00  0.00000000000E+00 0.  1.
         -2   -1    0    0    0  501 -0.00000000000E+00 -0.00000000000E+00 -0.14735785819E+04  0.14735785819E+04  0.00000000000E+00 0. -1.
          1    1    1    2  502    0 -0.11743727486E+02  0.26546449312E+02 -0.84627854283E+03  0.84677624031E+03  0.00000000000E+00 0. -1.
         -1    1    1    2    0  501  0.11743727486E+02 -0.26546449312E+02 -0.62671524120E+03  0.62738713938E+03  0.00000000000E+00 0.  1.
</event>
<event>
 4    1  0.6888348E+001  0.2057261E+02  0.7546771E-02  0.1525455E+00
          2   -1    0    0  502    0  0.00000000000E+00  0.00000000000E+00  0.19286886378E+03  0.19286886378E+03  0.00000000000E+00 0. -1.
         -2   -1    0    0    0  501 -0.00000000000E+00 -0.00000000000E+00 -0.11612820335E+02  0.11612820335E+02  0.00000000000E+00 0.  1.
          1    1    1    2  502    0  0.10821449878E+02 -0.17496533683E+02 -0.14475607628E+01  0.20623479351E+02  0.00000000000E+00 0.  1.
         -1    1    1    2    0  501 -0.10821449878E+02  0.17496533683E+02  0.18270360421E+03  0.18385820476E+03  0.00000000000E+00 0. -1.
</event>
<event>
 4    1  0.6888348E+001  0.3073287E+02  0.7546771E-02  0.1413333E+00
          2   -1    0    0  502    0  0.00000000000E+00  0.00000000000E+00  0.22761753795E+03  0.22761753795E+03  0.00000000000E+00 0. -1.
         -2   -1    0    0    0  501 -0.00000000000E+00 -0.00000000000E+00 -0.41614149122E+01  0.41614149122E+01  0.00000000000E+00 0.  1.
          1    1    1    2  502    0  0.63025885633E+01 -0.30079675423E+02  0.10553900047E+03  0.10992265515E+03  0.00000000000E+00 0.  1.
         -1    1    1    2    0  501 -0.63025885633E+01  0.30079675423E+02  0.11791712257E+03  0.12185629770E+03  0.00000000000E+00 0. -1.
</event>
<event>
 4    1  0.6888348E+001  0.2101762E+02  0.7546771E-02  0.1519013E+00
          2   -1    0    0  502    0  0.00000000000E+00  0.00000000000E+00  0.78940974057E+01  0.78940974057E+01  0.00000000000E+00 0.  1.
         -2   -1    0    0    0  501 -0.00000000000E+00 -0.00000000000E+00 -0.58724198771E+02  0.58724198771E+02  0.00000000000E+00 0. -1.
          1    1    1    2  502    0 -0.19685774720E+02  0.73627958262E+01 -0.32643929581E+02  0.38824819732E+02  0.00000000000E+00 0. -1.
         -1    1    1    2    0  501  0.19685774720E+02 -0.73627958262E+01 -0.18186171783E+02  0.27793476444E+02  0.00000000000E+00 0.  1.
</event>
<event>
 4    1  0.6888348E+001  0.2153284E+02  0.7546771E-02  0.1511792E+00
          2   -1    0    0  502    0  0.00000000000E+00  0.00000000000E+00  0.54820511068E+03  0.54820511068E+03  0.00000000000E+00 0.  1.
         -2   -1    0    0    0  501 -0.00000000000E+00 -0.00000000000E+00 -0.10553196597E+01  0.10553196597E+01  0.00000000000E+00 0. -1.
          1    1    1    2  502    0  0.21179913777E+02  0.38825776095E+01  0.15120201321E+03  0.15272757431E+03  0.00000000000E+00 0. -1.
         -1    1    1    2    0  501 -0.21179913777E+02 -0.38825776095E+01  0.39594777781E+03  0.39653285602E+03  0.00000000000E+00 0.  1.
</event>
<event>
 4    1  0.6888348E+001  0.2000001E+02  0.7546771E-02  0.1534035E+00
          2   -1    0    0  502    0  0.00000000000E+00  0.00000000000E+00  0.11191239797E+03  0.11191239797E+03  0.00000000000E+00 0.  1.
         -2   -1    0    0    0  501 -0.00000000000E+00 -0.00000000000E+00 -0.44583332921E+01  0.44583332921E+01  0.00000000000E+00 0. -1.
          1    1    1    2  502    0  0.78689786568E+01 -0.18386944331E+02  0.79637737481E+02  0.82110716585E+02  0.00000000000E+00 0.  1.
         -1    1    1    2    0  501 -0.78689786568E+01  0.18386944331E+02  0.27816327195E+02  0.34260014675E+02  0.00000000000E+00 0. -1.
</event>
<event>
 4    1  0.6888348E+001  0.2049499E+02  0.7546771E-02  0.1526599E+00
          2   -1    0    0  502    0  0.00000000000E+00  0.00000000000E+00  0.13386537542E+02  0.13386537542E+02  0.00000000000E+00 0. -1.
         -2   -1    0    0    0  501 -0.00000000000E+00 -0.00000000000E+00 -0.40349322657E+02  0.40349322657E+02  0.00000000000E+00 0.  1.
          1    1    1    2  502    0  0.41701248302E+01  0.20066252582E+02 -0.81242207307E+00  0.20511081478E+02  0.00000000000E+00 0. -1.
         -1    1    1    2    0  501 -0.41701248302E+01 -0.20066252582E+02 -0.26150363042E+02  0.33224778720E+02  0.00000000000E+00 0.  1.
</event>
<event>
 4    1  0.6888348E+001  0.2099063E+02  0.7546771E-02  0.1519399E+00
          2   -1    0    0  502    0  0.00000000000E+00  0.00000000000E+00  0.12836071945E+01  0.12836071945E+01  0.00000000000E+00 0.  1.
         -2   -1    0    0    0  501 -0.00000000000E+00 -0.00000000000E+00 -0.34885791466E+03  0.34885791466E+03  0.00000000000E+00 0. -1.
          1    1    1    2  502    0  0.11611702951E+02 -0.17486420718E+02 -0.19597100388E+03  0.19709196056E+03  0.00000000000E+00 0. -1.
         -1    1    1    2    0  501 -0.11611702951E+02  0.17486420718E+02 -0.15160330358E+03  0.15304956129E+03  0.00000000000E+00 0.  1.
</event>
<event>
 4    1  0.6888348E+001  0.2057985E+02  0.7546771E-02  0.1525349E+00
          2   -1    0    0  502    0  0.00000000000E+00  0.00000000000E+00  0.40507079991E+02  0.40507079991E+02  0.00000000000E+00 0.  1.
         -2   -1    0    0    0  501 -0.00000000000E+00 -0.00000000000E+00 -0.10996800865E+02  0.10996800865E+02  0.00000000000E+00 0. -1.
          1    1    1    2  502    0 -0.32967888708E+01 -0.20314071924E+02  0.20467444042E+02  0.29024930673E+02  0.00000000000E+00 0.  1.
         -1    1    1    2    0  501  0.32967888708E+01  0.20314071924E+02  0.90428350845E+01  0.22478950183E+02  0.00000000000E+00 0. -1.
</event>
<event>
 4    1  0.6888348E+001  0.2797212E+02  0.7546771E-02  0.1438080E+00
          2   -1    0    0  502    0  0.00000000000E+00  0.00000000000E+00  0.13722007209E+03  0.13722007209E+03  0.00000000000E+00 0. -1.
         -2   -1    0    0    0  501 -0.00000000000E+00 -0.00000000000E+00 -0.62120598738E+01  0.62120598738E+01  0.00000000000E+00 0.  1.
          1    1    1    2  502    0  0.92733110082E+01  0.26390247398E+02  0.86052326110E+02  0.90484486426E+02  0.00000000000E+00 0. -1.
         -1    1    1    2    0  501 -0.92733110082E+01 -0.26390247398E+02  0.44955686110E+02  0.52947645542E+02  0.00000000000E+00 0.  1.
</event>
<event>
 4    1  0.6888348E+001  0.3766162E+02  0.7546771E-02  0.1362762E+00
          2   -1    0    0  502    0  0.00000000000E+00  0.00000000000E+00  0.18589776300E+03  0.18589776300E+03  0.00000000000E+00 0. -1.
         -2   -1    0    0    0  501 -0.00000000000E+00 -0.00000000000E+00 -0.79381542451E+01  0.79381542451E+01  0.00000000000E+00 0.  1.
          1    1    1    2  502    0 -0.37431356123E+02 -0.41582385075E+01  0.10807562313E+03  0.11444971684E+03  0.00000000000E+00 0. -1.
         -1    1    1    2    0  501  0.37431356123E+02  0.41582385075E+01  0.69883985623E+02  0.79386200409E+02  0.00000000000E+00 0.  1.
</event>
<event>
 4    1  0.6888348E+001  0.2570473E+02  0.7546771E-02  0.1461072E+00
          2   -1    0    0  502    0  0.00000000000E+00  0.00000000000E+00  0.10760481401E+04  0.10760481401E+04  0.00000000000E+00 0. -1.
         -2   -1    0    0    0  501 -0.00000000000E+00 -0.00000000000E+00 -0.10287375338E+01  0.10287375338E+01  0.00000000000E+00 0.  1.
          1    1    1    2  502    0  0.10056015570E+02 -0.23656071567E+02  0.19558395054E+03  0.19726584824E+03  0.00000000000E+00 0.  1.
         -1    1    1    2    0  501 -0.10056015570E+02  0.23656071567E+02  0.87943545198E+03  0.87981102935E+03  0.00000000000E+00 0. -1.
</event>
<event>
 4    1  0.6888348E+001  0.2050010E+02  0.7546771E-02  0.1526523E+00
          2   -1    0    0  502    0  0.00000000000E+00  0.00000000000E+00  0.14626755825E+02  0.14626755825E+02  0.00000000000E+00 0.  1.
         -2   -1    0    0    0  501 -0.00000000000E+00 -0.00000000000E+00 -0.45928071092E+02  0.45928071092E+02  0.00000000000E+00 0. -1.
          1    1    1    2  502    0 -0.19551488600E+02  0.61638634482E+01  0.28759556484E+01  0.20700846359E+02  0.00000000000E+00 0.  1.
         -1    1    1    2    0  501  0.19551488600E+02 -0.61638634482E+01 -0.34177270916E+02  0.39853980558E+02  0.00000000000E+00 0. -1.
</event>
<event>
 4    1  0.6888348E+001  0.2124938E+02  0.7546771E-02  0.1515734E+00
          2   -1    0    0  502    0  0.00000000000E+00  0.00000000000E+00  0.20440806388E+03  0.20440806388E+03  0.00000000000E+00 0. -1.
         -2   -1    0    0    0  501 -0.00000000000E+00 -0.00000000000E+00 -0.23937766667E+01  0.23937766667E+01  0.00000000000E+00 0.  1.
          1    1    1    2  502    0 -0.10630661878E+02 -0.18399050070E+02  0.12973572551E+03  0.13146442290E+03  0.00000000000E+00 0. -1.
         -1    1    1    2    0  501  0.10630661878E+02  0.18399050070E+02  0.72278561705E+02  0.75337417646E+02  0.00000000000E+00 0.  1.
</event>
<event>
 4    1  0.6888348E+001  0.2119367E+02  0.7546771E-02  0.1516518E+00
          2   -1    0    0  502    0  0.00000000000E+00  0.00000000000E+00  0.34221485887E+02  0.34221485887E+02  0.00000000000E+00 0. -1.
         -2   -1    0    0    0  501 -0.00000000000E+00 -0.00000000000E+00 -0.13580484979E+02  0.13580484979E+02  0.00000000000E+00 0.  1.
          1    1    1    2  502    0  0.78470216466E+01 -0.19687451668E+02  0.59453488220E+01  0.22011784900E+02  0.00000000000E+00 0.  1.
         -1    1    1    2    0  501 -0.78470216466E+01  0.19687451668E+02  0.14695652086E+02  0.25790185965E+02  0.00000000000E+00 0. -1.
</event>
<event>
 4    1  0.6888348E+001  0.3070723E+02  0.7546771E-02  0.1413548E+00
          2   -1    0    0  502    0  0.00000000000E+00  0.00000000000E+00  0.57828944000E+03  0.57828944000E+03  0.00000000000E+00 0. -1.
         -2   -1    0    0    0  501 -0.00000000000E+00 -0.00000000000E+00 -0.17792778766E+01  0.17792778766E+01  0.00000000000E+00 0.  1.
          1    1    1    2  502    0  0.14630671197E+02  0.26997732247E+02  0.20440315466E+03  0.20669684013E+03  0.00000000000E+00 0.  1.
         -1    1    1    2    0  501 -0.14630671197E+02 -0.26997732247E+02  0.37210700746E+03  0.37337187774E+03  0.00000000000E+00 0. -1.
</event>
<event>
 4    1  0.6888348E+001  0.2002778E+02  0.7546771E-02  0.1533611E+00
          2   -1    0    0  502    0  0.00000000000E+00  0.00000000000E+00  0.84506712309E+02  0.84506712309E+02  0.00000000000E+00 0.  1.
         -2   -1    0    0    0  501 -0.00000000000E+00 -0.00000000000E+00 -0.48199246232E+01  0.48199246232E+01  0.00000000000E+00 0. -1.
          1    1    1    2  502    0  0.49065599268E+01  0.19417458501E+02  0.34331260637E+02  0.39746037310E+02  0.00000000000E+00 0. -1.
         -1    1    1    2    0  501 -0.49065599268E+01 -0.19417458501E+02  0.45355527049E+02  0.49580599621E+02  0.00000000000E+00 0.  1.
</event>
<event>
 4    1  0.6888348E+001  0.2166236E+02  0.7546771E-02  0.1510015E+00
          2   -1    0    0  502    0  0.00000000000E+00  0.00000000000E+00  0.69730986710E+03  0.69730986710E+03  0.00000000000E+00 0. -1.
         -2   -1    0    0    0  501 -0.00000000000E+00 -0.00000000000E+00 -0.80257360886E+00  0.80257360886E+00  0.00000000000E+00 0.  1.
          1    1    1    2  502    0 -0.21201093522E+02 -0.44464935650E+01  0.20797621701E+03  0.20910132595E+03  0.00000000000E+00 0. -1.
         -1    1    1    2    0  501  0.21201093522E+02  0.44464935650E+01  0.48853107648E+03  0.48901111476E+03  0.00000000000E+00 0.  1.
</event>
<event>
 4    1  0.6888348E+001  0.2089799E+02  0.7546771E-02  0.1520726E+00
          2   -1    0    0  502    0  0.00000000000E+00  0.00000000000E+00  0.11215349535E+03  0.11215349535E+03  0.00000000000E+00 0.  1.
         -2   -1    0    0    0  501 -0.00000000000E+00 -0.00000000000E+00 -0.39445507075E+01  0.39445507075E+01  0.00000000000E+00 0. -1.
          1    1    1    2  502    0 -0.18096255933E+02 -0.10452348129E+02  0.47533246643E+02  0.51924325674E+02  0.00000000000E+00 0.  1.
         -1    1    1    2    0  501  0.18096255933E+02  0.10452348129E+02  0.60675697999E+02  0.64173720384E+02  0.00000000000E+00 0. -1.
</event>
<event>
 4    1  0.6888348E+001  0.2856633E+02  0.7546771E-02  0.1432478E+00
          2   -1    0    0  502    0  0.00000000000E+00  0.00000000000E+00  0.63727340751E+00  0.63727340751E+00  0.00000000000E+00 0. -1.
         -2   -1    0    0    0  501 -0.00000000000E+00 -0.00000000000E+00 -0.17427676837E+04  0.17427676837E+04  0.00000000000E+00 0.  1.
          1    1    1    2  502    0 -0.27847717179E+02  0.63671012431E+01 -0.42212310247E+03  0.42308858288E+03  0.00000000000E+00 0. -1.
         -1    1    1    2    0  501  0.27847717179E+02 -0.63671012431E+01 -0.13200073078E+04  0.13203163742E+04  0.00000000000E+00 0.  1.
</event>
<event>
 4    1  0.6888348E+001  0.3039261E+02  0.7546771E-02  0.1416215E+00
          2   -1    0    0  502    0  0.00000000000E+00  0.00000000000E+00  0.49626630795E+03  0.49626630795E+03  0.00000000000E+00 0. -1.
         -2   -1    0    0    0  501 -0.00000000000E+00 -0.00000000000E+00 -0.18644713742E+01  0.18644713742E+01  0.00000000000E+00 0.  1.
          1    1    1    2  502    0  0.29470670511E+02 -0.74290139518E+01  0.25743971220E+03  0.25922753728E+03  0.00000000000E+00 0.  1.
         -1    1    1    2    0  501 -0.29470670511E+02  0.74290139518E+01  0.23696212437E+03  0.23890324204E+03  0.00000000000E+00 0. -1.
</event>
<event>
 4    1  0.6888348E+001  0.5075745E+02  0.7546771E-02  0.1294921E+00
          2   -1    0    0  502    0  0.00000000000E+00  0.00000000000E+00  0.36521855850E+02  0.36521855850E+02  0.00000000000E+00 0.  1.
         -2   -1    0    0    0  501 -0.00000000000E+00 -0.00000000000E+00 -0.72017806109E+02  0.72017806109E+02  0.00000000000E+00 0. -1.
          1    1    1    2  502    0 -0.27943153047E+02  0.42373326719E+02 -0.99787465967E+01  0.51729044095E+02  0.00000000000E+00 0.  1.
         -1    1    1    2    0  501  0.27943153047E+02 -0.42373326719E+02 -0.25517203662E+02  0.56810617864E+02  0.00000000000E+00 0. -1.
</event>
<event>
 4    1  0.6888348E+001  0.3016030E+02  0.7546771E-02  0.1418208E+00
          2   -1    0    0  502    0  0.00000000000E+00  0.00000000000E+00  0.19106726981E+03  0.19106726981E+03  0.00000000000E+00 0. -1.
         -2   -1    0    0    0  501 -0.00000000000E+00 -0.00000000000E+00 -0.55236922052E+01  0.55236922052E+01  0.00000000000E+00 0.  1.
          1    1    1    2  502    0  0.62897284102E+01  0.29497165995E+02  0.56243033701E+02  0.63819450993E+02  0.00000000000E+00 0.  1.
         -1    1    1    2    0  501 -0.62897284102E+01 -0.29497165995E+02  0.12930054391E+03  0.13277151103E+03  0.00000000000E+00 0. -1.
</event>
<event>
 4    1  0.6888348E+001  0.2055532E+02  0.7546771E-02  0.1525709E+00
          2   -1    0    0  502    0  0.00000000000E+00  0.00000000000E+00  0.38626200639E+02  0.38626200639E+02  0.00000000000E+00 0.  1.
         -2   -1    0    0    0  501 -0.00000000000E+00 -0.00000000000E+00 -0.11084823733E+02  0.11084823733E+02  0.00000000000E+00 0. -1.
          1    1    1    2  502    0 -0.20482485185E+02 -0.17288092466E+01  0.10917061745E+02  0.23274518639E+02  0.00000000000E+00 0.  1.
         -1    1    1    2    0  501  0.20482485185E+02  0.17288092466E+01  0.16624315162E+02  0.26436505733E+02  0.00000000000E+00 0. -1.
</event>
<event>
 4    1  0.6888348E+001  0.2304811E+02  0.7546771E-02  0.1491895E+00
          2   -1    0    0  502    0  0.00000000000E+00  0.00000000000E+00  0.18952760435E+04  0.18952760435E+04  0.00000000000E+00 0. -1.
         -2   -1    0    0    0  501 -0.00000000000E+00 -0.00000000000E+00 -0.33508137888E+00  0.33508137888E+00  0.00000000000E+00 0.  1.
          1    1    1    2  502    0 -0.15441292663E+02  0.17110874843E+02  0.13307573892E+04  0.13309569657E+04  0.00000000000E+00 0. -1.
         -1    1    1    2    0  501  0.15441292663E+02 -0.17110874843E+02  0.56418357288E+03  0.56465415917E+03  0.00000000000E+00 0.  1.
</event>
<event>
 4    1  0.6888348E+001  0.2008898E+02  0.7546771E-02  0.1532680E+00
          2   -1    0    0  502    0  0.00000000000E+00  0.00000000000E+00  0.12741565713E+01  0.12741565713E+01  0.00000000000E+00 0. -1.
         -2   -1    0    0    0  501 -0.00000000000E+00 -0.00000000000E+00 -0.32460109118E+03  0.32460109118E+03  0.00000000000E+00 0.  1.
          1    1    1    2  502    0  0.19587347782E+02 -0.44612766694E+01 -0.13629545078E+03  0.13776798280E+03  0.00000000000E+00 0.  1.
         -1    1    1    2    0  501 -0.19587347782E+02  0.44612766694E+01 -0.18703148383E+03  0.18810726495E+03  0.00000000000E+00 0. -1.
</event>
<event>
 4    1  0.6888348E+001  0.4054054E+02  0.7546771E-02  0.1345347E+00
          2   -1    0    0  502    0  0.00000000000E+00  0.00000000000E+00  0.13810451777E+04  0.13810451777E+04  0.00000000000E+00 0.  1.
         -2   -1    0    0    0  501 -0.00000000000E+00 -0.00000000000E+00 -0.13646638621E+01  0.13646638621E+01  0.00000000000E+00 0. -1.
          1    1    1    2  502    0 -0.25047925604E+02 -0.31876898482E+02  0.44260343901E+03  0.44445622896E+03  0.00000000000E+00 0. -1.
         -1    1    1    2    0  501  0.25047925604E+02  0.31876898482E+02  0.93707707478E+03  0.93795361256E+03  0.00000000000E+00 0.  1.
</event>
<event>
 4    1  0.6888348E+001  0.3212018E+02  0.7546771E-02  0.1402024E+00
          2   -1    0    0  502    0  0.00000000000E+00  0.00000000000E+00  0.32389956133E+01  0.32389956133E+01  0.00000000000E+00 0.  1.
         -2   -1    0    0    0  501 -0.00000000000E+00 -0.00000000000E+00 -0.13435053030E+04  0.13435053030E+04  0.00000000000E+00 0. -1.
          1    1    1    2  502    0  0.22180185430E+01 -0.32043511361E+02 -0.81976681369E+02  0.88044775626E+02  0.00000000000E+00 0.  1.
         -1    1    1    2    0  501 -0.22180185430E+01  0.32043511361E+02 -0.12582896260E+04  0.12586995230E+04  0.00000000000E+00 0. -1.
</event>
<event>
 4    1  0.6888348E+001  0.2693744E+02  0.7546771E-02  0.1448238E+00
          2   -1    0    0  502    0  0.00000000000E+00  0.00000000000E+00  0.35256720774E+03  0.35256720774E+03  0.00000000000E+00 0. -1.
         -2   -1    0    0    0  501 -0.00000000000E+00 -0.00000000000E+00 -0.21690698287E+01  0.21690698287E+01  0.00000000000E+00 0.  1.
          1    1    1    2  502    0  0.56512610559E+01 -0.26337978047E+02  0.13508460877E+03  0.13774424622E+03  0.00000000000E+00 0.  1.
         -1    1    1    2    0  501 -0.56512610559E+01  0.26337978047E+02  0.21531352914E+03  0.21699203135E+03  0.00000000000E+00 0. -1.
</event>
<event>
 4    1  0.6888348E+001  0.2039668E+02  0.7546771E-02  0.1528056E+00
          2   -1    0    0  502    0  0.00000000000E+00  0.00000000000E+00  0.54951305919E+01  0.54951305919E+01  0.00000000000E+00 0. -1.
         -2   -1    0    0    0  501 -0.00000000000E+00 -0.00000000000E+00 -0.12624263358E+03  0.12624263358E+03  0.00000000000E+00 0.  1.
          1    1    1    2  502    0  0.20209235650E+02 -0.27588650071E+01 -0.18699053631E+02  0.27670907979E+02  0.00000000000E+00 0. -1.
         -1    1    1    2    0  501 -0.20209235650E+02  0.27588650071E+01 -0.10204844936E+03  0.10406685620E+03  0.00000000000E+00 0.  1.
</event>
<event>
 4    1  0.6888348E+001  0.2110421E+02  0.7546771E-02  0.1517782E+00
          2   -1    0    0  502    0  0.00000000000E+00  0.00000000000E+00  0.15400255450E+01  0.15400255450E+01  0.00000000000E+00 0.  1.
         -2   -1    0    0    0  501 -0.00000000000E+00 -0.00000000000E+00 -0.31440330390E+03  0.31440330390E+03  0.00000000000E+00 0. -1.
          1    1    1    2  502    0 -0.84418870566E+01 -0.19342236071E+02 -0.20115107436E+03  0.20225514152E+03  0.00000000000E+00 0. -1.
         -1    1    1    2    0  501  0.84418870566E+01  0.19342236071E+02 -0.11171220399E+03  0.11368818793E+03  0.00000000000E+00 0.  1.
</event>
<event>
 4    1  0.6888348E+001  0.2547955E+02  0.7546771E-02  0.1463510E+00
          2   -1    0    0  502    0  0.00000000000E+00  0.00000000000E+00  0.96053361247E+01  0.96053361247E+01  0.00000000000E+00 0.  1.
         -2   -1    0    0    0  501 -0.00000000000E+00 -0.00000000000E+00 -0.68367500561E+02  0.68367500561E+02  0.00000000000E+00 0. -1.
          1    1    1    2  502    0  0.25360104333E+02  0.24642698413E+01 -0.33543416558E+02  0.42123251442E+02  0.00000000000E+00 0. -1.
         -1    1    1    2    0  501 -0.25360104333E+02 -0.24642698413E+01 -0.25218747878E+02  0.35849585244E+02  0.00000000000E+00 0.  1.
</event>
<event>
 4    1  0.6888348E+001  0.4321338E+02  0.7546771E-02  0.1330619E+00
          2   -1    0    0  502    0  0.00000000000E+00  0.00000000000E+00  0.85552230484E+02  0.85552230484E+02  0.00000000000E+00 0. -1.
         -2   -1    0    0    0  501 -0.00000000000E+00 -0.00000000000E+00 -0.42633110516E+02  0.42633110516E+02  0.00000000000E+00 0.  1.
          1    1    1    2  502    0 -0.24169155500E+02 -0.35822448057E+02  0.66233419700E+02  0.79083890569E+02  0.00000000000E+00 0. -1.
         -1    1    1    2    0  501  0.24169155500E+02  0.35822448057E+02 -0.23314299732E+02  0.49101450430E+02  0.00000000000E+00 0.  1.
</event>
<event>
 4    1  0.6888348E+001  0.2110732E+02  0.7546771E-02  0.1517738E+00
          2   -1    0    0  502    0  0.00000000000E+00  0.00000000000E+00  0.73880597236E+00  0.73880597236E+00  0.00000000000E+00 0. -1.
         -2   -1    0    0    0  501 -0.00000000000E+00 -0.00000000000E+00 -0.63288593940E+03  0.63288593940E+03  0.00000000000E+00 0.  1.
          1    1    1    2  502    0  0.13181252941E+02  0.16485554043E+02 -0.38488913757E+03  0.38546746574E+03  0.00000000000E+00 0.  1.
         -1    1    1    2    0  501 -0.13181252941E+02 -0.16485554043E+02 -0.24725799585E+03  0.24815727963E+03  0.00000000000E+00 0. -1.
</event>
<event>
 4    1  0.6888348E+001  0.2670121E+02  0.7546771E-02  0.1450633E+00
          2   -1    0    0  502    0  0.00000000000E+00  0.00000000000E+00  0.55528257908E+03  0.55528257908E+03  0.00000000000E+00 0. -1.
         -2   -1    0    0    0  501 -0.00000000000E+00 -0.00000000000E+00 -0.18131877989E+01  0.18131877989E+01  0.00000000000E+00 0.  1.
          1    1    1    2  502    0  0.77329554096E+01 -0.25556912320E+02  0.42722357698E+03  0.42805716802E+03  0.00000000000E+00 0. -1.
         -1    1    1    2    0  501 -0.77329554096E+01  0.25556912320E+02  0.12624581431E+03  0.12903859887E+03  0.00000000000E+00 0.  1.
</event>
<event>
 4    1  0.6888348E+001  0.3211816E+02  0.7546771E-02  0.1402040E+00
          2   -1    0    0  502    0  0.00000000000E+00  0.00000000000E+00  0.20670537248E+04  0.20670537248E+04  0.00000000000E+00 0.  1.
         -2   -1    0    0    0  501 -0.00000000000E+00 -0.00000000000E+00 -0.74145911209E+00  0.74145911209E+00  0.00000000000E+00 0. -1.
          1    1    1    2  502    0  0.31025878017E+02  0.83048834513E+01  0.44199926142E+03  0.44316466837E+03  0.00000000000E+00 0. -1.
         -1    1    1    2    0  501 -0.31025878017E+02 -0.83048834513E+01  0.16243130042E+04  0.16246305155E+04  0.00000000000E+00 0.  1.
</event>
<event>
 4    1  0.6888348E+001  0.2600297E+02  0.7546771E-02  0.1457889E+00
          2   -1    0    0  502    0  0.00000000000E+00  0.00000000000E+00  0.37271213697E+02  0.37271213697E+02  0.00000000000E+00 0.  1.
         -2   -1    0    0    0  501 -0.00000000000E+00 -0.00000000000E+00 -0.18703334977E+02  0.18703334977E+02  0.00000000000E+00 0. -1.
          1    1    1    2  502    0 -0.25303318417E+02 -0.59913596545E+01  0.44330643460E+01  0.26378141953E+02  0.00000000000E+00 0.  1.
         -1    1    1    2    0  501  0.25303318417E+02  0.59913596545E+01  0.14134814374E+02  0.29596406721E+02  0.00000000000E+00 0. -1.
</event>
<event>
 4    1  0.6888348E+001  0.2341284E+02  0.7546771E-02  0.1487378E+00
          2   -1    0    0  502    0  0.00000000000E+00  0.00000000000E+00  0.62804626585E+02  0.62804626585E+02  0.00000000000E+00 0. -1.
         -2   -1    0    0    0  501 -0.00000000000E+00 -0.00000000000E+00 -0.91172675490E+01  0.91172675490E+01  0.00000000000E+00 0.  1.
          1    1    1    2  502    0 -0.84613047701E+01 -0.21830423978E+02  0.19413447680E+02  0.30414520222E+02  0.00000000000E+00 0. -1.
         -1    1    1    2    0  501  0.84613047701E+01  0.21830423978E+02  0.34273911356E+02  0.41507373913E+02  0.00000000000E+00 0.  1.
</event>
<event>
 4    1  0.6888348E+001  0.2467257E+02  0.7546771E-02  0.1472500E+00
          2   -1    0    0  502    0  0.00000000000E+00  0.00000000000E+00  0.11424617933E+02  0.11424617933E+02  0.00000000000E+00 0.  1.
         -2   -1    0    0    0  501 -0.00000000000E+00 -0.00000000000E+00 -0.53306550020E+02  0.53306550020E+02  0.00000000000E+00 0. -1.
          1    1    1    2  502    0  0.13344779884E+02  0.20752175932E+02 -0.20258209380E+02  0.31923831277E+02  0.00000000000E+00 0. -1.
         -1    1    1    2    0  501 -0.13344779884E+02 -0.20752175932E+02 -0.21623722707E+02  0.32807336676E+02  0.00000000000E+00 0.  1.
</event>
<event>
 4    1  0.6888348E+001  0.2087913E+02  0.7546771E-02  0.1520998E+00
          2   -1    0    0  502    0  0.00000000000E+00  0.00000000000E+00  0.17881952560E+03  0.17881952560E+03  0.00000000000E+00 0. -1.
         -2   -1    0    0    0  501 -0.00000000000E+00 -0.00000000000E+00 -0.24672464611E+01  0.24672464611E+01  0.00000000000E+00 0.  1.
          1    1    1    2  502    0  0.18914639042E+02  0.88416384074E+01  0.78284800316E+02  0.81021281775E+02  0.00000000000E+00 0.  1.
         -1    1    1    2    0  501 -0.18914639042E+02 -0.88416384074E+01  0.98067478825E+02  0.10026549029E+03  0.00000000000E+00 0. -1.
</event>
<event>
 4    1  0.6888348E+001  0.2182044E+02  0.7546771E-02  0.1507866E+00
          2   -1    0    0  502    0  0.00000000000E+00  0.00000000000E+00  0.65562066270E+03  0.65562066270E+03  0.00000000000E+00 0. -1.
         -2   -1    0    0    0  501 -0.00000000000E+00 -0.00000000000E+00 -0.73103476718E+00  0.73103476718E+00  0.00000000000E+00 0.  1.
          1    1    1    2  502    0  0.16488263717E+02 -0.14292268973E+02  0.30084085480E+03  0.30163115175E+03  0.00000000000E+00 0. -1.
         -1    1    1    2    0  501 -0.16488263717E+02  0.14292268973E+02  0.35404877314E+03  0.35472054571E+03  0.00000000000E+00 0.  1.
</event>
<event>
 4    1  0.6888348E+001  0.3485042E+02  0.7546771E-02  0.1381618E+00
          2   -1    0    0  502    0  0.00000000000E+00  0.00000000000E+00  0.50926342932E+03  0.50926342932E+03  0.00000000000E+00 0.  1.
         -2   -1    0    0    0  501 -0.00000000000E+00 -0.00000000000E+00 -0.35186328925E+01  0.35186328925E+01  0.00000000000E+00 0. -1.
          1    1    1    2  502    0  0.34842613358E+02  0.73760068626E+00  0.39840747687E+03  0.39992883041E+03  0.00000000000E+00 0.  1.
         -1    1    1    2    0  501 -0.34842613358E+02 -0.73760068626E+00  0.10733731955E+03  0.11285323180E+03  0.00000000000E+00 0. -1.
</event>
<event>
 4    1  0.6888348E+001  0.5762131E+02  0.7546771E-02  0.1268136E+00
          2   -1    0    0  502    0  0.00000000000E+00  0.00000000000E+00  0.10636990040E+03  0.10636990040E+03  0.00000000000E+00 0. -1.
         -2   -1    0    0    0  501 -0.00000000000E+00 -0.00000000000E+00 -0.72049663093E+02  0.72049663093E+02  0.00000000000E+00 0.  1.
          1    1    1    2  502    0  0.53630545481E+02 -0.21070842268E+02  0.84321097779E+02  0.10212866068E+03  0.00000000000E+00 0. -1.
         -1    1    1    2    0  501 -0.53630545481E+02  0.21070842268E+02 -0.50000860476E+02  0.76290902805E+02  0.00000000000E+00 0.  1.
</event>
<event>
 4    1  0.6888348E+001  0.4955192E+02  0.7546771E-02  0.1300127E+00
          2   -1    0    0  502    0  0.00000000000E+00  0.00000000000E+00  0.28272826576E+04  0.28272826576E+04  0.00000000000E+00 0. -1.
         -2   -1    0    0    0  501 -0.00000000000E+00 -0.00000000000E+00 -0.90720831566E+00  0.90720831566E+00  0.00000000000E+00 0.  1.
          1    1    1    2  502    0  0.81433025398E+01  0.48878208232E+02  0.17054213738E+04  0.17061411005E+04  0.00000000000E+00 0. -1.
         -1    1    1    2    0  501 -0.81433025398E+01 -0.48878208232E+02  0.11209540755E+04  0.11220487655E+04  0.00000000000E+00 0.  1.
</event>
<event>
 4    1  0.6888348E+001  0.2436159E+02  0.7546771E-02  0.1476073E+00
          2   -1    0    0  502    0  0.00000000000E+00  0.00000000000E+00  0.41103648115E+02  0.41103648115E+02  0.00000000000E+00 0. -1.
         -2   -1    0    0    0  501 -0.00000000000E+00 -0.00000000000E+00 -0.19097702610E+02  0.19097702610E+02  0.00000000000E+00 0.  1.
          1    1    1    2  502    0 -0.82753261792E+00  0.24347534357E+02  0.25870119326E+02  0.35535198232E+02  0.00000000000E+00 0. -1.
         -1    1    1    2    0  501  0.82753261792E+00 -0.24347534357E+02 -0.38641738210E+01  0.24666152493E+02  0.00000000000E+00 0.  1.
</event>
<event>
 4    1  0.6888348E+001  0.2063385E+02  0.7546771E-02  0.1524557E+00
          2   -1    0    0  502    0  0.00000000000E+00  0.00000000000E+00  0.42604979839E+02  0.42604979839E+02  0.00000000000E+00 0.  1.
         -2   -1    0    0    0  501 -0.00000000000E+00 -0.00000000000E+00 -0.10286315311E+02  0.10286315311E+02  0.00000000000E+00 0. -1.
          1    1    1    2  502    0  0.20306337903E+02  0.36617344464E+01  0.11694342222E+02  0.23717362800E+02  0.00000000000E+00 0. -1.
         -1    1    1    2    0  501 -0.20306337903E+02 -0.36617344464E+01  0.20624322305E+02  0.29173932350E+02  0.00000000000E+00 0.  1.
</event>
<event>
 4    1  0.6888348E+001  0.4376117E+02  0.7546771E-02  0.1327751E+00
          2   -1    0    0  502    0  0.00000000000E+00  0.00000000000E+00  0.22899002280E+03  0.22899002280E+03  0.00000000000E+00 0.  1.
         -2   -1    0    0    0  501 -0.00000000000E+00 -0.00000000000E+00 -0.18555152317E+02  0.18555152317E+02  0.00000000000E+00 0. -1.
          1    1    1    2  502    0 -0.25569517731E+02 -0.35513941072E+02  0.19695040834E+03  0.20175357145E+03  0.00000000000E+00 0.  1.
         -1    1    1    2    0  501  0.25569517731E+02  0.35513941072E+02  0.13484462149E+02  0.45791603673E+02  0.00000000000E+00 0. -1.
</event>
<event>
 4    1  0.6888348E+001  0.2493715E+02  0.7546771E-02  0.1469508E+00
          2   -1    0    0  502    0  0.00000000000E+00  0.00000000000E+00  0.72680281870E+01  0.72680281870E+01  0.00000000000E+00 0. -1.
         -2   -1    0    0    0  501 -0.00000000000E+00 -0.00000000000E+00 -0.42042395311E+03  0.42042395311E+03  0.00000000000E+00 0.  1.
          1    1    1    2  502    0  0.24450896488E+02 -0.49005127781E+01 -0.39742736061E+03  0.39820895059E+03  0.00000000000E+00 0.  1.
         -1    1    1    2    0  501 -0.24450896488E+02  0.49005127781E+01 -0.15728564310E+02  0.29483030709E+02  0.00000000000E+00 0. -1.
</event>
<event>
 4    1  0.6888348E+001  0.2035608E+02  0.7546771E-02  0.1528660E+00
          2   -1    0    0  502    0  0.00000000000E+00  0.00000000000E+00  0.23099260281E+04  0.23099260281E+04  0.00000000000E+00 0.  1.
         -2   -1    0    0    0  501 -0.00000000000E+00 -0.00000000000E+00 -0.19112524208E+00  0.19112524208E+00  0.00000000000E+00 0. -1.
          1    1    1    2  502    0 -0.17069289621E+02 -0.11090949785E+02  0.14411227961E+04  0.14412665552E+04  0.00000000000E+00 0. -1.
         -1    1    1    2    0  501  0.17069289621E+02  0.11090949785E+02  0.86861210679E+03  0.86885059813E+03  0.00000000000E+00 0.  1.
</event>
<event>
 4    1  0.6888348E+001  0.2052895E+02  0.7546771E-02  0.1526098E+00
          2   -1    0    0  502    0  0.00000000000E+00  0.00000000000E+00  0.56486520056E+03  0.56486520056E+03  0.00000000000E+00 0.  1.
         -2   -1    0    0    0  501 -0.00000000000E+00 -0.00000000000E+00 -0.80449542602E+00  0.80449542602E+00  0.00000000000E+00 0. -1.
          1    1    1    2  502    0  0.61722307364E+01 -0.19579109532E+02  0.20582017671E+03  0.20684144436E+03  0.00000000000E+00 0. -1.
         -1    1    1    2    0  501 -0.61722307364E+01  0.19579109532E+02  0.35824052842E+03  0.35882825163E+03  0.00000000000E+00 0.  1.
</event>
<event>
 4    1  0.6888348E+001  0.2623049E+02  0.7546771E-02  0.1455495E+00
          2   -1    0    0  502    0  0.00000000000E+00  0.00000000000E+00  0.16584699934E+04  0.16584699934E+04  0.00000000000E+00 0. -1.
         -2   -1    0    0    0  501 -0.00000000000E+00 -0.00000000000E+00 -0.82844315076E+00  0.82844315076E+00  0.00000000000E+00 0.  1.
          1    1    1    2  502    0  0.20841812795E+02 -0.15926622926E+02  0.14150166973E+04  0.14152597967E+04  0.00000000000E+00 0. -1.
         -1    1    1    2    0  501 -0.20841812795E+02  0.15926622926E+02  0.24262485297E+03  0.24403863988E+03  0.00000000000E+00 0.  1.
</event>
<event>
 4    1  0.6888348E+001  0.2301266E+02  0.7546771E-02  0.1492339E+00
          2   -1    0    0  502    0  0.00000000000E+00  0.00000000000E+00  0.17491050191E+02  0.17491050191E+02  0.00000000000E+00 0.  1.
         -2   -1    0    0    0  501 -0.00000000000E+00 -0.00000000000E+00 -0.43185821460E+02  0.43185821460E+02  0.00000000000E+00 0. -1.
          1    1    1    2  502    0 -0.12238509689E+02  0.19488490794E+02  0.37393242577E+01  0.23314479165E+02  0.00000000000E+00 0.  1.
         -1    1    1    2    0  501  0.12238509689E+02 -0.19488490794E+02 -0.29434095526E+02  0.37362392486E+02  0.00000000000E+00 0. -1.
</event>
<event>
 4    1  0.6888348E+001  0.2427447E+02  0.7546771E-02  0.1477086E+00
          2   -1    0    0  502    0  0.00000000000E+00  0.00000000000E+00  0.13250869417E+04  0.13250869417E+04  0.00000000000E+00 0. -1.
         -2   -1    0    0    0  501 -0.00000000000E+00 -0.00000000000E+00 -0.44644730262E+00  0.44644730262E+00  0.00000000000E+00 0.  1.
          1    1    1    2  502    0  0.14098798387E+02 -0.19760408570E+02  0.62071165494E+03  0.62118613027E+03  0.00000000000E+00 0. -1.
         -1    1    1    2    0  501 -0.14098798387E+02  0.19760408570E+02  0.70392883950E+03  0.70434725878E+03  0.00000000000E+00 0.  1.
</event>
<event>
 4    1  0.6888348E+001  0.2322839E+02  0.7546771E-02  0.1489650E+00
          2   -1    0    0  502    0  0.00000000000E+00  0.00000000000E+00  0.77793167643E+03  0.77793167643E+03  0.00000000000E+00 0. -1.
         -2   -1    0    0    0  501 -0.00000000000E+00 -0.00000000000E+00 -0.13886253791E+01  0.13886253791E+01  0.00000000000E+00 0.  1.
          1    1    1    2  502    0 -0.23212024512E+02 -0.87182562555E+00  0.11259492734E+03  0.11496597682E+03  0.00000000000E+00 0.  1.
         -1    1    1    2    0  501  0.23212024512E+02  0.87182562555E+00  0.66394812371E+03  0.66435432500E+03  0.00000000000E+00 0. -1.
</event>
<event>
 4    1  0.6888348E+001  0.2490258E+02  0.7546771E-02  0.1469896E+00
          2   -1    0    0  502    0  0.00000000000E+00  0.00000000000E+00  0.39828088991E+03  0.39828088991E+03  0.00000000000E+00 0.  1.
         -2   -1    0    0    0  501 -0.00000000000E+00 -0.00000000000E+00 -0.15767806740E+01  0.15767806740E+01  0.00000000000E+00 0. -1.
          1    1    1    2  502    0 -0.24768310081E+02  0.25825119011E+01  0.22072333276E+03  0.22212367766E+03  0.00000000000E+00 0.  1.
         -1    1    1    2    0  501  0.24768310081E+02 -0.25825119011E+01  0.17598077648E+03  0.17773399293E+03  0.00000000000E+00 0. -1.
</event>
<event>
 4    1  0.6888348E+001  0.2463707E+02  0.7546771E-02  0.1472905E+00
          2   -1    0    0  502    0  0.00000000000E+00  0.00000000000E+00  0.34545106069E+02  0.34545106069E+02  0.00000000000E+00 0. -1.
         -2   -1    0    0    0  501 -0.00000000000E+00 -0.00000000000E+00 -0.30141217485E+02  0.30141217485E+02  0.00000000000E+00 0.  1.
          1    1    1    2  502    0  0.21714900999E+02 -0.11638234574E+02  0.23088979012E+02  0.33765165204E+02  0.00000000000E+00 0. -1.
         -1    1    1    2    0  501 -0.21714900999E+02  0.11638234574E+02 -0.18685090428E+02  0.30921158350E+02  0.00000000000E+00 0.  1.
</event>
<event>
 4    1  0.6888348E+001  0.2149135E+02  0.7546771E-02  0.1512364E+00
          2   -1    0    0  502    0  0.00000000000E+00  0.00000000000E+00  0.35418241515E+01  0.35418241515E+01  0.00000000000E+00 0. -1.
         -2   -1    0    0    0  501 -0.00000000000E+00 -0.00000000000E+00 -0.14264741363E+03  0.14264741363E+03  0.00000000000E+00 0.  1.
          1    1    1    2  502    0  0.21241778985E+02 -0.32656975293E+01 -0.48140902703E+02  0.52720247228E+02  0.00000000000E+00 0.  1.
         -1    1    1    2    0  501 -0.21241778985E+02  0.32656975293E+01 -0.90964686775E+02  0.93468990552E+02  0.00000000000E+00 0. -1.
</event>
<event>
 4    1  0.6888348E+001  0.2476672E+02  0.7546771E-02  0.1471430E+00
          2   -1    0    0  502    0  0.00000000000E+00  0.00000000000E+00  0.62202630272E+03  0.62202630272E+03  0.00000000000E+00 0. -1.
         -2   -1    0    0    0  501 -0.00000000000E+00 -0.00000000000E+00 -0.11952764947E+01  0.11952764947E+01  0.00000000000E+00 0.  1.
          1    1    1    2  502    0  0.12989241531E+02  0.21087205147E+02  0.18006364850E+03  0.18175892860E+03  0.00000000000E+00 0.  1.
         -1    1    1    2    0  501 -0.12989241531E+02 -0.21087205147E+02  0.44076737773E+03  0.44146265061E+03  0.00000000000E+00 0. -1.
</event>
<event>
 4    1  0.6888348E+001  0.2078131E+02  0.7546771E-02  0.1522410E+00
          2   -1    0    0  502    0  0.00000000000E+00  0.00000000000E+00  0.71267533628E+01  0.71267533628E+01  0.00000000000E+00 0. -1.
         -2   -1    0    0    0  501 -0.00000000000E+00 -0.00000000000E+00 -0.66952672267E+02  0.66952672267E+02  0.00000000000E+00 0.  1.
          1    1    1    2  502    0  0.47974613543E+01  0.20219971048E+02 -0.41324651944E+02  0.46255699356E+02  0.00000000000E+00 0. -1.
         -1    1    1    2    0  501 -0.47974613543E+01 -0.20219971048E+02 -0.18501266960E+02  0.27823726274E+02  0.00000000000E+00 0.  1.
</event>
<event>
 4    1  0.6888348E+001  0.2150631E+02  0.7546771E-02  0.1512157E+00
          2   -1    0    0  502    0  0.00000000000E+00  0.00000000000E+00  0.99463074783E+03  0.99463074783E+03  0.00000000000E+00 0. -1.
         -2   -1    0    0    0  501 -0.00000000000E+00 -0.00000000000E+00 -0.83468594803E+00  0.83468594803E+00  0.00000000000E+00 0.  1.
          1    1    1    2  502    0 -0.10875345743E+02 -0.18553928060E+02  0.16565982516E+03  0.16704998972E+03  0.00000000000E+00 0.  1.
         -1    1    1    2    0  501  0.10875345743E+02  0.18553928060E+02  0.82813623672E+03  0.82841544406E+03  0.00000000000E+00 0. -1.
</event>
<event>
 4    1  0.6888348E+001  0.2187382E+02  0.7546771E-02  0.1507145E+00
          2   -1    0    0  502    0  0.00000000000E+00  0.00000000000E+00  0.93682648872E+03  0.93682648872E+03  0.00000000000E+00 0.  1.
         -2   -1    0    0    0  501 -0.00000000000E+00 -0.00000000000E+00 -0.51093779343E+00  0.51093779343E+00  0.00000000000E+00 0. -1.
          1    1    1    2  502    0  0.10217382028E+01  0.21849947058E+02  0.47763968325E+03  0.47814028397E+03  0.00000000000E+00 0. -1.
         -1    1    1    2    0  501 -0.10217382028E+01 -0.21849947058E+02  0.45867586767E+03  0.45919714254E+03  0.00000000000E+00 0.  1.
</event>
<event>
 4    1  0.6888348E+001  0.2642586E+02  0.7546771E-02  0.1453462E+00
          2   -1    0    0  502    0  0.00000000000E+00  0.00000000000E+00  0.69134269425E+02  0.69134269425E+02  0.00000000000E+00 0.  1.
         -2   -1    0    0    0  501 -0.00000000000E+00 -0.00000000000E+00 -0.10260549787E+02  0.10260549787E+02  0.00000000000E+00 0. -1.
          1    1    1    2  502    0 -0.11459856749E+02  0.23811713664E+02  0.24486807022E+02  0.36026792009E+02  0.00000000000E+00 0.  1.
         -1    1    1    2    0  501  0.11459856749E+02 -0.23811713664E+02  0.34386912616E+02  0.43368027204E+02  0.00000000000E+00 0. -1.
</event>
<event>
 4    1  0.6888348E+001  0.2826799E+02  0.7546771E-02  0.1435270E+00
          2   -1    0    0  502    0  0.00000000000E+00  0.00000000000E+00  0.10262891982E+04  0.10262891982E+04  0.00000000000E+00 0.  1.
         -2   -1    0    0    0  501 -0.00000000000E+00 -0.00000000000E+00 -0.64869409515E+01  0.64869409515E+01  0.00000000000E+00 0. -1.
          1    1    1    2  502    0 -0.21889976183E+02  0.17885975575E+02  0.25493700425E+02  0.38065836926E+02  0.00000000000E+00 0. -1.
         -1    1    1    2    0  501  0.21889976183E+02 -0.17885975575E+02  0.99430855686E+03  0.99471030226E+03  0.00000000000E+00 0.  1.
</event>
<event>
 4    1  0.6888348E+001  0.4260383E+02  0.7546771E-02  0.1333868E+00
          2   -1    0    0  502    0  0.00000000000E+00  0.00000000000E+00  0.30438770945E+03  0.30438770945E+03  0.00000000000E+00 0. -1.
         -2   -1    0    0    0  501 -0.00000000000E+00 -0.00000000000E+00 -0.27324013485E+02  0.27324013485E+02  0.00000000000E+00 0.  1.
          1    1    1    2  502    0  0.42426516549E+02 -0.38829668009E+01  0.28517734900E+03  0.28834217021E+03  0.00000000000E+00 0. -1.
         -1    1    1    2    0  501 -0.42426516549E+02  0.38829668009E+01 -0.81136530396E+01  0.43369552722E+02  0.00000000000E+00 0.  1.
</event>
<event>
 4    1  0.6888348E+001  0.2203699E+02  0.7546771E-02  0.1504958E+00
          2   -1    0    0  502    0  0.00000000000E+00  0.00000000000E+00  0.19232041970E+04  0.19232041970E+04  0.00000000000E+00 0.  1.
         -2   -1    0    0    0  501 -0.00000000000E+00 -0.00000000000E+00 -0.25599475286E+00  0.25599475286E+00  0.00000000000E+00 0. -1.
          1    1    1    2  502    0  0.23695931141E+01 -0.21909225057E+02  0.10736751769E+04  0.10739013058E+04  0.00000000000E+00 0.  1.
         -1    1    1    2    0  501 -0.23695931141E+01  0.21909225057E+02  0.84927302541E+03  0.84955888601E+03  0.00000000000E+00 0. -1.
</event>
<event>
 4    1  0.6888348E+001  0.2086053E+02  0.7546771E-02  0.1521265E+00
          2   -1    0    0  502    0  0.00000000000E+00  0.00000000000E+00  0.20407526080E+04  0.20407526080E+04  0.00000000000E+00 0.  1.
         -2   -1    0    0    0  501 -0.00000000000E+00 -0.00000000000E+00 -0.21397234078E+00  0.21397234078E+00  0.00000000000E+00 0. -1.
          1    1    1    2  502    0  0.20086608126E+02 -0.56293928237E+01  0.10801340925E+04  0.10803355125E+04  0.00000000000E+00 0. -1.
         -1    1    1    2    0  501 -0.20086608126E+02  0.56293928237E+01  0.96040454314E+03  0.96063106777E+03  0.00000000000E+00 0.  1.
</event>
<event>
 4    1  0.6888348E+001  0.3173861E+02  0.7546771E-02  0.1405066E+00
          2   -1    0    0  502    0  0.00000000000E+00  0.00000000000E+00  0.25765339486E+04  0.25765339486E+04  0.00000000000E+00 0. -1.
         -2   -1    0    0    0  501 -0.00000000000E+00 -0.00000000000E+00 -0.67555012366E+00  0.67555012366E+00  0.00000000000E+00 0.  1.
          1    1    1    2  502    0 -0.13662377899E+02  0.28647495603E+02  0.45156475569E+03  0.45267876928E+03  0.00000000000E+00 0.  1.
         -1    1    1    2    0  501  0.13662377899E+02 -0.28647495603E+02  0.21242936428E+04  0.21245307294E+04  0.00000000000E+00 0. -1.
</event>
<event>
 4    1  0.6888348E+001  0.2063907E+02  0.7546771E-02  0.1524481E+00
          2   -1    0    0  502    0  0.00000000000E+00  0.00000000000E+00  0.17627321804E+04  0.17627321804E+04  0.00000000000E+00 0. -1.
         -2   -1    0    0    0  501 -0.00000000000E+00 -0.00000000000E+00 -0.27158890524E+00  0.27158890524E+00  0.00000000000E+00 0.  1.
          1    1    1    2  502    0 -0.28284785779E+01 -0.20444332384E+02  0.58857440808E+03  0.58893616366E+03  0.00000000000E+00 0.  1.
         -1    1    1    2    0  501  0.28284785779E+01  0.20444332384E+02  0.11738861834E+04  0.11740676057E+04  0.00000000000E+00 0. -1.
</event>
<event>
 4    1  0.6888348E+001  0.2185766E+02  0.7546771E-02  0.1507363E+00
          2   -1    0    0  502    0  0.00000000000E+00  0.00000000000E+00  0.55209027922E+01  0.55209027922E+01  0.00000000000E+00 0. -1.
         -2   -1    0    0    0  501 -0.00000000000E+00 -0.00000000000E+00 -0.24778965675E+03  0.24778965675E+03  0.00000000000E+00 0.  1.
          1    1    1    2  502    0 -0.21248059879E+02  0.51261549504E+01 -0.22330742143E+03  0.22437460191E+03  0.00000000000E+00 0. -1.
         -1    1    1    2    0  501  0.21248059879E+02 -0.51261549504E+01 -0.18961332524E+02  0.28935957636E+02  0.00000000000E+00 0.  1.
</event>
<event>
 4    1  0.6888348E+001  0.2267351E+02  0.7546771E-02  0.1496639E+00
          2   -1    0    0  502    0  0.00000000000E+00  0.00000000000E+00  0.13116152684E+04  0.13116152684E+04  0.00000000000E+00 0. -1.
         -2   -1    0    0    0  501 -0.00000000000E+00 -0.00000000000E+00 -0.13203821071E+01  0.13203821071E+01  0.00000000000E+00 0.  1.
          1    1    1    2  502    0 -0.20307002607E+02  0.10085331192E+02  0.10467119022E+03  0.10709876901E+03  0.00000000000E+00 0.  1.
         -1    1    1    2    0  501  0.20307002607E+02 -0.10085331192E+02  0.12056236961E+04  0.12058368815E+04  0.00000000000E+00 0. -1.
</event>
<event>
 4    1  0.6888348E+001  0.2194417E+02  0.7546771E-02  0.1506200E+00
          2   -1    0    0  502    0  0.00000000000E+00  0.00000000000E+00  0.54576838675E+03  0.54576838675E+03  0.00000000000E+00 0.  1.
         -2   -1    0    0    0  501 -0.00000000000E+00 -0.00000000000E+00 -0.88233526563E+00  0.88233526563E+00  0.00000000000E+00 0. -1.
          1    1    1    2  502    0  0.93040836452E+01  0.19874123170E+02  0.27322585949E+03  0.27410566765E+03  0.00000000000E+00 0.  1.
         -1    1    1    2    0  501 -0.93040836452E+01 -0.19874123170E+02  0.27166019199E+03  0.27254505436E+03  0.00000000000E+00 0. -1.
</event>
<event>
 4    1  0.6888348E+001  0.3604396E+02  0.7546771E-02  0.1373369E+00
          2   -1    0    0  502    0  0.00000000000E+00  0.00000000000E+00  0.52227296013E+03  0.52227296013E+03  0.00000000000E+00 0.  1.
         -2   -1    0    0    0  501 -0.00000000000E+00 -0.00000000000E+00 -0.35763223027E+01  0.35763223027E+01  0.00000000000E+00 0. -1.
          1    1    1    2  502    0  0.16468044131E+02 -0.32061985708E+02  0.11427540138E+03  0.11982501728E+03  0.00000000000E+00 0. -1.
         -1    1    1    2    0  501 -0.16468044131E+02  0.32061985708E+02  0.40442123645E+03  0.40602426516E+03  0.00000000000E+00 0.  1.
</event>
<event>
 4    1  0.6888348E+001  0.2414395E+02  0.7546771E-02  0.1478612E+00
          2   -1    0    0  502    0  0.00000000000E+00  0.00000000000E+00  0.10103199459E+04  0.10103199459E+04  0.00000000000E+00 0.  1.
         -2   -1    0    0    0  501 -0.00000000000E+00 -0.00000000000E+00 -0.75660553427E+00  0.75660553427E+00  0.00000000000E+00 0. -1.
          1    1    1    2  502    0 -0.24123452206E+02 -0.99473703408E+00  0.75110642191E+03  0.75149436956E+03  0.00000000000E+00 0.  1.
         -1    1    1    2    0  501  0.24123452206E+02  0.99473703408E+00  0.25845691841E+03  0.25958218183E+03  0.00000000000E+00 0. -1.
</event>
<event>
 4    1  0.6888348E+001  0.2188285E+02  0.7546771E-02  0.1507024E+00
          2   -1    0    0  502    0  0.00000000000E+00  0.00000000000E+00  0.10267737946E+04  0.10267737946E+04  0.00000000000E+00 0.  1.
         -2   -1    0    0    0  501 -0.00000000000E+00 -0.00000000000E+00 -0.54247575857E+00  0.54247575857E+00  0.00000000000E+00 0. -1.
          1    1    1    2  502    0  0.21682471855E+02  0.29545954200E+01  0.70550685315E+03  0.70584614404E+03  0.00000000000E+00 0.  1.
         -1    1    1    2    0  501 -0.21682471855E+02 -0.29545954200E+01  0.32072446572E+03  0.32147012634E+03  0.00000000000E+00 0. -1.
</event>
<event>
 4    1  0.6888348E+001  0.3452190E+02  0.7546771E-02  0.1383956E+00
          2   -1    0    0  502    0  0.00000000000E+00  0.00000000000E+00  0.27265059516E+02  0.27265059516E+02  0.00000000000E+00 0.  1.
         -2   -1    0    0    0  501 -0.00000000000E+00 -0.00000000000E+00 -0.58396970483E+02  0.58396970483E+02  0.00000000000E+00 0. -1.
          1    1    1    2  502    0 -0.66422565247E+00 -0.34515507967E+02 -0.37045556447E+02  0.50637286049E+02  0.00000000000E+00 0. -1.
         -1    1    1    2    0  501  0.66422565247E+00  0.34515507967E+02  0.59136454802E+01  0.35024743950E+02  0.00000000000E+00 0.  1.
</event>
<event>
 4    1  0.6888348E+001  0.2103742E+02  0.7546771E-02  0.1518731E+00
          2   -1    0    0  502    0  0.00000000000E+00  0.00000000000E+00  0.55061577064E+02  0.55061577064E+02  0.00000000000E+00 0. -1.
         -2   -1    0    0    0  501 -0.00000000000E+00 -0.00000000000E+00 -0.14824404687E+02  0.14824404687E+02  0.00000000000E+00 0.  1.
          1    1    1    2  502    0  0.13203622763E+02  0.16377960236E+02  0.43761343910E+02  0.48555416344E+02  0.00000000000E+00 0. -1.
         -1    1    1    2    0  501 -0.13203622763E+02 -0.16377960236E+02 -0.35241715323E+01  0.21330565407E+02  0.00000000000E+00 0.  1.
</event>
<event>
 4    1  0.6888348E+001  0.3544532E+02  0.7546771E-02  0.1377459E+00
          2   -1    0    0  502    0  0.00000000000E+00  0.00000000000E+00  0.38581419432E+03  0.38581419432E+03  0.00000000000E+00 0. -1.
         -2   -1    0    0    0  501 -0.00000000000E+00 -0.00000000000E+00 -0.11567029231E+02  0.11567029231E+02  0.00000000000E+00 0.  1.
          1    1    1    2  502    0  0.33632467810E+02  0.11190517067E+02  0.35553945928E+03  0.35730194187E+03  0.00000000000E+00 0. -1.
         -1    1    1    2    0  501 -0.33632467810E+02 -0.11190517067E+02  0.18707705815E+02  0.40079281681E+02  0.00000000000E+00 0.  1.
</event>
<event>
 4    1  0.6888348E+001  0.3048055E+02  0.7546771E-02  0.1415466E+00
          2   -1    0    0  502    0  0.00000000000E+00  0.00000000000E+00  0.19861372982E+03  0.19861372982E+03  0.00000000000E+00 0.  1.
         -2   -1    0    0    0  501 -0.00000000000E+00 -0.00000000000E+00 -0.70702001363E+01  0.70702001363E+01  0.00000000000E+00 0. -1.
          1    1    1    2  502    0 -0.27878294219E+02  0.12323339294E+02  0.35947606529E+02  0.47130609958E+02  0.00000000000E+00 0. -1.
         -1    1    1    2    0  501  0.27878294219E+02 -0.12323339294E+02  0.15559592315E+03  0.15855332000E+03  0.00000000000E+00 0.  1.
</event>
<event>
 4    1  0.6888348E+001  0.2234124E+02  0.7546771E-02  0.1500940E+00
          2   -1    0    0  502    0  0.00000000000E+00  0.00000000000E+00  0.93227543966E+02  0.93227543966E+02  0.00000000000E+00 0. -1.
         -2   -1    0    0    0  501 -0.00000000000E+00 -0.00000000000E+00 -0.53543081795E+01  0.53543081795E+01  0.00000000000E+00 0.  1.
          1    1    1    2  502    0  0.17148984496E+02 -0.14319339315E+02  0.44365854283E+02  0.49673535951E+02  0.00000000000E+00 0. -1.
         -1    1    1    2    0  501 -0.17148984496E+02  0.14319339315E+02  0.43507381504E+02  0.48908316195E+02  0.00000000000E+00 0.  1.
</event>
<event>
 4    1  0.6888348E+001  0.4338472E+02  0.7546771E-02  0.1329717E+00
          2   -1    0    0  502    0  0.00000000000E+00  0.00000000000E+00  0.28188584993E+04  0.28188584993E+04  0.00000000000E+00 0.  1.
         -2   -1    0    0    0  501 -0.00000000000E+00 -0.00000000000E+00 -0.68823622889E+00  0.68823622889E+00  0.00000000000E+00 0. -1.
          1    1    1    2  502    0  0.43123344453E+02 -0.47550925224E+01  0.11657340002E+04  0.11665410379E+04  0.00000000000E+00 0. -1.
         -1    1    1    2    0  501 -0.43123344453E+02  0.47550925224E+01  0.16524362628E+04  0.16530056977E+04  0.00000000000E+00 0.  1.
</event>
<event>
 4    1  0.6888348E+001  0.2024844E+02  0.7546771E-02  0.1530271E+00
          2   -1    0    0  502    0  0.00000000000E+00  0.00000000000E+00  0.43761451082E+03  0.43761451082E+03  0.00000000000E+00 0. -1.
         -2   -1    0    0    0  501 -0.00000000000E+00 -0.00000000000E+00 -0.93744513007E+00  0.93744513007E+00  0.00000000000E+00 0.  1.
          1    1    1    2  502    0  0.16366015323E+02 -0.11922785603E+02  0.21303133394E+03  0.21399146832E+03  0.00000000000E+00 0. -1.
         -1    1    1    2    0  501 -0.16366015323E+02  0.11922785603E+02  0.22364573175E+03  0.22456048763E+03  0.00000000000E+00 0.  1.
</event>
<event>
 4    1  0.6888348E+001  0.5517911E+02  0.7546771E-02  0.1277155E+00
          2   -1    0    0  502    0  0.00000000000E+00  0.00000000000E+00  0.38880119601E+02  0.38880119601E+02  0.00000000000E+00 0. -1.
         -2   -1    0    0    0  501 -0.00000000000E+00 -0.00000000000E+00 -0.11348974244E+03  0.11348974244E+03  0.00000000000E+00 0.  1.
          1    1    1    2  502    0 -0.48282352238E+02  0.26712337501E+02 -0.79721031716E+02  0.96954512068E+02  0.00000000000E+00 0.  1.
         -1    1    1    2    0  501  0.48282352238E+02 -0.26712337501E+02  0.51114088735E+01  0.55415349977E+02  0.00000000000E+00 0. -1.
</event>
<event>
 4    1  0.6888348E+001  0.2766439E+02  0.7546771E-02  0.1441046E+00
          2   -1    0    0  502    0  0.00000000000E+00  0.00000000000E+00  0.34267840214E+01  0.34267840214E+01  0.00000000000E+00 0. -1.
         -2   -1    0    0    0  501 -0.00000000000E+00 -0.00000000000E+00 -0.22667273900E+03  0.22667273900E+03  0.00000000000E+00 0.  1.
          1    1    1    2  502    0 -0.13934521612E+02  0.23898689535E+02 -0.97660555087E+02  0.10150321312E+03  0.00000000000E+00 0.  1.
         -1    1    1    2    0  501  0.13934521612E+02 -0.23898689535E+02 -0.12558539990E+03  0.12859630990E+03  0.00000000000E+00 0. -1.
</event>
<event>
 4    1  0.6888348E+001  0.2135805E+02  0.7546771E-02  0.1514214E+00
          2   -1    0    0  502    0  0.00000000000E+00  0.00000000000E+00  0.76888801859E+03  0.76888801859E+03  0.00000000000E+00 0.  1.
         -2   -1    0    0    0  501 -0.00000000000E+00 -0.00000000000E+00 -0.60158752203E+00  0.60158752203E+00  0.00000000000E+00 0. -1.
          1    1    1    2  502    0 -0.53661831428E+01  0.20672934908E+02  0.42935480077E+03  0.42988569539E+03  0.00000000000E+00 0.  1.
         -1    1    1    2    0  501  0.53661831428E+01 -0.20672934908E+02  0.33893163030E+03  0.33960391072E+03  0.00000000000E+00 0. -1.
</event>
<event>
 4    1  0.6888348E+001  0.5317082E+02  0.7546771E-02  0.1284981E+00
          2   -1    0    0  502    0  0.00000000000E+00  0.00000000000E+00  0.14260593175E+04  0.14260593175E+04  0.00000000000E+00 0.  1.
         -2   -1    0    0    0  501 -0.00000000000E+00 -0.00000000000E+00 -0.32959292160E+01  0.32959292160E+01  0.00000000000E+00 0. -1.
          1    1    1    2  502    0  0.15248640174E+02 -0.50937362543E+02  0.11625386673E+04  0.11637539641E+04  0.00000000000E+00 0.  1.
         -1    1    1    2    0  501 -0.15248640174E+02  0.50937362543E+02  0.26022472099E+03  0.26560128265E+03  0.00000000000E+00 0. -1.
</event>
<event>
 4    1  0.6888348E+001  0.2672143E+02  0.7546771E-02  0.1450427E+00
          2   -1    0    0  502    0  0.00000000000E+00  0.00000000000E+00  0.21714795875E+04  0.21714795875E+04  0.00000000000E+00 0. -1.
         -2   -1    0    0    0  501 -0.00000000000E+00 -0.00000000000E+00 -0.41338368553E+00  0.41338368553E+00  0.00000000000E+00 0.  1.
          1    1    1    2  502    0  0.17641697400E+02  0.20070015437E+02  0.59438444493E+03  0.59498479256E+03  0.00000000000E+00 0.  1.
         -1    1    1    2    0  501 -0.17641697400E+02 -0.20070015437E+02  0.15766817589E+04  0.15769081787E+04  0.00000000000E+00 0. -1.
</event>
<event>
 4    1  0.6888348E+001  0.2177965E+02  0.7546771E-02  0.1508418E+00
          2   -1    0    0  502    0  0.00000000000E+00  0.00000000000E+00  0.86664260988E+03  0.86664260988E+03  0.00000000000E+00 0. -1.
         -2   -1    0    0    0  501 -0.00000000000E+00 -0.00000000000E+00 -0.58037002801E+00  0.58037002801E+00  0.00000000000E+00 0.  1.
          1    1    1    2  502    0  0.96581237953E+01 -0.19521107532E+02  0.53646579006E+03  0.53690771730E+03  0.00000000000E+00 0. -1.
         -1    1    1    2    0  501 -0.96581237953E+01  0.19521107532E+02  0.32959644979E+03  0.33031526260E+03  0.00000000000E+00 0.  1.
</event>
<event>
 4    1  0.6888348E+001  0.2414362E+02  0.7546771E-02  0.1478616E+00
          2   -1    0    0  502    0  0.00000000000E+00  0.00000000000E+00  0.36814344083E+01  0.36814344083E+01  0.00000000000E+00 0. -1.
         -2   -1    0    0    0  501 -0.00000000000E+00 -0.00000000000E+00 -0.17705565614E+03  0.17705565614E+03  0.00000000000E+00 0.  1.
          1    1    1    2  502    0  0.23560153001E+02 -0.52757406114E+01 -0.57305353889E+02  0.62183742512E+02  0.00000000000E+00 0.  1.
         -1    1    1    2    0  501 -0.23560153001E+02  0.52757406114E+01 -0.11606886784E+03  0.11855334803E+03  0.00000000000E+00 0. -1.
</event>
<event>
 4    1  0.6888348E+001  0.2685278E+02  0.7546771E-02  0.1449093E+00
          2   -1    0    0  502    0  0.00000000000E+00  0.00000000000E+00  0.15428167883E+04  0.15428167883E+04  0.00000000000E+00 0. -1.
         -2   -1    0    0    0  501 -0.00000000000E+00 -0.00000000000E+00 -0.47414450087E+00  0.47414450087E+00  0.00000000000E+00 0.  1.
          1    1    1    2  502    0 -0.31928082277E+01 -0.26662291932E+02  0.67895969188E+03  0.67949049665E+03  0.00000000000E+00 0.  1.
         -1    1    1    2    0  501  0.31928082277E+01  0.26662291932E+02  0.86338295194E+03  0.86380043618E+03  0.00000000000E+00 0. -1.
</event>
<event>
 4    1  0.6888348E+001  0.2122953E+02  0.7546771E-02  0.1516013E+00
          2   -1    0    0  502    0  0.00000000000E+00  0.00000000000E+00  0.19822997731E+04  0.19822997731E+04  0.00000000000E+00 0. -1.
         -2   -1    0    0    0  501 -0.00000000000E+00 -0.00000000000E+00 -0.22752744456E+00  0.22752744456E+00  0.00000000000E+00 0.  1.
          1    1    1    2  502    0 -0.20942193948E+02 -0.34809953752E+01  0.96402945536E+03  0.96426318172E+03  0.00000000000E+00 0.  1.
         -1    1    1    2    0  501  0.20942193948E+02  0.34809953752E+01  0.10180427903E+04  0.10182641188E+04  0.00000000000E+00 0. -1.
</event>
<event>
 4    1  0.6888348E+001  0.2473760E+02  0.7546771E-02  0.1471760E+00
          2   -1    0    0  502    0  0.00000000000E+00  0.00000000000E+00  0.56687155844E+03  0.56687155844E+03  0.00000000000E+00 0.  1.
         -2   -1    0    0    0  501 -0.00000000000E+00 -0.00000000000E+00 -0.12891135435E+01  0.12891135435E+01  0.00000000000E+00 0. -1.
          1    1    1    2  502    0 -0.23650655899E+02 -0.72522803624E+01  0.16824396338E+03  0.17005287503E+03  0.00000000000E+00 0. -1.
         -1    1    1    2    0  501  0.23650655899E+02  0.72522803624E+01  0.39733848152E+03  0.39810779695E+03  0.00000000000E+00 0.  1.
</event>
<event>
 4    1  0.6888348E+001  0.2041618E+02  0.7546771E-02  0.1527766E+00
          2   -1    0    0  502    0  0.00000000000E+00  0.00000000000E+00  0.29204004937E+03  0.29204004937E+03  0.00000000000E+00 0. -1.
         -2   -1    0    0    0  501 -0.00000000000E+00 -0.00000000000E+00 -0.17530263399E+01  0.17530263399E+01  0.00000000000E+00 0.  1.
          1    1    1    2  502    0  0.19352795243E+02  0.65030418377E+01  0.81820255166E+02  0.84328965322E+02  0.00000000000E+00 0.  1.
         -1    1    1    2    0  501 -0.19352795243E+02 -0.65030418377E+01  0.20846676786E+03  0.20946411038E+03  0.00000000000E+00 0. -1.
</event>
<event>
 4    1  0.6888348E+001  0.6289736E+02  0.7546771E-02  0.1250294E+00
          2   -1    0    0  502    0  0.00000000000E+00  0.00000000000E+00  0.22590864218E+03  0.22590864218E+03  0.00000000000E+00 0. -1.
         -2   -1    0    0    0  501 -0.00000000000E+00 -0.00000000000E+00 -0.20581809530E+02  0.20581809530E+02  0.00000000000E+00 0.  1.
          1    1    1    2  502    0 -0.41322571487E+02  0.47418590430E+02  0.15026208962E+03  0.16289497601E+03  0.00000000000E+00 0. -1.
         -1    1    1    2    0  501  0.41322571487E+02 -0.47418590430E+02  0.55064743037E+02  0.83595475705E+02  0.00000000000E+00 0.  1.
</event>
<event>
 4    1  0.6888348E+001  0.2186442E+02  0.7546771E-02  0.1507272E+00
          2   -1    0    0  502    0  0.00000000000E+00  0.00000000000E+00  0.13263604983E+03  0.13263604983E+03  0.00000000000E+00 0.  1.
         -2   -1    0    0    0  501 -0.00000000000E+00 -0.00000000000E+00 -0.36043161050E+01  0.36043161050E+01  0.00000000000E+00 0. -1.
          1    1    1    2  502    0 -0.48328423905E+01 -0.21323615960E+02  0.64215620025E+02  0.67835822530E+02  0.00000000000E+00 0. -1.
         -1    1    1    2    0  501  0.48328423905E+01  0.21323615960E+02  0.64816113701E+02  0.68404543405E+02  0.00000000000E+00 0.  1.
</event>
<event>
 4    1  0.6888348E+001  0.2002346E+02  0.7546771E-02  0.1533677E+00
          2   -1    0    0  502    0  0.00000000000E+00  0.00000000000E+00  0.15379201967E+03  0.15379201967E+03  0.00000000000E+00 0. -1.
         -2   -1    0    0    0  501 -0.00000000000E+00 -0.00000000000E+00 -0.30216753466E+01  0.30216753466E+01  0.00000000000E+00 0.  1.
          1    1    1    2  502    0 -0.16771563665E+02  0.10938622507E+02  0.46340001373E+02  0.50481031461E+02  0.00000000000E+00 0.  1.
         -1    1    1    2    0  501  0.16771563665E+02 -0.10938622507E+02  0.10443034295E+03  0.10633266356E+03  0.00000000000E+00 0. -1.
</event>
<event>
 4    1  0.6888348E+001  0.3884640E+02  0.7546771E-02  0.1355382E+00
          2   -1    0    0  502    0  0.00000000000E+00  0.00000000000E+00  0.68117893978E+02  0.68117893978E+02  0.00000000000E+00 0.  1.
         -2   -1    0    0    0  501 -0.00000000000E+00 -0.00000000000E+00 -0.35095050884E+02  0.35095050884E+02  0.00000000000E+00 0. -1.
          1    1    1    2  502    0 -0.27870258147E+02 -0.27060881350E+02  0.47849774333E+02  0.61633136318E+02  0.00000000000E+00 0.  1.
         -1    1    1    2    0  501  0.27870258147E+02  0.27060881350E+02 -0.14826931239E+02  0.41579808545E+02  0.00000000000E+00 0. -1.
</event>
<event>
 4    1  0.6888348E+001  0.2783535E+02  0.7546771E-02  0.1439393E+00
          2   -1    0    0  502    0  0.00000000000E+00  0.00000000000E+00  0.19397040272E+04  0.19397040272E+04  0.00000000000E+00 0.  1.
         -2   -1    0    0    0  501 -0.00000000000E+00 -0.00000000000E+00 -0.43655776796E+01  0.43655776796E+01  0.00000000000E+00 0. -1.
          1    1    1    2  502    0  0.27083409030E+02 -0.64261687848E+01  0.18941673143E+04  0.18943718276E+04  0.00000000000E+00 0.  1.
         -1    1    1    2    0  501 -0.27083409030E+02  0.64261687848E+01  0.41171135220E+02  0.49697777267E+02  0.00000000000E+00 0. -1.
</event>
<event>
 4    1  0.6888348E+001  0.2372372E+02  0.7546771E-02  0.1483605E+00
          2   -1    0    0  502    0  0.00000000000E+00  0.00000000000E+00  0.25892096116E+02  0.25892096116E+02  0.00000000000E+00 0. -1.
         -2   -1    0    0    0  501 -0.00000000000E+00 -0.00000000000E+00 -0.71850343557E+02  0.71850343557E+02  0.00000000000E+00 0.  1.
          1    1    1    2  502    0  0.22765152334E+02 -0.66755390844E+01 -0.63793738080E+02  0.68062148079E+02  0.00000000000E+00 0.  1.
         -1    1    1    2    0  501 -0.22765152334E+02  0.66755390844E+01  0.17835490638E+02  0.29680291595E+02  0.00000000000E+00 0. -1.
</event>
<event>
 4    1  0.6888348E+001  0.4109214E+02  0.7546771E-02  0.1342202E+00
          2   -1    0    0  502    0  0.00000000000E+00  0.00000000000E+00  0.18308632095E+03  0.18308632095E+03  0.00000000000E+00 0.  1.
         -2   -1    0    0    0  501 -0.00000000000E+00 -0.00000000000E+00 -0.14423206807E+02  0.14423206807E+02  0.00000000000E+00 0. -1.
          1    1    1    2  502    0  0.40911339160E+02  0.38504985236E+01  0.25032631127E+02  0.48116490228E+02  0.00000000000E+00 0. -1.
         -1    1    1    2    0  501 -0.40911339160E+02 -0.38504985236E+01  0.14363048302E+03  0.14939303753E+03  0.00000000000E+00 0.  1.
</event>
<event>
 4    1  0.6888348E+001  0.2239797E+02  0.7546771E-02  0.1500199E+00
          2   -1    0    0  502    0  0.00000000000E+00  0.00000000000E+00  0.85842279353E+03  0.85842279353E+03  0.00000000000E+00 0. -1.
         -2   -1    0    0    0  501 -0.00000000000E+00 -0.00000000000E+00 -0.12976112968E+01  0.12976112968E+01  0.00000000000E+00 0.  1.
          1    1    1    2  502    0  0.12944158094E+02  0.18278895976E+02  0.74724754445E+03  0.74758314719E+03  0.00000000000E+00 0. -1.
         -1    1    1    2    0  501 -0.12944158094E+02 -0.18278895976E+02  0.10987763778E+03  0.11213725764E+03  0.00000000000E+00 0.  1.
</event>
<event>
 4    1  0.6888348E+001  0.3435860E+02  0.7546771E-02  0.1385129E+00
          2   -1    0    0  502    0  0.00000000000E+00  0.00000000000E+00  0.53219443152E+03  0.53219443152E+03  0.00000000000E+00 0. -1.
         -2   -1    0    0    0  501 -0.00000000000E+00 -0.00000000000E+00 -0.36886422598E+01  0.36886422598E+01  0.00000000000E+00 0.  1.
          1    1    1    2  502    0  0.30299225700E+02 -0.16200931505E+02  0.95079960403E+02  0.10109753770E+03  0.00000000000E+00 0.  1.
         -1    1    1    2    0  501 -0.30299225700E+02  0.16200931505E+02  0.43342582886E+03  0.43478553608E+03  0.00000000000E+00 0. -1.
</event>
<event>
 4    1  0.6888348E+001  0.2059975E+02  0.7546771E-02  0.1525057E+00
          2   -1    0    0  502    0  0.00000000000E+00  0.00000000000E+00  0.17303202622E+03  0.17303202622E+03  0.00000000000E+00 0.  1.
         -2   -1    0    0    0  501 -0.00000000000E+00 -0.00000000000E+00 -0.26930108963E+01  0.26930108963E+01  0.00000000000E+00 0. -1.
          1    1    1    2  502    0  0.20599094658E+02  0.16488741527E+00  0.58908573410E+02  0.62406489325E+02  0.00000000000E+00 0. -1.
         -1    1    1    2    0  501 -0.20599094658E+02 -0.16488741527E+00  0.11143044191E+03  0.11331854779E+03  0.00000000000E+00 0.  1.
</event>
<event>
 4    1  0.6888348E+001  0.2977330E+02  0.7546771E-02  0.1421577E+00
          2   -1    0    0  502    0  0.00000000000E+00  0.00000000000E+00  0.13685509482E+04  0.13685509482E+04  0.00000000000E+00 0. -1.
         -2   -1    0    0    0  501 -0.00000000000E+00 -0.00000000000E+00 -0.93421927203E+00  0.93421927203E+00  0.00000000000E+00 0.  1.
          1    1    1    2  502    0  0.18940416485E+02  0.22971934974E+02  0.30461703349E+03  0.30606859732E+03  0.00000000000E+00 0.  1.
         -1    1    1    2    0  501 -0.18940416485E+02 -0.22971934974E+02  0.10629996954E+04  0.10634165702E+04  0.00000000000E+00 0. -1.
</event>
<event>
 4    1  0.6888348E+001  0.2310193E+02  0.7546771E-02  0.1491222E+00
          2   -1    0    0  502    0  0.00000000000E+00  0.00000000000E+00  0.16478324684E+02  0.16478324684E+02  0.00000000000E+00 0.  1.
         -2   -1    0    0    0  501 -0.00000000000E+00 -0.00000000000E+00 -0.43631870709E+02  0.43631870709E+02  0.00000000000E+00 0. -1.
          1    1    1    2  502    0  0.17279206247E+02 -0.15333889199E+02 -0.28833983889E+02  0.36947229306E+02  0.00000000000E+00 0. -1.
         -1    1    1    2    0  501 -0.17279206247E+02  0.15333889199E+02  0.16804378639E+01  0.23162966086E+02  0.00000000000E+00 0.  1.
</event>
<event>
 4    1  0.6888348E+001  0.2951782E+02  0.7546771E-02  0.1423833E+00
          2   -1    0    0  502    0  0.00000000000E+00  0.00000000000E+00  0.10382709308E+02  0.10382709308E+02  0.00000000000E+00 0.  1.
         -2   -1    0    0    0  501 -0.00000000000E+00 -0.00000000000E+00 -0.84078041849E+02  0.84078041849E+02  0.00000000000E+00 0. -1.
          1    1    1    2  502    0  0.29066113077E+02 -0.51441757119E+01 -0.38905009040E+02  0.48835450255E+02  0.00000000000E+00 0.  1.
         -1    1    1    2    0  501 -0.29066113077E+02  0.51441757119E+01 -0.34790323501E+02  0.45625300903E+02  0.00000000000E+00 0. -1.
</event>
<event>
 4    1  0.6888348E+001  0.3003710E+02  0.7546771E-02  0.1419274E+00
          2   -1    0    0  502    0  0.00000000000E+00  0.00000000000E+00  0.40327955197E+02  0.40327955197E+02  0.00000000000E+00 0. -1.
         -2   -1    0    0    0  501 -0.00000000000E+00 -0.00000000000E+00 -0.22613847699E+02  0.22613847699E+02  0.00000000000E+00 0.  1.
          1    1    1    2  502    0 -0.29730601187E+02 -0.42800255265E+01  0.12109907694E+02  0.32386372595E+02  0.00000000000E+00 0.  1.
         -1    1    1    2    0  501  0.29730601187E+02  0.42800255265E+01  0.56041998040E+01  0.30555430302E+02  0.00000000000E+00 0. -1.
</event>
<event>
 4    1  0.6888348E+001  0.2627117E+02  0.7546771E-02  0.1455070E+00
          2   -1    0    0  502    0  0.00000000000E+00  0.00000000000E+00  0.16316455014E+04  0.16316455014E+04  0.00000000000E+00 0.  1.
         -2   -1    0    0    0  501 -0.00000000000E+00 -0.00000000000E+00 -0.49219468475E+00  0.49219468475E+00  0.00000000000E+00 0. -1.
          1    1    1    2  502    0 -0.17828214098E+02 -0.19295834132E+02  0.50957974069E+03  0.51025649095E+03  0.00000000000E+00 0. -1.
         -1    1    1    2    0  501  0.17828214098E+02  0.19295834132E+02  0.11215735661E+04  0.11218812052E+04  0.00000000000E+00 0.  1.
</event>
<event>
 4    1  0.6888348E+001  0.2225399E+02  0.7546771E-02  0.1502084E+00
          2   -1    0    0  502    0  0.00000000000E+00  0.00000000000E+00  0.18178750500E+03  0.18178750500E+03  0.00000000000E+00 0.  1.
         -2   -1    0    0    0  501 -0.00000000000E+00 -0.00000000000E+00 -0.41572373518E+01  0.41572373518E+01  0.00000000000E+00 0. -1.
          1    1    1    2  502    0  0.26084082494E+01 -0.22100593608E+02  0.14339948556E+03  0.14511599667E+03  0.00000000000E+00 0.  1.
         -1    1    1    2    0  501 -0.26084082494E+01  0.22100593608E+02  0.34230782094E+02  0.40828745684E+02  0.00000000000E+00 0. -1.
</event>
<event>
 4    1  0.6888348E+001  0.3361018E+02  0.7546771E-02  0.1390606E+00
          2   -1    0    0  502    0  0.00000000000E+00  0.00000000000E+00  0.42847552890E+03  0.42847552890E+03  0.00000000000E+00 0.  1.
         -2   -1    0    0    0  501 -0.00000000000E+00 -0.00000000000E+00 -0.42609467313E+01  0.42609467313E+01  0.00000000000E+00 0. -1.
          1    1    1    2  502    0 -0.94222514801E+01  0.32262444495E+02  0.34570624150E+03  0.34733621976E+03  0.00000000000E+00 0.  1.
         -1    1    1    2    0  501  0.94222514801E+01 -0.32262444495E+02  0.78508340672E+02  0.85400255871E+02  0.00000000000E+00 0. -1.
</event>
<event>
 4    1  0.6888348E+001  0.3794322E+02  0.7546771E-02  0.1360979E+00
          2   -1    0    0  502    0  0.00000000000E+00  0.00000000000E+00  0.19855834797E+03  0.19855834797E+03  0.00000000000E+00 0. -1.
         -2   -1    0    0    0  501 -0.00000000000E+00 -0.00000000000E+00 -0.83005295694E+01  0.83005295694E+01  0.00000000000E+00 0.  1.
          1    1    1    2  502    0 -0.28703710409E+02 -0.24815010157E+02  0.13191214506E+03  0.13726070718E+03  0.00000000000E+00 0. -1.
         -1    1    1    2    0  501  0.28703710409E+02  0.24815010157E+02  0.58345673343E+02  0.69598170365E+02  0.00000000000E+00 0.  1.
</event>
<event>
 4    1  0.6888348E+001  0.2545297E+02  0.7546771E-02  0.1463799E+00
          2   -1    0    0  502    0  0.00000000000E+00  0.00000000000E+00  0.43544023746E+02  0.43544023746E+02  0.00000000000E+00 0. -1.
         -2   -1    0    0    0  501 -0.00000000000E+00 -0.00000000000E+00 -0.14924130202E+02  0.14924130202E+02  0.00000000000E+00 0.  1.
          1    1    1    2  502    0  0.24248408515E+02 -0.77374750475E+01  0.15932893205E+02  0.30028501819E+02  0.00000000000E+00 0. -1.
         -1    1    1    2    0  501 -0.24248408515E+02  0.77374750475E+01  0.12687000339E+02  0.28439652129E+02  0.00000000000E+00 0.  1.
</event>
<event>
 4    1  0.6888348E+001  0.2108853E+02  0.7546771E-02  0.1518005E+00
          2   -1    0    0  502    0  0.00000000000E+00  0.00000000000E+00  0.52596889144E+03  0.52596889144E+03  0.00000000000E+00 0. -1.
         -2   -1    0    0    0  501 -0.00000000000E+00 -0.00000000000E+00 -0.93362139357E+00  0.93362139357E+00  0.00000000000E+00 0.  1.
          1    1    1    2  502    0  0.10457853675E+02  0.18312822653E+02  0.18159606979E+03  0.18281646190E+03  0.00000000000E+00 0.  1.
         -1    1    1    2    0  501 -0.10457853675E+02 -0.18312822653E+02  0.34343920025E+03  0.34408605093E+03  0.00000000000E+00 0. -1.
</event>
<event>
 4    1  0.6888348E+001  0.2627050E+02  0.7546771E-02  0.1455077E+00
          2   -1    0    0  502    0  0.00000000000E+00  0.00000000000E+00  0.54413553864E+03  0.54413553864E+03  0.00000000000E+00 0. -1.
         -2   -1    0    0    0  501 -0.00000000000E+00 -0.00000000000E+00 -0.14875679977E+01  0.14875679977E+01  0.00000000000E+00 0.  1.
          1    1    1    2  502    0 -0.74973489206E+01 -0.25177947089E+02  0.37605850463E+03  0.37697498348E+03  0.00000000000E+00 0. -1.
         -1    1    1    2    0  501  0.74973489206E+01  0.25177947089E+02  0.16658946601E+03  0.16864812316E+03  0.00000000000E+00 0.  1.
</event>
<event>
 4    1  0.6888348E+001  0.2464950E+02  0.7546771E-02  0.1472763E+00
          2   -1    0    0  502    0  0.00000000000E+00  0.00000000000E+00  0.25746901755E+01  0.25746901755E+01  0.00000000000E+00 0.  1.
         -2   -1    0    0    0  501 -0.00000000000E+00 -0.00000000000E+00 -0.41231422881E+03  0.41231422881E+03  0.00000000000E+00 0. -1.
          1    1    1    2  502    0  0.11598680885E+02  0.21750137021E+02 -0.34052771691E+03  0.34141869287E+03  0.00000000000E+00 0. -1.
         -1    1    1    2    0  501 -0.11598680885E+02 -0.21750137021E+02 -0.69211821726E+02  0.73470226114E+02  0.00000000000E+00 0.  1.
</event>
<event>
 4    1  0.6888348E+001  0.2738503E+02  0.7546771E-02  0.1443778E+00
          2   -1    0    0  502    0  0.00000000000E+00  0.00000000000E+00  0.28243687834E+01  0.28243687834E+01  0.00000000000E+00 0. -1.
         -2   -1    0    0    0  501 -0.00000000000E+00 -0.00000000000E+00 -0.32254777166E+03  0.32254777166E+03  0.00000000000E+00 0.  1.
          1    1    1    2  502    0  0.47775560095E+01  0.26965069567E+02 -0.22826517963E+03  0.22990200576E+03  0.00000000000E+00 0.  1.
         -1    1    1    2    0  501 -0.47775560095E+01 -0.26965069567E+02 -0.91458223242E+02  0.95470134685E+02  0.00000000000E+00 0. -1.
</event>
<event>
 4    1  0.6888348E+001  0.2308910E+02  0.7546771E-02  0.1491382E+00
          2   -1    0    0  502    0  0.00000000000E+00  0.00000000000E+00  0.10482054825E+04  0.10482054825E+04  0.00000000000E+00 0. -1.
         -2   -1    0    0    0  501 -0.00000000000E+00 -0.00000000000E+00 -0.56087773481E+00  0.56087773481E+00  0.00000000000E+00 0.  1.
          1    1    1    2  502    0  0.15074509689E+02 -0.17489014848E+02  0.36371323481E+03  0.36444536444E+03  0.00000000000E+00 0. -1.
         -1    1    1    2    0  501 -0.15074509689E+02  0.17489014848E+02  0.68393136997E+03  0.68432099581E+03  0.00000000000E+00 0.  1.
</event>
<event>
 4    1  0.6888348E+001  0.3637177E+02  0.7546771E-02  0.1371167E+00
          2   -1    0    0  502    0  0.00000000000E+00  0.00000000000E+00  0.30154086072E+01  0.30154086072E+01  0.00000000000E+00 0.  1.
         -2   -1    0    0    0  501 -0.00000000000E+00 -0.00000000000E+00 -0.50574047040E+03  0.50574047040E+03  0.00000000000E+00 0. -1.
          1    1    1    2  502    0 -0.80212869082E+01  0.35476249752E+02 -0.34396768251E+03  0.34588534509E+03  0.00000000000E+00 0.  1.
         -1    1    1    2    0  501  0.80212869082E+01 -0.35476249752E+02 -0.15875737928E+03  0.16287053391E+03  0.00000000000E+00 0. -1.
</event>
<event>
 4    1  0.6888348E+001  0.2146890E+02  0.7546771E-02  0.1512674E+00
          2   -1    0    0  502    0  0.00000000000E+00  0.00000000000E+00  0.68001058389E+02  0.68001058389E+02  0.00000000000E+00 0. -1.
         -2   -1    0    0    0  501 -0.00000000000E+00 -0.00000000000E+00 -0.71676229217E+01  0.71676229217E+01  0.00000000000E+00 0.  1.
          1    1    1    2  502    0  0.13977192013E+02  0.16295760078E+02  0.39179075089E+02  0.44675649049E+02  0.00000000000E+00 0.  1.
         -1    1    1    2    0  501 -0.13977192013E+02 -0.16295760078E+02  0.21654360378E+02  0.30493032261E+02  0.00000000000E+00 0. -1.
</event>
<event>
 4    1  0.6888348E+001  0.2014126E+02  0.7546771E-02  0.1531887E+00
          2   -1    0    0  502    0  0.00000000000E+00  0.00000000000E+00  0.90457405434E+02  0.90457405434E+02  0.00000000000E+00 0. -1.
         -2   -1    0    0    0  501 -0.00000000000E+00 -0.00000000000E+00 -0.54870655901E+01  0.54870655901E+01  0.00000000000E+00 0.  1.
          1    1    1    2  502    0  0.13491603674E+02 -0.14954830697E+02  0.62989355508E+02  0.66131151799E+02  0.00000000000E+00 0. -1.
         -1    1    1    2    0  501 -0.13491603674E+02  0.14954830697E+02  0.21980984336E+02  0.29813319225E+02  0.00000000000E+00 0.  1.
</event>
<event>
 4    1  0.6888348E+001  0.3766759E+02  0.7546771E-02  0.1362724E+00
          2   -1    0    0  502    0  0.00000000000E+00  0.00000000000E+00  0.66741302683E+02  0.66741302683E+02  0.00000000000E+00 0.  1.
         -2   -1    0    0    0  501 -0.00000000000E+00 -0.00000000000E+00 -0.21512689225E+02  0.21512689225E+02  0.00000000000E+00 0. -1.
          1    1    1    2  502    0  0.34672121109E+02  0.14720448182E+02  0.27407027179E+02  0.46583180609E+02  0.00000000000E+00 0.  1.
         -1    1    1    2    0  501 -0.34672121109E+02 -0.14720448182E+02  0.17821586279E+02  0.41670811299E+02  0.00000000000E+00 0. -1.
</event>
<event>
 4    1  0.6888348E+001  0.2065503E+02  0.7546771E-02  0.1524248E+00
          2   -1    0    0  502    0  0.00000000000E+00  0.00000000000E+00  0.27134676489E+03  0.27134676489E+03  0.00000000000E+00 0.  1.
         -2   -1    0    0    0  501 -0.00000000000E+00 -0.00000000000E+00 -0.17861246606E+01  0.17861246606E+01  0.00000000000E+00 0. -1.
          1    1    1    2  502    0  0.20539684114E+02  0.21797960451E+01  0.87525252169E+02  0.89929416220E+02  0.00000000000E+00 0. -1.
         -1    1    1    2    0  501 -0.20539684114E+02 -0.21797960451E+01  0.18203538806E+03  0.18320347333E+03  0.00000000000E+00 0.  1.
</event>
<event>
 4    1  0.6888348E+001  0.2354781E+02  0.7546771E-02  0.1485732E+00
          2   -1    0    0  502    0  0.00000000000E+00  0.00000000000E+00  0.12696021898E+04  0.12696021898E+04  0.00000000000E+00 0. -1.
         -2   -1    0    0    0  501 -0.00000000000E+00 -0.00000000000E+00 -0.63462587977E+00  0.63462587977E+00  0.00000000000E+00 0.  1.
          1    1    1    2  502    0 -0.12890307344E+02 -0.19706324567E+02  0.98912712528E+03  0.98940738284E+03  0.00000000000E+00 0. -1.
         -1    1    1    2    0  501  0.12890307344E+02  0.19706324567E+02  0.27984043862E+03  0.28082943282E+03  0.00000000000E+00 0.  1.
</event>
<event>
 4    1  0.6888348E+001  0.2922739E+02  0.7546771E-02  0.1426431E+00
          2   -1    0    0  502    0  0.00000000000E+00  0.00000000000E+00  0.35161402485E+03  0.35161402485E+03  0.00000000000E+00 0. -1.
         -2   -1    0    0    0  501 -0.00000000000E+00 -0.00000000000E+00 -0.27253521693E+01  0.27253521693E+01  0.00000000000E+00 0.  1.
          1    1    1    2  502    0  0.47854748682E+01  0.28832961354E+02  0.23281944242E+03  0.23464682652E+03  0.00000000000E+00 0.  1.
         -1    1    1    2    0  501 -0.47854748682E+01 -0.28832961354E+02  0.11606923026E+03  0.11969255049E+03  0.00000000000E+00 0. -1.
</event>
<event>
 4    1  0.6888348E+001  0.3384654E+02  0.7546771E-02  0.1388859E+00
          2   -1    0    0  502    0  0.00000000000E+00  0.00000000000E+00  0.59163544560E+03  0.59163544560E+03  0.00000000000E+00 0.  1.
         -2   -1    0    0    0  501 -0.00000000000E+00 -0.00000000000E+00 -0.67373701571E+01  0.67373701571E+01  0.00000000000E+00 0. -1.
          1    1    1    2  502    0 -0.23490780118E+02 -0.24367423499E+02  0.39888584815E+02  0.52313356583E+02  0.00000000000E+00 0. -1.
         -1    1    1    2    0  501  0.23490780118E+02  0.24367423499E+02  0.54500949062E+03  0.54605945917E+03  0.00000000000E+00 0.  1.
</event>
<event>
 4    1  0.6888348E+001  0.2239193E+02  0.7546771E-02  0.1500278E+00
          2   -1    0    0  502    0  0.00000000000E+00  0.00000000000E+00  0.14899758949E+03  0.14899758949E+03  0.00000000000E+00 0.  1.
         -2   -1    0    0    0  501 -0.00000000000E+00 -0.00000000000E+00 -0.35356021759E+01  0.35356021759E+01  0.00000000000E+00 0. -1.
          1    1    1    2  502    0  0.16900809346E+02 -0.14688803794E+02  0.55984964317E+02  0.60296886678E+02  0.00000000000E+00 0.  1.
         -1    1    1    2    0  501 -0.16900809346E+02  0.14688803794E+02  0.89477023001E+02  0.92236304992E+02  0.00000000000E+00 0. -1.
</event>
<event>
 4    1  0.6888348E+001  0.2412632E+02  0.7546771E-02  0.1478819E+00
          2   -1    0    0  502    0  0.00000000000E+00  0.00000000000E+00  0.47733828877E+01  0.47733828877E+01  0.00000000000E+00 0.  1.
         -2   -1    0    0    0  501 -0.00000000000E+00 -0.00000000000E+00 -0.18883803454E+03  0.18883803454E+03  0.00000000000E+00 0. -1.
          1    1    1    2  502    0  0.22925838351E+02 -0.75156729697E+01 -0.14964977234E+03  0.15158210240E+03  0.00000000000E+00 0. -1.
         -1    1    1    2    0  501 -0.22925838351E+02  0.75156729697E+01 -0.34414879312E+02  0.42029315036E+02  0.00000000000E+00 0.  1.
</event>
<event>
 4    1  0.6888348E+001  0.3165032E+02  0.7546771E-02  0.1405777E+00
          2   -1    0    0  502    0  0.00000000000E+00  0.00000000000E+00  0.55839652651E+01  0.55839652651E+01  0.00000000000E+00 0.  1.
         -2   -1    0    0    0  501 -0.00000000000E+00 -0.00000000000E+00 -0.35411180518E+03  0.35411180518E+03  0.00000000000E+00 0. -1.
          1    1    1    2  502    0 -0.10017017829E+01 -0.31634466120E+02 -0.47935569710E+02  0.57441811397E+02  0.00000000000E+00 0.  1.
         -1    1    1    2    0  501  0.10017017829E+01  0.31634466120E+02 -0.30059227021E+03  0.30225395905E+03  0.00000000000E+00 0. -1.
</event>
<event>
 4    1  0.6888348E+001  0.2346332E+02  0.7546771E-02  0.1486761E+00
          2   -1    0    0  502    0  0.00000000000E+00  0.00000000000E+00  0.16527321739E+04  0.16527321739E+04  0.00000000000E+00 0. -1.
         -2   -1    0    0    0  501 -0.00000000000E+00 -0.00000000000E+00 -0.35453015685E+00  0.35453015685E+00  0.00000000000E+00 0.  1.
          1    1    1    2  502    0  0.17291942955E+02  0.15859259025E+02  0.10293953302E+04  0.10296626988E+04  0.00000000000E+00 0. -1.
         -1    1    1    2    0  501 -0.17291942955E+02 -0.15859259025E+02  0.62298231347E+03  0.62342400522E+03  0.00000000000E+00 0.  1.
</event>
<event>
 4    1  0.6888348E+001  0.9177701E+02  0.7546771E-02  0.1178874E+00
          2   -1    0    0  502    0  0.00000000000E+00  0.00000000000E+00  0.66518291069E+03  0.66518291069E+03  0.00000000000E+00 0.  1.
         -2   -1    0    0    0  501 -0.00000000000E+00 -0.00000000000E+00 -0.13304231677E+02  0.13304231677E+02  0.00000000000E+00 0. -1.
          1    1    1    2  502    0 -0.83626520449E+02  0.37810381829E+02  0.40043338842E+03  0.41081616138E+03  0.00000000000E+00 0. -1.
         -1    1    1    2    0  501  0.83626520449E+02 -0.37810381829E+02  0.25144529059E+03  0.26767098098E+03  0.00000000000E+00 0.  1.
</event>
<event>
 4    1  0.6888348E+001  0.2064163E+02  0.7546771E-02  0.1524443E+00
          2   -1    0    0  502    0  0.00000000000E+00  0.00000000000E+00  0.24723712034E+03  0.24723712034E+03  0.00000000000E+00 0. -1.
         -2   -1    0    0    0  501 -0.00000000000E+00 -0.00000000000E+00 -0.17373277467E+01  0.17373277467E+01  0.00000000000E+00 0.  1.
          1    1    1    2  502    0 -0.17447956782E+02 -0.11029308821E+02  0.13391479733E+03  0.13549630915E+03  0.00000000000E+00 0. -1.
         -1    1    1    2    0  501  0.17447956782E+02  0.11029308821E+02  0.11158499527E+03  0.11347813894E+03  0.00000000000E+00 0.  1.
</event>
<event>
 4    1  0.6888348E+001  0.6066808E+02  0.7546771E-02  0.1257579E+00
          2   -1    0    0  502    0  0.00000000000E+00  0.00000000000E+00  0.48121501613E+03  0.48121501613E+03  0.00000000000E+00 0.  1.
         -2   -1    0    0    0  501 -0.00000000000E+00 -0.00000000000E+00 -0.19890548583E+02  0.19890548583E+02  0.00000000000E+00 0. -1.
          1    1    1    2  502    0 -0.51381852343E+02  0.32257107224E+02  0.42722503197E+03  0.43151111649E+03  0.00000000000E+00 0.  1.
         -1    1    1    2    0  501  0.51381852343E+02 -0.32257107224E+02  0.34099435586E+02  0.69594448226E+02  0.00000000000E+00 0. -1.
</event>
<event>
 4    1  0.6888348E+001  0.2609523E+02  0.7546771E-02  0.1456915E+00
          2   -1    0    0  502    0  0.00000000000E+00  0.00000000000E+00  0.70733505501E+03  0.70733505501E+03  0.00000000000E+00 0.  1.
         -2   -1    0    0    0  501 -0.00000000000E+00 -0.00000000000E+00 -0.16003165242E+01  0.16003165242E+01  0.00000000000E+00 0. -1.
          1    1    1    2  502    0 -0.60673342007E+01 -0.25380079223E+02  0.57661008689E+03  0.57720027137E+03  0.00000000000E+00 0.  1.
         -1    1    1    2    0  501  0.60673342007E+01  0.25380079223E+02  0.12912465160E+03  0.13173510017E+03  0.00000000000E+00 0. -1.
</event>
<event>
 4    1  0.6888348E+001  0.2374781E+02  0.7546771E-02  0.1483315E+00
          2   -1    0    0  502    0  0.00000000000E+00  0.00000000000E+00  0.14775123929E+01  0.14775123929E+01  0.00000000000E+00 0. -1.
         -2   -1    0    0    0  501 -0.00000000000E+00 -0.00000000000E+00 -0.38221640359E+03  0.38221640359E+03  0.00000000000E+00 0.  1.
          1    1    1    2  502    0  0.22048301549E+02  0.88221824442E+01 -0.18328096596E+03  0.18481307039E+03  0.00000000000E+00 0. -1.
         -1    1    1    2    0  501 -0.22048301549E+02 -0.88221824442E+01 -0.19745792524E+03  0.19888084559E+03  0.00000000000E+00 0.  1.
</event>
<event>
 4    1  0.6888348E+001  0.2766927E+02  0.7546771E-02  0.1440999E+00
          2   -1    0    0  502    0  0.00000000000E+00  0.00000000000E+00  0.22570902460E+02  0.22570902460E+02  0.00000000000E+00 0. -1.
         -2   -1    0    0    0  501 -0.00000000000E+00 -0.00000000000E+00 -0.38686724356E+02  0.38686724356E+02  0.00000000000E+00 0.  1.
          1    1    1    2  502    0  0.27332930010E+02 -0.43010888581E+01 -0.18809995704E+02  0.33457500903E+02  0.00000000000E+00 0. -1.
         -1    1    1    2    0  501 -0.27332930010E+02  0.43010888581E+01  0.26941738075E+01  0.27800125913E+02  0.00000000000E+00 0.  1.
</event>
<event>
 4    1  0.6888348E+001  0.2161559E+02  0.7546771E-02  0.1510654E+00
          2   -1    0    0  502    0  0.00000000000E+00  0.00000000000E+00  0.43195468896E+03  0.43195468896E+03  0.00000000000E+00 0.  1.
         -2   -1    0    0    0  501 -0.00000000000E+00 -0.00000000000E+00 -0.11126979190E+01  0.11126979190E+01  0.00000000000E+00 0. -1.
          1    1    1    2  502    0  0.21330773303E+02  0.34974177353E+01  0.17926414328E+03  0.18056263978E+03  0.00000000000E+00 0. -1.
         -1    1    1    2    0  501 -0.21330773303E+02 -0.34974177353E+01  0.25157784776E+03  0.25250474710E+03  0.00000000000E+00 0.  1.
</event>
<event>
 4    1  0.6888348E+001  0.2389728E+02  0.7546771E-02  0.1481528E+00
          2   -1    0    0  502    0  0.00000000000E+00  0.00000000000E+00  0.11604368296E+03  0.11604368296E+03  0.00000000000E+00 0. -1.
         -2   -1    0    0    0  501 -0.00000000000E+00 -0.00000000000E+00 -0.49459935207E+01  0.49459935207E+01  0.00000000000E+00 0.  1.
          1    1    1    2  502    0  0.43488038388E+01 -0.23498256708E+02  0.59827507391E+02  0.64423682010E+02  0.00000000000E+00 0. -1.
         -1    1    1    2    0  501 -0.43488038388E+01  0.23498256708E+02  0.51270182051E+02  0.56565994472E+02  0.00000000000E+00 0.  1.
</event>
<event>
 4    1  0.6888348E+001  0.2349544E+02  0.7546771E-02  0.1486369E+00
          2   -1    0    0  502    0  0.00000000000E+00  0.00000000000E+00  0.70144042299E+01  0.70144042299E+01  0.00000000000E+00 0.  1.
         -2   -1    0    0    0  501 -0.00000000000E+00 -0.00000000000E+00 -0.79309228577E+02  0.79309228577E+02  0.00000000000E+00 0. -1.
          1    1    1    2  502    0  0.19611032141E+02 -0.12939985041E+02 -0.32365450704E+02  0.39994477040E+02  0.00000000000E+00 0.  1.
         -1    1    1    2    0  501 -0.19611032141E+02  0.12939985041E+02 -0.39929373643E+02  0.46329155766E+02  0.00000000000E+00 0. -1.
</event>
<event>
 4    1  0.6888348E+001  0.2005275E+02  0.7546771E-02  0.1533231E+00
          2   -1    0    0  502    0  0.00000000000E+00  0.00000000000E+00  0.16579553727E+04  0.16579553727E+04  0.00000000000E+00 0. -1.
         -2   -1    0    0    0  501 -0.00000000000E+00 -0.00000000000E+00 -0.25285287112E+00  0.25285287112E+00  0.00000000000E+00 0.  1.
          1    1    1    2  502    0  0.19271697981E+02 -0.55420534034E+01  0.99633163324E+03  0.99653340942E+03  0.00000000000E+00 0. -1.
         -1    1    1    2    0  501 -0.19271697981E+02  0.55420534034E+01  0.66137088661E+03  0.66167481617E+03  0.00000000000E+00 0.  1.
</event>
<event>
 4    1  0.6888348E+001  0.2529898E+02  0.7546771E-02  0.1465486E+00
          2   -1    0    0  502    0  0.00000000000E+00  0.00000000000E+00  0.23405692728E+04  0.23405692728E+04  0.00000000000E+00 0. -1.
         -2   -1    0    0    0  501 -0.00000000000E+00 -0.00000000000E+00 -0.36555416296E+00  0.36555416296E+00  0.00000000000E+00 0.  1.
          1    1    1    2  502    0  0.77049262967E+01  0.24097149896E+02  0.17576090189E+04  0.17577910860E+04  0.00000000000E+00 0. -1.
         -1    1    1    2    0  501 -0.77049262967E+01 -0.24097149896E+02  0.58259469975E+03  0.58314374103E+03  0.00000000000E+00 0.  1.
</event>
<event>
 4    1  0.6888348E+001  0.4625988E+02  0.7546771E-02  0.1315257E+00
          2   -1    0    0  502    0  0.00000000000E+00  0.00000000000E+00  0.21962877482E+04  0.21962877482E+04  0.00000000000E+00 0.  1.
         -2   -1    0    0    0  501 -0.00000000000E+00 -0.00000000000E+00 -0.13262401270E+01  0.13262401270E+01  0.00000000000E+00 0. -1.
          1    1    1    2  502    0 -0.24644543086E+02 -0.39148734999E+02  0.53149287047E+03  0.53350224772E+03  0.00000000000E+00 0. -1.
         -1    1    1    2    0  501  0.24644543086E+02  0.39148734999E+02  0.16634686376E+04  0.16641117406E+04  0.00000000000E+00 0.  1.
</event>
<event>
 4    1  0.6888348E+001  0.3674075E+02  0.7546771E-02  0.1368721E+00
          2   -1    0    0  502    0  0.00000000000E+00  0.00000000000E+00  0.10723435279E+04  0.10723435279E+04  0.00000000000E+00 0.  1.
         -2   -1    0    0    0  501 -0.00000000000E+00 -0.00000000000E+00 -0.14622297901E+01  0.14622297901E+01  0.00000000000E+00 0. -1.
          1    1    1    2  502    0  0.30638038004E+02  0.20277902591E+02  0.33518784927E+03  0.33719545817E+03  0.00000000000E+00 0. -1.
         -1    1    1    2    0  501 -0.30638038004E+02 -0.20277902591E+02  0.73569344880E+03  0.73661029949E+03  0.00000000000E+00 0.  1.
</event>
<event>
 4    1  0.6888348E+001  0.3030393E+02  0.7546771E-02  0.1416973E+00
          2   -1    0    0  502    0  0.00000000000E+00  0.00000000000E+00  0.15079577946E+03  0.15079577946E+03  0.00000000000E+00 0.  1.
         -2   -1    0    0    0  501 -0.00000000000E+00 -0.00000000000E+00 -0.66444190777E+01  0.66444190777E+01  0.00000000000E+00 0. -1.
          1    1    1    2  502    0  0.29864400395E+01 -0.30156419146E+02  0.94817362261E+02  0.99542255480E+02  0.00000000000E+00 0. -1.
         -1    1    1    2    0  501 -0.29864400395E+01  0.30156419146E+02  0.49333998125E+02  0.57897943062E+02  0.00000000000E+00 0.  1.
</event>
<event>
 4    1  0.6888348E+001  0.2424961E+02  0.7546771E-02  0.1477376E+00
          2   -1    0    0  502    0  0.00000000000E+00  0.00000000000E+00  0.44793456320E+03  0.44793456320E+03  0.00000000000E+00 0. -1.
         -2   -1    0    0    0  501 -0.00000000000E+00 -0.00000000000E+00 -0.13128930224E+01  0.13128930224E+01  0.00000000000E+00 0.  1.
          1    1    1    2  502    0  0.24179317102E+02  0.18450993555E+01  0.22530596454E+03  0.22660719632E+03  0.00000000000E+00 0. -1.
         -1    1    1    2    0  501 -0.24179317102E+02 -0.18450993555E+01  0.22131570564E+03  0.22264025990E+03  0.00000000000E+00 0.  1.
</event>
<event>
 4    1  0.6888348E+001  0.2235831E+02  0.7546771E-02  0.1500717E+00
          2   -1    0    0  502    0  0.00000000000E+00  0.00000000000E+00  0.13612310392E+01  0.13612310392E+01  0.00000000000E+00 0. -1.
         -2   -1    0    0    0  501 -0.00000000000E+00 -0.00000000000E+00 -0.46229276125E+03  0.46229276125E+03  0.00000000000E+00 0.  1.
          1    1    1    2  502    0 -0.53354034717E+01 -0.21712382431E+02 -0.33558815459E+03  0.33633213284E+03  0.00000000000E+00 0.  1.
         -1    1    1    2    0  501  0.53354034717E+01  0.21712382431E+02 -0.12534337563E+03  0.12732185945E+03  0.00000000000E+00 0. -1.
</event>
<event>
 4    1  0.6888348E+001  0.3447257E+02  0.7546771E-02  0.1384310E+00
          2   -1    0    0  502    0  0.00000000000E+00  0.00000000000E+00  0.25404744477E+03  0.25404744477E+03  0.00000000000E+00 0.  1.
         -2   -1    0    0    0  501 -0.00000000000E+00 -0.00000000000E+00 -0.18691158527E+02  0.18691158527E+02  0.00000000000E+00 0. -1.
          1    1    1    2  502    0  0.24948229906E+02 -0.23789569203E+02 -0.40044986370E+00  0.34474891420E+02  0.00000000000E+00 0. -1.
         -1    1    1    2    0  501 -0.24948229906E+02  0.23789569203E+02  0.23575673611E+03  0.23826371188E+03  0.00000000000E+00 0.  1.
</event>
<event>
 4    1  0.6888348E+001  0.3857723E+02  0.7546771E-02  0.1357031E+00
          2   -1    0    0  502    0  0.00000000000E+00  0.00000000000E+00  0.66520886735E+01  0.66520886735E+01  0.00000000000E+00 0.  1.
         -2   -1    0    0    0  501 -0.00000000000E+00 -0.00000000000E+00 -0.25403475263E+03  0.25403475263E+03  0.00000000000E+00 0. -1.
          1    1    1    2  502    0 -0.36669333815E+02 -0.11981759147E+02 -0.78664390139E+02  0.87614433004E+02  0.00000000000E+00 0.  1.
         -1    1    1    2    0  501  0.36669333815E+02  0.11981759147E+02 -0.16871827382E+03  0.17307240830E+03  0.00000000000E+00 0. -1.
</event>
<event>
 4    1  0.6888348E+001  0.2652205E+02  0.7546771E-02  0.1452469E+00
          2   -1    0    0  502    0  0.00000000000E+00  0.00000000000E+00  0.54553738318E+02  0.54553738318E+02  0.00000000000E+00 0. -1.
         -2   -1    0    0    0  501 -0.00000000000E+00 -0.00000000000E+00 -0.31226463782E+02  0.31226463782E+02  0.00000000000E+00 0.  1.
          1    1    1    2  502    0  0.10187312383E+02 -0.24487502696E+02 -0.21199224899E+02  0.33953295248E+02  0.00000000000E+00 0.  1.
         -1    1    1    2    0  501 -0.10187312383E+02  0.24487502696E+02  0.44526499434E+02  0.51826906851E+02  0.00000000000E+00 0. -1.
</event>
<event>
 4    1  0.6888348E+001  0.2305262E+02  0.7546771E-02  0.1491839E+00
          2   -1    0    0  502    0  0.00000000000E+00  0.00000000000E+00  0.70075916725E+02  0.70075916725E+02  0.00000000000E+00 0. -1.
         -2   -1    0    0    0  501 -0.00000000000E+00 -0.00000000000E+00 -0.76281809194E+01  0.76281809194E+01  0.00000000000E+00 0.  1.
          1    1    1    2  502    0 -0.14542508307E+02  0.17886825922E+02  0.34196216292E+02  0.41240808651E+02  0.00000000000E+00 0. -1.
         -1    1    1    2    0  501  0.14542508307E+02 -0.17886825922E+02  0.28251519513E+02  0.36463288993E+02  0.00000000000E+00 0.  1.
</event>
<event>
 4    1  0.6888348E+001  0.3670051E+02  0.7546771E-02  0.1368987E+00
          2   -1    0    0  502    0  0.00000000000E+00  0.00000000000E+00  0.22185554406E+04  0.22185554406E+04  0.00000000000E+00 0. -1.
         -2   -1    0    0    0  501 -0.00000000000E+00 -0.00000000000E+00 -0.60717066289E+00  0.60717066289E+00  0.00000000000E+00 0.  1.
          1    1    1    2  502    0 -0.59988527897E+00 -0.36695610960E+02  0.11191839791E+04  0.11197855628E+04  0.00000000000E+00 0.  1.
         -1    1    1    2    0  501  0.59988527897E+00  0.36695610960E+02  0.10987642909E+04  0.10993770485E+04  0.00000000000E+00 0. -1.
</event>
<event>
 4    1  0.6888348E+001  0.2527549E+02  0.7546771E-02  0.1465745E+00
          2   -1    0    0  502    0  0.00000000000E+00  0.00000000000E+00  0.70011027182E+03  0.70011027182E+03  0.00000000000E+00 0.  1.
         -2   -1    0    0    0  501 -0.00000000000E+00 -0.00000000000E+00 -0.20618942006E+01  0.20618942006E+01  0.00000000000E+00 0. -1.
          1    1    1    2  502    0  0.17208184648E+02  0.18512935191E+02  0.86895237523E+02  0.90496589397E+02  0.00000000000E+00 0. -1.
         -1    1    1    2    0  501 -0.17208184648E+02 -0.18512935191E+02  0.61115314009E+03  0.61167557662E+03  0.00000000000E+00 0.  1.
</event>
<event>
 4    1  0.6888348E+001  0.2154678E+02  0.7546771E-02  0.1511600E+00
          2   -1    0    0  502    0  0.00000000000E+00  0.00000000000E+00  0.92970949451E+03  0.92970949451E+03  0.00000000000E+00 0.  1.
         -2   -1    0    0    0  501 -0.00000000000E+00 -0.00000000000E+00 -0.52517969377E+00  0.52517969377E+00  0.00000000000E+00 0. -1.
          1    1    1    2  502    0  0.15475376956E+02  0.14992543041E+02  0.56771355164E+03  0.56812229348E+03  0.00000000000E+00 0.  1.
         -1    1    1    2    0  501 -0.15475376956E+02 -0.14992543041E+02  0.36147076317E+03  0.36211238072E+03  0.00000000000E+00 0. -1.
</event>
<event>
 4    1  0.6888348E+001  0.3342019E+02  0.7546771E-02  0.1392023E+00
          2   -1    0    0  502    0  0.00000000000E+00  0.00000000000E+00  0.18970630935E+01  0.18970630935E+01  0.00000000000E+00 0. -1.
         -2   -1    0    0    0  501 -0.00000000000E+00 -0.00000000000E+00 -0.59153523223E+03  0.59153523223E+03  0.00000000000E+00 0.  1.
          1    1    1    2  502    0  0.26720843620E+02 -0.20072504861E+02 -0.31515412588E+03  0.31692117631E+03  0.00000000000E+00 0. -1.
         -1    1    1    2    0  501 -0.26720843620E+02  0.20072504861E+02 -0.27448404326E+03  0.27651111901E+03  0.00000000000E+00 0.  1.
</event>
<event>
 4    1  0.6888348E+001  0.2364787E+02  0.7546771E-02  0.1484519E+00
          2   -1    0    0  502    0  0.00000000000E+00  0.00000000000E+00  0.74868535813E+03  0.74868535813E+03  0.00000000000E+00 0. -1.
         -2   -1    0    0    0  501 -0.00000000000E+00 -0.00000000000E+00 -0.75486392894E+00  0.75486392894E+00  0.00000000000E+00 0.  1.
          1    1    1    2  502    0  0.14943176039E+02  0.18328209849E+02  0.41236150352E+03  0.41303901919E+03  0.00000000000E+00 0. -1.
         -1    1    1    2    0  501 -0.14943176039E+02 -0.18328209849E+02  0.33556899068E+03  0.33640120287E+03  0.00000000000E+00 0.  1.
</event>
<event>
 4    1  0.6888348E+001  0.3914803E+02  0.7546771E-02  0.1353552E+00
          2   -1    0    0  502    0  0.00000000000E+00  0.00000000000E+00  0.98409373111E+02  0.98409373111E+02  0.00000000000E+00 0. -1.
         -2   -1    0    0    0  501 -0.00000000000E+00 -0.00000000000E+00 -0.20357651280E+02  0.20357651280E+02  0.00000000000E+00 0.  1.
          1    1    1    2  502    0 -0.14614844474E+02  0.36317687644E+02  0.67813710681E+02  0.78302410379E+02  0.00000000000E+00 0. -1.
         -1    1    1    2    0  501  0.14614844474E+02 -0.36317687644E+02  0.10238011151E+02  0.40464614012E+02  0.00000000000E+00 0.  1.
</event>
<event>
 4    1  0.6888348E+001  0.3360512E+02  0.7546771E-02  0.1390644E+00
          2   -1    0    0  502    0  0.00000000000E+00  0.00000000000E+00  0.57485891567E+02  0.57485891567E+02  0.00000000000E+00 0. -1.
         -2   -1    0    0    0  501 -0.00000000000E+00 -0.00000000000E+00 -0.26286408921E+02  0.26286408921E+02  0.00000000000E+00 0.  1.
          1    1    1    2  502    0  0.13078482825E+02  0.30955727754E+02 -0.54544541204E+01  0.34044894823E+02  0.00000000000E+00 0. -1.
         -1    1    1    2    0  501 -0.13078482825E+02 -0.30955727754E+02  0.36653936766E+02  0.49727405666E+02  0.00000000000E+00 0.  1.
</event>
<event>
 4    1  0.6888348E+001  0.2693470E+02  0.7546771E-02  0.1448265E+00
          2   -1    0    0  502    0  0.00000000000E+00  0.00000000000E+00  0.47725014258E+03  0.47725014258E+03  0.00000000000E+00 0.  1.
         -2   -1    0    0    0  501 -0.00000000000E+00 -0.00000000000E+00 -0.15278473740E+01  0.15278473740E+01  0.00000000000E+00 0. -1.
          1    1    1    2  502    0  0.17234042557E+02  0.20699411883E+02  0.25488497821E+03  0.25630417474E+03  0.00000000000E+00 0. -1.
         -1    1    1    2    0  501 -0.17234042557E+02 -0.20699411883E+02  0.22083731700E+03  0.22247381521E+03  0.00000000000E+00 0.  1.
</event>
<event>
 4    1  0.6888348E+001  0.2537858E+02  0.7546771E-02  0.1464612E+00
          2   -1    0    0  502    0  0.00000000000E+00  0.00000000000E+00  0.11795594637E+02  0.11795594637E+02  0.00000000000E+00 0.  1.
         -2   -1    0    0    0  501 -0.00000000000E+00 -0.00000000000E+00 -0.55298384714E+02  0.55298384714E+02  0.00000000000E+00 0. -1.
          1    1    1    2  502    0 -0.18119464284E+01 -0.25313811730E+02 -0.25513923342E+02  0.35986559970E+02  0.00000000000E+00 0. -1.
         -1    1    1    2    0  501  0.18119464284E+01  0.25313811730E+02 -0.17988866735E+02  0.31107419381E+02  0.00000000000E+00 0.  1.
</event>
<event>
 4    1  0.6888348E+001  0.2719527E+02  0.7546771E-02  0.1445656E+00
          2   -1    0    0  502    0  0.00000000000E+00  0.00000000000E+00  0.38034132500E+02  0.38034132500E+02  0.00000000000E+00 0. -1.
         -2   -1    0    0    0  501 -0.00000000000E+00 -0.00000000000E+00 -0.21202007659E+02  0.21202007659E+02  0.00000000000E+00 0.  1.
          1    1    1    2  502    0 -0.14034645537E+02 -0.23294022843E+02 -0.10955065407E+00  0.27195491849E+02  0.00000000000E+00 0.  1.
         -1    1    1    2    0  501  0.14034645537E+02  0.23294022843E+02  0.16941675495E+02  0.32040648310E+02  0.00000000000E+00 0. -1.
</event>
<event>
 4    1  0.6888348E+001  0.2637337E+02  0.7546771E-02  0.1454006E+00
          2   -1    0    0  502    0  0.00000000000E+00  0.00000000000E+00  0.73874648451E+02  0.73874648451E+02  0.00000000000E+00 0.  1.
         -2   -1    0    0    0  501 -0.00000000000E+00 -0.00000000000E+00 -0.13573876372E+02  0.13573876372E+02  0.00000000000E+00 0. -1.
          1    1    1    2  502    0  0.17938549751E+02 -0.19332953274E+02  0.59489576261E+01  0.27035989834E+02  0.00000000000E+00 0. -1.
         -1    1    1    2    0  501 -0.17938549751E+02  0.19332953274E+02  0.54351814453E+02  0.60412534989E+02  0.00000000000E+00 0.  1.
</event>
<event>
 4    1  0.6888348E+001  0.3174945E+02  0.7546771E-02  0.1404979E+00
          2   -1    0    0  502    0  0.00000000000E+00  0.00000000000E+00  0.12951083956E+03  0.12951083956E+03  0.00000000000E+00 0.  1.
         -2   -1    0    0    0  501 -0.00000000000E+00 -0.00000000000E+00 -0.80732388575E+01  0.80732388575E+01  0.00000000000E+00 0. -1.
          1    1    1    2  502    0  0.31294283274E+02 -0.53568345338E+01  0.47683168838E+02  0.57286232485E+02  0.00000000000E+00 0. -1.
         -1    1    1    2    0  501 -0.31294283274E+02  0.53568345338E+01  0.73754431869E+02  0.80297845937E+02  0.00000000000E+00 0.  1.
</event>
<event>
 4    1  0.6888348E+001  0.2805386E+02  0.7546771E-02  0.1437300E+00
          2   -1    0    0  502    0  0.00000000000E+00  0.00000000000E+00  0.12347726855E+02  0.12347726855E+02  0.00000000000E+00 0. -1.
         -2   -1    0    0    0  501 -0.00000000000E+00 -0.00000000000E+00 -0.65304908526E+02  0.65304908526E+02  0.00000000000E+00 0.  1.
          1    1    1    2  502    0  0.26548156370E+02 -0.90672088815E+01 -0.32492835193E+02  0.42927883973E+02  0.00000000000E+00 0.  1.
         -1    1    1    2    0  501 -0.26548156370E+02  0.90672088815E+01 -0.20464346478E+02  0.34724751407E+02  0.00000000000E+00 0. -1.
</event>
<event>
 4    1  0.6888348E+001  0.2918562E+02  0.7546771E-02  0.1426808E+00
          2   -1    0    0  502    0  0.00000000000E+00  0.00000000000E+00  0.80516668004E+03  0.80516668004E+03  0.00000000000E+00 0.  1.
         -2   -1    0    0    0  501 -0.00000000000E+00 -0.00000000000E+00 -0.19141389432E+01  0.19141389432E+01  0.00000000000E+00 0. -1.
          1    1    1    2  502    0  0.18290987314E+02  0.22742919182E+02  0.13173232624E+03  0.13492667033E+03  0.00000000000E+00 0. -1.
         -1    1    1    2    0  501 -0.18290987314E+02 -0.22742919182E+02  0.67152021486E+03  0.67215414865E+03  0.00000000000E+00 0.  1.
</event>
<event>
 4    1  0.6888348E+001  0.2693184E+02  0.7546771E-02  0.1448294E+00
          2   -1    0    0  502    0  0.00000000000E+00  0.00000000000E+00  0.82813058096E+02  0.82813058096E+02  0.00000000000E+00 0. -1.
         -2   -1    0    0    0  501 -0.00000000000E+00 -0.00000000000E+00 -0.10717752853E+02  0.10717752853E+02  0.00000000000E+00 0.  1.
          1    1    1    2  502    0  0.26930677699E+02  0.24981526259E+00  0.56042151833E+02  0.62177540890E+02  0.00000000000E+00 0. -1.
         -1    1    1    2    0  501 -0.26930677699E+02 -0.24981526259E+00  0.16053153410E+02  0.31353270059E+02  0.00000000000E+00 0.  1.
</event>
<event>
 4    1  0.6888348E+001  0.6112755E+02  0.7546771E-02  0.1256049E+00
          2   -1    0    0  502    0  0.00000000000E+00  0.00000000000E+00  0.45017473819E+03  0.45017473819E+03  0.00000000000E+00 0. -1.
         -2   -1    0    0    0  501 -0.00000000000E+00 -0.00000000000E+00 -0.83083931192E+01  0.83083931192E+01  0.00000000000E+00 0.  1.
          1    1    1    2  502    0 -0.59366627128E+02  0.14566439675E+02  0.22809554815E+03  0.23614435557E+03  0.00000000000E+00 0.  1.
         -1    1    1    2    0  501  0.59366627128E+02 -0.14566439675E+02  0.21377079692E+03  0.22233877574E+03  0.00000000000E+00 0. -1.
</event>
<event>
 4    1  0.6888348E+001  0.3629173E+02  0.7546771E-02  0.1371703E+00
          2   -1    0    0  502    0  0.00000000000E+00  0.00000000000E+00  0.14499502102E+04  0.14499502102E+04  0.00000000000E+00 0.  1.
         -2   -1    0    0    0  501 -0.00000000000E+00 -0.00000000000E+00 -0.10279538781E+01  0.10279538781E+01  0.00000000000E+00 0. -1.
          1    1    1    2  502    0  0.31158577198E+02  0.18607321012E+02  0.47701377204E+03  0.47839233694E+03  0.00000000000E+00 0. -1.
         -1    1    1    2    0  501 -0.31158577198E+02 -0.18607321012E+02  0.97190848433E+03  0.97258582718E+03  0.00000000000E+00 0.  1.
</event>
<event>
 4    1  0.6888348E+001  0.2241448E+02  0.7546771E-02  0.1499984E+00
          2   -1    0    0  502    0  0.00000000000E+00  0.00000000000E+00  0.49432038128E+03  0.49432038128E+03  0.00000000000E+00 0. -1.
         -2   -1    0    0    0  501 -0.00000000000E+00 -0.00000000000E+00 -0.22323863960E+01  0.22323863960E+01  0.00000000000E+00 0.  1.
          1    1    1    2  502    0  0.19599916870E+02  0.10874379225E+02  0.62803390269E+02  0.66683391441E+02  0.00000000000E+00 0.  1.
         -1    1    1    2    0  501 -0.19599916870E+02 -0.10874379225E+02  0.42928460462E+03  0.42986937624E+03  0.00000000000E+00 0. -1.
</event>
<event>
 4    1  0.6888348E+001  0.2454178E+02  0.7546771E-02  0.1473995E+00
          2   -1    0    0  502    0  0.00000000000E+00  0.00000000000E+00  0.10025088671E+03  0.10025088671E+03  0.00000000000E+00 0.  1.
         -2   -1    0    0    0  501 -0.00000000000E+00 -0.00000000000E+00 -0.67315490559E+01  0.67315490559E+01  0.00000000000E+00 0. -1.
          1    1    1    2  502    0 -0.18659805697E+01  0.24470736268E+02  0.29221491999E+02  0.38160115456E+02  0.00000000000E+00 0. -1.
         -1    1    1    2    0  501  0.18659805697E+01 -0.24470736268E+02  0.64297845658E+02  0.68822320312E+02  0.00000000000E+00 0.  1.
</event>
<event>
 4    1  0.6888348E+001  0.2867011E+02  0.7546771E-02  0.1431516E+00
          2   -1    0    0  502    0  0.00000000000E+00  0.00000000000E+00  0.24758399499E+04  0.24758399499E+04  0.00000000000E+00 0. -1.
         -2   -1    0    0    0  501 -0.00000000000E+00 -0.00000000000E+00 -0.38285380435E+00  0.38285380435E+00  0.00000000000E+00 0.  1.
          1    1    1    2  502    0 -0.50503835493E+01 -0.28221781443E+02  0.78648493131E+03  0.78700732048E+03  0.00000000000E+00 0.  1.
         -1    1    1    2    0  501  0.50503835493E+01  0.28221781443E+02  0.16889721648E+04  0.16892154832E+04  0.00000000000E+00 0. -1.
</event>
<event>
 4    1  0.6888348E+001  0.7270486E+02  0.7546771E-02  0.1221878E+00
          2   -1    0    0  502    0  0.00000000000E+00  0.00000000000E+00  0.19449265404E+04  0.19449265404E+04  0.00000000000E+00 0. -1.
         -2   -1    0    0    0  501 -0.00000000000E+00 -0.00000000000E+00 -0.32153926348E+01  0.32153926348E+01  0.00000000000E+00 0.  1.
          1    1    1    2  502    0  0.72388382274E+02  0.67763529493E+01  0.58768369897E+03  0.59216393582E+03  0.00000000000E+00 0.  1.
         -1    1    1    2    0  501 -0.72388382274E+02 -0.67763529493E+01  0.13540274488E+04  0.13559779972E+04  0.00000000000E+00 0. -1.
</event>
<event>
 4    1  0.6888348E+001  0.2390699E+02  0.7546771E-02  0.1481413E+00
          2   -1    0    0  502    0  0.00000000000E+00  0.00000000000E+00  0.76443150177E+02  0.76443150177E+02  0.00000000000E+00 0. -1.
         -2   -1    0    0    0  501 -0.00000000000E+00 -0.00000000000E+00 -0.76044712796E+01  0.76044712796E+01  0.00000000000E+00 0.  1.
          1    1    1    2  502    0  0.17277082481E+02  0.16524122919E+02  0.39866113753E+02  0.46484957169E+02  0.00000000000E+00 0.  1.
         -1    1    1    2    0  501 -0.17277082481E+02 -0.16524122919E+02  0.28972565145E+02  0.37562664288E+02  0.00000000000E+00 0. -1.
</event>
<event>
 4    1  0.6888348E+001  0.4987307E+02  0.7546771E-02  0.1298724E+00
          2   -1    0    0  502    0  0.00000000000E+00  0.00000000000E+00  0.20733873210E+04  0.20733873210E+04  0.00000000000E+00 0.  1.
         -2   -1    0    0    0  501 -0.00000000000E+00 -0.00000000000E+00 -0.12008879921E+01  0.12008879921E+01  0.00000000000E+00 0. -1.
          1    1    1    2  502    0 -0.47130098531E+02 -0.16311871714E+02  0.10026861603E+04  0.10039257241E+04  0.00000000000E+00 0. -1.
         -1    1    1    2    0  501  0.47130098531E+02  0.16311871714E+02  0.10695002727E+04  0.10706624849E+04  0.00000000000E+00 0.  1.
</event>
<event>
 4    1  0.6888348E+001  0.2122420E+02  0.7546771E-02  0.1516088E+00
          2   -1    0    0  502    0  0.00000000000E+00  0.00000000000E+00  0.16926517570E+04  0.16926517570E+04  0.00000000000E+00 0. -1.
         -2   -1    0    0    0  501 -0.00000000000E+00 -0.00000000000E+00 -0.26947068861E+00  0.26947068861E+00  0.00000000000E+00 0.  1.
          1    1    1    2  502    0  0.19096968072E+02 -0.92613542859E+01  0.75195600152E+03  0.75225547196E+03  0.00000000000E+00 0. -1.
         -1    1    1    2    0  501 -0.19096968072E+02  0.92613542859E+01  0.94042628484E+03  0.94066575577E+03  0.00000000000E+00 0.  1.
</event>
<event>
 4    1  0.6888348E+001  0.2452150E+02  0.7546771E-02  0.1474228E+00
          2   -1    0    0  502    0  0.00000000000E+00  0.00000000000E+00  0.10891940782E+04  0.10891940782E+04  0.00000000000E+00 0.  1.
         -2   -1    0    0    0  501 -0.00000000000E+00 -0.00000000000E+00 -0.55485586827E+00  0.55485586827E+00  0.00000000000E+00 0. -1.
          1    1    1    2  502    0  0.17599679761E+02  0.17074993687E+02  0.50566476170E+03  0.50625898052E+03  0.00000000000E+00 0.  1.
         -1    1    1    2    0  501 -0.17599679761E+02 -0.17074993687E+02  0.58297446066E+03  0.58348995357E+03  0.00000000000E+00 0. -1.
</event>
<event>
 4    1  0.6888348E+001  0.2567929E+02  0.7546771E-02  0.1461346E+00
          2   -1    0    0  502    0  0.00000000000E+00  0.00000000000E+00  0.14611391861E+03  0.14611391861E+03  0.00000000000E+00 0.  1.
         -2   -1    0    0    0  501 -0.00000000000E+00 -0.00000000000E+00 -0.48216287761E+01  0.48216287761E+01  0.00000000000E+00 0. -1.
          1    1    1    2  502    0 -0.67108570401E+01 -0.24786900367E+02  0.51555709464E+02  0.57597024319E+02  0.00000000000E+00 0.  1.
         -1    1    1    2    0  501  0.67108570401E+01  0.24786900367E+02  0.89736580370E+02  0.93338523068E+02  0.00000000000E+00 0. -1.
</event>
<event>
 4    1  0.6888348E+001  0.3036656E+02  0.7546771E-02  0.1416437E+00
          2   -1    0    0  502    0  0.00000000000E+00  0.00000000000E+00  0.29779190398E+01  0.29779190398E+01  0.00000000000E+00 0.  1.
         -2   -1    0    0    0  501 -0.00000000000E+00 -0.00000000000E+00 -0.38211566519E+03  0.38211566519E+03  0.00000000000E+00 0. -1.
          1    1    1    2  502    0 -0.28707174588E+02  0.99008236883E+01 -0.27341622634E+03  0.27509736642E+03  0.00000000000E+00 0. -1.
         -1    1    1    2    0  501  0.28707174588E+02 -0.99008236883E+01 -0.10572151981E+03  0.10999621781E+03  0.00000000000E+00 0.  1.
</event>
<event>
 4    1  0.6888348E+001  0.2677918E+02  0.7546771E-02  0.1449839E+00
          2   -1    0    0  502    0  0.00000000000E+00  0.00000000000E+00  0.84992978444E+02  0.84992978444E+02  0.00000000000E+00 0.  1.
         -2   -1    0    0    0  501 -0.00000000000E+00 -0.00000000000E+00 -0.87125463341E+01  0.87125463341E+01  0.00000000000E+00 0. -1.
          1    1    1    2  502    0 -0.16332957221E+02  0.21221666616E+02  0.46465504673E+02  0.53629914694E+02  0.00000000000E+00 0.  1.
         -1    1    1    2    0  501  0.16332957221E+02 -0.21221666616E+02  0.29814927438E+02  0.40075610085E+02  0.00000000000E+00 0. -1.
</event>
<event>
 4    1  0.6888348E+001  0.4879524E+02  0.7546771E-02  0.1303482E+00
          2   -1    0    0  502    0  0.00000000000E+00  0.00000000000E+00  0.38377990781E+03  0.38377990781E+03  0.00000000000E+00 0. -1.
         -2   -1    0    0    0  501 -0.00000000000E+00 -0.00000000000E+00 -0.62821618734E+01  0.62821618734E+01  0.00000000000E+00 0.  1.
          1    1    1    2  502    0  0.48775547848E+02  0.13861584429E+01  0.21050145280E+03  0.21608294040E+03  0.00000000000E+00 0.  1.
         -1    1    1    2    0  501 -0.48775547848E+02 -0.13861584429E+01  0.16699629313E+03  0.17397912928E+03  0.00000000000E+00 0. -1.
</event>
<event>
 4    1  0.6888348E+001  0.4325957E+02  0.7546771E-02  0.1330375E+00
          2   -1    0    0  502    0  0.00000000000E+00  0.00000000000E+00  0.48092030796E+03  0.48092030796E+03  0.00000000000E+00 0.  1.
         -2   -1    0    0    0  501 -0.00000000000E+00 -0.00000000000E+00 -0.39167118811E+01  0.39167118811E+01  0.00000000000E+00 0. -1.
          1    1    1    2  502    0 -0.23136024429E+02  0.36552897881E+02  0.21896318571E+03  0.22319557941E+03  0.00000000000E+00 0. -1.
         -1    1    1    2    0  501  0.23136024429E+02 -0.36552897881E+02  0.25804041036E+03  0.26164144043E+03  0.00000000000E+00 0.  1.
</event>
<event>
 4    1  0.6888348E+001  0.3459371E+02  0.7546771E-02  0.1383442E+00
          2   -1    0    0  502    0  0.00000000000E+00  0.00000000000E+00  0.44686046488E+02  0.44686046488E+02  0.00000000000E+00 0. -1.
         -2   -1    0    0    0  501 -0.00000000000E+00 -0.00000000000E+00 -0.85007141500E+02  0.85007141500E+02  0.00000000000E+00 0.  1.
          1    1    1    2  502    0 -0.32514582677E+02  0.11812131222E+02 -0.73829054168E+02  0.81531918720E+02  0.00000000000E+00 0.  1.
         -1    1    1    2    0  501  0.32514582677E+02 -0.11812131222E+02  0.33507959156E+02  0.48161269268E+02  0.00000000000E+00 0. -1.
</event>
<event>
 4    1  0.6888348E+001  0.2759388E+02  0.7546771E-02  0.1441732E+00
          2   -1    0    0  502    0  0.00000000000E+00  0.00000000000E+00  0.22733800991E+04  0.22733800991E+04  0.00000000000E+00 0.  1.
         -2   -1    0    0    0  501 -0.00000000000E+00 -0.00000000000E+00 -0.35251832677E+00  0.35251832677E+00  0.00000000000E+00 0. -1.
          1    1    1    2  502    0  0.30853900865E+01 -0.27420845159E+02  0.13904562005E+04  0.13907299767E+04  0.00000000000E+00 0.  1.
         -1    1    1    2    0  501 -0.30853900865E+01  0.27420845159E+02  0.88257138025E+03  0.88300264078E+03  0.00000000000E+00 0. -1.
</event>
<event>
 4    1  0.6888348E+001  0.3046260E+02  0.7546771E-02  0.1415618E+00
          2   -1    0    0  502    0  0.00000000000E+00  0.00000000000E+00  0.76501422353E+02  0.76501422353E+02  0.00000000000E+00 0.  1.
         -2   -1    0    0    0  501 -0.00000000000E+00 -0.00000000000E+00 -0.13324778273E+02  0.13324778273E+02  0.00000000000E+00 0. -1.
          1    1    1    2  502    0  0.17411272324E+02 -0.24996346813E+02  0.18139976238E+02  0.35454597669E+02  0.00000000000E+00 0. -1.
         -1    1    1    2    0  501 -0.17411272324E+02  0.24996346813E+02  0.45036667841E+02  0.54371602957E+02  0.00000000000E+00 0.  1.
</event>
<event>
 4    1  0.6888348E+001  0.2317978E+02  0.7546771E-02  0.1490253E+00
          2   -1    0    0  502    0  0.00000000000E+00  0.00000000000E+00  0.53588700807E+03  0.53588700807E+03  0.00000000000E+00 0. -1.
         -2   -1    0    0    0  501 -0.00000000000E+00 -0.00000000000E+00 -0.10076160496E+01  0.10076160496E+01  0.00000000000E+00 0.  1.
          1    1    1    2  502    0  0.20366058973E+02  0.11069133194E+02  0.28630344369E+03  0.28724025473E+03  0.00000000000E+00 0. -1.
         -1    1    1    2    0  501 -0.20366058973E+02 -0.11069133194E+02  0.24857594833E+03  0.24965436939E+03  0.00000000000E+00 0.  1.
</event>
<event>
 4    1  0.6888348E+001  0.2038109E+02  0.7546771E-02  0.1528288E+00
          2   -1    0    0  502    0  0.00000000000E+00  0.00000000000E+00  0.49217046486E+02  0.49217046486E+02  0.00000000000E+00 0. -1.
         -2   -1    0    0    0  501 -0.00000000000E+00 -0.00000000000E+00 -0.87937702495E+01  0.87937702495E+01  0.00000000000E+00 0.  1.
          1    1    1    2  502    0  0.17353288651E+02  0.10688887098E+02  0.14393437148E+02  0.24951151623E+02  0.00000000000E+00 0.  1.
         -1    1    1    2    0  501 -0.17353288651E+02 -0.10688887098E+02  0.26029839089E+02  0.33059665113E+02  0.00000000000E+00 0. -1.
</event>
<event>
 4    1  0.6888348E+001  0.2098876E+02  0.7546771E-02  0.1519425E+00
          2   -1    0    0  502    0  0.00000000000E+00  0.00000000000E+00  0.21726056951E+04  0.21726056951E+04  0.00000000000E+00 0.  1.
         -2   -1    0    0    0  501 -0.00000000000E+00 -0.00000000000E+00 -0.22153525151E+00  0.22153525151E+00  0.00000000000E+00 0. -1.
          1    1    1    2  502    0  0.16934943266E+02  0.12399023648E+02  0.76995671409E+03  0.77024273425E+03  0.00000000000E+00 0. -1.
         -1    1    1    2    0  501 -0.16934943266E+02 -0.12399023648E+02  0.14024274457E+04  0.14025844961E+04  0.00000000000E+00 0.  1.
</event>
<event>
 4    1  0.6888348E+001  0.2024947E+02  0.7546771E-02  0.1530256E+00
          2   -1    0    0  502    0  0.00000000000E+00  0.00000000000E+00  0.19101218231E+01  0.19101218231E+01  0.00000000000E+00 0. -1.
         -2   -1    0    0    0  501 -0.00000000000E+00 -0.00000000000E+00 -0.32346297366E+03  0.32346297366E+03  0.00000000000E+00 0.  1.
          1    1    1    2  502    0 -0.14370154263E+02  0.14266730660E+02 -0.66425771874E+02  0.69443675784E+02  0.00000000000E+00 0. -1.
         -1    1    1    2    0  501  0.14370154263E+02 -0.14266730660E+02 -0.25512707996E+03  0.25592941970E+03  0.00000000000E+00 0.  1.
</event>
<event>
 4    1  0.6888348E+001  0.2479568E+02  0.7546771E-02  0.1471102E+00
          2   -1    0    0  502    0  0.00000000000E+00  0.00000000000E+00  0.12457075746E+04  0.12457075746E+04  0.00000000000E+00 0. -1.
         -2   -1    0    0    0  501 -0.00000000000E+00 -0.00000000000E+00 -0.49550722601E+00  0.49550722601E+00  0.00000000000E+00 0.  1.
          1    1    1    2  502    0  0.26688010245E+00  0.24794248502E+02  0.66171074278E+03  0.66217515288E+03  0.00000000000E+00 0.  1.
         -1    1    1    2    0  501 -0.26688010245E+00 -0.24794248502E+02  0.58350132462E+03  0.58402792897E+03  0.00000000000E+00 0. -1.
</event>
<event>
 4    1  0.6888348E+001  0.2059086E+02  0.7546771E-02  0.1525187E+00
          2   -1    0    0  502    0  0.00000000000E+00  0.00000000000E+00  0.75409148728E+00  0.75409148728E+00  0.00000000000E+00 0. -1.
         -2   -1    0    0    0  501 -0.00000000000E+00 -0.00000000000E+00 -0.58187909495E+03  0.58187909495E+03  0.00000000000E+00 0.  1.
          1    1    1    2  502    0 -0.19113668871E+02 -0.76584055818E+01 -0.34407606712E+03  0.34469163534E+03  0.00000000000E+00 0. -1.
         -1    1    1    2    0  501  0.19113668871E+02  0.76584055818E+01 -0.23704893635E+03  0.23794155109E+03  0.00000000000E+00 0.  1.
</event>
<event>
 4    1  0.6888348E+001  0.3767703E+02  0.7546771E-02  0.1362664E+00
          2   -1    0    0  502    0  0.00000000000E+00  0.00000000000E+00  0.10708704490E+04  0.10708704490E+04  0.00000000000E+00 0. -1.
         -2   -1    0    0    0  501 -0.00000000000E+00 -0.00000000000E+00 -0.14255918529E+01  0.14255918529E+01  0.00000000000E+00 0.  1.
          1    1    1    2  502    0 -0.23126471217E+02  0.29744331924E+02  0.39273729482E+03  0.39454041833E+03  0.00000000000E+00 0.  1.
         -1    1    1    2    0  501  0.23126471217E+02 -0.29744331924E+02  0.67670756234E+03  0.67775562254E+03  0.00000000000E+00 0. -1.
</event>
<event>
 4    1  0.6888348E+001  0.5050271E+02  0.7546771E-02  0.1296007E+00
          2   -1    0    0  502    0  0.00000000000E+00  0.00000000000E+00  0.14722917682E+02  0.14722917682E+02  0.00000000000E+00 0. -1.
         -2   -1    0    0    0  501 -0.00000000000E+00 -0.00000000000E+00 -0.18837976535E+03  0.18837976535E+03  0.00000000000E+00 0.  1.
          1    1    1    2  502    0 -0.31753845608E+02 -0.39271073076E+02 -0.58034520183E+02  0.76931979204E+02  0.00000000000E+00 0. -1.
         -1    1    1    2    0  501  0.31753845608E+02  0.39271073076E+02 -0.11562232749E+03  0.12617070383E+03  0.00000000000E+00 0.  1.
</event>
<event>
 4    1  0.6888348E+001  0.2020639E+02  0.7546771E-02  0.1530904E+00
          2   -1    0    0  502    0  0.00000000000E+00  0.00000000000E+00  0.20423535986E+02  0.20423535986E+02  0.00000000000E+00 0.  1.
         -2   -1    0    0    0  501 -0.00000000000E+00 -0.00000000000E+00 -0.49488472812E+02  0.49488472812E+02  0.00000000000E+00 0. -1.
          1    1    1    2  502    0 -0.14264595062E+02 -0.14311512269E+02 -0.41519688194E+02  0.46175562405E+02  0.00000000000E+00 0. -1.
         -1    1    1    2    0  501  0.14264595062E+02  0.14311512269E+02  0.12454751368E+02  0.23736446393E+02  0.00000000000E+00 0.  1.
</event>
<event>
 4    1  0.6888348E+001  0.2795135E+02  0.7546771E-02  0.1438279E+00
          2   -1    0    0  502    0  0.00000000000E+00  0.00000000000E+00  0.23959004003E+03  0.23959004003E+03  0.00000000000E+00 0.  1.
         -2   -1    0    0    0  501 -0.00000000000E+00 -0.00000000000E+00 -0.33910755405E+01  0.33910755405E+01  0.00000000000E+00 0. -1.
          1    1    1    2  502    0  0.12923283022E+02  0.24784410319E+02  0.94295757911E+02  0.98351249096E+02  0.00000000000E+00 0. -1.
         -1    1    1    2    0  501 -0.12923283022E+02 -0.24784410319E+02  0.14190320658E+03  0.14462986647E+03  0.00000000000E+00 0.  1.
</event>
<event>
 4    1  0.6888348E+001  0.2023507E+02  0.7546771E-02  0.1530472E+00
          2   -1    0    0  502    0  0.00000000000E+00  0.00000000000E+00  0.93622180282E+02  0.93622180282E+02  0.00000000000E+00 0. -1.
         -2   -1    0    0    0  501 -0.00000000000E+00 -0.00000000000E+00 -0.53016739984E+01  0.53016739984E+01  0.00000000000E+00 0.  1.
          1    1    1    2  502    0  0.11729741280E+02 -0.16488514426E+02  0.64855751633E+02  0.67939137898E+02  0.00000000000E+00 0. -1.
         -1    1    1    2    0  501 -0.11729741280E+02  0.16488514426E+02  0.23464754651E+02  0.30984716382E+02  0.00000000000E+00 0.  1.
</event>
<event>
 4    1  0.6888348E+001  0.3003572E+02  0.7546771E-02  0.1419286E+00
          2   -1    0    0  502    0  0.00000000000E+00  0.00000000000E+00  0.11196621340E+04  0.11196621340E+04  0.00000000000E+00 0.  1.
         -2   -1    0    0    0  501 -0.00000000000E+00 -0.00000000000E+00 -0.82763273305E+00  0.82763273305E+00  0.00000000000E+00 0. -1.
          1    1    1    2  502    0  0.28560755305E+02 -0.92966439510E+01  0.65055901328E+03  0.65125200506E+03  0.00000000000E+00 0. -1.
         -1    1    1    2    0  501 -0.28560755305E+02  0.92966439510E+01  0.46827548799E+03  0.46923776168E+03  0.00000000000E+00 0.  1.
</event>
<event>
 4    1  0.6888348E+001  0.3133037E+02  0.7546771E-02  0.1408377E+00
          2   -1    0    0  502    0  0.00000000000E+00  0.00000000000E+00  0.28168404887E+03  0.28168404887E+03  0.00000000000E+00 0. -1.
         -2   -1    0    0    0  501 -0.00000000000E+00 -0.00000000000E+00 -0.35044868599E+01  0.35044868599E+01  0.00000000000E+00 0.  1.
          1    1    1    2  502    0  0.24382299709E+02 -0.19674746651E+02  0.12838261369E+03  0.13215024666E+03  0.00000000000E+00 0.  1.
         -1    1    1    2    0  501 -0.24382299709E+02  0.19674746651E+02  0.14979694832E+03  0.15303828907E+03  0.00000000000E+00 0. -1.
</event>
<event>
 4    1  0.6888348E+001  0.2946903E+02  0.7546771E-02  0.1424267E+00
          2   -1    0    0  502    0  0.00000000000E+00  0.00000000000E+00  0.70131937436E+02  0.70131937436E+02  0.00000000000E+00 0.  1.
         -2   -1    0    0    0  501 -0.00000000000E+00 -0.00000000000E+00 -0.24184098005E+02  0.24184098005E+02  0.00000000000E+00 0. -1.
          1    1    1    2  502    0  0.27359345755E+02 -0.10949437936E+02 -0.99686136938E+01  0.31109439889E+02  0.00000000000E+00 0. -1.
         -1    1    1    2    0  501 -0.27359345755E+02  0.10949437936E+02  0.55916453125E+02  0.63206595552E+02  0.00000000000E+00 0.  1.
</event>
<event>
 4    1  0.6888348E+001  0.2052406E+02  0.7546771E-02  0.1526170E+00
          2   -1    0    0  502    0  0.00000000000E+00  0.00000000000E+00  0.20783980847E+04  0.20783980847E+04  0.00000000000E+00 0. -1.
         -2   -1    0    0    0  501 -0.00000000000E+00 -0.00000000000E+00 -0.24385475580E+00  0.24385475580E+00  0.00000000000E+00 0.  1.
          1    1    1    2  502    0  0.10891236755E+02  0.17395922693E+02  0.61197526035E+03  0.61231932556E+03  0.00000000000E+00 0. -1.
         -1    1    1    2    0  501 -0.10891236755E+02 -0.17395922693E+02  0.14661789695E+04  0.14663226139E+04  0.00000000000E+00 0.  1.
</event>
<event>
 4    1  0.6888348E+001  0.3487452E+02  0.7546771E-02  0.1381447E+00
          2   -1    0    0  502    0  0.00000000000E+00  0.00000000000E+00  0.11960997929E+04  0.11960997929E+04  0.00000000000E+00 0. -1.
         -2   -1    0    0    0  501 -0.00000000000E+00 -0.00000000000E+00 -0.28889013360E+01  0.28889013360E+01  0.00000000000E+00 0.  1.
          1    1    1    2  502    0  0.17716448302E+02  0.30039304510E+02  0.11401388768E+03  0.11922834788E+03  0.00000000000E+00 0.  1.
         -1    1    1    2    0  501 -0.17716448302E+02 -0.30039304510E+02  0.10791970038E+04  0.10797603463E+04  0.00000000000E+00 0. -1.
</event>
<event>
 4    1  0.6888348E+001  0.2553480E+02  0.7546771E-02  0.1462909E+00
          2   -1    0    0  502    0  0.00000000000E+00  0.00000000000E+00  0.16733940603E+02  0.16733940603E+02  0.00000000000E+00 0. -1.
         -2   -1    0    0    0  501 -0.00000000000E+00 -0.00000000000E+00 -0.52976536788E+02  0.52976536788E+02  0.00000000000E+00 0.  1.
          1    1    1    2  502    0  0.66590234764E+01  0.24651237254E+02 -0.36047165886E+02  0.44174927959E+02  0.00000000000E+00 0.  1.
         -1    1    1    2    0  501 -0.66590234764E+01 -0.24651237254E+02 -0.19543029874E+00  0.25535549432E+02  0.00000000000E+00 0. -1.
</event>
<event>
 4    1  0.6888348E+001  0.3424105E+02  0.7546771E-02  0.1385979E+00
          2   -1    0    0  502    0  0.00000000000E+00  0.00000000000E+00  0.20786692793E+04  0.20786692793E+04  0.00000000000E+00 0. -1.
         -2   -1    0    0    0  501 -0.00000000000E+00 -0.00000000000E+00 -0.63414242671E+00  0.63414242671E+00  0.00000000000E+00 0.  1.
          1    1    1    2  502    0 -0.32721939544E+02  0.10085851822E+02  0.69334469976E+03  0.69418968763E+03  0.00000000000E+00 0.  1.
         -1    1    1    2    0  501  0.32721939544E+02 -0.10085851822E+02  0.13846904371E+04  0.13851137341E+04  0.00000000000E+00 0. -1.
</event>
<event>
 4    1  0.6888348E+001  0.4087910E+02  0.7546771E-02  0.1343410E+00
          2   -1    0    0  502    0  0.00000000000E+00  0.00000000000E+00  0.10376227988E+04  0.10376227988E+04  0.00000000000E+00 0.  1.
         -2   -1    0    0    0  501 -0.00000000000E+00 -0.00000000000E+00 -0.16125411942E+01  0.16125411942E+01  0.00000000000E+00 0. -1.
          1    1    1    2  502    0 -0.57447769821E+01 -0.40473432142E+02  0.49956013252E+03  0.50122991449E+03  0.00000000000E+00 0.  1.
         -1    1    1    2    0  501  0.57447769821E+01  0.40473432142E+02  0.53645012505E+03  0.53800542547E+03  0.00000000000E+00 0. -1.
</event>
<event>
 4    1  0.6888348E+001  0.2730997E+02  0.7546771E-02  0.1444519E+00
          2   -1    0    0  502    0  0.00000000000E+00  0.00000000000E+00  0.33360864059E+02  0.33360864059E+02  0.00000000000E+00 0. -1.
         -2   -1    0    0    0  501 -0.00000000000E+00 -0.00000000000E+00 -0.27396787458E+02  0.27396787458E+02  0.00000000000E+00 0.  1.
          1    1    1    2  502    0  0.22979761296E+02 -0.14756861349E+02 -0.10048007353E+02  0.29099773845E+02  0.00000000000E+00 0.  1.
         -1    1    1    2    0  501 -0.22979761296E+02  0.14756861349E+02  0.16012083954E+02  0.31657877671E+02  0.00000000000E+00 0. -1.
</event>
<event>
 4    1  0.6888348E+001  0.2843614E+02  0.7546771E-02  0.1433692E+00
          2   -1    0    0  502    0  0.00000000000E+00  0.00000000000E+00  0.25855817936E+03  0.25855817936E+03  0.00000000000E+00 0. -1.
         -2   -1    0    0    0  501 -0.00000000000E+00 -0.00000000000E+00 -0.31302697835E+01  0.31302697835E+01  0.00000000000E+00 0.  1.
          1    1    1    2  502    0 -0.23845866150E+02 -0.15491561644E+02  0.12374943051E+03  0.12697454613E+03  0.00000000000E+00 0.  1.
         -1    1    1    2    0  501  0.23845866150E+02  0.15491561644E+02  0.13167847907E+03  0.13471390302E+03  0.00000000000E+00 0. -1.
</event>
<event>
 4    1  0.6888348E+001  0.6396570E+02  0.7546771E-02  0.1246923E+00
          2   -1    0    0  502    0  0.00000000000E+00  0.00000000000E+00  0.61469842424E+03  0.61469842424E+03  0.00000000000E+00 0. -1.
         -2   -1    0    0    0  501 -0.00000000000E+00 -0.00000000000E+00 -0.77791240233E+01  0.77791240233E+01  0.00000000000E+00 0.  1.
          1    1    1    2  502    0  0.61444518727E+02 -0.17781492597E+02  0.42170561332E+03  0.42652928934E+03  0.00000000000E+00 0. -1.
         -1    1    1    2    0  501 -0.61444518727E+02  0.17781492597E+02  0.18521368690E+03  0.19594825892E+03  0.00000000000E+00 0.  1.
</event>
<event>
 4    1  0.6888348E+001  0.2542991E+02  0.7546771E-02  0.1464051E+00
          2   -1    0    0  502    0  0.00000000000E+00  0.00000000000E+00  0.70517605942E+02  0.70517605942E+02  0.00000000000E+00 0.  1.
         -2   -1    0    0    0  501 -0.00000000000E+00 -0.00000000000E+00 -0.91858014775E+01  0.91858014775E+01  0.00000000000E+00 0. -1.
          1    1    1    2  502    0 -0.12569581997E+02  0.22106240336E+02  0.29038304624E+02  0.38599266687E+02  0.00000000000E+00 0.  1.
         -1    1    1    2    0  501  0.12569581997E+02 -0.22106240336E+02  0.32293499840E+02  0.41104140732E+02  0.00000000000E+00 0. -1.
</event>
<event>
 4    1  0.6888348E+001  0.2290897E+02  0.7546771E-02  0.1493644E+00
          2   -1    0    0  502    0  0.00000000000E+00  0.00000000000E+00  0.19404465494E+03  0.19404465494E+03  0.00000000000E+00 0.  1.
         -2   -1    0    0    0  501 -0.00000000000E+00 -0.00000000000E+00 -0.42209919833E+01  0.42209919833E+01  0.00000000000E+00 0. -1.
          1    1    1    2  502    0 -0.22150454703E+02 -0.58462098555E+01  0.15432877592E+03  0.15601984454E+03  0.00000000000E+00 0. -1.
         -1    1    1    2    0  501  0.22150454703E+02  0.58462098555E+01  0.35494887034E+02  0.42245802381E+02  0.00000000000E+00 0.  1.
</event>
<event>
 4    1  0.6888348E+001  0.2080607E+02  0.7546771E-02  0.1522052E+00
          2   -1    0    0  502    0  0.00000000000E+00  0.00000000000E+00  0.13327341036E+03  0.13327341036E+03  0.00000000000E+00 0.  1.
         -2   -1    0    0    0  501 -0.00000000000E+00 -0.00000000000E+00 -0.69116434315E+01  0.69116434315E+01  0.00000000000E+00 0. -1.
          1    1    1    2  502    0 -0.37877407348E+01  0.20458389088E+02  0.12150541321E+02  0.24094155273E+02  0.00000000000E+00 0. -1.
         -1    1    1    2    0  501  0.37877407348E+01 -0.20458389088E+02  0.11421122561E+03  0.11609089852E+03  0.00000000000E+00 0.  1.
</event>
<event>
 4    1  0.6888348E+001  0.2022637E+02  0.7546771E-02  0.1530603E+00
          2   -1    0    0  502    0  0.00000000000E+00  0.00000000000E+00  0.57280129557E+03  0.57280129557E+03  0.00000000000E+00 0. -1.
         -2   -1    0    0    0  501 -0.00000000000E+00 -0.00000000000E+00 -0.75343442006E+00  0.75343442006E+00  0.00000000000E+00 0.  1.
          1    1    1    2  502    0 -0.17993557841E+02  0.92378560648E+01  0.22059868556E+03  0.22152400813E+03  0.00000000000E+00 0.  1.
         -1    1    1    2    0  501  0.17993557841E+02 -0.92378560648E+01  0.35144917559E+03  0.35203072186E+03  0.00000000000E+00 0. -1.
</event>
<event>
 4    1  0.6888348E+001  0.2485242E+02  0.7546771E-02  0.1470461E+00
          2   -1    0    0  502    0  0.00000000000E+00  0.00000000000E+00  0.40499068715E+01  0.40499068715E+01  0.00000000000E+00 0. -1.
         -2   -1    0    0    0  501 -0.00000000000E+00 -0.00000000000E+00 -0.15302617210E+03  0.15302617210E+03  0.00000000000E+00 0.  1.
          1    1    1    2  502    0 -0.13688379628E+02  0.20742974624E+02 -0.69917437787E+02  0.74203037941E+02  0.00000000000E+00 0. -1.
         -1    1    1    2    0  501  0.13688379628E+02 -0.20742974624E+02 -0.79058827440E+02  0.82873041028E+02  0.00000000000E+00 0.  1.
</event>
<event>
 4    1  0.6888348E+001  0.3310292E+02  0.7546771E-02  0.1394414E+00
          2   -1    0    0  502    0  0.00000000000E+00  0.00000000000E+00  0.11631450065E+04  0.11631450065E+04  0.00000000000E+00 0. -1.
         -2   -1    0    0    0  501 -0.00000000000E+00 -0.00000000000E+00 -0.11083064953E+01  0.11083064953E+01  0.00000000000E+00 0.  1.
          1    1    1    2  502    0 -0.31159075635E+02 -0.11176553118E+02  0.35559101601E+03  0.35712851188E+03  0.00000000000E+00 0.  1.
         -1    1    1    2    0  501  0.31159075635E+02  0.11176553118E+02  0.80644568401E+03  0.80712480113E+03  0.00000000000E+00 0. -1.
</event>
<event>
 4    1  0.6888348E+001  0.2111076E+02  0.7546771E-02  0.1517689E+00
          2   -1    0    0  502    0  0.00000000000E+00  0.00000000000E+00  0.16848179897E+02  0.16848179897E+02  0.00000000000E+00 0. -1.
         -2   -1    0    0    0  501 -0.00000000000E+00 -0.00000000000E+00 -0.40763328204E+02  0.40763328204E+02  0.00000000000E+00 0.  1.
          1    1    1    2  502    0 -0.19663095621E+02  0.76828975184E+01 -0.29025778483E+02  0.35890946772E+02  0.00000000000E+00 0.  1.
         -1    1    1    2    0  501  0.19663095621E+02 -0.76828975184E+01  0.51106301757E+01  0.21720561329E+02  0.00000000000E+00 0. -1.
</event>
<event>
 4    1  0.6888348E+001  0.2236229E+02  0.7546771E-02  0.1500665E+00
          2   -1    0    0  502    0  0.00000000000E+00  0.00000000000E+00  0.37959618184E+02  0.37959618184E+02  0.00000000000E+00 0. -1.
         -2   -1    0    0    0  501 -0.00000000000E+00 -0.00000000000E+00 -0.13276896415E+02  0.13276896415E+02  0.00000000000E+00 0.  1.
          1    1    1    2  502    0 -0.18164908237E+02  0.13042555529E+02  0.14598915037E+02  0.26705813341E+02  0.00000000000E+00 0.  1.
         -1    1    1    2    0  501  0.18164908237E+02 -0.13042555529E+02  0.10083806733E+02  0.24530701258E+02  0.00000000000E+00 0. -1.
</event>
<event>
 4    1  0.6888348E+001  0.4444879E+02  0.7546771E-02  0.1324219E+00
          2   -1    0    0  502    0  0.00000000000E+00  0.00000000000E+00  0.94780206546E+02  0.94780206546E+02  0.00000000000E+00 0.  1.
         -2   -1    0    0    0  501 -0.00000000000E+00 -0.00000000000E+00 -0.20966561427E+02  0.20966561427E+02  0.00000000000E+00 0. -1.
          1    1    1    2  502    0  0.77459064195E+01 -0.43768660484E+02  0.32500374674E+02  0.55063318650E+02  0.00000000000E+00 0.  1.
         -1    1    1    2    0  501 -0.77459064195E+01  0.43768660484E+02  0.41313270446E+02  0.60683449323E+02  0.00000000000E+00 0. -1.
</event>
<event>
 4    1  0.6888348E+001  0.2493278E+02  0.7546771E-02  0.1469557E+00
          2   -1    0    0  502    0  0.00000000000E+00  0.00000000000E+00  0.50585821352E+02  0.50585821352E+02  0.00000000000E+00 0. -1.
         -2   -1    0    0    0  501 -0.00000000000E+00 -0.00000000000E+00 -0.26149971349E+02  0.26149971349E+02  0.00000000000E+00 0.  1.
          1    1    1    2  502    0  0.19113721333E+02 -0.16009664977E+02 -0.15715931511E+02  0.29472601160E+02  0.00000000000E+00 0.  1.
         -1    1    1    2    0  501 -0.19113721333E+02  0.16009664977E+02  0.40151781514E+02  0.47263191541E+02  0.00000000000E+00 0. -1.
</event>
<event>
 4    1  0.6888348E+001  0.2515764E+02  0.7546771E-02  0.1467047E+00
          2   -1    0    0  502    0  0.00000000000E+00  0.00000000000E+00  0.67389734252E+02  0.67389734252E+02  0.00000000000E+00 0. -1.
         -2   -1    0    0    0  501 -0.00000000000E+00 -0.00000000000E+00 -0.94383384258E+01  0.94383384258E+01  0.00000000000E+00 0.  1.
          1    1    1    2  502    0 -0.22659427945E+02 -0.10929653232E+02  0.31674796075E+02  0.40449965401E+02  0.00000000000E+00 0.  1.
         -1    1    1    2    0  501  0.22659427945E+02  0.10929653232E+02  0.26276599752E+02  0.36378107277E+02  0.00000000000E+00 0. -1.
</event>
<event>
 4    1  0.6888348E+001  0.3728365E+02  0.7546771E-02  0.1365183E+00
          2   -1    0    0  502    0  0.00000000000E+00  0.00000000000E+00  0.13863828110E+01  0.13863828110E+01  0.00000000000E+00 0. -1.
         -2   -1    0    0    0  501 -0.00000000000E+00 -0.00000000000E+00 -0.10809866029E+04  0.10809866029E+04  0.00000000000E+00 0.  1.
          1    1    1    2  502    0 -0.11606926088E+02  0.35430919098E+02 -0.68547714531E+03  0.68649034043E+03  0.00000000000E+00 0. -1.
         -1    1    1    2    0  501  0.11606926088E+02 -0.35430919098E+02 -0.39412307475E+03  0.39588264526E+03  0.00000000000E+00 0.  1.
</event>
<event>
 4    1  0.6888348E+001  0.2875978E+02  0.7546771E-02  0.1430689E+00
          2   -1    0    0  502    0  0.00000000000E+00  0.00000000000E+00  0.19881976929E+03  0.19881976929E+03  0.00000000000E+00 0.  1.
         -2   -1    0    0    0  501 -0.00000000000E+00 -0.00000000000E+00 -0.50419180326E+01  0.50419180326E+01  0.00000000000E+00 0. -1.
          1    1    1    2  502    0 -0.91318676734E+00  0.28745278925E+02  0.54262509054E+02  0.61412904665E+02  0.00000000000E+00 0. -1.
         -1    1    1    2    0  501  0.91318676734E+00 -0.28745278925E+02  0.13951534221E+03  0.14244878266E+03  0.00000000000E+00 0.  1.
</event>
<event>
 4    1  0.6888348E+001  0.2442975E+02  0.7546771E-02  0.1475285E+00
          2   -1    0    0  502    0  0.00000000000E+00  0.00000000000E+00  0.35728482530E+03  0.35728482530E+03  0.00000000000E+00 0.  1.
         -2   -1    0    0    0  501 -0.00000000000E+00 -0.00000000000E+00 -0.19481969047E+01  0.19481969047E+01  0.00000000000E+00 0. -1.
          1    1    1    2  502    0 -0.80358823151E+01 -0.23070273311E+02  0.10984421552E+03  0.11252806139E+03  0.00000000000E+00 0.  1.
         -1    1    1    2    0  501  0.80358823151E+01  0.23070273311E+02  0.24549241287E+03  0.24670496082E+03  0.00000000000E+00 0. -1.
</event>
<event>
 4    1  0.6888348E+001  0.2659094E+02  0.7546771E-02  0.1451761E+00
          2   -1    0    0  502    0  0.00000000000E+00  0.00000000000E+00  0.93455490250E+03  0.93455490250E+03  0.00000000000E+00 0.  1.
         -2   -1    0    0    0  501 -0.00000000000E+00 -0.00000000000E+00 -0.79315508657E+00  0.79315508657E+00  0.00000000000E+00 0. -1.
          1    1    1    2  502    0 -0.18333624895E+02  0.19260221524E+02  0.56729115242E+03  0.56791401598E+03  0.00000000000E+00 0.  1.
         -1    1    1    2    0  501  0.18333624895E+02 -0.19260221524E+02  0.36647059499E+03  0.36743404160E+03  0.00000000000E+00 0. -1.
</event>
<event>
 4    1  0.6888348E+001  0.2157843E+02  0.7546771E-02  0.1511164E+00
          2   -1    0    0  502    0  0.00000000000E+00  0.00000000000E+00  0.10171726671E+04  0.10171726671E+04  0.00000000000E+00 0.  1.
         -2   -1    0    0    0  501 -0.00000000000E+00 -0.00000000000E+00 -0.46790311854E+00  0.46790311854E+00  0.00000000000E+00 0. -1.
          1    1    1    2  502    0  0.17083056945E+02  0.13183245899E+02  0.43346528740E+03  0.43400205551E+03  0.00000000000E+00 0. -1.
         -1    1    1    2    0  501 -0.17083056945E+02 -0.13183245899E+02  0.58323947657E+03  0.58363851469E+03  0.00000000000E+00 0.  1.
</event>
<event>
 4    1  0.6888348E+001  0.3206502E+02  0.7546771E-02  0.1402461E+00
          2   -1    0    0  502    0  0.00000000000E+00  0.00000000000E+00  0.64767360519E+02  0.64767360519E+02  0.00000000000E+00 0. -1.
         -2   -1    0    0    0  501 -0.00000000000E+00 -0.00000000000E+00 -0.17166161330E+02  0.17166161330E+02  0.00000000000E+00 0.  1.
          1    1    1    2  502    0 -0.31167518491E+02 -0.75333600975E+01  0.12564200522E+02  0.34438711619E+02  0.00000000000E+00 0.  1.
         -1    1    1    2    0  501  0.31167518491E+02  0.75333600975E+01  0.35036998666E+02  0.47494810230E+02  0.00000000000E+00 0. -1.
</event>
<event>
 4    1  0.6888348E+001  0.2276607E+02  0.7546771E-02  0.1495457E+00
          2   -1    0    0  502    0  0.00000000000E+00  0.00000000000E+00  0.30918135734E+03  0.30918135734E+03  0.00000000000E+00 0.  1.
         -2   -1    0    0    0  501 -0.00000000000E+00 -0.00000000000E+00 -0.17840496234E+01  0.17840496234E+01  0.00000000000E+00 0. -1.
          1    1    1    2  502    0 -0.20696817096E+02  0.94834432424E+01  0.19190190147E+03  0.19324759693E+03  0.00000000000E+00 0.  1.
         -1    1    1    2    0  501  0.20696817096E+02 -0.94834432424E+01  0.11549540625E+03  0.11771781003E+03  0.00000000000E+00 0. -1.
</event>
<event>
 4    1  0.6888348E+001  0.2422101E+02  0.7546771E-02  0.1477710E+00
          2   -1    0    0  502    0  0.00000000000E+00  0.00000000000E+00  0.11219338588E+02  0.11219338588E+02  0.00000000000E+00 0.  1.
         -2   -1    0    0    0  501 -0.00000000000E+00 -0.00000000000E+00 -0.52843218863E+02  0.52843218863E+02  0.00000000000E+00 0. -1.
          1    1    1    2  502    0  0.19595448641E+02 -0.14236416115E+02 -0.24089874984E+02  0.34161077676E+02  0.00000000000E+00 0.  1.
         -1    1    1    2    0  501 -0.19595448641E+02  0.14236416115E+02 -0.17534005291E+02  0.29901479776E+02  0.00000000000E+00 0. -1.
</event>
<event>
 4    1  0.6888348E+001  0.2472509E+02  0.7546771E-02  0.1471902E+00
          2   -1    0    0  502    0  0.00000000000E+00  0.00000000000E+00  0.14654373264E+04  0.14654373264E+04  0.00000000000E+00 0. -1.
         -2   -1    0    0    0  501 -0.00000000000E+00 -0.00000000000E+00 -0.44661424833E+00  0.44661424833E+00  0.00000000000E+00 0.  1.
          1    1    1    2  502    0  0.23756962782E+02  0.68510485906E+01  0.92070221840E+03  0.92103414981E+03  0.00000000000E+00 0. -1.
         -1    1    1    2    0  501 -0.23756962782E+02 -0.68510485906E+01  0.54428849378E+03  0.54484979087E+03  0.00000000000E+00 0.  1.
</event>
<event>
 4    1  0.6888348E+001  0.2014172E+02  0.7546771E-02  0.1531880E+00
          2   -1    0    0  502    0  0.00000000000E+00  0.00000000000E+00  0.86195378438E+03  0.86195378438E+03  0.00000000000E+00 0. -1.
         -2   -1    0    0    0  501 -0.00000000000E+00 -0.00000000000E+00 -0.54440259157E+00  0.54440259157E+00  0.00000000000E+00 0.  1.
          1    1    1    2  502    0 -0.78101196346E+01 -0.18565856103E+02  0.58942083578E+03  0.58976487741E+03  0.00000000000E+00 0. -1.
         -1    1    1    2    0  501  0.78101196346E+01  0.18565856103E+02  0.27198854601E+03  0.27273330956E+03  0.00000000000E+00 0.  1.
</event>
<event>
 4    1  0.6888348E+001  0.2643257E+02  0.7546771E-02  0.1453393E+00
          2   -1    0    0  502    0  0.00000000000E+00  0.00000000000E+00  0.15697401202E+03  0.15697401202E+03  0.00000000000E+00 0. -1.
         -2   -1    0    0    0  501 -0.00000000000E+00 -0.00000000000E+00 -0.48128450641E+01  0.48128450641E+01  0.00000000000E+00 0.  1.
          1    1    1    2  502    0  0.15918270595E+02 -0.21101880776E+02  0.98263273563E+02  0.10175633465E+03  0.00000000000E+00 0.  1.
         -1    1    1    2    0  501 -0.15918270595E+02  0.21101880776E+02  0.53897893394E+02  0.60030522431E+02  0.00000000000E+00 0. -1.
</event>
<event>
 4    1  0.6888348E+001  0.2615068E+02  0.7546771E-02  0.1456331E+00
          2   -1    0    0  502    0  0.00000000000E+00  0.00000000000E+00  0.28336499150E+01  0.28336499150E+01  0.00000000000E+00 0.  1.
         -2   -1    0    0    0  501 -0.00000000000E+00 -0.00000000000E+00 -0.24327156931E+03  0.24327156931E+03  0.00000000000E+00 0. -1.
          1    1    1    2  502    0 -0.18501669636E+02 -0.18480974188E+02 -0.10923927159E+03  0.11232576126E+03  0.00000000000E+00 0. -1.
         -1    1    1    2    0  501  0.18501669636E+02  0.18480974188E+02 -0.13119864781E+03  0.13377945796E+03  0.00000000000E+00 0.  1.
</event>
<event>
 4    1  0.6888348E+001  0.2870402E+02  0.7546771E-02  0.1431203E+00
          2   -1    0    0  502    0  0.00000000000E+00  0.00000000000E+00  0.38167172155E+03  0.38167172155E+03  0.00000000000E+00 0. -1.
         -2   -1    0    0    0  501 -0.00000000000E+00 -0.00000000000E+00 -0.21618310105E+01  0.21618310105E+01  0.00000000000E+00 0.  1.
          1    1    1    2  502    0 -0.28170352339E+02  0.55092573932E+01  0.19704054743E+03  0.19912031037E+03  0.00000000000E+00 0. -1.
         -1    1    1    2    0  501  0.28170352339E+02 -0.55092573932E+01  0.18246934310E+03  0.18471324219E+03  0.00000000000E+00 0.  1.
</event>
<event>
 4    1  0.6888348E+001  0.2070441E+02  0.7546771E-02  0.1523527E+00
          2   -1    0    0  502    0  0.00000000000E+00  0.00000000000E+00  0.85846253113E+03  0.85846253113E+03  0.00000000000E+00 0.  1.
         -2   -1    0    0    0  501 -0.00000000000E+00 -0.00000000000E+00 -0.13313884344E+01  0.13313884344E+01  0.00000000000E+00 0. -1.
          1    1    1    2  502    0  0.91994129728E+00 -0.20683965438E+02  0.88718255550E+02  0.91102149185E+02  0.00000000000E+00 0. -1.
         -1    1    1    2    0  501 -0.91994129728E+00  0.20683965438E+02  0.76841288715E+03  0.76869177038E+03  0.00000000000E+00 0.  1.
</event>
<event>
 4    1  0.6888348E+001  0.2542355E+02  0.7546771E-02  0.1464120E+00
          2   -1    0    0  502    0  0.00000000000E+00  0.00000000000E+00  0.63841802655E+02  0.63841802655E+02  0.00000000000E+00 0.  1.
         -2   -1    0    0    0  501 -0.00000000000E+00 -0.00000000000E+00 -0.13792610479E+02  0.13792610479E+02  0.00000000000E+00 0. -1.
          1    1    1    2  502    0 -0.13232887770E+02  0.21708239753E+02  0.45043067240E+02  0.51722672961E+02  0.00000000000E+00 0.  1.
         -1    1    1    2    0  501  0.13232887770E+02 -0.21708239753E+02  0.50061249365E+01  0.25911740173E+02  0.00000000000E+00 0. -1.
</event>
<event>
 4    1  0.6888348E+001  0.2745876E+02  0.7546771E-02  0.1443053E+00
          2   -1    0    0  502    0  0.00000000000E+00  0.00000000000E+00  0.46201992744E+02  0.46201992744E+02  0.00000000000E+00 0.  1.
         -2   -1    0    0    0  501 -0.00000000000E+00 -0.00000000000E+00 -0.26052315041E+02  0.26052315041E+02  0.00000000000E+00 0. -1.
          1    1    1    2  502    0  0.59804664576E+01  0.26799578357E+02 -0.12006971339E+02  0.29969163150E+02  0.00000000000E+00 0. -1.
         -1    1    1    2    0  501 -0.59804664576E+01 -0.26799578357E+02  0.32156649042E+02  0.42285144635E+02  0.00000000000E+00 0.  1.
</event>
<event>
 4    1  0.6888348E+001  0.3053342E+02  0.7546771E-02  0.1415017E+00
          2   -1    0    0  502    0  0.00000000000E+00  0.00000000000E+00  0.25649399568E+04  0.25649399568E+04  0.00000000000E+00 0. -1.
         -2   -1    0    0    0  501 -0.00000000000E+00 -0.00000000000E+00 -0.39638343685E+00  0.39638343685E+00  0.00000000000E+00 0.  1.
          1    1    1    2  502    0 -0.30532353476E+02  0.25508507063E+00  0.91268620922E+03  0.91319680583E+03  0.00000000000E+00 0.  1.
         -1    1    1    2    0  501  0.30532353476E+02 -0.25508507063E+00  0.16518573641E+04  0.16521395344E+04  0.00000000000E+00 0. -1.
</event>
<event>
 4    1  0.6888348E+001  0.2065421E+02  0.7546771E-02  0.1524260E+00
          2   -1    0    0  502    0  0.00000000000E+00  0.00000000000E+00  0.12364949306E+03  0.12364949306E+03  0.00000000000E+00 0. -1.
         -2   -1    0    0    0  501 -0.00000000000E+00 -0.00000000000E+00 -0.36128609376E+01  0.36128609376E+01  0.00000000000E+00 0.  1.
          1    1    1    2  502    0 -0.16786286432E+02  0.12033993171E+02  0.73526340461E+02  0.76372240673E+02  0.00000000000E+00 0.  1.
         -1    1    1    2    0  501  0.16786286432E+02 -0.12033993171E+02  0.46510291663E+02  0.50890113327E+02  0.00000000000E+00 0. -1.
</event>
<event>
 4    1  0.6888348E+001  0.2292556E+02  0.7546771E-02  0.1493435E+00
          2   -1    0    0  502    0  0.00000000000E+00  0.00000000000E+00  0.18847527799E+04  0.18847527799E+04  0.00000000000E+00 0.  1.
         -2   -1    0    0    0  501 -0.00000000000E+00 -0.00000000000E+00 -0.39994397284E+00  0.39994397284E+00  0.00000000000E+00 0. -1.
          1    1    1    2  502    0  0.22615524465E+02  0.37575870281E+01  0.42354238297E+03  0.42416238822E+03  0.00000000000E+00 0. -1.
         -1    1    1    2    0  501 -0.22615524465E+02 -0.37575870281E+01  0.14608104529E+04  0.14609903356E+04  0.00000000000E+00 0.  1.
</event>
<event>
 4    1  0.6888348E+001  0.2208574E+02  0.7546771E-02  0.1504309E+00
          2   -1    0    0  502    0  0.00000000000E+00  0.00000000000E+00  0.88599873322E+03  0.88599873322E+03  0.00000000000E+00 0. -1.
         -2   -1    0    0    0  501 -0.00000000000E+00 -0.00000000000E+00 -0.55087891802E+00  0.55087891802E+00  0.00000000000E+00 0.  1.
          1    1    1    2  502    0 -0.12928911881E+02 -0.17905955972E+02  0.43177080602E+03  0.43233529691E+03  0.00000000000E+00 0.  1.
         -1    1    1    2    0  501  0.12928911881E+02  0.17905955972E+02  0.45367704828E+03  0.45421431523E+03  0.00000000000E+00 0. -1.
</event>
<event>
 4    1  0.6888348E+001  0.2038028E+02  0.7546771E-02  0.1528300E+00
          2   -1    0    0  502    0  0.00000000000E+00  0.00000000000E+00  0.68040338343E+03  0.68040338343E+03  0.00000000000E+00 0.  1.
         -2   -1    0    0    0  501 -0.00000000000E+00 -0.00000000000E+00 -0.61084670361E+00  0.61084670361E+00  0.00000000000E+00 0. -1.
          1    1    1    2  502    0  0.26373306887E+01  0.20208912965E+02  0.33127412434E+03  0.33190043859E+03  0.00000000000E+00 0.  1.
         -1    1    1    2    0  501 -0.26373306887E+01 -0.20208912965E+02  0.34851841239E+03  0.34911379155E+03  0.00000000000E+00 0. -1.
</event>
<event>
 4    1  0.6888348E+001  0.2559868E+02  0.7546771E-02  0.1462216E+00
          2   -1    0    0  502    0  0.00000000000E+00  0.00000000000E+00  0.49098599865E+03  0.49098599865E+03  0.00000000000E+00 0. -1.
         -2   -1    0    0    0  501 -0.00000000000E+00 -0.00000000000E+00 -0.23744191153E+01  0.23744191153E+01  0.00000000000E+00 0.  1.
          1    1    1    2  502    0  0.23144516673E+01  0.25493833593E+02  0.40754520138E+03  0.40834836036E+03  0.00000000000E+00 0. -1.
         -1    1    1    2    0  501 -0.23144516673E+01 -0.25493833593E+02  0.81066378150E+02  0.85012057404E+02  0.00000000000E+00 0.  1.
</event>
<event>
 4    1  0.6888348E+001  0.1207994E+03  0.7546771E-02  0.1131971E+00
          2   -1    0    0  502    0  0.00000000000E+00  0.00000000000E+00  0.29477996257E+03  0.29477996257E+03  0.00000000000E+00 0.  1.
         -2   -1    0    0    0  501 -0.00000000000E+00 -0.00000000000E+00 -0.15075443816E+03  0.15075443816E+03  0.00000000000E+00 0. -1.
          1    1    1    2  502    0 -0.93848374304E+02  0.76059019860E+02  0.25457745827E+03  0.28178391388E+03  0.00000000000E+00 0.  1.
         -1    1    1    2    0  501  0.93848374304E+02 -0.76059019860E+02 -0.11055193386E+03  0.16375048685E+03  0.00000000000E+00 0. -1.
</event>
<event>
 4    1  0.6888348E+001  0.2123056E+02  0.7546771E-02  0.1515998E+00
          2   -1    0    0  502    0  0.00000000000E+00  0.00000000000E+00  0.45202786117E+03  0.45202786117E+03  0.00000000000E+00 0. -1.
         -2   -1    0    0    0  501 -0.00000000000E+00 -0.00000000000E+00 -0.15188948898E+01  0.15188948898E+01  0.00000000000E+00 0.  1.
          1    1    1    2  502    0 -0.22793573257E+01  0.21107849124E+02  0.35816517078E+03  0.35879384934E+03  0.00000000000E+00 0. -1.
         -1    1    1    2    0  501  0.22793573257E+01 -0.21107849124E+02  0.92343795503E+02  0.94752906723E+02  0.00000000000E+00 0.  1.
</event>
<event>
 4    1  0.6888348E+001  0.2446302E+02  0.7546771E-02  0.1474901E+00
          2   -1    0    0  502    0  0.00000000000E+00  0.00000000000E+00  0.39141706749E+01  0.39141706749E+01  0.00000000000E+00 0. -1.
         -2   -1    0    0    0  501 -0.00000000000E+00 -0.00000000000E+00 -0.31214964013E+03  0.31214964013E+03  0.00000000000E+00 0.  1.
          1    1    1    2  502    0 -0.28561339370E+01 -0.24295718880E+02 -0.26699736012E+03  0.26811570221E+03  0.00000000000E+00 0.  1.
         -1    1    1    2    0  501  0.28561339370E+01  0.24295718880E+02 -0.41238109336E+02  0.47948108602E+02  0.00000000000E+00 0. -1.
</event>
<event>
 4    1  0.6888348E+001  0.2534072E+02  0.7546771E-02  0.1465028E+00
          2   -1    0    0  502    0  0.00000000000E+00  0.00000000000E+00  0.86883681996E+00  0.86883681996E+00  0.00000000000E+00 0. -1.
         -2   -1    0    0    0  501 -0.00000000000E+00 -0.00000000000E+00 -0.75069331016E+03  0.75069331016E+03  0.00000000000E+00 0.  1.
          1    1    1    2  502    0  0.19520790900E+02  0.16158312189E+02 -0.42162271704E+03  0.42238355538E+03  0.00000000000E+00 0.  1.
         -1    1    1    2    0  501 -0.19520790900E+02 -0.16158312189E+02 -0.32820175629E+03  0.32917859159E+03  0.00000000000E+00 0. -1.
</event>
<event>
 4    1  0.6888348E+001  0.3129744E+02  0.7546771E-02  0.1408647E+00
          2   -1    0    0  502    0  0.00000000000E+00  0.00000000000E+00  0.10356892190E+03  0.10356892190E+03  0.00000000000E+00 0.  1.
         -2   -1    0    0    0  501 -0.00000000000E+00 -0.00000000000E+00 -0.94654829650E+01  0.94654829650E+01  0.00000000000E+00 0. -1.
          1    1    1    2  502    0 -0.29360115197E+02 -0.10840359199E+02  0.45437098936E+02  0.55172998030E+02  0.00000000000E+00 0. -1.
         -1    1    1    2    0  501  0.29360115197E+02  0.10840359199E+02  0.48666339997E+02  0.57861406833E+02  0.00000000000E+00 0.  1.
</event>
<event>
 4    1  0.6888348E+001  0.2201708E+02  0.7546771E-02  0.1505224E+00
          2   -1    0    0  502    0  0.00000000000E+00  0.00000000000E+00  0.39315232179E+03  0.39315232179E+03  0.00000000000E+00 0.  1.
         -2   -1    0    0    0  501 -0.00000000000E+00 -0.00000000000E+00 -0.13847531292E+01  0.13847531292E+01  0.00000000000E+00 0. -1.
          1    1    1    2  502    0 -0.18917744634E+02  0.11263685523E+02  0.26119070078E+03  0.26211702319E+03  0.00000000000E+00 0.  1.
         -1    1    1    2    0  501  0.18917744634E+02 -0.11263685523E+02  0.13057686789E+03  0.13242005173E+03  0.00000000000E+00 0. -1.
</event>
<event>
 4    1  0.6888348E+001  0.2110470E+02  0.7546771E-02  0.1517775E+00
          2   -1    0    0  502    0  0.00000000000E+00  0.00000000000E+00  0.12493115080E+01  0.12493115080E+01  0.00000000000E+00 0.  1.
         -2   -1    0    0    0  501 -0.00000000000E+00 -0.00000000000E+00 -0.36201012543E+03  0.36201012543E+03  0.00000000000E+00 0. -1.
          1    1    1    2  502    0 -0.10043181406E+02 -0.18561866113E+02 -0.15801913648E+03  0.15942225648E+03  0.00000000000E+00 0. -1.
         -1    1    1    2    0  501  0.10043181406E+02  0.18561866113E+02 -0.20274167744E+03  0.20383718046E+03  0.00000000000E+00 0.  1.
</event>
<event>
 4    1  0.6888348E+001  0.2083904E+02  0.7546771E-02  0.1521575E+00
          2   -1    0    0  502    0  0.00000000000E+00  0.00000000000E+00  0.61271633975E+03  0.61271633975E+03  0.00000000000E+00 0. -1.
         -2   -1    0    0    0  501 -0.00000000000E+00 -0.00000000000E+00 -0.14911327594E+01  0.14911327594E+01  0.00000000000E+00 0.  1.
          1    1    1    2  502    0 -0.46642566317E+01 -0.20310347965E+02  0.52806408554E+03  0.52847511196E+03  0.00000000000E+00 0.  1.
         -1    1    1    2    0  501  0.46642566317E+01  0.20310347965E+02  0.83161121450E+02  0.85732360548E+02  0.00000000000E+00 0. -1.
</event>
<event>
 4    1  0.6888348E+001  0.2612987E+02  0.7546771E-02  0.1456550E+00
          2   -1    0    0  502    0  0.00000000000E+00  0.00000000000E+00  0.58242949337E+01  0.58242949337E+01  0.00000000000E+00 0. -1.
         -2   -1    0    0    0  501 -0.00000000000E+00 -0.00000000000E+00 -0.11724621985E+03  0.11724621985E+03  0.00000000000E+00 0.  1.
          1    1    1    2  502    0 -0.21815920311E+02  0.14381780267E+02 -0.54942196718E+02  0.60839255114E+02  0.00000000000E+00 0.  1.
         -1    1    1    2    0  501  0.21815920311E+02 -0.14381780267E+02 -0.56479728199E+02  0.62231259670E+02  0.00000000000E+00 0. -1.
</event>
<event>
 4    1  0.6888348E+001  0.3726833E+02  0.7546771E-02  0.1365282E+00
          2   -1    0    0  502    0  0.00000000000E+00  0.00000000000E+00  0.25530816944E+02  0.25530816944E+02  0.00000000000E+00 0. -1.
         -2   -1    0    0    0  501 -0.00000000000E+00 -0.00000000000E+00 -0.67050080651E+02  0.67050080651E+02  0.00000000000E+00 0.  1.
          1    1    1    2  502    0 -0.16761874746E+02  0.33286151944E+02 -0.65465957086E+00  0.37274078599E+02  0.00000000000E+00 0. -1.
         -1    1    1    2    0  501  0.16761874746E+02 -0.33286151944E+02 -0.40864604136E+02  0.55306818996E+02  0.00000000000E+00 0.  1.
</event>
<event>
 4    1  0.6888348E+001  0.2262854E+02  0.7546771E-02  0.1497216E+00
          2   -1    0    0  502    0  0.00000000000E+00  0.00000000000E+00  0.25607551626E+04  0.25607551626E+04  0.00000000000E+00 0. -1.
         -2   -1    0    0    0  501 -0.00000000000E+00 -0.00000000000E+00 -0.20374942088E+00  0.20374942088E+00  0.00000000000E+00 0.  1.
          1    1    1    2  502    0 -0.16395723444E+02 -0.15595872865E+02  0.11056704813E+04  0.11059020138E+04  0.00000000000E+00 0. -1.
         -1    1    1    2    0  501  0.16395723444E+02  0.15595872865E+02  0.14548809319E+04  0.14550568982E+04  0.00000000000E+00 0.  1.
</event>
<event>
 4    1  0.6888348E+001  0.3328892E+02  0.7546771E-02  0.1393009E+00
          2   -1    0    0  502    0  0.00000000000E+00  0.00000000000E+00  0.54008441223E+02  0.54008441223E+02  0.00000000000E+00 0.  1.
         -2   -1    0    0    0  501 -0.00000000000E+00 -0.00000000000E+00 -0.21708324796E+02  0.21708324796E+02  0.00000000000E+00 0. -1.
          1    1    1    2  502    0  0.97112067996E+01 -0.31840922504E+02  0.25014656498E+02  0.41639943841E+02  0.00000000000E+00 0. -1.
         -1    1    1    2    0  501 -0.97112067996E+01  0.31840922504E+02  0.72854599280E+01  0.34076822178E+02  0.00000000000E+00 0.  1.
</event>
<event>
 4    1  0.6888348E+001  0.2021907E+02  0.7546771E-02  0.1530713E+00
          2   -1    0    0  502    0  0.00000000000E+00  0.00000000000E+00  0.25913306987E+01  0.25913306987E+01  0.00000000000E+00 0. -1.
         -2   -1    0    0    0  501 -0.00000000000E+00 -0.00000000000E+00 -0.17883401559E+03  0.17883401559E+03  0.00000000000E+00 0.  1.
          1    1    1    2  502    0 -0.16650744904E+02  0.11470117062E+02 -0.11926046486E+03  0.12096226424E+03  0.00000000000E+00 0.  1.
         -1    1    1    2    0  501  0.16650744904E+02 -0.11470117062E+02 -0.56982220035E+02  0.60463082053E+02  0.00000000000E+00 0. -1.
</event>
<event>
 4    1  0.6888348E+001  0.5365159E+02  0.7546771E-02  0.1283072E+00
          2   -1    0    0  502    0  0.00000000000E+00  0.00000000000E+00  0.44268718127E+02  0.44268718127E+02  0.00000000000E+00 0.  1.
         -2   -1    0    0    0  501 -0.00000000000E+00 -0.00000000000E+00 -0.13104512054E+03  0.13104512054E+03  0.00000000000E+00 0. -1.
          1    1    1    2  502    0  0.37893337270E+02 -0.37981423201E+02  0.18830346175E+02  0.56860139420E+02  0.00000000000E+00 0.  1.
         -1    1    1    2    0  501 -0.37893337270E+02  0.37981423201E+02 -0.10560674859E+03  0.11845369924E+03  0.00000000000E+00 0. -1.
</event>
<event>
 4    1  0.6888348E+001  0.2200455E+02  0.7546771E-02  0.1505391E+00
          2   -1    0    0  502    0  0.00000000000E+00  0.00000000000E+00  0.68821867685E+01  0.68821867685E+01  0.00000000000E+00 0. -1.
         -2   -1    0    0    0  501 -0.00000000000E+00 -0.00000000000E+00 -0.70372481920E+02  0.70372481920E+02  0.00000000000E+00 0.  1.
          1    1    1    2  502    0 -0.17339104590E+02  0.13548274218E+02 -0.31146617880E+02  0.38135443981E+02  0.00000000000E+00 0.  1.
         -1    1    1    2    0  501  0.17339104590E+02 -0.13548274218E+02 -0.32343677272E+02  0.39119224708E+02  0.00000000000E+00 0. -1.
</event>
<event>
 4    1  0.6888348E+001  0.4458103E+02  0.7546771E-02  0.1323548E+00
          2   -1    0    0  502    0  0.00000000000E+00  0.00000000000E+00  0.13055114557E+03  0.13055114557E+03  0.00000000000E+00 0.  1.
         -2   -1    0    0    0  501 -0.00000000000E+00 -0.00000000000E+00 -0.15224664856E+02  0.15224664856E+02  0.00000000000E+00 0. -1.
          1    1    1    2  502    0  0.36299363683E+02 -0.25880970265E+02  0.58250468058E+02  0.73352474087E+02  0.00000000000E+00 0.  1.
         -1    1    1    2    0  501 -0.36299363683E+02  0.25880970265E+02  0.57076012654E+02  0.72423336337E+02  0.00000000000E+00 0. -1.
</event>
<event>
 4    1  0.6888348E+001  0.2139449E+02  0.7546771E-02  0.1513707E+00
          2   -1    0    0  502    0  0.00000000000E+00  0.00000000000E+00  0.36451717839E+02  0.36451717839E+02  0.00000000000E+00 0.  1.
         -2   -1    0    0    0  501 -0.00000000000E+00 -0.00000000000E+00 -0.16565721010E+02  0.16565721010E+02  0.00000000000E+00 0. -1.
          1    1    1    2  502    0  0.21364908508E+02  0.11245831366E+01 -0.30972786001E+01  0.21617519227E+02  0.00000000000E+00 0. -1.
         -1    1    1    2    0  501 -0.21364908508E+02 -0.11245831366E+01  0.22983275429E+02  0.31399919622E+02  0.00000000000E+00 0.  1.
</event>
<event>
 4    1  0.6888348E+001  0.2415716E+02  0.7546771E-02  0.1478457E+00
          2   -1    0    0  502    0  0.00000000000E+00  0.00000000000E+00  0.11037947055E+02  0.11037947055E+02  0.00000000000E+00 0.  1.
         -2   -1    0    0    0  501 -0.00000000000E+00 -0.00000000000E+00 -0.97281895814E+02  0.97281895814E+02  0.00000000000E+00 0. -1.
          1    1    1    2  502    0 -0.23202382143E+02 -0.67244125421E+01 -0.65275253610E+01  0.25023525900E+02  0.00000000000E+00 0.  1.
         -1    1    1    2    0  501  0.23202382143E+02  0.67244125421E+01 -0.79716423398E+02  0.83296316968E+02  0.00000000000E+00 0. -1.
</event>
<event>
 4    1  0.6888348E+001  0.7404687E+02  0.7546771E-02  0.1218386E+00
          2   -1    0    0  502    0  0.00000000000E+00  0.00000000000E+00  0.22091226956E+04  0.22091226956E+04  0.00000000000E+00 0. -1.
         -2   -1    0    0    0  501 -0.00000000000E+00 -0.00000000000E+00 -0.25995936097E+01  0.25995936097E+01  0.00000000000E+00 0.  1.
          1    1    1    2  502    0 -0.36859144727E+02 -0.64221038147E+02  0.86801306053E+03  0.87116566251E+03  0.00000000000E+00 0.  1.
         -1    1    1    2    0  501  0.36859144727E+02  0.64221038147E+02  0.13385100414E+04  0.13405566267E+04  0.00000000000E+00 0. -1.
</event>
<event>
 4    1  0.6888348E+001  0.2286754E+02  0.7546771E-02  0.1494168E+00
          2   -1    0    0  502    0  0.00000000000E+00  0.00000000000E+00  0.15526213387E+03  0.15526213387E+03  0.00000000000E+00 0. -1.
         -2   -1    0    0    0  501 -0.00000000000E+00 -0.00000000000E+00 -0.34080757322E+01  0.34080757322E+01  0.00000000000E+00 0.  1.
          1    1    1    2  502    0  0.22691278012E+02 -0.28337755481E+01  0.67325044805E+02  0.71102644393E+02  0.00000000000E+00 0.  1.
         -1    1    1    2    0  501 -0.22691278012E+02  0.28337755481E+01  0.84529013336E+02  0.87567565213E+02  0.00000000000E+00 0. -1.
</event>
<event>
 4    1  0.6888348E+001  0.2830418E+02  0.7546771E-02  0.1434930E+00
          2   -1    0    0  502    0  0.00000000000E+00  0.00000000000E+00  0.76684887902E+02  0.76684887902E+02  0.00000000000E+00 0.  1.
         -2   -1    0    0    0  501 -0.00000000000E+00 -0.00000000000E+00 -0.26187990570E+02  0.26187990570E+02  0.00000000000E+00 0. -1.
          1    1    1    2  502    0  0.40674482316E+01 -0.28010394873E+02 -0.14629789047E+02  0.31861529838E+02  0.00000000000E+00 0. -1.
         -1    1    1    2    0  501 -0.40674482316E+01  0.28010394873E+02  0.65126686378E+02  0.71011348633E+02  0.00000000000E+00 0.  1.
</event>
<event>
 4    1  0.6888348E+001  0.5279713E+02  0.7546771E-02  0.1286480E+00
          2   -1    0    0  502    0  0.00000000000E+00  0.00000000000E+00  0.19477333314E+03  0.19477333314E+03  0.00000000000E+00 0. -1.
         -2   -1    0    0    0  501 -0.00000000000E+00 -0.00000000000E+00 -0.25723697374E+02  0.25723697374E+02  0.00000000000E+00 0.  1.
          1    1    1    2  502    0 -0.44219419558E+02 -0.28847525590E+02  0.11092547700E+02  0.53949804571E+02  0.00000000000E+00 0.  1.
         -1    1    1    2    0  501  0.44219419558E+02  0.28847525590E+02  0.15795708806E+03  0.16654722594E+03  0.00000000000E+00 0. -1.
</event>
<event>
 4    1  0.6888348E+001  0.2843666E+02  0.7546771E-02  0.1433687E+00
          2   -1    0    0  502    0  0.00000000000E+00  0.00000000000E+00  0.32242728237E+02  0.32242728237E+02  0.00000000000E+00 0. -1.
         -2   -1    0    0    0  501 -0.00000000000E+00 -0.00000000000E+00 -0.25087709144E+02  0.25087709144E+02  0.00000000000E+00 0.  1.
          1    1    1    2  502    0  0.28116266382E+02 -0.42566860508E+01  0.30711798379E+01  0.28602027148E+02  0.00000000000E+00 0. -1.
         -1    1    1    2    0  501 -0.28116266382E+02  0.42566860508E+01  0.40838392556E+01  0.28728410232E+02  0.00000000000E+00 0.  1.
</event>
<event>
 4    1  0.6888348E+001  0.2544757E+02  0.7546771E-02  0.1463858E+00
          2   -1    0    0  502    0  0.00000000000E+00  0.00000000000E+00  0.17744827735E+03  0.17744827735E+03  0.00000000000E+00 0. -1.
         -2   -1    0    0    0  501 -0.00000000000E+00 -0.00000000000E+00 -0.36969563401E+01  0.36969563401E+01  0.00000000000E+00 0.  1.
          1    1    1    2  502    0  0.86794925622E+01 -0.23921644379E+02  0.76602435088E+02  0.80718719776E+02  0.00000000000E+00 0.  1.
         -1    1    1    2    0  501 -0.86794925622E+01  0.23921644379E+02  0.97148885918E+02  0.10042651391E+03  0.00000000000E+00 0. -1.
</event>
<event>
 4    1  0.6888348E+001  0.2130582E+02  0.7546771E-02  0.1514943E+00
          2   -1    0    0  502    0  0.00000000000E+00  0.00000000000E+00  0.58002021891E+02  0.58002021891E+02  0.00000000000E+00 0.  1.
         -2   -1    0    0    0  501 -0.00000000000E+00 -0.00000000000E+00 -0.81645901344E+01  0.81645901344E+01  0.00000000000E+00 0. -1.
          1    1    1    2  502    0 -0.13935588751E+02  0.16116366969E+02  0.31653488786E+02  0.38156012245E+02  0.00000000000E+00 0. -1.
         -1    1    1    2    0  501  0.13935588751E+02 -0.16116366969E+02  0.18183942970E+02  0.28010599780E+02  0.00000000000E+00 0.  1.
</event>
<event>
 4    1  0.6888348E+001  0.2180055E+02  0.7546771E-02  0.1508135E+00
          2   -1    0    0  502    0  0.00000000000E+00  0.00000000000E+00  0.37842374518E+01  0.37842374518E+01  0.00000000000E+00 0. -1.
         -2   -1    0    0    0  501 -0.00000000000E+00 -0.00000000000E+00 -0.14961823172E+03  0.14961823172E+03  0.00000000000E+00 0.  1.
          1    1    1    2  502    0 -0.15903277206E+02 -0.14911391676E+02 -0.42179567471E+02  0.47480308968E+02  0.00000000000E+00 0. -1.
         -1    1    1    2    0  501  0.15903277206E+02  0.14911391676E+02 -0.10365442679E+03  0.10592216020E+03  0.00000000000E+00 0.  1.
</event>
<event>
 4    1  0.6888348E+001  0.2469095E+02  0.7546771E-02  0.1472291E+00
          2   -1    0    0  502    0  0.00000000000E+00  0.00000000000E+00  0.94390266053E+02  0.94390266053E+02  0.00000000000E+00 0.  1.
         -2   -1    0    0    0  501 -0.00000000000E+00 -0.00000000000E+00 -0.66923763814E+01  0.66923763814E+01  0.00000000000E+00 0. -1.
          1    1    1    2  502    0  0.24627707581E+02  0.17660760098E+01  0.53292131852E+02  0.58734098466E+02  0.00000000000E+00 0.  1.
         -1    1    1    2    0  501 -0.24627707581E+02 -0.17660760098E+01  0.34405757819E+02  0.42348543968E+02  0.00000000000E+00 0. -1.
</event>
<event>
 4    1  0.6888348E+001  0.2015452E+02  0.7546771E-02  0.1531687E+00
          2   -1    0    0  502    0  0.00000000000E+00  0.00000000000E+00  0.45662123116E+02  0.45662123116E+02  0.00000000000E+00 0. -1.
         -2   -1    0    0    0  501 -0.00000000000E+00 -0.00000000000E+00 -0.24767187977E+02  0.24767187977E+02  0.00000000000E+00 0.  1.
          1    1    1    2  502    0 -0.18139557303E+02  0.87841370470E+01  0.38637235686E+02  0.43577982792E+02  0.00000000000E+00 0. -1.
         -1    1    1    2    0  501  0.18139557303E+02 -0.87841370470E+01 -0.17742300547E+02  0.26851328301E+02  0.00000000000E+00 0.  1.
</event>
<event>
 4    1  0.6888348E+001  0.3894041E+02  0.7546771E-02  0.1354809E+00
          2   -1    0    0  502    0  0.00000000000E+00  0.00000000000E+00  0.15208688193E+04  0.15208688193E+04  0.00000000000E+00 0.  1.
         -2   -1    0    0    0  501 -0.00000000000E+00 -0.00000000000E+00 -0.13129764892E+01  0.13129764892E+01  0.00000000000E+00 0. -1.
          1    1    1    2  502    0  0.38813386416E+02 -0.31426710520E+01  0.11331254108E+04  0.11337943164E+04  0.00000000000E+00 0.  1.
         -1    1    1    2    0  501 -0.38813386416E+02  0.31426710520E+01  0.38643043200E+03  0.38838747936E+03  0.00000000000E+00 0. -1.
</event>
<event>
 4    1  0.6888348E+001  0.4123841E+02  0.7546771E-02  0.1341378E+00
          2   -1    0    0  502    0  0.00000000000E+00  0.00000000000E+00  0.13590648957E+04  0.13590648957E+04  0.00000000000E+00 0. -1.
         -2   -1    0    0    0  501 -0.00000000000E+00 -0.00000000000E+00 -0.12779921732E+01  0.12779921732E+01  0.00000000000E+00 0.  1.
          1    1    1    2  502    0  0.38990916288E+02 -0.13428128258E+02  0.77718059465E+03  0.77827391250E+03  0.00000000000E+00 0. -1.
         -1    1    1    2    0  501 -0.38990916288E+02  0.13428128258E+02  0.58060630887E+03  0.58206897537E+03  0.00000000000E+00 0.  1.
</event>
<event>
 4    1  0.6888348E+001  0.2134621E+02  0.7546771E-02  0.1514379E+00
          2   -1    0    0  502    0  0.00000000000E+00  0.00000000000E+00  0.15326905819E+02  0.15326905819E+02  0.00000000000E+00 0. -1.
         -2   -1    0    0    0  501 -0.00000000000E+00 -0.00000000000E+00 -0.29743270955E+02  0.29743270955E+02  0.00000000000E+00 0.  1.
          1    1    1    2  502    0 -0.20972945442E+02 -0.39744375878E+01 -0.67225401914E+01  0.22379748463E+02  0.00000000000E+00 0.  1.
         -1    1    1    2    0  501  0.20972945442E+02  0.39744375878E+01 -0.76938249438E+01  0.22690428311E+02  0.00000000000E+00 0. -1.
</event>
<event>
 4    1  0.6888348E+001  0.3954792E+02  0.7546771E-02  0.1351155E+00
          2   -1    0    0  502    0  0.00000000000E+00  0.00000000000E+00  0.24361718920E+03  0.24361718920E+03  0.00000000000E+00 0. -1.
         -2   -1    0    0    0  501 -0.00000000000E+00 -0.00000000000E+00 -0.92473633973E+01  0.92473633973E+01  0.00000000000E+00 0.  1.
          1    1    1    2  502    0 -0.26351309071E+02 -0.29489774939E+02  0.18709418474E+03  0.19122832499E+03  0.00000000000E+00 0. -1.
         -1    1    1    2    0  501  0.26351309071E+02  0.29489774939E+02  0.47275641068E+02  0.61636227610E+02  0.00000000000E+00 0.  1.
</event>
<event>
 4    1  0.6888348E+001  0.2476243E+02  0.7546771E-02  0.1471479E+00
          2   -1    0    0  502    0  0.00000000000E+00  0.00000000000E+00  0.90347780137E+03  0.90347780137E+03  0.00000000000E+00 0. -1.
         -2   -1    0    0    0  501 -0.00000000000E+00 -0.00000000000E+00 -0.73646046475E+00  0.73646046475E+00  0.00000000000E+00 0.  1.
          1    1    1    2  502    0 -0.24579245063E+02 -0.30064242244E+01  0.57799991728E+03  0.57853010488E+03  0.00000000000E+00 0. -1.
         -1    1    1    2    0  501  0.24579245063E+02  0.30064242244E+01  0.32474142362E+03  0.32568415695E+03  0.00000000000E+00 0.  1.
</event>
<event>
 4    1  0.6888348E+001  0.2811227E+02  0.7546771E-02  0.1436744E+00
          2   -1    0    0  502    0  0.00000000000E+00  0.00000000000E+00  0.19318774217E+04  0.19318774217E+04  0.00000000000E+00 0.  1.
         -2   -1    0    0    0  501 -0.00000000000E+00 -0.00000000000E+00 -0.82198065371E+00  0.82198065371E+00  0.00000000000E+00 0. -1.
          1    1    1    2  502    0 -0.28048782095E+02 -0.18881920581E+01  0.28063209872E+03  0.28203665414E+03  0.00000000000E+00 0. -1.
         -1    1    1    2    0  501  0.28048782095E+02  0.18881920581E+01  0.16504233423E+04  0.16506627482E+04  0.00000000000E+00 0.  1.
</event>
<event>
 4    1  0.6888348E+001  0.2574583E+02  0.7546771E-02  0.1460630E+00
          2   -1    0    0  502    0  0.00000000000E+00  0.00000000000E+00  0.34158611336E+02  0.34158611336E+02  0.00000000000E+00 0. -1.
         -2   -1    0    0    0  501 -0.00000000000E+00 -0.00000000000E+00 -0.21562502281E+02  0.21562502281E+02  0.00000000000E+00 0.  1.
          1    1    1    2  502    0  0.13884167313E+02 -0.21681274330E+02  0.15110899340E+02  0.29852755943E+02  0.00000000000E+00 0.  1.
         -1    1    1    2    0  501 -0.13884167313E+02  0.21681274330E+02 -0.25147902842E+01  0.25868357674E+02  0.00000000000E+00 0. -1.
</event>
<event>
 4    1  0.6888348E+001  0.2125555E+02  0.7546771E-02  0.1515647E+00
          2   -1    0    0  502    0  0.00000000000E+00  0.00000000000E+00  0.45935546820E+03  0.45935546820E+03  0.00000000000E+00 0. -1.
         -2   -1    0    0    0  501 -0.00000000000E+00 -0.00000000000E+00 -0.32146686252E+01  0.32146686252E+01  0.00000000000E+00 0.  1.
          1    1    1    2  502    0  0.83355721376E+01 -0.19552918898E+02  0.35388480756E+02  0.41281266581E+02  0.00000000000E+00 0.  1.
         -1    1    1    2    0  501 -0.83355721376E+01  0.19552918898E+02  0.42075231882E+03  0.42128887025E+03  0.00000000000E+00 0. -1.
</event>
<event>
 4    1  0.6888348E+001  0.2361481E+02  0.7546771E-02  0.1484919E+00
          2   -1    0    0  502    0  0.00000000000E+00  0.00000000000E+00  0.26633834366E+02  0.26633834366E+02  0.00000000000E+00 0.  1.
         -2   -1    0    0    0  501 -0.00000000000E+00 -0.00000000000E+00 -0.20944212608E+02  0.20944212608E+02  0.00000000000E+00 0. -1.
          1    1    1    2  502    0  0.87670515570E+01  0.21927104087E+02  0.32546955526E+01  0.23838039554E+02  0.00000000000E+00 0. -1.
         -1    1    1    2    0  501 -0.87670515570E+01 -0.21927104087E+02  0.24349262058E+01  0.23740007420E+02  0.00000000000E+00 0.  1.
</event>
<event>
 4    1  0.6888348E+001  0.2226294E+02  0.7546771E-02  0.1501967E+00
          2   -1    0    0  502    0  0.00000000000E+00  0.00000000000E+00  0.14868382025E+03  0.14868382025E+03  0.00000000000E+00 0. -1.
         -2   -1    0    0    0  501 -0.00000000000E+00 -0.00000000000E+00 -0.14159896746E+02  0.14159896746E+02  0.00000000000E+00 0.  1.
          1    1    1    2  502    0  0.97884679736E+01  0.19995605783E+02  0.13845750752E+03  0.14023594313E+03  0.00000000000E+00 0. -1.
         -1    1    1    2    0  501 -0.97884679736E+01 -0.19995605783E+02 -0.39335840204E+01  0.22607773865E+02  0.00000000000E+00 0.  1.
</event>
<event>
 4    1  0.6888348E+001  0.2384446E+02  0.7546771E-02  0.1482158E+00
          2   -1    0    0  502    0  0.00000000000E+00  0.00000000000E+00  0.96583509590E+01  0.96583509590E+01  0.00000000000E+00 0. -1.
         -2   -1    0    0    0  501 -0.00000000000E+00 -0.00000000000E+00 -0.62802668619E+02  0.62802668619E+02  0.00000000000E+00 0.  1.
          1    1    1    2  502    0  0.12964492491E+02 -0.20012005390E+02 -0.17502455911E+02  0.29578613696E+02  0.00000000000E+00 0. -1.
         -1    1    1    2    0  501 -0.12964492491E+02  0.20012005390E+02 -0.35641861749E+02  0.42882405881E+02  0.00000000000E+00 0.  1.
</event>
<event>
 4    1  0.6888348E+001  0.2107405E+02  0.7546771E-02  0.1518210E+00
          2   -1    0    0  502    0  0.00000000000E+00  0.00000000000E+00  0.15300296428E+03  0.15300296428E+03  0.00000000000E+00 0. -1.
         -2   -1    0    0    0  501 -0.00000000000E+00 -0.00000000000E+00 -0.29183201964E+01  0.29183201964E+01  0.00000000000E+00 0.  1.
          1    1    1    2  502    0 -0.69552655087E+01  0.19893214315E+02  0.80753130436E+02  0.83457676515E+02  0.00000000000E+00 0. -1.
         -1    1    1    2    0  501  0.69552655087E+01 -0.19893214315E+02  0.69331513646E+02  0.72463607960E+02  0.00000000000E+00 0.  1.
</event>
<event>
 4    1  0.6888348E+001  0.2140826E+02  0.7546771E-02  0.1513515E+00
          2   -1    0    0  502    0  0.00000000000E+00  0.00000000000E+00  0.38060966423E+03  0.38060966423E+03  0.00000000000E+00 0. -1.
         -2   -1    0    0    0  501 -0.00000000000E+00 -0.00000000000E+00 -0.25816974841E+01  0.25816974841E+01  0.00000000000E+00 0.  1.
          1    1    1    2  502    0  0.12811524533E+02  0.17151632067E+02  0.49059992995E+02  0.53527530824E+02  0.00000000000E+00 0.  1.
         -1    1    1    2    0  501 -0.12811524533E+02 -0.17151632067E+02  0.32896797376E+03  0.32966383089E+03  0.00000000000E+00 0. -1.
</event>
<event>
 4    1  0.6888348E+001  0.2595790E+02  0.7546771E-02  0.1458367E+00
          2   -1    0    0  502    0  0.00000000000E+00  0.00000000000E+00  0.33799075498E+03  0.33799075498E+03  0.00000000000E+00 0.  1.
         -2   -1    0    0    0  501 -0.00000000000E+00 -0.00000000000E+00 -0.29099156820E+01  0.29099156820E+01  0.00000000000E+00 0. -1.
          1    1    1    2  502    0  0.23717904813E+02 -0.10548638433E+02  0.71890604570E+02  0.76433446913E+02  0.00000000000E+00 0. -1.
         -1    1    1    2    0  501 -0.23717904813E+02  0.10548638433E+02  0.26319023472E+03  0.26446722375E+03  0.00000000000E+00 0.  1.
</event>
<event>
 4    1  0.6888348E+001  0.2855276E+02  0.7546771E-02  0.1432604E+00
          2   -1    0    0  502    0  0.00000000000E+00  0.00000000000E+00  0.13261312573E+02  0.13261312573E+02  0.00000000000E+00 0. -1.
         -2   -1    0    0    0  501 -0.00000000000E+00 -0.00000000000E+00 -0.61828097191E+02  0.61828097191E+02  0.00000000000E+00 0.  1.
          1    1    1    2  502    0 -0.14579412555E+02  0.24549964273E+02 -0.27114360288E+02  0.39375735550E+02  0.00000000000E+00 0.  1.
         -1    1    1    2    0  501  0.14579412555E+02 -0.24549964273E+02 -0.21452424330E+02  0.35713674214E+02  0.00000000000E+00 0. -1.
</event>
