<event>
 4    1  0.5792100E+003  0.2572268E+02  0.7546771E-02  0.1460879E+00
          2   -1    0    0  501    0  0.00000000000E+00  0.00000000000E+00  0.10871446836E+03  0.10871446836E+03  0.00000000000E+00 0. -1.
         -2   -1    0    0    0  501 -0.00000000000E+00 -0.00000000000E+00 -0.33628513941E+02  0.33628513941E+02  0.00000000000E+00 0. -1.
          2    1    1    2  502    0 -0.14291536490E+02 -0.21387103263E+02  0.10195286898E+03  0.10514772321E+03  0.00000000000E+00 0. -1.
         -2    1    1    2    0  502  0.14291536490E+02  0.21387103263E+02 -0.26866914563E+02  0.37195259098E+02  0.00000000000E+00 0. -1.
</event>
<event>
 4    1  0.5792100E+003  0.2221141E+02  0.7546771E-02  0.1502645E+00
          2   -1    0    0  501    0  0.00000000000E+00  0.00000000000E+00  0.63759089475E+03  0.63759089475E+03  0.00000000000E+00 0.  1.
         -2   -1    0    0    0  501 -0.00000000000E+00 -0.00000000000E+00 -0.13542457765E+01  0.13542457765E+01  0.00000000000E+00 0. -1.
          2    1    1    2  502    0 -0.11736792995E+02  0.18857210240E+02  0.52727805131E+03  0.52774566799E+03  0.00000000000E+00 0.  1.
         -2    1    1    2    0  502  0.11736792995E+02 -0.18857210240E+02  0.10895859767E+03  0.11119947254E+03  0.00000000000E+00 0. -1.
</event>
<event>
 4    1  0.5792100E+003  0.6155081E+02  0.7546771E-02  0.1254653E+00
          2   -1    0    0  501    0  0.00000000000E+00  0.00000000000E+00  0.13035693856E+04  0.13035693856E+04  0.00000000000E+00 0. -1.
         -2   -1    0    0    0  501 -0.00000000000E+00 -0.00000000000E+00 -0.42384249908E+01  0.42384249908E+01  0.00000000000E+00 0. -1.
          2    1    1    2  502    0  0.16369078091E+02 -0.59334270021E+02  0.10162649603E+04  0.10181271884E+04  0.00000000000E+00 0. -1.
         -2    1    1    2    0  502 -0.16369078091E+02  0.59334270021E+02  0.28306600036E+03  0.28968062219E+03  0.00000000000E+00 0. -1.
</event>
<event>
 4    1  0.5792100E+003  0.2506377E+02  0.7546771E-02  0.1468091E+00
          2   -1    0    0  501    0  0.00000000000E+00  0.00000000000E+00  0.15458276775E+04  0.15458276775E+04  0.00000000000E+00 0.  1.
         -2   -1    0    0    0  501 -0.00000000000E+00 -0.00000000000E+00 -0.53115421748E+01  0.53115421748E+01  0.00000000000E+00 0. -1.
          2    1    1    2  502    0  0.19065173509E+02  0.16269958555E+02  0.15155684683E+04  0.15157757006E+04  0.00000000000E+00 0.  1.
         -2    1    1    2    0  502 -0.19065173509E+02 -0.16269958555E+02  0.24947667037E+02  0.35363519097E+02  0.00000000000E+00 0. -1.
</event>
<event>
 4    1  0.5792100E+003  0.2446867E+02  0.7546771E-02  0.1474836E+00
          2   -1    0    0  501    0  0.00000000000E+00  0.00000000000E+00  0.16476711249E+03  0.16476711249E+03  0.00000000000E+00 0. -1.
         -2   -1    0    0    0  501 -0.00000000000E+00 -0.00000000000E+00 -0.14219092095E+02  0.14219092095E+02  0.00000000000E+00 0.  1.
          2    1    1    2  502    0 -0.58071953289E+01 -0.23769565554E+02  0.15248994201E+03  0.15444059757E+03  0.00000000000E+00 0. -1.
         -2    1    1    2    0  502  0.58071953289E+01  0.23769565554E+02 -0.19419216128E+01  0.24545607016E+02  0.00000000000E+00 0.  1.
</event>
<event>
 4    1  0.5792100E+003  0.2300901E+02  0.7546771E-02  0.1492385E+00
          2   -1    0    0  501    0  0.00000000000E+00  0.00000000000E+00  0.19117514236E+04  0.19117514236E+04  0.00000000000E+00 0. -1.
         -2   -1    0    0    0  501 -0.00000000000E+00 -0.00000000000E+00 -0.28670929853E+00  0.28670929853E+00  0.00000000000E+00 0. -1.
          2    1    1    2  502    0 -0.23002132226E+02  0.56220851192E+00  0.77913564186E+03  0.77947531237E+03  0.00000000000E+00 0. -1.
         -2    1    1    2    0  502  0.23002132226E+02 -0.56220851192E+00  0.11323290724E+04  0.11325628205E+04  0.00000000000E+00 0. -1.
</event>
<event>
 4    1  0.5792100E+003  0.3699383E+02  0.7546771E-02  0.1367063E+00
          2   -1    0    0  501    0  0.00000000000E+00  0.00000000000E+00  0.34296721814E+03  0.34296721814E+03  0.00000000000E+00 0. -1.
         -2   -1    0    0    0  501 -0.00000000000E+00 -0.00000000000E+00 -0.51356435055E+02  0.51356435055E+02  0.00000000000E+00 0.  1.
          2    1    1    2  502    0  0.36992539306E+02 -0.30875378886E+00  0.33515279623E+03  0.33718828584E+03  0.00000000000E+00 0. -1.
         -2    1    1    2    0  502 -0.36992539306E+02  0.30875378886E+00 -0.43542013144E+02  0.57135367346E+02  0.00000000000E+00 0.  1.
</event>
<event>
 4    1  0.6096625E+003  0.2846919E+02  0.7546771E-02  0.1433383E+00
          2   -1    0    0  501    0  0.00000000000E+00  0.00000000000E+00  0.11884262354E+04  0.11884262354E+04  0.00000000000E+00 0.  1.
         -2   -1    0    0    0  501 -0.00000000000E+00 -0.00000000000E+00 -0.11461090950E+03  0.11461090950E+03  0.00000000000E+00 0.  1.
          2    1    1    2  502    0  0.12090420333E+02  0.25774341107E+02  0.11864849186E+04  0.11868264224E+04  0.00000000000E+00 0.  1.
         -2    1    1    2    0  502 -0.12090420333E+02 -0.25774341107E+02 -0.11266959265E+03  0.11621072253E+03  0.00000000000E+00 0.  1.
</event>
<event>
 4    1  0.5792100E+003  0.3558409E+02  0.7546771E-02  0.1376503E+00
          2   -1    0    0  501    0  0.00000000000E+00  0.00000000000E+00  0.23862165987E+03  0.23862165987E+03  0.00000000000E+00 0. -1.
         -2   -1    0    0    0  501 -0.00000000000E+00 -0.00000000000E+00 -0.21366694619E+02  0.21366694619E+02  0.00000000000E+00 0.  1.
          2    1    1    2  502    0 -0.61832741704E+01  0.35042757097E+02  0.22132949157E+03  0.22417174564E+03  0.00000000000E+00 0. -1.
         -2    1    1    2    0  502  0.61832741704E+01 -0.35042757097E+02 -0.40745263225E+01  0.35816608846E+02  0.00000000000E+00 0.  1.
</event>
<event>
 4    1  0.5792100E+003  0.2029329E+02  0.7546771E-02  0.1529598E+00
          2   -1    0    0  501    0  0.00000000000E+00  0.00000000000E+00  0.29912549232E+03  0.29912549232E+03  0.00000000000E+00 0.  1.
         -2   -1    0    0    0  501 -0.00000000000E+00 -0.00000000000E+00 -0.13903044024E+01  0.13903044024E+01  0.00000000000E+00 0.  1.
          2    1    1    2  502    0  0.13346826045E+01  0.20249341810E+02  0.13402444724E+03  0.13555209213E+03  0.00000000000E+00 0.  1.
         -2    1    1    2    0  502 -0.13346826045E+01 -0.20249341810E+02  0.16371074068E+03  0.16496370460E+03  0.00000000000E+00 0.  1.
</event>
<event>
 4    1  0.5792100E+003  0.2478443E+02  0.7546771E-02  0.1471229E+00
          2   -1    0    0  501    0  0.00000000000E+00  0.00000000000E+00  0.39963597965E+02  0.39963597965E+02  0.00000000000E+00 0.  1.
         -2   -1    0    0    0  501 -0.00000000000E+00 -0.00000000000E+00 -0.35307303381E+03  0.35307303381E+03  0.00000000000E+00 0.  1.
          2    1    1    2  502    0 -0.93009525610E+01  0.22973038333E+02  0.35638383176E+02  0.43409245147E+02  0.00000000000E+00 0.  1.
         -2    1    1    2    0  502  0.93009525610E+01 -0.22973038333E+02 -0.34874781902E+03  0.34962738663E+03  0.00000000000E+00 0.  1.
</event>
<event>
 4    1  0.5792100E+003  0.2608897E+02  0.7546771E-02  0.1456981E+00
          2   -1    0    0  501    0  0.00000000000E+00  0.00000000000E+00  0.14395622613E+04  0.14395622613E+04  0.00000000000E+00 0. -1.
         -2   -1    0    0    0  501 -0.00000000000E+00 -0.00000000000E+00 -0.56200986965E+02  0.56200986965E+02  0.00000000000E+00 0.  1.
          2    1    1    2  502    0 -0.80705876424E+01  0.24809269200E+02  0.14364097362E+04  0.14366466387E+04  0.00000000000E+00 0. -1.
         -2    1    1    2    0  502  0.80705876424E+01 -0.24809269200E+02 -0.53048461855E+02  0.59116609581E+02  0.00000000000E+00 0.  1.
</event>
<event>
 4    1  0.5792100E+003  0.2023056E+02  0.7546771E-02  0.1530540E+00
          2   -1    0    0  501    0  0.00000000000E+00  0.00000000000E+00  0.18728968182E+03  0.18728968182E+03  0.00000000000E+00 0.  1.
         -2   -1    0    0    0  501 -0.00000000000E+00 -0.00000000000E+00 -0.48230557778E+01  0.48230557778E+01  0.00000000000E+00 0. -1.
          2    1    1    2  502    0 -0.18427236472E+02 -0.83493981323E+01  0.16227055894E+03  0.16352678616E+03  0.00000000000E+00 0.  1.
         -2    1    1    2    0  502  0.18427236472E+02  0.83493981323E+01  0.20196067102E+02  0.28585951437E+02  0.00000000000E+00 0. -1.
</event>
<event>
 4    1  0.5792100E+003  0.2806927E+02  0.7546771E-02  0.1437153E+00
          2   -1    0    0  501    0  0.00000000000E+00  0.00000000000E+00  0.19114754622E+04  0.19114754622E+04  0.00000000000E+00 0. -1.
         -2   -1    0    0    0  501 -0.00000000000E+00 -0.00000000000E+00 -0.33977674388E+02  0.33977674388E+02  0.00000000000E+00 0.  1.
          2    1    1    2  502    0  0.18353958567E+02  0.21237135844E+02  0.19055573433E+04  0.19057640652E+04  0.00000000000E+00 0. -1.
         -2    1    1    2    0  502 -0.18353958567E+02 -0.21237135844E+02 -0.28059555464E+02  0.39689071377E+02  0.00000000000E+00 0.  1.
</event>
<event>
 4    1  0.5792100E+003  0.2002255E+02  0.7546771E-02  0.1533691E+00
          2   -1    0    0  501    0  0.00000000000E+00  0.00000000000E+00  0.10216009184E+03  0.10216009184E+03  0.00000000000E+00 0. -1.
         -2   -1    0    0    0  501 -0.00000000000E+00 -0.00000000000E+00 -0.72732816620E+01  0.72732816620E+01  0.00000000000E+00 0. -1.
          2    1    1    2  502    0  0.20021607868E+02  0.19424607720E+00  0.84572445475E+02  0.86910304607E+02  0.00000000000E+00 0. -1.
         -2    1    1    2    0  502 -0.20021607868E+02 -0.19424607720E+00  0.10314364699E+02  0.22523068892E+02  0.00000000000E+00 0. -1.
</event>
<event>
 4    1  0.5792100E+003  0.2638097E+02  0.7546771E-02  0.1453927E+00
          2   -1    0    0  501    0  0.00000000000E+00  0.00000000000E+00  0.13388374737E+03  0.13388374737E+03  0.00000000000E+00 0.  1.
         -2   -1    0    0    0  501 -0.00000000000E+00 -0.00000000000E+00 -0.82376061836E+02  0.82376061836E+02  0.00000000000E+00 0. -1.
          2    1    1    2  502    0 -0.17602521193E+02  0.19649597730E+02  0.13041647631E+03  0.13305793000E+03  0.00000000000E+00 0.  1.
         -2    1    1    2    0  502  0.17602521193E+02 -0.19649597730E+02 -0.78908790770E+02  0.83201879210E+02  0.00000000000E+00 0. -1.
</event>
<event>
 4    1  0.5792100E+003  0.2606552E+02  0.7546771E-02  0.1457228E+00
          2   -1    0    0  501    0  0.00000000000E+00  0.00000000000E+00  0.23456782424E+03  0.23456782424E+03  0.00000000000E+00 0. -1.
         -2   -1    0    0    0  501 -0.00000000000E+00 -0.00000000000E+00 -0.29229318517E+01  0.29229318517E+01  0.00000000000E+00 0. -1.
          2    1    1    2  502    0 -0.23849704895E+02 -0.10516791648E+02  0.12712753464E+03  0.12977219037E+03  0.00000000000E+00 0. -1.
         -2    1    1    2    0  502  0.23849704895E+02  0.10516791648E+02  0.10451735775E+03  0.10771856573E+03  0.00000000000E+00 0. -1.
</event>
<event>
 4    1  0.5792100E+003  0.3371745E+02  0.7546771E-02  0.1389811E+00
          2   -1    0    0  501    0  0.00000000000E+00  0.00000000000E+00  0.33923822618E+03  0.33923822618E+03  0.00000000000E+00 0. -1.
         -2   -1    0    0    0  501 -0.00000000000E+00 -0.00000000000E+00 -0.37676980329E+02  0.37676980329E+02  0.00000000000E+00 0.  1.
          2    1    1    2  502    0  0.49802933453E+01 -0.33347606854E+02  0.33066175932E+03  0.33237639098E+03  0.00000000000E+00 0. -1.
         -2    1    1    2    0  502 -0.49802933453E+01  0.33347606854E+02 -0.29100513468E+02  0.44538815530E+02  0.00000000000E+00 0.  1.
</event>
<event>
 4    1  0.5792100E+003  0.6787329E+02  0.7546771E-02  0.1235198E+00
          2   -1    0    0  501    0  0.00000000000E+00  0.00000000000E+00  0.16801586256E+04  0.16801586256E+04  0.00000000000E+00 0.  1.
         -2   -1    0    0    0  501 -0.00000000000E+00 -0.00000000000E+00 -0.30505927919E+02  0.30505927919E+02  0.00000000000E+00 0.  1.
          2    1    1    2  502    0 -0.53841348593E+02 -0.41326653944E+02  0.16408151173E+04  0.16422183267E+04  0.00000000000E+00 0.  1.
         -2    1    1    2    0  502  0.53841348593E+02  0.41326653944E+02  0.88375803441E+01  0.68446226856E+02  0.00000000000E+00 0.  1.
</event>
<event>
 4    1  0.5792100E+003  0.2438099E+02  0.7546771E-02  0.1475849E+00
          2   -1    0    0  501    0  0.00000000000E+00  0.00000000000E+00  0.89611261550E+02  0.89611261550E+02  0.00000000000E+00 0. -1.
         -2   -1    0    0    0  501 -0.00000000000E+00 -0.00000000000E+00 -0.12122291675E+04  0.12122291675E+04  0.00000000000E+00 0. -1.
          2    1    1    2  502    0 -0.39868413699E+01 -0.24052814712E+02  0.87827862389E+02  0.91149142681E+02  0.00000000000E+00 0. -1.
         -2    1    1    2    0  502  0.39868413699E+01  0.24052814712E+02 -0.12104457683E+04  0.12106912864E+04  0.00000000000E+00 0. -1.
</event>
<event>
 4    1  0.5792100E+003  0.2352952E+02  0.7546771E-02  0.1485954E+00
          2   -1    0    0  501    0  0.00000000000E+00  0.00000000000E+00  0.11688767588E+02  0.11688767588E+02  0.00000000000E+00 0.  1.
         -2   -1    0    0    0  501 -0.00000000000E+00 -0.00000000000E+00 -0.91814295121E+02  0.91814295121E+02  0.00000000000E+00 0. -1.
          2    1    1    2  502    0 -0.29321322027E+01 -0.23346107770E+02 -0.40546286135E+01  0.23876309607E+02  0.00000000000E+00 0.  1.
         -2    1    1    2    0  502  0.29321322027E+01  0.23346107770E+02 -0.76070898919E+02  0.79626753102E+02  0.00000000000E+00 0. -1.
</event>
<event>
 4    1  0.5792100E+003  0.2168008E+02  0.7546771E-02  0.1509773E+00
          2   -1    0    0  501    0  0.00000000000E+00  0.00000000000E+00  0.14883600767E+04  0.14883600767E+04  0.00000000000E+00 0.  1.
         -2   -1    0    0    0  501 -0.00000000000E+00 -0.00000000000E+00 -0.35257530443E+00  0.35257530443E+00  0.00000000000E+00 0.  1.
          2    1    1    2  502    0 -0.21350478414E+02  0.37659771417E+01  0.50360759274E+03  0.50407403521E+03  0.00000000000E+00 0.  1.
         -2    1    1    2    0  502  0.21350478414E+02 -0.37659771417E+01  0.98439990870E+03  0.98463861683E+03  0.00000000000E+00 0.  1.
</event>
<event>
 4    1  0.5792100E+003  0.2115056E+02  0.7546771E-02  0.1517126E+00
          2   -1    0    0  501    0  0.00000000000E+00  0.00000000000E+00  0.30515284670E+01  0.30515284670E+01  0.00000000000E+00 0.  1.
         -2   -1    0    0    0  501 -0.00000000000E+00 -0.00000000000E+00 -0.60961774288E+03  0.60961774288E+03  0.00000000000E+00 0. -1.
          2    1    1    2  502    0  0.94425566470E+01 -0.18925754749E+02 -0.36310101721E+02  0.42021060861E+02  0.00000000000E+00 0.  1.
         -2    1    1    2    0  502 -0.94425566470E+01  0.18925754749E+02 -0.57025611269E+03  0.57064821048E+03  0.00000000000E+00 0. -1.
</event>
<event>
 4    1  0.5792100E+003  0.2525778E+02  0.7546771E-02  0.1465940E+00
          2   -1    0    0  501    0  0.00000000000E+00  0.00000000000E+00  0.97433548004E+02  0.97433548004E+02  0.00000000000E+00 0. -1.
         -2   -1    0    0    0  501 -0.00000000000E+00 -0.00000000000E+00 -0.12966990408E+03  0.12966990408E+03  0.00000000000E+00 0.  1.
          2    1    1    2  502    0 -0.35853331023E+01 -0.25002018846E+02  0.94529554502E+02  0.97845757364E+02  0.00000000000E+00 0. -1.
         -2    1    1    2    0  502  0.35853331023E+01  0.25002018846E+02 -0.12676591058E+03  0.12925769472E+03  0.00000000000E+00 0.  1.
</event>
<event>
 4    1  0.5792100E+003  0.2156694E+02  0.7546771E-02  0.1511322E+00
          2   -1    0    0  501    0  0.00000000000E+00  0.00000000000E+00  0.13766780287E+03  0.13766780287E+03  0.00000000000E+00 0. -1.
         -2   -1    0    0    0  501 -0.00000000000E+00 -0.00000000000E+00 -0.67556214066E+02  0.67556214066E+02  0.00000000000E+00 0.  1.
          2    1    1    2  502    0  0.21214519453E+02  0.38829466233E+01  0.13506894470E+03  0.13677994346E+03  0.00000000000E+00 0. -1.
         -2    1    1    2    0  502 -0.21214519453E+02 -0.38829466233E+01 -0.64957355893E+02  0.68444073481E+02  0.00000000000E+00 0.  1.
</event>
<event>
 4    1  0.5792100E+003  0.4618280E+02  0.7546771E-02  0.1315629E+00
          2   -1    0    0  501    0  0.00000000000E+00  0.00000000000E+00  0.43908751842E+03  0.43908751842E+03  0.00000000000E+00 0. -1.
         -2   -1    0    0    0  501 -0.00000000000E+00 -0.00000000000E+00 -0.98317261035E+01  0.98317261035E+01  0.00000000000E+00 0.  1.
          2    1    1    2  502    0  0.46182782189E+02  0.45526238450E-01  0.37428480318E+03  0.37712327604E+03  0.00000000000E+00 0. -1.
         -2    1    1    2    0  502 -0.46182782189E+02 -0.45526238450E-01  0.54970989142E+02  0.71795968484E+02  0.00000000000E+00 0.  1.
</event>
<event>
 4    1  0.5792100E+003  0.2286806E+02  0.7546771E-02  0.1494162E+00
          2   -1    0    0  501    0  0.00000000000E+00  0.00000000000E+00  0.95697991216E+03  0.95697991216E+03  0.00000000000E+00 0.  1.
         -2   -1    0    0    0  501 -0.00000000000E+00 -0.00000000000E+00 -0.95369803902E+00  0.95369803902E+00  0.00000000000E+00 0.  1.
          2    1    1    2  502    0 -0.22605751578E+02 -0.34537465369E+01  0.79099970425E+03  0.79133019688E+03  0.00000000000E+00 0.  1.
         -2    1    1    2    0  502  0.22605751578E+02  0.34537465369E+01  0.16502650987E+03  0.16660341332E+03  0.00000000000E+00 0.  1.
</event>
<event>
 4    1  0.5792100E+003  0.2253754E+02  0.7546771E-02  0.1498388E+00
          2   -1    0    0  501    0  0.00000000000E+00  0.00000000000E+00  0.63240453260E+03  0.63240453260E+03  0.00000000000E+00 0. -1.
         -2   -1    0    0    0  501 -0.00000000000E+00 -0.00000000000E+00 -0.48039065837E+01  0.48039065837E+01  0.00000000000E+00 0. -1.
          2    1    1    2  502    0  0.86688098052E+01 -0.20803662962E+02  0.60455261973E+03  0.60497257019E+03  0.00000000000E+00 0. -1.
         -2    1    1    2    0  502 -0.86688098052E+01  0.20803662962E+02  0.23048006280E+02  0.32235868991E+02  0.00000000000E+00 0. -1.
</event>
<event>
 4    1  0.5792100E+003  0.2193217E+02  0.7546771E-02  0.1506361E+00
          2   -1    0    0  501    0  0.00000000000E+00  0.00000000000E+00  0.29239519142E+03  0.29239519142E+03  0.00000000000E+00 0. -1.
         -2   -1    0    0    0  501 -0.00000000000E+00 -0.00000000000E+00 -0.94293178207E+01  0.94293178207E+01  0.00000000000E+00 0.  1.
          2    1    1    2  502    0 -0.10538825960E+02 -0.19234164296E+02  0.27860009484E+03  0.27946204174E+03  0.00000000000E+00 0. -1.
         -2    1    1    2    0  502  0.10538825960E+02  0.19234164296E+02  0.43657787658E+01  0.22362467507E+02  0.00000000000E+00 0.  1.
</event>
<event>
 4    1  0.5792100E+003  0.2262080E+02  0.7546771E-02  0.1497315E+00
          2   -1    0    0  501    0  0.00000000000E+00  0.00000000000E+00  0.15819675954E+03  0.15819675954E+03  0.00000000000E+00 0. -1.
         -2   -1    0    0    0  501 -0.00000000000E+00 -0.00000000000E+00 -0.16046881766E+02  0.16046881766E+02  0.00000000000E+00 0.  1.
          2    1    1    2  502    0 -0.13086339911E+02  0.18451242557E+02  0.14892252216E+03  0.15063073475E+03  0.00000000000E+00 0. -1.
         -2    1    1    2    0  502  0.13086339911E+02 -0.18451242557E+02 -0.67726443854E+01  0.23612906558E+02  0.00000000000E+00 0.  1.
</event>
<event>
 4    1  0.5792100E+003  0.2733015E+02  0.7546771E-02  0.1444320E+00
          2   -1    0    0  501    0  0.00000000000E+00  0.00000000000E+00  0.11564767383E+04  0.11564767383E+04  0.00000000000E+00 0. -1.
         -2   -1    0    0    0  501 -0.00000000000E+00 -0.00000000000E+00 -0.57173373028E+01  0.57173373028E+01  0.00000000000E+00 0.  1.
          2    1    1    2  502    0  0.22413390316E+02 -0.15638961394E+02  0.11226708660E+04  0.11230034775E+04  0.00000000000E+00 0. -1.
         -2    1    1    2    0  502 -0.22413390316E+02  0.15638961394E+02  0.28088534993E+02  0.39190598069E+02  0.00000000000E+00 0.  1.
</event>
<event>
 4    1  0.5792100E+003  0.3192466E+02  0.7546771E-02  0.1403577E+00
          2   -1    0    0  501    0  0.00000000000E+00  0.00000000000E+00  0.36061568977E+01  0.36061568977E+01  0.00000000000E+00 0.  1.
         -2   -1    0    0    0  501 -0.00000000000E+00 -0.00000000000E+00 -0.28362254274E+03  0.28362254274E+03  0.00000000000E+00 0. -1.
          2    1    1    2  502    0  0.27463281755E+02 -0.16277310894E+02 -0.14853407583E+03  0.15192614777E+03  0.00000000000E+00 0.  1.
         -2    1    1    2    0  502 -0.27463281755E+02  0.16277310894E+02 -0.13148231001E+03  0.13530255186E+03  0.00000000000E+00 0. -1.
</event>
<event>
 4    1  0.5792100E+003  0.2123591E+02  0.7546771E-02  0.1515923E+00
          2   -1    0    0  501    0  0.00000000000E+00  0.00000000000E+00  0.29834306255E+02  0.29834306255E+02  0.00000000000E+00 0.  1.
         -2   -1    0    0    0  501 -0.00000000000E+00 -0.00000000000E+00 -0.83212739917E+02  0.83212739917E+02  0.00000000000E+00 0. -1.
          2    1    1    2  502    0  0.21234732972E+02 -0.22340084726E+00  0.24443481389E+02  0.32379740189E+02  0.00000000000E+00 0.  1.
         -2    1    1    2    0  502 -0.21234732972E+02  0.22340084726E+00 -0.77821915051E+02  0.80667305982E+02  0.00000000000E+00 0. -1.
</event>
<event>
 4    1  0.5792100E+003  0.2557428E+02  0.7546771E-02  0.1462480E+00
          2   -1    0    0  501    0  0.00000000000E+00  0.00000000000E+00  0.32711698510E+02  0.32711698510E+02  0.00000000000E+00 0. -1.
         -2   -1    0    0    0  501 -0.00000000000E+00 -0.00000000000E+00 -0.11559004351E+03  0.11559004351E+03  0.00000000000E+00 0. -1.
          2    1    1    2  502    0 -0.25419993245E+01  0.25447635334E+02  0.25994307321E+02  0.36465708793E+02  0.00000000000E+00 0. -1.
         -2    1    1    2    0  502  0.25419993245E+01 -0.25447635334E+02 -0.10887265232E+03  0.11183603323E+03  0.00000000000E+00 0. -1.
</event>
<event>
 4    1  0.5792100E+003  0.2172104E+02  0.7546771E-02  0.1509214E+00
          2   -1    0    0  501    0  0.00000000000E+00  0.00000000000E+00  0.76086652285E+02  0.76086652285E+02  0.00000000000E+00 0.  1.
         -2   -1    0    0    0  501 -0.00000000000E+00 -0.00000000000E+00 -0.16519267982E+03  0.16519267982E+03  0.00000000000E+00 0.  1.
          2    1    1    2  502    0  0.13949649361E+01  0.21676204017E+02  0.73800756692E+02  0.76930848403E+02  0.00000000000E+00 0.  1.
         -2    1    1    2    0  502 -0.13949649361E+01 -0.21676204017E+02 -0.16290678423E+03  0.16434848370E+03  0.00000000000E+00 0.  1.
</event>
<event>
 4    1  0.5792100E+003  0.2065641E+02  0.7546771E-02  0.1524227E+00
          2   -1    0    0  501    0  0.00000000000E+00  0.00000000000E+00  0.46743779035E+03  0.46743779035E+03  0.00000000000E+00 0.  1.
         -2   -1    0    0    0  501 -0.00000000000E+00 -0.00000000000E+00 -0.92802282617E+00  0.92802282617E+00  0.00000000000E+00 0. -1.
          2    1    1    2  502    0 -0.17887056770E+02  0.10331524593E+02  0.26322708064E+03  0.26403632929E+03  0.00000000000E+00 0.  1.
         -2    1    1    2    0  502  0.17887056770E+02 -0.10331524593E+02  0.20328268689E+03  0.20432948389E+03  0.00000000000E+00 0. -1.
</event>
<event>
 4    1  0.5792100E+003  0.4056819E+02  0.7546771E-02  0.1345188E+00
          2   -1    0    0  501    0  0.00000000000E+00  0.00000000000E+00  0.17176597455E+04  0.17176597455E+04  0.00000000000E+00 0. -1.
         -2   -1    0    0    0  501 -0.00000000000E+00 -0.00000000000E+00 -0.54848820358E+01  0.54848820358E+01  0.00000000000E+00 0.  1.
          2    1    1    2  502    0  0.85811203197E+00 -0.40559113163E+02  0.16387965932E+04  0.16392986463E+04  0.00000000000E+00 0. -1.
         -2    1    1    2    0  502 -0.85811203197E+00  0.40559113163E+02  0.73378270339E+02  0.83845981268E+02  0.00000000000E+00 0.  1.
</event>
<event>
 4    1  0.5792100E+003  0.2034238E+02  0.7546771E-02  0.1528865E+00
          2   -1    0    0  501    0  0.00000000000E+00  0.00000000000E+00  0.85590044644E+00  0.85590044644E+00  0.00000000000E+00 0.  1.
         -2   -1    0    0    0  501 -0.00000000000E+00 -0.00000000000E+00 -0.48900456225E+03  0.48900456225E+03  0.00000000000E+00 0.  1.
          2    1    1    2  502    0  0.91760828353E+01  0.18155206785E+02 -0.27010444081E+03  0.27086937991E+03  0.00000000000E+00 0.  1.
         -2    1    1    2    0  502 -0.91760828353E+01 -0.18155206785E+02 -0.21804422099E+03  0.21899108278E+03  0.00000000000E+00 0.  1.
</event>
<event>
 4    1  0.5792100E+003  0.2486067E+02  0.7546771E-02  0.1470368E+00
          2   -1    0    0  501    0  0.00000000000E+00  0.00000000000E+00  0.19032110555E+01  0.19032110555E+01  0.00000000000E+00 0.  1.
         -2   -1    0    0    0  501 -0.00000000000E+00 -0.00000000000E+00 -0.11770238028E+04  0.11770238028E+04  0.00000000000E+00 0. -1.
          2    1    1    2  502    0  0.23794363306E+02 -0.72028717266E+01 -0.85962246619E+02  0.89484976002E+02  0.00000000000E+00 0.  1.
         -2    1    1    2    0  502 -0.23794363306E+02  0.72028717266E+01 -0.10891583451E+04  0.10894420379E+04  0.00000000000E+00 0. -1.
</event>
<event>
 4    1  0.5792100E+003  0.2120714E+02  0.7546771E-02  0.1516328E+00
          2   -1    0    0  501    0  0.00000000000E+00  0.00000000000E+00  0.23813726201E+02  0.23813726201E+02  0.00000000000E+00 0.  1.
         -2   -1    0    0    0  501 -0.00000000000E+00 -0.00000000000E+00 -0.49101958250E+02  0.49101958250E+02  0.00000000000E+00 0.  1.
          2    1    1    2  502    0  0.14553731258E+02  0.15425029793E+02  0.15955537074E+02  0.26539061795E+02  0.00000000000E+00 0.  1.
         -2    1    1    2    0  502 -0.14553731258E+02 -0.15425029793E+02 -0.41243769123E+02  0.46376622657E+02  0.00000000000E+00 0.  1.
</event>
<event>
 4    1  0.5792100E+003  0.3060526E+02  0.7546771E-02  0.1414408E+00
          2   -1    0    0  501    0  0.00000000000E+00  0.00000000000E+00  0.68038218809E+03  0.68038218809E+03  0.00000000000E+00 0.  1.
         -2   -1    0    0    0  501 -0.00000000000E+00 -0.00000000000E+00 -0.22067314290E+01  0.22067314290E+01  0.00000000000E+00 0.  1.
          2    1    1    2  502    0  0.14277161950E+02 -0.27071081779E+02  0.12977179880E+03  0.13333191886E+03  0.00000000000E+00 0.  1.
         -2    1    1    2    0  502 -0.14277161950E+02  0.27071081779E+02  0.54840365786E+03  0.54925700066E+03  0.00000000000E+00 0.  1.
</event>
<event>
 4    1  0.5792100E+003  0.4346108E+02  0.7546771E-02  0.1329316E+00
          2   -1    0    0  501    0  0.00000000000E+00  0.00000000000E+00  0.18019275390E+04  0.18019275390E+04  0.00000000000E+00 0.  1.
         -2   -1    0    0    0  501 -0.00000000000E+00 -0.00000000000E+00 -0.48823717513E+02  0.48823717513E+02  0.00000000000E+00 0. -1.
          2    1    1    2  502    0  0.22928585540E+02  0.36920800279E+02  0.17919397120E+04  0.17924666795E+04  0.00000000000E+00 0.  1.
         -2    1    1    2    0  502 -0.22928585540E+02 -0.36920800279E+02 -0.38835890525E+02  0.58284577042E+02  0.00000000000E+00 0. -1.
</event>
<event>
 4    1  0.5792100E+003  0.3496638E+02  0.7546771E-02  0.1380800E+00
          2   -1    0    0  501    0  0.00000000000E+00  0.00000000000E+00  0.55074529080E+03  0.55074529080E+03  0.00000000000E+00 0. -1.
         -2   -1    0    0    0  501 -0.00000000000E+00 -0.00000000000E+00 -0.62413351644E+01  0.62413351644E+01  0.00000000000E+00 0. -1.
          2    1    1    2  502    0 -0.34444930861E+02  0.60161621566E+01  0.49579537605E+03  0.49702686284E+03  0.00000000000E+00 0. -1.
         -2    1    1    2    0  502  0.34444930861E+02 -0.60161621566E+01  0.48708579589E+02  0.59959763131E+02  0.00000000000E+00 0. -1.
</event>
<event>
 4    1  0.5792100E+003  0.2281364E+02  0.7546771E-02  0.1494852E+00
          2   -1    0    0  501    0  0.00000000000E+00  0.00000000000E+00  0.12806584888E+04  0.12806584888E+04  0.00000000000E+00 0.  1.
         -2   -1    0    0    0  501 -0.00000000000E+00 -0.00000000000E+00 -0.12686351610E+01  0.12686351610E+01  0.00000000000E+00 0. -1.
          2    1    1    2  502    0 -0.17914476450E+02  0.14125639000E+02  0.11681126011E+04  0.11683353590E+04  0.00000000000E+00 0.  1.
         -2    1    1    2    0  502  0.17914476450E+02 -0.14125639000E+02  0.11127725250E+03  0.11359176497E+03  0.00000000000E+00 0. -1.
</event>
<event>
 4    1  0.5792100E+003  0.2170991E+02  0.7546771E-02  0.1509366E+00
          2   -1    0    0  501    0  0.00000000000E+00  0.00000000000E+00  0.12472364643E+04  0.12472364643E+04  0.00000000000E+00 0.  1.
         -2   -1    0    0    0  501 -0.00000000000E+00 -0.00000000000E+00 -0.18088125821E+01  0.18088125821E+01  0.00000000000E+00 0.  1.
          2    1    1    2  502    0  0.19127463336E+02  0.10269378182E+02  0.11781820899E+04  0.11783820930E+04  0.00000000000E+00 0.  1.
         -2    1    1    2    0  502 -0.19127463336E+02 -0.10269378182E+02  0.67245561842E+02  0.70663183974E+02  0.00000000000E+00 0.  1.
</event>
<event>
 4    1  0.5792100E+003  0.2051007E+02  0.7546771E-02  0.1526376E+00
          2   -1    0    0  501    0  0.00000000000E+00  0.00000000000E+00  0.40010949766E+03  0.40010949766E+03  0.00000000000E+00 0. -1.
         -2   -1    0    0    0  501 -0.00000000000E+00 -0.00000000000E+00 -0.32137197345E+01  0.32137197345E+01  0.00000000000E+00 0. -1.
          2    1    1    2  502    0  0.14704149022E+02 -0.14298642173E+02  0.36386566785E+03  0.36444325677E+03  0.00000000000E+00 0. -1.
         -2    1    1    2    0  502 -0.14704149022E+02  0.14298642173E+02  0.33030110076E+02  0.38879960624E+02  0.00000000000E+00 0. -1.
</event>
<event>
 4    1  0.5792100E+003  0.2934849E+02  0.7546771E-02  0.1425344E+00
          2   -1    0    0  501    0  0.00000000000E+00  0.00000000000E+00  0.13543226003E+04  0.13543226003E+04  0.00000000000E+00 0.  1.
         -2   -1    0    0    0  501 -0.00000000000E+00 -0.00000000000E+00 -0.34816502344E+01  0.34816502344E+01  0.00000000000E+00 0. -1.
          2    1    1    2  502    0  0.39797475927E+01 -0.29077405691E+02  0.12891912672E+04  0.12895252837E+04  0.00000000000E+00 0.  1.
         -2    1    1    2    0  502 -0.39797475927E+01  0.29077405691E+02  0.61649682864E+02  0.68278966819E+02  0.00000000000E+00 0. -1.
</event>
<event>
 4    1  0.5792100E+003  0.2082950E+02  0.7546771E-02  0.1521713E+00
          2   -1    0    0  501    0  0.00000000000E+00  0.00000000000E+00  0.12497449761E+03  0.12497449761E+03  0.00000000000E+00 0.  1.
         -2   -1    0    0    0  501 -0.00000000000E+00 -0.00000000000E+00 -0.22324502079E+03  0.22324502079E+03  0.00000000000E+00 0. -1.
          2    1    1    2  502    0 -0.19989956362E+02 -0.58540352783E+01  0.12361541459E+03  0.12535804246E+03  0.00000000000E+00 0.  1.
         -2    1    1    2    0  502  0.19989956362E+02  0.58540352783E+01 -0.22188593777E+03  0.22286147595E+03  0.00000000000E+00 0. -1.
</event>
<event>
 4    1  0.5792100E+003  0.2741561E+02  0.7546771E-02  0.1443477E+00
          2   -1    0    0  501    0  0.00000000000E+00  0.00000000000E+00  0.12920377891E+03  0.12920377891E+03  0.00000000000E+00 0.  1.
         -2   -1    0    0    0  501 -0.00000000000E+00 -0.00000000000E+00 -0.29744172604E+03  0.29744172604E+03  0.00000000000E+00 0.  1.
          2    1    1    2  502    0  0.54923662680E+01 -0.26859811244E+02  0.12710742294E+03  0.13003042918E+03  0.00000000000E+00 0.  1.
         -2    1    1    2    0  502 -0.54923662680E+01  0.26859811244E+02 -0.29534537007E+03  0.29661507576E+03  0.00000000000E+00 0.  1.
</event>
<event>
 4    1  0.5792100E+003  0.2185209E+02  0.7546771E-02  0.1507438E+00
          2   -1    0    0  501    0  0.00000000000E+00  0.00000000000E+00  0.88117777514E+03  0.88117777514E+03  0.00000000000E+00 0. -1.
         -2   -1    0    0    0  501 -0.00000000000E+00 -0.00000000000E+00 -0.55135736060E+00  0.55135736060E+00  0.00000000000E+00 0.  1.
          2    1    1    2  502    0 -0.20659109684E+02  0.71214414631E+01  0.49804063975E+03  0.49851980160E+03  0.00000000000E+00 0. -1.
         -2    1    1    2    0  502  0.20659109684E+02 -0.71214414631E+01  0.38258577802E+03  0.38320933089E+03  0.00000000000E+00 0.  1.
</event>
<event>
 4    1  0.5792100E+003  0.2881046E+02  0.7546771E-02  0.1430223E+00
          2   -1    0    0  501    0  0.00000000000E+00  0.00000000000E+00  0.16924460496E+04  0.16924460496E+04  0.00000000000E+00 0.  1.
         -2   -1    0    0    0  501 -0.00000000000E+00 -0.00000000000E+00 -0.34982968722E+01  0.34982968722E+01  0.00000000000E+00 0.  1.
          2    1    1    2  502    0 -0.27516843882E+02  0.85361697445E+01  0.16307622756E+04  0.16310167511E+04  0.00000000000E+00 0.  1.
         -2    1    1    2    0  502  0.27516843882E+02 -0.85361697445E+01  0.58185477174E+02  0.64927595405E+02  0.00000000000E+00 0.  1.
</event>
<event>
 4    1  0.5792100E+003  0.2156240E+02  0.7546771E-02  0.1511385E+00
          2   -1    0    0  501    0  0.00000000000E+00  0.00000000000E+00  0.67099856701E+03  0.67099856701E+03  0.00000000000E+00 0. -1.
         -2   -1    0    0    0  501 -0.00000000000E+00 -0.00000000000E+00 -0.42303981722E+02  0.42303981722E+02  0.00000000000E+00 0.  1.
          2    1    1    2  502    0  0.15396372151E+02 -0.15095983720E+02  0.66806568615E+03  0.66841356809E+03  0.00000000000E+00 0. -1.
         -2    1    1    2    0  502 -0.15396372151E+02  0.15095983720E+02 -0.39371100861E+02  0.44888980640E+02  0.00000000000E+00 0.  1.
</event>
<event>
 4    1  0.5792100E+003  0.4394772E+02  0.7546771E-02  0.1326786E+00
          2   -1    0    0  501    0  0.00000000000E+00  0.00000000000E+00  0.41511080795E+02  0.41511080795E+02  0.00000000000E+00 0.  1.
         -2   -1    0    0    0  501 -0.00000000000E+00 -0.00000000000E+00 -0.85284604951E+02  0.85284604951E+02  0.00000000000E+00 0. -1.
          2    1    1    2  502    0  0.35545656379E+02  0.25843929201E+02  0.20851358983E+02  0.48643412045E+02  0.00000000000E+00 0.  1.
         -2    1    1    2    0  502 -0.35545656379E+02 -0.25843929201E+02 -0.64624883139E+02  0.78152273701E+02  0.00000000000E+00 0. -1.
</event>
<event>
 4    1  0.5792100E+003  0.3953089E+02  0.7546771E-02  0.1351257E+00
          2   -1    0    0  501    0  0.00000000000E+00  0.00000000000E+00  0.16889059121E+02  0.16889059121E+02  0.00000000000E+00 0.  1.
         -2   -1    0    0    0  501 -0.00000000000E+00 -0.00000000000E+00 -0.25217755408E+03  0.25217755408E+03  0.00000000000E+00 0.  1.
          2    1    1    2  502    0 -0.27583758379E+02  0.28316564482E+02 -0.10600325530E+02  0.40927477954E+02  0.00000000000E+00 0.  1.
         -2    1    1    2    0  502  0.27583758379E+02 -0.28316564482E+02 -0.22468816943E+03  0.22813913525E+03  0.00000000000E+00 0.  1.
</event>
<event>
 4    1  0.5792100E+003  0.3324038E+02  0.7546771E-02  0.1393374E+00
          2   -1    0    0  501    0  0.00000000000E+00  0.00000000000E+00  0.41601200080E+03  0.41601200080E+03  0.00000000000E+00 0.  1.
         -2   -1    0    0    0  501 -0.00000000000E+00 -0.00000000000E+00 -0.17661795654E+03  0.17661795654E+03  0.00000000000E+00 0.  1.
          2    1    1    2  502    0  0.33227395487E+02  0.92911194623E+00  0.41377556234E+03  0.41510858706E+03  0.00000000000E+00 0.  1.
         -2    1    1    2    0  502 -0.33227395487E+02 -0.92911194623E+00 -0.17438151808E+03  0.17752137029E+03  0.00000000000E+00 0.  1.
</event>
<event>
 4    1  0.5792100E+003  0.2209391E+02  0.7546771E-02  0.1504201E+00
          2   -1    0    0  501    0  0.00000000000E+00  0.00000000000E+00  0.35440392462E+01  0.35440392462E+01  0.00000000000E+00 0. -1.
         -2   -1    0    0    0  501 -0.00000000000E+00 -0.00000000000E+00 -0.18442833943E+03  0.18442833943E+03  0.00000000000E+00 0. -1.
          2    1    1    2  502    0  0.19660491812E+02  0.10079972019E+02 -0.43151600309E+02  0.48478875641E+02  0.00000000000E+00 0. -1.
         -2    1    1    2    0  502 -0.19660491812E+02 -0.10079972019E+02 -0.13773269987E+03  0.13949350303E+03  0.00000000000E+00 0. -1.
</event>
<event>
 4    1  0.5792100E+003  0.6189409E+02  0.7546771E-02  0.1253529E+00
          2   -1    0    0  501    0  0.00000000000E+00  0.00000000000E+00  0.10223521636E+03  0.10223521636E+03  0.00000000000E+00 0.  1.
         -2   -1    0    0    0  501 -0.00000000000E+00 -0.00000000000E+00 -0.10144456836E+03  0.10144456836E+03  0.00000000000E+00 0. -1.
          2    1    1    2  502    0 -0.49166951642E+02  0.37596400765E+02  0.81268233341E+02  0.10215382633E+03  0.00000000000E+00 0.  1.
         -2    1    1    2    0  502  0.49166951642E+02 -0.37596400765E+02 -0.80477585342E+02  0.10152595839E+03  0.00000000000E+00 0. -1.
</event>
<event>
 4    1  0.5792100E+003  0.2940328E+02  0.7546771E-02  0.1424854E+00
          2   -1    0    0  501    0  0.00000000000E+00  0.00000000000E+00  0.15555466560E+03  0.15555466560E+03  0.00000000000E+00 0. -1.
         -2   -1    0    0    0  501 -0.00000000000E+00 -0.00000000000E+00 -0.20393569129E+03  0.20393569129E+03  0.00000000000E+00 0.  1.
          2    1    1    2  502    0 -0.19785029392E+02 -0.21750984853E+02  0.15308844382E+03  0.15588657531E+03  0.00000000000E+00 0. -1.
         -2    1    1    2    0  502  0.19785029392E+02  0.21750984853E+02 -0.20146946951E+03  0.20360378158E+03  0.00000000000E+00 0.  1.
</event>
<event>
 4    1  0.5792100E+003  0.2075566E+02  0.7546771E-02  0.1522782E+00
          2   -1    0    0  501    0  0.00000000000E+00  0.00000000000E+00  0.23711488013E+03  0.23711488013E+03  0.00000000000E+00 0.  1.
         -2   -1    0    0    0  501 -0.00000000000E+00 -0.00000000000E+00 -0.37067835222E+02  0.37067835222E+02  0.00000000000E+00 0. -1.
          2    1    1    2  502    0  0.10448503350E+02  0.17933944589E+02  0.23371299637E+03  0.23463282435E+03  0.00000000000E+00 0.  1.
         -2    1    1    2    0  502 -0.10448503350E+02 -0.17933944589E+02 -0.33665951459E+02  0.39549891004E+02  0.00000000000E+00 0. -1.
</event>
<event>
 4    1  0.5792100E+003  0.2263892E+02  0.7546771E-02  0.1497083E+00
          2   -1    0    0  501    0  0.00000000000E+00  0.00000000000E+00  0.13588216601E+04  0.13588216601E+04  0.00000000000E+00 0.  1.
         -2   -1    0    0    0  501 -0.00000000000E+00 -0.00000000000E+00 -0.71503388917E+01  0.71503388917E+01  0.00000000000E+00 0. -1.
          2    1    1    2  502    0  0.19338585021E+02  0.11770297376E+02  0.13405638713E+04  0.13407550163E+04  0.00000000000E+00 0.  1.
         -2    1    1    2    0  502 -0.19338585021E+02 -0.11770297376E+02  0.11107449897E+02  0.25216982653E+02  0.00000000000E+00 0. -1.
</event>
<event>
 4    1  0.5792100E+003  0.4693081E+02  0.7546771E-02  0.1312057E+00
          2   -1    0    0  501    0  0.00000000000E+00  0.00000000000E+00  0.22815840331E+04  0.22815840331E+04  0.00000000000E+00 0. -1.
         -2   -1    0    0    0  501 -0.00000000000E+00 -0.00000000000E+00 -0.41800927205E+01  0.41800927205E+01  0.00000000000E+00 0.  1.
          2    1    1    2  502    0 -0.13918214279E+02  0.44819467768E+02  0.21409664350E+04  0.21414807440E+04  0.00000000000E+00 0. -1.
         -2    1    1    2    0  502  0.13918214279E+02 -0.44819467768E+02  0.13643750547E+03  0.14428338185E+03  0.00000000000E+00 0.  1.
</event>
<event>
 4    1  0.5792100E+003  0.2291092E+02  0.7546771E-02  0.1493620E+00
          2   -1    0    0  501    0  0.00000000000E+00  0.00000000000E+00  0.87573074832E+02  0.87573074832E+02  0.00000000000E+00 0.  1.
         -2   -1    0    0    0  501 -0.00000000000E+00 -0.00000000000E+00 -0.73728190044E+01  0.73728190044E+01  0.00000000000E+00 0.  1.
          2    1    1    2  502    0  0.21925533658E+02 -0.66469116661E+01  0.60630065117E+02  0.64814467960E+02  0.00000000000E+00 0.  1.
         -2    1    1    2    0  502 -0.21925533658E+02  0.66469116661E+01  0.19570190710E+02  0.30131425876E+02  0.00000000000E+00 0.  1.
</event>
<event>
 4    1  0.5792100E+003  0.2459930E+02  0.7546771E-02  0.1473336E+00
          2   -1    0    0  501    0  0.00000000000E+00  0.00000000000E+00  0.99277515180E+03  0.99277515180E+03  0.00000000000E+00 0.  1.
         -2   -1    0    0    0  501 -0.00000000000E+00 -0.00000000000E+00 -0.84873570146E+02  0.84873570146E+02  0.00000000000E+00 0.  1.
          2    1    1    2  502    0 -0.24580636002E+02 -0.95806495361E+00  0.99083685092E+03  0.99114216472E+03  0.00000000000E+00 0.  1.
         -2    1    1    2    0  502  0.24580636002E+02  0.95806495361E+00 -0.82935269264E+02  0.86506557224E+02  0.00000000000E+00 0.  1.
</event>
<event>
 4    1  0.5792100E+003  0.2220304E+02  0.7546771E-02  0.1502756E+00
          2   -1    0    0  501    0  0.00000000000E+00  0.00000000000E+00  0.38216575532E+03  0.38216575532E+03  0.00000000000E+00 0. -1.
         -2   -1    0    0    0  501 -0.00000000000E+00 -0.00000000000E+00 -0.13322846306E+03  0.13322846306E+03  0.00000000000E+00 0.  1.
          2    1    1    2  502    0  0.21217284471E+02  0.65423188093E+01  0.38091517722E+03  0.38156172153E+03  0.00000000000E+00 0. -1.
         -2    1    1    2    0  502 -0.21217284471E+02 -0.65423188093E+01 -0.13197788496E+03  0.13383249685E+03  0.00000000000E+00 0.  1.
</event>
<event>
 4    1  0.5792100E+003  0.5037023E+02  0.7546771E-02  0.1296575E+00
          2   -1    0    0  501    0  0.00000000000E+00  0.00000000000E+00  0.13854323267E+03  0.13854323267E+03  0.00000000000E+00 0.  1.
         -2   -1    0    0    0  501 -0.00000000000E+00 -0.00000000000E+00 -0.42906816603E+02  0.42906816603E+02  0.00000000000E+00 0.  1.
          2    1    1    2  502    0 -0.94783116626E+01  0.49470413172E+02  0.11650540105E+03  0.12692780880E+03  0.00000000000E+00 0.  1.
         -2    1    1    2    0  502  0.94783116626E+01 -0.49470413172E+02 -0.20868984991E+02  0.54522240471E+02  0.00000000000E+00 0.  1.
</event>
<event>
 4    1  0.5792100E+003  0.2390147E+02  0.7546771E-02  0.1481478E+00
          2   -1    0    0  501    0  0.00000000000E+00  0.00000000000E+00  0.28055206993E+03  0.28055206993E+03  0.00000000000E+00 0.  1.
         -2   -1    0    0    0  501 -0.00000000000E+00 -0.00000000000E+00 -0.45957952021E+01  0.45957952021E+01  0.00000000000E+00 0.  1.
          2    1    1    2  502    0 -0.21655547041E+02 -0.10115217250E+02  0.24437757351E+03  0.24554363924E+03  0.00000000000E+00 0.  1.
         -2    1    1    2    0  502  0.21655547041E+02  0.10115217250E+02  0.31578701215E+02  0.39604225887E+02  0.00000000000E+00 0.  1.
</event>
<event>
 4    1  0.5792100E+003  0.2122274E+02  0.7546771E-02  0.1516108E+00
          2   -1    0    0  501    0  0.00000000000E+00  0.00000000000E+00  0.87816794837E+02  0.87816794837E+02  0.00000000000E+00 0.  1.
         -2   -1    0    0    0  501 -0.00000000000E+00 -0.00000000000E+00 -0.69054937437E+02  0.69054937437E+02  0.00000000000E+00 0. -1.
          2    1    1    2  502    0 -0.20983351374E+02  0.31785938597E+01  0.84847772095E+02  0.87461699751E+02  0.00000000000E+00 0.  1.
         -2    1    1    2    0  502  0.20983351374E+02 -0.31785938597E+01 -0.66085914695E+02  0.69410032523E+02  0.00000000000E+00 0. -1.
</event>
<event>
 4    1  0.5792100E+003  0.3747104E+02  0.7546771E-02  0.1363978E+00
          2   -1    0    0  501    0  0.00000000000E+00  0.00000000000E+00  0.10158171992E+02  0.10158171992E+02  0.00000000000E+00 0. -1.
         -2   -1    0    0    0  501 -0.00000000000E+00 -0.00000000000E+00 -0.23848564429E+03  0.23848564429E+03  0.00000000000E+00 0. -1.
          2    1    1    2  502    0  0.28786853102E+02  0.23987414147E+02 -0.33553699082E+02  0.50298406248E+02  0.00000000000E+00 0. -1.
         -2    1    1    2    0  502 -0.28786853102E+02 -0.23987414147E+02 -0.19477377322E+03  0.19834541004E+03  0.00000000000E+00 0. -1.
</event>
<event>
 4    1  0.5792100E+003  0.7511633E+02  0.7546771E-02  0.1215663E+00
          2   -1    0    0  501    0  0.00000000000E+00  0.00000000000E+00  0.39763660214E+03  0.39763660214E+03  0.00000000000E+00 0.  1.
         -2   -1    0    0    0  501 -0.00000000000E+00 -0.00000000000E+00 -0.38055486871E+02  0.38055486871E+02  0.00000000000E+00 0. -1.
          2    1    1    2  502    0 -0.16151013811E+02  0.73359446642E+02  0.35230528673E+03  0.36022420618E+03  0.00000000000E+00 0.  1.
         -2    1    1    2    0  502  0.16151013811E+02 -0.73359446642E+02  0.72758285433E+01  0.75467882836E+02  0.00000000000E+00 0. -1.
</event>
<event>
 4    1  0.5792100E+003  0.2875429E+02  0.7546771E-02  0.1430740E+00
          2   -1    0    0  501    0  0.00000000000E+00  0.00000000000E+00  0.15609216047E+03  0.15609216047E+03  0.00000000000E+00 0.  1.
         -2   -1    0    0    0  501 -0.00000000000E+00 -0.00000000000E+00 -0.19393676549E+02  0.19393676549E+02  0.00000000000E+00 0.  1.
          2    1    1    2  502    0  0.23788815673E+02 -0.16152439654E+02  0.14315610894E+03  0.14601534366E+03  0.00000000000E+00 0.  1.
         -2    1    1    2    0  502 -0.23788815673E+02  0.16152439654E+02 -0.64576250167E+01  0.29470493358E+02  0.00000000000E+00 0.  1.
</event>
<event>
 4    1  0.5792100E+003  0.3992149E+02  0.7546771E-02  0.1348946E+00
          2   -1    0    0  501    0  0.00000000000E+00  0.00000000000E+00  0.35254096035E+03  0.35254096035E+03  0.00000000000E+00 0. -1.
         -2   -1    0    0    0  501 -0.00000000000E+00 -0.00000000000E+00 -0.52685245847E+01  0.52685245847E+01  0.00000000000E+00 0.  1.
          2    1    1    2  502    0  0.39548620753E+02 -0.54433955839E+01  0.10623251221E+03  0.11348599301E+03  0.00000000000E+00 0. -1.
         -2    1    1    2    0  502 -0.39548620753E+02  0.54433955839E+01  0.24103992355E+03  0.24432349192E+03  0.00000000000E+00 0.  1.
</event>
<event>
 4    1  0.5792100E+003  0.2048501E+02  0.7546771E-02  0.1526746E+00
          2   -1    0    0  501    0  0.00000000000E+00  0.00000000000E+00  0.98070058568E+03  0.98070058568E+03  0.00000000000E+00 0.  1.
         -2   -1    0    0    0  501 -0.00000000000E+00 -0.00000000000E+00 -0.53061395497E+02  0.53061395497E+02  0.00000000000E+00 0. -1.
          2    1    1    2  502    0  0.79136058877E+01 -0.18894722426E+02  0.97861227026E+03  0.97882665023E+03  0.00000000000E+00 0.  1.
         -2    1    1    2    0  502 -0.79136058877E+01  0.18894722426E+02 -0.50973080077E+02  0.54935330947E+02  0.00000000000E+00 0. -1.
</event>
<event>
 4    1  0.5792100E+003  0.2048087E+02  0.7546771E-02  0.1526807E+00
          2   -1    0    0  501    0  0.00000000000E+00  0.00000000000E+00  0.31470475287E+03  0.31470475287E+03  0.00000000000E+00 0.  1.
         -2   -1    0    0    0  501 -0.00000000000E+00 -0.00000000000E+00 -0.85915556018E+01  0.85915556018E+01  0.00000000000E+00 0.  1.
          2    1    1    2  502    0  0.20156865479E+02 -0.36285937992E+01  0.30163761598E+03  0.30233213077E+03  0.00000000000E+00 0.  1.
         -2    1    1    2    0  502 -0.20156865479E+02  0.36285937992E+01  0.44755812836E+01  0.20964177702E+02  0.00000000000E+00 0.  1.
</event>
<event>
 4    1  0.5792100E+003  0.3131532E+02  0.7546771E-02  0.1408501E+00
          2   -1    0    0  501    0  0.00000000000E+00  0.00000000000E+00  0.11139757497E+04  0.11139757497E+04  0.00000000000E+00 0. -1.
         -2   -1    0    0    0  501 -0.00000000000E+00 -0.00000000000E+00 -0.88650251979E+00  0.88650251979E+00  0.00000000000E+00 0. -1.
          2    1    1    2  502    0 -0.28629045928E+02  0.12689642518E+02  0.60311586851E+03  0.60392830712E+03  0.00000000000E+00 0. -1.
         -2    1    1    2    0  502  0.28629045928E+02 -0.12689642518E+02  0.50997337865E+03  0.51093394508E+03  0.00000000000E+00 0. -1.
</event>
<event>
 4    1  0.5792100E+003  0.2133733E+02  0.7546771E-02  0.1514503E+00
          2   -1    0    0  501    0  0.00000000000E+00  0.00000000000E+00  0.89415333475E+02  0.89415333475E+02  0.00000000000E+00 0. -1.
         -2   -1    0    0    0  501 -0.00000000000E+00 -0.00000000000E+00 -0.17407917278E+02  0.17407917278E+02  0.00000000000E+00 0.  1.
          2    1    1    2  502    0 -0.16591619935E+02  0.13416398523E+02  0.80929936857E+02  0.83695497376E+02  0.00000000000E+00 0. -1.
         -2    1    1    2    0  502  0.16591619935E+02 -0.13416398523E+02 -0.89225206592E+01  0.23127753378E+02  0.00000000000E+00 0.  1.
</event>
<event>
 4    1  0.5792100E+003  0.2098969E+02  0.7546771E-02  0.1519412E+00
          2   -1    0    0  501    0  0.00000000000E+00  0.00000000000E+00  0.92384043244E+01  0.92384043244E+01  0.00000000000E+00 0.  1.
         -2   -1    0    0    0  501 -0.00000000000E+00 -0.00000000000E+00 -0.32311964511E+03  0.32311964511E+03  0.00000000000E+00 0. -1.
          2    1    1    2  502    0  0.81820338665E+01  0.19329285172E+02 -0.35139227972E+01  0.21281790265E+02  0.00000000000E+00 0.  1.
         -2    1    1    2    0  502 -0.81820338665E+01 -0.19329285172E+02 -0.31036731799E+03  0.31107625917E+03  0.00000000000E+00 0. -1.
</event>
<event>
 4    1  0.5792100E+003  0.4092854E+02  0.7546771E-02  0.1343129E+00
          2   -1    0    0  501    0  0.00000000000E+00  0.00000000000E+00  0.14751484322E+04  0.14751484322E+04  0.00000000000E+00 0.  1.
         -2   -1    0    0    0  501 -0.00000000000E+00 -0.00000000000E+00 -0.47198847048E+01  0.47198847048E+01  0.00000000000E+00 0. -1.
          2    1    1    2  502    0 -0.21140181455E+02 -0.35046231836E+02  0.13800216296E+04  0.13806284235E+04  0.00000000000E+00 0.  1.
         -2    1    1    2    0  502  0.21140181455E+02  0.35046231836E+02  0.90406917896E+02  0.99239893397E+02  0.00000000000E+00 0. -1.
</event>
<event>
 4    1  0.5792100E+003  0.4161041E+02  0.7546771E-02  0.1339299E+00
          2   -1    0    0  501    0  0.00000000000E+00  0.00000000000E+00  0.75233828301E+02  0.75233828301E+02  0.00000000000E+00 0.  1.
         -2   -1    0    0    0  501 -0.00000000000E+00 -0.00000000000E+00 -0.26195750043E+02  0.26195750043E+02  0.00000000000E+00 0.  1.
          2    1    1    2  502    0 -0.38867951088E+02 -0.14856265115E+02  0.42193934507E+02  0.59260056902E+02  0.00000000000E+00 0.  1.
         -2    1    1    2    0  502  0.38867951088E+02  0.14856265115E+02  0.68441437515E+01  0.42169521441E+02  0.00000000000E+00 0.  1.
</event>
<event>
 4    1  0.5792100E+003  0.2615021E+02  0.7546771E-02  0.1456336E+00
          2   -1    0    0  501    0  0.00000000000E+00  0.00000000000E+00  0.47204945030E+02  0.47204945030E+02  0.00000000000E+00 0.  1.
         -2   -1    0    0    0  501 -0.00000000000E+00 -0.00000000000E+00 -0.29419314642E+02  0.29419314642E+02  0.00000000000E+00 0. -1.
          2    1    1    2  502    0 -0.25215892216E+02  0.69276485764E+01  0.36188320277E+02  0.44647822562E+02  0.00000000000E+00 0.  1.
         -2    1    1    2    0  502  0.25215892216E+02 -0.69276485764E+01 -0.18402689889E+02  0.31976437110E+02  0.00000000000E+00 0. -1.
</event>
<event>
 4    1  0.5792100E+003  0.2130238E+02  0.7546771E-02  0.1514991E+00
          2   -1    0    0  501    0  0.00000000000E+00  0.00000000000E+00  0.24400770816E+03  0.24400770816E+03  0.00000000000E+00 0. -1.
         -2   -1    0    0    0  501 -0.00000000000E+00 -0.00000000000E+00 -0.14059202197E+02  0.14059202197E+02  0.00000000000E+00 0.  1.
          2    1    1    2  502    0 -0.20951374597E+02 -0.38511344375E+01  0.23517088510E+03  0.23613372596E+03  0.00000000000E+00 0. -1.
         -2    1    1    2    0  502  0.20951374597E+02  0.38511344375E+01 -0.52223791409E+01  0.21933184399E+02  0.00000000000E+00 0.  1.
</event>
<event>
 4    1  0.5792100E+003  0.2019983E+02  0.7546771E-02  0.1531003E+00
          2   -1    0    0  501    0  0.00000000000E+00  0.00000000000E+00  0.16444042085E+02  0.16444042085E+02  0.00000000000E+00 0.  1.
         -2   -1    0    0    0  501 -0.00000000000E+00 -0.00000000000E+00 -0.24854237870E+02  0.24854237870E+02  0.00000000000E+00 0.  1.
          2    1    1    2  502    0  0.19899504688E+02 -0.34702994226E+01 -0.33685011134E+01  0.20478771073E+02  0.00000000000E+00 0.  1.
         -2    1    1    2    0  502 -0.19899504688E+02  0.34702994226E+01 -0.50416946711E+01  0.20819508881E+02  0.00000000000E+00 0.  1.
</event>
<event>
 4    1  0.5792100E+003  0.2821197E+02  0.7546771E-02  0.1435799E+00
          2   -1    0    0  501    0  0.00000000000E+00  0.00000000000E+00  0.12787893281E+04  0.12787893281E+04  0.00000000000E+00 0.  1.
         -2   -1    0    0    0  501 -0.00000000000E+00 -0.00000000000E+00 -0.35260844500E+02  0.35260844500E+02  0.00000000000E+00 0. -1.
          2    1    1    2  502    0  0.21060335240E+02  0.18771726142E+02  0.12729648578E+04  0.12732774421E+04  0.00000000000E+00 0.  1.
         -2    1    1    2    0  502 -0.21060335240E+02 -0.18771726142E+02 -0.29436374213E+02  0.40772730465E+02  0.00000000000E+00 0. -1.
</event>
<event>
 4    1  0.5792100E+003  0.2908439E+02  0.7546771E-02  0.1427723E+00
          2   -1    0    0  501    0  0.00000000000E+00  0.00000000000E+00  0.68411339565E+03  0.68411339565E+03  0.00000000000E+00 0. -1.
         -2   -1    0    0    0  501 -0.00000000000E+00 -0.00000000000E+00 -0.23716123927E+01  0.23716123927E+01  0.00000000000E+00 0.  1.
          2    1    1    2  502    0 -0.15079419015E+02  0.24869914461E+02  0.57833607879E+03  0.57906694048E+03  0.00000000000E+00 0. -1.
         -2    1    1    2    0  502  0.15079419015E+02 -0.24869914461E+02  0.10340570446E+03  0.10741806756E+03  0.00000000000E+00 0.  1.
</event>
<event>
 4    1  0.5792100E+003  0.2532763E+02  0.7546771E-02  0.1465171E+00
          2   -1    0    0  501    0  0.00000000000E+00  0.00000000000E+00  0.99901564139E+03  0.99901564139E+03  0.00000000000E+00 0. -1.
         -2   -1    0    0    0  501 -0.00000000000E+00 -0.00000000000E+00 -0.34451341398E+01  0.34451341398E+01  0.00000000000E+00 0. -1.
          2    1    1    2  502    0 -0.46976079476E+01  0.24888181205E+02  0.94989813297E+03  0.95023573502E+03  0.00000000000E+00 0. -1.
         -2    1    1    2    0  502  0.46976079476E+01 -0.24888181205E+02  0.45672374279E+02  0.52225040512E+02  0.00000000000E+00 0. -1.
</event>
<event>
 4    1  0.5792100E+003  0.2299704E+02  0.7546771E-02  0.1492535E+00
          2   -1    0    0  501    0  0.00000000000E+00  0.00000000000E+00  0.23762447389E+03  0.23762447389E+03  0.00000000000E+00 0. -1.
         -2   -1    0    0    0  501 -0.00000000000E+00 -0.00000000000E+00 -0.27176813390E+02  0.27176813390E+02  0.00000000000E+00 0. -1.
          2    1    1    2  502    0  0.22724348102E+02  0.35309674669E+01  0.23208725174E+03  0.23322383272E+03  0.00000000000E+00 0. -1.
         -2    1    1    2    0  502 -0.22724348102E+02 -0.35309674669E+01 -0.21639591236E+02  0.31577454565E+02  0.00000000000E+00 0. -1.
</event>
<event>
 4    1  0.5792100E+003  0.2567791E+02  0.7546771E-02  0.1461361E+00
          2   -1    0    0  501    0  0.00000000000E+00  0.00000000000E+00  0.16815757417E+02  0.16815757417E+02  0.00000000000E+00 0. -1.
         -2   -1    0    0    0  501 -0.00000000000E+00 -0.00000000000E+00 -0.13393567629E+03  0.13393567629E+03  0.00000000000E+00 0.  1.
          2    1    1    2  502    0 -0.25167852795E+02  0.50925745468E+01  0.48293338615E+01  0.26128099728E+02  0.00000000000E+00 0. -1.
         -2    1    1    2    0  502  0.25167852795E+02 -0.50925745468E+01 -0.12194925274E+03  0.12462333398E+03  0.00000000000E+00 0.  1.
</event>
<event>
 4    1  0.5792100E+003  0.4474631E+02  0.7546771E-02  0.1322713E+00
          2   -1    0    0  501    0  0.00000000000E+00  0.00000000000E+00  0.14520785557E+04  0.14520785557E+04  0.00000000000E+00 0.  1.
         -2   -1    0    0    0  501 -0.00000000000E+00 -0.00000000000E+00 -0.30597426246E+02  0.30597426246E+02  0.00000000000E+00 0. -1.
          2    1    1    2  502    0 -0.33760935601E+02  0.29367182220E+02  0.14351817979E+04  0.14358791820E+04  0.00000000000E+00 0.  1.
         -2    1    1    2    0  502  0.33760935601E+02 -0.29367182220E+02 -0.13700668519E+02  0.46796799912E+02  0.00000000000E+00 0. -1.
</event>
<event>
 4    1  0.5792100E+003  0.2102367E+02  0.7546771E-02  0.1518927E+00
          2   -1    0    0  501    0  0.00000000000E+00  0.00000000000E+00  0.66550650109E+03  0.66550650109E+03  0.00000000000E+00 0.  1.
         -2   -1    0    0    0  501 -0.00000000000E+00 -0.00000000000E+00 -0.23288164324E+02  0.23288164324E+02  0.00000000000E+00 0.  1.
          2    1    1    2  502    0  0.18835911435E+02  0.93382638049E+01  0.66056009985E+03  0.66089457574E+03  0.00000000000E+00 0.  1.
         -2    1    1    2    0  502 -0.18835911435E+02 -0.93382638049E+01 -0.18341763086E+02  0.27900089670E+02  0.00000000000E+00 0.  1.
</event>
<event>
 4    1  0.5792100E+003  0.2049791E+02  0.7546771E-02  0.1526556E+00
          2   -1    0    0  501    0  0.00000000000E+00  0.00000000000E+00  0.14541668015E+04  0.14541668015E+04  0.00000000000E+00 0.  1.
         -2   -1    0    0    0  501 -0.00000000000E+00 -0.00000000000E+00 -0.30545161414E+00  0.30545161414E+00  0.00000000000E+00 0.  1.
          2    1    1    2  502    0 -0.15475120523E+02 -0.13441913695E+02  0.89602230810E+03  0.89625673834E+03  0.00000000000E+00 0.  1.
         -2    1    1    2    0  502  0.15475120523E+02  0.13441913695E+02  0.55783904173E+03  0.55821551473E+03  0.00000000000E+00 0.  1.
</event>
<event>
 4    1  0.5792100E+003  0.2134637E+02  0.7546771E-02  0.1514377E+00
          2   -1    0    0  501    0  0.00000000000E+00  0.00000000000E+00  0.56715986225E+03  0.56715986225E+03  0.00000000000E+00 0.  1.
         -2   -1    0    0    0  501 -0.00000000000E+00 -0.00000000000E+00 -0.89084572534E+00  0.89084572534E+00  0.00000000000E+00 0.  1.
          2    1    1    2  502    0 -0.14718845361E+02  0.15460355252E+02  0.19415745148E+03  0.19532737380E+03  0.00000000000E+00 0.  1.
         -2    1    1    2    0  502  0.14718845361E+02 -0.15460355252E+02  0.37211156505E+03  0.37272333417E+03  0.00000000000E+00 0.  1.
</event>
<event>
 4    1  0.5792100E+003  0.5742156E+02  0.7546771E-02  0.1268854E+00
          2   -1    0    0  501    0  0.00000000000E+00  0.00000000000E+00  0.88849937439E+03  0.88849937439E+03  0.00000000000E+00 0.  1.
         -2   -1    0    0    0  501 -0.00000000000E+00 -0.00000000000E+00 -0.12486563497E+02  0.12486563497E+02  0.00000000000E+00 0. -1.
          2    1    1    2  502    0  0.55472070386E+02  0.14835266643E+02  0.81566872256E+03  0.81768741013E+03  0.00000000000E+00 0.  1.
         -2    1    1    2    0  502 -0.55472070386E+02 -0.14835266643E+02  0.60344088334E+02  0.83298527755E+02  0.00000000000E+00 0. -1.
</event>
<event>
 4    1  0.5792100E+003  0.4347178E+02  0.7546771E-02  0.1329260E+00
          2   -1    0    0  501    0  0.00000000000E+00  0.00000000000E+00  0.16276452527E+03  0.16276452527E+03  0.00000000000E+00 0. -1.
         -2   -1    0    0    0  501 -0.00000000000E+00 -0.00000000000E+00 -0.78310493282E+02  0.78310493282E+02  0.00000000000E+00 0. -1.
          2    1    1    2  502    0  0.39912677288E+02  0.17227130123E+02  0.15347054623E+03  0.15950863419E+03  0.00000000000E+00 0. -1.
         -2    1    1    2    0  502 -0.39912677288E+02 -0.17227130123E+02 -0.69016514240E+02  0.81566384365E+02  0.00000000000E+00 0. -1.
</event>
<event>
 4    1  0.5792100E+003  0.2339584E+02  0.7546771E-02  0.1487586E+00
          2   -1    0    0  501    0  0.00000000000E+00  0.00000000000E+00  0.89715457768E+03  0.89715457768E+03  0.00000000000E+00 0.  1.
         -2   -1    0    0    0  501 -0.00000000000E+00 -0.00000000000E+00 -0.10929031732E+01  0.10929031732E+01  0.00000000000E+00 0.  1.
          2    1    1    2  502    0 -0.21073503749E+02 -0.10162329985E+02  0.74653779603E+03  0.74690430874E+03  0.00000000000E+00 0.  1.
         -2    1    1    2    0  502  0.21073503749E+02  0.10162329985E+02  0.14952387848E+03  0.15134317212E+03  0.00000000000E+00 0.  1.
</event>
<event>
 4    1  0.5792100E+003  0.2420082E+02  0.7546771E-02  0.1477946E+00
          2   -1    0    0  501    0  0.00000000000E+00  0.00000000000E+00  0.41272255342E+03  0.41272255342E+03  0.00000000000E+00 0.  1.
         -2   -1    0    0    0  501 -0.00000000000E+00 -0.00000000000E+00 -0.14843849326E+01  0.14843849326E+01  0.00000000000E+00 0. -1.
          2    1    1    2  502    0  0.11229766751E+02  0.21437628926E+02  0.24906423200E+03  0.25023722996E+03  0.00000000000E+00 0.  1.
         -2    1    1    2    0  502 -0.11229766751E+02 -0.21437628926E+02  0.16217393648E+03  0.16396970839E+03  0.00000000000E+00 0. -1.
</event>
<event>
 4    1  0.5792100E+003  0.2023096E+02  0.7546771E-02  0.1530534E+00
          2   -1    0    0  501    0  0.00000000000E+00  0.00000000000E+00  0.20351275729E+03  0.20351275729E+03  0.00000000000E+00 0.  1.
         -2   -1    0    0    0  501 -0.00000000000E+00 -0.00000000000E+00 -0.22239027282E+01  0.22239027282E+01  0.00000000000E+00 0. -1.
          2    1    1    2  502    0 -0.38783831924E+01  0.19855720491E+02  0.68826098910E+02  0.71737879698E+02  0.00000000000E+00 0.  1.
         -2    1    1    2    0  502  0.38783831924E+01 -0.19855720491E+02  0.13246275565E+03  0.13399878032E+03  0.00000000000E+00 0. -1.
</event>
<event>
 4    1  0.5792100E+003  0.3935653E+02  0.7546771E-02  0.1352298E+00
          2   -1    0    0  501    0  0.00000000000E+00  0.00000000000E+00  0.32127490349E+01  0.32127490349E+01  0.00000000000E+00 0. -1.
         -2   -1    0    0    0  501 -0.00000000000E+00 -0.00000000000E+00 -0.58070909618E+03  0.58070909618E+03  0.00000000000E+00 0. -1.
          2    1    1    2  502    0 -0.33169718552E+02 -0.21182690802E+02 -0.16845092196E+03  0.17298742650E+03  0.00000000000E+00 0. -1.
         -2    1    1    2    0  502  0.33169718552E+02  0.21182690802E+02 -0.40904542518E+03  0.41093441871E+03  0.00000000000E+00 0. -1.
</event>
<event>
 4    1  0.5792100E+003  0.2385338E+02  0.7546771E-02  0.1482052E+00
          2   -1    0    0  501    0  0.00000000000E+00  0.00000000000E+00  0.14669062070E+03  0.14669062070E+03  0.00000000000E+00 0.  1.
         -2   -1    0    0    0  501 -0.00000000000E+00 -0.00000000000E+00 -0.71451258479E+01  0.71451258479E+01  0.00000000000E+00 0. -1.
          2    1    1    2  502    0 -0.93381887722E+01  0.21949528972E+02  0.12177858257E+03  0.12409273453E+03  0.00000000000E+00 0.  1.
         -2    1    1    2    0  502  0.93381887722E+01 -0.21949528972E+02  0.17766912287E+02  0.29743012017E+02  0.00000000000E+00 0. -1.
</event>
<event>
 4    1  0.5792100E+003  0.2610511E+02  0.7546771E-02  0.1456811E+00
          2   -1    0    0  501    0  0.00000000000E+00  0.00000000000E+00  0.28065335492E+02  0.28065335492E+02  0.00000000000E+00 0.  1.
         -2   -1    0    0    0  501 -0.00000000000E+00 -0.00000000000E+00 -0.28729880717E+02  0.28729880717E+02  0.00000000000E+00 0.  1.
          2    1    1    2  502    0  0.13428917963E+02  0.22386173072E+02  0.10841547321E+02  0.28266866307E+02  0.00000000000E+00 0.  1.
         -2    1    1    2    0  502 -0.13428917963E+02 -0.22386173072E+02 -0.11506092546E+02  0.28528349902E+02  0.00000000000E+00 0.  1.
</event>
<event>
 4    1  0.5792100E+003  0.2130348E+02  0.7546771E-02  0.1514976E+00
          2   -1    0    0  501    0  0.00000000000E+00  0.00000000000E+00  0.87212524356E+03  0.87212524356E+03  0.00000000000E+00 0. -1.
         -2   -1    0    0    0  501 -0.00000000000E+00 -0.00000000000E+00 -0.22804885638E+01  0.22804885638E+01  0.00000000000E+00 0.  1.
          2    1    1    2  502    0 -0.12197510401E+02  0.17465940220E+02  0.81901726386E+03  0.81929427974E+03  0.00000000000E+00 0. -1.
         -2    1    1    2    0  502  0.12197510401E+02 -0.17465940220E+02  0.50827491138E+02  0.55111452378E+02  0.00000000000E+00 0.  1.
</event>
<event>
 4    1  0.5792100E+003  0.2007856E+02  0.7546771E-02  0.1532838E+00
          2   -1    0    0  501    0  0.00000000000E+00  0.00000000000E+00  0.11736710989E+04  0.11736710989E+04  0.00000000000E+00 0.  1.
         -2   -1    0    0    0  501 -0.00000000000E+00 -0.00000000000E+00 -0.25135648244E+03  0.25135648244E+03  0.00000000000E+00 0. -1.
          2    1    1    2  502    0 -0.10051611280E+02 -0.17381417113E+02  0.11731840862E+04  0.11733558917E+04  0.00000000000E+00 0.  1.
         -2    1    1    2    0  502  0.10051611280E+02  0.17381417113E+02 -0.25086946969E+03  0.25167168965E+03  0.00000000000E+00 0. -1.
</event>
<event>
 4    1  0.5792100E+003  0.2838865E+02  0.7546771E-02  0.1434136E+00
          2   -1    0    0  501    0  0.00000000000E+00  0.00000000000E+00  0.20998973106E+03  0.20998973106E+03  0.00000000000E+00 0. -1.
         -2   -1    0    0    0  501 -0.00000000000E+00 -0.00000000000E+00 -0.60720786099E+02  0.60720786099E+02  0.00000000000E+00 0.  1.
          2    1    1    2  502    0  0.23723495109E+02  0.15592030653E+02  0.20564232376E+03  0.20759258407E+03  0.00000000000E+00 0. -1.
         -2    1    1    2    0  502 -0.23723495109E+02 -0.15592030653E+02 -0.56373378799E+02  0.63117933087E+02  0.00000000000E+00 0.  1.
</event>
<event>
 4    1  0.5792100E+003  0.2040143E+02  0.7546771E-02  0.1527985E+00
          2   -1    0    0  501    0  0.00000000000E+00  0.00000000000E+00  0.17585110177E+02  0.17585110177E+02  0.00000000000E+00 0. -1.
         -2   -1    0    0    0  501 -0.00000000000E+00 -0.00000000000E+00 -0.12579986703E+03  0.12579986703E+03  0.00000000000E+00 0. -1.
          2    1    1    2  502    0  0.18355659290E+02 -0.89043895574E+01  0.10489645299E+02  0.22940162159E+02  0.00000000000E+00 0. -1.
         -2    1    1    2    0  502 -0.18355659290E+02  0.89043895574E+01 -0.11870440215E+03  0.12044481505E+03  0.00000000000E+00 0. -1.
</event>
<event>
 4    1  0.5792100E+003  0.2862743E+02  0.7546771E-02  0.1431911E+00
          2   -1    0    0  501    0  0.00000000000E+00  0.00000000000E+00  0.11182975284E+04  0.11182975284E+04  0.00000000000E+00 0. -1.
         -2   -1    0    0    0  501 -0.00000000000E+00 -0.00000000000E+00 -0.73633798960E+00  0.73633798960E+00  0.00000000000E+00 0. -1.
          2    1    1    2  502    0 -0.86617743844E+01 -0.27285589325E+02  0.59736171073E+03  0.59804727503E+03  0.00000000000E+00 0. -1.
         -2    1    1    2    0  502  0.86617743844E+01  0.27285589325E+02  0.52019947963E+03  0.52098659131E+03  0.00000000000E+00 0. -1.
</event>
<event>
 4    1  0.5792100E+003  0.2437424E+02  0.7546771E-02  0.1475927E+00
          2   -1    0    0  501    0  0.00000000000E+00  0.00000000000E+00  0.57188035963E+02  0.57188035963E+02  0.00000000000E+00 0.  1.
         -2   -1    0    0    0  501 -0.00000000000E+00 -0.00000000000E+00 -0.65668251417E+02  0.65668251417E+02  0.00000000000E+00 0. -1.
          2    1    1    2  502    0  0.22065924361E+02  0.10353678113E+02  0.52120064380E+02  0.57537855186E+02  0.00000000000E+00 0.  1.
         -2    1    1    2    0  502 -0.22065924361E+02 -0.10353678113E+02 -0.60600279834E+02  0.65318432194E+02  0.00000000000E+00 0. -1.
</event>
<event>
 4    1  0.5792100E+003  0.2058544E+02  0.7546771E-02  0.1525267E+00
          2   -1    0    0  501    0  0.00000000000E+00  0.00000000000E+00  0.35546363422E+02  0.35546363422E+02  0.00000000000E+00 0. -1.
         -2   -1    0    0    0  501 -0.00000000000E+00 -0.00000000000E+00 -0.22058885265E+02  0.22058885265E+02  0.00000000000E+00 0.  1.
          2    1    1    2  502    0  0.20107746977E+02 -0.44089535917E+01  0.26269440168E+02  0.33374299199E+02  0.00000000000E+00 0. -1.
         -2    1    1    2    0  502 -0.20107746977E+02  0.44089535917E+01 -0.12781962011E+02  0.24230949489E+02  0.00000000000E+00 0.  1.
</event>
<event>
 4    1  0.5792100E+003  0.2591588E+02  0.7546771E-02  0.1458813E+00
          2   -1    0    0  501    0  0.00000000000E+00  0.00000000000E+00  0.97276444588E+03  0.97276444588E+03  0.00000000000E+00 0. -1.
         -2   -1    0    0    0  501 -0.00000000000E+00 -0.00000000000E+00 -0.92940692219E+00  0.92940692219E+00  0.00000000000E+00 0.  1.
          2    1    1    2  502    0 -0.85336679529E+01  0.24470584359E+02  0.73278319431E+03  0.73324132648E+03  0.00000000000E+00 0. -1.
         -2    1    1    2    0  502  0.85336679529E+01 -0.24470584359E+02  0.23905184465E+03  0.24045252633E+03  0.00000000000E+00 0.  1.
</event>
<event>
 4    1  0.5792100E+003  0.2780727E+02  0.7546771E-02  0.1439663E+00
          2   -1    0    0  501    0  0.00000000000E+00  0.00000000000E+00  0.20938866317E+04  0.20938866317E+04  0.00000000000E+00 0. -1.
         -2   -1    0    0    0  501 -0.00000000000E+00 -0.00000000000E+00 -0.59482393194E+00  0.59482393194E+00  0.00000000000E+00 0.  1.
          2    1    1    2  502    0 -0.54235416487E+01 -0.27273239644E+02  0.16915000058E+04  0.16917285581E+04  0.00000000000E+00 0. -1.
         -2    1    1    2    0  502  0.54235416487E+01  0.27273239644E+02  0.40179180195E+03  0.40275289759E+03  0.00000000000E+00 0.  1.
</event>
<event>
 4    1  0.5792100E+003  0.2868348E+02  0.7546771E-02  0.1431393E+00
          2   -1    0    0  501    0  0.00000000000E+00  0.00000000000E+00  0.17163026143E+04  0.17163026143E+04  0.00000000000E+00 0. -1.
         -2   -1    0    0    0  501 -0.00000000000E+00 -0.00000000000E+00 -0.90168031814E+00  0.90168031814E+00  0.00000000000E+00 0. -1.
          2    1    1    2  502    0  0.28658393776E+02  0.11993747454E+01  0.14453008984E+04  0.14455854969E+04  0.00000000000E+00 0. -1.
         -2    1    1    2    0  502 -0.28658393776E+02 -0.11993747454E+01  0.27010003566E+03  0.27161879776E+03  0.00000000000E+00 0. -1.
</event>
<event>
 4    1  0.5792100E+003  0.2228026E+02  0.7546771E-02  0.1501739E+00
          2   -1    0    0  501    0  0.00000000000E+00  0.00000000000E+00  0.16255103824E+04  0.16255103824E+04  0.00000000000E+00 0. -1.
         -2   -1    0    0    0  501 -0.00000000000E+00 -0.00000000000E+00 -0.16095341510E+01  0.16095341510E+01  0.00000000000E+00 0.  1.
          2    1    1    2  502    0  0.22226069618E+02  0.15530526111E+01  0.15442735090E+04  0.15444342267E+04  0.00000000000E+00 0. -1.
         -2    1    1    2    0  502 -0.22226069618E+02 -0.15530526111E+01  0.79627339303E+02  0.82685689860E+02  0.00000000000E+00 0.  1.
</event>
<event>
 4    1  0.5792100E+003  0.2510493E+02  0.7546771E-02  0.1467633E+00
          2   -1    0    0  501    0  0.00000000000E+00  0.00000000000E+00  0.83860966291E+03  0.83860966291E+03  0.00000000000E+00 0.  1.
         -2   -1    0    0    0  501 -0.00000000000E+00 -0.00000000000E+00 -0.75246353401E+00  0.75246353401E+00  0.00000000000E+00 0. -1.
          2    1    1    2  502    0 -0.16275214866E+02  0.19114770577E+02  0.40430533317E+03  0.40508401536E+03  0.00000000000E+00 0. -1.
         -2    1    1    2    0  502  0.16275214866E+02 -0.19114770577E+02  0.43355186621E+03  0.43427811109E+03  0.00000000000E+00 0.  1.
</event>
<event>
 4    1  0.5792100E+003  0.2773641E+02  0.7546771E-02  0.1440348E+00
          2   -1    0    0  501    0  0.00000000000E+00  0.00000000000E+00  0.30773480331E+01  0.30773480331E+01  0.00000000000E+00 0. -1.
         -2   -1    0    0    0  501 -0.00000000000E+00 -0.00000000000E+00 -0.66590358359E+03  0.66590358359E+03  0.00000000000E+00 0.  1.
          2    1    1    2  502    0  0.70528493474E+01  0.26824726854E+02 -0.67063182158E+02  0.72572577851E+02  0.00000000000E+00 0. -1.
         -2    1    1    2    0  502 -0.70528493474E+01 -0.26824726854E+02 -0.59576305340E+03  0.59640835377E+03  0.00000000000E+00 0.  1.
</event>
<event>
 4    1  0.5792100E+003  0.4705923E+02  0.7546771E-02  0.1311452E+00
          2   -1    0    0  501    0  0.00000000000E+00  0.00000000000E+00  0.15527854723E+04  0.15527854723E+04  0.00000000000E+00 0.  1.
         -2   -1    0    0    0  501 -0.00000000000E+00 -0.00000000000E+00 -0.10712537350E+02  0.10712537350E+02  0.00000000000E+00 0.  1.
          2    1    1    2  502    0 -0.44961039561E+02 -0.13895182396E+02  0.14988892782E+04  0.14996278336E+04  0.00000000000E+00 0.  1.
         -2    1    1    2    0  502  0.44961039561E+02  0.13895182396E+02  0.43183656777E+02  0.63870176021E+02  0.00000000000E+00 0.  1.
</event>
<event>
 4    1  0.5792100E+003  0.3114595E+02  0.7546771E-02  0.1409893E+00
          2   -1    0    0  501    0  0.00000000000E+00  0.00000000000E+00  0.26333303315E+03  0.26333303315E+03  0.00000000000E+00 0. -1.
         -2   -1    0    0    0  501 -0.00000000000E+00 -0.00000000000E+00 -0.46980039284E+03  0.46980039284E+03  0.00000000000E+00 0.  1.
          2    1    1    2  502    0  0.38392531453E+01 -0.30908416976E+02  0.26189303711E+03  0.26373856940E+03  0.00000000000E+00 0. -1.
         -2    1    1    2    0  502 -0.38392531453E+01  0.30908416976E+02 -0.46836039680E+03  0.46939485659E+03  0.00000000000E+00 0.  1.
</event>
<event>
 4    1  0.5792100E+003  0.3947096E+02  0.7546771E-02  0.1351614E+00
          2   -1    0    0  501    0  0.00000000000E+00  0.00000000000E+00  0.10114383502E+04  0.10114383502E+04  0.00000000000E+00 0. -1.
         -2   -1    0    0    0  501 -0.00000000000E+00 -0.00000000000E+00 -0.17062301667E+01  0.17062301667E+01  0.00000000000E+00 0.  1.
          2    1    1    2  502    0  0.38580031459E+02  0.83389416713E+01  0.66282192478E+03  0.66399613006E+03  0.00000000000E+00 0. -1.
         -2    1    1    2    0  502 -0.38580031459E+02 -0.83389416713E+01  0.34691019526E+03  0.34914845031E+03  0.00000000000E+00 0.  1.
</event>
<event>
 4    1  0.5792100E+003  0.3947235E+02  0.7546771E-02  0.1351606E+00
          2   -1    0    0  501    0  0.00000000000E+00  0.00000000000E+00  0.14167084092E+04  0.14167084092E+04  0.00000000000E+00 0.  1.
         -2   -1    0    0    0  501 -0.00000000000E+00 -0.00000000000E+00 -0.72451878180E+02  0.72451878180E+02  0.00000000000E+00 0. -1.
          2    1    1    2  502    0  0.10406292868E+02  0.38075917969E+02  0.14110356433E+04  0.14115876357E+04  0.00000000000E+00 0.  1.
         -2    1    1    2    0  502 -0.10406292868E+02 -0.38075917969E+02 -0.66779112276E+02  0.77572651733E+02  0.00000000000E+00 0. -1.
</event>
<event>
 4    1  0.5792100E+003  0.6818272E+02  0.7546771E-02  0.1234308E+00
          2   -1    0    0  501    0  0.00000000000E+00  0.00000000000E+00  0.43405066805E+03  0.43405066805E+03  0.00000000000E+00 0.  1.
         -2   -1    0    0    0  501 -0.00000000000E+00 -0.00000000000E+00 -0.15068853027E+02  0.15068853027E+02  0.00000000000E+00 0. -1.
          2    1    1    2  502    0 -0.11632495611E+02 -0.67183098901E+02  0.33025974094E+03  0.33722452493E+03  0.00000000000E+00 0.  1.
         -2    1    1    2    0  502  0.11632495611E+02  0.67183098901E+02  0.88722074081E+02  0.11189499614E+03  0.00000000000E+00 0. -1.
</event>
<event>
 4    1  0.5792100E+003  0.3357247E+02  0.7546771E-02  0.1390887E+00
          2   -1    0    0  501    0  0.00000000000E+00  0.00000000000E+00  0.24623646304E+02  0.24623646304E+02  0.00000000000E+00 0. -1.
         -2   -1    0    0    0  501 -0.00000000000E+00 -0.00000000000E+00 -0.88788721012E+02  0.88788721012E+02  0.00000000000E+00 0.  1.
          2    1    1    2  502    0 -0.11630830405E+02 -0.31493409782E+02  0.73870400136E+01  0.34375564516E+02  0.00000000000E+00 0. -1.
         -2    1    1    2    0  502  0.11630830405E+02  0.31493409782E+02 -0.71552114722E+02  0.79036802800E+02  0.00000000000E+00 0.  1.
</event>
<event>
 4    1  0.5792100E+003  0.2761900E+02  0.7546771E-02  0.1441487E+00
          2   -1    0    0  501    0  0.00000000000E+00  0.00000000000E+00  0.20142490184E+03  0.20142490184E+03  0.00000000000E+00 0. -1.
         -2   -1    0    0    0  501 -0.00000000000E+00 -0.00000000000E+00 -0.14891282479E+02  0.14891282479E+02  0.00000000000E+00 0. -1.
          2    1    1    2  502    0  0.12430197001E+01 -0.27591017188E+02  0.18666467145E+03  0.18869687039E+03  0.00000000000E+00 0. -1.
         -2    1    1    2    0  502 -0.12430197001E+01  0.27591017188E+02 -0.13105208705E+00  0.27619313932E+02  0.00000000000E+00 0. -1.
</event>
<event>
 4    1  0.5792100E+003  0.2685990E+02  0.7546771E-02  0.1449021E+00
          2   -1    0    0  501    0  0.00000000000E+00  0.00000000000E+00  0.11662230077E+04  0.11662230077E+04  0.00000000000E+00 0. -1.
         -2   -1    0    0    0  501 -0.00000000000E+00 -0.00000000000E+00 -0.11929869359E+01  0.11929869359E+01  0.00000000000E+00 0. -1.
          2    1    1    2  502    0  0.26084480393E+02  0.64073338947E+01  0.98752976049E+03  0.98789497514E+03  0.00000000000E+00 0. -1.
         -2    1    1    2    0  502 -0.26084480393E+02 -0.64073338947E+01  0.17750026029E+03  0.17952101952E+03  0.00000000000E+00 0. -1.
</event>
<event>
 4    1  0.5792100E+003  0.3904760E+02  0.7546771E-02  0.1354159E+00
          2   -1    0    0  501    0  0.00000000000E+00  0.00000000000E+00  0.26830070974E+04  0.26830070974E+04  0.00000000000E+00 0.  1.
         -2   -1    0    0    0  501 -0.00000000000E+00 -0.00000000000E+00 -0.20238858588E+01  0.20238858588E+01  0.00000000000E+00 0.  1.
          2    1    1    2  502    0 -0.32781201653E+02  0.21215754386E+02  0.24790289963E+04  0.24793365000E+04  0.00000000000E+00 0.  1.
         -2    1    1    2    0  502  0.32781201653E+02 -0.21215754386E+02  0.20195421524E+03  0.20569448332E+03  0.00000000000E+00 0.  1.
</event>
<event>
 4    1  0.5792100E+003  0.2714678E+02  0.7546771E-02  0.1446139E+00
          2   -1    0    0  501    0  0.00000000000E+00  0.00000000000E+00  0.65193823398E+03  0.65193823398E+03  0.00000000000E+00 0.  1.
         -2   -1    0    0    0  501 -0.00000000000E+00 -0.00000000000E+00 -0.11618190362E+02  0.11618190362E+02  0.00000000000E+00 0.  1.
          2    1    1    2  502    0  0.26926864549E+02  0.34484599238E+01  0.63538506645E+03  0.63596472432E+03  0.00000000000E+00 0.  1.
         -2    1    1    2    0  502 -0.26926864549E+02 -0.34484599238E+01  0.49349771642E+01  0.27591700019E+02  0.00000000000E+00 0.  1.
</event>
<event>
 4    1  0.5792100E+003  0.2728972E+02  0.7546771E-02  0.1444719E+00
          2   -1    0    0  501    0  0.00000000000E+00  0.00000000000E+00  0.54287534074E+03  0.54287534074E+03  0.00000000000E+00 0. -1.
         -2   -1    0    0    0  501 -0.00000000000E+00 -0.00000000000E+00 -0.68009831067E+02  0.68009831067E+02  0.00000000000E+00 0. -1.
          2    1    1    2  502    0 -0.27079724046E+02  0.33789396277E+01  0.53977911476E+03  0.54046852028E+03  0.00000000000E+00 0. -1.
         -2    1    1    2    0  502  0.27079724046E+02 -0.33789396277E+01 -0.64913605083E+02  0.70416651527E+02  0.00000000000E+00 0. -1.
</event>
<event>
 4    1  0.5792100E+003  0.3112743E+02  0.7546771E-02  0.1410046E+00
          2   -1    0    0  501    0  0.00000000000E+00  0.00000000000E+00  0.24480768226E+01  0.24480768226E+01  0.00000000000E+00 0.  1.
         -2   -1    0    0    0  501 -0.00000000000E+00 -0.00000000000E+00 -0.39812414860E+03  0.39812414860E+03  0.00000000000E+00 0.  1.
          2    1    1    2  502    0 -0.72201465097E+01 -0.30278461618E+02 -0.21318531298E+03  0.21544580159E+03  0.00000000000E+00 0.  1.
         -2    1    1    2    0  502  0.72201465097E+01  0.30278461618E+02 -0.18249075880E+03  0.18512642383E+03  0.00000000000E+00 0.  1.
</event>
<event>
 4    1  0.5792100E+003  0.3121821E+02  0.7546771E-02  0.1409297E+00
          2   -1    0    0  501    0  0.00000000000E+00  0.00000000000E+00  0.15785485500E+02  0.15785485500E+02  0.00000000000E+00 0.  1.
         -2   -1    0    0    0  501 -0.00000000000E+00 -0.00000000000E+00 -0.97335662162E+02  0.97335662162E+02  0.00000000000E+00 0.  1.
          2    1    1    2  502    0 -0.21648465654E+02  0.22492657713E+02 -0.74979658831E+02  0.81218993804E+02  0.00000000000E+00 0.  1.
         -2    1    1    2    0  502  0.21648465654E+02 -0.22492657713E+02 -0.65705178304E+01  0.31902153858E+02  0.00000000000E+00 0.  1.
</event>
<event>
 4    1  0.5792100E+003  0.3426682E+02  0.7546771E-02  0.1385792E+00
          2   -1    0    0  501    0  0.00000000000E+00  0.00000000000E+00  0.26890805533E+03  0.26890805533E+03  0.00000000000E+00 0.  1.
         -2   -1    0    0    0  501 -0.00000000000E+00 -0.00000000000E+00 -0.10565110848E+02  0.10565110848E+02  0.00000000000E+00 0.  1.
          2    1    1    2  502    0  0.10216958134E+02 -0.32708231750E+02  0.23620422039E+03  0.23867687024E+03  0.00000000000E+00 0.  1.
         -2    1    1    2    0  502 -0.10216958134E+02  0.32708231750E+02  0.22138724088E+02  0.40796295934E+02  0.00000000000E+00 0.  1.
</event>
<event>
 4    1  0.5792100E+003  0.2636516E+02  0.7546771E-02  0.1454092E+00
          2   -1    0    0  501    0  0.00000000000E+00  0.00000000000E+00  0.19144411536E+04  0.19144411536E+04  0.00000000000E+00 0. -1.
         -2   -1    0    0    0  501 -0.00000000000E+00 -0.00000000000E+00 -0.14458442754E+01  0.14458442754E+01  0.00000000000E+00 0.  1.
          2    1    1    2  502    0 -0.22776279510E+02 -0.13280163374E+02  0.17854762805E+04  0.17856709299E+04  0.00000000000E+00 0. -1.
         -2    1    1    2    0  502  0.22776279510E+02  0.13280163374E+02  0.12751902880E+03  0.13021606796E+03  0.00000000000E+00 0.  1.
</event>
<event>
 4    1  0.5792100E+003  0.4022775E+02  0.7546771E-02  0.1347156E+00
          2   -1    0    0  501    0  0.00000000000E+00  0.00000000000E+00  0.76781967112E+03  0.76781967112E+03  0.00000000000E+00 0. -1.
         -2   -1    0    0    0  501 -0.00000000000E+00 -0.00000000000E+00 -0.44691983044E+02  0.44691983044E+02  0.00000000000E+00 0. -1.
          2    1    1    2  502    0  0.52752977733E+01 -0.39880360570E+02  0.75812472399E+03  0.75919125986E+03  0.00000000000E+00 0. -1.
         -2    1    1    2    0  502 -0.52752977733E+01  0.39880360570E+02 -0.34997035913E+02  0.53320394302E+02  0.00000000000E+00 0. -1.
</event>
<event>
 4    1  0.5792100E+003  0.4718781E+02  0.7546771E-02  0.1310848E+00
          2   -1    0    0  501    0  0.00000000000E+00  0.00000000000E+00  0.13944485721E+03  0.13944485721E+03  0.00000000000E+00 0.  1.
         -2   -1    0    0    0  501 -0.00000000000E+00 -0.00000000000E+00 -0.12670783870E+03  0.12670783870E+03  0.00000000000E+00 0. -1.
          2    1    1    2  502    0 -0.19181186597E+02  0.43113473210E+02  0.13077716498E+03  0.13903005564E+03  0.00000000000E+00 0.  1.
         -2    1    1    2    0  502  0.19181186597E+02 -0.43113473210E+02 -0.11804014646E+03  0.12712264027E+03  0.00000000000E+00 0. -1.
</event>
<event>
 4    1  0.5792100E+003  0.2326059E+02  0.7546771E-02  0.1489252E+00
          2   -1    0    0  501    0  0.00000000000E+00  0.00000000000E+00  0.50155950671E+02  0.50155950671E+02  0.00000000000E+00 0. -1.
         -2   -1    0    0    0  501 -0.00000000000E+00 -0.00000000000E+00 -0.17048589802E+02  0.17048589802E+02  0.00000000000E+00 0.  1.
          2    1    1    2  502    0 -0.22459503552E+02 -0.60519091333E+01  0.36917114793E+02  0.43634026500E+02  0.00000000000E+00 0. -1.
         -2    1    1    2    0  502  0.22459503552E+02  0.60519091333E+01 -0.38097539244E+01  0.23570513972E+02  0.00000000000E+00 0.  1.
</event>
<event>
 4    1  0.5792100E+003  0.3526278E+02  0.7546771E-02  0.1378725E+00
          2   -1    0    0  501    0  0.00000000000E+00  0.00000000000E+00  0.24141055474E+04  0.24141055474E+04  0.00000000000E+00 0.  1.
         -2   -1    0    0    0  501 -0.00000000000E+00 -0.00000000000E+00 -0.18599701356E+01  0.18599701356E+01  0.00000000000E+00 0. -1.
          2    1    1    2  502    0  0.25050047143E+02  0.24818511400E+02  0.22333127365E+04  0.22335911091E+04  0.00000000000E+00 0.  1.
         -2    1    1    2    0  502 -0.25050047143E+02 -0.24818511400E+02  0.17893284076E+03  0.18237440849E+03  0.00000000000E+00 0. -1.
</event>
<event>
 4    1  0.5792100E+003  0.2698024E+02  0.7546771E-02  0.1447807E+00
          2   -1    0    0  501    0  0.00000000000E+00  0.00000000000E+00  0.48550904491E+02  0.48550904491E+02  0.00000000000E+00 0. -1.
         -2   -1    0    0    0  501 -0.00000000000E+00 -0.00000000000E+00 -0.22622477708E+03  0.22622477708E+03  0.00000000000E+00 0.  1.
          2    1    1    2  502    0 -0.19886214440E+02 -0.18233803428E+02  0.43920128258E+02  0.51545230414E+02  0.00000000000E+00 0. -1.
         -2    1    1    2    0  502  0.19886214440E+02  0.18233803428E+02 -0.22159400085E+03  0.22323045116E+03  0.00000000000E+00 0.  1.
</event>
<event>
 4    1  0.5792100E+003  0.2341613E+02  0.7546771E-02  0.1487338E+00
          2   -1    0    0  501    0  0.00000000000E+00  0.00000000000E+00  0.10017457645E+02  0.10017457645E+02  0.00000000000E+00 0. -1.
         -2   -1    0    0    0  501 -0.00000000000E+00 -0.00000000000E+00 -0.43472203882E+03  0.43472203882E+03  0.00000000000E+00 0.  1.
          2    1    1    2  502    0 -0.58890791873E+00 -0.23408719477E+02 -0.44526541257E+01  0.23835710371E+02  0.00000000000E+00 0. -1.
         -2    1    1    2    0  502  0.58890791873E+00  0.23408719477E+02 -0.42025192705E+03  0.42090378609E+03  0.00000000000E+00 0.  1.
</event>
<event>
 4    1  0.5792100E+003  0.1602290E+03  0.7546771E-02  0.1087572E+00
          2   -1    0    0  501    0  0.00000000000E+00  0.00000000000E+00  0.11959789567E+04  0.11959789567E+04  0.00000000000E+00 0.  1.
         -2   -1    0    0    0  501 -0.00000000000E+00 -0.00000000000E+00 -0.21992186876E+02  0.21992186876E+02  0.00000000000E+00 0.  1.
          2    1    1    2  502    0 -0.15126922627E+03  0.52829325858E+02  0.68115927470E+03  0.69975086567E+03  0.00000000000E+00 0.  1.
         -2    1    1    2    0  502  0.15126922627E+03 -0.52829325858E+02  0.49282749512E+03  0.51822027791E+03  0.00000000000E+00 0.  1.
</event>
<event>
 4    1  0.5792100E+003  0.2108205E+02  0.7546771E-02  0.1518097E+00
          2   -1    0    0  501    0  0.00000000000E+00  0.00000000000E+00  0.69307858654E+03  0.69307858654E+03  0.00000000000E+00 0. -1.
         -2   -1    0    0    0  501 -0.00000000000E+00 -0.00000000000E+00 -0.22940325186E+01  0.22940325186E+01  0.00000000000E+00 0.  1.
          2    1    1    2  502    0  0.89905883743E+01 -0.19068874745E+02  0.64050818735E+03  0.64085504658E+03  0.00000000000E+00 0. -1.
         -2    1    1    2    0  502 -0.89905883743E+01  0.19068874745E+02  0.50276366666E+02  0.54517572474E+02  0.00000000000E+00 0.  1.
</event>
<event>
 4    1  0.5792100E+003  0.2090143E+02  0.7546771E-02  0.1520677E+00
          2   -1    0    0  501    0  0.00000000000E+00  0.00000000000E+00  0.66206975137E+02  0.66206975137E+02  0.00000000000E+00 0.  1.
         -2   -1    0    0    0  501 -0.00000000000E+00 -0.00000000000E+00 -0.30619982502E+02  0.30619982502E+02  0.00000000000E+00 0. -1.
          2    1    1    2  502    0  0.19349951177E+02  0.79024767242E+01  0.60674339062E+02  0.64173555064E+02  0.00000000000E+00 0.  1.
         -2    1    1    2    0  502 -0.19349951177E+02 -0.79024767242E+01 -0.25087346427E+02  0.32653402574E+02  0.00000000000E+00 0. -1.
</event>
<event>
 4    1  0.5792100E+003  0.2117016E+02  0.7546771E-02  0.1516849E+00
          2   -1    0    0  501    0  0.00000000000E+00  0.00000000000E+00  0.24039712189E+01  0.24039712189E+01  0.00000000000E+00 0. -1.
         -2   -1    0    0    0  501 -0.00000000000E+00 -0.00000000000E+00 -0.20867241090E+03  0.20867241090E+03  0.00000000000E+00 0. -1.
          2    1    1    2  502    0 -0.20028767545E+02  0.68574108643E+01 -0.68679015953E+02  0.71867815087E+02  0.00000000000E+00 0. -1.
         -2    1    1    2    0  502  0.20028767545E+02 -0.68574108643E+01 -0.13758942372E+03  0.13920856703E+03  0.00000000000E+00 0. -1.
</event>
<event>
 4    1  0.5792100E+003  0.4099024E+02  0.7546771E-02  0.1342779E+00
          2   -1    0    0  501    0  0.00000000000E+00  0.00000000000E+00  0.60767328638E+03  0.60767328638E+03  0.00000000000E+00 0.  1.
         -2   -1    0    0    0  501 -0.00000000000E+00 -0.00000000000E+00 -0.12787433923E+02  0.12787433923E+02  0.00000000000E+00 0. -1.
          2    1    1    2  502    0 -0.11847802375E+02 -0.39240661081E+02  0.57209304629E+03  0.57355963379E+03  0.00000000000E+00 0.  1.
         -2    1    1    2    0  502  0.11847802375E+02  0.39240661081E+02  0.22792806174E+02  0.46901086517E+02  0.00000000000E+00 0. -1.
</event>
<event>
 4    1  0.5792100E+003  0.2503878E+02  0.7546771E-02  0.1468370E+00
          2   -1    0    0  501    0  0.00000000000E+00  0.00000000000E+00  0.73462824979E+03  0.73462824979E+03  0.00000000000E+00 0.  1.
         -2   -1    0    0    0  501 -0.00000000000E+00 -0.00000000000E+00 -0.70757738064E+01  0.70757738064E+01  0.00000000000E+00 0.  1.
          2    1    1    2  502    0 -0.14163673759E+02 -0.20647780119E+02  0.71154558734E+03  0.71198599940E+03  0.00000000000E+00 0.  1.
         -2    1    1    2    0  502  0.14163673759E+02  0.20647780119E+02  0.16006888647E+02  0.29718024200E+02  0.00000000000E+00 0.  1.
</event>
<event>
 4    1  0.5792100E+003  0.2689539E+02  0.7546771E-02  0.1448662E+00
          2   -1    0    0  501    0  0.00000000000E+00  0.00000000000E+00  0.49585316655E+01  0.49585316655E+01  0.00000000000E+00 0. -1.
         -2   -1    0    0    0  501 -0.00000000000E+00 -0.00000000000E+00 -0.18115725933E+03  0.18115725933E+03  0.00000000000E+00 0. -1.
          2    1    1    2  502    0  0.18163740186E+02 -0.19835338342E+02 -0.47035624759E+02  0.54182212037E+02  0.00000000000E+00 0. -1.
         -2    1    1    2    0  502 -0.18163740186E+02  0.19835338342E+02 -0.12916310290E+03  0.13193357896E+03  0.00000000000E+00 0. -1.
</event>
<event>
 4    1  0.5792100E+003  0.2432254E+02  0.7546771E-02  0.1476527E+00
          2   -1    0    0  501    0  0.00000000000E+00  0.00000000000E+00  0.27986436215E+03  0.27986436215E+03  0.00000000000E+00 0.  1.
         -2   -1    0    0    0  501 -0.00000000000E+00 -0.00000000000E+00 -0.13611011980E+02  0.13611011980E+02  0.00000000000E+00 0.  1.
          2    1    1    2  502    0  0.22720181336E+02 -0.86821182350E+01  0.26798946975E+03  0.26909095435E+03  0.00000000000E+00 0.  1.
         -2    1    1    2    0  502 -0.22720181336E+02  0.86821182350E+01 -0.17361195756E+01  0.24384419783E+02  0.00000000000E+00 0.  1.
</event>
<event>
 4    1  0.5792100E+003  0.2021736E+02  0.7546771E-02  0.1530739E+00
          2   -1    0    0  501    0  0.00000000000E+00  0.00000000000E+00  0.31139653665E+03  0.31139653665E+03  0.00000000000E+00 0.  1.
         -2   -1    0    0    0  501 -0.00000000000E+00 -0.00000000000E+00 -0.62305562466E+02  0.62305562466E+02  0.00000000000E+00 0. -1.
          2    1    1    2  502    0 -0.20153906166E+02  0.16004872888E+01  0.30941783959E+03  0.31007763697E+03  0.00000000000E+00 0.  1.
         -2    1    1    2    0  502  0.20153906166E+02 -0.16004872888E+01 -0.60326865407E+02  0.63624462144E+02  0.00000000000E+00 0. -1.
</event>
<event>
 4    1  0.5792100E+003  0.2015431E+02  0.7546771E-02  0.1531690E+00
          2   -1    0    0  501    0  0.00000000000E+00  0.00000000000E+00  0.32817255012E+02  0.32817255012E+02  0.00000000000E+00 0. -1.
         -2   -1    0    0    0  501 -0.00000000000E+00 -0.00000000000E+00 -0.55748381144E+02  0.55748381144E+02  0.00000000000E+00 0.  1.
          2    1    1    2  502    0  0.14883867792E+02  0.13589213099E+02  0.27593169154E+02  0.34169858312E+02  0.00000000000E+00 0. -1.
         -2    1    1    2    0  502 -0.14883867792E+02 -0.13589213099E+02 -0.50524295286E+02  0.54395777844E+02  0.00000000000E+00 0.  1.
</event>
<event>
 4    1  0.5792100E+003  0.2279634E+02  0.7546771E-02  0.1495071E+00
          2   -1    0    0  501    0  0.00000000000E+00  0.00000000000E+00  0.16370991658E+02  0.16370991658E+02  0.00000000000E+00 0.  1.
         -2   -1    0    0    0  501 -0.00000000000E+00 -0.00000000000E+00 -0.47479163660E+02  0.47479163660E+02  0.00000000000E+00 0.  1.
          2    1    1    2  502    0 -0.21411554291E+02 -0.78242341300E+01  0.28249341844E+01  0.22970710699E+02  0.00000000000E+00 0.  1.
         -2    1    1    2    0  502  0.21411554291E+02  0.78242341300E+01 -0.33933106186E+02  0.40879444618E+02  0.00000000000E+00 0.  1.
</event>
<event>
 4    1  0.5792100E+003  0.2024609E+02  0.7546771E-02  0.1530306E+00
          2   -1    0    0  501    0  0.00000000000E+00  0.00000000000E+00  0.76518406684E+03  0.76518406684E+03  0.00000000000E+00 0. -1.
         -2   -1    0    0    0  501 -0.00000000000E+00 -0.00000000000E+00 -0.13979854043E+03  0.13979854043E+03  0.00000000000E+00 0. -1.
          2    1    1    2  502    0  0.18957545995E+02 -0.71074354588E+01  0.76431628475E+03  0.76458438862E+03  0.00000000000E+00 0. -1.
         -2    1    1    2    0  502 -0.18957545995E+02  0.71074354588E+01 -0.13893075834E+03  0.14039821866E+03  0.00000000000E+00 0. -1.
</event>
<event>
 4    1  0.5792100E+003  0.3955535E+02  0.7546771E-02  0.1351111E+00
          2   -1    0    0  501    0  0.00000000000E+00  0.00000000000E+00  0.19218891713E+02  0.19218891713E+02  0.00000000000E+00 0. -1.
         -2   -1    0    0    0  501 -0.00000000000E+00 -0.00000000000E+00 -0.12910355036E+03  0.12910355036E+03  0.00000000000E+00 0. -1.
          2    1    1    2  502    0  0.23365148757E+02 -0.31917015080E+02 -0.98675299663E+01  0.40767562789E+02  0.00000000000E+00 0. -1.
         -2    1    1    2    0  502 -0.23365148757E+02  0.31917015080E+02 -0.10001712868E+03  0.10755487928E+03  0.00000000000E+00 0. -1.
</event>
<event>
 4    1  0.5792100E+003  0.2102625E+02  0.7546771E-02  0.1518890E+00
          2   -1    0    0  501    0  0.00000000000E+00  0.00000000000E+00  0.35304139912E+03  0.35304139912E+03  0.00000000000E+00 0.  1.
         -2   -1    0    0    0  501 -0.00000000000E+00 -0.00000000000E+00 -0.84420865527E+01  0.84420865527E+01  0.00000000000E+00 0. -1.
          2    1    1    2  502    0 -0.13261959657E+02  0.16316357410E+02  0.33909828481E+03  0.33974953989E+03  0.00000000000E+00 0.  1.
         -2    1    1    2    0  502  0.13261959657E+02 -0.16316357410E+02  0.55010277601E+01  0.21733945787E+02  0.00000000000E+00 0. -1.
</event>
<event>
 4    1  0.5792100E+003  0.2023900E+02  0.7546771E-02  0.1530413E+00
          2   -1    0    0  501    0  0.00000000000E+00  0.00000000000E+00  0.15429936906E+03  0.15429936906E+03  0.00000000000E+00 0.  1.
         -2   -1    0    0    0  501 -0.00000000000E+00 -0.00000000000E+00 -0.74222735704E+01  0.74222735704E+01  0.00000000000E+00 0.  1.
          2    1    1    2  502    0  0.12569417828E+02  0.15862744577E+02  0.13824508920E+03  0.13971872322E+03  0.00000000000E+00 0.  1.
         -2    1    1    2    0  502 -0.12569417828E+02 -0.15862744577E+02  0.86320062902E+01  0.22002919412E+02  0.00000000000E+00 0.  1.
</event>
<event>
 4    1  0.5792100E+003  0.2157285E+02  0.7546771E-02  0.1511241E+00
          2   -1    0    0  501    0  0.00000000000E+00  0.00000000000E+00  0.11222492568E+04  0.11222492568E+04  0.00000000000E+00 0. -1.
         -2   -1    0    0    0  501 -0.00000000000E+00 -0.00000000000E+00 -0.14727715239E+01  0.14727715239E+01  0.00000000000E+00 0. -1.
          2    1    1    2  502    0  0.12866346003E+01 -0.21534443691E+02  0.10366222250E+04  0.10368466738E+04  0.00000000000E+00 0. -1.
         -2    1    1    2    0  502 -0.12866346003E+01  0.21534443691E+02  0.84154260271E+02  0.86875354476E+02  0.00000000000E+00 0. -1.
</event>
<event>
 4    1  0.5792100E+003  0.2343295E+02  0.7546771E-02  0.1487132E+00
          2   -1    0    0  501    0  0.00000000000E+00  0.00000000000E+00  0.51947378359E+03  0.51947378359E+03  0.00000000000E+00 0. -1.
         -2   -1    0    0    0  501 -0.00000000000E+00 -0.00000000000E+00 -0.24341488946E+01  0.24341488946E+01  0.00000000000E+00 0. -1.
          2    1    1    2  502    0 -0.88664470471E+01 -0.21690767113E+02  0.45479928457E+03  0.45540256093E+03  0.00000000000E+00 0. -1.
         -2    1    1    2    0  502  0.88664470471E+01  0.21690767113E+02  0.62240350129E+02  0.66505371553E+02  0.00000000000E+00 0. -1.
</event>
<event>
 4    1  0.5792100E+003  0.2275947E+02  0.7546771E-02  0.1495541E+00
          2   -1    0    0  501    0  0.00000000000E+00  0.00000000000E+00  0.36318862871E+02  0.36318862871E+02  0.00000000000E+00 0. -1.
         -2   -1    0    0    0  501 -0.00000000000E+00 -0.00000000000E+00 -0.14606656186E+02  0.14606656186E+02  0.00000000000E+00 0. -1.
          2    1    1    2  502    0  0.43788913470E+01  0.22334249247E+02  0.14765271306E+02  0.27129441859E+02  0.00000000000E+00 0. -1.
         -2    1    1    2    0  502 -0.43788913470E+01 -0.22334249247E+02  0.69469353792E+01  0.23796077198E+02  0.00000000000E+00 0. -1.
</event>
<event>
 4    1  0.5792100E+003  0.2337839E+02  0.7546771E-02  0.1487801E+00
          2   -1    0    0  501    0  0.00000000000E+00  0.00000000000E+00  0.40476180630E+03  0.40476180630E+03  0.00000000000E+00 0. -1.
         -2   -1    0    0    0  501 -0.00000000000E+00 -0.00000000000E+00 -0.26230936505E+01  0.26230936505E+01  0.00000000000E+00 0.  1.
          2    1    1    2  502    0 -0.12892568685E+02  0.19502076178E+02  0.34295788057E+03  0.34375377401E+03  0.00000000000E+00 0. -1.
         -2    1    1    2    0  502  0.12892568685E+02 -0.19502076178E+02  0.59180832080E+02  0.63631125938E+02  0.00000000000E+00 0.  1.
</event>
<event>
 4    1  0.5792100E+003  0.2257014E+02  0.7546771E-02  0.1497968E+00
          2   -1    0    0  501    0  0.00000000000E+00  0.00000000000E+00  0.29993502169E+03  0.29993502169E+03  0.00000000000E+00 0. -1.
         -2   -1    0    0    0  501 -0.00000000000E+00 -0.00000000000E+00 -0.18634231877E+01  0.18634231877E+01  0.00000000000E+00 0.  1.
          2    1    1    2  502    0 -0.90439317144E+01 -0.20678925988E+02  0.10413033636E+03  0.10654828779E+03  0.00000000000E+00 0.  1.
         -2    1    1    2    0  502  0.90439317144E+01  0.20678925988E+02  0.19394126215E+03  0.19525015709E+03  0.00000000000E+00 0. -1.
</event>
<event>
 4    1  0.5792100E+003  0.2633317E+02  0.7546771E-02  0.1454424E+00
          2   -1    0    0  501    0  0.00000000000E+00  0.00000000000E+00  0.43473953699E+03  0.43473953699E+03  0.00000000000E+00 0. -1.
         -2   -1    0    0    0  501 -0.00000000000E+00 -0.00000000000E+00 -0.75734240140E+01  0.75734240140E+01  0.00000000000E+00 0.  1.
          2    1    1    2  502    0  0.85906041553E+01 -0.24892514486E+02  0.41007497904E+03  0.41091960794E+03  0.00000000000E+00 0. -1.
         -2    1    1    2    0  502 -0.85906041553E+01  0.24892514486E+02  0.17091133934E+02  0.31393353060E+02  0.00000000000E+00 0.  1.
</event>
<event>
 4    1  0.5792100E+003  0.8085786E+02  0.7546771E-02  0.1201870E+00
          2   -1    0    0  501    0  0.00000000000E+00  0.00000000000E+00  0.18695737158E+04  0.18695737158E+04  0.00000000000E+00 0. -1.
         -2   -1    0    0    0  501 -0.00000000000E+00 -0.00000000000E+00 -0.18986983771E+02  0.18986983771E+02  0.00000000000E+00 0.  1.
          2    1    1    2  502    0  0.24316263273E+02  0.77114935804E+02  0.17781926188E+04  0.17800300513E+04  0.00000000000E+00 0. -1.
         -2    1    1    2    0  502 -0.24316263273E+02 -0.77114935804E+02  0.72394113229E+02  0.10853064827E+03  0.00000000000E+00 0.  1.
</event>
<event>
 4    1  0.5792100E+003  0.3008343E+02  0.7546771E-02  0.1418873E+00
          2   -1    0    0  501    0  0.00000000000E+00  0.00000000000E+00  0.88743284792E+03  0.88743284792E+03  0.00000000000E+00 0.  1.
         -2   -1    0    0    0  501 -0.00000000000E+00 -0.00000000000E+00 -0.73182433663E+01  0.73182433663E+01  0.00000000000E+00 0.  1.
          2    1    1    2  502    0  0.25951109544E+01  0.29971293462E+02  0.85509264529E+03  0.85562167169E+03  0.00000000000E+00 0.  1.
         -2    1    1    2    0  502 -0.25951109544E+01 -0.29971293462E+02  0.25021959262E+02  0.39129419597E+02  0.00000000000E+00 0.  1.
</event>
<event>
 4    1  0.5792100E+003  0.5665817E+02  0.7546771E-02  0.1271630E+00
          2   -1    0    0  501    0  0.00000000000E+00  0.00000000000E+00  0.93206447325E+03  0.93206447325E+03  0.00000000000E+00 0. -1.
         -2   -1    0    0    0  501 -0.00000000000E+00 -0.00000000000E+00 -0.47110990957E+01  0.47110990957E+01  0.00000000000E+00 0. -1.
          2    1    1    2  502    0  0.56627047980E+02  0.18777693006E+01  0.70657692326E+03  0.70884490339E+03  0.00000000000E+00 0. -1.
         -2    1    1    2    0  502 -0.56627047980E+02 -0.18777693006E+01  0.22077645090E+03  0.22793066896E+03  0.00000000000E+00 0. -1.
</event>
<event>
 4    1  0.5792100E+003  0.2136991E+02  0.7546771E-02  0.1514049E+00
          2   -1    0    0  501    0  0.00000000000E+00  0.00000000000E+00  0.45888661323E+02  0.45888661323E+02  0.00000000000E+00 0.  1.
         -2   -1    0    0    0  501 -0.00000000000E+00 -0.00000000000E+00 -0.29567419553E+02  0.29567419553E+02  0.00000000000E+00 0. -1.
          2    1    1    2  502    0  0.13110121236E+02 -0.16875954863E+02  0.38890365394E+02  0.44374921429E+02  0.00000000000E+00 0.  1.
         -2    1    1    2    0  502 -0.13110121236E+02  0.16875954863E+02 -0.22569123625E+02  0.31081159446E+02  0.00000000000E+00 0. -1.
</event>
<event>
 4    1  0.5792100E+003  0.2097832E+02  0.7546771E-02  0.1519575E+00
          2   -1    0    0  501    0  0.00000000000E+00  0.00000000000E+00  0.29447111770E+02  0.29447111770E+02  0.00000000000E+00 0.  1.
         -2   -1    0    0    0  501 -0.00000000000E+00 -0.00000000000E+00 -0.29615966315E+02  0.29615966315E+02  0.00000000000E+00 0.  1.
          2    1    1    2  502    0 -0.40502168924E+01  0.20583623211E+02  0.20700625046E+02  0.29472116970E+02  0.00000000000E+00 0.  1.
         -2    1    1    2    0  502  0.40502168924E+01 -0.20583623211E+02 -0.20869479591E+02  0.29590961116E+02  0.00000000000E+00 0.  1.
</event>
<event>
 4    1  0.5792100E+003  0.2884485E+02  0.7546771E-02  0.1429907E+00
          2   -1    0    0  501    0  0.00000000000E+00  0.00000000000E+00  0.62192708265E+02  0.62192708265E+02  0.00000000000E+00 0.  1.
         -2   -1    0    0    0  501 -0.00000000000E+00 -0.00000000000E+00 -0.73629838777E+03  0.73629838777E+03  0.00000000000E+00 0.  1.
          2    1    1    2  502    0 -0.28830660052E+02  0.90464265207E+00  0.58549033308E+02  0.65268787630E+02  0.00000000000E+00 0.  1.
         -2    1    1    2    0  502  0.28830660052E+02 -0.90464265207E+00 -0.73265471282E+03  0.73322230841E+03  0.00000000000E+00 0.  1.
</event>
<event>
 4    1  0.5792100E+003  0.2290323E+02  0.7546771E-02  0.1493717E+00
          2   -1    0    0  501    0  0.00000000000E+00  0.00000000000E+00  0.34759519490E+03  0.34759519490E+03  0.00000000000E+00 0. -1.
         -2   -1    0    0    0  501 -0.00000000000E+00 -0.00000000000E+00 -0.66219133458E+03  0.66219133458E+03  0.00000000000E+00 0.  1.
          2    1    1    2  502    0 -0.73854879408E+01 -0.21679772154E+02  0.34701955161E+03  0.34777453494E+03  0.00000000000E+00 0. -1.
         -2    1    1    2    0  502  0.73854879408E+01  0.21679772154E+02 -0.66161569129E+03  0.66201199454E+03  0.00000000000E+00 0.  1.
</event>
<event>
 4    1  0.5792100E+003  0.2698895E+02  0.7546771E-02  0.1447719E+00
          2   -1    0    0  501    0  0.00000000000E+00  0.00000000000E+00  0.52836879304E+02  0.52836879304E+02  0.00000000000E+00 0. -1.
         -2   -1    0    0    0  501 -0.00000000000E+00 -0.00000000000E+00 -0.10026989574E+03  0.10026989574E+03  0.00000000000E+00 0. -1.
          2    1    1    2  502    0  0.20699756244E+02 -0.17318298927E+02  0.47379796887E+02  0.54527502596E+02  0.00000000000E+00 0. -1.
         -2    1    1    2    0  502 -0.20699756244E+02  0.17318298927E+02 -0.94812813327E+02  0.98579272453E+02  0.00000000000E+00 0. -1.
</event>
<event>
 4    1  0.5792100E+003  0.3865260E+02  0.7546771E-02  0.1356568E+00
          2   -1    0    0  501    0  0.00000000000E+00  0.00000000000E+00  0.21852682148E+02  0.21852682148E+02  0.00000000000E+00 0. -1.
         -2   -1    0    0    0  501 -0.00000000000E+00 -0.00000000000E+00 -0.83876041748E+02  0.83876041748E+02  0.00000000000E+00 0.  1.
          2    1    1    2  502    0 -0.70218616437E+01  0.38009437291E+02 -0.82804616475E+01  0.39529608008E+02  0.00000000000E+00 0. -1.
         -2    1    1    2    0  502  0.70218616437E+01 -0.38009437291E+02 -0.53742897953E+02  0.66199115889E+02  0.00000000000E+00 0.  1.
</event>
<event>
 4    1  0.5792100E+003  0.2137188E+02  0.7546771E-02  0.1514021E+00
          2   -1    0    0  501    0  0.00000000000E+00  0.00000000000E+00  0.20758987332E+01  0.20758987332E+01  0.00000000000E+00 0.  1.
         -2   -1    0    0    0  501 -0.00000000000E+00 -0.00000000000E+00 -0.24030149684E+03  0.24030149684E+03  0.00000000000E+00 0.  1.
          2    1    1    2  502    0  0.17998578595E+02  0.11524260148E+02 -0.83913000394E+02  0.86591853188E+02  0.00000000000E+00 0.  1.
         -2    1    1    2    0  502 -0.17998578595E+02 -0.11524260148E+02 -0.15431259772E+03  0.15578554239E+03  0.00000000000E+00 0.  1.
</event>
<event>
 4    1  0.5792100E+003  0.4587632E+02  0.7546771E-02  0.1317115E+00
          2   -1    0    0  501    0  0.00000000000E+00  0.00000000000E+00  0.25213524019E+04  0.25213524019E+04  0.00000000000E+00 0. -1.
         -2   -1    0    0    0  501 -0.00000000000E+00 -0.00000000000E+00 -0.92470782466E+00  0.92470782466E+00  0.00000000000E+00 0. -1.
          2    1    1    2  502    0  0.39764716970E+02  0.22878030047E+02  0.16536183292E+04  0.16542545801E+04  0.00000000000E+00 0. -1.
         -2    1    1    2    0  502 -0.39764716970E+02 -0.22878030047E+02  0.86680936489E+03  0.86802252969E+03  0.00000000000E+00 0. -1.
</event>
<event>
 4    1  0.5792100E+003  0.2450100E+02  0.7546771E-02  0.1474464E+00
          2   -1    0    0  501    0  0.00000000000E+00  0.00000000000E+00  0.19846565862E+03  0.19846565862E+03  0.00000000000E+00 0.  1.
         -2   -1    0    0    0  501 -0.00000000000E+00 -0.00000000000E+00 -0.14092685590E+03  0.14092685590E+03  0.00000000000E+00 0.  1.
          2    1    1    2  502    0  0.17825606295E+02 -0.16809121688E+02  0.19663469419E+03  0.19815524664E+03  0.00000000000E+00 0.  1.
         -2    1    1    2    0  502 -0.17825606295E+02  0.16809121688E+02 -0.13909589148E+03  0.14123726788E+03  0.00000000000E+00 0.  1.
</event>
<event>
 4    1  0.5792100E+003  0.3219733E+02  0.7546771E-02  0.1401416E+00
          2   -1    0    0  501    0  0.00000000000E+00  0.00000000000E+00  0.58386309739E+03  0.58386309739E+03  0.00000000000E+00 0.  1.
         -2   -1    0    0    0  501 -0.00000000000E+00 -0.00000000000E+00 -0.81042574218E+02  0.81042574218E+02  0.00000000000E+00 0.  1.
          2    1    1    2  502    0 -0.28426914645E+02 -0.15118806664E+02  0.58020113499E+03  0.58109381758E+03  0.00000000000E+00 0.  1.
         -2    1    1    2    0  502  0.28426914645E+02  0.15118806664E+02 -0.77380611813E+02  0.83811854029E+02  0.00000000000E+00 0.  1.
</event>
<event>
 4    1  0.5792100E+003  0.5016055E+02  0.7546771E-02  0.1297478E+00
          2   -1    0    0  501    0  0.00000000000E+00  0.00000000000E+00  0.80265710318E+02  0.80265710318E+02  0.00000000000E+00 0. -1.
         -2   -1    0    0    0  501 -0.00000000000E+00 -0.00000000000E+00 -0.50458268407E+02  0.50458268407E+02  0.00000000000E+00 0. -1.
          2    1    1    2  502    0  0.25749840863E+02 -0.43046788177E+02  0.55129560116E+02  0.74534211443E+02  0.00000000000E+00 0. -1.
         -2    1    1    2    0  502 -0.25749840863E+02  0.43046788177E+02 -0.25322118205E+02  0.56189767282E+02  0.00000000000E+00 0. -1.
</event>
<event>
 4    1  0.5792100E+003  0.2112120E+02  0.7546771E-02  0.1517541E+00
          2   -1    0    0  501    0  0.00000000000E+00  0.00000000000E+00  0.90486804996E+01  0.90486804996E+01  0.00000000000E+00 0.  1.
         -2   -1    0    0    0  501 -0.00000000000E+00 -0.00000000000E+00 -0.53135606289E+02  0.53135606289E+02  0.00000000000E+00 0. -1.
          2    1    1    2  502    0 -0.14634767326E+02  0.15229208256E+02 -0.13690472108E+02  0.25170105788E+02  0.00000000000E+00 0.  1.
         -2    1    1    2    0  502  0.14634767326E+02 -0.15229208256E+02 -0.30396453681E+02  0.37014181001E+02  0.00000000000E+00 0. -1.
</event>
<event>
 4    1  0.5792100E+003  0.3300479E+02  0.7546771E-02  0.1395160E+00
          2   -1    0    0  501    0  0.00000000000E+00  0.00000000000E+00  0.21058570123E+04  0.21058570123E+04  0.00000000000E+00 0. -1.
         -2   -1    0    0    0  501 -0.00000000000E+00 -0.00000000000E+00 -0.10090316511E+01  0.10090316511E+01  0.00000000000E+00 0.  1.
          2    1    1    2  502    0  0.31293637268E+02 -0.10489245183E+02  0.17878310708E+04  0.17881356921E+04  0.00000000000E+00 0. -1.
         -2    1    1    2    0  502 -0.31293637268E+02  0.10489245183E+02  0.31701690989E+03  0.31873035180E+03  0.00000000000E+00 0.  1.
</event>
<event>
 4    1  0.5792100E+003  0.2249397E+02  0.7546771E-02  0.1498952E+00
          2   -1    0    0  501    0  0.00000000000E+00  0.00000000000E+00  0.32774910241E+01  0.32774910241E+01  0.00000000000E+00 0. -1.
         -2   -1    0    0    0  501 -0.00000000000E+00 -0.00000000000E+00 -0.22172688813E+03  0.22172688813E+03  0.00000000000E+00 0.  1.
          2    1    1    2  502    0  0.19602216343E+02 -0.11033213345E+02 -0.47221950783E+02  0.52305748422E+02  0.00000000000E+00 0. -1.
         -2    1    1    2    0  502 -0.19602216343E+02  0.11033213345E+02 -0.17122744633E+03  0.17269863074E+03  0.00000000000E+00 0.  1.
</event>
<event>
 4    1  0.5792100E+003  0.2901800E+02  0.7546771E-02  0.1428326E+00
          2   -1    0    0  501    0  0.00000000000E+00  0.00000000000E+00  0.14093311013E+04  0.14093311013E+04  0.00000000000E+00 0. -1.
         -2   -1    0    0    0  501 -0.00000000000E+00 -0.00000000000E+00 -0.78551054866E+00  0.78551054866E+00  0.00000000000E+00 0. -1.
          2    1    1    2  502    0  0.14101262530E+02  0.25361361609E+02  0.10492302924E+04  0.10496314833E+04  0.00000000000E+00 0. -1.
         -2    1    1    2    0  502 -0.14101262530E+02 -0.25361361609E+02  0.35931529836E+03  0.36048512854E+03  0.00000000000E+00 0. -1.
</event>
<event>
 4    1  0.5792100E+003  0.2828703E+02  0.7546771E-02  0.1435091E+00
          2   -1    0    0  501    0  0.00000000000E+00  0.00000000000E+00  0.61811757349E+03  0.61811757349E+03  0.00000000000E+00 0. -1.
         -2   -1    0    0    0  501 -0.00000000000E+00 -0.00000000000E+00 -0.18983834037E+03  0.18983834037E+03  0.00000000000E+00 0. -1.
          2    1    1    2  502    0  0.14584770129E+02  0.24237172121E+02  0.61673785782E+03  0.61738621729E+03  0.00000000000E+00 0. -1.
         -2    1    1    2    0  502 -0.14584770129E+02 -0.24237172121E+02 -0.18845862470E+03  0.19056969658E+03  0.00000000000E+00 0. -1.
</event>
<event>
 4    1  0.5792100E+003  0.2566151E+02  0.7546771E-02  0.1461537E+00
          2   -1    0    0  501    0  0.00000000000E+00  0.00000000000E+00  0.10688677174E+04  0.10688677174E+04  0.00000000000E+00 0.  1.
         -2   -1    0    0    0  501 -0.00000000000E+00 -0.00000000000E+00 -0.31974227543E+01  0.31974227543E+01  0.00000000000E+00 0. -1.
          2    1    1    2  502    0  0.20082233806E+02  0.15975509749E+02  0.10144652151E+04  0.10147897248E+04  0.00000000000E+00 0.  1.
         -2    1    1    2    0  502 -0.20082233806E+02 -0.15975509749E+02  0.51205079554E+02  0.57275415307E+02  0.00000000000E+00 0. -1.
</event>
<event>
 4    1  0.5792100E+003  0.3179610E+02  0.7546771E-02  0.1404605E+00
          2   -1    0    0  501    0  0.00000000000E+00  0.00000000000E+00  0.26459667445E+02  0.26459667445E+02  0.00000000000E+00 0.  1.
         -2   -1    0    0    0  501 -0.00000000000E+00 -0.00000000000E+00 -0.27614980067E+03  0.27614980067E+03  0.00000000000E+00 0. -1.
          2    1    1    2  502    0 -0.24373848643E+02 -0.20418312199E+02  0.15602686985E+02  0.35418015358E+02  0.00000000000E+00 0.  1.
         -2    1    1    2    0  502  0.24373848643E+02  0.20418312199E+02 -0.26529282022E+03  0.26719145276E+03  0.00000000000E+00 0. -1.
</event>
<event>
 4    1  0.5792100E+003  0.2257090E+02  0.7546771E-02  0.1497958E+00
          2   -1    0    0  501    0  0.00000000000E+00  0.00000000000E+00  0.69805182989E+03  0.69805182989E+03  0.00000000000E+00 0.  1.
         -2   -1    0    0    0  501 -0.00000000000E+00 -0.00000000000E+00 -0.97044150987E+01  0.97044150987E+01  0.00000000000E+00 0. -1.
          2    1    1    2  502    0  0.15135203222E+02 -0.16744282845E+02  0.68448526574E+03  0.68485730222E+03  0.00000000000E+00 0.  1.
         -2    1    1    2    0  502 -0.15135203222E+02  0.16744282845E+02  0.38621490461E+01  0.22898942767E+02  0.00000000000E+00 0. -1.
</event>
<event>
 4    1  0.5792100E+003  0.2063175E+02  0.7546771E-02  0.1524588E+00
          2   -1    0    0  501    0  0.00000000000E+00  0.00000000000E+00  0.63441276000E+01  0.63441276000E+01  0.00000000000E+00 0. -1.
         -2   -1    0    0    0  501 -0.00000000000E+00 -0.00000000000E+00 -0.87890797273E+02  0.87890797273E+02  0.00000000000E+00 0. -1.
          2    1    1    2  502    0 -0.84157274651E+01  0.18837316088E+02 -0.17855055703E+02  0.27285013475E+02  0.00000000000E+00 0. -1.
         -2    1    1    2    0  502  0.84157274651E+01 -0.18837316088E+02 -0.63691613969E+02  0.66949911398E+02  0.00000000000E+00 0. -1.
</event>
<event>
 4    1  0.5792100E+003  0.2875704E+02  0.7546771E-02  0.1430714E+00
          2   -1    0    0  501    0  0.00000000000E+00  0.00000000000E+00  0.30430029103E+03  0.30430029103E+03  0.00000000000E+00 0. -1.
         -2   -1    0    0    0  501 -0.00000000000E+00 -0.00000000000E+00 -0.30318292413E+03  0.30318292413E+03  0.00000000000E+00 0. -1.
          2    1    1    2  502    0 -0.25735779933E+02 -0.12831087594E+02  0.30293592168E+03  0.30429778150E+03  0.00000000000E+00 0. -1.
         -2    1    1    2    0  502  0.25735779933E+02  0.12831087594E+02 -0.30181855478E+03  0.30318543367E+03  0.00000000000E+00 0. -1.
</event>
<event>
 4    1  0.5792100E+003  0.2012318E+02  0.7546771E-02  0.1532161E+00
          2   -1    0    0  501    0  0.00000000000E+00  0.00000000000E+00  0.13021803024E+02  0.13021803024E+02  0.00000000000E+00 0.  1.
         -2   -1    0    0    0  501 -0.00000000000E+00 -0.00000000000E+00 -0.33532980207E+02  0.33532980207E+02  0.00000000000E+00 0. -1.
          2    1    1    2  502    0  0.10539793320E+02 -0.17142201382E+02 -0.39820510149E+01  0.20513386891E+02  0.00000000000E+00 0.  1.
         -2    1    1    2    0  502 -0.10539793320E+02  0.17142201382E+02 -0.16529126167E+02  0.26041396340E+02  0.00000000000E+00 0. -1.
</event>
<event>
 4    1  0.5792100E+003  0.2539511E+02  0.7546771E-02  0.1464431E+00
          2   -1    0    0  501    0  0.00000000000E+00  0.00000000000E+00  0.21082545015E+03  0.21082545015E+03  0.00000000000E+00 0. -1.
         -2   -1    0    0    0  501 -0.00000000000E+00 -0.00000000000E+00 -0.19595532876E+03  0.19595532876E+03  0.00000000000E+00 0.  1.
          2    1    1    2  502    0 -0.20998568291E+02 -0.14281874722E+02  0.20923168046E+03  0.21076718891E+03  0.00000000000E+00 0. -1.
         -2    1    1    2    0  502  0.20998568291E+02  0.14281874722E+02 -0.19436155908E+03  0.19601359000E+03  0.00000000000E+00 0.  1.
</event>
<event>
 4    1  0.5792100E+003  0.2964501E+02  0.7546771E-02  0.1422707E+00
          2   -1    0    0  501    0  0.00000000000E+00  0.00000000000E+00  0.15829979938E+03  0.15829979938E+03  0.00000000000E+00 0.  1.
         -2   -1    0    0    0  501 -0.00000000000E+00 -0.00000000000E+00 -0.11203234243E+02  0.11203234243E+02  0.00000000000E+00 0. -1.
          2    1    1    2  502    0  0.11142918488E+02 -0.27471108803E+02  0.13374329959E+03  0.13698940337E+03  0.00000000000E+00 0.  1.
         -2    1    1    2    0  502 -0.11142918488E+02  0.27471108803E+02  0.13353265549E+02  0.32513630251E+02  0.00000000000E+00 0. -1.
</event>
<event>
 4    1  0.5792100E+003  0.2029763E+02  0.7546771E-02  0.1529534E+00
          2   -1    0    0  501    0  0.00000000000E+00  0.00000000000E+00  0.15878118200E+02  0.15878118200E+02  0.00000000000E+00 0.  1.
         -2   -1    0    0    0  501 -0.00000000000E+00 -0.00000000000E+00 -0.48063211617E+02  0.48063211617E+02  0.00000000000E+00 0. -1.
          2    1    1    2  502    0  0.26064754922E+01  0.20129580009E+02  0.55943825568E+01  0.21054472732E+02  0.00000000000E+00 0.  1.
         -2    1    1    2    0  502 -0.26064754922E+01 -0.20129580009E+02 -0.37779475973E+02  0.42886857085E+02  0.00000000000E+00 0. -1.
</event>
<event>
 4    1  0.5792100E+003  0.2526392E+02  0.7546771E-02  0.1465872E+00
          2   -1    0    0  501    0  0.00000000000E+00  0.00000000000E+00  0.55625529140E+03  0.55625529140E+03  0.00000000000E+00 0.  1.
         -2   -1    0    0    0  501 -0.00000000000E+00 -0.00000000000E+00 -0.54280995876E+02  0.54280995876E+02  0.00000000000E+00 0. -1.
          2    1    1    2  502    0 -0.17700770974E+02  0.18026329568E+02  0.55301156169E+03  0.55358834273E+03  0.00000000000E+00 0.  1.
         -2    1    1    2    0  502  0.17700770974E+02 -0.18026329568E+02 -0.51037266161E+02  0.56947944545E+02  0.00000000000E+00 0. -1.
</event>
<event>
 4    1  0.5792100E+003  0.3710006E+02  0.7546771E-02  0.1366372E+00
          2   -1    0    0  501    0  0.00000000000E+00  0.00000000000E+00  0.53059098326E+03  0.53059098326E+03  0.00000000000E+00 0.  1.
         -2   -1    0    0    0  501 -0.00000000000E+00 -0.00000000000E+00 -0.22194639046E+02  0.22194639046E+02  0.00000000000E+00 0. -1.
          2    1    1    2  502    0 -0.36781699976E+02  0.48498625384E+01  0.51393679221E+03  0.51527414161E+03  0.00000000000E+00 0.  1.
         -2    1    1    2    0  502  0.36781699976E+02 -0.48498625384E+01 -0.55404480042E+01  0.37511480694E+02  0.00000000000E+00 0. -1.
</event>
<event>
 4    1  0.5792100E+003  0.2022082E+02  0.7546771E-02  0.1530686E+00
          2   -1    0    0  501    0  0.00000000000E+00  0.00000000000E+00  0.16669097920E+02  0.16669097920E+02  0.00000000000E+00 0.  1.
         -2   -1    0    0    0  501 -0.00000000000E+00 -0.00000000000E+00 -0.64315654763E+02  0.64315654763E+02  0.00000000000E+00 0.  1.
          2    1    1    2  502    0 -0.66558982502E+00 -0.20209860692E+02  0.80247047351E+01  0.21754938867E+02  0.00000000000E+00 0.  1.
         -2    1    1    2    0  502  0.66558982502E+00  0.20209860692E+02 -0.55671261578E+02  0.59229813817E+02  0.00000000000E+00 0.  1.
</event>
<event>
 4    1  0.5792100E+003  0.2117501E+02  0.7546771E-02  0.1516781E+00
          2   -1    0    0  501    0  0.00000000000E+00  0.00000000000E+00  0.85636539065E+02  0.85636539065E+02  0.00000000000E+00 0.  1.
         -2   -1    0    0    0  501 -0.00000000000E+00 -0.00000000000E+00 -0.92326968975E+01  0.92326968975E+01  0.00000000000E+00 0. -1.
          2    1    1    2  502    0 -0.20531884744E+02  0.51790823791E+01  0.69411590519E+02  0.72569622321E+02  0.00000000000E+00 0.  1.
         -2    1    1    2    0  502  0.20531884744E+02 -0.51790823791E+01  0.69922516483E+01  0.22299613641E+02  0.00000000000E+00 0. -1.
</event>
<event>
 4    1  0.5792100E+003  0.2352095E+02  0.7546771E-02  0.1486058E+00
          2   -1    0    0  501    0  0.00000000000E+00  0.00000000000E+00  0.12664257585E+04  0.12664257585E+04  0.00000000000E+00 0.  1.
         -2   -1    0    0    0  501 -0.00000000000E+00 -0.00000000000E+00 -0.18572925011E+01  0.18572925011E+01  0.00000000000E+00 0.  1.
          2    1    1    2  502    0 -0.19309027197E+02  0.13431185785E+02  0.11868565780E+04  0.11870896226E+04  0.00000000000E+00 0.  1.
         -2    1    1    2    0  502  0.19309027197E+02 -0.13431185785E+02  0.77711887946E+02  0.81193428374E+02  0.00000000000E+00 0.  1.
</event>
<event>
 4    1  0.5792100E+003  0.2274998E+02  0.7546771E-02  0.1495662E+00
          2   -1    0    0  501    0  0.00000000000E+00  0.00000000000E+00  0.20645472613E+02  0.20645472613E+02  0.00000000000E+00 0.  1.
         -2   -1    0    0    0  501 -0.00000000000E+00 -0.00000000000E+00 -0.52758208064E+03  0.52758208064E+03  0.00000000000E+00 0. -1.
          2    1    1    2  502    0  0.14266992222E+02  0.17720454432E+02  0.14053710439E+02  0.26740761946E+02  0.00000000000E+00 0.  1.
         -2    1    1    2    0  502 -0.14266992222E+02 -0.17720454432E+02 -0.52099031846E+03  0.52148679131E+03  0.00000000000E+00 0. -1.
</event>
<event>
 4    1  0.5792100E+003  0.2938024E+02  0.7546771E-02  0.1425060E+00
          2   -1    0    0  501    0  0.00000000000E+00  0.00000000000E+00  0.10164059639E+04  0.10164059639E+04  0.00000000000E+00 0.  1.
         -2   -1    0    0    0  501 -0.00000000000E+00 -0.00000000000E+00 -0.95074953246E+01  0.95074953246E+01  0.00000000000E+00 0. -1.
          2    1    1    2  502    0 -0.66784195078E+01  0.28611135736E+02  0.99295998001E+03  0.99339454411E+03  0.00000000000E+00 0.  1.
         -2    1    1    2    0  502  0.66784195078E+01 -0.28611135736E+02  0.13938488532E+02  0.32518915077E+02  0.00000000000E+00 0. -1.
</event>
<event>
 4    1  0.5792100E+003  0.3476817E+02  0.7546771E-02  0.1382200E+00
          2   -1    0    0  501    0  0.00000000000E+00  0.00000000000E+00  0.10779286735E+04  0.10779286735E+04  0.00000000000E+00 0. -1.
         -2   -1    0    0    0  501 -0.00000000000E+00 -0.00000000000E+00 -0.20225654038E+01  0.20225654038E+01  0.00000000000E+00 0. -1.
          2    1    1    2  502    0  0.22561412053E+02 -0.26453895239E+02  0.89837972578E+03  0.89905225520E+03  0.00000000000E+00 0. -1.
         -2    1    1    2    0  502 -0.22561412053E+02  0.26453895239E+02  0.17752638235E+03  0.18089898374E+03  0.00000000000E+00 0. -1.
</event>
<event>
 4    1  0.5792100E+003  0.2971895E+02  0.7546771E-02  0.1422055E+00
          2   -1    0    0  501    0  0.00000000000E+00  0.00000000000E+00  0.28069881402E+02  0.28069881402E+02  0.00000000000E+00 0. -1.
         -2   -1    0    0    0  501 -0.00000000000E+00 -0.00000000000E+00 -0.21203562151E+03  0.21203562151E+03  0.00000000000E+00 0. -1.
          2    1    1    2  502    0 -0.24086679480E+02  0.17408271489E+02  0.18804784828E+02  0.35168678921E+02  0.00000000000E+00 0. -1.
         -2    1    1    2    0  502  0.24086679480E+02 -0.17408271489E+02 -0.20277052493E+03  0.20493682399E+03  0.00000000000E+00 0. -1.
</event>
<event>
 4    1  0.5792100E+003  0.2279973E+02  0.7546771E-02  0.1495028E+00
          2   -1    0    0  501    0  0.00000000000E+00  0.00000000000E+00  0.90229355623E+01  0.90229355623E+01  0.00000000000E+00 0. -1.
         -2   -1    0    0    0  501 -0.00000000000E+00 -0.00000000000E+00 -0.38193678258E+03  0.38193678258E+03  0.00000000000E+00 0.  1.
          2    1    1    2  502    0 -0.11501954928E+02  0.19685845126E+02 -0.63225956991E+01  0.23660149658E+02  0.00000000000E+00 0. -1.
         -2    1    1    2    0  502  0.11501954928E+02 -0.19685845126E+02 -0.36659125131E+03  0.36729956848E+03  0.00000000000E+00 0.  1.
</event>
<event>
 4    1  0.5792100E+003  0.2294564E+02  0.7546771E-02  0.1493182E+00
          2   -1    0    0  501    0  0.00000000000E+00  0.00000000000E+00  0.57388795644E+03  0.57388795644E+03  0.00000000000E+00 0.  1.
         -2   -1    0    0    0  501 -0.00000000000E+00 -0.00000000000E+00 -0.82122743182E+01  0.82122743182E+01  0.00000000000E+00 0.  1.
          2    1    1    2  502    0  0.19779758059E+02 -0.11630279620E+02  0.55714936645E+03  0.55762166275E+03  0.00000000000E+00 0.  1.
         -2    1    1    2    0  502 -0.19779758059E+02  0.11630279620E+02  0.85263156755E+01  0.24478568011E+02  0.00000000000E+00 0.  1.
</event>
<event>
 4    1  0.5792100E+003  0.2566937E+02  0.7546771E-02  0.1461453E+00
          2   -1    0    0  501    0  0.00000000000E+00  0.00000000000E+00  0.72651539946E+03  0.72651539946E+03  0.00000000000E+00 0. -1.
         -2   -1    0    0    0  501 -0.00000000000E+00 -0.00000000000E+00 -0.12050152517E+02  0.12050152517E+02  0.00000000000E+00 0.  1.
          2    1    1    2  502    0 -0.22531710462E+02 -0.12297909545E+02  0.71234654653E+03  0.71280889368E+03  0.00000000000E+00 0. -1.
         -2    1    1    2    0  502  0.22531710462E+02  0.12297909545E+02  0.21187004202E+01  0.25756658304E+02  0.00000000000E+00 0.  1.
</event>
<event>
 4    1  0.5792100E+003  0.2729582E+02  0.7546771E-02  0.1444659E+00
          2   -1    0    0  501    0  0.00000000000E+00  0.00000000000E+00  0.18955433072E+03  0.18955433072E+03  0.00000000000E+00 0.  1.
         -2   -1    0    0    0  501 -0.00000000000E+00 -0.00000000000E+00 -0.18310394617E+03  0.18310394617E+03  0.00000000000E+00 0. -1.
          2    1    1    2  502    0 -0.21277568630E+02 -0.17097573608E+02  0.18754356518E+03  0.18951952615E+03  0.00000000000E+00 0.  1.
         -2    1    1    2    0  502  0.21277568630E+02  0.17097573608E+02 -0.18109318063E+03  0.18313875074E+03  0.00000000000E+00 0. -1.
</event>
<event>
 4    1  0.5792100E+003  0.2086353E+02  0.7546771E-02  0.1521222E+00
          2   -1    0    0  501    0  0.00000000000E+00  0.00000000000E+00  0.53287040655E+01  0.53287040655E+01  0.00000000000E+00 0.  1.
         -2   -1    0    0    0  501 -0.00000000000E+00 -0.00000000000E+00 -0.86430417011E+02  0.86430417011E+02  0.00000000000E+00 0.  1.
          2    1    1    2  502    0  0.19816494184E+02 -0.65263432995E+01 -0.51298794624E+02  0.55379174140E+02  0.00000000000E+00 0.  1.
         -2    1    1    2    0  502 -0.19816494184E+02  0.65263432995E+01 -0.29802918321E+02  0.36379946936E+02  0.00000000000E+00 0.  1.
</event>
<event>
 4    1  0.5792100E+003  0.2053953E+02  0.7546771E-02  0.1525942E+00
          2   -1    0    0  501    0  0.00000000000E+00  0.00000000000E+00  0.18378060816E+03  0.18378060816E+03  0.00000000000E+00 0.  1.
         -2   -1    0    0    0  501 -0.00000000000E+00 -0.00000000000E+00 -0.74817702670E+01  0.74817702670E+01  0.00000000000E+00 0.  1.
          2    1    1    2  502    0 -0.19943151216E+01  0.20442484389E+02  0.16776975683E+03  0.16902237652E+03  0.00000000000E+00 0.  1.
         -2    1    1    2    0  502  0.19943151216E+01 -0.20442484389E+02  0.85290810684E+01  0.22240001903E+02  0.00000000000E+00 0.  1.
</event>
<event>
 4    1  0.5792100E+003  0.2125586E+02  0.7546771E-02  0.1515643E+00
          2   -1    0    0  501    0  0.00000000000E+00  0.00000000000E+00  0.25381727988E+03  0.25381727988E+03  0.00000000000E+00 0. -1.
         -2   -1    0    0    0  501 -0.00000000000E+00 -0.00000000000E+00 -0.47500882977E+01  0.47500882977E+01  0.00000000000E+00 0.  1.
          2    1    1    2  502    0 -0.55480884262E+01  0.20519027618E+02  0.22676225277E+03  0.22775629753E+03  0.00000000000E+00 0. -1.
         -2    1    1    2    0  502  0.55480884262E+01 -0.20519027618E+02  0.22304938813E+02  0.30811070657E+02  0.00000000000E+00 0.  1.
</event>
<event>
 4    1  0.5792100E+003  0.2702989E+02  0.7546771E-02  0.1447308E+00
          2   -1    0    0  501    0  0.00000000000E+00  0.00000000000E+00  0.95069680782E+03  0.95069680782E+03  0.00000000000E+00 0. -1.
         -2   -1    0    0    0  501 -0.00000000000E+00 -0.00000000000E+00 -0.49708503323E+02  0.49708503323E+02  0.00000000000E+00 0. -1.
          2    1    1    2  502    0 -0.40783454369E+01  0.26720443599E+02  0.94681512315E+03  0.94720087227E+03  0.00000000000E+00 0. -1.
         -2    1    1    2    0  502  0.40783454369E+01 -0.26720443599E+02 -0.45826818653E+02  0.53204438870E+02  0.00000000000E+00 0. -1.
</event>
<event>
 4    1  0.5792100E+003  0.4149462E+02  0.7546771E-02  0.1339943E+00
          2   -1    0    0  501    0  0.00000000000E+00  0.00000000000E+00  0.24013817084E+03  0.24013817084E+03  0.00000000000E+00 0. -1.
         -2   -1    0    0    0  501 -0.00000000000E+00 -0.00000000000E+00 -0.13256829190E+02  0.13256829190E+02  0.00000000000E+00 0.  1.
          2    1    1    2  502    0  0.34526012249E+02  0.23016468536E+02  0.19929098556E+03  0.20356497801E+03  0.00000000000E+00 0. -1.
         -2    1    1    2    0  502 -0.34526012249E+02 -0.23016468536E+02  0.27590356092E+02  0.49830022024E+02  0.00000000000E+00 0.  1.
</event>
<event>
 4    1  0.5792100E+003  0.2111956E+02  0.7546771E-02  0.1517565E+00
          2   -1    0    0  501    0  0.00000000000E+00  0.00000000000E+00  0.70177639854E+00  0.70177639854E+00  0.00000000000E+00 0.  1.
         -2   -1    0    0    0  501 -0.00000000000E+00 -0.00000000000E+00 -0.10180176366E+04  0.10180176366E+04  0.00000000000E+00 0. -1.
          2    1    1    2  502    0 -0.15720422091E+02 -0.14103335069E+02 -0.19646239169E+03  0.19759429921E+03  0.00000000000E+00 0.  1.
         -2    1    1    2    0  502  0.15720422091E+02  0.14103335069E+02 -0.82085346847E+03  0.82112511375E+03  0.00000000000E+00 0. -1.
</event>
<event>
 4    1  0.5792100E+003  0.6186607E+02  0.7546771E-02  0.1253621E+00
          2   -1    0    0  501    0  0.00000000000E+00  0.00000000000E+00  0.81966749328E+03  0.81966749328E+03  0.00000000000E+00 0.  1.
         -2   -1    0    0    0  501 -0.00000000000E+00 -0.00000000000E+00 -0.19992906404E+02  0.19992906404E+02  0.00000000000E+00 0. -1.
          2    1    1    2  502    0 -0.11112025965E+02 -0.60859947823E+02  0.76738510046E+03  0.76987486176E+03  0.00000000000E+00 0.  1.
         -2    1    1    2    0  502  0.11112025965E+02  0.60859947823E+02  0.32289486420E+02  0.69785537924E+02  0.00000000000E+00 0. -1.
</event>
<event>
 4    1  0.5792100E+003  0.2147125E+02  0.7546771E-02  0.1512642E+00
          2   -1    0    0  501    0  0.00000000000E+00  0.00000000000E+00  0.13308943923E+04  0.13308943923E+04  0.00000000000E+00 0.  1.
         -2   -1    0    0    0  501 -0.00000000000E+00 -0.00000000000E+00 -0.58829536490E+00  0.58829536490E+00  0.00000000000E+00 0.  1.
          2    1    1    2  502    0  0.64604849587E+00 -0.21461528249E+02  0.10920533626E+04  0.10922644192E+04  0.00000000000E+00 0.  1.
         -2    1    1    2    0  502 -0.64604849587E+00  0.21461528249E+02  0.23825273430E+03  0.23921826848E+03  0.00000000000E+00 0.  1.
</event>
<event>
 4    1  0.5792100E+003  0.2279436E+02  0.7546771E-02  0.1495097E+00
          2   -1    0    0  501    0  0.00000000000E+00  0.00000000000E+00  0.23314032457E+04  0.23314032457E+04  0.00000000000E+00 0.  1.
         -2   -1    0    0    0  501 -0.00000000000E+00 -0.00000000000E+00 -0.25974686689E+00  0.25974686689E+00  0.00000000000E+00 0. -1.
          2    1    1    2  502    0  0.29817303092E+01 -0.22598496827E+02  0.16048915064E+04  0.16050533730E+04  0.00000000000E+00 0.  1.
         -2    1    1    2    0  502 -0.29817303092E+01  0.22598496827E+02  0.72625199239E+03  0.72660961955E+03  0.00000000000E+00 0. -1.
</event>
<event>
 4    1  0.5792100E+003  0.2198807E+02  0.7546771E-02  0.1505611E+00
          2   -1    0    0  501    0  0.00000000000E+00  0.00000000000E+00  0.22107365921E+03  0.22107365921E+03  0.00000000000E+00 0. -1.
         -2   -1    0    0    0  501 -0.00000000000E+00 -0.00000000000E+00 -0.76929826245E+01  0.76929826245E+01  0.00000000000E+00 0.  1.
          2    1    1    2  502    0  0.10140042671E+02  0.19510378296E+02  0.20345906381E+03  0.20464375381E+03  0.00000000000E+00 0. -1.
         -2    1    1    2    0  502 -0.10140042671E+02 -0.19510378296E+02  0.99216127750E+01  0.24122888025E+02  0.00000000000E+00 0.  1.
</event>
<event>
 4    1  0.5792100E+003  0.2240788E+02  0.7546771E-02  0.1500070E+00
          2   -1    0    0  501    0  0.00000000000E+00  0.00000000000E+00  0.19015724896E+03  0.19015724896E+03  0.00000000000E+00 0.  1.
         -2   -1    0    0    0  501 -0.00000000000E+00 -0.00000000000E+00 -0.66611708375E+01  0.66611708375E+01  0.00000000000E+00 0. -1.
          2    1    1    2  502    0  0.14740550001E+02  0.16876880673E+02  0.16820357767E+03  0.16968958853E+03  0.00000000000E+00 0.  1.
         -2    1    1    2    0  502 -0.14740550001E+02 -0.16876880673E+02  0.15292500449E+02  0.27128831261E+02  0.00000000000E+00 0. -1.
</event>
<event>
 4    1  0.5792100E+003  0.3545792E+02  0.7546771E-02  0.1377372E+00
          2   -1    0    0  501    0  0.00000000000E+00  0.00000000000E+00  0.93473031086E+02  0.93473031086E+02  0.00000000000E+00 0.  1.
         -2   -1    0    0    0  501 -0.00000000000E+00 -0.00000000000E+00 -0.17839629022E+02  0.17839629022E+02  0.00000000000E+00 0. -1.
          2    1    1    2  502    0 -0.34646624396E+02  0.75416011995E+01  0.65422988820E+02  0.74413922063E+02  0.00000000000E+00 0.  1.
         -2    1    1    2    0  502  0.34646624396E+02 -0.75416011995E+01  0.10210413244E+02  0.36898738045E+02  0.00000000000E+00 0. -1.
</event>
<event>
 4    1  0.5792100E+003  0.2025998E+02  0.7546771E-02  0.1530098E+00
          2   -1    0    0  501    0  0.00000000000E+00  0.00000000000E+00  0.16857472611E+04  0.16857472611E+04  0.00000000000E+00 0.  1.
         -2   -1    0    0    0  501 -0.00000000000E+00 -0.00000000000E+00 -0.32841533869E+00  0.32841533869E+00  0.00000000000E+00 0.  1.
          2    1    1    2  502    0 -0.10263430736E+02  0.17467938772E+02  0.12714034973E+04  0.12715649098E+04  0.00000000000E+00 0.  1.
         -2    1    1    2    0  502  0.10263430736E+02 -0.17467938772E+02  0.41401534845E+03  0.41451076663E+03  0.00000000000E+00 0.  1.
</event>
<event>
 4    1  0.5792100E+003  0.2081439E+02  0.7546771E-02  0.1521931E+00
          2   -1    0    0  501    0  0.00000000000E+00  0.00000000000E+00  0.15793360249E+04  0.15793360249E+04  0.00000000000E+00 0.  1.
         -2   -1    0    0    0  501 -0.00000000000E+00 -0.00000000000E+00 -0.83247288661E+00  0.83247288661E+00  0.00000000000E+00 0.  1.
          2    1    1    2  502    0  0.17997942992E+02 -0.10455282617E+02  0.14361948515E+04  0.14363456723E+04  0.00000000000E+00 0.  1.
         -2    1    1    2    0  502 -0.17997942992E+02  0.10455282617E+02  0.14230870054E+03  0.14382282550E+03  0.00000000000E+00 0.  1.
</event>
<event>
 4    1  0.5792100E+003  0.2755202E+02  0.7546771E-02  0.1442140E+00
          2   -1    0    0  501    0  0.00000000000E+00  0.00000000000E+00  0.28763907155E+02  0.28763907155E+02  0.00000000000E+00 0. -1.
         -2   -1    0    0    0  501 -0.00000000000E+00 -0.00000000000E+00 -0.43413932582E+02  0.43413932582E+02  0.00000000000E+00 0. -1.
          2    1    1    2  502    0 -0.25958230583E+02  0.92349449667E+01  0.15273194954E+02  0.31502133700E+02  0.00000000000E+00 0. -1.
         -2    1    1    2    0  502  0.25958230583E+02 -0.92349449667E+01 -0.29923220381E+02  0.40675706036E+02  0.00000000000E+00 0. -1.
</event>
<event>
 4    1  0.5792100E+003  0.2467372E+02  0.7546771E-02  0.1472487E+00
          2   -1    0    0  501    0  0.00000000000E+00  0.00000000000E+00  0.91425327099E+01  0.91425327099E+01  0.00000000000E+00 0. -1.
         -2   -1    0    0    0  501 -0.00000000000E+00 -0.00000000000E+00 -0.13595008893E+03  0.13595008893E+03  0.00000000000E+00 0. -1.
          2    1    1    2  502    0 -0.24506286350E+02  0.28695560923E+01 -0.11585446170E+02  0.27258301227E+02  0.00000000000E+00 0. -1.
         -2    1    1    2    0  502  0.24506286350E+02 -0.28695560923E+01 -0.11522211005E+03  0.11783432042E+03  0.00000000000E+00 0. -1.
</event>
<event>
 4    1  0.5792100E+003  0.5752540E+02  0.7546771E-02  0.1268480E+00
          2   -1    0    0  501    0  0.00000000000E+00  0.00000000000E+00  0.38290770614E+03  0.38290770614E+03  0.00000000000E+00 0. -1.
         -2   -1    0    0    0  501 -0.00000000000E+00 -0.00000000000E+00 -0.67938687307E+02  0.67938687307E+02  0.00000000000E+00 0.  1.
          2    1    1    2  502    0  0.54683992291E+02  0.17855891328E+02  0.36808260814E+03  0.37255063855E+03  0.00000000000E+00 0. -1.
         -2    1    1    2    0  502 -0.54683992291E+02 -0.17855891328E+02 -0.53113589300E+02  0.78295754906E+02  0.00000000000E+00 0.  1.
</event>
<event>
 4    1  0.5792100E+003  0.2988878E+02  0.7546771E-02  0.1420566E+00
          2   -1    0    0  501    0  0.00000000000E+00  0.00000000000E+00  0.35371474482E+03  0.35371474482E+03  0.00000000000E+00 0. -1.
         -2   -1    0    0    0  501 -0.00000000000E+00 -0.00000000000E+00 -0.23929518192E+03  0.23929518192E+03  0.00000000000E+00 0. -1.
          2    1    1    2  502    0 -0.28737697657E+02 -0.82148564543E+01  0.35214589384E+03  0.35341203953E+03  0.00000000000E+00 0. -1.
         -2    1    1    2    0  502  0.28737697657E+02  0.82148564543E+01 -0.23772633094E+03  0.23959788721E+03  0.00000000000E+00 0. -1.
</event>
<event>
 4    1  0.5792100E+003  0.2280962E+02  0.7546771E-02  0.1494903E+00
          2   -1    0    0  501    0  0.00000000000E+00  0.00000000000E+00  0.24589124399E+03  0.24589124399E+03  0.00000000000E+00 0. -1.
         -2   -1    0    0    0  501 -0.00000000000E+00 -0.00000000000E+00 -0.55880939667E+01  0.55880939667E+01  0.00000000000E+00 0. -1.
          2    1    1    2  502    0  0.11617946257E+01 -0.22780012735E+02  0.21926742201E+03  0.22045063189E+03  0.00000000000E+00 0. -1.
         -2    1    1    2    0  502 -0.11617946257E+01  0.22780012735E+02  0.21035728013E+02  0.31028706064E+02  0.00000000000E+00 0. -1.
</event>
<event>
 4    1  0.5792100E+003  0.2655182E+02  0.7546771E-02  0.1452163E+00
          2   -1    0    0  501    0  0.00000000000E+00  0.00000000000E+00  0.41842828980E+02  0.41842828980E+02  0.00000000000E+00 0. -1.
         -2   -1    0    0    0  501 -0.00000000000E+00 -0.00000000000E+00 -0.64815126183E+02  0.64815126183E+02  0.00000000000E+00 0.  1.
          2    1    1    2  502    0  0.26504045364E+02  0.15921398467E+01  0.34390695032E+02  0.43447891028E+02  0.00000000000E+00 0. -1.
         -2    1    1    2    0  502 -0.26504045364E+02 -0.15921398467E+01 -0.57362992234E+02  0.63210064136E+02  0.00000000000E+00 0.  1.
</event>
<event>
 4    1  0.5792100E+003  0.2246639E+02  0.7546771E-02  0.1499310E+00
          2   -1    0    0  501    0  0.00000000000E+00  0.00000000000E+00  0.30889412074E+03  0.30889412074E+03  0.00000000000E+00 0.  1.
         -2   -1    0    0    0  501 -0.00000000000E+00 -0.00000000000E+00 -0.46671951962E+02  0.46671951962E+02  0.00000000000E+00 0. -1.
          2    1    1    2  502    0 -0.12403795302E+02  0.18731912813E+02  0.30575423780E+03  0.30657852604E+03  0.00000000000E+00 0.  1.
         -2    1    1    2    0  502  0.12403795302E+02 -0.18731912813E+02 -0.43532069017E+02  0.48987546667E+02  0.00000000000E+00 0. -1.
</event>
<event>
 4    1  0.5792100E+003  0.4064052E+02  0.7546771E-02  0.1344773E+00
          2   -1    0    0  501    0  0.00000000000E+00  0.00000000000E+00  0.44055324717E+03  0.44055324717E+03  0.00000000000E+00 0.  1.
         -2   -1    0    0    0  501 -0.00000000000E+00 -0.00000000000E+00 -0.78719956303E+01  0.78719956303E+01  0.00000000000E+00 0. -1.
          2    1    1    2  502    0  0.35060789458E+02  0.20552198158E+02  0.37860454349E+03  0.38077953222E+03  0.00000000000E+00 0.  1.
         -2    1    1    2    0  502 -0.35060789458E+02 -0.20552198158E+02  0.54076708054E+02  0.67645710584E+02  0.00000000000E+00 0. -1.
</event>
<event>
 4    1  0.5792100E+003  0.2347476E+02  0.7546771E-02  0.1486621E+00
          2   -1    0    0  501    0  0.00000000000E+00  0.00000000000E+00  0.11189928297E+04  0.11189928297E+04  0.00000000000E+00 0. -1.
         -2   -1    0    0    0  501 -0.00000000000E+00 -0.00000000000E+00 -0.34416452106E+01  0.34416452106E+01  0.00000000000E+00 0.  1.
          2    1    1    2  502    0  0.10223642887E+02 -0.21131523260E+02  0.10772912618E+04  0.10775469952E+04  0.00000000000E+00 0. -1.
         -2    1    1    2    0  502 -0.10223642887E+02  0.21131523260E+02  0.38259922694E+02  0.44887479698E+02  0.00000000000E+00 0.  1.
</event>
<event>
 4    1  0.5792100E+003  0.3141492E+02  0.7546771E-02  0.1407687E+00
          2   -1    0    0  501    0  0.00000000000E+00  0.00000000000E+00  0.22350891050E+04  0.22350891050E+04  0.00000000000E+00 0. -1.
         -2   -1    0    0    0  501 -0.00000000000E+00 -0.00000000000E+00 -0.18931460922E+01  0.18931460922E+01  0.00000000000E+00 0.  1.
          2    1    1    2  502    0  0.31347383507E+02  0.20587563492E+01  0.20960063674E+04  0.20962417774E+04  0.00000000000E+00 0. -1.
         -2    1    1    2    0  502 -0.31347383507E+02 -0.20587563492E+01  0.13718959146E+03  0.14074047369E+03  0.00000000000E+00 0.  1.
</event>
<event>
 4    1  0.5792100E+003  0.2493516E+02  0.7546771E-02  0.1469530E+00
          2   -1    0    0  501    0  0.00000000000E+00  0.00000000000E+00  0.70064700430E+02  0.70064700430E+02  0.00000000000E+00 0.  1.
         -2   -1    0    0    0  501 -0.00000000000E+00 -0.00000000000E+00 -0.33592428457E+02  0.33592428457E+02  0.00000000000E+00 0. -1.
          2    1    1    2  502    0  0.15549776512E+02 -0.19492732954E+02  0.62694952711E+02  0.67471618352E+02  0.00000000000E+00 0.  1.
         -2    1    1    2    0  502 -0.15549776512E+02  0.19492732954E+02 -0.26222680738E+02  0.36185510535E+02  0.00000000000E+00 0. -1.
</event>
<event>
 4    1  0.5792100E+003  0.3209414E+02  0.7546771E-02  0.1402231E+00
          2   -1    0    0  501    0  0.00000000000E+00  0.00000000000E+00  0.79416681309E+02  0.79416681309E+02  0.00000000000E+00 0. -1.
         -2   -1    0    0    0  501 -0.00000000000E+00 -0.00000000000E+00 -0.62603694568E+02  0.62603694568E+02  0.00000000000E+00 0. -1.
          2    1    1    2  502    0  0.90024600839E+01 -0.30805672837E+02  0.71634430755E+02  0.78495384808E+02  0.00000000000E+00 0. -1.
         -2    1    1    2    0  502 -0.90024600839E+01  0.30805672837E+02 -0.54821444014E+02  0.63524991069E+02  0.00000000000E+00 0. -1.
</event>
<event>
 4    1  0.5792100E+003  0.2448780E+02  0.7546771E-02  0.1474616E+00
          2   -1    0    0  501    0  0.00000000000E+00  0.00000000000E+00  0.61397208126E+03  0.61397208126E+03  0.00000000000E+00 0.  1.
         -2   -1    0    0    0  501 -0.00000000000E+00 -0.00000000000E+00 -0.36801239506E+01  0.36801239506E+01  0.00000000000E+00 0.  1.
          2    1    1    2  502    0  0.23947580191E+02 -0.51152604088E+01  0.56983851380E+03  0.57036443112E+03  0.00000000000E+00 0.  1.
         -2    1    1    2    0  502 -0.23947580191E+02  0.51152604088E+01  0.40453443519E+02  0.47287774092E+02  0.00000000000E+00 0.  1.
</event>
<event>
 4    1  0.5792100E+003  0.2012135E+02  0.7546771E-02  0.1532189E+00
          2   -1    0    0  501    0  0.00000000000E+00  0.00000000000E+00  0.22714246262E+02  0.22714246262E+02  0.00000000000E+00 0. -1.
         -2   -1    0    0    0  501 -0.00000000000E+00 -0.00000000000E+00 -0.77366836893E+02  0.77366836893E+02  0.00000000000E+00 0. -1.
          2    1    1    2  502    0 -0.18661403036E+02 -0.75246665830E+01  0.16573021468E+02  0.26067865487E+02  0.00000000000E+00 0. -1.
         -2    1    1    2    0  502  0.18661403036E+02  0.75246665830E+01 -0.71225612100E+02  0.74013217668E+02  0.00000000000E+00 0. -1.
</event>
<event>
 4    1  0.5792100E+003  0.2241202E+02  0.7546771E-02  0.1500016E+00
          2   -1    0    0  501    0  0.00000000000E+00  0.00000000000E+00  0.88041344183E+03  0.88041344183E+03  0.00000000000E+00 0.  1.
         -2   -1    0    0    0  501 -0.00000000000E+00 -0.00000000000E+00 -0.21141500044E+02  0.21141500044E+02  0.00000000000E+00 0. -1.
          2    1    1    2  502    0 -0.15687857023E+02 -0.16005930105E+02  0.87428948898E+03  0.87457670286E+03  0.00000000000E+00 0.  1.
         -2    1    1    2    0  502  0.15687857023E+02  0.16005930105E+02 -0.15017547190E+02  0.26978239011E+02  0.00000000000E+00 0. -1.
</event>
<event>
 4    1  0.5792100E+003  0.2033773E+02  0.7546771E-02  0.1528934E+00
          2   -1    0    0  501    0  0.00000000000E+00  0.00000000000E+00  0.64327389842E+02  0.64327389842E+02  0.00000000000E+00 0.  1.
         -2   -1    0    0    0  501 -0.00000000000E+00 -0.00000000000E+00 -0.18599672310E+03  0.18599672310E+03  0.00000000000E+00 0.  1.
          2    1    1    2  502    0 -0.17337211425E+02  0.10632223732E+02  0.62144914835E+02  0.65388175700E+02  0.00000000000E+00 0.  1.
         -2    1    1    2    0  502  0.17337211425E+02 -0.10632223732E+02 -0.18381424810E+03  0.18493593725E+03  0.00000000000E+00 0.  1.
</event>
<event>
 4    1  0.5792100E+003  0.6634870E+02  0.7546771E-02  0.1239664E+00
          2   -1    0    0  501    0  0.00000000000E+00  0.00000000000E+00  0.37124889180E+03  0.37124889180E+03  0.00000000000E+00 0. -1.
         -2   -1    0    0    0  501 -0.00000000000E+00 -0.00000000000E+00 -0.12142486163E+02  0.12142486163E+02  0.00000000000E+00 0.  1.
          2    1    1    2  502    0 -0.46910643016E+01 -0.66182651217E+02  0.20891182007E+03  0.21919465771E+03  0.00000000000E+00 0. -1.
         -2    1    1    2    0  502  0.46910643016E+01  0.66182651217E+02  0.15019458557E+03  0.16419672025E+03  0.00000000000E+00 0.  1.
</event>
<event>
 4    1  0.5792100E+003  0.3169417E+02  0.7546771E-02  0.1405424E+00
          2   -1    0    0  501    0  0.00000000000E+00  0.00000000000E+00  0.78381073893E+02  0.78381073893E+02  0.00000000000E+00 0.  1.
         -2   -1    0    0    0  501 -0.00000000000E+00 -0.00000000000E+00 -0.13225412524E+02  0.13225412524E+02  0.00000000000E+00 0.  1.
          2    1    1    2  502    0 -0.21056389407E+02 -0.23688563779E+02  0.24517458711E+02  0.40070255432E+02  0.00000000000E+00 0.  1.
         -2    1    1    2    0  502  0.21056389407E+02  0.23688563779E+02  0.40638202658E+02  0.51536230984E+02  0.00000000000E+00 0.  1.
</event>
<event>
 4    1  0.5792100E+003  0.2139651E+02  0.7546771E-02  0.1513678E+00
          2   -1    0    0  501    0  0.00000000000E+00  0.00000000000E+00  0.88636908990E+03  0.88636908990E+03  0.00000000000E+00 0.  1.
         -2   -1    0    0    0  501 -0.00000000000E+00 -0.00000000000E+00 -0.10857209173E+02  0.10857209173E+02  0.00000000000E+00 0.  1.
          2    1    1    2  502    0  0.21163026858E+02 -0.31522642380E+01  0.87556832132E+03  0.87582971848E+03  0.00000000000E+00 0.  1.
         -2    1    1    2    0  502 -0.21163026858E+02  0.31522642380E+01 -0.56440590083E-01  0.21396580595E+02  0.00000000000E+00 0.  1.
</event>
<event>
 4    1  0.5792100E+003  0.3449461E+02  0.7546771E-02  0.1384151E+00
          2   -1    0    0  501    0  0.00000000000E+00  0.00000000000E+00  0.92473460408E+01  0.92473460408E+01  0.00000000000E+00 0. -1.
         -2   -1    0    0    0  501 -0.00000000000E+00 -0.00000000000E+00 -0.44910384772E+03  0.44910384772E+03  0.00000000000E+00 0.  1.
          2    1    1    2  502    0 -0.34287341093E+02  0.37757931232E+01 -0.26347336376E+02  0.43405765828E+02  0.00000000000E+00 0. -1.
         -2    1    1    2    0  502  0.34287341093E+02 -0.37757931232E+01 -0.41350916530E+03  0.41494542793E+03  0.00000000000E+00 0.  1.
</event>
<event>
 4    1  0.5792100E+003  0.2884430E+02  0.7546771E-02  0.1429912E+00
          2   -1    0    0  501    0  0.00000000000E+00  0.00000000000E+00  0.34767826039E+02  0.34767826039E+02  0.00000000000E+00 0. -1.
         -2   -1    0    0    0  501 -0.00000000000E+00 -0.00000000000E+00 -0.55356090499E+02  0.55356090499E+02  0.00000000000E+00 0. -1.
          2    1    1    2  502    0  0.15686016117E+02  0.24206253458E+02  0.23658432635E+02  0.37305699871E+02  0.00000000000E+00 0. -1.
         -2    1    1    2    0  502 -0.15686016117E+02 -0.24206253458E+02 -0.44246697095E+02  0.52818216667E+02  0.00000000000E+00 0. -1.
</event>
<event>
 4    1  0.5792100E+003  0.2493252E+02  0.7546771E-02  0.1469560E+00
          2   -1    0    0  501    0  0.00000000000E+00  0.00000000000E+00  0.18416382263E+03  0.18416382263E+03  0.00000000000E+00 0. -1.
         -2   -1    0    0    0  501 -0.00000000000E+00 -0.00000000000E+00 -0.10112507116E+03  0.10112507116E+03  0.00000000000E+00 0.  1.
          2    1    1    2  502    0 -0.11200795404E+02 -0.22274936616E+02  0.18176297622E+03  0.18346501068E+03  0.00000000000E+00 0. -1.
         -2    1    1    2    0  502  0.11200795404E+02  0.22274936616E+02 -0.98724224755E+02  0.10182388311E+03  0.00000000000E+00 0.  1.
</event>
<event>
 4    1  0.5792100E+003  0.3659119E+02  0.7546771E-02  0.1369709E+00
          2   -1    0    0  501    0  0.00000000000E+00  0.00000000000E+00  0.18108685684E+04  0.18108685684E+04  0.00000000000E+00 0. -1.
         -2   -1    0    0    0  501 -0.00000000000E+00 -0.00000000000E+00 -0.74930309958E+00  0.74930309958E+00  0.00000000000E+00 0. -1.
          2    1    1    2  502    0  0.36398319289E+02  0.37518039116E+01  0.80080199042E+03  0.80163753751E+03  0.00000000000E+00 0. -1.
         -2    1    1    2    0  502 -0.36398319289E+02 -0.37518039116E+01  0.10093172748E+04  0.10099803340E+04  0.00000000000E+00 0. -1.
</event>
<event>
 4    1  0.5792100E+003  0.2099011E+02  0.7546771E-02  0.1519406E+00
          2   -1    0    0  501    0  0.00000000000E+00  0.00000000000E+00  0.57615278524E+02  0.57615278524E+02  0.00000000000E+00 0.  1.
         -2   -1    0    0    0  501 -0.00000000000E+00 -0.00000000000E+00 -0.33135623949E+02  0.33135623949E+02  0.00000000000E+00 0. -1.
          2    1    1    2  502    0 -0.14861712029E+00 -0.20989585812E+02  0.52036472409E+02  0.56110420248E+02  0.00000000000E+00 0.  1.
         -2    1    1    2    0  502  0.14861712029E+00  0.20989585812E+02 -0.27556817835E+02  0.34640482225E+02  0.00000000000E+00 0. -1.
</event>
<event>
 4    1  0.5792100E+003  0.3240981E+02  0.7546771E-02  0.1399749E+00
          2   -1    0    0  501    0  0.00000000000E+00  0.00000000000E+00  0.46776935226E+03  0.46776935226E+03  0.00000000000E+00 0. -1.
         -2   -1    0    0    0  501 -0.00000000000E+00 -0.00000000000E+00 -0.23463277885E+01  0.23463277885E+01  0.00000000000E+00 0. -1.
          2    1    1    2  502    0  0.31972981872E+02 -0.53031977715E+01  0.28142858678E+03  0.28328862479E+03  0.00000000000E+00 0. -1.
         -2    1    1    2    0  502 -0.31972981872E+02  0.53031977715E+01  0.18399443769E+03  0.18682705526E+03  0.00000000000E+00 0. -1.
</event>
<event>
 4    1  0.6526561E+003  0.2199959E+02  0.7546771E-02  0.1505457E+00
          2   -1    0    0  501    0  0.00000000000E+00  0.00000000000E+00  0.76298027160E+03  0.76298027160E+03  0.00000000000E+00 0.  1.
         -2   -1    0    0    0  501 -0.00000000000E+00 -0.00000000000E+00 -0.16376120627E+03  0.16376120627E+03  0.00000000000E+00 0. -1.
          2    1    1    2  502    0  0.44391935737E+00 -0.21995110361E+02  0.76208196497E+03  0.76239943814E+03  0.00000000000E+00 0.  1.
         -2    1    1    2    0  502 -0.44391935737E+00  0.21995110361E+02 -0.16286289964E+03  0.16434203973E+03  0.00000000000E+00 0. -1.
</event>
<event>
 4    1  0.5792100E+003  0.2927853E+02  0.7546771E-02  0.1425971E+00
          2   -1    0    0  501    0  0.00000000000E+00  0.00000000000E+00  0.14851474066E+04  0.14851474066E+04  0.00000000000E+00 0. -1.
         -2   -1    0    0    0  501 -0.00000000000E+00 -0.00000000000E+00 -0.91033193896E+01  0.91033193896E+01  0.00000000000E+00 0.  1.
          2    1    1    2  502    0 -0.29501913528E+01 -0.29129510761E+02  0.14610735076E+04  0.14613668351E+04  0.00000000000E+00 0. -1.
         -2    1    1    2    0  502  0.29501913528E+01  0.29129510761E+02  0.14970579553E+02  0.32883890864E+02  0.00000000000E+00 0.  1.
</event>
<event>
 4    1  0.5792100E+003  0.2599533E+02  0.7546771E-02  0.1457970E+00
          2   -1    0    0  501    0  0.00000000000E+00  0.00000000000E+00  0.16336266887E+03  0.16336266887E+03  0.00000000000E+00 0.  1.
         -2   -1    0    0    0  501 -0.00000000000E+00 -0.00000000000E+00 -0.55764545572E+01  0.55764545572E+01  0.00000000000E+00 0.  1.
          2    1    1    2  502    0  0.25279027740E+02  0.60603765460E+01  0.12181594393E+03  0.12455874760E+03  0.00000000000E+00 0.  1.
         -2    1    1    2    0  502 -0.25279027740E+02 -0.60603765460E+01  0.35970270380E+02  0.44380375827E+02  0.00000000000E+00 0.  1.
</event>
<event>
 4    1  0.8823592E+003  0.2186083E+02  0.7546771E-02  0.1507321E+00
          2   -1    0    0  501    0  0.00000000000E+00  0.00000000000E+00  0.95537835435E+03  0.95537835435E+03  0.00000000000E+00 0. -1.
         -2   -1    0    0    0  501 -0.00000000000E+00 -0.00000000000E+00 -0.34663498512E+03  0.34663498512E+03  0.00000000000E+00 0. -1.
          2    1    1    2  502    0  0.19570994532E+02 -0.97402277439E+01  0.95490846275E+03  0.95515866121E+03  0.00000000000E+00 0. -1.
         -2    1    1    2    0  502 -0.19570994532E+02  0.97402277439E+01 -0.34616509351E+03  0.34685467826E+03  0.00000000000E+00 0. -1.
</event>
<event>
 4    1  0.5792100E+003  0.3074472E+02  0.7546771E-02  0.1413233E+00
          2   -1    0    0  501    0  0.00000000000E+00  0.00000000000E+00  0.68007055919E+03  0.68007055919E+03  0.00000000000E+00 0.  1.
         -2   -1    0    0    0  501 -0.00000000000E+00 -0.00000000000E+00 -0.14344233444E+01  0.14344233444E+01  0.00000000000E+00 0. -1.
          2    1    1    2  502    0  0.24534953139E+02  0.18527618353E+02  0.27929092710E+03  0.28097803922E+03  0.00000000000E+00 0. -1.
         -2    1    1    2    0  502 -0.24534953139E+02 -0.18527618353E+02  0.39934520875E+03  0.40052694331E+03  0.00000000000E+00 0.  1.
</event>
<event>
 4    1  0.5792100E+003  0.2029273E+02  0.7546771E-02  0.1529607E+00
          2   -1    0    0  501    0  0.00000000000E+00  0.00000000000E+00  0.56276917795E+02  0.56276917795E+02  0.00000000000E+00 0. -1.
         -2   -1    0    0    0  501 -0.00000000000E+00 -0.00000000000E+00 -0.20264604940E+02  0.20264604940E+02  0.00000000000E+00 0.  1.
          2    1    1    2  502    0  0.89625715362E+01  0.18206244320E+02  0.48596738496E+02  0.52663440955E+02  0.00000000000E+00 0. -1.
         -2    1    1    2    0  502 -0.89625715362E+01 -0.18206244320E+02 -0.12584425641E+02  0.23878081780E+02  0.00000000000E+00 0.  1.
</event>
<event>
 4    1  0.5792100E+003  0.2670448E+02  0.7546771E-02  0.1450599E+00
          2   -1    0    0  501    0  0.00000000000E+00  0.00000000000E+00  0.48260753215E+03  0.48260753215E+03  0.00000000000E+00 0. -1.
         -2   -1    0    0    0  501 -0.00000000000E+00 -0.00000000000E+00 -0.72823939898E+01  0.72823939898E+01  0.00000000000E+00 0.  1.
          2    1    1    2  502    0 -0.25631242953E+02  0.74945886740E+01  0.45634939319E+03  0.45713006699E+03  0.00000000000E+00 0. -1.
         -2    1    1    2    0  502  0.25631242953E+02 -0.74945886740E+01  0.18975744966E+02  0.32759859153E+02  0.00000000000E+00 0.  1.
</event>
<event>
 4    1  0.5792100E+003  0.2508354E+02  0.7546771E-02  0.1467871E+00
          2   -1    0    0  501    0  0.00000000000E+00  0.00000000000E+00  0.15320586890E+03  0.15320586890E+03  0.00000000000E+00 0.  1.
         -2   -1    0    0    0  501 -0.00000000000E+00 -0.00000000000E+00 -0.34558105718E+02  0.34558105718E+02  0.00000000000E+00 0.  1.
          2    1    1    2  502    0  0.93410077324E+01  0.23279375769E+02  0.14745116184E+03  0.14956947847E+03  0.00000000000E+00 0.  1.
         -2    1    1    2    0  502 -0.93410077324E+01 -0.23279375769E+02 -0.28803398658E+02  0.38194496147E+02  0.00000000000E+00 0.  1.
</event>
<event>
 4    1  0.5792100E+003  0.3526207E+02  0.7546771E-02  0.1378730E+00
          2   -1    0    0  501    0  0.00000000000E+00  0.00000000000E+00  0.10849497290E+04  0.10849497290E+04  0.00000000000E+00 0. -1.
         -2   -1    0    0    0  501 -0.00000000000E+00 -0.00000000000E+00 -0.16573241121E+02  0.16573241121E+02  0.00000000000E+00 0.  1.
          2    1    1    2  502    0  0.78704169945E+01 -0.34372523812E+02  0.10655657597E+04  0.10661490524E+04  0.00000000000E+00 0. -1.
         -2    1    1    2    0  502 -0.78704169945E+01  0.34372523812E+02  0.28107281850E+01  0.35373917649E+02  0.00000000000E+00 0.  1.
</event>
<event>
 4    1  0.5792100E+003  0.3766271E+02  0.7546771E-02  0.1362755E+00
          2   -1    0    0  501    0  0.00000000000E+00  0.00000000000E+00  0.23330347707E+04  0.23330347707E+04  0.00000000000E+00 0.  1.
         -2   -1    0    0    0  501 -0.00000000000E+00 -0.00000000000E+00 -0.11870591234E+01  0.11870591234E+01  0.00000000000E+00 0. -1.
          2    1    1    2  502    0 -0.32136716078E+02  0.19639535494E+02  0.19810752134E+04  0.19814331886E+04  0.00000000000E+00 0.  1.
         -2    1    1    2    0  502  0.32136716078E+02 -0.19639535494E+02  0.35077249816E+03  0.35278864118E+03  0.00000000000E+00 0. -1.
</event>
<event>
 4    1  0.5792100E+003  0.2270143E+02  0.7546771E-02  0.1496282E+00
          2   -1    0    0  501    0  0.00000000000E+00  0.00000000000E+00  0.36891746502E+03  0.36891746502E+03  0.00000000000E+00 0.  1.
         -2   -1    0    0    0  501 -0.00000000000E+00 -0.00000000000E+00 -0.20469623556E+02  0.20469623556E+02  0.00000000000E+00 0. -1.
          2    1    1    2  502    0  0.16074365904E+02 -0.16030273974E+02  0.36215670359E+03  0.36286751423E+03  0.00000000000E+00 0.  1.
         -2    1    1    2    0  502 -0.16074365904E+02  0.16030273974E+02 -0.13708862128E+02  0.26519574351E+02  0.00000000000E+00 0. -1.
</event>
<event>
 4    1  0.5792100E+003  0.2604051E+02  0.7546771E-02  0.1457492E+00
          2   -1    0    0  501    0  0.00000000000E+00  0.00000000000E+00  0.20614379811E+04  0.20614379811E+04  0.00000000000E+00 0.  1.
         -2   -1    0    0    0  501 -0.00000000000E+00 -0.00000000000E+00 -0.63760476204E+00  0.63760476204E+00  0.00000000000E+00 0.  1.
          2    1    1    2  502    0 -0.22158567052E+02  0.13678676032E+02  0.17477581083E+04  0.17479520913E+04  0.00000000000E+00 0.  1.
         -2    1    1    2    0  502  0.22158567052E+02 -0.13678676032E+02  0.31304226800E+03  0.31412349455E+03  0.00000000000E+00 0.  1.
</event>
<event>
 4    1  0.5792100E+003  0.2075312E+02  0.7546771E-02  0.1522819E+00
          2   -1    0    0  501    0  0.00000000000E+00  0.00000000000E+00  0.68847321158E+03  0.68847321158E+03  0.00000000000E+00 0. -1.
         -2   -1    0    0    0  501 -0.00000000000E+00 -0.00000000000E+00 -0.14556788842E+01  0.14556788842E+01  0.00000000000E+00 0.  1.
          2    1    1    2  502    0  0.20752510446E+02  0.15844140528E+00  0.60400875281E+03  0.60436517542E+03  0.00000000000E+00 0. -1.
         -2    1    1    2    0  502 -0.20752510446E+02 -0.15844140528E+00  0.83008779888E+02  0.85563715043E+02  0.00000000000E+00 0.  1.
</event>
<event>
 4    1  0.5792100E+003  0.2234161E+02  0.7546771E-02  0.1500935E+00
          2   -1    0    0  501    0  0.00000000000E+00  0.00000000000E+00  0.18372619915E+04  0.18372619915E+04  0.00000000000E+00 0. -1.
         -2   -1    0    0    0  501 -0.00000000000E+00 -0.00000000000E+00 -0.37656747651E+00  0.37656747651E+00  0.00000000000E+00 0.  1.
          2    1    1    2  502    0 -0.21459661848E+02 -0.62153512008E+01  0.14033627510E+04  0.14035405796E+04  0.00000000000E+00 0. -1.
         -2    1    1    2    0  502  0.21459661848E+02  0.62153512008E+01  0.43352267300E+03  0.43409797936E+03  0.00000000000E+00 0.  1.
</event>
<event>
 4    1  0.5792100E+003  0.3829730E+02  0.7546771E-02  0.1358763E+00
          2   -1    0    0  501    0  0.00000000000E+00  0.00000000000E+00  0.35665818729E+02  0.35665818729E+02  0.00000000000E+00 0. -1.
         -2   -1    0    0    0  501 -0.00000000000E+00 -0.00000000000E+00 -0.94806360800E+02  0.94806360800E+02  0.00000000000E+00 0.  1.
          2    1    1    2  502    0 -0.32962000329E+02 -0.19498450702E+02  0.19519307800E+02  0.42984723129E+02  0.00000000000E+00 0. -1.
         -2    1    1    2    0  502  0.32962000329E+02  0.19498450702E+02 -0.78659849872E+02  0.87487456400E+02  0.00000000000E+00 0.  1.
</event>
<event>
 4    1  0.5792100E+003  0.3216135E+02  0.7546771E-02  0.1401699E+00
          2   -1    0    0  501    0  0.00000000000E+00  0.00000000000E+00  0.22185508238E+04  0.22185508238E+04  0.00000000000E+00 0.  1.
         -2   -1    0    0    0  501 -0.00000000000E+00 -0.00000000000E+00 -0.86735512654E+01  0.86735512654E+01  0.00000000000E+00 0. -1.
          2    1    1    2  502    0 -0.28741727293E+02  0.14431406698E+02  0.21882074685E+04  0.21884438027E+04  0.00000000000E+00 0.  1.
         -2    1    1    2    0  502  0.28741727293E+02 -0.14431406698E+02  0.21669804069E+02  0.38780572397E+02  0.00000000000E+00 0. -1.
</event>
<event>
 4    1  0.5792100E+003  0.5821251E+02  0.7546771E-02  0.1266030E+00
          2   -1    0    0  501    0  0.00000000000E+00  0.00000000000E+00  0.74599474068E+03  0.74599474068E+03  0.00000000000E+00 0.  1.
         -2   -1    0    0    0  501 -0.00000000000E+00 -0.00000000000E+00 -0.23387772962E+02  0.23387772962E+02  0.00000000000E+00 0. -1.
          2    1    1    2  502    0  0.29143215937E+02  0.50392149925E+02  0.70662120830E+03  0.70901497010E+03  0.00000000000E+00 0.  1.
         -2    1    1    2    0  502 -0.29143215937E+02 -0.50392149925E+02  0.15985759421E+02  0.60367543543E+02  0.00000000000E+00 0. -1.
</event>
<event>
 4    1  0.5792100E+003  0.2137154E+02  0.7546771E-02  0.1514026E+00
          2   -1    0    0  501    0  0.00000000000E+00  0.00000000000E+00  0.84194236052E+01  0.84194236052E+01  0.00000000000E+00 0.  1.
         -2   -1    0    0    0  501 -0.00000000000E+00 -0.00000000000E+00 -0.96667952725E+02  0.96667952725E+02  0.00000000000E+00 0. -1.
          2    1    1    2  502    0  0.21139580145E+02 -0.31402158260E+01 -0.93177297857E+01  0.23314435282E+02  0.00000000000E+00 0.  1.
         -2    1    1    2    0  502 -0.21139580145E+02  0.31402158260E+01 -0.78930799334E+02  0.81772941048E+02  0.00000000000E+00 0. -1.
</event>
<event>
 4    1  0.5792100E+003  0.2614865E+02  0.7546771E-02  0.1456353E+00
          2   -1    0    0  501    0  0.00000000000E+00  0.00000000000E+00  0.12830754823E+04  0.12830754823E+04  0.00000000000E+00 0. -1.
         -2   -1    0    0    0  501 -0.00000000000E+00 -0.00000000000E+00 -0.23557753843E+02  0.23557753843E+02  0.00000000000E+00 0. -1.
          2    1    1    2  502    0  0.21523623987E+02  0.14848750657E+02  0.12756438666E+04  0.12759118411E+04  0.00000000000E+00 0. -1.
         -2    1    1    2    0  502 -0.21523623987E+02 -0.14848750657E+02 -0.16126138125E+02  0.30721395092E+02  0.00000000000E+00 0. -1.
</event>
<event>
 4    1  0.5792100E+003  0.2421091E+02  0.7546771E-02  0.1477828E+00
          2   -1    0    0  501    0  0.00000000000E+00  0.00000000000E+00  0.25748497065E+03  0.25748497065E+03  0.00000000000E+00 0.  1.
         -2   -1    0    0    0  501 -0.00000000000E+00 -0.00000000000E+00 -0.79700794006E+01  0.79700794006E+01  0.00000000000E+00 0.  1.
          2    1    1    2  502    0  0.23659419293E+02 -0.51381027748E+01  0.23693909396E+03  0.23817284158E+03  0.00000000000E+00 0.  1.
         -2    1    1    2    0  502 -0.23659419293E+02  0.51381027748E+01  0.12575797289E+02  0.27282208467E+02  0.00000000000E+00 0.  1.
</event>
<event>
 4    1  0.5792100E+003  0.2094953E+02  0.7546771E-02  0.1519987E+00
          2   -1    0    0  501    0  0.00000000000E+00  0.00000000000E+00  0.23194594698E+03  0.23194594698E+03  0.00000000000E+00 0.  1.
         -2   -1    0    0    0  501 -0.00000000000E+00 -0.00000000000E+00 -0.86078994258E+02  0.86078994258E+02  0.00000000000E+00 0. -1.
          2    1    1    2  502    0  0.16824011619E+02  0.12483399623E+02  0.23018854068E+03  0.23113988598E+03  0.00000000000E+00 0.  1.
         -2    1    1    2    0  502 -0.16824011619E+02 -0.12483399623E+02 -0.84321587951E+02  0.86885055260E+02  0.00000000000E+00 0. -1.
</event>
<event>
 4    1  0.5792100E+003  0.2709037E+02  0.7546771E-02  0.1446702E+00
          2   -1    0    0  501    0  0.00000000000E+00  0.00000000000E+00  0.16601344433E+01  0.16601344433E+01  0.00000000000E+00 0. -1.
         -2   -1    0    0    0  501 -0.00000000000E+00 -0.00000000000E+00 -0.44220558581E+03  0.44220558581E+03  0.00000000000E+00 0.  1.
          2    1    1    2  502    0 -0.26629565313E+02 -0.49753527977E+01 -0.21632027457E+03  0.21800997471E+03  0.00000000000E+00 0. -1.
         -2    1    1    2    0  502  0.26629565313E+02  0.49753527977E+01 -0.22422517680E+03  0.22585574554E+03  0.00000000000E+00 0.  1.
</event>
<event>
 4    1  0.5792100E+003  0.2166163E+02  0.7546771E-02  0.1510024E+00
          2   -1    0    0  501    0  0.00000000000E+00  0.00000000000E+00  0.72848169943E+03  0.72848169943E+03  0.00000000000E+00 0. -1.
         -2   -1    0    0    0  501 -0.00000000000E+00 -0.00000000000E+00 -0.14913250049E+03  0.14913250049E+03  0.00000000000E+00 0. -1.
          2    1    1    2  502    0  0.21372600973E+02 -0.35267841087E+01  0.72753305223E+03  0.72785545843E+03  0.00000000000E+00 0. -1.
         -2    1    1    2    0  502 -0.21372600973E+02  0.35267841087E+01 -0.14818385329E+03  0.14975874150E+03  0.00000000000E+00 0. -1.
</event>
<event>
 4    1  0.5792100E+003  0.6091689E+02  0.7546771E-02  0.1256749E+00
          2   -1    0    0  501    0  0.00000000000E+00  0.00000000000E+00  0.47465761924E+03  0.47465761924E+03  0.00000000000E+00 0.  1.
         -2   -1    0    0    0  501 -0.00000000000E+00 -0.00000000000E+00 -0.35262630372E+02  0.35262630372E+02  0.00000000000E+00 0.  1.
          2    1    1    2  502    0  0.59929185285E+02  0.10925186141E+02  0.44462559153E+03  0.44877921474E+03  0.00000000000E+00 0.  1.
         -2    1    1    2    0  502 -0.59929185285E+02 -0.10925186141E+02 -0.52306026590E+01  0.61141034873E+02  0.00000000000E+00 0.  1.
</event>
<event>
 4    1  0.5792100E+003  0.3586462E+02  0.7546771E-02  0.1374585E+00
          2   -1    0    0  501    0  0.00000000000E+00  0.00000000000E+00  0.16924556290E+04  0.16924556290E+04  0.00000000000E+00 0. -1.
         -2   -1    0    0    0  501 -0.00000000000E+00 -0.00000000000E+00 -0.57588664928E+01  0.57588664928E+01  0.00000000000E+00 0.  1.
          2    1    1    2  502    0  0.15169376003E+02 -0.32498629296E+02  0.16344453013E+04  0.16348387425E+04  0.00000000000E+00 0. -1.
         -2    1    1    2    0  502 -0.15169376003E+02  0.32498629296E+02  0.52251461163E+02  0.63375752998E+02  0.00000000000E+00 0.  1.
</event>
<event>
 4    1  0.5792100E+003  0.3626517E+02  0.7546771E-02  0.1371880E+00
          2   -1    0    0  501    0  0.00000000000E+00  0.00000000000E+00  0.70914662250E+03  0.70914662250E+03  0.00000000000E+00 0.  1.
         -2   -1    0    0    0  501 -0.00000000000E+00 -0.00000000000E+00 -0.65115805307E+02  0.65115805307E+02  0.00000000000E+00 0.  1.
          2    1    1    2  502    0  0.60070890742E+01  0.35764191116E+02  0.70359383558E+03  0.70452781915E+03  0.00000000000E+00 0.  1.
         -2    1    1    2    0  502 -0.60070890742E+01 -0.35764191116E+02 -0.59563018388E+02  0.69734608659E+02  0.00000000000E+00 0.  1.
</event>
<event>
 4    1  0.5792100E+003  0.3094419E+02  0.7546771E-02  0.1411565E+00
          2   -1    0    0  501    0  0.00000000000E+00  0.00000000000E+00  0.14207905229E+02  0.14207905229E+02  0.00000000000E+00 0.  1.
         -2   -1    0    0    0  501 -0.00000000000E+00 -0.00000000000E+00 -0.51387064995E+03  0.51387064995E+03  0.00000000000E+00 0.  1.
          2    1    1    2  502    0  0.78044471562E+00  0.30934349994E+02 -0.37150184035E+01  0.31166399620E+02  0.00000000000E+00 0.  1.
         -2    1    1    2    0  502 -0.78044471562E+00 -0.30934349994E+02 -0.49594772632E+03  0.49691215556E+03  0.00000000000E+00 0.  1.
</event>
<event>
 4    1  0.5792100E+003  0.3052791E+02  0.7546771E-02  0.1415063E+00
          2   -1    0    0  501    0  0.00000000000E+00  0.00000000000E+00  0.43280978376E+02  0.43280978376E+02  0.00000000000E+00 0.  1.
         -2   -1    0    0    0  501 -0.00000000000E+00 -0.00000000000E+00 -0.23663096516E+02  0.23663096516E+02  0.00000000000E+00 0.  1.
          2    1    1    2  502    0 -0.23350368803E+02 -0.19665036463E+02  0.19852404489E+02  0.36415262547E+02  0.00000000000E+00 0.  1.
         -2    1    1    2    0  502  0.23350368803E+02  0.19665036463E+02 -0.23452262842E+00  0.30528812345E+02  0.00000000000E+00 0.  1.
</event>
<event>
 4    1  0.5792100E+003  0.2811244E+02  0.7546771E-02  0.1436742E+00
          2   -1    0    0  501    0  0.00000000000E+00  0.00000000000E+00  0.33823208909E+03  0.33823208909E+03  0.00000000000E+00 0.  1.
         -2   -1    0    0    0  501 -0.00000000000E+00 -0.00000000000E+00 -0.24802931284E+01  0.24802931284E+01  0.00000000000E+00 0.  1.
          2    1    1    2  502    0  0.55310607307E+01  0.27562962654E+02  0.20888122739E+03  0.21076450531E+03  0.00000000000E+00 0.  1.
         -2    1    1    2    0  502 -0.55310607307E+01 -0.27562962654E+02  0.12687056857E+03  0.12994787691E+03  0.00000000000E+00 0.  1.
</event>
<event>
 4    1  0.5792100E+003  0.2083813E+02  0.7546771E-02  0.1521589E+00
          2   -1    0    0  501    0  0.00000000000E+00  0.00000000000E+00  0.93007378226E+02  0.93007378226E+02  0.00000000000E+00 0. -1.
         -2   -1    0    0    0  501 -0.00000000000E+00 -0.00000000000E+00 -0.46754012145E+01  0.46754012145E+01  0.00000000000E+00 0. -1.
          2    1    1    2  502    0  0.10678152080E+02  0.17894266043E+02  0.46008911986E+02  0.50507897117E+02  0.00000000000E+00 0. -1.
         -2    1    1    2    0  502 -0.10678152080E+02 -0.17894266043E+02  0.42323065026E+02  0.47174882324E+02  0.00000000000E+00 0. -1.
</event>
<event>
 4    1  0.5792100E+003  0.2579247E+02  0.7546771E-02  0.1460130E+00
          2   -1    0    0  501    0  0.00000000000E+00  0.00000000000E+00  0.10868064646E+01  0.10868064646E+01  0.00000000000E+00 0.  1.
         -2   -1    0    0    0  501 -0.00000000000E+00 -0.00000000000E+00 -0.76617131485E+03  0.76617131485E+03  0.00000000000E+00 0.  1.
          2    1    1    2  502    0  0.57135332397E+01  0.25151666863E+02 -0.55456582482E+03  0.55516529509E+03  0.00000000000E+00 0.  1.
         -2    1    1    2    0  502 -0.57135332397E+01 -0.25151666863E+02 -0.21051868356E+03  0.21209282622E+03  0.00000000000E+00 0.  1.
</event>
<event>
 4    1  0.5792100E+003  0.2344162E+02  0.7546771E-02  0.1487026E+00
          2   -1    0    0  501    0  0.00000000000E+00  0.00000000000E+00  0.27150702137E+03  0.27150702137E+03  0.00000000000E+00 0. -1.
         -2   -1    0    0    0  501 -0.00000000000E+00 -0.00000000000E+00 -0.68128399883E+01  0.68128399883E+01  0.00000000000E+00 0.  1.
          2    1    1    2  502    0  0.23044942056E+02 -0.42941934965E+01  0.24901965394E+03  0.25012056593E+03  0.00000000000E+00 0. -1.
         -2    1    1    2    0  502 -0.23044942056E+02  0.42941934965E+01  0.15674527439E+02  0.28199295427E+02  0.00000000000E+00 0.  1.
</event>
<event>
 4    1  0.5792100E+003  0.4627202E+02  0.7546771E-02  0.1315199E+00
          2   -1    0    0  501    0  0.00000000000E+00  0.00000000000E+00  0.21359065620E+04  0.21359065620E+04  0.00000000000E+00 0. -1.
         -2   -1    0    0    0  501 -0.00000000000E+00 -0.00000000000E+00 -0.14450921516E+02  0.14450921516E+02  0.00000000000E+00 0. -1.
          2    1    1    2  502    0 -0.45021205312E+02  0.10686029884E+02  0.20979448989E+04  0.20984551220E+04  0.00000000000E+00 0. -1.
         -2    1    1    2    0  502  0.45021205312E+02 -0.10686029884E+02  0.23510741580E+02  0.51902361527E+02  0.00000000000E+00 0. -1.
</event>
<event>
 4    1  0.6178010E+003  0.3104884E+02  0.7546771E-02  0.1410696E+00
          2   -1    0    0  501    0  0.00000000000E+00  0.00000000000E+00  0.19218798203E+04  0.19218798203E+04  0.00000000000E+00 0. -1.
         -2   -1    0    0    0  501 -0.00000000000E+00 -0.00000000000E+00 -0.16263082575E+03  0.16263082575E+03  0.00000000000E+00 0. -1.
          2    1    1    2  502    0 -0.30628723675E+02 -0.50903487654E+01  0.19202712465E+04  0.19205222442E+04  0.00000000000E+00 0. -1.
         -2    1    1    2    0  502  0.30628723675E+02  0.50903487654E+01 -0.16102225188E+03  0.16398840192E+03  0.00000000000E+00 0. -1.
</event>
<event>
 4    1  0.5792100E+003  0.2176882E+02  0.7546771E-02  0.1508565E+00
          2   -1    0    0  501    0  0.00000000000E+00  0.00000000000E+00  0.28172490837E+03  0.28172490837E+03  0.00000000000E+00 0.  1.
         -2   -1    0    0    0  501 -0.00000000000E+00 -0.00000000000E+00 -0.70738458994E+01  0.70738458994E+01  0.00000000000E+00 0.  1.
          2    1    1    2  502    0 -0.15712618131E+02 -0.15066365249E+02  0.26339308829E+03  0.26429112866E+03  0.00000000000E+00 0.  1.
         -2    1    1    2    0  502  0.15712618131E+02  0.15066365249E+02  0.11257974183E+02  0.24507625610E+02  0.00000000000E+00 0.  1.
</event>
<event>
 4    1  0.5792100E+003  0.6780080E+02  0.7546771E-02  0.1235408E+00
          2   -1    0    0  501    0  0.00000000000E+00  0.00000000000E+00  0.20796355410E+04  0.20796355410E+04  0.00000000000E+00 0.  1.
         -2   -1    0    0    0  501 -0.00000000000E+00 -0.00000000000E+00 -0.79804146687E+01  0.79804146687E+01  0.00000000000E+00 0.  1.
          2    1    1    2  502    0  0.67693489541E+01  0.67462023107E+02  0.19233802215E+04  0.19245748687E+04  0.00000000000E+00 0.  1.
         -2    1    1    2    0  502 -0.67693489541E+01 -0.67462023107E+02  0.14827490480E+03  0.16304108697E+03  0.00000000000E+00 0.  1.
</event>
<event>
 4    1  0.5792100E+003  0.2570086E+02  0.7546771E-02  0.1461114E+00
          2   -1    0    0  501    0  0.00000000000E+00  0.00000000000E+00  0.19400251480E+03  0.19400251480E+03  0.00000000000E+00 0.  1.
         -2   -1    0    0    0  501 -0.00000000000E+00 -0.00000000000E+00 -0.41098158055E+02  0.41098158055E+02  0.00000000000E+00 0.  1.
          2    1    1    2  502    0 -0.16705384049E+02  0.19531107701E+02  0.18902804081E+03  0.19076722527E+03  0.00000000000E+00 0.  1.
         -2    1    1    2    0  502  0.16705384049E+02 -0.19531107701E+02 -0.36123684067E+02  0.44333447585E+02  0.00000000000E+00 0.  1.
</event>
<event>
 4    1  0.5792100E+003  0.2287285E+02  0.7546771E-02  0.1494101E+00
          2   -1    0    0  501    0  0.00000000000E+00  0.00000000000E+00  0.12350148563E+02  0.12350148563E+02  0.00000000000E+00 0.  1.
         -2   -1    0    0    0  501 -0.00000000000E+00 -0.00000000000E+00 -0.41528593019E+03  0.41528593019E+03  0.00000000000E+00 0. -1.
          2    1    1    2  502    0 -0.11032097428E+02 -0.20036473840E+02  0.11516421695E+01  0.22901828252E+02  0.00000000000E+00 0.  1.
         -2    1    1    2    0  502  0.11032097428E+02  0.20036473840E+02 -0.40408742380E+03  0.40473425050E+03  0.00000000000E+00 0. -1.
</event>
<event>
 4    1  0.5792100E+003  0.2178924E+02  0.7546771E-02  0.1508288E+00
          2   -1    0    0  501    0  0.00000000000E+00  0.00000000000E+00  0.14530293596E+04  0.14530293596E+04  0.00000000000E+00 0.  1.
         -2   -1    0    0    0  501 -0.00000000000E+00 -0.00000000000E+00 -0.17267324556E+01  0.17267324556E+01  0.00000000000E+00 0. -1.
          2    1    1    2  502    0  0.11006605715E+02 -0.18804933691E+02  0.13806035768E+04  0.13807755094E+04  0.00000000000E+00 0.  1.
         -2    1    1    2    0  502 -0.11006605715E+02  0.18804933691E+02  0.70699050357E+02  0.73980582735E+02  0.00000000000E+00 0. -1.
</event>
<event>
 4    1  0.5792100E+003  0.3700230E+02  0.7546771E-02  0.1367008E+00
          2   -1    0    0  501    0  0.00000000000E+00  0.00000000000E+00  0.79967126377E+03  0.79967126377E+03  0.00000000000E+00 0.  1.
         -2   -1    0    0    0  501 -0.00000000000E+00 -0.00000000000E+00 -0.25482381764E+01  0.25482381764E+01  0.00000000000E+00 0.  1.
          2    1    1    2  502    0  0.26237242814E+02 -0.26091710989E+02  0.62831651980E+03  0.62940513133E+03  0.00000000000E+00 0.  1.
         -2    1    1    2    0  502 -0.26237242814E+02  0.26091710989E+02  0.16880650580E+03  0.17281437062E+03  0.00000000000E+00 0.  1.
</event>
<event>
 4    1  0.5792100E+003  0.2896194E+02  0.7546771E-02  0.1428837E+00
          2   -1    0    0  501    0  0.00000000000E+00  0.00000000000E+00  0.68955438151E+03  0.68955438151E+03  0.00000000000E+00 0. -1.
         -2   -1    0    0    0  501 -0.00000000000E+00 -0.00000000000E+00 -0.13707102960E+01  0.13707102960E+01  0.00000000000E+00 0. -1.
          2    1    1    2  502    0  0.28213831867E+01 -0.28824173750E+02  0.22819107008E+03  0.23002164607E+03  0.00000000000E+00 0. -1.
         -2    1    1    2    0  502 -0.28213831867E+01  0.28824173750E+02  0.45999260114E+03  0.46090344575E+03  0.00000000000E+00 0. -1.
</event>
<event>
 4    1  0.5792100E+003  0.2790371E+02  0.7546771E-02  0.1438735E+00
          2   -1    0    0  501    0  0.00000000000E+00  0.00000000000E+00  0.24144716110E+02  0.24144716110E+02  0.00000000000E+00 0. -1.
         -2   -1    0    0    0  501 -0.00000000000E+00 -0.00000000000E+00 -0.49991873189E+03  0.49991873189E+03  0.00000000000E+00 0. -1.
          2    1    1    2  502    0  0.26190842846E+02 -0.96258262409E+01  0.15552492566E+02  0.31945215679E+02  0.00000000000E+00 0. -1.
         -2    1    1    2    0  502 -0.26190842846E+02  0.96258262409E+01 -0.49132650835E+03  0.49211823233E+03  0.00000000000E+00 0. -1.
</event>
<event>
 4    1  0.5792100E+003  0.2151694E+02  0.7546771E-02  0.1512011E+00
          2   -1    0    0  501    0  0.00000000000E+00  0.00000000000E+00  0.18258575333E+04  0.18258575333E+04  0.00000000000E+00 0. -1.
         -2   -1    0    0    0  501 -0.00000000000E+00 -0.00000000000E+00 -0.38464071753E+00  0.38464071753E+00  0.00000000000E+00 0.  1.
          2    1    1    2  502    0 -0.15724528240E+02  0.14687334749E+02  0.14457733858E+04  0.14459334915E+04  0.00000000000E+00 0. -1.
         -2    1    1    2    0  502  0.15724528240E+02 -0.14687334749E+02  0.37969950680E+03  0.38030868259E+03  0.00000000000E+00 0.  1.
</event>
<event>
 4    1  0.5792100E+003  0.2293373E+02  0.7546771E-02  0.1493332E+00
          2   -1    0    0  501    0  0.00000000000E+00  0.00000000000E+00  0.10745181149E+04  0.10745181149E+04  0.00000000000E+00 0.  1.
         -2   -1    0    0    0  501 -0.00000000000E+00 -0.00000000000E+00 -0.78969745063E+00  0.78969745063E+00  0.00000000000E+00 0.  1.
          2    1    1    2  502    0  0.21558443470E+02  0.78223633152E+01  0.86836908055E+03  0.86867186895E+03  0.00000000000E+00 0.  1.
         -2    1    1    2    0  502 -0.21558443470E+02 -0.78223633152E+01  0.20535933691E+03  0.20663594341E+03  0.00000000000E+00 0.  1.
</event>
<event>
 4    1  0.5792100E+003  0.2910138E+02  0.7546771E-02  0.1427569E+00
          2   -1    0    0  501    0  0.00000000000E+00  0.00000000000E+00  0.22749563986E+03  0.22749563986E+03  0.00000000000E+00 0.  1.
         -2   -1    0    0    0  501 -0.00000000000E+00 -0.00000000000E+00 -0.12005704089E+02  0.12005704089E+02  0.00000000000E+00 0. -1.
          2    1    1    2  502    0 -0.22007259753E+02  0.19041286755E+02  0.20721196204E+03  0.20924551918E+03  0.00000000000E+00 0.  1.
         -2    1    1    2    0  502  0.22007259753E+02 -0.19041286755E+02  0.82779737218E+01  0.30255824762E+02  0.00000000000E+00 0. -1.
</event>
<event>
 4    1  0.5792100E+003  0.3054067E+02  0.7546771E-02  0.1414955E+00
          2   -1    0    0  501    0  0.00000000000E+00  0.00000000000E+00  0.66955718573E+03  0.66955718573E+03  0.00000000000E+00 0.  1.
         -2   -1    0    0    0  501 -0.00000000000E+00 -0.00000000000E+00 -0.90561741432E+01  0.90561741432E+01  0.00000000000E+00 0.  1.
          2    1    1    2  502    0  0.28696747265E+02  0.10451277794E+02  0.64237130421E+03  0.64309690171E+03  0.00000000000E+00 0.  1.
         -2    1    1    2    0  502 -0.28696747265E+02 -0.10451277794E+02  0.18129707374E+02  0.35516458165E+02  0.00000000000E+00 0.  1.
</event>
<event>
 4    1  0.5792100E+003  0.2669633E+02  0.7546771E-02  0.1450683E+00
          2   -1    0    0  501    0  0.00000000000E+00  0.00000000000E+00  0.11419923926E+04  0.11419923926E+04  0.00000000000E+00 0.  1.
         -2   -1    0    0    0  501 -0.00000000000E+00 -0.00000000000E+00 -0.57224358678E+01  0.57224358678E+01  0.00000000000E+00 0. -1.
          2    1    1    2  502    0 -0.24850314759E+02 -0.97547952363E+01  0.11097972908E+04  0.11101183364E+04  0.00000000000E+00 0.  1.
         -2    1    1    2    0  502  0.24850314759E+02  0.97547952363E+01  0.26472665952E+02  0.37596492075E+02  0.00000000000E+00 0. -1.
</event>
<event>
 4    1  0.5792100E+003  0.3441527E+02  0.7546771E-02  0.1384721E+00
          2   -1    0    0  501    0  0.00000000000E+00  0.00000000000E+00  0.16716708698E+03  0.16716708698E+03  0.00000000000E+00 0. -1.
         -2   -1    0    0    0  501 -0.00000000000E+00 -0.00000000000E+00 -0.69098296708E+03  0.69098296708E+03  0.00000000000E+00 0. -1.
          2    1    1    2  502    0 -0.18121388027E+02  0.29257925762E+02  0.16496159681E+03  0.16851332098E+03  0.00000000000E+00 0. -1.
         -2    1    1    2    0  502  0.18121388027E+02 -0.29257925762E+02 -0.68877747691E+03  0.68963673309E+03  0.00000000000E+00 0. -1.
</event>
<event>
 4    1  0.5792100E+003  0.3128814E+02  0.7546771E-02  0.1408723E+00
          2   -1    0    0  501    0  0.00000000000E+00  0.00000000000E+00  0.18594437246E+02  0.18594437246E+02  0.00000000000E+00 0.  1.
         -2   -1    0    0    0  501 -0.00000000000E+00 -0.00000000000E+00 -0.77605549893E+03  0.77605549893E+03  0.00000000000E+00 0.  1.
          2    1    1    2  502    0 -0.30994724230E+02  0.42748960390E+01  0.48805717010E+01  0.31666506697E+02  0.00000000000E+00 0.  1.
         -2    1    1    2    0  502  0.30994724230E+02 -0.42748960390E+01 -0.76234163338E+03  0.76298342948E+03  0.00000000000E+00 0.  1.
</event>
<event>
 4    1  0.5792100E+003  0.3787934E+02  0.7546771E-02  0.1361382E+00
          2   -1    0    0  501    0  0.00000000000E+00  0.00000000000E+00  0.13756507760E+03  0.13756507760E+03  0.00000000000E+00 0.  1.
         -2   -1    0    0    0  501 -0.00000000000E+00 -0.00000000000E+00 -0.10473731820E+02  0.10473731820E+02  0.00000000000E+00 0.  1.
          2    1    1    2  502    0 -0.37077762987E+02  0.77514030104E+01  0.68312273509E+02  0.78111532239E+02  0.00000000000E+00 0.  1.
         -2    1    1    2    0  502  0.37077762987E+02 -0.77514030104E+01  0.58779072267E+02  0.69927277176E+02  0.00000000000E+00 0.  1.
</event>
<event>
 4    1  0.5792100E+003  0.2847437E+02  0.7546771E-02  0.1433335E+00
          2   -1    0    0  501    0  0.00000000000E+00  0.00000000000E+00  0.38140074438E+03  0.38140074438E+03  0.00000000000E+00 0. -1.
         -2   -1    0    0    0  501 -0.00000000000E+00 -0.00000000000E+00 -0.76608906908E+01  0.76608906908E+01  0.00000000000E+00 0. -1.
          2    1    1    2  502    0 -0.22080792477E+02  0.17978545078E+02  0.35222226854E+03  0.35337135698E+03  0.00000000000E+00 0. -1.
         -2    1    1    2    0  502  0.22080792477E+02 -0.17978545078E+02  0.21517585152E+02  0.35690278093E+02  0.00000000000E+00 0. -1.
</event>
<event>
 4    1  0.5792100E+003  0.2875901E+02  0.7546771E-02  0.1430696E+00
          2   -1    0    0  501    0  0.00000000000E+00  0.00000000000E+00  0.17556778330E+04  0.17556778330E+04  0.00000000000E+00 0.  1.
         -2   -1    0    0    0  501 -0.00000000000E+00 -0.00000000000E+00 -0.81631888899E+01  0.81631888899E+01  0.00000000000E+00 0.  1.
          2    1    1    2  502    0  0.77801748209E+01 -0.27686628492E+02  0.17298523562E+04  0.17300914007E+04  0.00000000000E+00 0.  1.
         -2    1    1    2    0  502 -0.77801748209E+01  0.27686628492E+02  0.17662287944E+02  0.33749621226E+02  0.00000000000E+00 0.  1.
</event>
<event>
 4    1  0.5792100E+003  0.2482563E+02  0.7546771E-02  0.1470764E+00
          2   -1    0    0  501    0  0.00000000000E+00  0.00000000000E+00  0.24586711682E+03  0.24586711682E+03  0.00000000000E+00 0.  1.
         -2   -1    0    0    0  501 -0.00000000000E+00 -0.00000000000E+00 -0.56583545160E+02  0.56583545160E+02  0.00000000000E+00 0. -1.
          2    1    1    2  502    0 -0.17877387426E+02 -0.17225305089E+02  0.24247948297E+03  0.24374702414E+03  0.00000000000E+00 0.  1.
         -2    1    1    2    0  502  0.17877387426E+02  0.17225305089E+02 -0.53195911304E+02  0.58703637843E+02  0.00000000000E+00 0. -1.
</event>
<event>
 4    1  0.5792100E+003  0.2034870E+02  0.7546771E-02  0.1528770E+00
          2   -1    0    0  501    0  0.00000000000E+00  0.00000000000E+00  0.49732017700E+03  0.49732017700E+03  0.00000000000E+00 0. -1.
         -2   -1    0    0    0  501 -0.00000000000E+00 -0.00000000000E+00 -0.32762743855E+01  0.32762743855E+01  0.00000000000E+00 0. -1.
          2    1    1    2  502    0 -0.17755845551E+02  0.99398001437E+01  0.46318882692E+03  0.46363558865E+03  0.00000000000E+00 0. -1.
         -2    1    1    2    0  502  0.17755845551E+02 -0.99398001437E+01  0.30855075696E+02  0.36960862738E+02  0.00000000000E+00 0. -1.
</event>
<event>
 4    1  0.5792100E+003  0.3197340E+02  0.7546771E-02  0.1403189E+00
          2   -1    0    0  501    0  0.00000000000E+00  0.00000000000E+00  0.32485747591E+03  0.32485747591E+03  0.00000000000E+00 0. -1.
         -2   -1    0    0    0  501 -0.00000000000E+00 -0.00000000000E+00 -0.45129345479E+03  0.45129345479E+03  0.00000000000E+00 0. -1.
          2    1    1    2  502    0  0.21500110057E+02  0.23665234345E+02  0.32350206523E+03  0.32507827405E+03  0.00000000000E+00 0. -1.
         -2    1    1    2    0  502 -0.21500110057E+02 -0.23665234345E+02 -0.44993804410E+03  0.45107265665E+03  0.00000000000E+00 0. -1.
</event>
<event>
 4    1  0.5792100E+003  0.1476725E+03  0.7546771E-02  0.1100026E+00
          2   -1    0    0  501    0  0.00000000000E+00  0.00000000000E+00  0.22929660535E+04  0.22929660535E+04  0.00000000000E+00 0. -1.
         -2   -1    0    0    0  501 -0.00000000000E+00 -0.00000000000E+00 -0.11143893130E+02  0.11143893130E+02  0.00000000000E+00 0.  1.
          2    1    1    2  502    0  0.11449463674E+03 -0.93263780588E+02  0.15819793725E+04  0.15888567870E+04  0.00000000000E+00 0. -1.
         -2    1    1    2    0  502 -0.11449463674E+03  0.93263780588E+02  0.69984278785E+03  0.71525315960E+03  0.00000000000E+00 0.  1.
</event>
<event>
 4    1  0.5792100E+003  0.2250178E+02  0.7546771E-02  0.1498851E+00
          2   -1    0    0  501    0  0.00000000000E+00  0.00000000000E+00  0.73032345863E+03  0.73032345863E+03  0.00000000000E+00 0. -1.
         -2   -1    0    0    0  501 -0.00000000000E+00 -0.00000000000E+00 -0.85160614173E+01  0.85160614173E+01  0.00000000000E+00 0.  1.
          2    1    1    2  502    0  0.18511855364E+02 -0.12792229043E+02  0.71496698730E+03  0.71532099287E+03  0.00000000000E+00 0. -1.
         -2    1    1    2    0  502 -0.18511855364E+02  0.12792229043E+02  0.68404099161E+01  0.23518527180E+02  0.00000000000E+00 0.  1.
</event>
<event>
 4    1  0.5792100E+003  0.2521168E+02  0.7546771E-02  0.1466449E+00
          2   -1    0    0  501    0  0.00000000000E+00  0.00000000000E+00  0.21439437269E+03  0.21439437269E+03  0.00000000000E+00 0. -1.
         -2   -1    0    0    0  501 -0.00000000000E+00 -0.00000000000E+00 -0.25522887545E+02  0.25522887545E+02  0.00000000000E+00 0.  1.
          2    1    1    2  502    0 -0.23035251621E+02 -0.10247246292E+02  0.20721210245E+03  0.20874023157E+03  0.00000000000E+00 0. -1.
         -2    1    1    2    0  502  0.23035251621E+02  0.10247246292E+02 -0.18340617299E+02  0.31177028671E+02  0.00000000000E+00 0.  1.
</event>
<event>
 4    1  0.5792100E+003  0.2237171E+02  0.7546771E-02  0.1500542E+00
          2   -1    0    0  501    0  0.00000000000E+00  0.00000000000E+00  0.44492849303E+03  0.44492849303E+03  0.00000000000E+00 0.  1.
         -2   -1    0    0    0  501 -0.00000000000E+00 -0.00000000000E+00 -0.54986104372E+02  0.54986104372E+02  0.00000000000E+00 0. -1.
          2    1    1    2  502    0  0.22280020199E+02 -0.20233700795E+01  0.44235851541E+03  0.44292386421E+03  0.00000000000E+00 0.  1.
         -2    1    1    2    0  502 -0.22280020199E+02  0.20233700795E+01 -0.52416126753E+02  0.56990733197E+02  0.00000000000E+00 0. -1.
</event>
<event>
 4    1  0.5792100E+003  0.3367578E+02  0.7546771E-02  0.1390120E+00
          2   -1    0    0  501    0  0.00000000000E+00  0.00000000000E+00  0.44897417142E+03  0.44897417142E+03  0.00000000000E+00 0.  1.
         -2   -1    0    0    0  501 -0.00000000000E+00 -0.00000000000E+00 -0.58587478763E+01  0.58587478763E+01  0.00000000000E+00 0.  1.
          2    1    1    2  502    0 -0.31185653967E+02 -0.12708769968E+02  0.39308298028E+03  0.39452286021E+03  0.00000000000E+00 0.  1.
         -2    1    1    2    0  502  0.31185653967E+02  0.12708769968E+02  0.50032443271E+02  0.60310059087E+02  0.00000000000E+00 0.  1.
</event>
<event>
 4    1  0.5792100E+003  0.3077586E+02  0.7546771E-02  0.1412972E+00
          2   -1    0    0  501    0  0.00000000000E+00  0.00000000000E+00  0.17494615701E+02  0.17494615701E+02  0.00000000000E+00 0.  1.
         -2   -1    0    0    0  501 -0.00000000000E+00 -0.00000000000E+00 -0.10074144354E+04  0.10074144354E+04  0.00000000000E+00 0.  1.
          2    1    1    2  502    0 -0.30764970547E+02  0.81868214982E+00  0.35344905229E+01  0.30978158055E+02  0.00000000000E+00 0.  1.
         -2    1    1    2    0  502  0.30764970547E+02 -0.81868214982E+00 -0.99345431018E+03  0.99393089301E+03  0.00000000000E+00 0.  1.
</event>
<event>
 4    1  0.5792100E+003  0.2383702E+02  0.7546771E-02  0.1482247E+00
          2   -1    0    0  501    0  0.00000000000E+00  0.00000000000E+00  0.13769830433E+04  0.13769830433E+04  0.00000000000E+00 0.  1.
         -2   -1    0    0    0  501 -0.00000000000E+00 -0.00000000000E+00 -0.60347222649E+01  0.60347222649E+01  0.00000000000E+00 0.  1.
          2    1    1    2  502    0  0.13264395419E+01 -0.23800088170E+02  0.13529223623E+04  0.13531323373E+04  0.00000000000E+00 0.  1.
         -2    1    1    2    0  502 -0.13264395419E+01  0.23800088170E+02  0.18025958741E+02  0.29885428343E+02  0.00000000000E+00 0.  1.
</event>
<event>
 4    1  0.5792100E+003  0.2325342E+02  0.7546771E-02  0.1489340E+00
          2   -1    0    0  501    0  0.00000000000E+00  0.00000000000E+00  0.10356287099E+01  0.10356287099E+01  0.00000000000E+00 0.  1.
         -2   -1    0    0    0  501 -0.00000000000E+00 -0.00000000000E+00 -0.55427321067E+03  0.55427321067E+03  0.00000000000E+00 0.  1.
          2    1    1    2  502    0 -0.60436788742E+01 -0.22454295432E+02 -0.20974414442E+03  0.21102921020E+03  0.00000000000E+00 0.  1.
         -2    1    1    2    0  502  0.60436788742E+01  0.22454295432E+02 -0.34349343754E+03  0.34427962919E+03  0.00000000000E+00 0.  1.
</event>
<event>
 4    1  0.5792100E+003  0.4002696E+02  0.7546771E-02  0.1348328E+00
          2   -1    0    0  501    0  0.00000000000E+00  0.00000000000E+00  0.15764891120E+03  0.15764891120E+03  0.00000000000E+00 0. -1.
         -2   -1    0    0    0  501 -0.00000000000E+00 -0.00000000000E+00 -0.17625532115E+03  0.17625532115E+03  0.00000000000E+00 0.  1.
          2    1    1    2  502    0 -0.99734620825E+01  0.38764509674E+02  0.15276425481E+03  0.15792110278E+03  0.00000000000E+00 0. -1.
         -2    1    1    2    0  502  0.99734620825E+01 -0.38764509674E+02 -0.17137066476E+03  0.17598312958E+03  0.00000000000E+00 0.  1.
</event>
<event>
 4    1  0.5792100E+003  0.3500340E+02  0.7546771E-02  0.1380539E+00
          2   -1    0    0  501    0  0.00000000000E+00  0.00000000000E+00  0.25043426756E+02  0.25043426756E+02  0.00000000000E+00 0. -1.
         -2   -1    0    0    0  501 -0.00000000000E+00 -0.00000000000E+00 -0.48969464129E+02  0.48969464129E+02  0.00000000000E+00 0. -1.
          2    1    1    2  502    0  0.53012072704E+01 -0.34599625837E+02 -0.13084498148E+02  0.37368984444E+02  0.00000000000E+00 0. -1.
         -2    1    1    2    0  502 -0.53012072704E+01  0.34599625837E+02 -0.10841539225E+02  0.36643906442E+02  0.00000000000E+00 0. -1.
</event>
<event>
 4    1  0.5792100E+003  0.2660198E+02  0.7546771E-02  0.1451648E+00
          2   -1    0    0  501    0  0.00000000000E+00  0.00000000000E+00  0.96478186871E+03  0.96478186871E+03  0.00000000000E+00 0.  1.
         -2   -1    0    0    0  501 -0.00000000000E+00 -0.00000000000E+00 -0.35934541905E+01  0.35934541905E+01  0.00000000000E+00 0. -1.
          2    1    1    2  502    0  0.17488517165E+02  0.20045381358E+02  0.91254806195E+03  0.91293572113E+03  0.00000000000E+00 0.  1.
         -2    1    1    2    0  502 -0.17488517165E+02 -0.20045381358E+02  0.48640352573E+02  0.55439601774E+02  0.00000000000E+00 0. -1.
</event>
<event>
 4    1  0.5792100E+003  0.2483721E+02  0.7546771E-02  0.1470633E+00
          2   -1    0    0  501    0  0.00000000000E+00  0.00000000000E+00  0.27873616926E+02  0.27873616926E+02  0.00000000000E+00 0. -1.
         -2   -1    0    0    0  501 -0.00000000000E+00 -0.00000000000E+00 -0.18127857919E+03  0.18127857919E+03  0.00000000000E+00 0. -1.
          2    1    1    2  502    0 -0.46605661194E+01 -0.24396026217E+02  0.21282254790E+02  0.32708123466E+02  0.00000000000E+00 0. -1.
         -2    1    1    2    0  502  0.46605661194E+01  0.24396026217E+02 -0.17468721706E+03  0.17644407265E+03  0.00000000000E+00 0. -1.
</event>
<event>
 4    1  0.5792100E+003  0.2382153E+02  0.7546771E-02  0.1482432E+00
          2   -1    0    0  501    0  0.00000000000E+00  0.00000000000E+00  0.15058007895E+03  0.15058007895E+03  0.00000000000E+00 0. -1.
         -2   -1    0    0    0  501 -0.00000000000E+00 -0.00000000000E+00 -0.60567605119E+01  0.60567605119E+01  0.00000000000E+00 0. -1.
          2    1    1    2  502    0 -0.23820739248E+02 -0.19360389371E+00  0.12040030638E+03  0.12273426122E+03  0.00000000000E+00 0. -1.
         -2    1    1    2    0  502  0.23820739248E+02  0.19360389371E+00  0.24123012062E+02  0.33902578246E+02  0.00000000000E+00 0. -1.
</event>
<event>
 4    1  0.5792100E+003  0.2112493E+02  0.7546771E-02  0.1517489E+00
          2   -1    0    0  501    0  0.00000000000E+00  0.00000000000E+00  0.20883887502E+03  0.20883887502E+03  0.00000000000E+00 0. -1.
         -2   -1    0    0    0  501 -0.00000000000E+00 -0.00000000000E+00 -0.95467276547E+01  0.95467276547E+01  0.00000000000E+00 0.  1.
          2    1    1    2  502    0  0.19517419934E+02 -0.80828903171E+01  0.19584528149E+03  0.19698131149E+03  0.00000000000E+00 0. -1.
         -2    1    1    2    0  502 -0.19517419934E+02  0.80828903171E+01  0.34468658822E+01  0.21404291186E+02  0.00000000000E+00 0.  1.
</event>
<event>
 4    1  0.5792100E+003  0.5060755E+02  0.7546771E-02  0.1295560E+00
          2   -1    0    0  501    0  0.00000000000E+00  0.00000000000E+00  0.10252602672E+04  0.10252602672E+04  0.00000000000E+00 0.  1.
         -2   -1    0    0    0  501 -0.00000000000E+00 -0.00000000000E+00 -0.13966057992E+03  0.13966057992E+03  0.00000000000E+00 0. -1.
          2    1    1    2  502    0  0.48258065699E+02  0.15240825291E+02  0.10200277080E+04  0.10212823551E+04  0.00000000000E+00 0.  1.
         -2    1    1    2    0  502 -0.48258065699E+02 -0.15240825291E+02 -0.13442802070E+03  0.14363849209E+03  0.00000000000E+00 0. -1.
</event>
<event>
 4    1  0.5792100E+003  0.3695124E+02  0.7546771E-02  0.1367341E+00
          2   -1    0    0  501    0  0.00000000000E+00  0.00000000000E+00  0.44037360638E+03  0.44037360638E+03  0.00000000000E+00 0. -1.
         -2   -1    0    0    0  501 -0.00000000000E+00 -0.00000000000E+00 -0.13916416219E+02  0.13916416219E+02  0.00000000000E+00 0. -1.
          2    1    1    2  502    0  0.19861986571E+02  0.31159197562E+02  0.41347763297E+03  0.41512545943E+03  0.00000000000E+00 0. -1.
         -2    1    1    2    0  502 -0.19861986571E+02 -0.31159197562E+02  0.12979557194E+02  0.39164563168E+02  0.00000000000E+00 0. -1.
</event>
<event>
 4    1  0.5792100E+003  0.2414164E+02  0.7546771E-02  0.1478639E+00
          2   -1    0    0  501    0  0.00000000000E+00  0.00000000000E+00  0.63405894627E+02  0.63405894627E+02  0.00000000000E+00 0. -1.
         -2   -1    0    0    0  501 -0.00000000000E+00 -0.00000000000E+00 -0.22682652750E+02  0.22682652750E+02  0.00000000000E+00 0. -1.
          2    1    1    2  502    0  0.24141414950E+02 -0.10370023752E+00  0.53557720190E+02  0.58747323866E+02  0.00000000000E+00 0. -1.
         -2    1    1    2    0  502 -0.24141414950E+02  0.10370023752E+00 -0.12834478313E+02  0.27341223511E+02  0.00000000000E+00 0. -1.
</event>
<event>
 4    1  0.5792100E+003  0.2496929E+02  0.7546771E-02  0.1469147E+00
          2   -1    0    0  501    0  0.00000000000E+00  0.00000000000E+00  0.13001352581E+04  0.13001352581E+04  0.00000000000E+00 0.  1.
         -2   -1    0    0    0  501 -0.00000000000E+00 -0.00000000000E+00 -0.14981079365E+02  0.14981079365E+02  0.00000000000E+00 0. -1.
          2    1    1    2  502    0  0.20587469737E+02  0.14128753192E+02  0.12895255631E+04  0.12897672827E+04  0.00000000000E+00 0.  1.
         -2    1    1    2    0  502 -0.20587469737E+02 -0.14128753192E+02 -0.43713843711E+01  0.25349054780E+02  0.00000000000E+00 0. -1.
</event>
<event>
 4    1  0.5792100E+003  0.8659061E+02  0.7546771E-02  0.1189321E+00
          2   -1    0    0  501    0  0.00000000000E+00  0.00000000000E+00  0.11113446843E+04  0.11113446843E+04  0.00000000000E+00 0. -1.
         -2   -1    0    0    0  501 -0.00000000000E+00 -0.00000000000E+00 -0.13474281681E+02  0.13474281681E+02  0.00000000000E+00 0.  1.
          2    1    1    2  502    0  0.47962725383E+02  0.72093764545E+02  0.94633587153E+03  0.95028917475E+03  0.00000000000E+00 0. -1.
         -2    1    1    2    0  502 -0.47962725383E+02 -0.72093764545E+02  0.15153453108E+03  0.17452979122E+03  0.00000000000E+00 0.  1.
</event>
<event>
 4    1  0.5792100E+003  0.3528436E+02  0.7546771E-02  0.1378575E+00
          2   -1    0    0  501    0  0.00000000000E+00  0.00000000000E+00  0.62564636481E+03  0.62564636481E+03  0.00000000000E+00 0.  1.
         -2   -1    0    0    0  501 -0.00000000000E+00 -0.00000000000E+00 -0.56089298224E+02  0.56089298224E+02  0.00000000000E+00 0. -1.
          2    1    1    2  502    0  0.27193901822E+01 -0.35179416266E+02  0.61954515546E+03  0.62054910045E+03  0.00000000000E+00 0.  1.
         -2    1    1    2    0  502 -0.27193901822E+01  0.35179416266E+02 -0.49988088874E+02  0.61186562586E+02  0.00000000000E+00 0. -1.
</event>
<event>
 4    1  0.5792100E+003  0.4279183E+02  0.7546771E-02  0.1332859E+00
          2   -1    0    0  501    0  0.00000000000E+00  0.00000000000E+00  0.20351029997E+02  0.20351029997E+02  0.00000000000E+00 0.  1.
         -2   -1    0    0    0  501 -0.00000000000E+00 -0.00000000000E+00 -0.94167780769E+02  0.94167780769E+02  0.00000000000E+00 0. -1.
          2    1    1    2  502    0 -0.41176785796E+02  0.11645229289E+02 -0.48986691726E+02  0.65044869282E+02  0.00000000000E+00 0.  1.
         -2    1    1    2    0  502  0.41176785796E+02 -0.11645229289E+02 -0.24830059046E+02  0.49473941484E+02  0.00000000000E+00 0. -1.
</event>
<event>
 4    1  0.5792100E+003  0.2955115E+02  0.7546771E-02  0.1423538E+00
          2   -1    0    0  501    0  0.00000000000E+00  0.00000000000E+00  0.22727427954E+03  0.22727427954E+03  0.00000000000E+00 0. -1.
         -2   -1    0    0    0  501 -0.00000000000E+00 -0.00000000000E+00 -0.29344876774E+02  0.29344876774E+02  0.00000000000E+00 0. -1.
          2    1    1    2  502    0  0.23856062757E+02  0.17440147863E+02  0.21857936404E+03  0.22056792348E+03  0.00000000000E+00 0. -1.
         -2    1    1    2    0  502 -0.23856062757E+02 -0.17440147863E+02 -0.20649961273E+02  0.36051232826E+02  0.00000000000E+00 0. -1.
</event>
<event>
 4    1  0.5792100E+003  0.2551208E+02  0.7546771E-02  0.1463155E+00
          2   -1    0    0  501    0  0.00000000000E+00  0.00000000000E+00  0.94577405142E+03  0.94577405142E+03  0.00000000000E+00 0.  1.
         -2   -1    0    0    0  501 -0.00000000000E+00 -0.00000000000E+00 -0.98468204607E+01  0.98468204607E+01  0.00000000000E+00 0. -1.
          2    1    1    2  502    0  0.13896882119E+02  0.21394931602E+02  0.92877482510E+03  0.92912514882E+03  0.00000000000E+00 0.  1.
         -2    1    1    2    0  502 -0.13896882119E+02 -0.21394931602E+02  0.71524058589E+01  0.26495723060E+02  0.00000000000E+00 0. -1.
</event>
<event>
 4    1  0.5792100E+003  0.2805573E+02  0.7546771E-02  0.1437282E+00
          2   -1    0    0  501    0  0.00000000000E+00  0.00000000000E+00  0.50753285851E+03  0.50753285851E+03  0.00000000000E+00 0.  1.
         -2   -1    0    0    0  501 -0.00000000000E+00 -0.00000000000E+00 -0.18433453008E+02  0.18433453008E+02  0.00000000000E+00 0. -1.
          2    1    1    2  502    0 -0.71035897168E+01  0.27141532089E+02  0.49622690211E+03  0.49701937802E+03  0.00000000000E+00 0.  1.
         -2    1    1    2    0  502  0.71035897168E+01 -0.27141532089E+02 -0.71274966077E+01  0.28946933498E+02  0.00000000000E+00 0. -1.
</event>
<event>
 4    1  0.5792100E+003  0.2160781E+02  0.7546771E-02  0.1510761E+00
          2   -1    0    0  501    0  0.00000000000E+00  0.00000000000E+00  0.44749682870E+03  0.44749682870E+03  0.00000000000E+00 0. -1.
         -2   -1    0    0    0  501 -0.00000000000E+00 -0.00000000000E+00 -0.27147272156E+03  0.27147272156E+03  0.00000000000E+00 0.  1.
          2    1    1    2  502    0 -0.15087171875E+02 -0.15468502102E+02  0.44680535828E+03  0.44732753716E+03  0.00000000000E+00 0. -1.
         -2    1    1    2    0  502  0.15087171875E+02  0.15468502102E+02 -0.27078125114E+03  0.27164201310E+03  0.00000000000E+00 0.  1.
</event>
<event>
 4    1  0.5792100E+003  0.3854882E+02  0.7546771E-02  0.1357206E+00
          2   -1    0    0  501    0  0.00000000000E+00  0.00000000000E+00  0.36016322999E+03  0.36016322999E+03  0.00000000000E+00 0. -1.
         -2   -1    0    0    0  501 -0.00000000000E+00 -0.00000000000E+00 -0.60193775530E+01  0.60193775530E+01  0.00000000000E+00 0. -1.
          2    1    1    2  502    0  0.12542078187E+01  0.38528410440E+02  0.27975942007E+03  0.28240280552E+03  0.00000000000E+00 0. -1.
         -2    1    1    2    0  502 -0.12542078187E+01 -0.38528410440E+02  0.74384432370E+02  0.83779802025E+02  0.00000000000E+00 0. -1.
</event>
<event>
 4    1  0.5792100E+003  0.2029105E+02  0.7546771E-02  0.1529632E+00
          2   -1    0    0  501    0  0.00000000000E+00  0.00000000000E+00  0.28415486903E+03  0.28415486903E+03  0.00000000000E+00 0.  1.
         -2   -1    0    0    0  501 -0.00000000000E+00 -0.00000000000E+00 -0.83970035652E+02  0.83970035652E+02  0.00000000000E+00 0. -1.
          2    1    1    2  502    0 -0.19535231255E+01 -0.20196790545E+02  0.28255990667E+03  0.28328753495E+03  0.00000000000E+00 0.  1.
         -2    1    1    2    0  502  0.19535231255E+01  0.20196790545E+02 -0.82375073298E+02  0.84837369725E+02  0.00000000000E+00 0. -1.
</event>
<event>
 4    1  0.5792100E+003  0.5920387E+02  0.7546771E-02  0.1262562E+00
          2   -1    0    0  501    0  0.00000000000E+00  0.00000000000E+00  0.27040395639E+03  0.27040395639E+03  0.00000000000E+00 0.  1.
         -2   -1    0    0    0  501 -0.00000000000E+00 -0.00000000000E+00 -0.70975512872E+03  0.70975512872E+03  0.00000000000E+00 0. -1.
          2    1    1    2  502    0  0.59133891006E+02 -0.28778010378E+01  0.26590810557E+03  0.27241919795E+03  0.00000000000E+00 0.  1.
         -2    1    1    2    0  502 -0.59133891006E+02  0.28778010378E+01 -0.70525927790E+03  0.70773988715E+03  0.00000000000E+00 0. -1.
</event>
<event>
 4    1  0.5792100E+003  0.2913669E+02  0.7546771E-02  0.1427250E+00
          2   -1    0    0  501    0  0.00000000000E+00  0.00000000000E+00  0.14521509812E+03  0.14521509812E+03  0.00000000000E+00 0. -1.
         -2   -1    0    0    0  501 -0.00000000000E+00 -0.00000000000E+00 -0.66878145888E+02  0.66878145888E+02  0.00000000000E+00 0. -1.
          2    1    1    2  502    0  0.18301547564E+02  0.22671568689E+02  0.14047410488E+03  0.14346400528E+03  0.00000000000E+00 0. -1.
         -2    1    1    2    0  502 -0.18301547564E+02 -0.22671568689E+02 -0.62137152643E+02  0.68629238730E+02  0.00000000000E+00 0. -1.
</event>
<event>
 4    1  0.5792100E+003  0.3916473E+02  0.7546771E-02  0.1353451E+00
          2   -1    0    0  501    0  0.00000000000E+00  0.00000000000E+00  0.12235276127E+03  0.12235276127E+03  0.00000000000E+00 0.  1.
         -2   -1    0    0    0  501 -0.00000000000E+00 -0.00000000000E+00 -0.43820287311E+02  0.43820287311E+02  0.00000000000E+00 0.  1.
          2    1    1    2  502    0 -0.23655061748E+01 -0.39093222923E+02  0.10946874476E+03  0.11626384553E+03  0.00000000000E+00 0.  1.
         -2    1    1    2    0  502  0.23655061748E+01  0.39093222923E+02 -0.30936270801E+02  0.49909203050E+02  0.00000000000E+00 0.  1.
</event>
<event>
 4    1  0.5792100E+003  0.3605943E+02  0.7546771E-02  0.1373264E+00
          2   -1    0    0  501    0  0.00000000000E+00  0.00000000000E+00  0.24284858372E+04  0.24284858372E+04  0.00000000000E+00 0.  1.
         -2   -1    0    0    0  501 -0.00000000000E+00 -0.00000000000E+00 -0.60589882329E+01  0.60589882329E+01  0.00000000000E+00 0.  1.
          2    1    1    2  502    0 -0.35918017239E+02 -0.31903893408E+01  0.23734571757E+04  0.23737310816E+04  0.00000000000E+00 0.  1.
         -2    1    1    2    0  502  0.35918017239E+02  0.31903893408E+01  0.48969673230E+02  0.60813743864E+02  0.00000000000E+00 0.  1.
</event>
<event>
 4    1  0.5792100E+003  0.2869686E+02  0.7546771E-02  0.1431269E+00
          2   -1    0    0  501    0  0.00000000000E+00  0.00000000000E+00  0.88635364148E+03  0.88635364148E+03  0.00000000000E+00 0.  1.
         -2   -1    0    0    0  501 -0.00000000000E+00 -0.00000000000E+00 -0.34022326892E+01  0.34022326892E+01  0.00000000000E+00 0. -1.
          2    1    1    2  502    0  0.20014715132E+02  0.20565045840E+02  0.82077557373E+03  0.82127708623E+03  0.00000000000E+00 0.  1.
         -2    1    1    2    0  502 -0.20014715132E+02 -0.20565045840E+02  0.62175835055E+02  0.68478787935E+02  0.00000000000E+00 0. -1.
</event>
<event>
 4    1  0.5792100E+003  0.2169473E+02  0.7546771E-02  0.1509573E+00
          2   -1    0    0  501    0  0.00000000000E+00  0.00000000000E+00  0.50606658877E+03  0.50606658877E+03  0.00000000000E+00 0. -1.
         -2   -1    0    0    0  501 -0.00000000000E+00 -0.00000000000E+00 -0.14921517664E+02  0.14921517664E+02  0.00000000000E+00 0. -1.
          2    1    1    2  502    0 -0.17258454544E+02 -0.13145613203E+02  0.49781786289E+03  0.49829036315E+03  0.00000000000E+00 0. -1.
         -2    1    1    2    0  502  0.17258454544E+02  0.13145613203E+02 -0.66727917861E+01  0.22697743279E+02  0.00000000000E+00 0. -1.
</event>
<event>
 4    1  0.5792100E+003  0.2302372E+02  0.7546771E-02  0.1492200E+00
          2   -1    0    0  501    0  0.00000000000E+00  0.00000000000E+00  0.39231080072E+03  0.39231080072E+03  0.00000000000E+00 0.  1.
         -2   -1    0    0    0  501 -0.00000000000E+00 -0.00000000000E+00 -0.29227885350E+01  0.29227885350E+01  0.00000000000E+00 0.  1.
          2    1    1    2  502    0 -0.83290524215E+01 -0.21464357951E+02  0.33960257854E+03  0.34038214279E+03  0.00000000000E+00 0.  1.
         -2    1    1    2    0  502  0.83290524215E+01  0.21464357951E+02  0.49785433639E+02  0.54851446463E+02  0.00000000000E+00 0.  1.
</event>
<event>
 4    1  0.5792100E+003  0.5303179E+02  0.7546771E-02  0.1285537E+00
          2   -1    0    0  501    0  0.00000000000E+00  0.00000000000E+00  0.13631309389E+04  0.13631309389E+04  0.00000000000E+00 0. -1.
         -2   -1    0    0    0  501 -0.00000000000E+00 -0.00000000000E+00 -0.19669854814E+02  0.19669854814E+02  0.00000000000E+00 0.  1.
          2    1    1    2  502    0  0.22222066561E+01  0.52985206408E+02  0.13258662352E+04  0.13269263898E+04  0.00000000000E+00 0. -1.
         -2    1    1    2    0  502 -0.22222066561E+01 -0.52985206408E+02  0.17594848820E+02  0.55874403849E+02  0.00000000000E+00 0.  1.
</event>
<event>
 4    1  0.5792100E+003  0.2463625E+02  0.7546771E-02  0.1472914E+00
          2   -1    0    0  501    0  0.00000000000E+00  0.00000000000E+00  0.83688362908E+03  0.83688362908E+03  0.00000000000E+00 0. -1.
         -2   -1    0    0    0  501 -0.00000000000E+00 -0.00000000000E+00 -0.26430529495E+01  0.26430529495E+01  0.00000000000E+00 0.  1.
          2    1    1    2  502    0  0.93032587563E+01  0.22812154299E+02  0.77468464674E+03  0.77507628456E+03  0.00000000000E+00 0. -1.
         -2    1    1    2    0  502 -0.93032587563E+01 -0.22812154299E+02  0.59555929394E+02  0.64450397463E+02  0.00000000000E+00 0.  1.
</event>
<event>
 4    1  0.5792100E+003  0.4307469E+02  0.7546771E-02  0.1331353E+00
          2   -1    0    0  501    0  0.00000000000E+00  0.00000000000E+00  0.31962196743E+03  0.31962196743E+03  0.00000000000E+00 0.  1.
         -2   -1    0    0    0  501 -0.00000000000E+00 -0.00000000000E+00 -0.68988351792E+02  0.68988351792E+02  0.00000000000E+00 0. -1.
          2    1    1    2  502    0  0.62340809656E+01 -0.42621180321E+02  0.31126738419E+03  0.31423369208E+03  0.00000000000E+00 0.  1.
         -2    1    1    2    0  502 -0.62340809656E+01  0.42621180321E+02 -0.60633768548E+02  0.74376627147E+02  0.00000000000E+00 0. -1.
</event>
<event>
 4    1  0.5792100E+003  0.3006652E+02  0.7546771E-02  0.1419019E+00
          2   -1    0    0  501    0  0.00000000000E+00  0.00000000000E+00  0.93323878013E+02  0.93323878013E+02  0.00000000000E+00 0. -1.
         -2   -1    0    0    0  501 -0.00000000000E+00 -0.00000000000E+00 -0.54634142705E+02  0.54634142705E+02  0.00000000000E+00 0. -1.
          2    1    1    2  502    0 -0.29625946116E+02  0.51282703479E+01  0.86445896821E+02  0.91525345764E+02  0.00000000000E+00 0. -1.
         -2    1    1    2    0  502  0.29625946116E+02 -0.51282703479E+01 -0.47756161513E+02  0.56432674954E+02  0.00000000000E+00 0. -1.
</event>
<event>
 4    1  0.5792100E+003  0.2471274E+02  0.7546771E-02  0.1472043E+00
          2   -1    0    0  501    0  0.00000000000E+00  0.00000000000E+00  0.22084688709E+03  0.22084688709E+03  0.00000000000E+00 0. -1.
         -2   -1    0    0    0  501 -0.00000000000E+00 -0.00000000000E+00 -0.27890000000E+01  0.27890000000E+01  0.00000000000E+00 0. -1.
          2    1    1    2  502    0 -0.23824441106E+02 -0.65662352474E+01  0.11932526335E+03  0.12185744915E+03  0.00000000000E+00 0. -1.
         -2    1    1    2    0  502  0.23824441106E+02  0.65662352474E+01  0.98732623744E+02  0.10177843795E+03  0.00000000000E+00 0. -1.
</event>
<event>
 4    1  0.5792100E+003  0.2643328E+02  0.7546771E-02  0.1453385E+00
          2   -1    0    0  501    0  0.00000000000E+00  0.00000000000E+00  0.38788850406E+03  0.38788850406E+03  0.00000000000E+00 0. -1.
         -2   -1    0    0    0  501 -0.00000000000E+00 -0.00000000000E+00 -0.97547343038E+01  0.97547343038E+01  0.00000000000E+00 0. -1.
          2    1    1    2  502    0 -0.24472921653E+02  0.99897204860E+01  0.36859488290E+03  0.36954148091E+03  0.00000000000E+00 0. -1.
         -2    1    1    2    0  502  0.24472921653E+02 -0.99897204860E+01  0.95388868519E+01  0.28101757454E+02  0.00000000000E+00 0. -1.
</event>
<event>
 4    1  0.5792100E+003  0.2282860E+02  0.7546771E-02  0.1494662E+00
          2   -1    0    0  501    0  0.00000000000E+00  0.00000000000E+00  0.16879502210E+04  0.16879502210E+04  0.00000000000E+00 0.  1.
         -2   -1    0    0    0  501 -0.00000000000E+00 -0.00000000000E+00 -0.62260046746E+00  0.62260046746E+00  0.00000000000E+00 0. -1.
          2    1    1    2  502    0 -0.22754594438E+02 -0.18367389952E+01  0.14431101909E+04  0.14432907428E+04  0.00000000000E+00 0.  1.
         -2    1    1    2    0  502  0.22754594438E+02  0.18367389952E+01  0.24421742963E+03  0.24528207867E+03  0.00000000000E+00 0. -1.
</event>
<event>
 4    1  0.5792100E+003  0.2003727E+02  0.7546771E-02  0.1533467E+00
          2   -1    0    0  501    0  0.00000000000E+00  0.00000000000E+00  0.22203699463E+03  0.22203699463E+03  0.00000000000E+00 0.  1.
         -2   -1    0    0    0  501 -0.00000000000E+00 -0.00000000000E+00 -0.31418431183E+02  0.31418431183E+02  0.00000000000E+00 0. -1.
          2    1    1    2  502    0  0.37656530294E+01 -0.19680249488E+02  0.21833618174E+03  0.21925369009E+03  0.00000000000E+00 0.  1.
         -2    1    1    2    0  502 -0.37656530294E+01  0.19680249488E+02 -0.27717618291E+02  0.34201735722E+02  0.00000000000E+00 0. -1.
</event>
<event>
 4    1  0.5792100E+003  0.5723585E+02  0.7546771E-02  0.1269525E+00
          2   -1    0    0  501    0  0.00000000000E+00  0.00000000000E+00  0.16448587196E+02  0.16448587196E+02  0.00000000000E+00 0. -1.
         -2   -1    0    0    0  501 -0.00000000000E+00 -0.00000000000E+00 -0.25053742307E+03  0.25053742307E+03  0.00000000000E+00 0. -1.
          2    1    1    2  502    0 -0.53302233261E+02  0.20852202181E+02 -0.56594233578E+02  0.80491301895E+02  0.00000000000E+00 0. -1.
         -2    1    1    2    0  502  0.53302233261E+02 -0.20852202181E+02 -0.17749460229E+03  0.18649470837E+03  0.00000000000E+00 0. -1.
</event>
<event>
 4    1  0.5792100E+003  0.2563581E+02  0.7546771E-02  0.1461815E+00
          2   -1    0    0  501    0  0.00000000000E+00  0.00000000000E+00  0.69125947039E+03  0.69125947039E+03  0.00000000000E+00 0. -1.
         -2   -1    0    0    0  501 -0.00000000000E+00 -0.00000000000E+00 -0.49414040252E+02  0.49414040252E+02  0.00000000000E+00 0. -1.
          2    1    1    2  502    0 -0.62981404284E+01  0.24850109623E+02  0.68767954912E+03  0.68815721808E+03  0.00000000000E+00 0. -1.
         -2    1    1    2    0  502  0.62981404284E+01 -0.24850109623E+02 -0.45834118983E+02  0.52516292559E+02  0.00000000000E+00 0. -1.
</event>
<event>
 4    1  0.5792100E+003  0.2230775E+02  0.7546771E-02  0.1501379E+00
          2   -1    0    0  501    0  0.00000000000E+00  0.00000000000E+00  0.39509295091E+03  0.39509295091E+03  0.00000000000E+00 0.  1.
         -2   -1    0    0    0  501 -0.00000000000E+00 -0.00000000000E+00 -0.23465609910E+03  0.23465609910E+03  0.00000000000E+00 0. -1.
          2    1    1    2  502    0  0.14302669508E+02  0.17119267982E+02  0.39424675313E+03  0.39487737090E+03  0.00000000000E+00 0.  1.
         -2    1    1    2    0  502 -0.14302669508E+02 -0.17119267982E+02 -0.23380990133E+03  0.23487167911E+03  0.00000000000E+00 0. -1.
</event>
<event>
 4    1  0.5792100E+003  0.4598633E+02  0.7546771E-02  0.1316580E+00
          2   -1    0    0  501    0  0.00000000000E+00  0.00000000000E+00  0.10311926808E+04  0.10311926808E+04  0.00000000000E+00 0.  1.
         -2   -1    0    0    0  501 -0.00000000000E+00 -0.00000000000E+00 -0.36229912302E+01  0.36229912302E+01  0.00000000000E+00 0.  1.
          2    1    1    2  502    0 -0.10369444960E+02 -0.44801973459E+02  0.85462892831E+03  0.85586526236E+03  0.00000000000E+00 0.  1.
         -2    1    1    2    0  502  0.10369444960E+02  0.44801973459E+02  0.17294076122E+03  0.17895040963E+03  0.00000000000E+00 0.  1.
</event>
<event>
 4    1  0.5792100E+003  0.2864288E+02  0.7546771E-02  0.1431768E+00
          2   -1    0    0  501    0  0.00000000000E+00  0.00000000000E+00  0.14759530092E+04  0.14759530092E+04  0.00000000000E+00 0.  1.
         -2   -1    0    0    0  501 -0.00000000000E+00 -0.00000000000E+00 -0.25271785038E+02  0.25271785038E+02  0.00000000000E+00 0.  1.
          2    1    1    2  502    0 -0.23851945963E+02  0.15858733972E+02  0.14676522315E+04  0.14679317040E+04  0.00000000000E+00 0.  1.
         -2    1    1    2    0  502  0.23851945963E+02 -0.15858733972E+02 -0.16971007368E+02  0.33293090281E+02  0.00000000000E+00 0.  1.
</event>
<event>
 4    1  0.5792100E+003  0.3673056E+02  0.7546771E-02  0.1368789E+00
          2   -1    0    0  501    0  0.00000000000E+00  0.00000000000E+00  0.22473085331E+03  0.22473085331E+03  0.00000000000E+00 0. -1.
         -2   -1    0    0    0  501 -0.00000000000E+00 -0.00000000000E+00 -0.85565972507E+01  0.85565972507E+01  0.00000000000E+00 0.  1.
          2    1    1    2  502    0  0.36713905130E+02  0.11059987963E+01  0.17180463136E+03  0.17568712366E+03  0.00000000000E+00 0. -1.
         -2    1    1    2    0  502 -0.36713905130E+02 -0.11059987963E+01  0.44369624705E+02  0.57600326906E+02  0.00000000000E+00 0.  1.
</event>
<event>
 4    1  0.5792100E+003  0.3749889E+02  0.7546771E-02  0.1363800E+00
          2   -1    0    0  501    0  0.00000000000E+00  0.00000000000E+00  0.30503272858E+03  0.30503272858E+03  0.00000000000E+00 0.  1.
         -2   -1    0    0    0  501 -0.00000000000E+00 -0.00000000000E+00 -0.13685382390E+02  0.13685382390E+02  0.00000000000E+00 0. -1.
          2    1    1    2  502    0 -0.43748848498E+01 -0.37242817571E+02  0.27544638984E+03  0.27798719530E+03  0.00000000000E+00 0.  1.
         -2    1    1    2    0  502  0.43748848498E+01  0.37242817571E+02  0.15900956353E+02  0.40730915667E+02  0.00000000000E+00 0. -1.
</event>
<event>
 4    1  0.5792100E+003  0.3909819E+02  0.7546771E-02  0.1353853E+00
          2   -1    0    0  501    0  0.00000000000E+00  0.00000000000E+00  0.12223970297E+04  0.12223970297E+04  0.00000000000E+00 0.  1.
         -2   -1    0    0    0  501 -0.00000000000E+00 -0.00000000000E+00 -0.61342258949E+02  0.61342258949E+02  0.00000000000E+00 0.  1.
          2    1    1    2  502    0 -0.17253796681E+02  0.35085253260E+02  0.12158206232E+04  0.12164491179E+04  0.00000000000E+00 0.  1.
         -2    1    1    2    0  502  0.17253796681E+02 -0.35085253260E+02 -0.54765852435E+02  0.67290170822E+02  0.00000000000E+00 0.  1.
</event>
<event>
 4    1  0.5792100E+003  0.2228945E+02  0.7546771E-02  0.1501619E+00
          2   -1    0    0  501    0  0.00000000000E+00  0.00000000000E+00  0.34698057805E+02  0.34698057805E+02  0.00000000000E+00 0. -1.
         -2   -1    0    0    0  501 -0.00000000000E+00 -0.00000000000E+00 -0.33237431156E+02  0.33237431156E+02  0.00000000000E+00 0. -1.
          2    1    1    2  502    0  0.15380898514E+02 -0.16132192687E+02  0.26357607753E+02  0.34518736454E+02  0.00000000000E+00 0. -1.
         -2    1    1    2    0  502 -0.15380898514E+02  0.16132192687E+02 -0.24896981103E+02  0.33416752506E+02  0.00000000000E+00 0. -1.
</event>
<event>
 4    1  0.5792100E+003  0.2629554E+02  0.7546771E-02  0.1454816E+00
          2   -1    0    0  501    0  0.00000000000E+00  0.00000000000E+00  0.32908727162E+02  0.32908727162E+02  0.00000000000E+00 0.  1.
         -2   -1    0    0    0  501 -0.00000000000E+00 -0.00000000000E+00 -0.33135831362E+02  0.33135831362E+02  0.00000000000E+00 0.  1.
          2    1    1    2  502    0  0.18866074380E+02  0.18317387884E+02  0.19861614737E+02  0.32953591631E+02  0.00000000000E+00 0.  1.
         -2    1    1    2    0  502 -0.18866074380E+02 -0.18317387884E+02 -0.20088718937E+02  0.33090966894E+02  0.00000000000E+00 0.  1.
</event>
<event>
 4    1  0.5792100E+003  0.5671519E+02  0.7546771E-02  0.1271421E+00
          2   -1    0    0  501    0  0.00000000000E+00  0.00000000000E+00  0.38141622813E+03  0.38141622813E+03  0.00000000000E+00 0. -1.
         -2   -1    0    0    0  501 -0.00000000000E+00 -0.00000000000E+00 -0.10079155519E+02  0.10079155519E+02  0.00000000000E+00 0. -1.
          2    1    1    2  502    0  0.50732976713E+02 -0.25353054631E+02  0.26476832098E+03  0.27077458540E+03  0.00000000000E+00 0. -1.
         -2    1    1    2    0  502 -0.50732976713E+02  0.25353054631E+02  0.10656875164E+03  0.12072079825E+03  0.00000000000E+00 0. -1.
</event>
<event>
 4    1  0.5792100E+003  0.2696178E+02  0.7546771E-02  0.1447992E+00
          2   -1    0    0  501    0  0.00000000000E+00  0.00000000000E+00  0.87222533199E+02  0.87222533199E+02  0.00000000000E+00 0.  1.
         -2   -1    0    0    0  501 -0.00000000000E+00 -0.00000000000E+00 -0.83511845842E+01  0.83511845842E+01  0.00000000000E+00 0. -1.
          2    1    1    2  502    0 -0.46268341567E+01  0.26561812621E+02  0.41585322812E+02  0.49560836932E+02  0.00000000000E+00 0.  1.
         -2    1    1    2    0  502  0.46268341567E+01 -0.26561812621E+02  0.37286025803E+02  0.46012880851E+02  0.00000000000E+00 0. -1.
</event>
<event>
 4    1  0.5792100E+003  0.2170901E+02  0.7546771E-02  0.1509378E+00
          2   -1    0    0  501    0  0.00000000000E+00  0.00000000000E+00  0.45575687400E+03  0.45575687400E+03  0.00000000000E+00 0. -1.
         -2   -1    0    0    0  501 -0.00000000000E+00 -0.00000000000E+00 -0.21749570605E+02  0.21749570605E+02  0.00000000000E+00 0.  1.
          2    1    1    2  502    0 -0.83465682927E+01  0.20040357282E+02  0.45001211324E+03  0.45053544054E+03  0.00000000000E+00 0. -1.
         -2    1    1    2    0  502  0.83465682927E+01 -0.20040357282E+02 -0.16004809841E+02  0.26971004065E+02  0.00000000000E+00 0.  1.
</event>
<event>
 4    1  0.5792100E+003  0.2926447E+02  0.7546771E-02  0.1426098E+00
          2   -1    0    0  501    0  0.00000000000E+00  0.00000000000E+00  0.13752680969E+04  0.13752680969E+04  0.00000000000E+00 0. -1.
         -2   -1    0    0    0  501 -0.00000000000E+00 -0.00000000000E+00 -0.64227426475E+00  0.64227426475E+00  0.00000000000E+00 0.  1.
          2    1    1    2  502    0  0.20502657703E+02 -0.20881816646E+02  0.80734632060E+03  0.80787653179E+03  0.00000000000E+00 0. -1.
         -2    1    1    2    0  502 -0.20502657703E+02  0.20881816646E+02  0.56727950199E+03  0.56803383932E+03  0.00000000000E+00 0.  1.
</event>
<event>
 4    1  0.5792100E+003  0.2193908E+02  0.7546771E-02  0.1506268E+00
          2   -1    0    0  501    0  0.00000000000E+00  0.00000000000E+00  0.26128229105E+02  0.26128229105E+02  0.00000000000E+00 0.  1.
         -2   -1    0    0    0  501 -0.00000000000E+00 -0.00000000000E+00 -0.10595962915E+03  0.10595962915E+03  0.00000000000E+00 0.  1.
          2    1    1    2  502    0  0.18077575925E+00 -0.21938334456E+02  0.20113302354E+02  0.29763536923E+02  0.00000000000E+00 0.  1.
         -2    1    1    2    0  502 -0.18077575925E+00  0.21938334456E+02 -0.99944702399E+02  0.10232432133E+03  0.00000000000E+00 0.  1.
</event>
<event>
 4    1  0.5792100E+003  0.2540601E+02  0.7546771E-02  0.1464312E+00
          2   -1    0    0  501    0  0.00000000000E+00  0.00000000000E+00  0.97254461597E+02  0.97254461597E+02  0.00000000000E+00 0. -1.
         -2   -1    0    0    0  501 -0.00000000000E+00 -0.00000000000E+00 -0.13427903994E+03  0.13427903994E+03  0.00000000000E+00 0. -1.
          2    1    1    2  502    0 -0.24154230714E+02 -0.78764425679E+01  0.94357267662E+02  0.97717752582E+02  0.00000000000E+00 0. -1.
         -2    1    1    2    0  502  0.24154230714E+02  0.78764425679E+01 -0.13138184600E+03  0.13381574895E+03  0.00000000000E+00 0. -1.
</event>
<event>
 4    1  0.5792100E+003  0.2243231E+02  0.7546771E-02  0.1499752E+00
          2   -1    0    0  501    0  0.00000000000E+00  0.00000000000E+00  0.48445767552E+03  0.48445767552E+03  0.00000000000E+00 0. -1.
         -2   -1    0    0    0  501 -0.00000000000E+00 -0.00000000000E+00 -0.18803325020E+01  0.18803325020E+01  0.00000000000E+00 0.  1.
          2    1    1    2  502    0 -0.15011916838E+02  0.16668858287E+02  0.40397494674E+03  0.40459728877E+03  0.00000000000E+00 0. -1.
         -2    1    1    2    0  502  0.15011916838E+02 -0.16668858287E+02  0.78602396276E+02  0.81740719253E+02  0.00000000000E+00 0.  1.
</event>
<event>
 4    1  0.5830258E+003  0.2764202E+02  0.7546771E-02  0.1441263E+00
          2   -1    0    0  501    0  0.00000000000E+00  0.00000000000E+00  0.47892789365E+03  0.47892789365E+03  0.00000000000E+00 0. -1.
         -2   -1    0    0    0  501 -0.00000000000E+00 -0.00000000000E+00 -0.35867927784E+03  0.35867927784E+03  0.00000000000E+00 0. -1.
          2    1    1    2  502    0 -0.27448675563E+02 -0.32636770766E+01  0.47799543983E+03  0.47879402865E+03  0.00000000000E+00 0. -1.
         -2    1    1    2    0  502  0.27448675563E+02  0.32636770766E+01 -0.35774682401E+03  0.35881314283E+03  0.00000000000E+00 0. -1.
</event>
<event>
 4    1  0.5792100E+003  0.2251598E+02  0.7546771E-02  0.1498667E+00
          2   -1    0    0  501    0  0.00000000000E+00  0.00000000000E+00  0.12691113088E+04  0.12691113088E+04  0.00000000000E+00 0. -1.
         -2   -1    0    0    0  501 -0.00000000000E+00 -0.00000000000E+00 -0.27883705450E+02  0.27883705450E+02  0.00000000000E+00 0. -1.
          2    1    1    2  502    0  0.22347069777E+02 -0.27527792950E+01  0.12644492938E+04  0.12646497483E+04  0.00000000000E+00 0. -1.
         -2    1    1    2    0  502 -0.22347069777E+02  0.27527792950E+01 -0.23221690447E+02  0.32345265939E+02  0.00000000000E+00 0. -1.
</event>
<event>
 4    1  0.5792100E+003  0.2678907E+02  0.7546771E-02  0.1449739E+00
          2   -1    0    0  501    0  0.00000000000E+00  0.00000000000E+00  0.24154960432E+02  0.24154960432E+02  0.00000000000E+00 0.  1.
         -2   -1    0    0    0  501 -0.00000000000E+00 -0.00000000000E+00 -0.12009056562E+03  0.12009056562E+03  0.00000000000E+00 0. -1.
          2    1    1    2  502    0  0.25032476755E+02 -0.95409255997E+01  0.14600506170E+02  0.30509489249E+02  0.00000000000E+00 0.  1.
         -2    1    1    2    0  502 -0.25032476755E+02  0.95409255997E+01 -0.11053611135E+03  0.11373603680E+03  0.00000000000E+00 0. -1.
</event>
<event>
 4    1  0.5792100E+003  0.2824286E+02  0.7546771E-02  0.1435508E+00
          2   -1    0    0  501    0  0.00000000000E+00  0.00000000000E+00  0.76888979774E+01  0.76888979774E+01  0.00000000000E+00 0.  1.
         -2   -1    0    0    0  501 -0.00000000000E+00 -0.00000000000E+00 -0.17148787733E+03  0.17148787733E+03  0.00000000000E+00 0.  1.
          2    1    1    2  502    0  0.26631039611E+01  0.28117008878E+02 -0.13820849263E+03  0.14106468639E+03  0.00000000000E+00 0.  1.
         -2    1    1    2    0  502 -0.26631039611E+01 -0.28117008878E+02 -0.25590486719E+02  0.38112088915E+02  0.00000000000E+00 0.  1.
</event>
<event>
 4    1  0.5792100E+003  0.2554256E+02  0.7546771E-02  0.1462824E+00
          2   -1    0    0  501    0  0.00000000000E+00  0.00000000000E+00  0.11735202444E+04  0.11735202444E+04  0.00000000000E+00 0.  1.
         -2   -1    0    0    0  501 -0.00000000000E+00 -0.00000000000E+00 -0.81266264755E+00  0.81266264755E+00  0.00000000000E+00 0. -1.
          2    1    1    2  502    0  0.23195039029E+02  0.10696388986E+02  0.91636359361E+03  0.91671950904E+03  0.00000000000E+00 0.  1.
         -2    1    1    2    0  502 -0.23195039029E+02 -0.10696388986E+02  0.25634398818E+03  0.25761339804E+03  0.00000000000E+00 0. -1.
</event>
<event>
 4    1  0.5792100E+003  0.6574596E+02  0.7546771E-02  0.1241467E+00
          2   -1    0    0  501    0  0.00000000000E+00  0.00000000000E+00  0.39819886950E+03  0.39819886950E+03  0.00000000000E+00 0. -1.
         -2   -1    0    0    0  501 -0.00000000000E+00 -0.00000000000E+00 -0.44693526343E+02  0.44693526343E+02  0.00000000000E+00 0.  1.
          2    1    1    2  502    0  0.38925480789E+02  0.52984320266E+02  0.36943873667E+03  0.37524326962E+03  0.00000000000E+00 0. -1.
         -2    1    1    2    0  502 -0.38925480789E+02 -0.52984320266E+02 -0.15933393514E+02  0.67649126215E+02  0.00000000000E+00 0.  1.
</event>
<event>
 4    1  0.5792100E+003  0.2576283E+02  0.7546771E-02  0.1460448E+00
          2   -1    0    0  501    0  0.00000000000E+00  0.00000000000E+00  0.11462415748E+04  0.11462415748E+04  0.00000000000E+00 0.  1.
         -2   -1    0    0    0  501 -0.00000000000E+00 -0.00000000000E+00 -0.84738098270E+01  0.84738098270E+01  0.00000000000E+00 0. -1.
          2    1    1    2  502    0  0.54577799706E+01  0.25178086072E+02  0.11261661810E+04  0.11264608252E+04  0.00000000000E+00 0.  1.
         -2    1    1    2    0  502 -0.54577799706E+01 -0.25178086072E+02  0.11601583977E+02  0.28254559477E+02  0.00000000000E+00 0. -1.
</event>
<event>
 4    1  0.5792100E+003  0.3098827E+02  0.7546771E-02  0.1411198E+00
          2   -1    0    0  501    0  0.00000000000E+00  0.00000000000E+00  0.33015638633E+02  0.33015638633E+02  0.00000000000E+00 0. -1.
         -2   -1    0    0    0  501 -0.00000000000E+00 -0.00000000000E+00 -0.11551176887E+03  0.11551176887E+03  0.00000000000E+00 0.  1.
          2    1    1    2  502    0  0.20527614885E+02  0.23214005124E+02  0.22989138210E+02  0.38584627540E+02  0.00000000000E+00 0. -1.
         -2    1    1    2    0  502 -0.20527614885E+02 -0.23214005124E+02 -0.10548526845E+03  0.10994277996E+03  0.00000000000E+00 0.  1.
</event>
<event>
 4    1  0.5792100E+003  0.3933797E+02  0.7546771E-02  0.1352410E+00
          2   -1    0    0  501    0  0.00000000000E+00  0.00000000000E+00  0.91414636644E+03  0.91414636644E+03  0.00000000000E+00 0. -1.
         -2   -1    0    0    0  501 -0.00000000000E+00 -0.00000000000E+00 -0.25426055563E+01  0.25426055563E+01  0.00000000000E+00 0.  1.
          2    1    1    2  502    0 -0.28726546047E+01  0.39232943975E+02  0.72077984732E+03  0.72185252257E+03  0.00000000000E+00 0. -1.
         -2    1    1    2    0  502  0.28726546047E+01 -0.39232943975E+02  0.19082391356E+03  0.19483644943E+03  0.00000000000E+00 0.  1.
</event>
<event>
 4    1  0.5792100E+003  0.2895403E+02  0.7546771E-02  0.1428909E+00
          2   -1    0    0  501    0  0.00000000000E+00  0.00000000000E+00  0.19554883465E+04  0.19554883465E+04  0.00000000000E+00 0.  1.
         -2   -1    0    0    0  501 -0.00000000000E+00 -0.00000000000E+00 -0.48736400467E+00  0.48736400467E+00  0.00000000000E+00 0. -1.
          2    1    1    2  502    0 -0.12164377218E+02 -0.26274774636E+02  0.13167806892E+04  0.13170989786E+04  0.00000000000E+00 0.  1.
         -2    1    1    2    0  502  0.12164377218E+02  0.26274774636E+02  0.63822029330E+03  0.63887673195E+03  0.00000000000E+00 0. -1.
</event>
<event>
 4    1  0.5792100E+003  0.2066505E+02  0.7546771E-02  0.1524101E+00
          2   -1    0    0  501    0  0.00000000000E+00  0.00000000000E+00  0.46639509446E+03  0.46639509446E+03  0.00000000000E+00 0.  1.
         -2   -1    0    0    0  501 -0.00000000000E+00 -0.00000000000E+00 -0.95819670478E+00  0.95819670478E+00  0.00000000000E+00 0.  1.
          2    1    1    2  502    0 -0.25751737351E+01  0.20503971124E+02  0.28197157530E+03  0.28272780837E+03  0.00000000000E+00 0.  1.
         -2    1    1    2    0  502  0.25751737351E+01 -0.20503971124E+02  0.18346532246E+03  0.18462548279E+03  0.00000000000E+00 0.  1.
</event>
<event>
 4    1  0.6367881E+003  0.2220603E+02  0.7546771E-02  0.1502716E+00
          2   -1    0    0  501    0  0.00000000000E+00  0.00000000000E+00  0.12682481742E+04  0.12682481742E+04  0.00000000000E+00 0. -1.
         -2   -1    0    0    0  501 -0.00000000000E+00 -0.00000000000E+00 -0.13797838453E+03  0.13797838453E+03  0.00000000000E+00 0.  1.
          2    1    1    2  502    0 -0.15202266115E+02 -0.16186379733E+02  0.12672568217E+04  0.12674513639E+04  0.00000000000E+00 0. -1.
         -2    1    1    2    0  502  0.15202266115E+02  0.16186379733E+02 -0.13698703196E+03  0.13877519486E+03  0.00000000000E+00 0.  1.
</event>
<event>
 4    1  0.6268257E+003  0.2407600E+02  0.7546771E-02  0.1479411E+00
          2   -1    0    0  501    0  0.00000000000E+00  0.00000000000E+00  0.68106981922E+03  0.68106981922E+03  0.00000000000E+00 0.  1.
         -2   -1    0    0    0  501 -0.00000000000E+00 -0.00000000000E+00 -0.18778719664E+03  0.18778719664E+03  0.00000000000E+00 0. -1.
          2    1    1    2  502    0 -0.77530784132E+01 -0.22793501704E+02  0.68008423800E+03  0.68051026790E+03  0.00000000000E+00 0.  1.
         -2    1    1    2    0  502  0.77530784132E+01  0.22793501704E+02 -0.18680161541E+03  0.18834674796E+03  0.00000000000E+00 0. -1.
</event>
<event>
 4    1  0.5792100E+003  0.7848465E+02  0.7546771E-02  0.1207410E+00
          2   -1    0    0  501    0  0.00000000000E+00  0.00000000000E+00  0.31134142560E+03  0.31134142560E+03  0.00000000000E+00 0. -1.
         -2   -1    0    0    0  501 -0.00000000000E+00 -0.00000000000E+00 -0.27731051223E+02  0.27731051223E+02  0.00000000000E+00 0.  1.
          2    1    1    2  502    0 -0.21555166232E+02  0.75466650824E+02  0.23255785568E+03  0.24544448825E+03  0.00000000000E+00 0. -1.
         -2    1    1    2    0  502  0.21555166232E+02 -0.75466650824E+02  0.51052518704E+02  0.93627988571E+02  0.00000000000E+00 0.  1.
</event>
<event>
 4    1  0.5792100E+003  0.2274672E+02  0.7546771E-02  0.1495703E+00
          2   -1    0    0  501    0  0.00000000000E+00  0.00000000000E+00  0.11876829194E+02  0.11876829194E+02  0.00000000000E+00 0.  1.
         -2   -1    0    0    0  501 -0.00000000000E+00 -0.00000000000E+00 -0.60339726567E+02  0.60339726567E+02  0.00000000000E+00 0. -1.
          2    1    1    2  502    0 -0.21555690012E+02 -0.72639755569E+01 -0.51928987018E+01  0.23331937548E+02  0.00000000000E+00 0.  1.
         -2    1    1    2    0  502  0.21555690012E+02  0.72639755569E+01 -0.43269998671E+02  0.48884618213E+02  0.00000000000E+00 0. -1.
</event>
<event>
 4    1  0.5792100E+003  0.2450909E+02  0.7546771E-02  0.1474371E+00
          2   -1    0    0  501    0  0.00000000000E+00  0.00000000000E+00  0.52132606220E+02  0.52132606220E+02  0.00000000000E+00 0. -1.
         -2   -1    0    0    0  501 -0.00000000000E+00 -0.00000000000E+00 -0.16752409975E+02  0.16752409975E+02  0.00000000000E+00 0.  1.
          2    1    1    2  502    0  0.12183242718E+02  0.21266505250E+02  0.36934528748E+02  0.44326685670E+02  0.00000000000E+00 0. -1.
         -2    1    1    2    0  502 -0.12183242718E+02 -0.21266505250E+02 -0.15543325029E+01  0.24558330525E+02  0.00000000000E+00 0.  1.
</event>
<event>
 4    1  0.5792100E+003  0.2251976E+02  0.7546771E-02  0.1498618E+00
          2   -1    0    0  501    0  0.00000000000E+00  0.00000000000E+00  0.51499280182E+03  0.51499280182E+03  0.00000000000E+00 0.  1.
         -2   -1    0    0    0  501 -0.00000000000E+00 -0.00000000000E+00 -0.11691637876E+01  0.11691637876E+01  0.00000000000E+00 0.  1.
          2    1    1    2  502    0  0.60622031894E+01 -0.21688461114E+02  0.35940946621E+03  0.36011429305E+03  0.00000000000E+00 0.  1.
         -2    1    1    2    0  502 -0.60622031894E+01  0.21688461114E+02  0.15441417182E+03  0.15604767256E+03  0.00000000000E+00 0.  1.
</event>
<event>
 4    1  0.5792100E+003  0.2277378E+02  0.7546771E-02  0.1495359E+00
          2   -1    0    0  501    0  0.00000000000E+00  0.00000000000E+00  0.18883360429E+04  0.18883360429E+04  0.00000000000E+00 0.  1.
         -2   -1    0    0    0  501 -0.00000000000E+00 -0.00000000000E+00 -0.36046720611E+00  0.36046720611E+00  0.00000000000E+00 0.  1.
          2    1    1    2  502    0 -0.15873220866E+02 -0.16330520601E+02  0.14047409566E+04  0.14049255497E+04  0.00000000000E+00 0.  1.
         -2    1    1    2    0  502  0.15873220866E+02  0.16330520601E+02  0.48323461916E+03  0.48377096047E+03  0.00000000000E+00 0.  1.
</event>
<event>
 4    1  0.5792100E+003  0.3544126E+02  0.7546771E-02  0.1377487E+00
          2   -1    0    0  501    0  0.00000000000E+00  0.00000000000E+00  0.65757435858E+03  0.65757435858E+03  0.00000000000E+00 0.  1.
         -2   -1    0    0    0  501 -0.00000000000E+00 -0.00000000000E+00 -0.10087028754E+02  0.10087028754E+02  0.00000000000E+00 0.  1.
          2    1    1    2  502    0 -0.27946831246E+02  0.21795809025E+02  0.62430819496E+03  0.62531336541E+03  0.00000000000E+00 0.  1.
         -2    1    1    2    0  502  0.27946831246E+02 -0.21795809025E+02  0.23179134869E+02  0.42348021926E+02  0.00000000000E+00 0.  1.
</event>
<event>
 4    1  0.5792100E+003  0.2313067E+02  0.7546771E-02  0.1490864E+00
          2   -1    0    0  501    0  0.00000000000E+00  0.00000000000E+00  0.14620080645E+04  0.14620080645E+04  0.00000000000E+00 0.  1.
         -2   -1    0    0    0  501 -0.00000000000E+00 -0.00000000000E+00 -0.16526207722E+01  0.16526207722E+01  0.00000000000E+00 0.  1.
          2    1    1    2  502    0  0.81542398215E+01  0.21645702918E+02  0.13759164098E+04  0.13761108222E+04  0.00000000000E+00 0.  1.
         -2    1    1    2    0  502 -0.81542398215E+01 -0.21645702918E+02  0.84439033906E+02  0.87549863101E+02  0.00000000000E+00 0.  1.
</event>
<event>
 4    1  0.5792100E+003  0.2070822E+02  0.7546771E-02  0.1523472E+00
          2   -1    0    0  501    0  0.00000000000E+00  0.00000000000E+00  0.17608318689E+03  0.17608318689E+03  0.00000000000E+00 0.  1.
         -2   -1    0    0    0  501 -0.00000000000E+00 -0.00000000000E+00 -0.34602982300E+01  0.34602982300E+01  0.00000000000E+00 0.  1.
          2    1    1    2  502    0 -0.19516752362E+02  0.69229022800E+01  0.13516842499E+03  0.13674550564E+03  0.00000000000E+00 0.  1.
         -2    1    1    2    0  502  0.19516752362E+02 -0.69229022800E+01  0.37454463676E+02  0.42797979485E+02  0.00000000000E+00 0.  1.
</event>
<event>
 4    1  0.5792100E+003  0.2016680E+02  0.7546771E-02  0.1531501E+00
          2   -1    0    0  501    0  0.00000000000E+00  0.00000000000E+00  0.81807598925E+01  0.81807598925E+01  0.00000000000E+00 0. -1.
         -2   -1    0    0    0  501 -0.00000000000E+00 -0.00000000000E+00 -0.83221263673E+02  0.83221263673E+02  0.00000000000E+00 0. -1.
          2    1    1    2  502    0 -0.92590157483E+01 -0.17915650700E+02 -0.85216630690E+01  0.21893347257E+02  0.00000000000E+00 0. -1.
         -2    1    1    2    0  502  0.92590157483E+01  0.17915650700E+02 -0.66518840712E+02  0.69508676309E+02  0.00000000000E+00 0. -1.
</event>
<event>
 4    1  0.5792100E+003  0.2641485E+02  0.7546771E-02  0.1453576E+00
          2   -1    0    0  501    0  0.00000000000E+00  0.00000000000E+00  0.14499740913E+02  0.14499740913E+02  0.00000000000E+00 0. -1.
         -2   -1    0    0    0  501 -0.00000000000E+00 -0.00000000000E+00 -0.21629970521E+03  0.21629970521E+03  0.00000000000E+00 0. -1.
          2    1    1    2  502    0 -0.17998550882E+02  0.19333812976E+02  0.85650735011E+00  0.26428729877E+02  0.00000000000E+00 0. -1.
         -2    1    1    2    0  502  0.17998550882E+02 -0.19333812976E+02 -0.20265647165E+03  0.20437071625E+03  0.00000000000E+00 0. -1.
</event>
<event>
 4    1  0.5792100E+003  0.3720490E+02  0.7546771E-02  0.1365692E+00
          2   -1    0    0  501    0  0.00000000000E+00  0.00000000000E+00  0.11222989045E+04  0.11222989045E+04  0.00000000000E+00 0. -1.
         -2   -1    0    0    0  501 -0.00000000000E+00 -0.00000000000E+00 -0.42567763750E+01  0.42567763750E+01  0.00000000000E+00 0. -1.
          2    1    1    2  502    0  0.55682160746E+01  0.36785858275E+02  0.10337337704E+04  0.10344030706E+04  0.00000000000E+00 0. -1.
         -2    1    1    2    0  502 -0.55682160746E+01 -0.36785858275E+02  0.84308357778E+02  0.92152610329E+02  0.00000000000E+00 0. -1.
</event>
<event>
 4    1  0.5792100E+003  0.2326478E+02  0.7546771E-02  0.1489200E+00
          2   -1    0    0  501    0  0.00000000000E+00  0.00000000000E+00  0.11058678552E+04  0.11058678552E+04  0.00000000000E+00 0.  1.
         -2   -1    0    0    0  501 -0.00000000000E+00 -0.00000000000E+00 -0.53466614784E+00  0.53466614784E+00  0.00000000000E+00 0. -1.
          2    1    1    2  502    0 -0.47316213099E+01 -0.22778521317E+02  0.39176303266E+03  0.39245321126E+03  0.00000000000E+00 0. -1.
         -2    1    1    2    0  502  0.47316213099E+01  0.22778521317E+02  0.71357015638E+03  0.71394931007E+03  0.00000000000E+00 0.  1.
</event>
<event>
 4    1  0.5792100E+003  0.2198658E+02  0.7546771E-02  0.1505631E+00
          2   -1    0    0  501    0  0.00000000000E+00  0.00000000000E+00  0.84820449704E+03  0.84820449704E+03  0.00000000000E+00 0. -1.
         -2   -1    0    0    0  501 -0.00000000000E+00 -0.00000000000E+00 -0.12149739634E+01  0.12149739634E+01  0.00000000000E+00 0. -1.
          2    1    1    2  502    0 -0.29108027728E+00  0.21984652284E+02  0.73295608246E+03  0.73328577545E+03  0.00000000000E+00 0. -1.
         -2    1    1    2    0  502  0.29108027728E+00 -0.21984652284E+02  0.11403344062E+03  0.11613369556E+03  0.00000000000E+00 0. -1.
</event>
<event>
 4    1  0.5792100E+003  0.2014940E+02  0.7546771E-02  0.1531764E+00
          2   -1    0    0  501    0  0.00000000000E+00  0.00000000000E+00  0.64994566364E+03  0.64994566364E+03  0.00000000000E+00 0. -1.
         -2   -1    0    0    0  501 -0.00000000000E+00 -0.00000000000E+00 -0.65521608168E+02  0.65521608168E+02  0.00000000000E+00 0.  1.
          2    1    1    2  502    0 -0.28499615822E+01  0.19946826483E+02  0.64823631329E+03  0.64854939367E+03  0.00000000000E+00 0. -1.
         -2    1    1    2    0  502  0.28499615822E+01 -0.19946826483E+02 -0.63812257811E+02  0.66917878140E+02  0.00000000000E+00 0.  1.
</event>
<event>
 4    1  0.5792100E+003  0.2433973E+02  0.7546771E-02  0.1476327E+00
          2   -1    0    0  501    0  0.00000000000E+00  0.00000000000E+00  0.95091076651E+03  0.95091076651E+03  0.00000000000E+00 0. -1.
         -2   -1    0    0    0  501 -0.00000000000E+00 -0.00000000000E+00 -0.13344722851E+01  0.13344722851E+01  0.00000000000E+00 0. -1.
          2    1    1    2  502    0 -0.21876199751E+02  0.10670244741E+02  0.82243754211E+03  0.82279762573E+03  0.00000000000E+00 0. -1.
         -2    1    1    2    0  502  0.21876199751E+02 -0.10670244741E+02  0.12713875212E+03  0.12944761307E+03  0.00000000000E+00 0. -1.
</event>
<event>
 4    1  0.5792100E+003  0.5197661E+02  0.7546771E-02  0.1289823E+00
          2   -1    0    0  501    0  0.00000000000E+00  0.00000000000E+00  0.17815783202E+03  0.17815783202E+03  0.00000000000E+00 0.  1.
         -2   -1    0    0    0  501 -0.00000000000E+00 -0.00000000000E+00 -0.73580330789E+02  0.73580330789E+02  0.00000000000E+00 0.  1.
          2    1    1    2  502    0 -0.10847112362E+02 -0.50832155305E+02  0.16444040837E+03  0.17245931626E+03  0.00000000000E+00 0.  1.
         -2    1    1    2    0  502  0.10847112362E+02  0.50832155305E+02 -0.59862907138E+02  0.79278846551E+02  0.00000000000E+00 0.  1.
</event>
<event>
 4    1  0.5792100E+003  0.2544088E+02  0.7546771E-02  0.1463931E+00
          2   -1    0    0  501    0  0.00000000000E+00  0.00000000000E+00  0.60211699287E+03  0.60211699287E+03  0.00000000000E+00 0. -1.
         -2   -1    0    0    0  501 -0.00000000000E+00 -0.00000000000E+00 -0.51951602681E+01  0.51951602681E+01  0.00000000000E+00 0.  1.
          2    1    1    2  502    0  0.24633386197E+02 -0.63588417314E+01  0.56888340855E+03  0.56945199192E+03  0.00000000000E+00 0. -1.
         -2    1    1    2    0  502 -0.24633386197E+02  0.63588417314E+01  0.28038424049E+02  0.37860161210E+02  0.00000000000E+00 0.  1.
</event>
<event>
 4    1  0.5792100E+003  0.2105189E+02  0.7546771E-02  0.1518525E+00
          2   -1    0    0  501    0  0.00000000000E+00  0.00000000000E+00  0.57003462087E+01  0.57003462087E+01  0.00000000000E+00 0. -1.
         -2   -1    0    0    0  501 -0.00000000000E+00 -0.00000000000E+00 -0.14409355150E+03  0.14409355150E+03  0.00000000000E+00 0. -1.
          2    1    1    2  502    0  0.20227409431E+02  0.58338542355E+01 -0.18374494319E+02  0.27942870093E+02  0.00000000000E+00 0. -1.
         -2    1    1    2    0  502 -0.20227409431E+02 -0.58338542355E+01 -0.12001871098E+03  0.12185102762E+03  0.00000000000E+00 0. -1.
</event>
<event>
 4    1  0.5792100E+003  0.2000804E+02  0.7546771E-02  0.1533913E+00
          2   -1    0    0  501    0  0.00000000000E+00  0.00000000000E+00  0.11883163501E+04  0.11883163501E+04  0.00000000000E+00 0.  1.
         -2   -1    0    0    0  501 -0.00000000000E+00 -0.00000000000E+00 -0.13423940831E+01  0.13423940831E+01  0.00000000000E+00 0.  1.
          2    1    1    2  502    0 -0.12539775352E+02 -0.15590880285E+02  0.11082960562E+04  0.11084766437E+04  0.00000000000E+00 0.  1.
         -2    1    1    2    0  502  0.12539775352E+02  0.15590880285E+02  0.78677899839E+02  0.81182100472E+02  0.00000000000E+00 0.  1.
</event>
<event>
 4    1  0.5792100E+003  0.4155613E+02  0.7546771E-02  0.1339601E+00
          2   -1    0    0  501    0  0.00000000000E+00  0.00000000000E+00  0.74330049714E+02  0.74330049714E+02  0.00000000000E+00 0.  1.
         -2   -1    0    0    0  501 -0.00000000000E+00 -0.00000000000E+00 -0.77481866902E+03  0.77481866902E+03  0.00000000000E+00 0.  1.
          2    1    1    2  502    0 -0.17142052442E+02 -0.37855809756E+02  0.67916146955E+02  0.79621073287E+02  0.00000000000E+00 0.  1.
         -2    1    1    2    0  502  0.17142052442E+02  0.37855809756E+02 -0.76840476626E+03  0.76952764545E+03  0.00000000000E+00 0.  1.
</event>
<event>
 4    1  0.5792100E+003  0.5543742E+02  0.7546771E-02  0.1276176E+00
          2   -1    0    0  501    0  0.00000000000E+00  0.00000000000E+00  0.15746911319E+04  0.15746911319E+04  0.00000000000E+00 0.  1.
         -2   -1    0    0    0  501 -0.00000000000E+00 -0.00000000000E+00 -0.57422422052E+01  0.57422422052E+01  0.00000000000E+00 0.  1.
          2    1    1    2  502    0 -0.22158132504E+02 -0.50816573834E+02  0.14265065624E+04  0.14275833704E+04  0.00000000000E+00 0.  1.
         -2    1    1    2    0  502  0.22158132504E+02  0.50816573834E+02  0.14244232729E+03  0.15285000365E+03  0.00000000000E+00 0.  1.
</event>
<event>
 4    1  0.5792100E+003  0.2987889E+02  0.7546771E-02  0.1420652E+00
          2   -1    0    0  501    0  0.00000000000E+00  0.00000000000E+00  0.67702509920E+01  0.67702509920E+01  0.00000000000E+00 0. -1.
         -2   -1    0    0    0  501 -0.00000000000E+00 -0.00000000000E+00 -0.10563532603E+04  0.10563532603E+04  0.00000000000E+00 0. -1.
          2    1    1    2  502    0  0.46772142889E+01 -0.29510535301E+02 -0.27512384126E+02  0.40616244381E+02  0.00000000000E+00 0. -1.
         -2    1    1    2    0  502 -0.46772142889E+01  0.29510535301E+02 -0.10220706252E+04  0.10225072669E+04  0.00000000000E+00 0. -1.
</event>
<event>
 4    1  0.5792100E+003  0.2547318E+02  0.7546771E-02  0.1463579E+00
          2   -1    0    0  501    0  0.00000000000E+00  0.00000000000E+00  0.24101393585E+01  0.24101393585E+01  0.00000000000E+00 0. -1.
         -2   -1    0    0    0  501 -0.00000000000E+00 -0.00000000000E+00 -0.57506954496E+03  0.57506954496E+03  0.00000000000E+00 0. -1.
          2    1    1    2  502    0  0.18019261659E+02  0.18005258837E+02 -0.75761416849E+02  0.79929190034E+02  0.00000000000E+00 0. -1.
         -2    1    1    2    0  502 -0.18019261659E+02 -0.18005258837E+02 -0.49689798876E+03  0.49755049429E+03  0.00000000000E+00 0. -1.
</event>
<event>
 4    1  0.5792100E+003  0.2076350E+02  0.7546771E-02  0.1522668E+00
          2   -1    0    0  501    0  0.00000000000E+00  0.00000000000E+00  0.40000270844E+03  0.40000270844E+03  0.00000000000E+00 0. -1.
         -2   -1    0    0    0  501 -0.00000000000E+00 -0.00000000000E+00 -0.36138105100E+01  0.36138105100E+01  0.00000000000E+00 0. -1.
          2    1    1    2  502    0 -0.99130004241E+01  0.18244319365E+02  0.36725092258E+03  0.36783741368E+03  0.00000000000E+00 0. -1.
         -2    1    1    2    0  502  0.99130004241E+01 -0.18244319365E+02  0.29137975351E+02  0.35779105272E+02  0.00000000000E+00 0. -1.
</event>
<event>
 4    1  0.5792100E+003  0.2629741E+02  0.7546771E-02  0.1454796E+00
          2   -1    0    0  501    0  0.00000000000E+00  0.00000000000E+00  0.13173877131E+02  0.13173877131E+02  0.00000000000E+00 0.  1.
         -2   -1    0    0    0  501 -0.00000000000E+00 -0.00000000000E+00 -0.62594062722E+02  0.62594062722E+02  0.00000000000E+00 0.  1.
          2    1    1    2  502    0 -0.21061140721E+02 -0.15747447636E+02 -0.94925681720E+01  0.27958229665E+02  0.00000000000E+00 0.  1.
         -2    1    1    2    0  502  0.21061140721E+02  0.15747447636E+02 -0.39927617418E+02  0.47809710188E+02  0.00000000000E+00 0.  1.
</event>
<event>
 4    1  0.5792100E+003  0.2571982E+02  0.7546771E-02  0.1460910E+00
          2   -1    0    0  501    0  0.00000000000E+00  0.00000000000E+00  0.15345136639E+02  0.15345136639E+02  0.00000000000E+00 0. -1.
         -2   -1    0    0    0  501 -0.00000000000E+00 -0.00000000000E+00 -0.78039706048E+02  0.78039706048E+02  0.00000000000E+00 0.  1.
          2    1    1    2  502    0 -0.13133183643E+02 -0.22113991629E+02 -0.10850715465E+00  0.25720048837E+02  0.00000000000E+00 0. -1.
         -2    1    1    2    0  502  0.13133183643E+02  0.22113991629E+02 -0.62586062254E+02  0.67664793851E+02  0.00000000000E+00 0.  1.
</event>
<event>
 4    1  0.5792100E+003  0.4044606E+02  0.7546771E-02  0.1345892E+00
          2   -1    0    0  501    0  0.00000000000E+00  0.00000000000E+00  0.11266445077E+04  0.11266445077E+04  0.00000000000E+00 0. -1.
         -2   -1    0    0    0  501 -0.00000000000E+00 -0.00000000000E+00 -0.18465558084E+01  0.18465558084E+01  0.00000000000E+00 0.  1.
          2    1    1    2  502    0 -0.17839213891E+02 -0.36299393407E+02  0.82322038463E+03  0.82421337358E+03  0.00000000000E+00 0. -1.
         -2    1    1    2    0  502  0.17839213891E+02  0.36299393407E+02  0.30157756722E+03  0.30427768989E+03  0.00000000000E+00 0.  1.
</event>
<event>
 4    1  0.5792100E+003  0.3514715E+02  0.7546771E-02  0.1379532E+00
          2   -1    0    0  501    0  0.00000000000E+00  0.00000000000E+00  0.23487356438E+03  0.23487356438E+03  0.00000000000E+00 0. -1.
         -2   -1    0    0    0  501 -0.00000000000E+00 -0.00000000000E+00 -0.17354325202E+03  0.17354325202E+03  0.00000000000E+00 0.  1.
          2    1    1    2  502    0  0.34051856542E+01  0.34981811510E+02  0.23175531657E+03  0.23440530964E+03  0.00000000000E+00 0. -1.
         -2    1    1    2    0  502 -0.34051856542E+01 -0.34981811510E+02 -0.17042500421E+03  0.17401150676E+03  0.00000000000E+00 0.  1.
</event>
<event>
 4    1  0.5792100E+003  0.2111331E+02  0.7546771E-02  0.1517653E+00
          2   -1    0    0  501    0  0.00000000000E+00  0.00000000000E+00  0.11514104599E+04  0.11514104599E+04  0.00000000000E+00 0.  1.
         -2   -1    0    0    0  501 -0.00000000000E+00 -0.00000000000E+00 -0.10442147097E+02  0.10442147097E+02  0.00000000000E+00 0.  1.
          2    1    1    2  502    0  0.19574827946E+02 -0.79118767118E+01  0.11405395432E+04  0.11407349479E+04  0.00000000000E+00 0.  1.
         -2    1    1    2    0  502 -0.19574827946E+02  0.79118767118E+01  0.42876956623E+00  0.21117659093E+02  0.00000000000E+00 0.  1.
</event>
<event>
 4    1  0.5792100E+003  0.3305727E+02  0.7546771E-02  0.1394761E+00
          2   -1    0    0  501    0  0.00000000000E+00  0.00000000000E+00  0.73674541510E+02  0.73674541510E+02  0.00000000000E+00 0. -1.
         -2   -1    0    0    0  501 -0.00000000000E+00 -0.00000000000E+00 -0.24745487700E+02  0.24745487700E+02  0.00000000000E+00 0.  1.
          2    1    1    2  502    0  0.11472372963E+01 -0.33037356503E+02  0.55610804571E+02  0.64694239799E+02  0.00000000000E+00 0. -1.
         -2    1    1    2    0  502 -0.11472372963E+01  0.33037356503E+02 -0.66817507614E+01  0.33725789411E+02  0.00000000000E+00 0.  1.
</event>
<event>
 4    1  0.5792100E+003  0.2483666E+02  0.7546771E-02  0.1470639E+00
          2   -1    0    0  501    0  0.00000000000E+00  0.00000000000E+00  0.15486192493E+02  0.15486192493E+02  0.00000000000E+00 0.  1.
         -2   -1    0    0    0  501 -0.00000000000E+00 -0.00000000000E+00 -0.97686462099E+03  0.97686462099E+03  0.00000000000E+00 0.  1.
          2    1    1    2  502    0  0.19322242007E+02 -0.15604821564E+02  0.52648261554E+01  0.25388538490E+02  0.00000000000E+00 0.  1.
         -2    1    1    2    0  502 -0.19322242007E+02  0.15604821564E+02 -0.96664325465E+03  0.96696227499E+03  0.00000000000E+00 0.  1.
</event>
<event>
 4    1  0.5792100E+003  0.2435471E+02  0.7546771E-02  0.1476153E+00
          2   -1    0    0  501    0  0.00000000000E+00  0.00000000000E+00  0.42593804222E+03  0.42593804222E+03  0.00000000000E+00 0. -1.
         -2   -1    0    0    0  501 -0.00000000000E+00 -0.00000000000E+00 -0.16972947565E+02  0.16972947565E+02  0.00000000000E+00 0. -1.
          2    1    1    2  502    0  0.49620301946E+01  0.23843869144E+02  0.41665876679E+03  0.41736995554E+03  0.00000000000E+00 0. -1.
         -2    1    1    2    0  502 -0.49620301946E+01 -0.23843869144E+02 -0.76936721391E+01  0.25541034247E+02  0.00000000000E+00 0. -1.
</event>
<event>
 4    1  0.5792100E+003  0.2421217E+02  0.7546771E-02  0.1477813E+00
          2   -1    0    0  501    0  0.00000000000E+00  0.00000000000E+00  0.51946534247E+01  0.51946534247E+01  0.00000000000E+00 0. -1.
         -2   -1    0    0    0  501 -0.00000000000E+00 -0.00000000000E+00 -0.14652318417E+03  0.14652318417E+03  0.00000000000E+00 0. -1.
          2    1    1    2  502    0  0.20097120531E+02  0.13503151928E+02 -0.34299585575E+02  0.41984413015E+02  0.00000000000E+00 0. -1.
         -2    1    1    2    0  502 -0.20097120531E+02 -0.13503151928E+02 -0.10702894517E+03  0.10973342458E+03  0.00000000000E+00 0. -1.
</event>
<event>
 4    1  0.5792100E+003  0.2743816E+02  0.7546771E-02  0.1443256E+00
          2   -1    0    0  501    0  0.00000000000E+00  0.00000000000E+00  0.40148434208E+03  0.40148434208E+03  0.00000000000E+00 0.  1.
         -2   -1    0    0    0  501 -0.00000000000E+00 -0.00000000000E+00 -0.70898416790E+01  0.70898416790E+01  0.00000000000E+00 0. -1.
          2    1    1    2  502    0 -0.35296459032E+01 -0.27210187451E+02  0.37239801872E+03  0.37340746785E+03  0.00000000000E+00 0.  1.
         -2    1    1    2    0  502  0.35296459032E+01  0.27210187451E+02  0.21996481682E+02  0.35166715907E+02  0.00000000000E+00 0. -1.
</event>
<event>
 4    1  0.5792100E+003  0.2001400E+02  0.7546771E-02  0.1533822E+00
          2   -1    0    0  501    0  0.00000000000E+00  0.00000000000E+00  0.23618745873E+02  0.23618745873E+02  0.00000000000E+00 0. -1.
         -2   -1    0    0    0  501 -0.00000000000E+00 -0.00000000000E+00 -0.67559010901E+02  0.67559010901E+02  0.00000000000E+00 0.  1.
          2    1    1    2  502    0  0.14518132298E+01  0.19961270846E+02  0.17483845079E+02  0.26575269222E+02  0.00000000000E+00 0. -1.
         -2    1    1    2    0  502 -0.14518132298E+01 -0.19961270846E+02 -0.61424110107E+02  0.64602487552E+02  0.00000000000E+00 0.  1.
</event>
<event>
 4    1  0.5792100E+003  0.2175591E+02  0.7546771E-02  0.1508740E+00
          2   -1    0    0  501    0  0.00000000000E+00  0.00000000000E+00  0.75046814275E+01  0.75046814275E+01  0.00000000000E+00 0.  1.
         -2   -1    0    0    0  501 -0.00000000000E+00 -0.00000000000E+00 -0.92546439393E+02  0.92546439393E+02  0.00000000000E+00 0.  1.
          2    1    1    2  502    0 -0.14330610519E+02 -0.16369270238E+02 -0.14288306478E+02  0.26028352003E+02  0.00000000000E+00 0.  1.
         -2    1    1    2    0  502  0.14330610519E+02  0.16369270238E+02 -0.70753451488E+02  0.74022768818E+02  0.00000000000E+00 0.  1.
</event>
<event>
 4    1  0.5792100E+003  0.4022932E+02  0.7546771E-02  0.1347147E+00
          2   -1    0    0  501    0  0.00000000000E+00  0.00000000000E+00  0.43962349441E+03  0.43962349441E+03  0.00000000000E+00 0. -1.
         -2   -1    0    0    0  501 -0.00000000000E+00 -0.00000000000E+00 -0.10863168591E+02  0.10863168591E+02  0.00000000000E+00 0.  1.
          2    1    1    2  502    0  0.38560876719E+02  0.11465482570E+02  0.39752367893E+03  0.39955409373E+03  0.00000000000E+00 0. -1.
         -2    1    1    2    0  502 -0.38560876719E+02 -0.11465482570E+02  0.31236646886E+02  0.50932569272E+02  0.00000000000E+00 0.  1.
</event>
<event>
 4    1  0.5792100E+003  0.2690079E+02  0.7546771E-02  0.1448607E+00
          2   -1    0    0  501    0  0.00000000000E+00  0.00000000000E+00  0.31655831731E+03  0.31655831731E+03  0.00000000000E+00 0.  1.
         -2   -1    0    0    0  501 -0.00000000000E+00 -0.00000000000E+00 -0.22950492583E+01  0.22950492583E+01  0.00000000000E+00 0.  1.
          2    1    1    2  502    0 -0.22137193763E+02  0.15283868396E+02  0.14712019047E+03  0.14955936087E+03  0.00000000000E+00 0.  1.
         -2    1    1    2    0  502  0.22137193763E+02 -0.15283868396E+02  0.16714307758E+03  0.16929400570E+03  0.00000000000E+00 0.  1.
</event>
<event>
 4    1  0.5792100E+003  0.3584517E+02  0.7546771E-02  0.1374717E+00
          2   -1    0    0  501    0  0.00000000000E+00  0.00000000000E+00  0.12282615793E+02  0.12282615793E+02  0.00000000000E+00 0.  1.
         -2   -1    0    0    0  501 -0.00000000000E+00 -0.00000000000E+00 -0.16287509494E+03  0.16287509494E+03  0.00000000000E+00 0. -1.
          2    1    1    2  502    0 -0.32416058838E+02  0.15299485718E+02 -0.12767786568E+03  0.13261414901E+03  0.00000000000E+00 0. -1.
         -2    1    1    2    0  502  0.32416058838E+02 -0.15299485718E+02 -0.22914613476E+02  0.42543561729E+02  0.00000000000E+00 0.  1.
</event>
<event>
 4    1  0.5792100E+003  0.2202922E+02  0.7546771E-02  0.1505062E+00
          2   -1    0    0  501    0  0.00000000000E+00  0.00000000000E+00  0.57940558637E+03  0.57940558637E+03  0.00000000000E+00 0. -1.
         -2   -1    0    0    0  501 -0.00000000000E+00 -0.00000000000E+00 -0.33802691645E+02  0.33802691645E+02  0.00000000000E+00 0.  1.
          2    1    1    2  502    0  0.71325393577E+01 -0.20842588656E+02  0.57558325844E+03  0.57600466492E+03  0.00000000000E+00 0. -1.
         -2    1    1    2    0  502 -0.71325393577E+01  0.20842588656E+02 -0.29980363707E+02  0.37203613098E+02  0.00000000000E+00 0.  1.
</event>
<event>
 4    1  0.5792100E+003  0.4672083E+02  0.7546771E-02  0.1313052E+00
          2   -1    0    0  501    0  0.00000000000E+00  0.00000000000E+00  0.12859574415E+03  0.12859574415E+03  0.00000000000E+00 0. -1.
         -2   -1    0    0    0  501 -0.00000000000E+00 -0.00000000000E+00 -0.70238899496E+03  0.70238899496E+03  0.00000000000E+00 0.  1.
          2    1    1    2  502    0  0.31369211267E+02  0.34623819519E+02  0.12354450541E+03  0.13208361409E+03  0.00000000000E+00 0. -1.
         -2    1    1    2    0  502 -0.31369211267E+02 -0.34623819519E+02 -0.69733775622E+03  0.69890112501E+03  0.00000000000E+00 0.  1.
</event>
<event>
 4    1  0.5792100E+003  0.2313566E+02  0.7546771E-02  0.1490802E+00
          2   -1    0    0  501    0  0.00000000000E+00  0.00000000000E+00  0.67540452349E+03  0.67540452349E+03  0.00000000000E+00 0. -1.
         -2   -1    0    0    0  501 -0.00000000000E+00 -0.00000000000E+00 -0.50239065053E+01  0.50239065053E+01  0.00000000000E+00 0. -1.
          2    1    1    2  502    0  0.21110958879E+02  0.94650088146E+01  0.64741984776E+03  0.64783309444E+03  0.00000000000E+00 0. -1.
         -2    1    1    2    0  502 -0.21110958879E+02 -0.94650088146E+01  0.22960769224E+02  0.32595335556E+02  0.00000000000E+00 0. -1.
</event>
<event>
 4    1  0.5792100E+003  0.2044838E+02  0.7546771E-02  0.1527288E+00
          2   -1    0    0  501    0  0.00000000000E+00  0.00000000000E+00  0.13343989645E+04  0.13343989645E+04  0.00000000000E+00 0.  1.
         -2   -1    0    0    0  501 -0.00000000000E+00 -0.00000000000E+00 -0.34889984323E+00  0.34889984323E+00  0.00000000000E+00 0.  1.
          2    1    1    2  502    0 -0.17383967362E+02 -0.10767269049E+02  0.88004793864E+03  0.88028547114E+03  0.00000000000E+00 0.  1.
         -2    1    1    2    0  502  0.17383967362E+02  0.10767269049E+02  0.45400212607E+03  0.45446239325E+03  0.00000000000E+00 0.  1.
</event>
<event>
 4    1  0.5792100E+003  0.4104723E+02  0.7546771E-02  0.1342456E+00
          2   -1    0    0  501    0  0.00000000000E+00  0.00000000000E+00  0.16648173180E+03  0.16648173180E+03  0.00000000000E+00 0.  1.
         -2   -1    0    0    0  501 -0.00000000000E+00 -0.00000000000E+00 -0.16266232448E+02  0.16266232448E+02  0.00000000000E+00 0.  1.
          2    1    1    2  502    0 -0.39391411395E+02 -0.11540890407E+02  0.13127284628E+03  0.13754066894E+03  0.00000000000E+00 0.  1.
         -2    1    1    2    0  502  0.39391411395E+02  0.11540890407E+02  0.18942653069E+02  0.45207295300E+02  0.00000000000E+00 0.  1.
</event>
<event>
 4    1  0.5792100E+003  0.3516189E+02  0.7546771E-02  0.1379429E+00
          2   -1    0    0  501    0  0.00000000000E+00  0.00000000000E+00  0.61765585518E+03  0.61765585518E+03  0.00000000000E+00 0.  1.
         -2   -1    0    0    0  501 -0.00000000000E+00 -0.00000000000E+00 -0.26853689072E+01  0.26853689072E+01  0.00000000000E+00 0.  1.
          2    1    1    2  502    0  0.26131160386E+02 -0.23527023315E+02  0.46398847461E+03  0.46531888307E+03  0.00000000000E+00 0.  1.
         -2    1    1    2    0  502 -0.26131160386E+02  0.23527023315E+02  0.15098201166E+03  0.15502234102E+03  0.00000000000E+00 0.  1.
</event>
<event>
 4    1  0.5792100E+003  0.2798061E+02  0.7546771E-02  0.1437999E+00
          2   -1    0    0  501    0  0.00000000000E+00  0.00000000000E+00  0.54246562361E+03  0.54246562361E+03  0.00000000000E+00 0. -1.
         -2   -1    0    0    0  501 -0.00000000000E+00 -0.00000000000E+00 -0.31227357109E+01  0.31227357109E+01  0.00000000000E+00 0.  1.
          2    1    1    2  502    0 -0.22717336657E+02  0.16335158012E+02  0.46972917603E+03  0.47056180634E+03  0.00000000000E+00 0. -1.
         -2    1    1    2    0  502  0.22717336657E+02 -0.16335158012E+02  0.69613711876E+02  0.75026552988E+02  0.00000000000E+00 0.  1.
</event>
<event>
 4    1  0.5792100E+003  0.2583669E+02  0.7546771E-02  0.1459657E+00
          2   -1    0    0  501    0  0.00000000000E+00  0.00000000000E+00  0.13279918163E+02  0.13279918163E+02  0.00000000000E+00 0.  1.
         -2   -1    0    0    0  501 -0.00000000000E+00 -0.00000000000E+00 -0.20961203366E+03  0.20961203366E+03  0.00000000000E+00 0. -1.
          2    1    1    2  502    0  0.24918963507E+02 -0.68249341814E+01 -0.99738100060E+00  0.25855932350E+02  0.00000000000E+00 0.  1.
         -2    1    1    2    0  502 -0.24918963507E+02  0.68249341814E+01 -0.19533473450E+03  0.19703601948E+03  0.00000000000E+00 0. -1.
</event>
<event>
 4    1  0.5792100E+003  0.6597802E+02  0.7546771E-02  0.1240771E+00
          2   -1    0    0  501    0  0.00000000000E+00  0.00000000000E+00  0.86143311685E+03  0.86143311685E+03  0.00000000000E+00 0. -1.
         -2   -1    0    0    0  501 -0.00000000000E+00 -0.00000000000E+00 -0.38921583169E+02  0.38921583169E+02  0.00000000000E+00 0.  1.
          2    1    1    2  502    0 -0.55263028281E+02  0.36042985282E+02  0.83119344295E+03  0.83380791474E+03  0.00000000000E+00 0. -1.
         -2    1    1    2    0  502  0.55263028281E+02 -0.36042985282E+02 -0.86819092642E+01  0.66546785281E+02  0.00000000000E+00 0.  1.
</event>
<event>
 4    1  0.5792100E+003  0.2032855E+02  0.7546771E-02  0.1529071E+00
          2   -1    0    0  501    0  0.00000000000E+00  0.00000000000E+00  0.21802368950E+02  0.21802368950E+02  0.00000000000E+00 0. -1.
         -2   -1    0    0    0  501 -0.00000000000E+00 -0.00000000000E+00 -0.66007265062E+02  0.66007265062E+02  0.00000000000E+00 0.  1.
          2    1    1    2  502    0 -0.93905990051E+01 -0.18029603768E+02  0.14966436737E+02  0.25243696051E+02  0.00000000000E+00 0. -1.
         -2    1    1    2    0  502  0.93905990051E+01  0.18029603768E+02 -0.59171332849E+02  0.62565937961E+02  0.00000000000E+00 0.  1.
</event>
<event>
 4    1  0.5792100E+003  0.2136355E+02  0.7546771E-02  0.1514137E+00
          2   -1    0    0  501    0  0.00000000000E+00  0.00000000000E+00  0.46611714265E+03  0.46611714265E+03  0.00000000000E+00 0.  1.
         -2   -1    0    0    0  501 -0.00000000000E+00 -0.00000000000E+00 -0.99305016627E+00  0.99305016627E+00  0.00000000000E+00 0. -1.
          2    1    1    2  502    0  0.17465499666E+02 -0.12302755059E+02  0.26018803716E+03  0.26106362470E+03  0.00000000000E+00 0.  1.
         -2    1    1    2    0  502 -0.17465499666E+02  0.12302755059E+02  0.20493605532E+03  0.20604656811E+03  0.00000000000E+00 0. -1.
</event>
<event>
 4    1  0.5792100E+003  0.8398431E+02  0.7546771E-02  0.1194888E+00
          2   -1    0    0  501    0  0.00000000000E+00  0.00000000000E+00  0.17422138675E+03  0.17422138675E+03  0.00000000000E+00 0. -1.
         -2   -1    0    0    0  501 -0.00000000000E+00 -0.00000000000E+00 -0.16243476798E+03  0.16243476798E+03  0.00000000000E+00 0. -1.
          2    1    1    2  502    0 -0.77864455145E+01  0.83622580961E+02  0.15174364537E+03  0.17343442187E+03  0.00000000000E+00 0. -1.
         -2    1    1    2    0  502  0.77864455145E+01 -0.83622580961E+02 -0.13995702661E+03  0.16322173286E+03  0.00000000000E+00 0. -1.
</event>
<event>
 4    1  0.5792100E+003  0.2153209E+02  0.7546771E-02  0.1511802E+00
          2   -1    0    0  501    0  0.00000000000E+00  0.00000000000E+00  0.37791025188E+02  0.37791025188E+02  0.00000000000E+00 0. -1.
         -2   -1    0    0    0  501 -0.00000000000E+00 -0.00000000000E+00 -0.28115730069E+03  0.28115730069E+03  0.00000000000E+00 0.  1.
          2    1    1    2  502    0 -0.56901383344E+01 -0.20766642453E+02  0.34272894799E+02  0.40475454672E+02  0.00000000000E+00 0. -1.
         -2    1    1    2    0  502  0.56901383344E+01  0.20766642453E+02 -0.27763917030E+03  0.27847287121E+03  0.00000000000E+00 0.  1.
</event>
<event>
 4    1  0.5792100E+003  0.3147188E+02  0.7546771E-02  0.1407223E+00
          2   -1    0    0  501    0  0.00000000000E+00  0.00000000000E+00  0.41596116874E+03  0.41596116874E+03  0.00000000000E+00 0. -1.
         -2   -1    0    0    0  501 -0.00000000000E+00 -0.00000000000E+00 -0.20212244020E+03  0.20212244020E+03  0.00000000000E+00 0. -1.
          2    1    1    2  502    0  0.29585323698E+02 -0.10732550365E+02  0.41413538231E+03  0.41532950040E+03  0.00000000000E+00 0. -1.
         -2    1    1    2    0  502 -0.29585323698E+02  0.10732550365E+02 -0.20029665378E+03  0.20275410854E+03  0.00000000000E+00 0. -1.
</event>
<event>
 4    1  0.5792100E+003  0.3490495E+02  0.7546771E-02  0.1381233E+00
          2   -1    0    0  501    0  0.00000000000E+00  0.00000000000E+00  0.25810955816E+03  0.25810955816E+03  0.00000000000E+00 0.  1.
         -2   -1    0    0    0  501 -0.00000000000E+00 -0.00000000000E+00 -0.16741818735E+02  0.16741818735E+02  0.00000000000E+00 0. -1.
          2    1    1    2  502    0  0.23362103200E+02 -0.25933906934E+02  0.23713567165E+03  0.23969080534E+03  0.00000000000E+00 0.  1.
         -2    1    1    2    0  502 -0.23362103200E+02  0.25933906934E+02  0.42320677798E+01  0.35160571561E+02  0.00000000000E+00 0. -1.
</event>
<event>
 4    1  0.5792100E+003  0.3850090E+02  0.7546771E-02  0.1357502E+00
          2   -1    0    0  501    0  0.00000000000E+00  0.00000000000E+00  0.70543023854E+03  0.70543023854E+03  0.00000000000E+00 0. -1.
         -2   -1    0    0    0  501 -0.00000000000E+00 -0.00000000000E+00 -0.22635160705E+01  0.22635160705E+01  0.00000000000E+00 0. -1.
          2    1    1    2  502    0 -0.22678072916E+02  0.31113090673E+02  0.44631012748E+03  0.44796768778E+03  0.00000000000E+00 0. -1.
         -2    1    1    2    0  502  0.22678072916E+02 -0.31113090673E+02  0.25685659499E+03  0.25972606683E+03  0.00000000000E+00 0. -1.
</event>
<event>
 4    1  0.5792100E+003  0.2823885E+02  0.7546771E-02  0.1435545E+00
          2   -1    0    0  501    0  0.00000000000E+00  0.00000000000E+00  0.12036724303E+04  0.12036724303E+04  0.00000000000E+00 0.  1.
         -2   -1    0    0    0  501 -0.00000000000E+00 -0.00000000000E+00 -0.30926635825E+01  0.30926635825E+01  0.00000000000E+00 0.  1.
          2    1    1    2  502    0 -0.10238298268E+02  0.26317480733E+02  0.11351548967E+04  0.11355060863E+04  0.00000000000E+00 0.  1.
         -2    1    1    2    0  502  0.10238298268E+02 -0.26317480733E+02  0.65424870024E+02  0.71259007580E+02  0.00000000000E+00 0.  1.
</event>
<event>
 4    1  0.5792100E+003  0.3326919E+02  0.7546771E-02  0.1393157E+00
          2   -1    0    0  501    0  0.00000000000E+00  0.00000000000E+00  0.38821277683E+02  0.38821277683E+02  0.00000000000E+00 0. -1.
         -2   -1    0    0    0  501 -0.00000000000E+00 -0.00000000000E+00 -0.20519513900E+03  0.20519513900E+03  0.00000000000E+00 0. -1.
          2    1    1    2  502    0 -0.31276513335E+02  0.11341027534E+02  0.30028107150E+02  0.44816586337E+02  0.00000000000E+00 0. -1.
         -2    1    1    2    0  502  0.31276513335E+02 -0.11341027534E+02 -0.19640196847E+03  0.19919983034E+03  0.00000000000E+00 0. -1.
</event>
<event>
 4    1  0.5792100E+003  0.3295547E+02  0.7546771E-02  0.1395536E+00
          2   -1    0    0  501    0  0.00000000000E+00  0.00000000000E+00  0.20444860113E+02  0.20444860113E+02  0.00000000000E+00 0. -1.
         -2   -1    0    0    0  501 -0.00000000000E+00 -0.00000000000E+00 -0.50054491235E+03  0.50054491235E+03  0.00000000000E+00 0. -1.
          2    1    1    2  502    0  0.31871463087E+02 -0.83829042852E+01  0.62344233193E+01  0.33539995195E+02  0.00000000000E+00 0. -1.
         -2    1    1    2    0  502 -0.31871463087E+02  0.83829042852E+01 -0.48633447556E+03  0.48744977727E+03  0.00000000000E+00 0. -1.
</event>
<event>
 4    1  0.5792100E+003  0.2647850E+02  0.7546771E-02  0.1452918E+00
          2   -1    0    0  501    0  0.00000000000E+00  0.00000000000E+00  0.48428590636E+03  0.48428590636E+03  0.00000000000E+00 0.  1.
         -2   -1    0    0    0  501 -0.00000000000E+00 -0.00000000000E+00 -0.25672612725E+02  0.25672612725E+02  0.00000000000E+00 0. -1.
          2    1    1    2  502    0  0.19903524765E+02  0.17463126056E+02  0.47699223620E+03  0.47772660012E+03  0.00000000000E+00 0.  1.
         -2    1    1    2    0  502 -0.19903524765E+02 -0.17463126056E+02 -0.18378942570E+02  0.32231918958E+02  0.00000000000E+00 0. -1.
</event>
<event>
 4    1  0.5792100E+003  0.2387533E+02  0.7546771E-02  0.1481790E+00
          2   -1    0    0  501    0  0.00000000000E+00  0.00000000000E+00  0.10782590944E+04  0.10782590944E+04  0.00000000000E+00 0. -1.
         -2   -1    0    0    0  501 -0.00000000000E+00 -0.00000000000E+00 -0.21359075798E+01  0.21359075798E+01  0.00000000000E+00 0. -1.
          2    1    1    2  502    0  0.23592517852E+02 -0.36639326148E+01  0.10066622329E+04  0.10069453225E+04  0.00000000000E+00 0. -1.
         -2    1    1    2    0  502 -0.23592517852E+02  0.36639326148E+01  0.69460953980E+02  0.73449679567E+02  0.00000000000E+00 0. -1.
</event>
<event>
 4    1  0.5792100E+003  0.2097549E+02  0.7546771E-02  0.1519615E+00
          2   -1    0    0  501    0  0.00000000000E+00  0.00000000000E+00  0.52452166839E+03  0.52452166839E+03  0.00000000000E+00 0.  1.
         -2   -1    0    0    0  501 -0.00000000000E+00 -0.00000000000E+00 -0.97678901044E+01  0.97678901044E+01  0.00000000000E+00 0.  1.
          2    1    1    2  502    0 -0.18197276068E+02  0.10432173647E+02  0.51279389155E+03  0.51322270635E+03  0.00000000000E+00 0.  1.
         -2    1    1    2    0  502  0.18197276068E+02 -0.10432173647E+02  0.19598867374E+01  0.21066852145E+02  0.00000000000E+00 0.  1.
</event>
<event>
 4    1  0.5792100E+003  0.2035392E+02  0.7546771E-02  0.1528692E+00
          2   -1    0    0  501    0  0.00000000000E+00  0.00000000000E+00  0.85700408383E+03  0.85700408383E+03  0.00000000000E+00 0. -1.
         -2   -1    0    0    0  501 -0.00000000000E+00 -0.00000000000E+00 -0.61997248282E+00  0.61997248282E+00  0.00000000000E+00 0.  1.
          2    1    1    2  502    0  0.19510669678E+02  0.57979120093E+01  0.62944895408E+03  0.62977795119E+03  0.00000000000E+00 0. -1.
         -2    1    1    2    0  502 -0.19510669678E+02 -0.57979120093E+01  0.22693515727E+03  0.22784610512E+03  0.00000000000E+00 0.  1.
</event>
<event>
 4    1  0.5792100E+003  0.3668755E+02  0.7546771E-02  0.1369072E+00
          2   -1    0    0  501    0  0.00000000000E+00  0.00000000000E+00  0.54540340995E+03  0.54540340995E+03  0.00000000000E+00 0.  1.
         -2   -1    0    0    0  501 -0.00000000000E+00 -0.00000000000E+00 -0.12854905765E+02  0.12854905765E+02  0.00000000000E+00 0.  1.
          2    1    1    2  502    0 -0.28201006483E+02 -0.23466565303E+02  0.51718362599E+03  0.51848324896E+03  0.00000000000E+00 0.  1.
         -2    1    1    2    0  502  0.28201006483E+02  0.23466565303E+02  0.15364878191E+02  0.39775066758E+02  0.00000000000E+00 0.  1.
</event>
<event>
 4    1  0.5792100E+003  0.2717373E+02  0.7546771E-02  0.1445871E+00
          2   -1    0    0  501    0  0.00000000000E+00  0.00000000000E+00  0.56238842987E+01  0.56238842987E+01  0.00000000000E+00 0.  1.
         -2   -1    0    0    0  501 -0.00000000000E+00 -0.00000000000E+00 -0.13130065231E+03  0.13130065231E+03  0.00000000000E+00 0.  1.
          2    1    1    2  502    0 -0.44671850452E+01 -0.26804027079E+02 -0.62612097984E+02  0.68254570718E+02  0.00000000000E+00 0.  1.
         -2    1    1    2    0  502  0.44671850452E+01  0.26804027079E+02 -0.63064670026E+02  0.68669965890E+02  0.00000000000E+00 0.  1.
</event>
<event>
 4    1  0.5792100E+003  0.2114673E+02  0.7546771E-02  0.1517180E+00
          2   -1    0    0  501    0  0.00000000000E+00  0.00000000000E+00  0.27837351360E+02  0.27837351360E+02  0.00000000000E+00 0.  1.
         -2   -1    0    0    0  501 -0.00000000000E+00 -0.00000000000E+00 -0.17618557617E+02  0.17618557617E+02  0.00000000000E+00 0.  1.
          2    1    1    2  502    0  0.12667356255E+02  0.16932881497E+02  0.11860155852E+02  0.24245570464E+02  0.00000000000E+00 0.  1.
         -2    1    1    2    0  502 -0.12667356255E+02 -0.16932881497E+02 -0.16413621092E+01  0.21210338514E+02  0.00000000000E+00 0.  1.
</event>
<event>
 4    1  0.5792100E+003  0.3039756E+02  0.7546771E-02  0.1416172E+00
          2   -1    0    0  501    0  0.00000000000E+00  0.00000000000E+00  0.11647867656E+04  0.11647867656E+04  0.00000000000E+00 0.  1.
         -2   -1    0    0    0  501 -0.00000000000E+00 -0.00000000000E+00 -0.36923568965E+01  0.36923568965E+01  0.00000000000E+00 0.  1.
          2    1    1    2  502    0  0.24839535765E+02 -0.17521676565E+02  0.10982355316E+04  0.10986561312E+04  0.00000000000E+00 0.  1.
         -2    1    1    2    0  502 -0.24839535765E+02  0.17521676565E+02  0.62858877065E+02  0.69822991289E+02  0.00000000000E+00 0.  1.
</event>
<event>
 4    1  0.5792100E+003  0.2576745E+02  0.7546771E-02  0.1460398E+00
          2   -1    0    0  501    0  0.00000000000E+00  0.00000000000E+00  0.21838977927E+03  0.21838977927E+03  0.00000000000E+00 0. -1.
         -2   -1    0    0    0  501 -0.00000000000E+00 -0.00000000000E+00 -0.32491574380E+01  0.32491574380E+01  0.00000000000E+00 0.  1.
          2    1    1    2  502    0 -0.25232186374E+02 -0.52247667853E+01  0.13566981379E+03  0.13809511140E+03  0.00000000000E+00 0. -1.
         -2    1    1    2    0  502  0.25232186374E+02  0.52247667853E+01  0.79470808037E+02  0.83543825309E+02  0.00000000000E+00 0.  1.
</event>
<event>
 4    1  0.5792100E+003  0.2465414E+02  0.7546771E-02  0.1472710E+00
          2   -1    0    0  501    0  0.00000000000E+00  0.00000000000E+00  0.14892723304E+04  0.14892723304E+04  0.00000000000E+00 0. -1.
         -2   -1    0    0    0  501 -0.00000000000E+00 -0.00000000000E+00 -0.20414121555E+01  0.20414121555E+01  0.00000000000E+00 0.  1.
          2    1    1    2  502    0  0.17079416678E+02 -0.17779774788E+02  0.14105809725E+04  0.14107964087E+04  0.00000000000E+00 0. -1.
         -2    1    1    2    0  502 -0.17079416678E+02  0.17779774788E+02  0.76649945683E+02  0.80517333778E+02  0.00000000000E+00 0.  1.
</event>
<event>
 4    1  0.5792100E+003  0.6307311E+02  0.7546771E-02  0.1249734E+00
          2   -1    0    0  501    0  0.00000000000E+00  0.00000000000E+00  0.56409252544E+03  0.56409252544E+03  0.00000000000E+00 0. -1.
         -2   -1    0    0    0  501 -0.00000000000E+00 -0.00000000000E+00 -0.17659600449E+02  0.17659600449E+02  0.00000000000E+00 0.  1.
          2    1    1    2  502    0 -0.34426470687E+02 -0.52849175401E+02  0.49864948394E+03  0.50262264679E+03  0.00000000000E+00 0. -1.
         -2    1    1    2    0  502  0.34426470687E+02  0.52849175401E+02  0.47783441042E+02  0.79129479098E+02  0.00000000000E+00 0.  1.
</event>
<event>
 4    1  0.5792100E+003  0.2564732E+02  0.7546771E-02  0.1461690E+00
          2   -1    0    0  501    0  0.00000000000E+00  0.00000000000E+00  0.15518289712E+04  0.15518289712E+04  0.00000000000E+00 0. -1.
         -2   -1    0    0    0  501 -0.00000000000E+00 -0.00000000000E+00 -0.58555506327E+02  0.58555506327E+02  0.00000000000E+00 0.  1.
          2    1    1    2  502    0  0.10209917435E+02 -0.23527491053E+02  0.15489093251E+04  0.15491216488E+04  0.00000000000E+00 0. -1.
         -2    1    1    2    0  502 -0.10209917435E+02  0.23527491053E+02 -0.55635860214E+02  0.61262828788E+02  0.00000000000E+00 0.  1.
</event>
<event>
 4    1  0.5792100E+003  0.2003624E+02  0.7546771E-02  0.1533482E+00
          2   -1    0    0  501    0  0.00000000000E+00  0.00000000000E+00  0.73805375494E+03  0.73805375494E+03  0.00000000000E+00 0.  1.
         -2   -1    0    0    0  501 -0.00000000000E+00 -0.00000000000E+00 -0.73418003083E+00  0.73418003083E+00  0.00000000000E+00 0. -1.
          2    1    1    2  502    0 -0.67849546255E+01 -0.18852461414E+02  0.55669917296E+03  0.55705961987E+03  0.00000000000E+00 0.  1.
         -2    1    1    2    0  502  0.67849546255E+01  0.18852461414E+02  0.18062040195E+03  0.18172831511E+03  0.00000000000E+00 0. -1.
</event>
<event>
 4    1  0.5792100E+003  0.2407109E+02  0.7546771E-02  0.1479469E+00
          2   -1    0    0  501    0  0.00000000000E+00  0.00000000000E+00  0.10732074951E+02  0.10732074951E+02  0.00000000000E+00 0.  1.
         -2   -1    0    0    0  501 -0.00000000000E+00 -0.00000000000E+00 -0.76954656423E+02  0.76954656423E+02  0.00000000000E+00 0.  1.
          2    1    1    2  502    0 -0.19819593518E+02 -0.13660204961E+02 -0.91603382664E+01  0.25755179750E+02  0.00000000000E+00 0.  1.
         -2    1    1    2    0  502  0.19819593518E+02  0.13660204961E+02 -0.57062243206E+02  0.61931551623E+02  0.00000000000E+00 0.  1.
</event>
<event>
 4    1  0.5792100E+003  0.3076591E+02  0.7546771E-02  0.1413055E+00
          2   -1    0    0  501    0  0.00000000000E+00  0.00000000000E+00  0.77872450426E+02  0.77872450426E+02  0.00000000000E+00 0. -1.
         -2   -1    0    0    0  501 -0.00000000000E+00 -0.00000000000E+00 -0.13740278217E+02  0.13740278217E+02  0.00000000000E+00 0. -1.
          2    1    1    2  502    0 -0.30765570151E+02 -0.14440529597E+00  0.47624958673E+02  0.56698129142E+02  0.00000000000E+00 0. -1.
         -2    1    1    2    0  502  0.30765570151E+02  0.14440529597E+00  0.16507213535E+02  0.34914599500E+02  0.00000000000E+00 0. -1.
</event>
<event>
 4    1  0.5792100E+003  0.2039517E+02  0.7546771E-02  0.1528078E+00
          2   -1    0    0  501    0  0.00000000000E+00  0.00000000000E+00  0.67832227592E+03  0.67832227592E+03  0.00000000000E+00 0. -1.
         -2   -1    0    0    0  501 -0.00000000000E+00 -0.00000000000E+00 -0.12254740474E+02  0.12254740474E+02  0.00000000000E+00 0. -1.
          2    1    1    2  502    0  0.18718803259E+02 -0.80974806029E+01  0.66957235199E+03  0.66988289823E+03  0.00000000000E+00 0. -1.
         -2    1    1    2    0  502 -0.18718803259E+02  0.80974806029E+01 -0.35048165479E+01  0.20694118164E+02  0.00000000000E+00 0. -1.
</event>
<event>
 4    1  0.5792100E+003  0.2906184E+02  0.7546771E-02  0.1427928E+00
          2   -1    0    0  501    0  0.00000000000E+00  0.00000000000E+00  0.61533200692E+03  0.61533200692E+03  0.00000000000E+00 0. -1.
         -2   -1    0    0    0  501 -0.00000000000E+00 -0.00000000000E+00 -0.17340059004E+01  0.17340059004E+01  0.00000000000E+00 0. -1.
          2    1    1    2  502    0  0.28678922065E+01  0.28919984152E+02  0.44765911869E+03  0.44860146771E+03  0.00000000000E+00 0. -1.
         -2    1    1    2    0  502 -0.28678922065E+01 -0.28919984152E+02  0.16593888234E+03  0.16846454511E+03  0.00000000000E+00 0. -1.
</event>
<event>
 4    1  0.5792100E+003  0.5603466E+02  0.7546771E-02  0.1273935E+00
          2   -1    0    0  501    0  0.00000000000E+00  0.00000000000E+00  0.61070608440E+03  0.61070608440E+03  0.00000000000E+00 0.  1.
         -2   -1    0    0    0  501 -0.00000000000E+00 -0.00000000000E+00 -0.62751990544E+02  0.62751990544E+02  0.00000000000E+00 0.  1.
          2    1    1    2  502    0  0.11697080963E+00  0.56034542519E+02  0.59661687905E+03  0.59924250851E+03  0.00000000000E+00 0.  1.
         -2    1    1    2    0  502 -0.11697080963E+00 -0.56034542519E+02 -0.48662785197E+02  0.74215566431E+02  0.00000000000E+00 0.  1.
</event>
<event>
 4    1  0.5792100E+003  0.2010336E+02  0.7546771E-02  0.1532461E+00
          2   -1    0    0  501    0  0.00000000000E+00  0.00000000000E+00  0.49063921376E+03  0.49063921376E+03  0.00000000000E+00 0.  1.
         -2   -1    0    0    0  501 -0.00000000000E+00 -0.00000000000E+00 -0.10169079314E+03  0.10169079314E+03  0.00000000000E+00 0. -1.
          2    1    1    2  502    0 -0.51529386773E+01  0.19431738779E+02  0.48943728293E+03  0.48984997618E+03  0.00000000000E+00 0.  1.
         -2    1    1    2    0  502  0.51529386773E+01 -0.19431738779E+02 -0.10048886231E+03  0.10248003072E+03  0.00000000000E+00 0. -1.
</event>
<event>
 4    1  0.5792100E+003  0.2311007E+02  0.7546771E-02  0.1491121E+00
          2   -1    0    0  501    0  0.00000000000E+00  0.00000000000E+00  0.16101464721E+03  0.16101464721E+03  0.00000000000E+00 0.  1.
         -2   -1    0    0    0  501 -0.00000000000E+00 -0.00000000000E+00 -0.88598719468E+01  0.88598719468E+01  0.00000000000E+00 0.  1.
          2    1    1    2  502    0 -0.33099728148E+01  0.22871801811E+02  0.14325962490E+03  0.14511166516E+03  0.00000000000E+00 0.  1.
         -2    1    1    2    0  502  0.33099728148E+01 -0.22871801811E+02  0.88951503601E+01  0.24762853997E+02  0.00000000000E+00 0.  1.
</event>
<event>
 4    1  0.5792100E+003  0.2016496E+02  0.7546771E-02  0.1531529E+00
          2   -1    0    0  501    0  0.00000000000E+00  0.00000000000E+00  0.92159348517E+03  0.92159348517E+03  0.00000000000E+00 0. -1.
         -2   -1    0    0    0  501 -0.00000000000E+00 -0.00000000000E+00 -0.45408034572E+00  0.45408034572E+00  0.00000000000E+00 0.  1.
          2    1    1    2  502    0 -0.18703674140E+02 -0.75364703424E+01  0.53815459793E+03  0.53853226187E+03  0.00000000000E+00 0. -1.
         -2    1    1    2    0  502  0.18703674140E+02  0.75364703424E+01  0.38298480689E+03  0.38351530364E+03  0.00000000000E+00 0.  1.
</event>
<event>
 4    1  0.5792100E+003  0.2294083E+02  0.7546771E-02  0.1493243E+00
          2   -1    0    0  501    0  0.00000000000E+00  0.00000000000E+00  0.14586831833E+02  0.14586831833E+02  0.00000000000E+00 0.  1.
         -2   -1    0    0    0  501 -0.00000000000E+00 -0.00000000000E+00 -0.36539635446E+02  0.36539635446E+02  0.00000000000E+00 0.  1.
          2    1    1    2  502    0 -0.19915784113E+02 -0.11386093388E+02 -0.81068997781E+01  0.24331120062E+02  0.00000000000E+00 0.  1.
         -2    1    1    2    0  502  0.19915784113E+02  0.11386093388E+02 -0.13845903835E+02  0.26795347217E+02  0.00000000000E+00 0.  1.
</event>
<event>
 4    1  0.5792100E+003  0.3454962E+02  0.7546771E-02  0.1383757E+00
          2   -1    0    0  501    0  0.00000000000E+00  0.00000000000E+00  0.17004043309E+03  0.17004043309E+03  0.00000000000E+00 0.  1.
         -2   -1    0    0    0  501 -0.00000000000E+00 -0.00000000000E+00 -0.33904345160E+02  0.33904345160E+02  0.00000000000E+00 0.  1.
          2    1    1    2  502    0 -0.93870043588E+01 -0.33249964995E+02  0.15887205166E+03  0.16258537702E+03  0.00000000000E+00 0.  1.
         -2    1    1    2    0  502  0.93870043588E+01  0.33249964995E+02 -0.22735963731E+02  0.41359401226E+02  0.00000000000E+00 0.  1.
</event>
<event>
 4    1  0.5792100E+003  0.4113154E+02  0.7546771E-02  0.1341980E+00
          2   -1    0    0  501    0  0.00000000000E+00  0.00000000000E+00  0.47913200724E+03  0.47913200724E+03  0.00000000000E+00 0. -1.
         -2   -1    0    0    0  501 -0.00000000000E+00 -0.00000000000E+00 -0.62579942960E+01  0.62579942960E+01  0.00000000000E+00 0.  1.
          2    1    1    2  502    0 -0.35176470119E+02 -0.21317122678E+02  0.39664613194E+03  0.39877306548E+03  0.00000000000E+00 0. -1.
         -2    1    1    2    0  502  0.35176470119E+02  0.21317122678E+02  0.76227881001E+02  0.86616936053E+02  0.00000000000E+00 0.  1.
</event>
<event>
 4    1  0.5792100E+003  0.2397696E+02  0.7546771E-02  0.1480582E+00
          2   -1    0    0  501    0  0.00000000000E+00  0.00000000000E+00  0.21260773683E+03  0.21260773683E+03  0.00000000000E+00 0.  1.
         -2   -1    0    0    0  501 -0.00000000000E+00 -0.00000000000E+00 -0.74870284828E+01  0.74870284828E+01  0.00000000000E+00 0. -1.
          2    1    1    2  502    0  0.17891800910E+02 -0.15961767190E+02  0.19051843984E+03  0.19202127609E+03  0.00000000000E+00 0.  1.
         -2    1    1    2    0  502 -0.17891800910E+02  0.15961767190E+02  0.14602268506E+02  0.28073489223E+02  0.00000000000E+00 0. -1.
</event>
<event>
 4    1  0.5792100E+003  0.2262233E+02  0.7546771E-02  0.1497296E+00
          2   -1    0    0  501    0  0.00000000000E+00  0.00000000000E+00  0.16409456538E+03  0.16409456538E+03  0.00000000000E+00 0. -1.
         -2   -1    0    0    0  501 -0.00000000000E+00 -0.00000000000E+00 -0.23072680379E+03  0.23072680379E+03  0.00000000000E+00 0.  1.
          2    1    1    2  502    0 -0.17830249300E+02  0.13923072117E+02  0.16275581966E+03  0.16432049952E+03  0.00000000000E+00 0. -1.
         -2    1    1    2    0  502  0.17830249300E+02 -0.13923072117E+02 -0.22938805807E+03  0.23050086966E+03  0.00000000000E+00 0.  1.
</event>
<event>
 4    1  0.5792100E+003  0.2556654E+02  0.7546771E-02  0.1462564E+00
          2   -1    0    0  501    0  0.00000000000E+00  0.00000000000E+00  0.13699674294E+04  0.13699674294E+04  0.00000000000E+00 0.  1.
         -2   -1    0    0    0  501 -0.00000000000E+00 -0.00000000000E+00 -0.96435384593E+02  0.96435384593E+02  0.00000000000E+00 0.  1.
          2    1    1    2  502    0  0.25557863005E+02 -0.66588927583E+00  0.13681513761E+04  0.13683902352E+04  0.00000000000E+00 0.  1.
         -2    1    1    2    0  502 -0.25557863005E+02  0.66588927583E+00 -0.94619331252E+02  0.98012578869E+02  0.00000000000E+00 0.  1.
</event>
<event>
 4    1  0.5792100E+003  0.2129465E+02  0.7546771E-02  0.1515099E+00
          2   -1    0    0  501    0  0.00000000000E+00  0.00000000000E+00  0.34356795958E+02  0.34356795958E+02  0.00000000000E+00 0. -1.
         -2   -1    0    0    0  501 -0.00000000000E+00 -0.00000000000E+00 -0.16126678414E+02  0.16126678414E+02  0.00000000000E+00 0.  1.
          2    1    1    2  502    0  0.11456299202E+02 -0.17950349492E+02 -0.16406152223E+01  0.21357749334E+02  0.00000000000E+00 0.  1.
         -2    1    1    2    0  502 -0.11456299202E+02  0.17950349492E+02  0.19870732767E+02  0.29125725038E+02  0.00000000000E+00 0. -1.
</event>
<event>
 4    1  0.5792100E+003  0.3332328E+02  0.7546771E-02  0.1392750E+00
          2   -1    0    0  501    0  0.00000000000E+00  0.00000000000E+00  0.16518498056E+04  0.16518498056E+04  0.00000000000E+00 0.  1.
         -2   -1    0    0    0  501 -0.00000000000E+00 -0.00000000000E+00 -0.70682478264E+00  0.70682478264E+00  0.00000000000E+00 0. -1.
          2    1    1    2  502    0 -0.33170246075E+02 -0.31899742831E+01  0.10083422577E+04  0.10088927345E+04  0.00000000000E+00 0.  1.
         -2    1    1    2    0  502  0.33170246075E+02  0.31899742831E+01  0.64280072315E+03  0.64366389587E+03  0.00000000000E+00 0. -1.
</event>
<event>
 4    1  0.5792100E+003  0.2488962E+02  0.7546771E-02  0.1470042E+00
          2   -1    0    0  501    0  0.00000000000E+00  0.00000000000E+00  0.11663012005E+02  0.11663012005E+02  0.00000000000E+00 0.  1.
         -2   -1    0    0    0  501 -0.00000000000E+00 -0.00000000000E+00 -0.58322842104E+02  0.58322842104E+02  0.00000000000E+00 0.  1.
          2    1    1    2  502    0 -0.23408234363E+02  0.84585779699E+01 -0.12874372050E+02  0.28022177520E+02  0.00000000000E+00 0.  1.
         -2    1    1    2    0  502  0.23408234363E+02 -0.84585779699E+01 -0.33785458049E+02  0.41963676589E+02  0.00000000000E+00 0.  1.
</event>
<event>
 4    1  0.5792100E+003  0.3016454E+02  0.7546771E-02  0.1418172E+00
          2   -1    0    0  501    0  0.00000000000E+00  0.00000000000E+00  0.76412503595E+03  0.76412503595E+03  0.00000000000E+00 0.  1.
         -2   -1    0    0    0  501 -0.00000000000E+00 -0.00000000000E+00 -0.19730199687E+02  0.19730199687E+02  0.00000000000E+00 0.  1.
          2    1    1    2  502    0  0.86305750866E+01 -0.28903510540E+02  0.75211402083E+03  0.75271867259E+03  0.00000000000E+00 0.  1.
         -2    1    1    2    0  502 -0.86305750866E+01  0.28903510540E+02 -0.77191845635E+01  0.31136563044E+02  0.00000000000E+00 0.  1.
</event>
<event>
 4    1  0.5792100E+003  0.2378179E+02  0.7546771E-02  0.1482908E+00
          2   -1    0    0  501    0  0.00000000000E+00  0.00000000000E+00  0.24718691310E+03  0.24718691310E+03  0.00000000000E+00 0.  1.
         -2   -1    0    0    0  501 -0.00000000000E+00 -0.00000000000E+00 -0.26610936772E+01  0.26610936772E+01  0.00000000000E+00 0.  1.
          2    1    1    2  502    0 -0.89126479967E+01 -0.22048547691E+02  0.16903653067E+03  0.17070126669E+03  0.00000000000E+00 0.  1.
         -2    1    1    2    0  502  0.89126479967E+01  0.22048547691E+02  0.75489288758E+02  0.79146740089E+02  0.00000000000E+00 0.  1.
</event>
<event>
 4    1  0.5792100E+003  0.3382950E+02  0.7546771E-02  0.1388984E+00
          2   -1    0    0  501    0  0.00000000000E+00  0.00000000000E+00  0.70282798762E+03  0.70282798762E+03  0.00000000000E+00 0. -1.
         -2   -1    0    0    0  501 -0.00000000000E+00 -0.00000000000E+00 -0.16293875508E+01  0.16293875508E+01  0.00000000000E+00 0. -1.
          2    1    1    2  502    0 -0.26184730600E+02 -0.21419470833E+02  0.34161340867E+03  0.34328436439E+03  0.00000000000E+00 0. -1.
         -2    1    1    2    0  502  0.26184730600E+02  0.21419470833E+02  0.35958519139E+03  0.36117301078E+03  0.00000000000E+00 0. -1.
</event>
<event>
 4    1  0.5792100E+003  0.2136134E+02  0.7546771E-02  0.1514168E+00
          2   -1    0    0  501    0  0.00000000000E+00  0.00000000000E+00  0.18961798997E+02  0.18961798997E+02  0.00000000000E+00 0. -1.
         -2   -1    0    0    0  501 -0.00000000000E+00 -0.00000000000E+00 -0.47527834606E+03  0.47527834606E+03  0.00000000000E+00 0.  1.
          2    1    1    2  502    0  0.18741005386E+02  0.10250919919E+02  0.12624385864E+02  0.24812935347E+02  0.00000000000E+00 0. -1.
         -2    1    1    2    0  502 -0.18741005386E+02 -0.10250919919E+02 -0.46894093293E+03  0.46942720972E+03  0.00000000000E+00 0.  1.
</event>
<event>
 4    1  0.5792100E+003  0.2291786E+02  0.7546771E-02  0.1493532E+00
          2   -1    0    0  501    0  0.00000000000E+00  0.00000000000E+00  0.13259416040E+04  0.13259416040E+04  0.00000000000E+00 0. -1.
         -2   -1    0    0    0  501 -0.00000000000E+00 -0.00000000000E+00 -0.76432171910E+01  0.76432171910E+01  0.00000000000E+00 0.  1.
          2    1    1    2  502    0 -0.22753490880E+02  0.27398741820E+01  0.13084331544E+04  0.13086338479E+04  0.00000000000E+00 0. -1.
         -2    1    1    2    0  502  0.22753490880E+02 -0.27398741820E+01  0.98652323625E+01  0.24950973274E+02  0.00000000000E+00 0.  1.
</event>
<event>
 4    1  0.5792100E+003  0.3147122E+02  0.7546771E-02  0.1407228E+00
          2   -1    0    0  501    0  0.00000000000E+00  0.00000000000E+00  0.39165365144E+03  0.39165365144E+03  0.00000000000E+00 0. -1.
         -2   -1    0    0    0  501 -0.00000000000E+00 -0.00000000000E+00 -0.71490869999E+01  0.71490869999E+01  0.00000000000E+00 0. -1.
          2    1    1    2  502    0 -0.83066096471E+01 -0.30355200350E+02  0.35255261281E+03  0.35395449249E+03  0.00000000000E+00 0. -1.
         -2    1    1    2    0  502  0.83066096471E+01  0.30355200350E+02  0.31951951628E+02  0.44848245951E+02  0.00000000000E+00 0. -1.
</event>
<event>
 4    1  0.5792100E+003  0.8957536E+02  0.7546771E-02  0.1183211E+00
          2   -1    0    0  501    0  0.00000000000E+00  0.00000000000E+00  0.23575351061E+03  0.23575351061E+03  0.00000000000E+00 0. -1.
         -2   -1    0    0    0  501 -0.00000000000E+00 -0.00000000000E+00 -0.15543563993E+03  0.15543563993E+03  0.00000000000E+00 0.  1.
          2    1    1    2  502    0  0.47411204186E+02  0.75999492139E+02  0.21301831263E+03  0.23108558286E+03  0.00000000000E+00 0. -1.
         -2    1    1    2    0  502 -0.47411204186E+02 -0.75999492139E+02 -0.13270044195E+03  0.16010356768E+03  0.00000000000E+00 0.  1.
</event>
<event>
 4    1  0.5792100E+003  0.2106667E+02  0.7546771E-02  0.1518315E+00
          2   -1    0    0  501    0  0.00000000000E+00  0.00000000000E+00  0.25662179237E+02  0.25662179237E+02  0.00000000000E+00 0.  1.
         -2   -1    0    0    0  501 -0.00000000000E+00 -0.00000000000E+00 -0.71135235181E+03  0.71135235181E+03  0.00000000000E+00 0. -1.
          2    1    1    2  502    0 -0.64220801561E+01  0.20063937040E+02  0.21155116245E+02  0.29855378517E+02  0.00000000000E+00 0.  1.
         -2    1    1    2    0  502  0.64220801561E+01 -0.20063937040E+02 -0.70684528882E+03  0.70715915253E+03  0.00000000000E+00 0. -1.
</event>
<event>
 4    1  0.5792100E+003  0.2684884E+02  0.7546771E-02  0.1449132E+00
          2   -1    0    0  501    0  0.00000000000E+00  0.00000000000E+00  0.61950361005E+03  0.61950361005E+03  0.00000000000E+00 0.  1.
         -2   -1    0    0    0  501 -0.00000000000E+00 -0.00000000000E+00 -0.24957455781E+01  0.24957455781E+01  0.00000000000E+00 0. -1.
          2    1    1    2  502    0 -0.61248923006E+01 -0.26140885043E+02  0.53571741985E+03  0.53638979680E+03  0.00000000000E+00 0.  1.
         -2    1    1    2    0  502  0.61248923006E+01  0.26140885043E+02  0.81290444622E+02  0.85609558832E+02  0.00000000000E+00 0. -1.
</event>
<event>
 4    1  0.5792100E+003  0.4119313E+02  0.7546771E-02  0.1341632E+00
          2   -1    0    0  501    0  0.00000000000E+00  0.00000000000E+00  0.19816458382E+04  0.19816458382E+04  0.00000000000E+00 0.  1.
         -2   -1    0    0    0  501 -0.00000000000E+00 -0.00000000000E+00 -0.57152184839E+03  0.57152184839E+03  0.00000000000E+00 0. -1.
          2    1    1    2  502    0 -0.38941466481E+02  0.13432653995E+02  0.19806891446E+04  0.19811174528E+04  0.00000000000E+00 0.  1.
         -2    1    1    2    0  502  0.38941466481E+02 -0.13432653995E+02 -0.57056515487E+03  0.57205023377E+03  0.00000000000E+00 0. -1.
</event>
<event>
 4    1  0.5792100E+003  0.2271260E+02  0.7546771E-02  0.1496139E+00
          2   -1    0    0  501    0  0.00000000000E+00  0.00000000000E+00  0.11261639960E+03  0.11261639960E+03  0.00000000000E+00 0.  1.
         -2   -1    0    0    0  501 -0.00000000000E+00 -0.00000000000E+00 -0.14544638536E+03  0.14544638536E+03  0.00000000000E+00 0. -1.
          2    1    1    2  502    0 -0.99221249271E+01 -0.20430708397E+02  0.11056828038E+03  0.11287695528E+03  0.00000000000E+00 0.  1.
         -2    1    1    2    0  502  0.99221249271E+01  0.20430708397E+02 -0.14339826614E+03  0.14518582968E+03  0.00000000000E+00 0. -1.
</event>
<event>
 4    1  0.5792100E+003  0.2549314E+02  0.7546771E-02  0.1463362E+00
          2   -1    0    0  501    0  0.00000000000E+00  0.00000000000E+00  0.99777249675E+02  0.99777249675E+02  0.00000000000E+00 0.  1.
         -2   -1    0    0    0  501 -0.00000000000E+00 -0.00000000000E+00 -0.12019323493E+02  0.12019323493E+02  0.00000000000E+00 0. -1.
          2    1    1    2  502    0 -0.18543249742E+02 -0.17494226123E+02  0.81711830074E+02  0.85596280484E+02  0.00000000000E+00 0.  1.
         -2    1    1    2    0  502  0.18543249742E+02  0.17494226123E+02  0.60460961073E+01  0.26200292684E+02  0.00000000000E+00 0. -1.
</event>
<event>
 4    1  0.5792100E+003  0.4183005E+02  0.7546771E-02  0.1338083E+00
          2   -1    0    0  501    0  0.00000000000E+00  0.00000000000E+00  0.33319601683E+03  0.33319601683E+03  0.00000000000E+00 0. -1.
         -2   -1    0    0    0  501 -0.00000000000E+00 -0.00000000000E+00 -0.22284654555E+03  0.22284654555E+03  0.00000000000E+00 0. -1.
          2    1    1    2  502    0 -0.41714056464E+02 -0.31129051188E+01  0.32990067497E+03  0.33254203949E+03  0.00000000000E+00 0. -1.
         -2    1    1    2    0  502  0.41714056464E+02  0.31129051188E+01 -0.21955120370E+03  0.22350052289E+03  0.00000000000E+00 0. -1.
</event>
<event>
 4    1  0.5792100E+003  0.3391044E+02  0.7546771E-02  0.1388389E+00
          2   -1    0    0  501    0  0.00000000000E+00  0.00000000000E+00  0.75386180203E+03  0.75386180203E+03  0.00000000000E+00 0. -1.
         -2   -1    0    0    0  501 -0.00000000000E+00 -0.00000000000E+00 -0.32692612884E+01  0.32692612884E+01  0.00000000000E+00 0.  1.
          2    1    1    2  502    0 -0.23888054225E+02 -0.24068212363E+02  0.65178408092E+03  0.65266561585E+03  0.00000000000E+00 0. -1.
         -2    1    1    2    0  502  0.23888054225E+02  0.24068212363E+02  0.98808459821E+02  0.10446544746E+03  0.00000000000E+00 0.  1.
</event>
<event>
 4    1  0.5792100E+003  0.2331721E+02  0.7546771E-02  0.1488553E+00
          2   -1    0    0  501    0  0.00000000000E+00  0.00000000000E+00  0.29475219525E+01  0.29475219525E+01  0.00000000000E+00 0. -1.
         -2   -1    0    0    0  501 -0.00000000000E+00 -0.00000000000E+00 -0.30744428055E+03  0.30744428055E+03  0.00000000000E+00 0. -1.
          2    1    1    2  502    0 -0.21751285621E+02 -0.84008281244E+01 -0.54090228241E+02  0.58901995980E+02  0.00000000000E+00 0. -1.
         -2    1    1    2    0  502  0.21751285621E+02  0.84008281244E+01 -0.25040653036E+03  0.25148980652E+03  0.00000000000E+00 0. -1.
</event>
<event>
 4    1  0.5792100E+003  0.6712593E+02  0.7546771E-02  0.1237371E+00
          2   -1    0    0  501    0  0.00000000000E+00  0.00000000000E+00  0.40282544177E+03  0.40282544177E+03  0.00000000000E+00 0.  1.
         -2   -1    0    0    0  501 -0.00000000000E+00 -0.00000000000E+00 -0.23879497831E+02  0.23879497831E+02  0.00000000000E+00 0. -1.
          2    1    1    2  502    0 -0.50825417423E+02 -0.43848233223E+02  0.34502676690E+03  0.35149588972E+03  0.00000000000E+00 0.  1.
         -2    1    1    2    0  502  0.50825417423E+02  0.43848233223E+02  0.33919177039E+02  0.75209049881E+02  0.00000000000E+00 0. -1.
</event>
<event>
 4    1  0.5792100E+003  0.3253353E+02  0.7546771E-02  0.1398785E+00
          2   -1    0    0  501    0  0.00000000000E+00  0.00000000000E+00  0.37844398355E+02  0.37844398355E+02  0.00000000000E+00 0. -1.
         -2   -1    0    0    0  501 -0.00000000000E+00 -0.00000000000E+00 -0.11408265902E+03  0.11408265902E+03  0.00000000000E+00 0. -1.
          2    1    1    2  502    0 -0.99247984165E+01 -0.30982718399E+02  0.27879354826E+02  0.42844940057E+02  0.00000000000E+00 0. -1.
         -2    1    1    2    0  502  0.99247984165E+01  0.30982718399E+02 -0.10411761549E+03  0.10908211731E+03  0.00000000000E+00 0. -1.
</event>
<event>
 4    1  0.5792100E+003  0.4859261E+02  0.7546771E-02  0.1304392E+00
          2   -1    0    0  501    0  0.00000000000E+00  0.00000000000E+00  0.41481347988E+03  0.41481347988E+03  0.00000000000E+00 0. -1.
         -2   -1    0    0    0  501 -0.00000000000E+00 -0.00000000000E+00 -0.12666949664E+02  0.12666949664E+02  0.00000000000E+00 0.  1.
          2    1    1    2  502    0  0.20292441784E+02 -0.44152678413E+02  0.35967628804E+03  0.36294389977E+03  0.00000000000E+00 0. -1.
         -2    1    1    2    0  502 -0.20292441784E+02  0.44152678413E+02  0.42470242183E+02  0.64536529777E+02  0.00000000000E+00 0.  1.
</event>
<event>
 4    1  0.5792100E+003  0.2116746E+02  0.7546771E-02  0.1516887E+00
          2   -1    0    0  501    0  0.00000000000E+00  0.00000000000E+00  0.34522196090E+02  0.34522196090E+02  0.00000000000E+00 0. -1.
         -2   -1    0    0    0  501 -0.00000000000E+00 -0.00000000000E+00 -0.34694161693E+02  0.34694161693E+02  0.00000000000E+00 0.  1.
          2    1    1    2  502    0 -0.39393849269E+01 -0.20797654381E+02  0.27293975181E+02  0.34540154350E+02  0.00000000000E+00 0. -1.
         -2    1    1    2    0  502  0.39393849269E+01  0.20797654381E+02 -0.27465940784E+02  0.34676203432E+02  0.00000000000E+00 0.  1.
</event>
<event>
 4    1  0.5792100E+003  0.2109041E+02  0.7546771E-02  0.1517978E+00
          2   -1    0    0  501    0  0.00000000000E+00  0.00000000000E+00  0.11393591029E+04  0.11393591029E+04  0.00000000000E+00 0. -1.
         -2   -1    0    0    0  501 -0.00000000000E+00 -0.00000000000E+00 -0.68133031132E+00  0.68133031132E+00  0.00000000000E+00 0. -1.
          2    1    1    2  502    0 -0.12209825481E+02 -0.17196676497E+02  0.94182155330E+03  0.94205766479E+03  0.00000000000E+00 0. -1.
         -2    1    1    2    0  502  0.12209825481E+02  0.17196676497E+02  0.19685621926E+03  0.19798276839E+03  0.00000000000E+00 0. -1.
</event>
<event>
 4    1  0.5792100E+003  0.2737533E+02  0.7546771E-02  0.1443874E+00
          2   -1    0    0  501    0  0.00000000000E+00  0.00000000000E+00  0.78799077428E+03  0.78799077428E+03  0.00000000000E+00 0. -1.
         -2   -1    0    0    0  501 -0.00000000000E+00 -0.00000000000E+00 -0.41298706557E+01  0.41298706557E+01  0.00000000000E+00 0. -1.
          2    1    1    2  502    0 -0.26414662679E+02 -0.71884652843E+01  0.73940820773E+03  0.73991479651E+03  0.00000000000E+00 0. -1.
         -2    1    1    2    0  502  0.26414662679E+02  0.71884652843E+01  0.44452695903E+02  0.52205848433E+02  0.00000000000E+00 0. -1.
</event>
<event>
 4    1  0.5792100E+003  0.2837602E+02  0.7546771E-02  0.1434255E+00
          2   -1    0    0  501    0  0.00000000000E+00  0.00000000000E+00  0.22716116757E+03  0.22716116757E+03  0.00000000000E+00 0. -1.
         -2   -1    0    0    0  501 -0.00000000000E+00 -0.00000000000E+00 -0.20790612749E+02  0.20790612749E+02  0.00000000000E+00 0. -1.
          2    1    1    2  502    0  0.14302007567E+02  0.24508189890E+02  0.21609926845E+03  0.21795433608E+03  0.00000000000E+00 0. -1.
         -2    1    1    2    0  502 -0.14302007567E+02 -0.24508189890E+02 -0.97287136260E+01  0.29997444240E+02  0.00000000000E+00 0. -1.
</event>
<event>
 4    1  0.5792100E+003  0.2166219E+02  0.7546771E-02  0.1510017E+00
          2   -1    0    0  501    0  0.00000000000E+00  0.00000000000E+00  0.87521992214E+02  0.87521992214E+02  0.00000000000E+00 0.  1.
         -2   -1    0    0    0  501 -0.00000000000E+00 -0.00000000000E+00 -0.59522432175E+02  0.59522432175E+02  0.00000000000E+00 0.  1.
          2    1    1    2  502    0  0.13772267878E+02 -0.16720500339E+02  0.84132589323E+02  0.86876596850E+02  0.00000000000E+00 0.  1.
         -2    1    1    2    0  502 -0.13772267878E+02  0.16720500339E+02 -0.56133029285E+02  0.60167827539E+02  0.00000000000E+00 0.  1.
</event>
<event>
 4    1  0.5792100E+003  0.2271514E+02  0.7546771E-02  0.1496106E+00
          2   -1    0    0  501    0  0.00000000000E+00  0.00000000000E+00  0.13364975889E+03  0.13364975889E+03  0.00000000000E+00 0.  1.
         -2   -1    0    0    0  501 -0.00000000000E+00 -0.00000000000E+00 -0.44680879387E+01  0.44680879387E+01  0.00000000000E+00 0.  1.
          2    1    1    2  502    0  0.22118614721E+02  0.51715023257E+01  0.90053445467E+02  0.92874111538E+02  0.00000000000E+00 0.  1.
         -2    1    1    2    0  502 -0.22118614721E+02 -0.51715023257E+01  0.39128225483E+02  0.45243735290E+02  0.00000000000E+00 0.  1.
</event>
<event>
 4    1  0.5792100E+003  0.2053337E+02  0.7546771E-02  0.1526033E+00
          2   -1    0    0  501    0  0.00000000000E+00  0.00000000000E+00  0.16437629105E+04  0.16437629105E+04  0.00000000000E+00 0.  1.
         -2   -1    0    0    0  501 -0.00000000000E+00 -0.00000000000E+00 -0.39961142075E+00  0.39961142075E+00  0.00000000000E+00 0.  1.
          2    1    1    2  502    0  0.15002255974E+02  0.14019681192E+02  0.13136515427E+04  0.13138120089E+04  0.00000000000E+00 0.  1.
         -2    1    1    2    0  502 -0.15002255974E+02 -0.14019681192E+02  0.32971175642E+03  0.33035051304E+03  0.00000000000E+00 0.  1.
</event>
<event>
 4    1  0.5792100E+003  0.2040927E+02  0.7546771E-02  0.1527869E+00
          2   -1    0    0  501    0  0.00000000000E+00  0.00000000000E+00  0.13517982477E+03  0.13517982477E+03  0.00000000000E+00 0. -1.
         -2   -1    0    0    0  501 -0.00000000000E+00 -0.00000000000E+00 -0.23659613634E+03  0.23659613634E+03  0.00000000000E+00 0.  1.
          2    1    1    2  502    0 -0.40852124126E+01  0.19996228186E+02  0.13396538073E+03  0.13551111148E+03  0.00000000000E+00 0. -1.
         -2    1    1    2    0  502  0.40852124126E+01 -0.19996228186E+02 -0.23538169229E+03  0.23626484963E+03  0.00000000000E+00 0.  1.
</event>
<event>
 4    1  0.5792100E+003  0.2155908E+02  0.7546771E-02  0.1511430E+00
          2   -1    0    0  501    0  0.00000000000E+00  0.00000000000E+00  0.11998525487E+04  0.11998525487E+04  0.00000000000E+00 0. -1.
         -2   -1    0    0    0  501 -0.00000000000E+00 -0.00000000000E+00 -0.27275261928E+01  0.27275261928E+01  0.00000000000E+00 0.  1.
          2    1    1    2  502    0  0.83268682903E+01  0.19886108084E+02  0.11555191861E+04  0.11557202877E+04  0.00000000000E+00 0. -1.
         -2    1    1    2    0  502 -0.83268682903E+01 -0.19886108084E+02  0.41605836469E+02  0.46859787223E+02  0.00000000000E+00 0.  1.
</event>
<event>
 4    1  0.5792100E+003  0.2734164E+02  0.7546771E-02  0.1444206E+00
          2   -1    0    0  501    0  0.00000000000E+00  0.00000000000E+00  0.24504725817E+03  0.24504725817E+03  0.00000000000E+00 0.  1.
         -2   -1    0    0    0  501 -0.00000000000E+00 -0.00000000000E+00 -0.16443816900E+02  0.16443816900E+02  0.00000000000E+00 0. -1.
          2    1    1    2  502    0 -0.33394298724E+01  0.27136940983E+02  0.23229748263E+03  0.23390101709E+03  0.00000000000E+00 0.  1.
         -2    1    1    2    0  502  0.33394298724E+01 -0.27136940983E+02 -0.36940413630E+01  0.27590057981E+02  0.00000000000E+00 0. -1.
</event>
<event>
 4    1  0.5792100E+003  0.2096451E+02  0.7546771E-02  0.1519772E+00
          2   -1    0    0  501    0  0.00000000000E+00  0.00000000000E+00  0.18172990096E+03  0.18172990096E+03  0.00000000000E+00 0. -1.
         -2   -1    0    0    0  501 -0.00000000000E+00 -0.00000000000E+00 -0.18383669347E+02  0.18383669347E+02  0.00000000000E+00 0.  1.
          2    1    1    2  502    0  0.12373091608E+02 -0.16923868084E+02  0.17491637353E+03  0.17616823901E+03  0.00000000000E+00 0. -1.
         -2    1    1    2    0  502 -0.12373091608E+02  0.16923868084E+02 -0.11570141918E+02  0.23945331296E+02  0.00000000000E+00 0.  1.
</event>
<event>
 4    1  0.5792100E+003  0.2451070E+02  0.7546771E-02  0.1474352E+00
          2   -1    0    0  501    0  0.00000000000E+00  0.00000000000E+00  0.33974412665E+03  0.33974412665E+03  0.00000000000E+00 0.  1.
         -2   -1    0    0    0  501 -0.00000000000E+00 -0.00000000000E+00 -0.29500606815E+02  0.29500606815E+02  0.00000000000E+00 0.  1.
          2    1    1    2  502    0  0.88802249546E+01 -0.22845480165E+02  0.33412534390E+03  0.33502316307E+03  0.00000000000E+00 0.  1.
         -2    1    1    2    0  502 -0.88802249546E+01  0.22845480165E+02 -0.23881824067E+02  0.34221570390E+02  0.00000000000E+00 0.  1.
</event>
<event>
 4    1  0.5792100E+003  0.2113749E+02  0.7546771E-02  0.1517311E+00
          2   -1    0    0  501    0  0.00000000000E+00  0.00000000000E+00  0.14872217888E+02  0.14872217888E+02  0.00000000000E+00 0. -1.
         -2   -1    0    0    0  501 -0.00000000000E+00 -0.00000000000E+00 -0.74042812238E+03  0.74042812238E+03  0.00000000000E+00 0. -1.
          2    1    1    2  502    0 -0.15520401266E+02  0.14349580358E+02  0.71314943784E+01  0.22308104446E+02  0.00000000000E+00 0. -1.
         -2    1    1    2    0  502  0.15520401266E+02 -0.14349580358E+02 -0.73268739887E+03  0.73299223582E+03  0.00000000000E+00 0. -1.
</event>
<event>
 4    1  0.5792100E+003  0.2037635E+02  0.7546771E-02  0.1528358E+00
          2   -1    0    0  501    0  0.00000000000E+00  0.00000000000E+00  0.13878878538E+01  0.13878878538E+01  0.00000000000E+00 0.  1.
         -2   -1    0    0    0  501 -0.00000000000E+00 -0.00000000000E+00 -0.50299881187E+03  0.50299881187E+03  0.00000000000E+00 0.  1.
          2    1    1    2  502    0 -0.18127060488E+02  0.93062051382E+01 -0.90260293750E+02  0.92531704857E+02  0.00000000000E+00 0.  1.
         -2    1    1    2    0  502  0.18127060488E+02 -0.93062051382E+01 -0.41135063026E+03  0.41185499487E+03  0.00000000000E+00 0.  1.
</event>
<event>
 4    1  0.5792100E+003  0.2207722E+02  0.7546771E-02  0.1504422E+00
          2   -1    0    0  501    0  0.00000000000E+00  0.00000000000E+00  0.25493986975E+02  0.25493986975E+02  0.00000000000E+00 0.  1.
         -2   -1    0    0    0  501 -0.00000000000E+00 -0.00000000000E+00 -0.34551682900E+03  0.34551682900E+03  0.00000000000E+00 0. -1.
          2    1    1    2  502    0 -0.20796593044E+02  0.74098064952E+01  0.20288701235E+02  0.29983910892E+02  0.00000000000E+00 0.  1.
         -2    1    1    2    0  502  0.20796593044E+02 -0.74098064952E+01 -0.34031154326E+03  0.34102690509E+03  0.00000000000E+00 0. -1.
</event>
<event>
 4    1  0.5792100E+003  0.2514262E+02  0.7546771E-02  0.1467214E+00
          2   -1    0    0  501    0  0.00000000000E+00  0.00000000000E+00  0.52023830325E+02  0.52023830325E+02  0.00000000000E+00 0. -1.
         -2   -1    0    0    0  501 -0.00000000000E+00 -0.00000000000E+00 -0.16232215508E+02  0.16232215508E+02  0.00000000000E+00 0. -1.
          2    1    1    2  502    0  0.12191906047E+02 -0.21988828676E+02  0.35008059839E+02  0.43101222875E+02  0.00000000000E+00 0. -1.
         -2    1    1    2    0  502 -0.12191906047E+02  0.21988828676E+02  0.78355497783E+00  0.25154822957E+02  0.00000000000E+00 0. -1.
</event>
<event>
 4    1  0.5792100E+003  0.2618202E+02  0.7546771E-02  0.1456003E+00
          2   -1    0    0  501    0  0.00000000000E+00  0.00000000000E+00  0.91849752447E+03  0.91849752447E+03  0.00000000000E+00 0.  1.
         -2   -1    0    0    0  501 -0.00000000000E+00 -0.00000000000E+00 -0.10353350119E+02  0.10353350119E+02  0.00000000000E+00 0.  1.
          2    1    1    2  502    0  0.78634331465E+01 -0.24973275819E+02  0.90144532532E+03  0.90182546684E+03  0.00000000000E+00 0.  1.
         -2    1    1    2    0  502 -0.78634331465E+01  0.24973275819E+02  0.66988490302E+01  0.27025407755E+02  0.00000000000E+00 0.  1.
</event>
<event>
 4    1  0.5792100E+003  0.4117500E+02  0.7546771E-02  0.1341735E+00
          2   -1    0    0  501    0  0.00000000000E+00  0.00000000000E+00  0.15809305744E+03  0.15809305744E+03  0.00000000000E+00 0.  1.
         -2   -1    0    0    0  501 -0.00000000000E+00 -0.00000000000E+00 -0.11751336078E+02  0.11751336078E+02  0.00000000000E+00 0.  1.
          2    1    1    2  502    0 -0.37778040050E+02 -0.16376768616E+02  0.48060746351E+02  0.63286761650E+02  0.00000000000E+00 0.  1.
         -2    1    1    2    0  502  0.37778040050E+02  0.16376768616E+02  0.98280975011E+02  0.10655763187E+03  0.00000000000E+00 0.  1.
</event>
<event>
 4    1  0.5792100E+003  0.4010887E+02  0.7546771E-02  0.1347849E+00
          2   -1    0    0  501    0  0.00000000000E+00  0.00000000000E+00  0.99885842066E+03  0.99885842066E+03  0.00000000000E+00 0. -1.
         -2   -1    0    0    0  501 -0.00000000000E+00 -0.00000000000E+00 -0.52352344954E+01  0.52352344954E+01  0.00000000000E+00 0.  1.
          2    1    1    2  502    0  0.27135622678E+02 -0.29536064587E+02  0.91455603543E+03  0.91543512227E+03  0.00000000000E+00 0. -1.
         -2    1    1    2    0  502 -0.27135622678E+02  0.29536064587E+02  0.79067150729E+02  0.88658532888E+02  0.00000000000E+00 0.  1.
</event>
<event>
 4    1  0.5792100E+003  0.2486815E+02  0.7546771E-02  0.1470284E+00
          2   -1    0    0  501    0  0.00000000000E+00  0.00000000000E+00  0.15687648146E+04  0.15687648146E+04  0.00000000000E+00 0.  1.
         -2   -1    0    0    0  501 -0.00000000000E+00 -0.00000000000E+00 -0.84650992341E+01  0.84650992341E+01  0.00000000000E+00 0. -1.
          2    1    1    2  502    0  0.78811009741E+01 -0.23586287011E+02  0.15501834007E+04  0.15503828561E+04  0.00000000000E+00 0.  1.
         -2    1    1    2    0  502 -0.78811009741E+01  0.23586287011E+02  0.10116314698E+02  0.26847057764E+02  0.00000000000E+00 0. -1.
</event>
<event>
 4    1  0.5792100E+003  0.3607395E+02  0.7546771E-02  0.1373166E+00
          2   -1    0    0  501    0  0.00000000000E+00  0.00000000000E+00  0.38362732697E+03  0.38362732697E+03  0.00000000000E+00 0. -1.
         -2   -1    0    0    0  501 -0.00000000000E+00 -0.00000000000E+00 -0.65338487622E+02  0.65338487622E+02  0.00000000000E+00 0. -1.
          2    1    1    2  502    0  0.30975442930E+02 -0.18489238732E+02  0.37772243520E+03  0.37944112595E+03  0.00000000000E+00 0. -1.
         -2    1    1    2    0  502 -0.30975442930E+02  0.18489238732E+02 -0.59433595853E+02  0.69524688634E+02  0.00000000000E+00 0. -1.
</event>
<event>
 4    1  0.5792100E+003  0.4222093E+02  0.7546771E-02  0.1335941E+00
          2   -1    0    0  501    0  0.00000000000E+00  0.00000000000E+00  0.23178385646E+04  0.23178385646E+04  0.00000000000E+00 0.  1.
         -2   -1    0    0    0  501 -0.00000000000E+00 -0.00000000000E+00 -0.78556418022E+00  0.78556418022E+00  0.00000000000E+00 0.  1.
          2    1    1    2  502    0  0.38155533890E+02 -0.18076569517E+02  0.13264538064E+04  0.13271255810E+04  0.00000000000E+00 0.  1.
         -2    1    1    2    0  502 -0.38155533890E+02  0.18076569517E+02  0.99059919397E+03  0.99149854777E+03  0.00000000000E+00 0.  1.
</event>
<event>
 4    1  0.5792100E+003  0.2346637E+02  0.7546771E-02  0.1486723E+00
          2   -1    0    0  501    0  0.00000000000E+00  0.00000000000E+00  0.18569695491E+03  0.18569695491E+03  0.00000000000E+00 0. -1.
         -2   -1    0    0    0  501 -0.00000000000E+00 -0.00000000000E+00 -0.33657349453E+03  0.33657349453E+03  0.00000000000E+00 0. -1.
          2    1    1    2  502    0 -0.23178488061E+02  0.36644801661E+01  0.18454402599E+03  0.18603001976E+03  0.00000000000E+00 0. -1.
         -2    1    1    2    0  502  0.23178488061E+02 -0.36644801661E+01 -0.33542056561E+03  0.33624042969E+03  0.00000000000E+00 0. -1.
</event>
<event>
 4    1  0.5792100E+003  0.2048298E+02  0.7546771E-02  0.1526776E+00
          2   -1    0    0  501    0  0.00000000000E+00  0.00000000000E+00  0.17876486880E+04  0.17876486880E+04  0.00000000000E+00 0.  1.
         -2   -1    0    0    0  501 -0.00000000000E+00 -0.00000000000E+00 -0.25188028892E+00  0.25188028892E+00  0.00000000000E+00 0.  1.
          2    1    1    2  502    0 -0.19746555840E+02 -0.54429222841E+01  0.66019291937E+03  0.66051059239E+03  0.00000000000E+00 0.  1.
         -2    1    1    2    0  502  0.19746555840E+02  0.54429222841E+01  0.11272038883E+04  0.11273899759E+04  0.00000000000E+00 0.  1.
</event>
<event>
 4    1  0.5792100E+003  0.2027760E+02  0.7546771E-02  0.1529834E+00
          2   -1    0    0  501    0  0.00000000000E+00  0.00000000000E+00  0.50424226667E+03  0.50424226667E+03  0.00000000000E+00 0. -1.
         -2   -1    0    0    0  501 -0.00000000000E+00 -0.00000000000E+00 -0.11682087407E+01  0.11682087407E+01  0.00000000000E+00 0. -1.
          2    1    1    2  502    0  0.20083290960E+02 -0.28004476948E+01  0.39040334217E+03  0.39092959809E+03  0.00000000000E+00 0. -1.
         -2    1    1    2    0  502 -0.20083290960E+02  0.28004476948E+01  0.11267071575E+03  0.11448087732E+03  0.00000000000E+00 0. -1.
</event>
<event>
 4    1  0.5792100E+003  0.2079604E+02  0.7546771E-02  0.1522197E+00
          2   -1    0    0  501    0  0.00000000000E+00  0.00000000000E+00  0.20774949200E+02  0.20774949200E+02  0.00000000000E+00 0. -1.
         -2   -1    0    0    0  501 -0.00000000000E+00 -0.00000000000E+00 -0.61998419085E+03  0.61998419085E+03  0.00000000000E+00 0.  1.
          2    1    1    2  502    0 -0.76489704982E+01  0.19338267839E+02  0.15350346456E+02  0.25847794664E+02  0.00000000000E+00 0. -1.
         -2    1    1    2    0  502  0.76489704982E+01 -0.19338267839E+02 -0.61455958811E+03  0.61491134539E+03  0.00000000000E+00 0.  1.
</event>
<event>
 4    1  0.5792100E+003  0.3271865E+02  0.7546771E-02  0.1397353E+00
          2   -1    0    0  501    0  0.00000000000E+00  0.00000000000E+00  0.15252073619E+04  0.15252073619E+04  0.00000000000E+00 0.  1.
         -2   -1    0    0    0  501 -0.00000000000E+00 -0.00000000000E+00 -0.67622878235E+01  0.67622878235E+01  0.00000000000E+00 0.  1.
          2    1    1    2  502    0  0.10261006477E+02  0.31068014659E+02  0.14843666570E+04  0.14847272080E+04  0.00000000000E+00 0.  1.
         -2    1    1    2    0  502 -0.10261006477E+02 -0.31068014659E+02  0.34078417080E+02  0.47242441718E+02  0.00000000000E+00 0.  1.
</event>
<event>
 4    1  0.5792100E+003  0.2252702E+02  0.7546771E-02  0.1498524E+00
          2   -1    0    0  501    0  0.00000000000E+00  0.00000000000E+00  0.26884795623E+02  0.26884795623E+02  0.00000000000E+00 0. -1.
         -2   -1    0    0    0  501 -0.00000000000E+00 -0.00000000000E+00 -0.25008968324E+02  0.25008968324E+02  0.00000000000E+00 0. -1.
          2    1    1    2  502    0  0.71367276421E+01  0.21366648110E+02  0.13787435374E+02  0.26411359433E+02  0.00000000000E+00 0. -1.
         -2    1    1    2    0  502 -0.71367276421E+01 -0.21366648110E+02 -0.11911608075E+02  0.25482404514E+02  0.00000000000E+00 0. -1.
</event>
<event>
 4    1  0.5792100E+003  0.2836132E+02  0.7546771E-02  0.1434393E+00
          2   -1    0    0  501    0  0.00000000000E+00  0.00000000000E+00  0.28210166363E+03  0.28210166363E+03  0.00000000000E+00 0.  1.
         -2   -1    0    0    0  501 -0.00000000000E+00 -0.00000000000E+00 -0.40267674539E+02  0.40267674539E+02  0.00000000000E+00 0. -1.
          2    1    1    2  502    0  0.27622695612E+02  0.64304937526E+01  0.27629020613E+03  0.27774204321E+03  0.00000000000E+00 0.  1.
         -2    1    1    2    0  502 -0.27622695612E+02 -0.64304937526E+01 -0.34456217039E+02  0.44627294960E+02  0.00000000000E+00 0. -1.
</event>
<event>
 4    1  0.5792100E+003  0.2453922E+02  0.7546771E-02  0.1474025E+00
          2   -1    0    0  501    0  0.00000000000E+00  0.00000000000E+00  0.88196552572E+03  0.88196552572E+03  0.00000000000E+00 0. -1.
         -2   -1    0    0    0  501 -0.00000000000E+00 -0.00000000000E+00 -0.10747803053E+01  0.10747803053E+01  0.00000000000E+00 0. -1.
          2    1    1    2  502    0 -0.12739325003E+02 -0.20973384432E+02  0.70709649100E+03  0.70752216985E+03  0.00000000000E+00 0. -1.
         -2    1    1    2    0  502  0.12739325003E+02  0.20973384432E+02  0.17379425442E+03  0.17551813617E+03  0.00000000000E+00 0. -1.
</event>
<event>
 4    1  0.5792100E+003  0.2579497E+02  0.7546771E-02  0.1460103E+00
          2   -1    0    0  501    0  0.00000000000E+00  0.00000000000E+00  0.62821510487E+01  0.62821510487E+01  0.00000000000E+00 0.  1.
         -2   -1    0    0    0  501 -0.00000000000E+00 -0.00000000000E+00 -0.12111340024E+03  0.12111340024E+03  0.00000000000E+00 0.  1.
          2    1    1    2  502    0 -0.69333670693E+01  0.24845697937E+02 -0.34851791579E+02  0.43359285755E+02  0.00000000000E+00 0.  1.
         -2    1    1    2    0  502  0.69333670693E+01 -0.24845697937E+02 -0.79979457607E+02  0.84036265529E+02  0.00000000000E+00 0.  1.
</event>
<event>
 4    1  0.5792100E+003  0.2029058E+02  0.7546771E-02  0.1529639E+00
          2   -1    0    0  501    0  0.00000000000E+00  0.00000000000E+00  0.54221640156E+03  0.54221640156E+03  0.00000000000E+00 0.  1.
         -2   -1    0    0    0  501 -0.00000000000E+00 -0.00000000000E+00 -0.50878452642E+01  0.50878452642E+01  0.00000000000E+00 0.  1.
          2    1    1    2  502    0 -0.19282939542E+02  0.63147342806E+01  0.52097198181E+03  0.52136696622E+03  0.00000000000E+00 0.  1.
         -2    1    1    2    0  502  0.19282939542E+02 -0.63147342806E+01  0.16156574486E+02  0.25937280612E+02  0.00000000000E+00 0.  1.
</event>
<event>
 4    1  0.5792100E+003  0.2320914E+02  0.7546771E-02  0.1489889E+00
          2   -1    0    0  501    0  0.00000000000E+00  0.00000000000E+00  0.70723926392E+03  0.70723926392E+03  0.00000000000E+00 0.  1.
         -2   -1    0    0    0  501 -0.00000000000E+00 -0.00000000000E+00 -0.99655256719E+00  0.99655256719E+00  0.00000000000E+00 0.  1.
          2    1    1    2  502    0  0.53174345237E+01  0.22591789407E+02  0.52504984369E+03  0.52556255805E+03  0.00000000000E+00 0.  1.
         -2    1    1    2    0  502 -0.53174345237E+01 -0.22591789407E+02  0.18119286766E+03  0.18267325845E+03  0.00000000000E+00 0.  1.
</event>
<event>
 4    1  0.5792100E+003  0.3368926E+02  0.7546771E-02  0.1390020E+00
          2   -1    0    0  501    0  0.00000000000E+00  0.00000000000E+00  0.13604607008E+04  0.13604607008E+04  0.00000000000E+00 0. -1.
         -2   -1    0    0    0  501 -0.00000000000E+00 -0.00000000000E+00 -0.24442292486E+01  0.24442292486E+01  0.00000000000E+00 0. -1.
          2    1    1    2  502    0  0.24038867934E+02  0.23602949283E+02  0.12320711462E+04  0.12325316530E+04  0.00000000000E+00 0. -1.
         -2    1    1    2    0  502 -0.24038867934E+02 -0.23602949283E+02  0.12594532534E+03  0.13037327702E+03  0.00000000000E+00 0. -1.
</event>
<event>
 4    1  0.5792100E+003  0.4004157E+02  0.7546771E-02  0.1348242E+00
          2   -1    0    0  501    0  0.00000000000E+00  0.00000000000E+00  0.16197291687E+02  0.16197291687E+02  0.00000000000E+00 0. -1.
         -2   -1    0    0    0  501 -0.00000000000E+00 -0.00000000000E+00 -0.12314672507E+03  0.12314672507E+03  0.00000000000E+00 0. -1.
          2    1    1    2  502    0 -0.16311410543E+02  0.36568632847E+02 -0.22615157244E+02  0.45986654144E+02  0.00000000000E+00 0. -1.
         -2    1    1    2    0  502  0.16311410543E+02 -0.36568632847E+02 -0.84334276143E+02  0.93357362617E+02  0.00000000000E+00 0. -1.
</event>
<event>
 4    1  0.5792100E+003  0.2098661E+02  0.7546771E-02  0.1519456E+00
          2   -1    0    0  501    0  0.00000000000E+00  0.00000000000E+00  0.27707585885E+03  0.27707585885E+03  0.00000000000E+00 0.  1.
         -2   -1    0    0    0  501 -0.00000000000E+00 -0.00000000000E+00 -0.28927603702E+01  0.28927603702E+01  0.00000000000E+00 0.  1.
          2    1    1    2  502    0 -0.18220539137E+01  0.20907364400E+02  0.23104728035E+03  0.23199845587E+03  0.00000000000E+00 0.  1.
         -2    1    1    2    0  502  0.18220539137E+01 -0.20907364400E+02  0.43135818131E+02  0.47970163356E+02  0.00000000000E+00 0.  1.
</event>
<event>
 4    1  0.5792100E+003  0.2126387E+02  0.7546771E-02  0.1515531E+00
          2   -1    0    0  501    0  0.00000000000E+00  0.00000000000E+00  0.20432787439E+04  0.20432787439E+04  0.00000000000E+00 0.  1.
         -2   -1    0    0    0  501 -0.00000000000E+00 -0.00000000000E+00 -0.24723383175E+00  0.24723383175E+00  0.00000000000E+00 0. -1.
          2    1    1    2  502    0 -0.14277144739E+02 -0.15758025008E+02  0.13525199581E+04  0.13526870995E+04  0.00000000000E+00 0.  1.
         -2    1    1    2    0  502  0.14277144739E+02  0.15758025008E+02  0.69051155200E+03  0.69083887822E+03  0.00000000000E+00 0. -1.
</event>
<event>
 4    1  0.5792100E+003  0.2331734E+02  0.7546771E-02  0.1488551E+00
          2   -1    0    0  501    0  0.00000000000E+00  0.00000000000E+00  0.89145926506E+00  0.89145926506E+00  0.00000000000E+00 0.  1.
         -2   -1    0    0    0  501 -0.00000000000E+00 -0.00000000000E+00 -0.64851556385E+03  0.64851556385E+03  0.00000000000E+00 0. -1.
          2    1    1    2  502    0 -0.54769401244E+01  0.22664969534E+02 -0.40304917886E+03  0.40372309607E+03  0.00000000000E+00 0.  1.
         -2    1    1    2    0  502  0.54769401244E+01 -0.22664969534E+02 -0.24457492573E+03  0.24568392705E+03  0.00000000000E+00 0. -1.
</event>
<event>
 4    1  0.5792100E+003  0.2313983E+02  0.7546771E-02  0.1490750E+00
          2   -1    0    0  501    0  0.00000000000E+00  0.00000000000E+00  0.74620661219E+03  0.74620661219E+03  0.00000000000E+00 0. -1.
         -2   -1    0    0    0  501 -0.00000000000E+00 -0.00000000000E+00 -0.26322736817E+01  0.26322736817E+01  0.00000000000E+00 0. -1.
          2    1    1    2  502    0  0.18860714521E+02  0.13406154535E+02  0.69112050532E+03  0.69150777609E+03  0.00000000000E+00 0. -1.
         -2    1    1    2    0  502 -0.18860714521E+02 -0.13406154535E+02  0.52453833191E+02  0.57331109776E+02  0.00000000000E+00 0. -1.
</event>
<event>
 4    1  0.5792100E+003  0.2498528E+02  0.7546771E-02  0.1468968E+00
          2   -1    0    0  501    0  0.00000000000E+00  0.00000000000E+00  0.57333273042E+03  0.57333273042E+03  0.00000000000E+00 0.  1.
         -2   -1    0    0    0  501 -0.00000000000E+00 -0.00000000000E+00 -0.36561998120E+02  0.36561998120E+02  0.00000000000E+00 0.  1.
          2    1    1    2  502    0 -0.28053494375E+01  0.24827288416E+02  0.56875767057E+03  0.56930620238E+03  0.00000000000E+00 0.  1.
         -2    1    1    2    0  502  0.28053494375E+01 -0.24827288416E+02 -0.31986938273E+02  0.40588526158E+02  0.00000000000E+00 0.  1.
</event>
<event>
 4    1  0.5792100E+003  0.2401777E+02  0.7546771E-02  0.1480099E+00
          2   -1    0    0  501    0  0.00000000000E+00  0.00000000000E+00  0.38430122728E+02  0.38430122728E+02  0.00000000000E+00 0. -1.
         -2   -1    0    0    0  501 -0.00000000000E+00 -0.00000000000E+00 -0.31996506413E+02  0.31996506413E+02  0.00000000000E+00 0. -1.
          2    1    1    2  502    0 -0.21474217109E+02  0.10756917380E+02  0.28873576978E+02  0.37557112768E+02  0.00000000000E+00 0. -1.
         -2    1    1    2    0  502  0.21474217109E+02 -0.10756917380E+02 -0.22439960664E+02  0.32869516373E+02  0.00000000000E+00 0. -1.
</event>
<event>
 4    1  0.5792100E+003  0.4389524E+02  0.7546771E-02  0.1327057E+00
          2   -1    0    0  501    0  0.00000000000E+00  0.00000000000E+00  0.15999207483E+04  0.15999207483E+04  0.00000000000E+00 0. -1.
         -2   -1    0    0    0  501 -0.00000000000E+00 -0.00000000000E+00 -0.22879281328E+01  0.22879281328E+01  0.00000000000E+00 0. -1.
          2    1    1    2  502    0  0.36941958416E+02 -0.23708310062E+02  0.13501406223E+04  0.13508539863E+04  0.00000000000E+00 0. -1.
         -2    1    1    2    0  502 -0.36941958416E+02  0.23708310062E+02  0.24749219783E+03  0.25135469012E+03  0.00000000000E+00 0. -1.
</event>
<event>
 4    1  0.5792100E+003  0.2108646E+02  0.7546771E-02  0.1518034E+00
          2   -1    0    0  501    0  0.00000000000E+00  0.00000000000E+00  0.10109042733E+02  0.10109042733E+02  0.00000000000E+00 0. -1.
         -2   -1    0    0    0  501 -0.00000000000E+00 -0.00000000000E+00 -0.11557197098E+03  0.11557197098E+03  0.00000000000E+00 0.  1.
          2    1    1    2  502    0  0.14633829163E+02  0.15181892680E+02 -0.32739094039E+01  0.21339102702E+02  0.00000000000E+00 0. -1.
         -2    1    1    2    0  502 -0.14633829163E+02 -0.15181892680E+02 -0.10218901884E+03  0.10434191101E+03  0.00000000000E+00 0.  1.
</event>
<event>
 4    1  0.5792100E+003  0.5484472E+02  0.7546771E-02  0.1278431E+00
          2   -1    0    0  501    0  0.00000000000E+00  0.00000000000E+00  0.40715456549E+03  0.40715456549E+03  0.00000000000E+00 0. -1.
         -2   -1    0    0    0  501 -0.00000000000E+00 -0.00000000000E+00 -0.86146131723E+01  0.86146131723E+01  0.00000000000E+00 0. -1.
          2    1    1    2  502    0  0.48770315849E+02 -0.25087827596E+02  0.27772274384E+03  0.28308632119E+03  0.00000000000E+00 0. -1.
         -2    1    1    2    0  502 -0.48770315849E+02  0.25087827596E+02  0.12081720848E+03  0.13268285747E+03  0.00000000000E+00 0. -1.
</event>
<event>
 4    1  0.5792100E+003  0.4141907E+02  0.7546771E-02  0.1340365E+00
          2   -1    0    0  501    0  0.00000000000E+00  0.00000000000E+00  0.39233210551E+03  0.39233210551E+03  0.00000000000E+00 0. -1.
         -2   -1    0    0    0  501 -0.00000000000E+00 -0.00000000000E+00 -0.87466031783E+02  0.87466031783E+02  0.00000000000E+00 0.  1.
          2    1    1    2  502    0  0.20819827858E+02 -0.35806057700E+02  0.38625861345E+03  0.38847297907E+03  0.00000000000E+00 0. -1.
         -2    1    1    2    0  502 -0.20819827858E+02  0.35806057700E+02 -0.81392539731E+02  0.91325158220E+02  0.00000000000E+00 0.  1.
</event>
<event>
 4    1  0.5792100E+003  0.2177266E+02  0.7546771E-02  0.1508513E+00
          2   -1    0    0  501    0  0.00000000000E+00  0.00000000000E+00  0.12746328240E+04  0.12746328240E+04  0.00000000000E+00 0. -1.
         -2   -1    0    0    0  501 -0.00000000000E+00 -0.00000000000E+00 -0.61282862500E+00  0.61282862500E+00  0.00000000000E+00 0. -1.
          2    1    1    2  502    0 -0.14210173812E+02 -0.16496045616E+02  0.10367978708E+04  0.10370264575E+04  0.00000000000E+00 0. -1.
         -2    1    1    2    0  502  0.14210173812E+02  0.16496045616E+02  0.23722212453E+03  0.23821919513E+03  0.00000000000E+00 0. -1.
</event>
<event>
 4    1  0.5792100E+003  0.2040311E+02  0.7546771E-02  0.1527960E+00
          2   -1    0    0  501    0  0.00000000000E+00  0.00000000000E+00  0.62221167607E+02  0.62221167607E+02  0.00000000000E+00 0.  1.
         -2   -1    0    0    0  501 -0.00000000000E+00 -0.00000000000E+00 -0.77969854686E+01  0.77969854686E+01  0.00000000000E+00 0. -1.
          2    1    1    2  502    0  0.16455366356E+02  0.12062658603E+02  0.40400805779E+02  0.45260489636E+02  0.00000000000E+00 0.  1.
         -2    1    1    2    0  502 -0.16455366356E+02 -0.12062658603E+02  0.14023376359E+02  0.24757663439E+02  0.00000000000E+00 0. -1.
</event>
<event>
 4    1  0.5792100E+003  0.2231004E+02  0.7546771E-02  0.1501349E+00
          2   -1    0    0  501    0  0.00000000000E+00  0.00000000000E+00  0.21293329442E+02  0.21293329442E+02  0.00000000000E+00 0. -1.
         -2   -1    0    0    0  501 -0.00000000000E+00 -0.00000000000E+00 -0.23629159602E+02  0.23629159602E+02  0.00000000000E+00 0. -1.
          2    1    1    2  502    0  0.99625703136E+01  0.19962089464E+02  0.11602411898E+01  0.22340187614E+02  0.00000000000E+00 0. -1.
         -2    1    1    2    0  502 -0.99625703136E+01 -0.19962089464E+02 -0.34960713501E+01  0.22582301430E+02  0.00000000000E+00 0. -1.
</event>
<event>
 4    1  0.5792100E+003  0.5046485E+02  0.7546771E-02  0.1296169E+00
          2   -1    0    0  501    0  0.00000000000E+00  0.00000000000E+00  0.11046434914E+04  0.11046434914E+04  0.00000000000E+00 0. -1.
         -2   -1    0    0    0  501 -0.00000000000E+00 -0.00000000000E+00 -0.20955966418E+03  0.20955966418E+03  0.00000000000E+00 0.  1.
          2    1    1    2  502    0  0.41147490114E+02 -0.29216182543E+02  0.11010189746E+04  0.11021748880E+04  0.00000000000E+00 0. -1.
         -2    1    1    2    0  502 -0.41147490114E+02  0.29216182543E+02 -0.20593514746E+03  0.21202826751E+03  0.00000000000E+00 0.  1.
</event>
<event>
 4    1  0.5792100E+003  0.2285880E+02  0.7546771E-02  0.1494279E+00
          2   -1    0    0  501    0  0.00000000000E+00  0.00000000000E+00  0.15104743746E+03  0.15104743746E+03  0.00000000000E+00 0.  1.
         -2   -1    0    0    0  501 -0.00000000000E+00 -0.00000000000E+00 -0.60584813987E+02  0.60584813987E+02  0.00000000000E+00 0. -1.
          2    1    1    2  502    0 -0.22853772874E+02  0.47952579311E+00  0.14798202952E+03  0.14973712279E+03  0.00000000000E+00 0.  1.
         -2    1    1    2    0  502  0.22853772874E+02 -0.47952579311E+00 -0.57519406048E+02  0.61895128659E+02  0.00000000000E+00 0. -1.
</event>
<event>
 4    1  0.5792100E+003  0.2312932E+02  0.7546771E-02  0.1490881E+00
          2   -1    0    0  501    0  0.00000000000E+00  0.00000000000E+00  0.12873620376E+03  0.12873620376E+03  0.00000000000E+00 0.  1.
         -2   -1    0    0    0  501 -0.00000000000E+00 -0.00000000000E+00 -0.31430545479E+03  0.31430545479E+03  0.00000000000E+00 0. -1.
          2    1    1    2  502    0  0.23018817828E+02 -0.22582328040E+01  0.12726693767E+03  0.12935161001E+03  0.00000000000E+00 0.  1.
         -2    1    1    2    0  502 -0.23018817828E+02  0.22582328040E+01 -0.31283618870E+03  0.31369004854E+03  0.00000000000E+00 0. -1.
</event>
<event>
 4    1  0.5792100E+003  0.4441524E+02  0.7546771E-02  0.1324389E+00
          2   -1    0    0  501    0  0.00000000000E+00  0.00000000000E+00  0.22771375759E+01  0.22771375759E+01  0.00000000000E+00 0. -1.
         -2   -1    0    0    0  501 -0.00000000000E+00 -0.00000000000E+00 -0.87192983995E+03  0.87192983995E+03  0.00000000000E+00 0. -1.
          2    1    1    2  502    0 -0.42332226664E+02  0.13442261294E+02 -0.46991162472E+03  0.47200598180E+03  0.00000000000E+00 0. -1.
         -2    1    1    2    0  502  0.42332226664E+02 -0.13442261294E+02 -0.39974107765E+03  0.40220099573E+03  0.00000000000E+00 0. -1.
</event>
<event>
 4    1  0.5792100E+003  0.2995266E+02  0.7546771E-02  0.1420008E+00
          2   -1    0    0  501    0  0.00000000000E+00  0.00000000000E+00  0.11359079926E+04  0.11359079926E+04  0.00000000000E+00 0.  1.
         -2   -1    0    0    0  501 -0.00000000000E+00 -0.00000000000E+00 -0.26792269427E+01  0.26792269427E+01  0.00000000000E+00 0. -1.
          2    1    1    2  502    0  0.19947427826E+02  0.22344173514E+02  0.10446875854E+04  0.10451168897E+04  0.00000000000E+00 0.  1.
         -2    1    1    2    0  502 -0.19947427826E+02 -0.22344173514E+02  0.88541180273E+02  0.93470329897E+02  0.00000000000E+00 0. -1.
</event>
<event>
 4    1  0.5792100E+003  0.2752426E+02  0.7546771E-02  0.1442412E+00
          2   -1    0    0  501    0  0.00000000000E+00  0.00000000000E+00  0.84171624972E+01  0.84171624972E+01  0.00000000000E+00 0.  1.
         -2   -1    0    0    0  501 -0.00000000000E+00 -0.00000000000E+00 -0.12920242069E+03  0.12920242069E+03  0.00000000000E+00 0.  1.
          2    1    1    2  502    0  0.14595955317E+02  0.23335446273E+02 -0.22492140256E+02  0.35545482661E+02  0.00000000000E+00 0.  1.
         -2    1    1    2    0  502 -0.14595955317E+02 -0.23335446273E+02 -0.98293117938E+02  0.10207410053E+03  0.00000000000E+00 0.  1.
</event>
<event>
 4    1  0.5792100E+003  0.2550071E+02  0.7546771E-02  0.1463279E+00
          2   -1    0    0  501    0  0.00000000000E+00  0.00000000000E+00  0.41137855222E+03  0.41137855222E+03  0.00000000000E+00 0. -1.
         -2   -1    0    0    0  501 -0.00000000000E+00 -0.00000000000E+00 -0.80470681435E+01  0.80470681435E+01  0.00000000000E+00 0.  1.
          2    1    1    2  502    0  0.18770869693E+02 -0.17260959746E+02  0.38965571453E+03  0.39048925997E+03  0.00000000000E+00 0. -1.
         -2    1    1    2    0  502 -0.18770869693E+02  0.17260959746E+02  0.13675769541E+02  0.28936360395E+02  0.00000000000E+00 0.  1.
</event>
<event>
 4    1  0.5792100E+003  0.3116745E+02  0.7546771E-02  0.1409715E+00
          2   -1    0    0  501    0  0.00000000000E+00  0.00000000000E+00  0.48430167532E+03  0.48430167532E+03  0.00000000000E+00 0. -1.
         -2   -1    0    0    0  501 -0.00000000000E+00 -0.00000000000E+00 -0.47335545830E+01  0.47335545830E+01  0.00000000000E+00 0.  1.
          2    1    1    2  502    0 -0.83303440669E+01  0.30033571300E+02  0.42540179813E+03  0.42654202593E+03  0.00000000000E+00 0. -1.
         -2    1    1    2    0  502  0.83303440669E+01 -0.30033571300E+02  0.54166322607E+02  0.62493203967E+02  0.00000000000E+00 0.  1.
</event>
<event>
 4    1  0.5792100E+003  0.2071334E+02  0.7546771E-02  0.1523397E+00
          2   -1    0    0  501    0  0.00000000000E+00  0.00000000000E+00  0.95092596339E+03  0.95092596339E+03  0.00000000000E+00 0. -1.
         -2   -1    0    0    0  501 -0.00000000000E+00 -0.00000000000E+00 -0.29038039749E+01  0.29038039749E+01  0.00000000000E+00 0.  1.
          2    1    1    2  502    0  0.15743118986E+02 -0.13460934887E+02  0.91231197780E+03  0.91254708777E+03  0.00000000000E+00 0. -1.
         -2    1    1    2    0  502 -0.15743118986E+02  0.13460934887E+02  0.35710181620E+02  0.41282679598E+02  0.00000000000E+00 0.  1.
</event>
<event>
 4    1  0.5792100E+003  0.4377891E+02  0.7546771E-02  0.1327659E+00
          2   -1    0    0  501    0  0.00000000000E+00  0.00000000000E+00  0.16023673414E+04  0.16023673414E+04  0.00000000000E+00 0.  1.
         -2   -1    0    0    0  501 -0.00000000000E+00 -0.00000000000E+00 -0.18496000417E+01  0.18496000417E+01  0.00000000000E+00 0. -1.
          2    1    1    2  502    0  0.12870251654E+02  0.41844353202E+02  0.12770373539E+04  0.12777875397E+04  0.00000000000E+00 0.  1.
         -2    1    1    2    0  502 -0.12870251654E+02 -0.41844353202E+02  0.32348038743E+03  0.32642940174E+03  0.00000000000E+00 0. -1.
</event>
<event>
 4    1  0.5792100E+003  0.2447986E+02  0.7546771E-02  0.1474707E+00
          2   -1    0    0  501    0  0.00000000000E+00  0.00000000000E+00  0.50735603460E+03  0.50735603460E+03  0.00000000000E+00 0. -1.
         -2   -1    0    0    0  501 -0.00000000000E+00 -0.00000000000E+00 -0.14023285479E+01  0.14023285479E+01  0.00000000000E+00 0.  1.
          2    1    1    2  502    0 -0.96538220237E+01  0.22495934734E+02  0.35400179438E+03  0.35484719779E+03  0.00000000000E+00 0.  1.
         -2    1    1    2    0  502  0.96538220237E+01 -0.22495934734E+02  0.15195191167E+03  0.15391116535E+03  0.00000000000E+00 0. -1.
</event>
<event>
 4    1  0.5792100E+003  0.2370151E+02  0.7546771E-02  0.1483872E+00
          2   -1    0    0  501    0  0.00000000000E+00  0.00000000000E+00  0.41221041048E+02  0.41221041048E+02  0.00000000000E+00 0.  1.
         -2   -1    0    0    0  501 -0.00000000000E+00 -0.00000000000E+00 -0.87870210574E+02  0.87870210574E+02  0.00000000000E+00 0. -1.
          2    1    1    2  502    0 -0.23694005953E+02 -0.59637986677E+00  0.36005004491E+02  0.43105938518E+02  0.00000000000E+00 0.  1.
         -2    1    1    2    0  502  0.23694005953E+02  0.59637986677E+00 -0.82654174018E+02  0.85985313104E+02  0.00000000000E+00 0. -1.
</event>
<event>
 4    1  0.5792100E+003  0.2699065E+02  0.7546771E-02  0.1447702E+00
          2   -1    0    0  501    0  0.00000000000E+00  0.00000000000E+00  0.18368650086E+04  0.18368650086E+04  0.00000000000E+00 0. -1.
         -2   -1    0    0    0  501 -0.00000000000E+00 -0.00000000000E+00 -0.43280027175E+00  0.43280027175E+00  0.00000000000E+00 0.  1.
          2    1    1    2  502    0 -0.79806630448E+01  0.25783793753E+02  0.11839091548E+04  0.11842167799E+04  0.00000000000E+00 0. -1.
         -2    1    1    2    0  502  0.79806630448E+01 -0.25783793753E+02  0.65252305356E+03  0.65308102899E+03  0.00000000000E+00 0.  1.
</event>
<event>
 4    1  0.5792100E+003  0.2781790E+02  0.7546771E-02  0.1439561E+00
          2   -1    0    0  501    0  0.00000000000E+00  0.00000000000E+00  0.13782469073E+04  0.13782469073E+04  0.00000000000E+00 0. -1.
         -2   -1    0    0    0  501 -0.00000000000E+00 -0.00000000000E+00 -0.12837503485E+01  0.12837503485E+01  0.00000000000E+00 0.  1.
          2    1    1    2  502    0  0.26062945685E+02 -0.97241029881E+01  0.12058690767E+04  0.12061898961E+04  0.00000000000E+00 0. -1.
         -2    1    1    2    0  502 -0.26062945685E+02  0.97241029881E+01  0.17109408030E+03  0.17334076159E+03  0.00000000000E+00 0.  1.
</event>
<event>
 4    1  0.5792100E+003  0.2443123E+02  0.7546771E-02  0.1475268E+00
          2   -1    0    0  501    0  0.00000000000E+00  0.00000000000E+00  0.76136088525E+02  0.76136088525E+02  0.00000000000E+00 0.  1.
         -2   -1    0    0    0  501 -0.00000000000E+00 -0.00000000000E+00 -0.32873552470E+02  0.32873552470E+02  0.00000000000E+00 0.  1.
          2    1    1    2  502    0  0.63021348319E+01  0.23604407043E+02  0.69194936438E+02  0.73381361148E+02  0.00000000000E+00 0.  1.
         -2    1    1    2    0  502 -0.63021348319E+01 -0.23604407043E+02 -0.25932400382E+02  0.35628279847E+02  0.00000000000E+00 0.  1.
</event>
<event>
 4    1  0.5792100E+003  0.1380834E+03  0.7546771E-02  0.1110500E+00
          2   -1    0    0  501    0  0.00000000000E+00  0.00000000000E+00  0.99542109757E+03  0.99542109757E+03  0.00000000000E+00 0. -1.
         -2   -1    0    0    0  501 -0.00000000000E+00 -0.00000000000E+00 -0.30480830491E+02  0.30480830491E+02  0.00000000000E+00 0.  1.
          2    1    1    2  502    0  0.76757900538E+02 -0.11478344136E+03  0.79515209272E+03  0.80705257837E+03  0.00000000000E+00 0. -1.
         -2    1    1    2    0  502 -0.76757900538E+02  0.11478344136E+03  0.16978817436E+03  0.21884934969E+03  0.00000000000E+00 0.  1.
</event>
<event>
 4    1  0.5792100E+003  0.2627714E+02  0.7546771E-02  0.1455008E+00
          2   -1    0    0  501    0  0.00000000000E+00  0.00000000000E+00  0.29909253352E+01  0.29909253352E+01  0.00000000000E+00 0.  1.
         -2   -1    0    0    0  501 -0.00000000000E+00 -0.00000000000E+00 -0.23179144259E+03  0.23179144259E+03  0.00000000000E+00 0.  1.
          2    1    1    2  502    0 -0.99495233077E+01  0.24320672052E+02 -0.10696279924E+03  0.11014321824E+03  0.00000000000E+00 0.  1.
         -2    1    1    2    0  502  0.99495233077E+01 -0.24320672052E+02 -0.12183771802E+03  0.12463914969E+03  0.00000000000E+00 0.  1.
</event>
<event>
 4    1  0.5792100E+003  0.3707456E+02  0.7546771E-02  0.1366538E+00
          2   -1    0    0  501    0  0.00000000000E+00  0.00000000000E+00  0.25467545071E+03  0.25467545071E+03  0.00000000000E+00 0. -1.
         -2   -1    0    0    0  501 -0.00000000000E+00 -0.00000000000E+00 -0.14874265775E+02  0.14874265775E+02  0.00000000000E+00 0. -1.
          2    1    1    2  502    0 -0.29637144511E+02  0.22274714254E+02  0.22747997873E+03  0.23048137441E+03  0.00000000000E+00 0. -1.
         -2    1    1    2    0  502  0.29637144511E+02 -0.22274714254E+02  0.12321206208E+02  0.39068342072E+02  0.00000000000E+00 0. -1.
</event>
<event>
 4    1  0.5792100E+003  0.2584355E+02  0.7546771E-02  0.1459584E+00
          2   -1    0    0  501    0  0.00000000000E+00  0.00000000000E+00  0.53524159207E+03  0.53524159207E+03  0.00000000000E+00 0.  1.
         -2   -1    0    0    0  501 -0.00000000000E+00 -0.00000000000E+00 -0.45274049036E+01  0.45274049036E+01  0.00000000000E+00 0.  1.
          2    1    1    2  502    0 -0.28588470410E+01 -0.25684943466E+02  0.49505772881E+03  0.49573182688E+03  0.00000000000E+00 0.  1.
         -2    1    1    2    0  502  0.28588470410E+01  0.25684943466E+02  0.35656458352E+02  0.44037170089E+02  0.00000000000E+00 0.  1.
</event>
<event>
 4    1  0.5792100E+003  0.2102565E+02  0.7546771E-02  0.1518899E+00
          2   -1    0    0  501    0  0.00000000000E+00  0.00000000000E+00  0.24952505595E+03  0.24952505595E+03  0.00000000000E+00 0.  1.
         -2   -1    0    0    0  501 -0.00000000000E+00 -0.00000000000E+00 -0.17542523007E+02  0.17542523007E+02  0.00000000000E+00 0.  1.
          2    1    1    2  502    0  0.16056562449E+02  0.13574416101E+02  0.24260261449E+03  0.24351202543E+03  0.00000000000E+00 0.  1.
         -2    1    1    2    0  502 -0.16056562449E+02 -0.13574416101E+02 -0.10620081545E+02  0.23555553532E+02  0.00000000000E+00 0.  1.
</event>
<event>
 4    1  0.5792100E+003  0.3174600E+02  0.7546771E-02  0.1405007E+00
          2   -1    0    0  501    0  0.00000000000E+00  0.00000000000E+00  0.97892231075E+03  0.97892231075E+03  0.00000000000E+00 0. -1.
         -2   -1    0    0    0  501 -0.00000000000E+00 -0.00000000000E+00 -0.12126602814E+01  0.12126602814E+01  0.00000000000E+00 0. -1.
          2    1    1    2  502    0 -0.18277455799E+02 -0.25956558229E+02  0.67930989304E+03  0.68005127680E+03  0.00000000000E+00 0. -1.
         -2    1    1    2    0  502  0.18277455799E+02  0.25956558229E+02  0.29839975743E+03  0.30008369423E+03  0.00000000000E+00 0. -1.
</event>
<event>
 4    1  0.5792100E+003  0.2161021E+02  0.7546771E-02  0.1510728E+00
          2   -1    0    0  501    0  0.00000000000E+00  0.00000000000E+00  0.31950305896E+02  0.31950305896E+02  0.00000000000E+00 0. -1.
         -2   -1    0    0    0  501 -0.00000000000E+00 -0.00000000000E+00 -0.14699595918E+02  0.14699595918E+02  0.00000000000E+00 0. -1.
          2    1    1    2  502    0  0.15256892636E+02  0.15304517873E+02  0.10379265527E+02  0.23973531094E+02  0.00000000000E+00 0. -1.
         -2    1    1    2    0  502 -0.15256892636E+02 -0.15304517873E+02  0.68714444509E+01  0.22676370721E+02  0.00000000000E+00 0. -1.
</event>
<event>
 4    1  0.5792100E+003  0.2674905E+02  0.7546771E-02  0.1450145E+00
          2   -1    0    0  501    0  0.00000000000E+00  0.00000000000E+00  0.38322390278E+03  0.38322390278E+03  0.00000000000E+00 0. -1.
         -2   -1    0    0    0  501 -0.00000000000E+00 -0.00000000000E+00 -0.20423123957E+01  0.20423123957E+01  0.00000000000E+00 0. -1.
          2    1    1    2  502    0 -0.23429930785E+02  0.12905389203E+02  0.13416552182E+03  0.13680605971E+03  0.00000000000E+00 0. -1.
         -2    1    1    2    0  502  0.23429930785E+02 -0.12905389203E+02  0.24701606856E+03  0.24846015547E+03  0.00000000000E+00 0. -1.
</event>
<event>
 4    1  0.5792100E+003  0.2135263E+02  0.7546771E-02  0.1514289E+00
          2   -1    0    0  501    0  0.00000000000E+00  0.00000000000E+00  0.20814480551E+03  0.20814480551E+03  0.00000000000E+00 0. -1.
         -2   -1    0    0    0  501 -0.00000000000E+00 -0.00000000000E+00 -0.28114143486E+01  0.28114143486E+01  0.00000000000E+00 0.  1.
          2    1    1    2  502    0  0.58893291346E+01  0.20524393400E+02  0.15223753811E+03  0.15372769084E+03  0.00000000000E+00 0. -1.
         -2    1    1    2    0  502 -0.58893291346E+01 -0.20524393400E+02  0.53095853055E+02  0.57228529020E+02  0.00000000000E+00 0.  1.
</event>
<event>
 4    1  0.5792100E+003  0.2334750E+02  0.7546771E-02  0.1488180E+00
          2   -1    0    0  501    0  0.00000000000E+00  0.00000000000E+00  0.10320261240E+04  0.10320261240E+04  0.00000000000E+00 0. -1.
         -2   -1    0    0    0  501 -0.00000000000E+00 -0.00000000000E+00 -0.26936331479E+01  0.26936331479E+01  0.00000000000E+00 0.  1.
          2    1    1    2  502    0 -0.22713105435E+02  0.54056039333E+01  0.97853693446E+03  0.97881542581E+03  0.00000000000E+00 0. -1.
         -2    1    1    2    0  502  0.22713105435E+02 -0.54056039333E+01  0.50795556376E+02  0.55904331317E+02  0.00000000000E+00 0.  1.
</event>
<event>
 4    1  0.5792100E+003  0.2898423E+02  0.7546771E-02  0.1428634E+00
          2   -1    0    0  501    0  0.00000000000E+00  0.00000000000E+00  0.77038705796E+02  0.77038705796E+02  0.00000000000E+00 0. -1.
         -2   -1    0    0    0  501 -0.00000000000E+00 -0.00000000000E+00 -0.47741355512E+03  0.47741355512E+03  0.00000000000E+00 0. -1.
          2    1    1    2  502    0  0.18357265146E+01 -0.28926041792E+02  0.73854320917E+02  0.79338178097E+02  0.00000000000E+00 0. -1.
         -2    1    1    2    0  502 -0.18357265146E+01  0.28926041792E+02 -0.47422917024E+03  0.47511408282E+03  0.00000000000E+00 0. -1.
</event>
<event>
 4    1  0.5792100E+003  0.2453822E+02  0.7546771E-02  0.1474036E+00
          2   -1    0    0  501    0  0.00000000000E+00  0.00000000000E+00  0.43296819469E+02  0.43296819469E+02  0.00000000000E+00 0. -1.
         -2   -1    0    0    0  501 -0.00000000000E+00 -0.00000000000E+00 -0.16895787867E+02  0.16895787867E+02  0.00000000000E+00 0.  1.
          2    1    1    2  502    0 -0.21177981214E+02  0.12394238137E+02  0.25858938832E+02  0.35648404520E+02  0.00000000000E+00 0. -1.
         -2    1    1    2    0  502  0.21177981214E+02 -0.12394238137E+02  0.54209276887E+00  0.24544202816E+02  0.00000000000E+00 0.  1.
</event>
<event>
 4    1  0.5792100E+003  0.2519657E+02  0.7546771E-02  0.1466616E+00
          2   -1    0    0  501    0  0.00000000000E+00  0.00000000000E+00  0.76523564523E+01  0.76523564523E+01  0.00000000000E+00 0.  1.
         -2   -1    0    0    0  501 -0.00000000000E+00 -0.00000000000E+00 -0.14780070433E+03  0.14780070433E+03  0.00000000000E+00 0. -1.
          2    1    1    2  502    0  0.19172137610E+02 -0.16349200117E+02 -0.18593673143E+02  0.31314403810E+02  0.00000000000E+00 0.  1.
         -2    1    1    2    0  502 -0.19172137610E+02  0.16349200117E+02 -0.12155467474E+03  0.12413865698E+03  0.00000000000E+00 0. -1.
</event>
<event>
 4    1  0.5792100E+003  0.2076074E+02  0.7546771E-02  0.1522708E+00
          2   -1    0    0  501    0  0.00000000000E+00  0.00000000000E+00  0.22101504266E+02  0.22101504266E+02  0.00000000000E+00 0. -1.
         -2   -1    0    0    0  501 -0.00000000000E+00 -0.00000000000E+00 -0.24487810291E+02  0.24487810291E+02  0.00000000000E+00 0.  1.
          2    1    1    2  502    0 -0.34379706742E+01  0.20474097159E+02  0.93186993486E+01  0.22756239900E+02  0.00000000000E+00 0. -1.
         -2    1    1    2    0  502  0.34379706742E+01 -0.20474097159E+02 -0.11705005374E+02  0.23833074657E+02  0.00000000000E+00 0.  1.
</event>
<event>
 4    1  0.5792100E+003  0.2545894E+02  0.7546771E-02  0.1463734E+00
          2   -1    0    0  501    0  0.00000000000E+00  0.00000000000E+00  0.68509747378E+03  0.68509747378E+03  0.00000000000E+00 0.  1.
         -2   -1    0    0    0  501 -0.00000000000E+00 -0.00000000000E+00 -0.12077241413E+01  0.12077241413E+01  0.00000000000E+00 0. -1.
          2    1    1    2  502    0 -0.92608802286E+01 -0.23714843909E+02  0.50166442205E+03  0.50231001391E+03  0.00000000000E+00 0.  1.
         -2    1    1    2    0  502  0.92608802286E+01  0.23714843909E+02  0.18222532760E+03  0.18399518402E+03  0.00000000000E+00 0. -1.
</event>
<event>
 4    1  0.5792100E+003  0.2182306E+02  0.7546771E-02  0.1507831E+00
          2   -1    0    0  501    0  0.00000000000E+00  0.00000000000E+00  0.72016214750E+02  0.72016214750E+02  0.00000000000E+00 0. -1.
         -2   -1    0    0    0  501 -0.00000000000E+00 -0.00000000000E+00 -0.29182392161E+02  0.29182392161E+02  0.00000000000E+00 0. -1.
          2    1    1    2  502    0 -0.98644888421E+01  0.19466308774E+02 -0.23081422149E+02  0.31764718885E+02  0.00000000000E+00 0. -1.
         -2    1    1    2    0  502  0.98644888421E+01 -0.19466308774E+02  0.65915244738E+02  0.69433888025E+02  0.00000000000E+00 0. -1.
</event>
<event>
 4    1  0.5792100E+003  0.4035334E+02  0.7546771E-02  0.1346428E+00
          2   -1    0    0  501    0  0.00000000000E+00  0.00000000000E+00  0.91257280045E+03  0.91257280045E+03  0.00000000000E+00 0.  1.
         -2   -1    0    0    0  501 -0.00000000000E+00 -0.00000000000E+00 -0.33877706698E+01  0.33877706698E+01  0.00000000000E+00 0. -1.
          2    1    1    2  502    0  0.27890593029E+02 -0.29163444862E+02  0.76966264001E+03  0.77071977471E+03  0.00000000000E+00 0.  1.
         -2    1    1    2    0  502 -0.27890593029E+02  0.29163444862E+02  0.13952238977E+03  0.14524079641E+03  0.00000000000E+00 0. -1.
</event>
<event>
 4    1  0.5792100E+003  0.2854078E+02  0.7546771E-02  0.1432716E+00
          2   -1    0    0  501    0  0.00000000000E+00  0.00000000000E+00  0.12563550186E+04  0.12563550186E+04  0.00000000000E+00 0.  1.
         -2   -1    0    0    0  501 -0.00000000000E+00 -0.00000000000E+00 -0.96738244602E+00  0.96738244602E+00  0.00000000000E+00 0.  1.
          2    1    1    2  502    0 -0.21956205697E+02  0.18234617659E+02  0.98870859170E+03  0.98912044542E+03  0.00000000000E+00 0.  1.
         -2    1    1    2    0  502  0.21956205697E+02 -0.18234617659E+02  0.26667904444E+03  0.26820195561E+03  0.00000000000E+00 0.  1.
</event>
<event>
 4    1  0.5792100E+003  0.2275563E+02  0.7546771E-02  0.1495590E+00
          2   -1    0    0  501    0  0.00000000000E+00  0.00000000000E+00  0.28776843442E+03  0.28776843442E+03  0.00000000000E+00 0.  1.
         -2   -1    0    0    0  501 -0.00000000000E+00 -0.00000000000E+00 -0.45896341953E+01  0.45896341953E+01  0.00000000000E+00 0.  1.
          2    1    1    2  502    0 -0.14168288320E+02 -0.17806687097E+02  0.25556561312E+03  0.25657669635E+03  0.00000000000E+00 0.  1.
         -2    1    1    2    0  502  0.14168288320E+02  0.17806687097E+02  0.27613187107E+02  0.35781372270E+02  0.00000000000E+00 0.  1.
</event>
<event>
 4    1  0.5792100E+003  0.2237654E+02  0.7546771E-02  0.1500479E+00
          2   -1    0    0  501    0  0.00000000000E+00  0.00000000000E+00  0.12506543821E+03  0.12506543821E+03  0.00000000000E+00 0. -1.
         -2   -1    0    0    0  501 -0.00000000000E+00 -0.00000000000E+00 -0.11956469105E+02  0.11956469105E+02  0.00000000000E+00 0. -1.
          2    1    1    2  502    0  0.12286114470E+02 -0.18701895757E+02  0.11242992987E+03  0.11463506725E+03  0.00000000000E+00 0. -1.
         -2    1    1    2    0  502 -0.12286114470E+02  0.18701895757E+02  0.67903923712E+00  0.22386840062E+02  0.00000000000E+00 0. -1.
</event>
<event>
 4    1  0.5792100E+003  0.2003987E+02  0.7546771E-02  0.1533427E+00
          2   -1    0    0  501    0  0.00000000000E+00  0.00000000000E+00  0.28497441347E+03  0.28497441347E+03  0.00000000000E+00 0.  1.
         -2   -1    0    0    0  501 -0.00000000000E+00 -0.00000000000E+00 -0.13404384395E+02  0.13404384395E+02  0.00000000000E+00 0. -1.
          2    1    1    2  502    0 -0.12977729190E+02 -0.15270064380E+02  0.27691436168E+03  0.27763854204E+03  0.00000000000E+00 0.  1.
         -2    1    1    2    0  502  0.12977729190E+02  0.15270064380E+02 -0.53443325974E+01  0.20740255833E+02  0.00000000000E+00 0. -1.
</event>
<event>
 4    1  0.5792100E+003  0.2568495E+02  0.7546771E-02  0.1461285E+00
          2   -1    0    0  501    0  0.00000000000E+00  0.00000000000E+00  0.27414328002E+03  0.27414328002E+03  0.00000000000E+00 0. -1.
         -2   -1    0    0    0  501 -0.00000000000E+00 -0.00000000000E+00 -0.14451637278E+03  0.14451637278E+03  0.00000000000E+00 0. -1.
          2    1    1    2  502    0  0.14603169023E+02  0.21129695637E+02  0.27239309804E+03  0.27360138238E+03  0.00000000000E+00 0. -1.
         -2    1    1    2    0  502 -0.14603169023E+02 -0.21129695637E+02 -0.14276619080E+03  0.14505827042E+03  0.00000000000E+00 0. -1.
</event>
<event>
 4    1  0.5792100E+003  0.2012832E+02  0.7546771E-02  0.1532083E+00
          2   -1    0    0  501    0  0.00000000000E+00  0.00000000000E+00  0.12965853942E+04  0.12965853942E+04  0.00000000000E+00 0. -1.
         -2   -1    0    0    0  501 -0.00000000000E+00 -0.00000000000E+00 -0.22909289368E+01  0.22909289368E+01  0.00000000000E+00 0.  1.
          2    1    1    2  502    0  0.19384551522E+02 -0.54211077727E+01  0.12506719691E+04  0.12508339313E+04  0.00000000000E+00 0. -1.
         -2    1    1    2    0  502 -0.19384551522E+02  0.54211077727E+01  0.43622496105E+02  0.48042391839E+02  0.00000000000E+00 0.  1.
</event>
<event>
 4    1  0.5792100E+003  0.2350179E+02  0.7546771E-02  0.1486291E+00
          2   -1    0    0  501    0  0.00000000000E+00  0.00000000000E+00  0.76365643725E+03  0.76365643725E+03  0.00000000000E+00 0. -1.
         -2   -1    0    0    0  501 -0.00000000000E+00 -0.00000000000E+00 -0.83895755386E+00  0.83895755386E+00  0.00000000000E+00 0. -1.
          2    1    1    2  502    0  0.95540617801E+01 -0.21472169091E+02  0.52334962494E+03  0.52387705053E+03  0.00000000000E+00 0. -1.
         -2    1    1    2    0  502 -0.95540617801E+01  0.21472169091E+02  0.23946785476E+03  0.24061834428E+03  0.00000000000E+00 0. -1.
</event>
<event>
 4    1  0.5792100E+003  0.2067934E+02  0.7546771E-02  0.1523893E+00
          2   -1    0    0  501    0  0.00000000000E+00  0.00000000000E+00  0.63492461324E+03  0.63492461324E+03  0.00000000000E+00 0. -1.
         -2   -1    0    0    0  501 -0.00000000000E+00 -0.00000000000E+00 -0.72827133612E+00  0.72827133612E+00  0.00000000000E+00 0. -1.
          2    1    1    2  502    0 -0.20667982901E+02  0.68540572205E+00  0.40424173694E+03  0.40477032646E+03  0.00000000000E+00 0. -1.
         -2    1    1    2    0  502  0.20667982901E+02 -0.68540572205E+00  0.22995460496E+03  0.23088255812E+03  0.00000000000E+00 0. -1.
</event>
<event>
 4    1  0.5792100E+003  0.2069240E+02  0.7546771E-02  0.1523702E+00
          2   -1    0    0  501    0  0.00000000000E+00  0.00000000000E+00  0.30125171931E+02  0.30125171931E+02  0.00000000000E+00 0.  1.
         -2   -1    0    0    0  501 -0.00000000000E+00 -0.00000000000E+00 -0.17265116624E+02  0.17265116624E+02  0.00000000000E+00 0. -1.
          2    1    1    2  502    0  0.98586482866E+01  0.18192924722E+02  0.16392338211E+02  0.26398564507E+02  0.00000000000E+00 0.  1.
         -2    1    1    2    0  502 -0.98586482866E+01 -0.18192924722E+02 -0.35322829043E+01  0.20991724048E+02  0.00000000000E+00 0. -1.
</event>
<event>
 4    1  0.5792100E+003  0.2531461E+02  0.7546771E-02  0.1465314E+00
          2   -1    0    0  501    0  0.00000000000E+00  0.00000000000E+00  0.37878203765E+03  0.37878203765E+03  0.00000000000E+00 0. -1.
         -2   -1    0    0    0  501 -0.00000000000E+00 -0.00000000000E+00 -0.53056934788E+02  0.53056934788E+02  0.00000000000E+00 0. -1.
          2    1    1    2  502    0 -0.18789438102E+02 -0.16964266557E+02  0.37531165872E+03  0.37616441949E+03  0.00000000000E+00 0. -1.
         -2    1    1    2    0  502  0.18789438102E+02  0.16964266557E+02 -0.49586555855E+02  0.55674552944E+02  0.00000000000E+00 0. -1.
</event>
<event>
 4    1  0.5792100E+003  0.2860387E+02  0.7546771E-02  0.1432130E+00
          2   -1    0    0  501    0  0.00000000000E+00  0.00000000000E+00  0.18060989552E+02  0.18060989552E+02  0.00000000000E+00 0. -1.
         -2   -1    0    0    0  501 -0.00000000000E+00 -0.00000000000E+00 -0.61671926051E+02  0.61671926051E+02  0.00000000000E+00 0.  1.
          2    1    1    2  502    0  0.23986405510E+02 -0.15583117382E+02 -0.12654753010E+01  0.28631846331E+02  0.00000000000E+00 0. -1.
         -2    1    1    2    0  502 -0.23986405510E+02  0.15583117382E+02 -0.42345461198E+02  0.51101069272E+02  0.00000000000E+00 0.  1.
</event>
<event>
 4    1  0.5792100E+003  0.3253286E+02  0.7546771E-02  0.1398790E+00
          2   -1    0    0  501    0  0.00000000000E+00  0.00000000000E+00  0.11207705133E+04  0.11207705133E+04  0.00000000000E+00 0.  1.
         -2   -1    0    0    0  501 -0.00000000000E+00 -0.00000000000E+00 -0.28884960410E+01  0.28884960410E+01  0.00000000000E+00 0. -1.
          2    1    1    2  502    0 -0.29620913237E+02 -0.13453192675E+02  0.10198703624E+04  0.10203891135E+04  0.00000000000E+00 0.  1.
         -2    1    1    2    0  502  0.29620913237E+02  0.13453192675E+02  0.98011654862E+02  0.10326989582E+03  0.00000000000E+00 0. -1.
</event>
<event>
 4    1  0.5792100E+003  0.4913846E+02  0.7546771E-02  0.1301952E+00
          2   -1    0    0  501    0  0.00000000000E+00  0.00000000000E+00  0.18119881186E+04  0.18119881186E+04  0.00000000000E+00 0.  1.
         -2   -1    0    0    0  501 -0.00000000000E+00 -0.00000000000E+00 -0.10599796079E+02  0.10599796079E+02  0.00000000000E+00 0.  1.
          2    1    1    2  502    0 -0.27291214087E+02  0.40862915901E+02  0.17527828088E+04  0.17534714606E+04  0.00000000000E+00 0.  1.
         -2    1    1    2    0  502  0.27291214087E+02 -0.40862915901E+02  0.48605513718E+02  0.69116454091E+02  0.00000000000E+00 0.  1.
</event>
<event>
 4    1  0.5792100E+003  0.3067194E+02  0.7546771E-02  0.1413845E+00
          2   -1    0    0  501    0  0.00000000000E+00  0.00000000000E+00  0.13469998712E+03  0.13469998712E+03  0.00000000000E+00 0. -1.
         -2   -1    0    0    0  501 -0.00000000000E+00 -0.00000000000E+00 -0.17710821168E+02  0.17710821168E+02  0.00000000000E+00 0.  1.
          2    1    1    2  502    0  0.14212005045E+02 -0.27180636610E+02  0.11780055490E+03  0.12172813491E+03  0.00000000000E+00 0. -1.
         -2    1    1    2    0  502 -0.14212005045E+02  0.27180636610E+02 -0.81138894266E+00  0.30682673384E+02  0.00000000000E+00 0.  1.
</event>
<event>
 4    1  0.5792100E+003  0.2239475E+02  0.7546771E-02  0.1500241E+00
          2   -1    0    0  501    0  0.00000000000E+00  0.00000000000E+00  0.65921656761E+03  0.65921656761E+03  0.00000000000E+00 0. -1.
         -2   -1    0    0    0  501 -0.00000000000E+00 -0.00000000000E+00 -0.12683919648E+01  0.12683919648E+01  0.00000000000E+00 0.  1.
          2    1    1    2  502    0 -0.21867539829E+02 -0.48306972051E+01  0.53788836838E+03  0.53835436449E+03  0.00000000000E+00 0. -1.
         -2    1    1    2    0  502  0.21867539829E+02  0.48306972051E+01  0.12005980726E+03  0.12213059508E+03  0.00000000000E+00 0.  1.
</event>
<event>
 4    1  0.5792100E+003  0.2473007E+02  0.7546771E-02  0.1471846E+00
          2   -1    0    0  501    0  0.00000000000E+00  0.00000000000E+00  0.15135161596E+04  0.15135161596E+04  0.00000000000E+00 0. -1.
         -2   -1    0    0    0  501 -0.00000000000E+00 -0.00000000000E+00 -0.49874983845E+01  0.49874983845E+01  0.00000000000E+00 0.  1.
          2    1    1    2  502    0 -0.94526592540E+01 -0.22852214514E+02  0.14821101213E+04  0.14823164265E+04  0.00000000000E+00 0. -1.
         -2    1    1    2    0  502  0.94526592540E+01  0.22852214514E+02  0.26418539945E+02  0.36187231560E+02  0.00000000000E+00 0.  1.
</event>
<event>
 4    1  0.5792100E+003  0.2702808E+02  0.7546771E-02  0.1447326E+00
          2   -1    0    0  501    0  0.00000000000E+00  0.00000000000E+00  0.26369171837E+03  0.26369171837E+03  0.00000000000E+00 0.  1.
         -2   -1    0    0    0  501 -0.00000000000E+00 -0.00000000000E+00 -0.35086365064E+01  0.35086365064E+01  0.00000000000E+00 0.  1.
          2    1    1    2  502    0 -0.16469423655E+02 -0.21430709107E+02  0.19137617356E+03  0.19327533991E+03  0.00000000000E+00 0.  1.
         -2    1    1    2    0  502  0.16469423655E+02  0.21430709107E+02  0.68806908298E+02  0.73925014967E+02  0.00000000000E+00 0.  1.
</event>
<event>
 4    1  0.5792100E+003  0.2009856E+02  0.7546771E-02  0.1532534E+00
          2   -1    0    0  501    0  0.00000000000E+00  0.00000000000E+00  0.53434832187E+01  0.53434832187E+01  0.00000000000E+00 0.  1.
         -2   -1    0    0    0  501 -0.00000000000E+00 -0.00000000000E+00 -0.10739636090E+03  0.10739636090E+03  0.00000000000E+00 0.  1.
          2    1    1    2  502    0 -0.16684379172E+02 -0.11206407261E+02 -0.20353113443E+02  0.28604218201E+02  0.00000000000E+00 0.  1.
         -2    1    1    2    0  502  0.16684379172E+02  0.11206407261E+02 -0.81699764241E+02  0.84135625921E+02  0.00000000000E+00 0.  1.
</event>
<event>
 4    1  0.5792100E+003  0.2222476E+02  0.7546771E-02  0.1502469E+00
          2   -1    0    0  501    0  0.00000000000E+00  0.00000000000E+00  0.64534298369E+03  0.64534298369E+03  0.00000000000E+00 0. -1.
         -2   -1    0    0    0  501 -0.00000000000E+00 -0.00000000000E+00 -0.11056959615E+04  0.11056959615E+04  0.00000000000E+00 0. -1.
          2    1    1    2  502    0  0.10356402552E+02 -0.19664299656E+02  0.64503990272E+03  0.64542266451E+03  0.00000000000E+00 0. -1.
         -2    1    1    2    0  502 -0.10356402552E+02  0.19664299656E+02 -0.11053928805E+04  0.11056162807E+04  0.00000000000E+00 0. -1.
</event>
<event>
 4    1  0.5792100E+003  0.3551835E+02  0.7546771E-02  0.1376955E+00
          2   -1    0    0  501    0  0.00000000000E+00  0.00000000000E+00  0.75409693907E+03  0.75409693907E+03  0.00000000000E+00 0. -1.
         -2   -1    0    0    0  501 -0.00000000000E+00 -0.00000000000E+00 -0.18837647858E+01  0.18837647858E+01  0.00000000000E+00 0.  1.
          2    1    1    2  502    0  0.35360678229E+02 -0.33427883076E+01  0.24965101921E+03  0.25216499200E+03  0.00000000000E+00 0. -1.
         -2    1    1    2    0  502 -0.35360678229E+02  0.33427883076E+01  0.50256215508E+03  0.50381571186E+03  0.00000000000E+00 0.  1.
</event>
<event>
 4    1  0.5792100E+003  0.2132979E+02  0.7546771E-02  0.1514608E+00
          2   -1    0    0  501    0  0.00000000000E+00  0.00000000000E+00  0.11665824674E+03  0.11665824674E+03  0.00000000000E+00 0. -1.
         -2   -1    0    0    0  501 -0.00000000000E+00 -0.00000000000E+00 -0.26504812347E+02  0.26504812347E+02  0.00000000000E+00 0. -1.
          2    1    1    2  502    0 -0.16240061934E+02  0.13828250762E+02  0.11118252845E+03  0.11321004709E+03  0.00000000000E+00 0. -1.
         -2    1    1    2    0  502  0.16240061934E+02 -0.13828250762E+02 -0.21029094055E+02  0.29953011994E+02  0.00000000000E+00 0. -1.
</event>
<event>
 4    1  0.5792100E+003  0.3014092E+02  0.7546771E-02  0.1418376E+00
          2   -1    0    0  501    0  0.00000000000E+00  0.00000000000E+00  0.23664781018E+03  0.23664781018E+03  0.00000000000E+00 0.  1.
         -2   -1    0    0    0  501 -0.00000000000E+00 -0.00000000000E+00 -0.44150261707E+02  0.44150261707E+02  0.00000000000E+00 0.  1.
          2    1    1    2  502    0  0.10721062463E+02 -0.28169732256E+02  0.23040506535E+03  0.23236817583E+03  0.00000000000E+00 0.  1.
         -2    1    1    2    0  502 -0.10721062463E+02  0.28169732256E+02 -0.37907516885E+02  0.48429896057E+02  0.00000000000E+00 0.  1.
</event>
<event>
 4    1  0.5792100E+003  0.2046323E+02  0.7546771E-02  0.1527068E+00
          2   -1    0    0  501    0  0.00000000000E+00  0.00000000000E+00  0.76750444718E+02  0.76750444718E+02  0.00000000000E+00 0.  1.
         -2   -1    0    0    0  501 -0.00000000000E+00 -0.00000000000E+00 -0.57273626648E+01  0.57273626648E+01  0.00000000000E+00 0.  1.
          2    1    1    2  502    0  0.16050860345E+02 -0.12693036895E+02  0.26533552022E+02  0.33507800380E+02  0.00000000000E+00 0.  1.
         -2    1    1    2    0  502 -0.16050860345E+02  0.12693036895E+02  0.44489530031E+02  0.48970007003E+02  0.00000000000E+00 0.  1.
</event>
<event>
 4    1  0.5792100E+003  0.2901997E+02  0.7546771E-02  0.1428308E+00
          2   -1    0    0  501    0  0.00000000000E+00  0.00000000000E+00  0.41656361389E+03  0.41656361389E+03  0.00000000000E+00 0.  1.
         -2   -1    0    0    0  501 -0.00000000000E+00 -0.00000000000E+00 -0.18688077026E+02  0.18688077026E+02  0.00000000000E+00 0.  1.
          2    1    1    2  502    0 -0.84750015220E+01 -0.27754871326E+02  0.40445536804E+03  0.40549513347E+03  0.00000000000E+00 0.  1.
         -2    1    1    2    0  502  0.84750015220E+01  0.27754871326E+02 -0.65798311695E+01  0.29756557451E+02  0.00000000000E+00 0.  1.
</event>
<event>
 4    1  0.5792100E+003  0.2232486E+02  0.7546771E-02  0.1501154E+00
          2   -1    0    0  501    0  0.00000000000E+00  0.00000000000E+00  0.77045697850E+03  0.77045697850E+03  0.00000000000E+00 0.  1.
         -2   -1    0    0    0  501 -0.00000000000E+00 -0.00000000000E+00 -0.64826171749E+00  0.64826171749E+00  0.00000000000E+00 0. -1.
          2    1    1    2  502    0  0.17816089924E+02  0.13453112990E+02  0.40265321733E+03  0.40327163641E+03  0.00000000000E+00 0.  1.
         -2    1    1    2    0  502 -0.17816089924E+02 -0.13453112990E+02  0.36715549945E+03  0.36783360380E+03  0.00000000000E+00 0. -1.
</event>
<event>
 4    1  0.5792100E+003  0.2709062E+02  0.7546771E-02  0.1446700E+00
          2   -1    0    0  501    0  0.00000000000E+00  0.00000000000E+00  0.17809538458E+04  0.17809538458E+04  0.00000000000E+00 0. -1.
         -2   -1    0    0    0  501 -0.00000000000E+00 -0.00000000000E+00 -0.94350337411E+00  0.94350337411E+00  0.00000000000E+00 0.  1.
          2    1    1    2  502    0 -0.10848522791E+01  0.27068888100E+02  0.15586567483E+04  0.15588921581E+04  0.00000000000E+00 0. -1.
         -2    1    1    2    0  502  0.10848522791E+01 -0.27068888100E+02  0.22135359413E+03  0.22300519107E+03  0.00000000000E+00 0.  1.
</event>
<event>
 4    1  0.5792100E+003  0.2049847E+02  0.7546771E-02  0.1526547E+00
          2   -1    0    0  501    0  0.00000000000E+00  0.00000000000E+00  0.14219485723E+04  0.14219485723E+04  0.00000000000E+00 0. -1.
         -2   -1    0    0    0  501 -0.00000000000E+00 -0.00000000000E+00 -0.10487647650E+02  0.10487647650E+02  0.00000000000E+00 0.  1.
          2    1    1    2  502    0  0.13121793585E+00 -0.20498045248E+02  0.14117863653E+04  0.14119351714E+04  0.00000000000E+00 0. -1.
         -2    1    1    2    0  502 -0.13121793585E+00  0.20498045248E+02 -0.32544068842E+00  0.20501048480E+02  0.00000000000E+00 0.  1.
</event>
<event>
 4    1  0.5792100E+003  0.3332362E+02  0.7546771E-02  0.1392748E+00
          2   -1    0    0  501    0  0.00000000000E+00  0.00000000000E+00  0.18264869336E+02  0.18264869336E+02  0.00000000000E+00 0.  1.
         -2   -1    0    0    0  501 -0.00000000000E+00 -0.00000000000E+00 -0.34981778334E+03  0.34981778334E+03  0.00000000000E+00 0.  1.
          2    1    1    2  502    0  0.17885515972E+02 -0.28117114948E+02  0.15090627823E+01  0.33357774282E+02  0.00000000000E+00 0.  1.
         -2    1    1    2    0  502 -0.17885515972E+02  0.28117114948E+02 -0.33306197678E+03  0.33472487839E+03  0.00000000000E+00 0.  1.
</event>
<event>
 4    1  0.5792100E+003  0.2770643E+02  0.7546771E-02  0.1440638E+00
          2   -1    0    0  501    0  0.00000000000E+00  0.00000000000E+00  0.63822322436E+03  0.63822322436E+03  0.00000000000E+00 0. -1.
         -2   -1    0    0    0  501 -0.00000000000E+00 -0.00000000000E+00 -0.13409560712E+02  0.13409560712E+02  0.00000000000E+00 0. -1.
          2    1    1    2  502    0  0.27255699709E+02  0.49772505595E+01  0.62326774154E+03  0.62388326138E+03  0.00000000000E+00 0. -1.
         -2    1    1    2    0  502 -0.27255699709E+02 -0.49772505595E+01  0.15459221083E+01  0.27749523688E+02  0.00000000000E+00 0. -1.
</event>
<event>
 4    1  0.5792100E+003  0.2739598E+02  0.7546771E-02  0.1443670E+00
          2   -1    0    0  501    0  0.00000000000E+00  0.00000000000E+00  0.34048036353E+02  0.34048036353E+02  0.00000000000E+00 0.  1.
         -2   -1    0    0    0  501 -0.00000000000E+00 -0.00000000000E+00 -0.31920442974E+02  0.31920442974E+02  0.00000000000E+00 0.  1.
          2    1    1    2  502    0 -0.27052719617E+02 -0.43232268110E+01  0.19411511408E+02  0.33575984035E+02  0.00000000000E+00 0.  1.
         -2    1    1    2    0  502  0.27052719617E+02  0.43232268110E+01 -0.17283918029E+02  0.32392495291E+02  0.00000000000E+00 0.  1.
</event>
<event>
 4    1  0.5792100E+003  0.2077209E+02  0.7546771E-02  0.1522544E+00
          2   -1    0    0  501    0  0.00000000000E+00  0.00000000000E+00  0.11555892259E+04  0.11555892259E+04  0.00000000000E+00 0.  1.
         -2   -1    0    0    0  501 -0.00000000000E+00 -0.00000000000E+00 -0.32745785221E+01  0.32745785221E+01  0.00000000000E+00 0.  1.
          2    1    1    2  502    0 -0.15605894589E+02 -0.13708959858E+02  0.11215547171E+04  0.11217470584E+04  0.00000000000E+00 0.  1.
         -2    1    1    2    0  502  0.15605894589E+02  0.13708959858E+02  0.30759930277E+02  0.37116746045E+02  0.00000000000E+00 0.  1.
</event>
<event>
 4    1  0.5792100E+003  0.2157562E+02  0.7546771E-02  0.1511203E+00
          2   -1    0    0  501    0  0.00000000000E+00  0.00000000000E+00  0.61620010861E+01  0.61620010861E+01  0.00000000000E+00 0. -1.
         -2   -1    0    0    0  501 -0.00000000000E+00 -0.00000000000E+00 -0.13739101555E+03  0.13739101555E+03  0.00000000000E+00 0.  1.
          2    1    1    2  502    0 -0.19343652782E+02  0.95566867786E+01 -0.17457475420E+02  0.27753749533E+02  0.00000000000E+00 0. -1.
         -2    1    1    2    0  502  0.19343652782E+02 -0.95566867786E+01 -0.11377153905E+03  0.11579926710E+03  0.00000000000E+00 0.  1.
</event>
<event>
 4    1  0.5792100E+003  0.2129930E+02  0.7546771E-02  0.1515034E+00
          2   -1    0    0  501    0  0.00000000000E+00  0.00000000000E+00  0.50137209676E+03  0.50137209676E+03  0.00000000000E+00 0. -1.
         -2   -1    0    0    0  501 -0.00000000000E+00 -0.00000000000E+00 -0.43777495749E+02  0.43777495749E+02  0.00000000000E+00 0.  1.
          2    1    1    2  502    0 -0.17710785938E+02 -0.11831663685E+02  0.49854046343E+03  0.49899524435E+03  0.00000000000E+00 0. -1.
         -2    1    1    2    0  502  0.17710785938E+02  0.11831663685E+02 -0.40945862424E+02  0.46154348157E+02  0.00000000000E+00 0.  1.
</event>
<event>
 4    1  0.6981183E+003  0.2394157E+02  0.7546771E-02  0.1481002E+00
          2   -1    0    0  501    0  0.00000000000E+00  0.00000000000E+00  0.83886022054E+03  0.83886022054E+03  0.00000000000E+00 0.  1.
         -2   -1    0    0    0  501 -0.00000000000E+00 -0.00000000000E+00 -0.18771259815E+03  0.18771259815E+03  0.00000000000E+00 0. -1.
          2    1    1    2  502    0 -0.22565722123E+02  0.79991727000E+01  0.83792514301E+03  0.83826710771E+03  0.00000000000E+00 0.  1.
         -2    1    1    2    0  502  0.22565722123E+02 -0.79991727000E+01 -0.18677752062E+03  0.18830571098E+03  0.00000000000E+00 0. -1.
</event>
<event>
 4    1  0.5792100E+003  0.2880662E+02  0.7546771E-02  0.1430258E+00
          2   -1    0    0  501    0  0.00000000000E+00  0.00000000000E+00  0.40219694819E+00  0.40219694819E+00  0.00000000000E+00 0.  1.
         -2   -1    0    0    0  501 -0.00000000000E+00 -0.00000000000E+00 -0.23528905078E+04  0.23528905078E+04  0.00000000000E+00 0.  1.
          2    1    1    2  502    0  0.19760196306E+02 -0.20960800977E+02 -0.15890993028E+04  0.15893603791E+04  0.00000000000E+00 0.  1.
         -2    1    1    2    0  502 -0.19760196306E+02  0.20960800977E+02 -0.76338900804E+03  0.76393232562E+03  0.00000000000E+00 0.  1.
</event>
<event>
 4    1  0.5792100E+003  0.2883568E+02  0.7546771E-02  0.1429991E+00
          2   -1    0    0  501    0  0.00000000000E+00  0.00000000000E+00  0.15646711791E+04  0.15646711791E+04  0.00000000000E+00 0.  1.
         -2   -1    0    0    0  501 -0.00000000000E+00 -0.00000000000E+00 -0.72687755516E+01  0.72687755516E+01  0.00000000000E+00 0.  1.
          2    1    1    2  502    0 -0.28385807331E+02 -0.50737197821E+01  0.15353948336E+04  0.15356655860E+04  0.00000000000E+00 0.  1.
         -2    1    1    2    0  502  0.28385807331E+02  0.50737197821E+01  0.22007569857E+02  0.36274368655E+02  0.00000000000E+00 0.  1.
</event>
<event>
 4    1  0.5792100E+003  0.2180127E+02  0.7546771E-02  0.1508125E+00
          2   -1    0    0  501    0  0.00000000000E+00  0.00000000000E+00  0.23636328893E+04  0.23636328893E+04  0.00000000000E+00 0. -1.
         -2   -1    0    0    0  501 -0.00000000000E+00 -0.00000000000E+00 -0.20437444341E+00  0.20437444341E+00  0.00000000000E+00 0. -1.
          2    1    1    2  502    0  0.10595183338E+02  0.19053539762E+02  0.13316202727E+04  0.13317987257E+04  0.00000000000E+00 0. -1.
         -2    1    1    2    0  502 -0.10595183338E+02 -0.19053539762E+02  0.10318082422E+04  0.10320385381E+04  0.00000000000E+00 0. -1.
</event>
<event>
 4    1  0.5792100E+003  0.2873019E+02  0.7546771E-02  0.1430962E+00
          2   -1    0    0  501    0  0.00000000000E+00  0.00000000000E+00  0.97693786034E+02  0.97693786034E+02  0.00000000000E+00 0. -1.
         -2   -1    0    0    0  501 -0.00000000000E+00 -0.00000000000E+00 -0.16197008198E+02  0.16197008198E+02  0.00000000000E+00 0. -1.
          2    1    1    2  502    0 -0.69284715636E+01  0.27882259168E+02  0.80133637759E+02  0.85128279643E+02  0.00000000000E+00 0. -1.
         -2    1    1    2    0  502  0.69284715636E+01 -0.27882259168E+02  0.13631400767E+01  0.28762514588E+02  0.00000000000E+00 0. -1.
</event>
<event>
 4    1  0.5792100E+003  0.2124540E+02  0.7546771E-02  0.1515790E+00
          2   -1    0    0  501    0  0.00000000000E+00  0.00000000000E+00  0.26281306636E+01  0.26281306636E+01  0.00000000000E+00 0.  1.
         -2   -1    0    0    0  501 -0.00000000000E+00 -0.00000000000E+00 -0.24446165568E+03  0.24446165568E+03  0.00000000000E+00 0. -1.
          2    1    1    2  502    0 -0.14956824276E+02 -0.15088414532E+02 -0.53535673479E+02  0.57597180316E+02  0.00000000000E+00 0.  1.
         -2    1    1    2    0  502  0.14956824276E+02  0.15088414532E+02 -0.18829785154E+03  0.18949260603E+03  0.00000000000E+00 0. -1.
</event>
<event>
 4    1  0.5792100E+003  0.3480117E+02  0.7546771E-02  0.1381966E+00
          2   -1    0    0  501    0  0.00000000000E+00  0.00000000000E+00  0.57444198118E+03  0.57444198118E+03  0.00000000000E+00 0. -1.
         -2   -1    0    0    0  501 -0.00000000000E+00 -0.00000000000E+00 -0.22202251258E+01  0.22202251258E+01  0.00000000000E+00 0. -1.
          2    1    1    2  502    0  0.32663218940E+02 -0.12009818080E+02  0.35083563014E+03  0.35255745770E+03  0.00000000000E+00 0. -1.
         -2    1    1    2    0  502 -0.32663218940E+02  0.12009818080E+02  0.22138612591E+03  0.22410474861E+03  0.00000000000E+00 0. -1.
</event>
<event>
 4    1  0.5792100E+003  0.2639802E+02  0.7546771E-02  0.1453751E+00
          2   -1    0    0  501    0  0.00000000000E+00  0.00000000000E+00  0.20151974308E+04  0.20151974308E+04  0.00000000000E+00 0.  1.
         -2   -1    0    0    0  501 -0.00000000000E+00 -0.00000000000E+00 -0.53100775836E+00  0.53100775836E+00  0.00000000000E+00 0. -1.
          2    1    1    2  502    0  0.15576459250E+02 -0.21312657683E+02  0.16025580859E+04  0.16027754909E+04  0.00000000000E+00 0.  1.
         -2    1    1    2    0  502 -0.15576459250E+02  0.21312657683E+02  0.41210833716E+03  0.41295294770E+03  0.00000000000E+00 0. -1.
</event>
<event>
 4    1  0.5792100E+003  0.2468105E+02  0.7546771E-02  0.1472403E+00
          2   -1    0    0  501    0  0.00000000000E+00  0.00000000000E+00  0.49856674589E+02  0.49856674589E+02  0.00000000000E+00 0.  1.
         -2   -1    0    0    0  501 -0.00000000000E+00 -0.00000000000E+00 -0.72006180084E+02  0.72006180084E+02  0.00000000000E+00 0.  1.
          2    1    1    2  502    0 -0.25669816546E+01  0.24547193224E+02  0.44447074544E+02  0.50839910754E+02  0.00000000000E+00 0.  1.
         -2    1    1    2    0  502  0.25669816546E+01 -0.24547193224E+02 -0.66596580039E+02  0.71022943919E+02  0.00000000000E+00 0.  1.
</event>
<event>
 4    1  0.5792100E+003  0.3002037E+02  0.7546771E-02  0.1419420E+00
          2   -1    0    0  501    0  0.00000000000E+00  0.00000000000E+00  0.12858384453E+03  0.12858384453E+03  0.00000000000E+00 0. -1.
         -2   -1    0    0    0  501 -0.00000000000E+00 -0.00000000000E+00 -0.20507627276E+02  0.20507627276E+02  0.00000000000E+00 0.  1.
          2    1    1    2  502    0 -0.24150217842E+02  0.17832265760E+02  0.11451822025E+03  0.11838769148E+03  0.00000000000E+00 0. -1.
         -2    1    1    2    0  502  0.24150217842E+02 -0.17832265760E+02 -0.64420029950E+01  0.30703780330E+02  0.00000000000E+00 0.  1.
</event>
<event>
 4    1  0.5792100E+003  0.2137984E+02  0.7546771E-02  0.1513910E+00
          2   -1    0    0  501    0  0.00000000000E+00  0.00000000000E+00  0.11085805998E+04  0.11085805998E+04  0.00000000000E+00 0.  1.
         -2   -1    0    0    0  501 -0.00000000000E+00 -0.00000000000E+00 -0.22211914226E+01  0.22211914226E+01  0.00000000000E+00 0.  1.
          2    1    1    2  502    0  0.19760715286E+02 -0.81615912453E+01  0.10543861180E+04  0.10546028557E+04  0.00000000000E+00 0.  1.
         -2    1    1    2    0  502 -0.19760715286E+02  0.81615912453E+01  0.51973290396E+02  0.56198935531E+02  0.00000000000E+00 0.  1.
</event>
<event>
 4    1  0.5792100E+003  0.2056540E+02  0.7546771E-02  0.1525561E+00
          2   -1    0    0  501    0  0.00000000000E+00  0.00000000000E+00  0.65601451574E+03  0.65601451574E+03  0.00000000000E+00 0. -1.
         -2   -1    0    0    0  501 -0.00000000000E+00 -0.00000000000E+00 -0.59857640585E+03  0.59857640585E+03  0.00000000000E+00 0. -1.
          2    1    1    2  502    0 -0.82678271997E+01  0.18830260431E+02  0.65567660623E+03  0.65599904546E+03  0.00000000000E+00 0. -1.
         -2    1    1    2    0  502  0.82678271997E+01 -0.18830260431E+02 -0.59823849634E+03  0.59859187614E+03  0.00000000000E+00 0. -1.
</event>
<event>
 4    1  0.5792100E+003  0.2247528E+02  0.7546771E-02  0.1499194E+00
          2   -1    0    0  501    0  0.00000000000E+00  0.00000000000E+00  0.34106433000E+03  0.34106433000E+03  0.00000000000E+00 0.  1.
         -2   -1    0    0    0  501 -0.00000000000E+00 -0.00000000000E+00 -0.31166694181E+01  0.31166694181E+01  0.00000000000E+00 0. -1.
          2    1    1    2  502    0  0.62319716246E+01  0.21593994369E+02  0.29364062997E+03  0.29449950362E+03  0.00000000000E+00 0.  1.
         -2    1    1    2    0  502 -0.62319716246E+01 -0.21593994369E+02  0.44307030614E+02  0.49681495801E+02  0.00000000000E+00 0. -1.
</event>
<event>
 4    1  0.5792100E+003  0.3454132E+02  0.7546771E-02  0.1383817E+00
          2   -1    0    0  501    0  0.00000000000E+00  0.00000000000E+00  0.11039082626E+03  0.11039082626E+03  0.00000000000E+00 0.  1.
         -2   -1    0    0    0  501 -0.00000000000E+00 -0.00000000000E+00 -0.80505770982E+02  0.80505770982E+02  0.00000000000E+00 0.  1.
          2    1    1    2  502    0  0.30124581417E+02 -0.16900080303E+02  0.10375299499E+03  0.10935166706E+03  0.00000000000E+00 0.  1.
         -2    1    1    2    0  502 -0.30124581417E+02  0.16900080303E+02 -0.73867939715E+02  0.81544930177E+02  0.00000000000E+00 0.  1.
</event>
<event>
 4    1  0.5792100E+003  0.2026793E+02  0.7546771E-02  0.1529979E+00
          2   -1    0    0  501    0  0.00000000000E+00  0.00000000000E+00  0.14420868224E+04  0.14420868224E+04  0.00000000000E+00 0.  1.
         -2   -1    0    0    0  501 -0.00000000000E+00 -0.00000000000E+00 -0.30489163649E+02  0.30489163649E+02  0.00000000000E+00 0. -1.
          2    1    1    2  502    0 -0.66525301000E+01 -0.19145042310E+02  0.14386392185E+04  0.14387819813E+04  0.00000000000E+00 0.  1.
         -2    1    1    2    0  502  0.66525301000E+01  0.19145042310E+02 -0.27041559744E+02  0.33794004722E+02  0.00000000000E+00 0. -1.
</event>
<event>
 4    1  0.5792100E+003  0.2334890E+02  0.7546771E-02  0.1488163E+00
          2   -1    0    0  501    0  0.00000000000E+00  0.00000000000E+00  0.76221687964E+03  0.76221687964E+03  0.00000000000E+00 0.  1.
         -2   -1    0    0    0  501 -0.00000000000E+00 -0.00000000000E+00 -0.76525929964E+00  0.76525929964E+00  0.00000000000E+00 0.  1.
          2    1    1    2  502    0 -0.18209584959E+02 -0.14614447596E+02  0.47825428462E+03  0.47882390481E+03  0.00000000000E+00 0.  1.
         -2    1    1    2    0  502  0.18209584959E+02  0.14614447596E+02  0.28319733572E+03  0.28415823413E+03  0.00000000000E+00 0.  1.
</event>
<event>
 4    1  0.5792100E+003  0.2829965E+02  0.7546771E-02  0.1434972E+00
          2   -1    0    0  501    0  0.00000000000E+00  0.00000000000E+00  0.77890543387E+03  0.77890543387E+03  0.00000000000E+00 0.  1.
         -2   -1    0    0    0  501 -0.00000000000E+00 -0.00000000000E+00 -0.71779236927E+02  0.71779236927E+02  0.00000000000E+00 0. -1.
          2    1    1    2  502    0 -0.28000025446E+02 -0.41071630194E+01  0.77584804368E+03  0.77636399781E+03  0.00000000000E+00 0.  1.
         -2    1    1    2    0  502  0.28000025446E+02  0.41071630194E+01 -0.68721846742E+02  0.74320672983E+02  0.00000000000E+00 0. -1.
</event>
<event>
 4    1  0.5792100E+003  0.3890253E+02  0.7546771E-02  0.1355040E+00
          2   -1    0    0  501    0  0.00000000000E+00  0.00000000000E+00  0.10079668566E+04  0.10079668566E+04  0.00000000000E+00 0. -1.
         -2   -1    0    0    0  501 -0.00000000000E+00 -0.00000000000E+00 -0.71538672465E+01  0.71538672465E+01  0.00000000000E+00 0. -1.
          2    1    1    2  502    0  0.99770632808E+01  0.37601397066E+02  0.95157061722E+03  0.95236550043E+03  0.00000000000E+00 0. -1.
         -2    1    1    2    0  502 -0.99770632808E+01 -0.37601397066E+02  0.49242372146E+02  0.62755223429E+02  0.00000000000E+00 0. -1.
</event>
<event>
 4    1  0.5792100E+003  0.2007545E+02  0.7546771E-02  0.1532885E+00
          2   -1    0    0  501    0  0.00000000000E+00  0.00000000000E+00  0.15406484967E+03  0.15406484967E+03  0.00000000000E+00 0. -1.
         -2   -1    0    0    0  501 -0.00000000000E+00 -0.00000000000E+00 -0.38639620770E+01  0.38639620770E+01  0.00000000000E+00 0.  1.
          2    1    1    2  502    0 -0.68082883413E+00 -0.20063907028E+02  0.11997773697E+03  0.12164572027E+03  0.00000000000E+00 0. -1.
         -2    1    1    2    0  502  0.68082883413E+00  0.20063907028E+02  0.30223150629E+02  0.36283091477E+02  0.00000000000E+00 0.  1.
</event>
<event>
 4    1  0.5792100E+003  0.4661862E+02  0.7546771E-02  0.1313538E+00
          2   -1    0    0  501    0  0.00000000000E+00  0.00000000000E+00  0.21203388814E+04  0.21203388814E+04  0.00000000000E+00 0. -1.
         -2   -1    0    0    0  501 -0.00000000000E+00 -0.00000000000E+00 -0.10281148200E+01  0.10281148200E+01  0.00000000000E+00 0. -1.
          2    1    1    2  502    0  0.42703545743E+02 -0.18700354331E+02  0.11182639456E+04  0.11192352514E+04  0.00000000000E+00 0. -1.
         -2    1    1    2    0  502 -0.42703545743E+02  0.18700354331E+02  0.10010468210E+04  0.10021317448E+04  0.00000000000E+00 0. -1.
</event>
<event>
 4    1  0.5792100E+003  0.2014219E+02  0.7546771E-02  0.1531873E+00
          2   -1    0    0  501    0  0.00000000000E+00  0.00000000000E+00  0.10218697625E+04  0.10218697625E+04  0.00000000000E+00 0.  1.
         -2   -1    0    0    0  501 -0.00000000000E+00 -0.00000000000E+00 -0.21110550702E+01  0.21110550702E+01  0.00000000000E+00 0. -1.
          2    1    1    2  502    0  0.15338727125E+02  0.13054932306E+02  0.97121951879E+03  0.97142836148E+03  0.00000000000E+00 0.  1.
         -2    1    1    2    0  502 -0.15338727125E+02 -0.13054932306E+02  0.48539188631E+02  0.52552456082E+02  0.00000000000E+00 0. -1.
</event>
<event>
 4    1  0.5792100E+003  0.2622766E+02  0.7546771E-02  0.1455525E+00
          2   -1    0    0  501    0  0.00000000000E+00  0.00000000000E+00  0.19472213298E+04  0.19472213298E+04  0.00000000000E+00 0. -1.
         -2   -1    0    0    0  501 -0.00000000000E+00 -0.00000000000E+00 -0.18408159646E+02  0.18408159646E+02  0.00000000000E+00 0. -1.
          2    1    1    2  502    0  0.11289865620E+02 -0.23673378296E+02  0.19377451414E+04  0.19379226308E+04  0.00000000000E+00 0. -1.
         -2    1    1    2    0  502 -0.11289865620E+02  0.23673378296E+02 -0.89319712538E+01  0.27706858648E+02  0.00000000000E+00 0. -1.
</event>
<event>
 4    1  0.5792100E+003  0.2484174E+02  0.7546771E-02  0.1470582E+00
          2   -1    0    0  501    0  0.00000000000E+00  0.00000000000E+00  0.14142076768E+04  0.14142076768E+04  0.00000000000E+00 0. -1.
         -2   -1    0    0    0  501 -0.00000000000E+00 -0.00000000000E+00 -0.11937769194E+01  0.11937769194E+01  0.00000000000E+00 0. -1.
          2    1    1    2  502    0 -0.62831332282E+01  0.24034020422E+02  0.12702145415E+04  0.12704574346E+04  0.00000000000E+00 0. -1.
         -2    1    1    2    0  502  0.62831332282E+01 -0.24034020422E+02  0.14279935839E+03  0.14494401904E+03  0.00000000000E+00 0. -1.
</event>
<event>
 4    1  0.5792100E+003  0.2956261E+02  0.7546771E-02  0.1423436E+00
          2   -1    0    0  501    0  0.00000000000E+00  0.00000000000E+00  0.96685186180E+02  0.96685186180E+02  0.00000000000E+00 0. -1.
         -2   -1    0    0    0  501 -0.00000000000E+00 -0.00000000000E+00 -0.14901082536E+02  0.14901082536E+02  0.00000000000E+00 0. -1.
          2    1    1    2  502    0  0.17896410630E+02  0.23530120862E+02  0.75886061976E+02  0.81441036975E+02  0.00000000000E+00 0. -1.
         -2    1    1    2    0  502 -0.17896410630E+02 -0.23530120862E+02  0.58980416677E+01  0.30145231741E+02  0.00000000000E+00 0. -1.
</event>
<event>
 4    1  0.5792100E+003  0.2300062E+02  0.7546771E-02  0.1492490E+00
          2   -1    0    0  501    0  0.00000000000E+00  0.00000000000E+00  0.54200290620E+01  0.54200290620E+01  0.00000000000E+00 0.  1.
         -2   -1    0    0    0  501 -0.00000000000E+00 -0.00000000000E+00 -0.98812860552E+02  0.98812860552E+02  0.00000000000E+00 0.  1.
          2    1    1    2  502    0 -0.20281474354E+01  0.22911015356E+02 -0.52455786180E+02  0.57276849690E+02  0.00000000000E+00 0.  1.
         -2    1    1    2    0  502  0.20281474354E+01 -0.22911015356E+02 -0.40937045310E+02  0.46956039924E+02  0.00000000000E+00 0.  1.
</event>
<event>
 4    1  0.5792100E+003  0.2297316E+02  0.7546771E-02  0.1492835E+00
          2   -1    0    0  501    0  0.00000000000E+00  0.00000000000E+00  0.24119880335E+03  0.24119880335E+03  0.00000000000E+00 0. -1.
         -2   -1    0    0    0  501 -0.00000000000E+00 -0.00000000000E+00 -0.38547968735E+01  0.38547968735E+01  0.00000000000E+00 0.  1.
          2    1    1    2  502    0 -0.72842261831E+01 -0.21787753756E+02  0.19923936806E+03  0.20055944742E+03  0.00000000000E+00 0. -1.
         -2    1    1    2    0  502  0.72842261831E+01  0.21787753756E+02  0.38104638421E+02  0.44494152807E+02  0.00000000000E+00 0.  1.
</event>
<event>
 4    1  0.5792100E+003  0.2027344E+02  0.7546771E-02  0.1529896E+00
          2   -1    0    0  501    0  0.00000000000E+00  0.00000000000E+00  0.11321508230E+03  0.11321508230E+03  0.00000000000E+00 0.  1.
         -2   -1    0    0    0  501 -0.00000000000E+00 -0.00000000000E+00 -0.26622252500E+03  0.26622252500E+03  0.00000000000E+00 0. -1.
          2    1    1    2  502    0 -0.20202626420E+02 -0.16930300052E+01  0.11191708289E+03  0.11373849792E+03  0.00000000000E+00 0.  1.
         -2    1    1    2    0  502  0.20202626420E+02  0.16930300052E+01 -0.26492452560E+03  0.26569910938E+03  0.00000000000E+00 0. -1.
</event>
<event>
 4    1  0.5792100E+003  0.2063159E+02  0.7546771E-02  0.1524590E+00
          2   -1    0    0  501    0  0.00000000000E+00  0.00000000000E+00  0.29932655174E+03  0.29932655174E+03  0.00000000000E+00 0.  1.
         -2   -1    0    0    0  501 -0.00000000000E+00 -0.00000000000E+00 -0.77737303728E+01  0.77737303728E+01  0.00000000000E+00 0.  1.
          2    1    1    2  502    0 -0.15091183572E+02  0.14068356283E+02  0.28457313383E+03  0.28532005006E+03  0.00000000000E+00 0.  1.
         -2    1    1    2    0  502  0.15091183572E+02 -0.14068356283E+02  0.69796875393E+01  0.21780232052E+02  0.00000000000E+00 0.  1.
</event>
<event>
 4    1  0.5792100E+003  0.2369883E+02  0.7546771E-02  0.1483905E+00
          2   -1    0    0  501    0  0.00000000000E+00  0.00000000000E+00  0.18628562425E+02  0.18628562425E+02  0.00000000000E+00 0.  1.
         -2   -1    0    0    0  501 -0.00000000000E+00 -0.00000000000E+00 -0.90731242900E+02  0.90731242900E+02  0.00000000000E+00 0. -1.
          2    1    1    2  502    0  0.23692623862E+02  0.54233845289E+00  0.86295262248E+01  0.25221087988E+02  0.00000000000E+00 0.  1.
         -2    1    1    2    0  502 -0.23692623862E+02 -0.54233845289E+00 -0.80732206699E+02  0.84138717336E+02  0.00000000000E+00 0. -1.
</event>
<event>
 4    1  0.5792100E+003  0.2286828E+02  0.7546771E-02  0.1494159E+00
          2   -1    0    0  501    0  0.00000000000E+00  0.00000000000E+00  0.64585762984E+02  0.64585762984E+02  0.00000000000E+00 0. -1.
         -2   -1    0    0    0  501 -0.00000000000E+00 -0.00000000000E+00 -0.38607070946E+02  0.38607070946E+02  0.00000000000E+00 0.  1.
          2    1    1    2  502    0  0.18328334921E+02  0.13675906582E+02  0.58857040887E+02  0.63143562964E+02  0.00000000000E+00 0. -1.
         -2    1    1    2    0  502 -0.18328334921E+02 -0.13675906582E+02 -0.32878348849E+02  0.40049270966E+02  0.00000000000E+00 0.  1.
</event>
<event>
 4    1  0.5792100E+003  0.3864607E+02  0.7546771E-02  0.1356608E+00
          2   -1    0    0  501    0  0.00000000000E+00  0.00000000000E+00  0.12941380872E+03  0.12941380872E+03  0.00000000000E+00 0. -1.
         -2   -1    0    0    0  501 -0.00000000000E+00 -0.00000000000E+00 -0.27899762921E+02  0.27899762921E+02  0.00000000000E+00 0.  1.
          2    1    1    2  502    0 -0.83638111881E+01 -0.37730168781E+02  0.11098743927E+03  0.11752331960E+03  0.00000000000E+00 0. -1.
         -2    1    1    2    0  502  0.83638111881E+01  0.37730168781E+02 -0.94733934695E+01  0.39790252043E+02  0.00000000000E+00 0.  1.
</event>
<event>
 4    1  0.5792100E+003  0.2796418E+02  0.7546771E-02  0.1438156E+00
          2   -1    0    0  501    0  0.00000000000E+00  0.00000000000E+00  0.64417620572E+03  0.64417620572E+03  0.00000000000E+00 0. -1.
         -2   -1    0    0    0  501 -0.00000000000E+00 -0.00000000000E+00 -0.34257289962E+01  0.34257289962E+01  0.00000000000E+00 0. -1.
          2    1    1    2  502    0  0.21259491770E+02  0.18166705624E+02  0.58055462714E+03  0.58122772669E+03  0.00000000000E+00 0. -1.
         -2    1    1    2    0  502 -0.21259491770E+02 -0.18166705624E+02  0.60195849586E+02  0.66374208025E+02  0.00000000000E+00 0. -1.
</event>
<event>
 4    1  0.5792100E+003  0.2218719E+02  0.7546771E-02  0.1502965E+00
          2   -1    0    0  501    0  0.00000000000E+00  0.00000000000E+00  0.76346310245E+03  0.76346310245E+03  0.00000000000E+00 0. -1.
         -2   -1    0    0    0  501 -0.00000000000E+00 -0.00000000000E+00 -0.10280468503E+01  0.10280468503E+01  0.00000000000E+00 0.  1.
          2    1    1    2  502    0 -0.90714352581E+01  0.20247971807E+02  0.61460767340E+03  0.61500801905E+03  0.00000000000E+00 0. -1.
         -2    1    1    2    0  502  0.90714352581E+01 -0.20247971807E+02  0.14782738221E+03  0.14948313025E+03  0.00000000000E+00 0.  1.
</event>
<event>
 4    1  0.5792100E+003  0.5562910E+02  0.7546771E-02  0.1275453E+00
          2   -1    0    0  501    0  0.00000000000E+00  0.00000000000E+00  0.62732381399E+03  0.62732381399E+03  0.00000000000E+00 0.  1.
         -2   -1    0    0    0  501 -0.00000000000E+00 -0.00000000000E+00 -0.53157746167E+01  0.53157746167E+01  0.00000000000E+00 0.  1.
          2    1    1    2  502    0  0.21594488635E+02 -0.51266671142E+02  0.22612311271E+03  0.23286531646E+03  0.00000000000E+00 0.  1.
         -2    1    1    2    0  502 -0.21594488635E+02  0.51266671142E+02  0.39588492667E+03  0.39977427215E+03  0.00000000000E+00 0.  1.
</event>
<event>
 4    1  0.5792100E+003  0.2368728E+02  0.7546771E-02  0.1484044E+00
          2   -1    0    0  501    0  0.00000000000E+00  0.00000000000E+00  0.11816487566E+04  0.11816487566E+04  0.00000000000E+00 0. -1.
         -2   -1    0    0    0  501 -0.00000000000E+00 -0.00000000000E+00 -0.10623842890E+01  0.10623842890E+01  0.00000000000E+00 0.  1.
          2    1    1    2  502    0 -0.16802240800E+02  0.16696468622E+02  0.10300679293E+04  0.10303402478E+04  0.00000000000E+00 0. -1.
         -2    1    1    2    0  502  0.16802240800E+02 -0.16696468622E+02  0.15051844309E+03  0.15237089312E+03  0.00000000000E+00 0.  1.
</event>
<event>
 4    1  0.5792100E+003  0.2237211E+02  0.7546771E-02  0.1500537E+00
          2   -1    0    0  501    0  0.00000000000E+00  0.00000000000E+00  0.94229645997E+03  0.94229645997E+03  0.00000000000E+00 0.  1.
         -2   -1    0    0    0  501 -0.00000000000E+00 -0.00000000000E+00 -0.53472722715E+00  0.53472722715E+00  0.00000000000E+00 0.  1.
          2    1    1    2  502    0  0.13765530242E+02  0.17635789092E+02  0.43238106698E+03  0.43295946457E+03  0.00000000000E+00 0.  1.
         -2    1    1    2    0  502 -0.13765530242E+02 -0.17635789092E+02  0.50938066577E+03  0.50987172263E+03  0.00000000000E+00 0.  1.
</event>
<event>
 4    1  0.5792100E+003  0.2656246E+02  0.7546771E-02  0.1452053E+00
          2   -1    0    0  501    0  0.00000000000E+00  0.00000000000E+00  0.10817490458E+04  0.10817490458E+04  0.00000000000E+00 0.  1.
         -2   -1    0    0    0  501 -0.00000000000E+00 -0.00000000000E+00 -0.39239424069E+02  0.39239424069E+02  0.00000000000E+00 0.  1.
          2    1    1    2  502    0 -0.20985101298E+02  0.16284655343E+02  0.10770712118E+04  0.10773987005E+04  0.00000000000E+00 0.  1.
         -2    1    1    2    0  502  0.20985101298E+02 -0.16284655343E+02 -0.34561590148E+02  0.43589769324E+02  0.00000000000E+00 0.  1.
</event>
<event>
 4    1  0.5792100E+003  0.2259767E+02  0.7546771E-02  0.1497613E+00
          2   -1    0    0  501    0  0.00000000000E+00  0.00000000000E+00  0.10298151113E+04  0.10298151113E+04  0.00000000000E+00 0. -1.
         -2   -1    0    0    0  501 -0.00000000000E+00 -0.00000000000E+00 -0.74790516238E+00  0.74790516238E+00  0.00000000000E+00 0. -1.
          2    1    1    2  502    0  0.47494465161E+01  0.22092923393E+02  0.81365796599E+03  0.81397170721E+03  0.00000000000E+00 0. -1.
         -2    1    1    2    0  502 -0.47494465161E+01 -0.22092923393E+02  0.21540924018E+03  0.21659130929E+03  0.00000000000E+00 0. -1.
</event>
<event>
 4    1  0.5792100E+003  0.4552054E+02  0.7546771E-02  0.1318857E+00
          2   -1    0    0  501    0  0.00000000000E+00  0.00000000000E+00  0.43898126542E+03  0.43898126542E+03  0.00000000000E+00 0. -1.
         -2   -1    0    0    0  501 -0.00000000000E+00 -0.00000000000E+00 -0.16561967270E+02  0.16561967270E+02  0.00000000000E+00 0. -1.
          2    1    1    2  502    0  0.45125285389E+02 -0.59856806448E+01  0.40380695880E+03  0.40636458966E+03  0.00000000000E+00 0. -1.
         -2    1    1    2    0  502 -0.45125285389E+02  0.59856806448E+01  0.18612339350E+02  0.49178643030E+02  0.00000000000E+00 0. -1.
</event>
<event>
 4    1  0.5792100E+003  0.2582828E+02  0.7546771E-02  0.1459747E+00
          2   -1    0    0  501    0  0.00000000000E+00  0.00000000000E+00  0.75162881147E+02  0.75162881147E+02  0.00000000000E+00 0.  1.
         -2   -1    0    0    0  501 -0.00000000000E+00 -0.00000000000E+00 -0.12905028530E+02  0.12905028530E+02  0.00000000000E+00 0.  1.
          2    1    1    2  502    0  0.19305035167E+02  0.17158538513E+02  0.55734941867E+02  0.61428686878E+02  0.00000000000E+00 0.  1.
         -2    1    1    2    0  502 -0.19305035167E+02 -0.17158538513E+02  0.65229107499E+01  0.26639222799E+02  0.00000000000E+00 0.  1.
</event>
<event>
 4    1  0.5792100E+003  0.2316314E+02  0.7546771E-02  0.1490460E+00
          2   -1    0    0  501    0  0.00000000000E+00  0.00000000000E+00  0.23167019636E+03  0.23167019636E+03  0.00000000000E+00 0. -1.
         -2   -1    0    0    0  501 -0.00000000000E+00 -0.00000000000E+00 -0.14952609995E+02  0.14952609995E+02  0.00000000000E+00 0. -1.
          2    1    1    2  502    0 -0.37854318978E+01  0.22851734787E+02  0.22171917006E+03  0.22292582096E+03  0.00000000000E+00 0. -1.
         -2    1    1    2    0  502  0.37854318978E+01 -0.22851734787E+02 -0.50015836966E+01  0.23696985397E+02  0.00000000000E+00 0. -1.
</event>
<event>
 4    1  0.5792100E+003  0.2861115E+02  0.7546771E-02  0.1432062E+00
          2   -1    0    0  501    0  0.00000000000E+00  0.00000000000E+00  0.22319540867E+03  0.22319540867E+03  0.00000000000E+00 0. -1.
         -2   -1    0    0    0  501 -0.00000000000E+00 -0.00000000000E+00 -0.10114824147E+03  0.10114824147E+03  0.00000000000E+00 0. -1.
          2    1    1    2  502    0 -0.21277189236E+02 -0.19127962421E+02  0.22022809226E+03  0.22207883814E+03  0.00000000000E+00 0. -1.
         -2    1    1    2    0  502  0.21277189236E+02  0.19127962421E+02 -0.98180925062E+02  0.10226481200E+03  0.00000000000E+00 0. -1.
</event>
<event>
 4    1  0.5792100E+003  0.3285650E+02  0.7546771E-02  0.1396293E+00
          2   -1    0    0  501    0  0.00000000000E+00  0.00000000000E+00  0.16006995017E+02  0.16006995017E+02  0.00000000000E+00 0.  1.
         -2   -1    0    0    0  501 -0.00000000000E+00 -0.00000000000E+00 -0.15533223067E+03  0.15533223067E+03  0.00000000000E+00 0. -1.
          2    1    1    2  502    0 -0.31113201314E+02 -0.10560208915E+02 -0.52211446436E+01  0.33268748996E+02  0.00000000000E+00 0.  1.
         -2    1    1    2    0  502  0.31113201314E+02  0.10560208915E+02 -0.13410409101E+03  0.13807047670E+03  0.00000000000E+00 0. -1.
</event>
<event>
 4    1  0.5792100E+003  0.2070299E+02  0.7546771E-02  0.1523548E+00
          2   -1    0    0  501    0  0.00000000000E+00  0.00000000000E+00  0.27443890673E+02  0.27443890673E+02  0.00000000000E+00 0.  1.
         -2   -1    0    0    0  501 -0.00000000000E+00 -0.00000000000E+00 -0.21992288372E+02  0.21992288372E+02  0.00000000000E+00 0.  1.
          2    1    1    2  502    0  0.20064920209E+02  0.51002608879E+01  0.16033462805E+02  0.26185599356E+02  0.00000000000E+00 0.  1.
         -2    1    1    2    0  502 -0.20064920209E+02 -0.51002608879E+01 -0.10581860505E+02  0.23250579689E+02  0.00000000000E+00 0.  1.
</event>
<event>
 4    1  0.5792100E+003  0.2152843E+02  0.7546771E-02  0.1511852E+00
          2   -1    0    0  501    0  0.00000000000E+00  0.00000000000E+00  0.23115384449E+02  0.23115384449E+02  0.00000000000E+00 0. -1.
         -2   -1    0    0    0  501 -0.00000000000E+00 -0.00000000000E+00 -0.71394700488E+02  0.71394700488E+02  0.00000000000E+00 0.  1.
          2    1    1    2  502    0 -0.17355319402E+02 -0.12738366688E+02  0.15934205854E+02  0.26783801329E+02  0.00000000000E+00 0. -1.
         -2    1    1    2    0  502  0.17355319402E+02  0.12738366688E+02 -0.64213521894E+02  0.67726283608E+02  0.00000000000E+00 0.  1.
</event>
<event>
 4    1  0.5792100E+003  0.2915462E+02  0.7546771E-02  0.1427088E+00
          2   -1    0    0  501    0  0.00000000000E+00  0.00000000000E+00  0.19286035600E+03  0.19286035600E+03  0.00000000000E+00 0. -1.
         -2   -1    0    0    0  501 -0.00000000000E+00 -0.00000000000E+00 -0.44160189061E+01  0.44160189061E+01  0.00000000000E+00 0. -1.
          2    1    1    2  502    0 -0.25039341642E+02  0.14933942220E+02  0.89836428837E+02  0.94448796743E+02  0.00000000000E+00 0. -1.
         -2    1    1    2    0  502  0.25039341642E+02 -0.14933942220E+02  0.98607908260E+02  0.10282757817E+03  0.00000000000E+00 0. -1.
</event>
<event>
 4    1  0.5792100E+003  0.2002818E+02  0.7546771E-02  0.1533605E+00
          2   -1    0    0  501    0  0.00000000000E+00  0.00000000000E+00  0.12672522281E+03  0.12672522281E+03  0.00000000000E+00 0.  1.
         -2   -1    0    0    0  501 -0.00000000000E+00 -0.00000000000E+00 -0.75341971659E+01  0.75341971659E+01  0.00000000000E+00 0. -1.
          2    1    1    2  502    0  0.15973600372E+02 -0.12081892076E+02  0.11071427831E+03  0.11251124143E+03  0.00000000000E+00 0.  1.
         -2    1    1    2    0  502 -0.15973600372E+02  0.12081892076E+02  0.84767473333E+01  0.21748178552E+02  0.00000000000E+00 0. -1.
</event>
<event>
 4    1  0.5792100E+003  0.3197923E+02  0.7546771E-02  0.1403142E+00
          2   -1    0    0  501    0  0.00000000000E+00  0.00000000000E+00  0.75538369038E+03  0.75538369038E+03  0.00000000000E+00 0. -1.
         -2   -1    0    0    0  501 -0.00000000000E+00 -0.00000000000E+00 -0.15464395743E+01  0.15464395743E+01  0.00000000000E+00 0.  1.
          2    1    1    2  502    0 -0.21146729522E+02 -0.23989306504E+02  0.51048080189E+03  0.51148149536E+03  0.00000000000E+00 0. -1.
         -2    1    1    2    0  502  0.21146729522E+02  0.23989306504E+02  0.24335644892E+03  0.24544863460E+03  0.00000000000E+00 0.  1.
</event>
<event>
 4    1  0.5792100E+003  0.2452490E+02  0.7546771E-02  0.1474189E+00
          2   -1    0    0  501    0  0.00000000000E+00  0.00000000000E+00  0.13361895796E+04  0.13361895796E+04  0.00000000000E+00 0.  1.
         -2   -1    0    0    0  501 -0.00000000000E+00 -0.00000000000E+00 -0.60886503425E+01  0.60886503425E+01  0.00000000000E+00 0. -1.
          2    1    1    2  502    0  0.23667187051E+02 -0.64292251526E+01  0.13109043453E+04  0.13111337358E+04  0.00000000000E+00 0.  1.
         -2    1    1    2    0  502 -0.23667187051E+02  0.64292251526E+01  0.19196583976E+02  0.31144494141E+02  0.00000000000E+00 0. -1.
</event>
<event>
 4    1  0.5792100E+003  0.2849601E+02  0.7546771E-02  0.1433133E+00
          2   -1    0    0  501    0  0.00000000000E+00  0.00000000000E+00  0.27304745069E+03  0.27304745069E+03  0.00000000000E+00 0.  1.
         -2   -1    0    0    0  501 -0.00000000000E+00 -0.00000000000E+00 -0.60890646230E+02  0.60890646230E+02  0.00000000000E+00 0.  1.
          2    1    1    2  502    0 -0.27325792590E+02  0.80823181184E+01  0.26891899031E+03  0.27042456648E+03  0.00000000000E+00 0.  1.
         -2    1    1    2    0  502  0.27325792590E+02 -0.80823181184E+01 -0.56762185849E+02  0.63513530441E+02  0.00000000000E+00 0.  1.
</event>
<event>
 4    1  0.5792100E+003  0.3219782E+02  0.7546771E-02  0.1401412E+00
          2   -1    0    0  501    0  0.00000000000E+00  0.00000000000E+00  0.21051558445E+02  0.21051558445E+02  0.00000000000E+00 0.  1.
         -2   -1    0    0    0  501 -0.00000000000E+00 -0.00000000000E+00 -0.89785229822E+03  0.89785229822E+03  0.00000000000E+00 0.  1.
          2    1    1    2  502    0  0.30701810919E+01  0.32051106998E+02  0.82737829674E+01  0.33243870959E+02  0.00000000000E+00 0.  1.
         -2    1    1    2    0  502 -0.30701810919E+01 -0.32051106998E+02 -0.88507452274E+03  0.88565998570E+03  0.00000000000E+00 0.  1.
</event>
<event>
 4    1  0.5792100E+003  0.3500947E+02  0.7546771E-02  0.1380497E+00
          2   -1    0    0  501    0  0.00000000000E+00  0.00000000000E+00  0.36346170960E+03  0.36346170960E+03  0.00000000000E+00 0. -1.
         -2   -1    0    0    0  501 -0.00000000000E+00 -0.00000000000E+00 -0.34775911517E+01  0.34775911517E+01  0.00000000000E+00 0. -1.
          2    1    1    2  502    0 -0.30738877398E+02  0.16756629749E+02  0.21193246177E+03  0.21480463583E+03  0.00000000000E+00 0. -1.
         -2    1    1    2    0  502  0.30738877398E+02 -0.16756629749E+02  0.14805165668E+03  0.15213466492E+03  0.00000000000E+00 0. -1.
</event>
<event>
 4    1  0.5792100E+003  0.9144414E+02  0.7546771E-02  0.1179521E+00
          2   -1    0    0  501    0  0.00000000000E+00  0.00000000000E+00  0.10838375876E+04  0.10838375876E+04  0.00000000000E+00 0. -1.
         -2   -1    0    0    0  501 -0.00000000000E+00 -0.00000000000E+00 -0.35494108484E+02  0.35494108484E+02  0.00000000000E+00 0.  1.
          2    1    1    2  502    0  0.91419959734E+02  0.21027911639E+01  0.10192891610E+04  0.10233828338E+04  0.00000000000E+00 0. -1.
         -2    1    1    2    0  502 -0.91419959734E+02 -0.21027911639E+01  0.29054318075E+02  0.95948862251E+02  0.00000000000E+00 0.  1.
</event>
<event>
 4    1  0.5792100E+003  0.2484836E+02  0.7546771E-02  0.1470507E+00
          2   -1    0    0  501    0  0.00000000000E+00  0.00000000000E+00  0.17017283794E+04  0.17017283794E+04  0.00000000000E+00 0. -1.
         -2   -1    0    0    0  501 -0.00000000000E+00 -0.00000000000E+00 -0.36315348861E+00  0.36315348861E+00  0.00000000000E+00 0. -1.
          2    1    1    2  502    0 -0.24169156321E+02 -0.57699399468E+01  0.82533358795E+03  0.82570755823E+03  0.00000000000E+00 0. -1.
         -2    1    1    2    0  502  0.24169156321E+02  0.57699399468E+01  0.87603163795E+03  0.87638397464E+03  0.00000000000E+00 0. -1.
</event>
<event>
 4    1  0.5864038E+003  0.2288110E+02  0.7546771E-02  0.1493997E+00
          2   -1    0    0  501    0  0.00000000000E+00  0.00000000000E+00  0.14809166538E+04  0.14809166538E+04  0.00000000000E+00 0.  1.
         -2   -1    0    0    0  501 -0.00000000000E+00 -0.00000000000E+00 -0.10098827851E+04  0.10098827851E+04  0.00000000000E+00 0. -1.
          2    1    1    2  502    0  0.16141204884E+02 -0.16217463313E+02  0.14806986476E+04  0.14808754268E+04  0.00000000000E+00 0.  1.
         -2    1    1    2    0  502 -0.16141204884E+02  0.16217463313E+02 -0.10096647789E+04  0.10099240122E+04  0.00000000000E+00 0. -1.
</event>
<event>
 4    1  0.5792100E+003  0.2158958E+02  0.7546771E-02  0.1511011E+00
          2   -1    0    0  501    0  0.00000000000E+00  0.00000000000E+00  0.82365203047E+03  0.82365203047E+03  0.00000000000E+00 0.  1.
         -2   -1    0    0    0  501 -0.00000000000E+00 -0.00000000000E+00 -0.59009279567E+00  0.59009279567E+00  0.00000000000E+00 0.  1.
          2    1    1    2  502    0  0.14193295565E+02 -0.16268387549E+02  0.49496610038E+03  0.49543672714E+03  0.00000000000E+00 0.  1.
         -2    1    1    2    0  502 -0.14193295565E+02  0.16268387549E+02  0.32809583730E+03  0.32880539613E+03  0.00000000000E+00 0.  1.
</event>
<event>
 4    1  0.5792100E+003  0.2140477E+02  0.7546771E-02  0.1513564E+00
          2   -1    0    0  501    0  0.00000000000E+00  0.00000000000E+00  0.22403190519E+02  0.22403190519E+02  0.00000000000E+00 0.  1.
         -2   -1    0    0    0  501 -0.00000000000E+00 -0.00000000000E+00 -0.79797243367E+02  0.79797243367E+02  0.00000000000E+00 0. -1.
          2    1    1    2  502    0 -0.19181481379E+02  0.94992170404E+01  0.15371238808E+02  0.26352216885E+02  0.00000000000E+00 0.  1.
         -2    1    1    2    0  502  0.19181481379E+02 -0.94992170404E+01 -0.72765291657E+02  0.75848217000E+02  0.00000000000E+00 0. -1.
</event>
<event>
 4    1  0.5792100E+003  0.2509159E+02  0.7546771E-02  0.1467781E+00
          2   -1    0    0  501    0  0.00000000000E+00  0.00000000000E+00  0.59699664209E+03  0.59699664209E+03  0.00000000000E+00 0. -1.
         -2   -1    0    0    0  501 -0.00000000000E+00 -0.00000000000E+00 -0.42272089841E+01  0.42272089841E+01  0.00000000000E+00 0.  1.
          2    1    1    2  502    0  0.11178953480E+02 -0.22463724658E+02  0.55681300898E+03  0.55737807177E+03  0.00000000000E+00 0. -1.
         -2    1    1    2    0  502 -0.11178953480E+02  0.22463724658E+02  0.35956424127E+02  0.43845779300E+02  0.00000000000E+00 0.  1.
</event>
<event>
 4    1  0.5792100E+003  0.2353227E+02  0.7546771E-02  0.1485920E+00
          2   -1    0    0  501    0  0.00000000000E+00  0.00000000000E+00  0.31046746906E+02  0.31046746906E+02  0.00000000000E+00 0. -1.
         -2   -1    0    0    0  501 -0.00000000000E+00 -0.00000000000E+00 -0.18098592890E+02  0.18098592890E+02  0.00000000000E+00 0.  1.
          2    1    1    2  502    0  0.86707383807E+01 -0.21876593435E+02  0.35173513051E+01  0.23793671524E+02  0.00000000000E+00 0. -1.
         -2    1    1    2    0  502 -0.86707383807E+01  0.21876593435E+02  0.94308027113E+01  0.25351668272E+02  0.00000000000E+00 0.  1.
</event>
<event>
 4    1  0.5792100E+003  0.2168791E+02  0.7546771E-02  0.1509666E+00
          2   -1    0    0  501    0  0.00000000000E+00  0.00000000000E+00  0.51947585884E+03  0.51947585884E+03  0.00000000000E+00 0.  1.
         -2   -1    0    0    0  501 -0.00000000000E+00 -0.00000000000E+00 -0.92307967048E+00  0.92307967048E+00  0.00000000000E+00 0.  1.
          2    1    1    2  502    0 -0.11349432490E+02 -0.18481229803E+02  0.29522360540E+03  0.29601915927E+03  0.00000000000E+00 0.  1.
         -2    1    1    2    0  502  0.11349432490E+02  0.18481229803E+02  0.22332917377E+03  0.22437977924E+03  0.00000000000E+00 0.  1.
</event>
<event>
 4    1  0.5792100E+003  0.2080218E+02  0.7546771E-02  0.1522108E+00
          2   -1    0    0  501    0  0.00000000000E+00  0.00000000000E+00  0.21783375394E+01  0.21783375394E+01  0.00000000000E+00 0.  1.
         -2   -1    0    0    0  501 -0.00000000000E+00 -0.00000000000E+00 -0.29325490980E+03  0.29325490980E+03  0.00000000000E+00 0. -1.
          2    1    1    2  502    0  0.39812809434E+01  0.20417636689E+02 -0.61638736367E+02  0.65054318126E+02  0.00000000000E+00 0.  1.
         -2    1    1    2    0  502 -0.39812809434E+01 -0.20417636689E+02 -0.22943783589E+03  0.23037892921E+03  0.00000000000E+00 0. -1.
</event>
<event>
 4    1  0.5792100E+003  0.3301415E+02  0.7546771E-02  0.1395089E+00
          2   -1    0    0  501    0  0.00000000000E+00  0.00000000000E+00  0.89063682237E+03  0.89063682237E+03  0.00000000000E+00 0.  1.
         -2   -1    0    0    0  501 -0.00000000000E+00 -0.00000000000E+00 -0.40757696052E+02  0.40757696052E+02  0.00000000000E+00 0.  1.
          2    1    1    2  502    0  0.16882757682E+02  0.28370876912E+02  0.88359214700E+03  0.88420869505E+03  0.00000000000E+00 0.  1.
         -2    1    1    2    0  502 -0.16882757682E+02 -0.28370876912E+02 -0.33713020681E+02  0.47185823371E+02  0.00000000000E+00 0.  1.
</event>
<event>
 4    1  0.5792100E+003  0.2979211E+02  0.7546771E-02  0.1421412E+00
          2   -1    0    0  501    0  0.00000000000E+00  0.00000000000E+00  0.28028904712E+04  0.28028904712E+04  0.00000000000E+00 0. -1.
         -2   -1    0    0    0  501 -0.00000000000E+00 -0.00000000000E+00 -0.41923210388E+00  0.41923210388E+00  0.00000000000E+00 0.  1.
          2    1    1    2  502    0  0.29227183715E+02 -0.57742126091E+01  0.20945393526E+04  0.20947512190E+04  0.00000000000E+00 0. -1.
         -2    1    1    2    0  502 -0.29227183715E+02  0.57742126091E+01  0.70793188644E+03  0.70855848427E+03  0.00000000000E+00 0.  1.
</event>
<event>
 4    1  0.5792100E+003  0.2280210E+02  0.7546771E-02  0.1494998E+00
          2   -1    0    0  501    0  0.00000000000E+00  0.00000000000E+00  0.22490819912E+04  0.22490819912E+04  0.00000000000E+00 0. -1.
         -2   -1    0    0    0  501 -0.00000000000E+00 -0.00000000000E+00 -0.29365872874E+00  0.29365872874E+00  0.00000000000E+00 0. -1.
          2    1    1    2  502    0 -0.22499807585E+02  0.37006086813E+01  0.16431790767E+04  0.16433372794E+04  0.00000000000E+00 0. -1.
         -2    1    1    2    0  502  0.22499807585E+02 -0.37006086813E+01  0.60560925575E+03  0.60603837048E+03  0.00000000000E+00 0. -1.
</event>
<event>
 4    1  0.5792100E+003  0.2423996E+02  0.7546771E-02  0.1477488E+00
          2   -1    0    0  501    0  0.00000000000E+00  0.00000000000E+00  0.20268293579E+02  0.20268293579E+02  0.00000000000E+00 0. -1.
         -2   -1    0    0    0  501 -0.00000000000E+00 -0.00000000000E+00 -0.38262663105E+02  0.38262663105E+02  0.00000000000E+00 0. -1.
          2    1    1    2  502    0  0.10176770707E+02  0.22000209702E+02  0.54097806767E+01  0.24836296340E+02  0.00000000000E+00 0. -1.
         -2    1    1    2    0  502 -0.10176770707E+02 -0.22000209702E+02 -0.23404150203E+02  0.33694660344E+02  0.00000000000E+00 0. -1.
</event>
<event>
 4    1  0.5792100E+003  0.3092182E+02  0.7546771E-02  0.1411751E+00
          2   -1    0    0  501    0  0.00000000000E+00  0.00000000000E+00  0.81785742205E+03  0.81785742205E+03  0.00000000000E+00 0. -1.
         -2   -1    0    0    0  501 -0.00000000000E+00 -0.00000000000E+00 -0.33672523591E+01  0.33672523591E+01  0.00000000000E+00 0. -1.
          2    1    1    2  502    0  0.29190374772E+02  0.10201996270E+02  0.73900419993E+03  0.73965084075E+03  0.00000000000E+00 0. -1.
         -2    1    1    2    0  502 -0.29190374772E+02 -0.10201996270E+02  0.75485969761E+02  0.81573833660E+02  0.00000000000E+00 0. -1.
</event>
<event>
 4    1  0.5792100E+003  0.3569483E+02  0.7546771E-02  0.1375743E+00
          2   -1    0    0  501    0  0.00000000000E+00  0.00000000000E+00  0.88482165795E+02  0.88482165795E+02  0.00000000000E+00 0.  1.
         -2   -1    0    0    0  501 -0.00000000000E+00 -0.00000000000E+00 -0.11917527025E+03  0.11917527025E+03  0.00000000000E+00 0.  1.
          2    1    1    2  502    0 -0.35672024173E+02  0.12758641873E+01  0.82007566632E+02  0.89439153188E+02  0.00000000000E+00 0.  1.
         -2    1    1    2    0  502  0.35672024173E+02 -0.12758641873E+01 -0.11270067109E+03  0.11821828286E+03  0.00000000000E+00 0.  1.
</event>
<event>
 4    1  0.5792100E+003  0.2225859E+02  0.7546771E-02  0.1502024E+00
          2   -1    0    0  501    0  0.00000000000E+00  0.00000000000E+00  0.29776445297E+03  0.29776445297E+03  0.00000000000E+00 0. -1.
         -2   -1    0    0    0  501 -0.00000000000E+00 -0.00000000000E+00 -0.14023599181E+03  0.14023599181E+03  0.00000000000E+00 0.  1.
          2    1    1    2  502    0 -0.89882601325E+01 -0.20363103724E+02  0.29646137174E+03  0.29729579504E+03  0.00000000000E+00 0. -1.
         -2    1    1    2    0  502  0.89882601325E+01  0.20363103724E+02 -0.13893291058E+03  0.14070464973E+03  0.00000000000E+00 0.  1.
</event>
<event>
 4    1  0.5792100E+003  0.2784877E+02  0.7546771E-02  0.1439263E+00
          2   -1    0    0  501    0  0.00000000000E+00  0.00000000000E+00  0.15869481385E+03  0.15869481385E+03  0.00000000000E+00 0. -1.
         -2   -1    0    0    0  501 -0.00000000000E+00 -0.00000000000E+00 -0.89548007645E+02  0.89548007645E+02  0.00000000000E+00 0. -1.
          2    1    1    2  502    0 -0.14559481103E+02  0.23739749864E+02  0.15526033623E+03  0.15773815715E+03  0.00000000000E+00 0. -1.
         -2    1    1    2    0  502  0.14559481103E+02 -0.23739749864E+02 -0.86113530031E+02  0.90504664344E+02  0.00000000000E+00 0. -1.
</event>
<event>
 4    1  0.5792100E+003  0.2211490E+02  0.7546771E-02  0.1503922E+00
          2   -1    0    0  501    0  0.00000000000E+00  0.00000000000E+00  0.72149017554E+02  0.72149017554E+02  0.00000000000E+00 0.  1.
         -2   -1    0    0    0  501 -0.00000000000E+00 -0.00000000000E+00 -0.12699372691E+03  0.12699372691E+03  0.00000000000E+00 0. -1.
          2    1    1    2  502    0  0.38083772081E+01 -0.21784518909E+02  0.69455145969E+02  0.72890920577E+02  0.00000000000E+00 0.  1.
         -2    1    1    2    0  502 -0.38083772081E+01  0.21784518909E+02 -0.12429985533E+03  0.12625182389E+03  0.00000000000E+00 0. -1.
</event>
<event>
 4    1  0.5792100E+003  0.2017952E+02  0.7546771E-02  0.1531309E+00
          2   -1    0    0  501    0  0.00000000000E+00  0.00000000000E+00  0.26214085141E+01  0.26214085141E+01  0.00000000000E+00 0.  1.
         -2   -1    0    0    0  501 -0.00000000000E+00 -0.00000000000E+00 -0.79807503113E+03  0.79807503113E+03  0.00000000000E+00 0. -1.
          2    1    1    2  502    0 -0.17515580404E+02  0.10020844686E+02 -0.38448002713E+02  0.43421904585E+02  0.00000000000E+00 0.  1.
         -2    1    1    2    0  502  0.17515580404E+02 -0.10020844686E+02 -0.75700561991E+03  0.75727453506E+03  0.00000000000E+00 0. -1.
</event>
<event>
 4    1  0.5792100E+003  0.5586508E+02  0.7546771E-02  0.1274568E+00
          2   -1    0    0  501    0  0.00000000000E+00  0.00000000000E+00  0.14309476188E+04  0.14309476188E+04  0.00000000000E+00 0.  1.
         -2   -1    0    0    0  501 -0.00000000000E+00 -0.00000000000E+00 -0.19948451855E+02  0.19948451855E+02  0.00000000000E+00 0.  1.
          2    1    1    2  502    0  0.53129273747E+02  0.17268120053E+02  0.13901426126E+04  0.13912646732E+04  0.00000000000E+00 0.  1.
         -2    1    1    2    0  502 -0.53129273747E+02 -0.17268120053E+02  0.20856554387E+02  0.59631397434E+02  0.00000000000E+00 0.  1.
</event>
<event>
 4    1  0.5792100E+003  0.3479402E+02  0.7546771E-02  0.1382017E+00
          2   -1    0    0  501    0  0.00000000000E+00  0.00000000000E+00  0.14123794368E+04  0.14123794368E+04  0.00000000000E+00 0.  1.
         -2   -1    0    0    0  501 -0.00000000000E+00 -0.00000000000E+00 -0.31304095159E+01  0.31304095159E+01  0.00000000000E+00 0. -1.
          2    1    1    2  502    0  0.28902837200E+02  0.19371364156E+02  0.13077485640E+04  0.13082113477E+04  0.00000000000E+00 0.  1.
         -2    1    1    2    0  502 -0.28902837200E+02 -0.19371364156E+02  0.10150046334E+03  0.10729849862E+03  0.00000000000E+00 0. -1.
</event>
<event>
 4    1  0.5792100E+003  0.3875653E+02  0.7546771E-02  0.1355931E+00
          2   -1    0    0  501    0  0.00000000000E+00  0.00000000000E+00  0.64702501544E+03  0.64702501544E+03  0.00000000000E+00 0.  1.
         -2   -1    0    0    0  501 -0.00000000000E+00 -0.00000000000E+00 -0.20041687681E+02  0.20041687681E+02  0.00000000000E+00 0. -1.
          2    1    1    2  502    0  0.11299160831E+02 -0.37072865870E+02  0.62711349353E+03  0.62830995709E+03  0.00000000000E+00 0.  1.
         -2    1    1    2    0  502 -0.11299160831E+02  0.37072865870E+02 -0.13016577005E+00  0.38756746025E+02  0.00000000000E+00 0. -1.
</event>
<event>
 4    1  0.5792100E+003  0.2942275E+02  0.7546771E-02  0.1424680E+00
          2   -1    0    0  501    0  0.00000000000E+00  0.00000000000E+00  0.21432057767E+04  0.21432057767E+04  0.00000000000E+00 0. -1.
         -2   -1    0    0    0  501 -0.00000000000E+00 -0.00000000000E+00 -0.12654685894E+01  0.12654685894E+01  0.00000000000E+00 0. -1.
          2    1    1    2  502    0  0.22450243065E+02  0.19018008799E+02  0.19556838320E+04  0.19559051482E+04  0.00000000000E+00 0. -1.
         -2    1    1    2    0  502 -0.22450243065E+02 -0.19018008799E+02  0.18625647611E+03  0.18856609708E+03  0.00000000000E+00 0. -1.
</event>
<event>
 4    1  0.6491484E+003  0.2370487E+02  0.7546771E-02  0.1483832E+00
          2   -1    0    0  501    0  0.00000000000E+00  0.00000000000E+00  0.46195783724E+03  0.46195783724E+03  0.00000000000E+00 0. -1.
         -2   -1    0    0    0  501 -0.00000000000E+00 -0.00000000000E+00 -0.60647038880E+03  0.60647038880E+03  0.00000000000E+00 0.  1.
          2    1    1    2  502    0  0.17283239740E+01  0.23641775194E+02  0.46142183534E+03  0.46203033533E+03  0.00000000000E+00 0. -1.
         -2    1    1    2    0  502 -0.17283239740E+01 -0.23641775194E+02 -0.60593438689E+03  0.60639789071E+03  0.00000000000E+00 0.  1.
</event>
<event>
 4    1  0.5792100E+003  0.3069157E+02  0.7546771E-02  0.1413680E+00
          2   -1    0    0  501    0  0.00000000000E+00  0.00000000000E+00  0.75165540662E+02  0.75165540662E+02  0.00000000000E+00 0.  1.
         -2   -1    0    0    0  501 -0.00000000000E+00 -0.00000000000E+00 -0.17981289807E+02  0.17981289807E+02  0.00000000000E+00 0. -1.
          2    1    1    2  502    0  0.21787917758E+02 -0.21616177436E+02  0.54230985663E+02  0.62313500087E+02  0.00000000000E+00 0.  1.
         -2    1    1    2    0  502 -0.21787917758E+02  0.21616177436E+02  0.29532651924E+01  0.30833330382E+02  0.00000000000E+00 0. -1.
</event>
<event>
 4    1  0.5792100E+003  0.2442206E+02  0.7546771E-02  0.1475374E+00
          2   -1    0    0  501    0  0.00000000000E+00  0.00000000000E+00  0.88395400268E+03  0.88395400268E+03  0.00000000000E+00 0. -1.
         -2   -1    0    0    0  501 -0.00000000000E+00 -0.00000000000E+00 -0.70100722515E+01  0.70100722515E+01  0.00000000000E+00 0. -1.
          2    1    1    2  502    0  0.22324706893E+02 -0.99017526469E+01  0.86197226407E+03  0.86231816708E+03  0.00000000000E+00 0. -1.
         -2    1    1    2    0  502 -0.22324706893E+02  0.99017526469E+01  0.14971666359E+02  0.28645907856E+02  0.00000000000E+00 0. -1.
</event>
<event>
 4    1  0.5792100E+003  0.3899584E+02  0.7546771E-02  0.1354473E+00
          2   -1    0    0  501    0  0.00000000000E+00  0.00000000000E+00  0.16882387141E+04  0.16882387141E+04  0.00000000000E+00 0. -1.
         -2   -1    0    0    0  501 -0.00000000000E+00 -0.00000000000E+00 -0.38074215471E+02  0.38074215471E+02  0.00000000000E+00 0. -1.
          2    1    1    2  502    0 -0.34218853606E+02 -0.18701491022E+02  0.16779674710E+04  0.16784205401E+04  0.00000000000E+00 0. -1.
         -2    1    1    2    0  502  0.34218853606E+02  0.18701491022E+02 -0.27802972289E+02  0.47892389548E+02  0.00000000000E+00 0. -1.
</event>
<event>
 4    1  0.5792100E+003  0.2649508E+02  0.7546771E-02  0.1452747E+00
          2   -1    0    0  501    0  0.00000000000E+00  0.00000000000E+00  0.49504221662E+02  0.49504221662E+02  0.00000000000E+00 0.  1.
         -2   -1    0    0    0  501 -0.00000000000E+00 -0.00000000000E+00 -0.41600895695E+02  0.41600895695E+02  0.00000000000E+00 0. -1.
          2    1    1    2  502    0  0.19015375057E+02 -0.18450055060E+02  0.40934411934E+02  0.48760794709E+02  0.00000000000E+00 0.  1.
         -2    1    1    2    0  502 -0.19015375057E+02  0.18450055060E+02 -0.33031085968E+02  0.42344322648E+02  0.00000000000E+00 0. -1.
</event>
<event>
 4    1  0.5792100E+003  0.2493289E+02  0.7546771E-02  0.1469556E+00
          2   -1    0    0  501    0  0.00000000000E+00  0.00000000000E+00  0.34110677276E+02  0.34110677276E+02  0.00000000000E+00 0. -1.
         -2   -1    0    0    0  501 -0.00000000000E+00 -0.00000000000E+00 -0.77391318222E+02  0.77391318222E+02  0.00000000000E+00 0. -1.
          2    1    1    2  502    0  0.11530182751E+02  0.22106650981E+02  0.27106436377E+02  0.36829445080E+02  0.00000000000E+00 0. -1.
         -2    1    1    2    0  502 -0.11530182751E+02 -0.22106650981E+02 -0.70387077323E+02  0.74672550418E+02  0.00000000000E+00 0. -1.
</event>
<event>
 4    1  0.5792100E+003  0.2568197E+02  0.7546771E-02  0.1461317E+00
          2   -1    0    0  501    0  0.00000000000E+00  0.00000000000E+00  0.50539616237E+03  0.50539616237E+03  0.00000000000E+00 0. -1.
         -2   -1    0    0    0  501 -0.00000000000E+00 -0.00000000000E+00 -0.38855995599E+01  0.38855995599E+01  0.00000000000E+00 0. -1.
          2    1    1    2  502    0 -0.75369401894E+01 -0.24551137888E+02  0.45827328441E+03  0.45899233876E+03  0.00000000000E+00 0. -1.
         -2    1    1    2    0  502  0.75369401894E+01  0.24551137888E+02  0.43237278399E+02  0.50289423166E+02  0.00000000000E+00 0. -1.
</event>
<event>
 4    1  0.5792100E+003  0.2426718E+02  0.7546771E-02  0.1477171E+00
          2   -1    0    0  501    0  0.00000000000E+00  0.00000000000E+00  0.14865021539E+04  0.14865021539E+04  0.00000000000E+00 0. -1.
         -2   -1    0    0    0  501 -0.00000000000E+00 -0.00000000000E+00 -0.33284284134E+01  0.33284284134E+01  0.00000000000E+00 0. -1.
          2    1    1    2  502    0  0.22585683267E+02  0.88759851181E+01  0.14407668119E+04  0.14409711664E+04  0.00000000000E+00 0. -1.
         -2    1    1    2    0  502 -0.22585683267E+02 -0.88759851181E+01  0.42406913556E+02  0.48859415857E+02  0.00000000000E+00 0. -1.
</event>
<event>
 4    1  0.5792100E+003  0.2659676E+02  0.7546771E-02  0.1451701E+00
          2   -1    0    0  501    0  0.00000000000E+00  0.00000000000E+00  0.17331352570E+03  0.17331352570E+03  0.00000000000E+00 0. -1.
         -2   -1    0    0    0  501 -0.00000000000E+00 -0.00000000000E+00 -0.16289741125E+03  0.16289741125E+03  0.00000000000E+00 0. -1.
          2    1    1    2  502    0  0.25867056400E+02 -0.61873240706E+01  0.17119414499E+03  0.17324786540E+03  0.00000000000E+00 0. -1.
         -2    1    1    2    0  502 -0.25867056400E+02  0.61873240706E+01 -0.16077803054E+03  0.16296307155E+03  0.00000000000E+00 0. -1.
</event>
<event>
 4    1  0.5792100E+003  0.3953880E+02  0.7546771E-02  0.1351210E+00
          2   -1    0    0  501    0  0.00000000000E+00  0.00000000000E+00  0.10351459755E+04  0.10351459755E+04  0.00000000000E+00 0.  1.
         -2   -1    0    0    0  501 -0.00000000000E+00 -0.00000000000E+00 -0.43065232652E+02  0.43065232652E+02  0.00000000000E+00 0.  1.
          2    1    1    2  502    0  0.29392236877E+02 -0.26446412519E+02  0.10256087750E+04  0.10263706327E+04  0.00000000000E+00 0.  1.
         -2    1    1    2    0  502 -0.29392236877E+02  0.26446412519E+02 -0.33528032145E+02  0.51840575453E+02  0.00000000000E+00 0.  1.
</event>
<event>
 4    1  0.5792100E+003  0.3443339E+02  0.7546771E-02  0.1384591E+00
          2   -1    0    0  501    0  0.00000000000E+00  0.00000000000E+00  0.23159449786E+02  0.23159449786E+02  0.00000000000E+00 0. -1.
         -2   -1    0    0    0  501 -0.00000000000E+00 -0.00000000000E+00 -0.51453897708E+02  0.51453897708E+02  0.00000000000E+00 0.  1.
          2    1    1    2  502    0  0.25100835477E+02  0.23571307861E+02 -0.11503219429E+02  0.36304029434E+02  0.00000000000E+00 0. -1.
         -2    1    1    2    0  502 -0.25100835477E+02 -0.23571307861E+02 -0.16791228493E+02  0.38309318060E+02  0.00000000000E+00 0.  1.
</event>
<event>
 4    1  0.5792100E+003  0.3461926E+02  0.7546771E-02  0.1383260E+00
          2   -1    0    0  501    0  0.00000000000E+00  0.00000000000E+00  0.37674632761E+02  0.37674632761E+02  0.00000000000E+00 0.  1.
         -2   -1    0    0    0  501 -0.00000000000E+00 -0.00000000000E+00 -0.77779919907E+02  0.77779919907E+02  0.00000000000E+00 0. -1.
          2    1    1    2  502    0  0.29937036693E+02  0.17385832337E+02  0.24326228777E+02  0.42311449261E+02  0.00000000000E+00 0.  1.
         -2    1    1    2    0  502 -0.29937036693E+02 -0.17385832337E+02 -0.64431515923E+02  0.73143103408E+02  0.00000000000E+00 0. -1.
</event>
<event>
 4    1  0.5792100E+003  0.4117388E+02  0.7546771E-02  0.1341741E+00
          2   -1    0    0  501    0  0.00000000000E+00  0.00000000000E+00  0.15854111813E+04  0.15854111813E+04  0.00000000000E+00 0. -1.
         -2   -1    0    0    0  501 -0.00000000000E+00 -0.00000000000E+00 -0.19048716255E+02  0.19048716255E+02  0.00000000000E+00 0. -1.
          2    1    1    2  502    0 -0.23790132514E+02  0.33605329932E+02  0.15625692850E+04  0.15631116591E+04  0.00000000000E+00 0. -1.
         -2    1    1    2    0  502  0.23790132514E+02 -0.33605329932E+02  0.37931800722E+01  0.41348238414E+02  0.00000000000E+00 0. -1.
</event>
<event>
 4    1  0.5792100E+003  0.3459007E+02  0.7546771E-02  0.1383468E+00
          2   -1    0    0  501    0  0.00000000000E+00  0.00000000000E+00  0.68757524670E+03  0.68757524670E+03  0.00000000000E+00 0.  1.
         -2   -1    0    0    0  501 -0.00000000000E+00 -0.00000000000E+00 -0.23830028983E+01  0.23830028983E+01  0.00000000000E+00 0.  1.
          2    1    1    2  502    0  0.12604088325E+02  0.32211950900E+02  0.52177708098E+03  0.52292236045E+03  0.00000000000E+00 0.  1.
         -2    1    1    2    0  502 -0.12604088325E+02 -0.32211950900E+02  0.16341516282E+03  0.16703588915E+03  0.00000000000E+00 0.  1.
</event>
<event>
 4    1  0.5792100E+003  0.2203730E+02  0.7546771E-02  0.1504954E+00
          2   -1    0    0  501    0  0.00000000000E+00  0.00000000000E+00  0.18803729426E+02  0.18803729426E+02  0.00000000000E+00 0.  1.
         -2   -1    0    0    0  501 -0.00000000000E+00 -0.00000000000E+00 -0.19859700697E+03  0.19859700697E+03  0.00000000000E+00 0.  1.
          2    1    1    2  502    0 -0.19371788045E+02 -0.10506020100E+02  0.11489580237E+02  0.24852627314E+02  0.00000000000E+00 0.  1.
         -2    1    1    2    0  502  0.19371788045E+02  0.10506020100E+02 -0.19128285778E+03  0.19254810908E+03  0.00000000000E+00 0.  1.
</event>
<event>
 4    1  0.5792100E+003  0.3609320E+02  0.7546771E-02  0.1373036E+00
          2   -1    0    0  501    0  0.00000000000E+00  0.00000000000E+00  0.78779221302E+01  0.78779221302E+01  0.00000000000E+00 0. -1.
         -2   -1    0    0    0  501 -0.00000000000E+00 -0.00000000000E+00 -0.53348285864E+03  0.53348285864E+03  0.00000000000E+00 0.  1.
          2    1    1    2  502    0  0.15299365763E+02  0.32690191979E+02 -0.37953446523E+02  0.52375407849E+02  0.00000000000E+00 0. -1.
         -2    1    1    2    0  502 -0.15299365763E+02 -0.32690191979E+02 -0.48765148999E+03  0.48898537292E+03  0.00000000000E+00 0.  1.
</event>
<event>
 4    1  0.5792100E+003  0.2608965E+02  0.7546771E-02  0.1456973E+00
          2   -1    0    0  501    0  0.00000000000E+00  0.00000000000E+00  0.12917772832E+02  0.12917772832E+02  0.00000000000E+00 0.  1.
         -2   -1    0    0    0  501 -0.00000000000E+00 -0.00000000000E+00 -0.64768435657E+02  0.64768435657E+02  0.00000000000E+00 0. -1.
          2    1    1    2  502    0  0.15475461942E+02  0.21004282622E+02 -0.91530349609E+01  0.27648650235E+02  0.00000000000E+00 0.  1.
         -2    1    1    2    0  502 -0.15475461942E+02 -0.21004282622E+02 -0.42697627865E+02  0.50037558255E+02  0.00000000000E+00 0. -1.
</event>
<event>
 4    1  0.5792100E+003  0.2312814E+02  0.7546771E-02  0.1490895E+00
          2   -1    0    0  501    0  0.00000000000E+00  0.00000000000E+00  0.16018162388E+03  0.16018162388E+03  0.00000000000E+00 0. -1.
         -2   -1    0    0    0  501 -0.00000000000E+00 -0.00000000000E+00 -0.10436295677E+02  0.10436295677E+02  0.00000000000E+00 0.  1.
          2    1    1    2  502    0  0.18083143236E+02 -0.14419116570E+02  0.14522128345E+03  0.14705146092E+03  0.00000000000E+00 0. -1.
         -2    1    1    2    0  502 -0.18083143236E+02  0.14419116570E+02  0.45240447592E+01  0.23566458642E+02  0.00000000000E+00 0.  1.
</event>
<event>
 4    1  0.5792100E+003  0.2846580E+02  0.7546771E-02  0.1433415E+00
          2   -1    0    0  501    0  0.00000000000E+00  0.00000000000E+00  0.11666362385E+02  0.11666362385E+02  0.00000000000E+00 0. -1.
         -2   -1    0    0    0  501 -0.00000000000E+00 -0.00000000000E+00 -0.20046386840E+03  0.20046386840E+03  0.00000000000E+00 0.  1.
          2    1    1    2  502    0 -0.25697210393E+02 -0.12245618175E+02 -0.86549403849E+01  0.29752475184E+02  0.00000000000E+00 0. -1.
         -2    1    1    2    0  502  0.25697210393E+02  0.12245618175E+02 -0.18014256563E+03  0.18237775560E+03  0.00000000000E+00 0.  1.
</event>
<event>
 4    1  0.5792100E+003  0.2211365E+02  0.7546771E-02  0.1503938E+00
          2   -1    0    0  501    0  0.00000000000E+00  0.00000000000E+00  0.67603901136E+03  0.67603901136E+03  0.00000000000E+00 0.  1.
         -2   -1    0    0    0  501 -0.00000000000E+00 -0.00000000000E+00 -0.36360054251E+01  0.36360054251E+01  0.00000000000E+00 0.  1.
          2    1    1    2  502    0 -0.10357811567E+02 -0.19537895591E+02  0.64036249468E+03  0.64074420655E+03  0.00000000000E+00 0.  1.
         -2    1    1    2    0  502  0.10357811567E+02  0.19537895591E+02  0.32040511247E+02  0.38930810235E+02  0.00000000000E+00 0.  1.
</event>
<event>
 4    1  0.5792100E+003  0.2131601E+02  0.7546771E-02  0.1514801E+00
          2   -1    0    0  501    0  0.00000000000E+00  0.00000000000E+00  0.43123623895E+01  0.43123623895E+01  0.00000000000E+00 0.  1.
         -2   -1    0    0    0  501 -0.00000000000E+00 -0.00000000000E+00 -0.14054037070E+03  0.14054037070E+03  0.00000000000E+00 0.  1.
          2    1    1    2  502    0 -0.21073615194E+02  0.32054856672E+01 -0.31880109584E+02  0.38349886347E+02  0.00000000000E+00 0.  1.
         -2    1    1    2    0  502  0.21073615194E+02 -0.32054856672E+01 -0.10434789873E+03  0.10650284675E+03  0.00000000000E+00 0.  1.
</event>
<event>
 4    1  0.5792100E+003  0.2213304E+02  0.7546771E-02  0.1503681E+00
          2   -1    0    0  501    0  0.00000000000E+00  0.00000000000E+00  0.19359694518E+03  0.19359694518E+03  0.00000000000E+00 0.  1.
         -2   -1    0    0    0  501 -0.00000000000E+00 -0.00000000000E+00 -0.31300492362E+02  0.31300492362E+02  0.00000000000E+00 0. -1.
          2    1    1    2  502    0  0.20232984261E+02  0.89720666662E+01  0.18895592918E+03  0.19024777214E+03  0.00000000000E+00 0.  1.
         -2    1    1    2    0  502 -0.20232984261E+02 -0.89720666662E+01 -0.26659476363E+02  0.34649665400E+02  0.00000000000E+00 0. -1.
</event>
<event>
 4    1  0.5792100E+003  0.3956800E+02  0.7546771E-02  0.1351036E+00
          2   -1    0    0  501    0  0.00000000000E+00  0.00000000000E+00  0.55515947786E+03  0.55515947786E+03  0.00000000000E+00 0. -1.
         -2   -1    0    0    0  501 -0.00000000000E+00 -0.00000000000E+00 -0.95950436327E+01  0.95950436327E+01  0.00000000000E+00 0.  1.
          2    1    1    2  502    0 -0.39159221258E+02 -0.56729218857E+01  0.51006042363E+03  0.51159286782E+03  0.00000000000E+00 0. -1.
         -2    1    1    2    0  502  0.39159221258E+02  0.56729218857E+01  0.35504010590E+02  0.53161653663E+02  0.00000000000E+00 0.  1.
</event>
<event>
 4    1  0.5792100E+003  0.2578254E+02  0.7546771E-02  0.1460236E+00
          2   -1    0    0  501    0  0.00000000000E+00  0.00000000000E+00  0.47729106310E+03  0.47729106310E+03  0.00000000000E+00 0.  1.
         -2   -1    0    0    0  501 -0.00000000000E+00 -0.00000000000E+00 -0.49829649246E+01  0.49829649246E+01  0.00000000000E+00 0. -1.
          2    1    1    2  502    0  0.23842832440E+02 -0.98111447099E+01  0.44083677392E+03  0.44159008193E+03  0.00000000000E+00 0.  1.
         -2    1    1    2    0  502 -0.23842832440E+02  0.98111447099E+01  0.31471324250E+02  0.40683946088E+02  0.00000000000E+00 0. -1.
</event>
<event>
 4    1  0.5792100E+003  0.2273309E+02  0.7546771E-02  0.1495877E+00
          2   -1    0    0  501    0  0.00000000000E+00  0.00000000000E+00  0.10791967578E+04  0.10791967578E+04  0.00000000000E+00 0. -1.
         -2   -1    0    0    0  501 -0.00000000000E+00 -0.00000000000E+00 -0.43679322246E+01  0.43679322246E+01  0.00000000000E+00 0.  1.
          2    1    1    2  502    0  0.85007860419E+01 -0.21083881982E+02  0.10486362857E+04  0.10488826689E+04  0.00000000000E+00 0. -1.
         -2    1    1    2    0  502 -0.85007860419E+01  0.21083881982E+02  0.26192539815E+02  0.34682021059E+02  0.00000000000E+00 0.  1.
</event>
<event>
 4    1  0.5792100E+003  0.2631840E+02  0.7546771E-02  0.1454578E+00
          2   -1    0    0  501    0  0.00000000000E+00  0.00000000000E+00  0.15981049431E+04  0.15981049431E+04  0.00000000000E+00 0. -1.
         -2   -1    0    0    0  501 -0.00000000000E+00 -0.00000000000E+00 -0.66940508251E+00  0.66940508251E+00  0.00000000000E+00 0. -1.
          2    1    1    2  502    0  0.24594814080E+01 -0.26203226723E+02  0.12733427937E+04  0.12736147488E+04  0.00000000000E+00 0. -1.
         -2    1    1    2    0  502 -0.24594814080E+01  0.26203226723E+02  0.32409274430E+03  0.32515959935E+03  0.00000000000E+00 0. -1.
</event>
<event>
 4    1  0.5792100E+003  0.2192367E+02  0.7546771E-02  0.1506475E+00
          2   -1    0    0  501    0  0.00000000000E+00  0.00000000000E+00  0.14063750036E+02  0.14063750036E+02  0.00000000000E+00 0.  1.
         -2   -1    0    0    0  501 -0.00000000000E+00 -0.00000000000E+00 -0.38494447713E+02  0.38494447713E+02  0.00000000000E+00 0.  1.
          2    1    1    2  502    0  0.16155175451E+02  0.14820846791E+02 -0.34137967285E+01  0.22187861581E+02  0.00000000000E+00 0.  1.
         -2    1    1    2    0  502 -0.16155175451E+02 -0.14820846791E+02 -0.21016900948E+02  0.30370336168E+02  0.00000000000E+00 0.  1.
</event>
<event>
 4    1  0.5792100E+003  0.2703558E+02  0.7546771E-02  0.1447251E+00
          2   -1    0    0  501    0  0.00000000000E+00  0.00000000000E+00  0.37270542052E+03  0.37270542052E+03  0.00000000000E+00 0. -1.
         -2   -1    0    0    0  501 -0.00000000000E+00 -0.00000000000E+00 -0.32181103076E+02  0.32181103076E+02  0.00000000000E+00 0.  1.
          2    1    1    2  502    0 -0.50569414686E+01 -0.26558422033E+02  0.36643998829E+03  0.36743596375E+03  0.00000000000E+00 0. -1.
         -2    1    1    2    0  502  0.50569414686E+01  0.26558422033E+02 -0.25915670843E+02  0.37450559851E+02  0.00000000000E+00 0.  1.
</event>
<event>
 4    1  0.5792100E+003  0.2047553E+02  0.7546771E-02  0.1526886E+00
          2   -1    0    0  501    0  0.00000000000E+00  0.00000000000E+00  0.93856730311E+03  0.93856730311E+03  0.00000000000E+00 0.  1.
         -2   -1    0    0    0  501 -0.00000000000E+00 -0.00000000000E+00 -0.47593228115E+02  0.47593228115E+02  0.00000000000E+00 0. -1.
          2    1    1    2  502    0  0.56327028127E+01  0.19685523308E+02  0.93624793432E+03  0.93647180507E+03  0.00000000000E+00 0.  1.
         -2    1    1    2    0  502 -0.56327028127E+01 -0.19685523308E+02 -0.45273859325E+02  0.49688726157E+02  0.00000000000E+00 0. -1.
</event>
<event>
 4    1  0.5792100E+003  0.2857642E+02  0.7546771E-02  0.1432384E+00
          2   -1    0    0  501    0  0.00000000000E+00  0.00000000000E+00  0.38136706084E+03  0.38136706084E+03  0.00000000000E+00 0. -1.
         -2   -1    0    0    0  501 -0.00000000000E+00 -0.00000000000E+00 -0.76902198163E+02  0.76902198163E+02  0.00000000000E+00 0.  1.
          2    1    1    2  502    0  0.14092034456E+01 -0.28541655820E+02  0.37815451195E+03  0.37923270808E+03  0.00000000000E+00 0. -1.
         -2    1    1    2    0  502 -0.14092034456E+01  0.28541655820E+02 -0.73689649274E+02  0.79036550920E+02  0.00000000000E+00 0.  1.
</event>
<event>
 4    1  0.5792100E+003  0.2222466E+02  0.7546771E-02  0.1502471E+00
          2   -1    0    0  501    0  0.00000000000E+00  0.00000000000E+00  0.19921001270E+03  0.19921001270E+03  0.00000000000E+00 0. -1.
         -2   -1    0    0    0  501 -0.00000000000E+00 -0.00000000000E+00 -0.89940082938E+01  0.89940082938E+01  0.00000000000E+00 0.  1.
          2    1    1    2  502    0 -0.22224606987E+02 -0.48283411112E-01  0.18370607114E+03  0.18504555131E+03  0.00000000000E+00 0. -1.
         -2    1    1    2    0  502  0.22224606987E+02  0.48283411112E-01  0.65099332725E+01  0.23158469687E+02  0.00000000000E+00 0.  1.
</event>
<event>
 4    1  0.5792100E+003  0.2132192E+02  0.7546771E-02  0.1514718E+00
          2   -1    0    0  501    0  0.00000000000E+00  0.00000000000E+00  0.12649629568E+04  0.12649629568E+04  0.00000000000E+00 0.  1.
         -2   -1    0    0    0  501 -0.00000000000E+00 -0.00000000000E+00 -0.19676437081E+01  0.19676437081E+01  0.00000000000E+00 0.  1.
          2    1    1    2  502    0 -0.21139870592E+02 -0.27803022180E+01  0.12041959663E+04  0.12043847182E+04  0.00000000000E+00 0.  1.
         -2    1    1    2    0  502  0.21139870592E+02  0.27803022180E+01  0.58799346796E+02  0.62545882300E+02  0.00000000000E+00 0.  1.
</event>
<event>
 4    1  0.5792100E+003  0.2672609E+02  0.7546771E-02  0.1450379E+00
          2   -1    0    0  501    0  0.00000000000E+00  0.00000000000E+00  0.17731037824E+03  0.17731037824E+03  0.00000000000E+00 0. -1.
         -2   -1    0    0    0  501 -0.00000000000E+00 -0.00000000000E+00 -0.77761868530E+02  0.77761868530E+02  0.00000000000E+00 0. -1.
          2    1    1    2  502    0 -0.11654446428E+02  0.24051143477E+02  0.17396295811E+03  0.17600396137E+03  0.00000000000E+00 0. -1.
         -2    1    1    2    0  502  0.11654446428E+02 -0.24051143477E+02 -0.74414448403E+02  0.79068285395E+02  0.00000000000E+00 0. -1.
</event>
<event>
 4    1  0.5792100E+003  0.2350420E+02  0.7546771E-02  0.1486262E+00
          2   -1    0    0  501    0  0.00000000000E+00  0.00000000000E+00  0.14971675242E+04  0.14971675242E+04  0.00000000000E+00 0.  1.
         -2   -1    0    0    0  501 -0.00000000000E+00 -0.00000000000E+00 -0.11227330783E+01  0.11227330783E+01  0.00000000000E+00 0.  1.
          2    1    1    2  502    0 -0.14576550707E+02  0.18438313091E+02  0.13618380355E+04  0.13620408519E+04  0.00000000000E+00 0.  1.
         -2    1    1    2    0  502  0.14576550707E+02 -0.18438313091E+02  0.13420675556E+03  0.13624940535E+03  0.00000000000E+00 0.  1.
</event>
<event>
 4    1  0.5792100E+003  0.2654985E+02  0.7546771E-02  0.1452183E+00
          2   -1    0    0  501    0  0.00000000000E+00  0.00000000000E+00  0.93552108079E+02  0.93552108079E+02  0.00000000000E+00 0.  1.
         -2   -1    0    0    0  501 -0.00000000000E+00 -0.00000000000E+00 -0.90008683413E+01  0.90008683413E+01  0.00000000000E+00 0.  1.
          2    1    1    2  502    0  0.15024022446E+02  0.21890031345E+02  0.62970164310E+02  0.68338395620E+02  0.00000000000E+00 0.  1.
         -2    1    1    2    0  502 -0.15024022446E+02 -0.21890031345E+02  0.21581075428E+02  0.34214580800E+02  0.00000000000E+00 0.  1.
</event>
<event>
 4    1  0.5792100E+003  0.2472277E+02  0.7546771E-02  0.1471929E+00
          2   -1    0    0  501    0  0.00000000000E+00  0.00000000000E+00  0.24716411112E+03  0.24716411112E+03  0.00000000000E+00 0.  1.
         -2   -1    0    0    0  501 -0.00000000000E+00 -0.00000000000E+00 -0.36184574525E+01  0.36184574525E+01  0.00000000000E+00 0.  1.
          2    1    1    2  502    0  0.13058797252E+02  0.20992457345E+02  0.19232518042E+03  0.19390768544E+03  0.00000000000E+00 0.  1.
         -2    1    1    2    0  502 -0.13058797252E+02 -0.20992457345E+02  0.51220473248E+02  0.56874883128E+02  0.00000000000E+00 0.  1.
</event>
<event>
 4    1  0.5792100E+003  0.2099790E+02  0.7546771E-02  0.1519295E+00
          2   -1    0    0  501    0  0.00000000000E+00  0.00000000000E+00  0.84511646437E+03  0.84511646437E+03  0.00000000000E+00 0. -1.
         -2   -1    0    0    0  501 -0.00000000000E+00 -0.00000000000E+00 -0.12035246950E+03  0.12035246950E+03  0.00000000000E+00 0.  1.
          2    1    1    2  502    0 -0.16226945111E+02  0.13326595008E+02  0.84406902240E+03  0.84433016436E+03  0.00000000000E+00 0. -1.
         -2    1    1    2    0  502  0.16226945111E+02 -0.13326595008E+02 -0.11930502753E+03  0.12113876950E+03  0.00000000000E+00 0.  1.
</event>
<event>
 4    1  0.5792100E+003  0.5605760E+02  0.7546771E-02  0.1273850E+00
          2   -1    0    0  501    0  0.00000000000E+00  0.00000000000E+00  0.20985497826E+03  0.20985497826E+03  0.00000000000E+00 0. -1.
         -2   -1    0    0    0  501 -0.00000000000E+00 -0.00000000000E+00 -0.35563278828E+02  0.35563278828E+02  0.00000000000E+00 0. -1.
          2    1    1    2  502    0  0.51797296580E+02 -0.21435829936E+02  0.18051259184E+03  0.18901653512E+03  0.00000000000E+00 0. -1.
         -2    1    1    2    0  502 -0.51797296580E+02  0.21435829936E+02 -0.62208924079E+01  0.56401721963E+02  0.00000000000E+00 0. -1.
</event>
<event>
 4    1  0.5792100E+003  0.3360363E+02  0.7546771E-02  0.1390655E+00
          2   -1    0    0  501    0  0.00000000000E+00  0.00000000000E+00  0.10897535622E+04  0.10897535622E+04  0.00000000000E+00 0.  1.
         -2   -1    0    0    0  501 -0.00000000000E+00 -0.00000000000E+00 -0.27369417546E+02  0.27369417546E+02  0.00000000000E+00 0.  1.
          2    1    1    2  502    0 -0.25639838207E+02 -0.21721013882E+02  0.10790780272E+04  0.10796011266E+04  0.00000000000E+00 0.  1.
         -2    1    1    2    0  502  0.25639838207E+02  0.21721013882E+02 -0.16693882569E+02  0.37521853134E+02  0.00000000000E+00 0.  1.
</event>
<event>
 4    1  0.5792100E+003  0.2436939E+02  0.7546771E-02  0.1475983E+00
          2   -1    0    0  501    0  0.00000000000E+00  0.00000000000E+00  0.71651299134E+03  0.71651299134E+03  0.00000000000E+00 0. -1.
         -2   -1    0    0    0  501 -0.00000000000E+00 -0.00000000000E+00 -0.80595916594E+02  0.80595916594E+02  0.00000000000E+00 0. -1.
          2    1    1    2  502    0 -0.23386050333E+02  0.68527408389E+01  0.71445837409E+03  0.71487386000E+03  0.00000000000E+00 0. -1.
         -2    1    1    2    0  502  0.23386050333E+02 -0.68527408389E+01 -0.78541299340E+02  0.82235047937E+02  0.00000000000E+00 0. -1.
</event>
<event>
 4    1  0.5792100E+003  0.2037440E+02  0.7546771E-02  0.1528387E+00
          2   -1    0    0  501    0  0.00000000000E+00  0.00000000000E+00  0.79262976625E+03  0.79262976625E+03  0.00000000000E+00 0. -1.
         -2   -1    0    0    0  501 -0.00000000000E+00 -0.00000000000E+00 -0.19345437130E+02  0.19345437130E+02  0.00000000000E+00 0.  1.
          2    1    1    2  502    0 -0.10422521866E+02 -0.17506777809E+02  0.78709660700E+03  0.78736026378E+03  0.00000000000E+00 0. -1.
         -2    1    1    2    0  502  0.10422521866E+02  0.17506777809E+02 -0.13812277879E+02  0.24614939600E+02  0.00000000000E+00 0.  1.
</event>
<event>
 4    1  0.5792100E+003  0.2391511E+02  0.7546771E-02  0.1481316E+00
          2   -1    0    0  501    0  0.00000000000E+00  0.00000000000E+00  0.66209681063E+03  0.66209681063E+03  0.00000000000E+00 0. -1.
         -2   -1    0    0    0  501 -0.00000000000E+00 -0.00000000000E+00 -0.24872329919E+01  0.24872329919E+01  0.00000000000E+00 0. -1.
          2    1    1    2  502    0  0.22379439241E+02 -0.84316889793E+01  0.59826266180E+03  0.59874046564E+03  0.00000000000E+00 0. -1.
         -2    1    1    2    0  502 -0.22379439241E+02  0.84316889793E+01  0.61346915835E+02  0.65843577988E+02  0.00000000000E+00 0. -1.
</event>
<event>
 4    1  0.5792100E+003  0.2054235E+02  0.7546771E-02  0.1525900E+00
          2   -1    0    0  501    0  0.00000000000E+00  0.00000000000E+00  0.14528682441E+04  0.14528682441E+04  0.00000000000E+00 0.  1.
         -2   -1    0    0    0  501 -0.00000000000E+00 -0.00000000000E+00 -0.21448272886E+01  0.21448272886E+01  0.00000000000E+00 0.  1.
          2    1    1    2  502    0  0.17278952408E+02 -0.11109725356E+02  0.14018177428E+04  0.14019682493E+04  0.00000000000E+00 0.  1.
         -2    1    1    2    0  502 -0.17278952408E+02  0.11109725356E+02  0.48905674085E+02  0.53044822099E+02  0.00000000000E+00 0.  1.
</event>
<event>
 4    1  0.5792100E+003  0.2486232E+02  0.7546771E-02  0.1470350E+00
          2   -1    0    0  501    0  0.00000000000E+00  0.00000000000E+00  0.39785067131E+02  0.39785067131E+02  0.00000000000E+00 0. -1.
         -2   -1    0    0    0  501 -0.00000000000E+00 -0.00000000000E+00 -0.27892290484E+02  0.27892290484E+02  0.00000000000E+00 0.  1.
          2    1    1    2  502    0 -0.17419619650E+02  0.17739550714E+02  0.28468045421E+02  0.37796354565E+02  0.00000000000E+00 0. -1.
         -2    1    1    2    0  502  0.17419619650E+02 -0.17739550714E+02 -0.16575268775E+02  0.29881003050E+02  0.00000000000E+00 0.  1.
</event>
<event>
 4    1  0.5792100E+003  0.2647579E+02  0.7546771E-02  0.1452946E+00
          2   -1    0    0  501    0  0.00000000000E+00  0.00000000000E+00  0.44804657910E+03  0.44804657910E+03  0.00000000000E+00 0. -1.
         -2   -1    0    0    0  501 -0.00000000000E+00 -0.00000000000E+00 -0.28813520932E+02  0.28813520932E+02  0.00000000000E+00 0. -1.
          2    1    1    2  502    0 -0.26475411442E+02 -0.14239014968E+00  0.44148318406E+03  0.44227634969E+03  0.00000000000E+00 0. -1.
         -2    1    1    2    0  502  0.26475411442E+02  0.14239014968E+00 -0.22250125889E+02  0.34583750347E+02  0.00000000000E+00 0. -1.
</event>
<event>
 4    1  0.5792100E+003  0.2512759E+02  0.7546771E-02  0.1467381E+00
          2   -1    0    0  501    0  0.00000000000E+00  0.00000000000E+00  0.10702316884E+04  0.10702316884E+04  0.00000000000E+00 0.  1.
         -2   -1    0    0    0  501 -0.00000000000E+00 -0.00000000000E+00 -0.35223833135E+01  0.35223833135E+01  0.00000000000E+00 0. -1.
          2    1    1    2  502    0  0.25066823946E+02  0.17464163126E+01  0.10232121184E+04  0.10235206080E+04  0.00000000000E+00 0.  1.
         -2    1    1    2    0  502 -0.25066823946E+02 -0.17464163126E+01  0.43497186644E+02  0.50233463734E+02  0.00000000000E+00 0. -1.
</event>
<event>
 4    1  0.5792100E+003  0.2714640E+02  0.7546771E-02  0.1446143E+00
          2   -1    0    0  501    0  0.00000000000E+00  0.00000000000E+00  0.93472503461E+03  0.93472503461E+03  0.00000000000E+00 0. -1.
         -2   -1    0    0    0  501 -0.00000000000E+00 -0.00000000000E+00 -0.68652970668E+02  0.68652970668E+02  0.00000000000E+00 0. -1.
          2    1    1    2  502    0  0.20706746588E+01 -0.27067313060E+02  0.93183609707E+03  0.93223142992E+03  0.00000000000E+00 0. -1.
         -2    1    1    2    0  502 -0.20706746588E+01  0.27067313060E+02 -0.65764033135E+02  0.71146575350E+02  0.00000000000E+00 0. -1.
</event>
<event>
 4    1  0.5792100E+003  0.2385363E+02  0.7546771E-02  0.1482048E+00
          2   -1    0    0  501    0  0.00000000000E+00  0.00000000000E+00  0.19103920521E+04  0.19103920521E+04  0.00000000000E+00 0. -1.
         -2   -1    0    0    0  501 -0.00000000000E+00 -0.00000000000E+00 -0.76720417745E+00  0.76720417745E+00  0.00000000000E+00 0.  1.
          2    1    1    2  502    0 -0.96857254251E+01  0.21798678878E+02  0.17022333989E+04  0.17024005228E+04  0.00000000000E+00 0. -1.
         -2    1    1    2    0  502  0.96857254251E+01 -0.21798678878E+02  0.20739144894E+03  0.20875873341E+03  0.00000000000E+00 0.  1.
</event>
<event>
 4    1  0.5792100E+003  0.2968066E+02  0.7546771E-02  0.1422392E+00
          2   -1    0    0  501    0  0.00000000000E+00  0.00000000000E+00  0.14533640422E+03  0.14533640422E+03  0.00000000000E+00 0. -1.
         -2   -1    0    0    0  501 -0.00000000000E+00 -0.00000000000E+00 -0.33665350887E+03  0.33665350887E+03  0.00000000000E+00 0. -1.
          2    1    1    2  502    0 -0.19016415976E+02 -0.22788540565E+02  0.14315701031E+03  0.14620147488E+03  0.00000000000E+00 0. -1.
         -2    1    1    2    0  502  0.19016415976E+02  0.22788540565E+02 -0.33447411495E+03  0.33578843820E+03  0.00000000000E+00 0. -1.
</event>
<event>
 4    1  0.5792100E+003  0.3413281E+02  0.7546771E-02  0.1386764E+00
          2   -1    0    0  501    0  0.00000000000E+00  0.00000000000E+00  0.28979080860E+03  0.28979080860E+03  0.00000000000E+00 0.  1.
         -2   -1    0    0    0  501 -0.00000000000E+00 -0.00000000000E+00 -0.44431961910E+01  0.44431961910E+01  0.00000000000E+00 0.  1.
          2    1    1    2  502    0 -0.33946296351E+02 -0.35633515155E+01  0.18806039469E+03  0.19113283486E+03  0.00000000000E+00 0.  1.
         -2    1    1    2    0  502  0.33946296351E+02  0.35633515155E+01  0.97287217721E+02  0.10310116993E+03  0.00000000000E+00 0.  1.
</event>
<event>
 4    1  0.5792100E+003  0.2171312E+02  0.7546771E-02  0.1509322E+00
          2   -1    0    0  501    0  0.00000000000E+00  0.00000000000E+00  0.14420403316E+02  0.14420403316E+02  0.00000000000E+00 0.  1.
         -2   -1    0    0    0  501 -0.00000000000E+00 -0.00000000000E+00 -0.20462004820E+03  0.20462004820E+03  0.00000000000E+00 0. -1.
          2    1    1    2  502    0 -0.19899451208E+02  0.86874375798E+01  0.52903410316E+01  0.22348320705E+02  0.00000000000E+00 0.  1.
         -2    1    1    2    0  502  0.19899451208E+02 -0.86874375798E+01 -0.19548998591E+03  0.19669213081E+03  0.00000000000E+00 0. -1.
</event>
<event>
 4    1  0.5792100E+003  0.2457276E+02  0.7546771E-02  0.1473640E+00
          2   -1    0    0  501    0  0.00000000000E+00  0.00000000000E+00  0.10844536740E+04  0.10844536740E+04  0.00000000000E+00 0.  1.
         -2   -1    0    0    0  501 -0.00000000000E+00 -0.00000000000E+00 -0.12120676950E+02  0.12120676950E+02  0.00000000000E+00 0.  1.
          2    1    1    2  502    0  0.17770770655E+02 -0.16971163096E+02  0.10717120730E+04  0.10719937445E+04  0.00000000000E+00 0.  1.
         -2    1    1    2    0  502 -0.17770770655E+02  0.16971163096E+02  0.62092396442E+00  0.24580606442E+02  0.00000000000E+00 0.  1.
</event>
<event>
 4    1  0.5792100E+003  0.2113455E+02  0.7546771E-02  0.1517352E+00
          2   -1    0    0  501    0  0.00000000000E+00  0.00000000000E+00  0.25500997748E+01  0.25500997748E+01  0.00000000000E+00 0.  1.
         -2   -1    0    0    0  501 -0.00000000000E+00 -0.00000000000E+00 -0.34558544517E+03  0.34558544517E+03  0.00000000000E+00 0.  1.
          2    1    1    2  502    0 -0.91785629168E+01  0.19037416678E+02 -0.49278337531E+02  0.53619248418E+02  0.00000000000E+00 0.  1.
         -2    1    1    2    0  502  0.91785629168E+01 -0.19037416678E+02 -0.29375700786E+03  0.29451629652E+03  0.00000000000E+00 0.  1.
</event>
<event>
 4    1  0.5792100E+003  0.2516422E+02  0.7546771E-02  0.1466975E+00
          2   -1    0    0  501    0  0.00000000000E+00  0.00000000000E+00  0.23124042599E+02  0.23124042599E+02  0.00000000000E+00 0. -1.
         -2   -1    0    0    0  501 -0.00000000000E+00 -0.00000000000E+00 -0.27593621169E+02  0.27593621169E+02  0.00000000000E+00 0. -1.
          2    1    1    2  502    0 -0.20990463106E+02 -0.13879431558E+02 -0.26673259271E-01  0.25164237983E+02  0.00000000000E+00 0. -1.
         -2    1    1    2    0  502  0.20990463106E+02  0.13879431558E+02 -0.44429053110E+01  0.25553425786E+02  0.00000000000E+00 0. -1.
</event>
<event>
 4    1  0.5792100E+003  0.2739510E+02  0.7546771E-02  0.1443679E+00
          2   -1    0    0  501    0  0.00000000000E+00  0.00000000000E+00  0.22556102931E+02  0.22556102931E+02  0.00000000000E+00 0.  1.
         -2   -1    0    0    0  501 -0.00000000000E+00 -0.00000000000E+00 -0.41001793136E+03  0.41001793136E+03  0.00000000000E+00 0. -1.
          2    1    1    2  502    0 -0.24750997974E+02 -0.11742219073E+02  0.13594807103E+02  0.30582844695E+02  0.00000000000E+00 0.  1.
         -2    1    1    2    0  502  0.24750997974E+02  0.11742219073E+02 -0.40105663553E+03  0.40199118960E+03  0.00000000000E+00 0. -1.
</event>
<event>
 4    1  0.5792100E+003  0.2991268E+02  0.7546771E-02  0.1420357E+00
          2   -1    0    0  501    0  0.00000000000E+00  0.00000000000E+00  0.12074022478E+03  0.12074022478E+03  0.00000000000E+00 0. -1.
         -2   -1    0    0    0  501 -0.00000000000E+00 -0.00000000000E+00 -0.41873230096E+03  0.41873230096E+03  0.00000000000E+00 0.  1.
          2    1    1    2  502    0 -0.57687150743E+01  0.29351153725E+02  0.11834268461E+03  0.12206457021E+03  0.00000000000E+00 0. -1.
         -2    1    1    2    0  502  0.57687150743E+01 -0.29351153725E+02 -0.41633476080E+03  0.41740795554E+03  0.00000000000E+00 0.  1.
</event>
<event>
 4    1  0.5792100E+003  0.2567202E+02  0.7546771E-02  0.1461424E+00
          2   -1    0    0  501    0  0.00000000000E+00  0.00000000000E+00  0.13191786502E+03  0.13191786502E+03  0.00000000000E+00 0.  1.
         -2   -1    0    0    0  501 -0.00000000000E+00 -0.00000000000E+00 -0.33404460449E+03  0.33404460449E+03  0.00000000000E+00 0.  1.
          2    1    1    2  502    0  0.11551724051E+02  0.22926196729E+02  0.13016908132E+03  0.13267645819E+03  0.00000000000E+00 0.  1.
         -2    1    1    2    0  502 -0.11551724051E+02 -0.22926196729E+02 -0.33229582080E+03  0.33328601132E+03  0.00000000000E+00 0.  1.
</event>
<event>
 4    1  0.6177031E+003  0.2125069E+02  0.7546771E-02  0.1515716E+00
          2   -1    0    0  501    0  0.00000000000E+00  0.00000000000E+00  0.78030681322E+03  0.78030681322E+03  0.00000000000E+00 0. -1.
         -2   -1    0    0    0  501 -0.00000000000E+00 -0.00000000000E+00 -0.42305759775E+03  0.42305759775E+03  0.00000000000E+00 0.  1.
          2    1    1    2  502    0  0.19368888546E+02 -0.87428725556E+01  0.77989512656E+03  0.78018459360E+03  0.00000000000E+00 0. -1.
         -2    1    1    2    0  502 -0.19368888546E+02  0.87428725556E+01 -0.42264591110E+03  0.42317981737E+03  0.00000000000E+00 0.  1.
</event>
<event>
 4    1  0.5792100E+003  0.6702180E+02  0.7546771E-02  0.1237676E+00
          2   -1    0    0  501    0  0.00000000000E+00  0.00000000000E+00  0.13839951447E+04  0.13839951447E+04  0.00000000000E+00 0.  1.
         -2   -1    0    0    0  501 -0.00000000000E+00 -0.00000000000E+00 -0.50968002319E+01  0.50968002319E+01  0.00000000000E+00 0. -1.
          2    1    1    2  502    0 -0.36571556290E+02  0.56164423678E+02  0.11080274020E+04  0.11100525415E+04  0.00000000000E+00 0.  1.
         -2    1    1    2    0  502  0.36571556290E+02 -0.56164423678E+02  0.27087094244E+03  0.27903940345E+03  0.00000000000E+00 0. -1.
</event>
<event>
 4    1  0.7937824E+003  0.3256140E+02  0.7546771E-02  0.1398569E+00
          2   -1    0    0  501    0  0.00000000000E+00  0.00000000000E+00  0.13498222905E+04  0.13498222905E+04  0.00000000000E+00 0. -1.
         -2   -1    0    0    0  501 -0.00000000000E+00 -0.00000000000E+00 -0.37143723653E+03  0.37143723653E+03  0.00000000000E+00 0.  1.
          2    1    1    2  502    0  0.28003951881E+02 -0.16613946488E+02  0.13489118320E+04  0.13493047747E+04  0.00000000000E+00 0. -1.
         -2    1    1    2    0  502 -0.28003951881E+02  0.16613946488E+02 -0.37052677803E+03  0.37195475233E+03  0.00000000000E+00 0.  1.
</event>
<event>
 4    1  0.5792100E+003  0.2271310E+02  0.7546771E-02  0.1496133E+00
          2   -1    0    0  501    0  0.00000000000E+00  0.00000000000E+00  0.14692993753E+04  0.14692993753E+04  0.00000000000E+00 0. -1.
         -2   -1    0    0    0  501 -0.00000000000E+00 -0.00000000000E+00 -0.55644725615E+00  0.55644725615E+00  0.00000000000E+00 0.  1.
          2    1    1    2  502    0  0.53254838637E+01 -0.22079949822E+02  0.11808156273E+04  0.11810340515E+04  0.00000000000E+00 0. -1.
         -2    1    1    2    0  502 -0.53254838637E+01  0.22079949822E+02  0.28792730075E+03  0.28882177113E+03  0.00000000000E+00 0.  1.
</event>
<event>
 4    1  0.5792100E+003  0.2009168E+02  0.7546771E-02  0.1532639E+00
          2   -1    0    0  501    0  0.00000000000E+00  0.00000000000E+00  0.43490969290E+03  0.43490969290E+03  0.00000000000E+00 0. -1.
         -2   -1    0    0    0  501 -0.00000000000E+00 -0.00000000000E+00 -0.10679805368E+02  0.10679805368E+02  0.00000000000E+00 0. -1.
          2    1    1    2  502    0  0.29314282012E+01  0.19876679601E+02  0.42500811228E+03  0.42548275072E+03  0.00000000000E+00 0. -1.
         -2    1    1    2    0  502 -0.29314282012E+01 -0.19876679601E+02 -0.77822473937E+00  0.20106747549E+02  0.00000000000E+00 0. -1.
</event>
<event>
 4    1  0.5792100E+003  0.3033728E+02  0.7546771E-02  0.1416688E+00
          2   -1    0    0  501    0  0.00000000000E+00  0.00000000000E+00  0.24375297213E+03  0.24375297213E+03  0.00000000000E+00 0.  1.
         -2   -1    0    0    0  501 -0.00000000000E+00 -0.00000000000E+00 -0.35867261932E+02  0.35867261932E+02  0.00000000000E+00 0.  1.
          2    1    1    2  502    0  0.35972905058E+01  0.30123250040E+02  0.23618947023E+03  0.23812983127E+03  0.00000000000E+00 0.  1.
         -2    1    1    2    0  502 -0.35972905058E+01 -0.30123250040E+02 -0.28303760034E+02  0.41490402794E+02  0.00000000000E+00 0.  1.
</event>
<event>
 4    1  0.5792100E+003  0.2435725E+02  0.7546771E-02  0.1476124E+00
          2   -1    0    0  501    0  0.00000000000E+00  0.00000000000E+00  0.72638044531E+01  0.72638044531E+01  0.00000000000E+00 0. -1.
         -2   -1    0    0    0  501 -0.00000000000E+00 -0.00000000000E+00 -0.12228024582E+03  0.12228024582E+03  0.00000000000E+00 0. -1.
          2    1    1    2  502    0  0.24315494948E+02 -0.14255595035E+01 -0.20183442029E+02  0.31633002491E+02  0.00000000000E+00 0. -1.
         -2    1    1    2    0  502 -0.24315494948E+02  0.14255595035E+01 -0.94832999341E+02  0.97911047785E+02  0.00000000000E+00 0. -1.
</event>
<event>
 4    1  0.5792100E+003  0.2057550E+02  0.7546771E-02  0.1525413E+00
          2   -1    0    0  501    0  0.00000000000E+00  0.00000000000E+00  0.44186466022E+03  0.44186466022E+03  0.00000000000E+00 0.  1.
         -2   -1    0    0    0  501 -0.00000000000E+00 -0.00000000000E+00 -0.16635789341E+02  0.16635789341E+02  0.00000000000E+00 0. -1.
          2    1    1    2  502    0 -0.20567225860E+02  0.58354373853E+00  0.43516518794E+03  0.43565134236E+03  0.00000000000E+00 0.  1.
         -2    1    1    2    0  502  0.20567225860E+02 -0.58354373853E+00 -0.99363170665E+01  0.22849107198E+02  0.00000000000E+00 0. -1.
</event>
<event>
 4    1  0.5792100E+003  0.2688339E+02  0.7546771E-02  0.1448783E+00
          2   -1    0    0  501    0  0.00000000000E+00  0.00000000000E+00  0.10694051965E+04  0.10694051965E+04  0.00000000000E+00 0.  1.
         -2   -1    0    0    0  501 -0.00000000000E+00 -0.00000000000E+00 -0.68315107785E+00  0.68315107785E+00  0.00000000000E+00 0.  1.
          2    1    1    2  502    0 -0.42015236221E+01  0.26553038876E+02  0.58981813784E+03  0.59043048059E+03  0.00000000000E+00 0.  1.
         -2    1    1    2    0  502  0.42015236221E+01 -0.26553038876E+02  0.47890390759E+03  0.47965786700E+03  0.00000000000E+00 0.  1.
</event>
<event>
 4    1  0.5792100E+003  0.2129649E+02  0.7546771E-02  0.1515074E+00
          2   -1    0    0  501    0  0.00000000000E+00  0.00000000000E+00  0.75816148481E+01  0.75816148481E+01  0.00000000000E+00 0.  1.
         -2   -1    0    0    0  501 -0.00000000000E+00 -0.00000000000E+00 -0.88371554995E+02  0.88371554995E+02  0.00000000000E+00 0.  1.
          2    1    1    2  502    0 -0.14718372933E+02 -0.15391878896E+02 -0.13125311422E+02  0.25016279453E+02  0.00000000000E+00 0.  1.
         -2    1    1    2    0  502  0.14718372933E+02  0.15391878896E+02 -0.67664628724E+02  0.70936890389E+02  0.00000000000E+00 0.  1.
</event>
<event>
 4    1  0.5792100E+003  0.2289146E+02  0.7546771E-02  0.1493866E+00
          2   -1    0    0  501    0  0.00000000000E+00  0.00000000000E+00  0.13710810783E+04  0.13710810783E+04  0.00000000000E+00 0. -1.
         -2   -1    0    0    0  501 -0.00000000000E+00 -0.00000000000E+00 -0.14181112521E+01  0.14181112521E+01  0.00000000000E+00 0. -1.
          2    1    1    2  502    0 -0.19832914481E+02 -0.11431289541E+02  0.12713604908E+04  0.12715665599E+04  0.00000000000E+00 0. -1.
         -2    1    1    2    0  502  0.19832914481E+02  0.11431289541E+02  0.98302476315E+02  0.10093262964E+03  0.00000000000E+00 0. -1.
</event>
<event>
 4    1  0.5792100E+003  0.2934954E+02  0.7546771E-02  0.1425334E+00
          2   -1    0    0  501    0  0.00000000000E+00  0.00000000000E+00  0.13782244983E+04  0.13782244983E+04  0.00000000000E+00 0. -1.
         -2   -1    0    0    0  501 -0.00000000000E+00 -0.00000000000E+00 -0.10827209518E+01  0.10827209518E+01  0.00000000000E+00 0. -1.
          2    1    1    2  502    0 -0.24189152751E+02 -0.16621685853E+02  0.11369768066E+04  0.11373555532E+04  0.00000000000E+00 0. -1.
         -2    1    1    2    0  502  0.24189152751E+02  0.16621685853E+02  0.24016497072E+03  0.24195166607E+03  0.00000000000E+00 0. -1.
</event>
<event>
 4    1  0.5792100E+003  0.2589538E+02  0.7546771E-02  0.1459031E+00
          2   -1    0    0  501    0  0.00000000000E+00  0.00000000000E+00  0.10274619869E+04  0.10274619869E+04  0.00000000000E+00 0.  1.
         -2   -1    0    0    0  501 -0.00000000000E+00 -0.00000000000E+00 -0.24109328940E+01  0.24109328940E+01  0.00000000000E+00 0. -1.
          2    1    1    2  502    0 -0.25152092544E+02  0.61597953339E+01  0.95227540242E+03  0.95262742606E+03  0.00000000000E+00 0.  1.
         -2    1    1    2    0  502  0.25152092544E+02 -0.61597953339E+01  0.72775651617E+02  0.77245493759E+02  0.00000000000E+00 0. -1.
</event>
<event>
 4    1  0.5792100E+003  0.2122904E+02  0.7546771E-02  0.1516020E+00
          2   -1    0    0  501    0  0.00000000000E+00  0.00000000000E+00  0.97870066400E+02  0.97870066400E+02  0.00000000000E+00 0.  1.
         -2   -1    0    0    0  501 -0.00000000000E+00 -0.00000000000E+00 -0.77804791350E+02  0.77804791350E+02  0.00000000000E+00 0.  1.
          2    1    1    2  502    0 -0.10836620955E+02 -0.18254861944E+02  0.95231137939E+02  0.97568652606E+02  0.00000000000E+00 0.  1.
         -2    1    1    2    0  502  0.10836620955E+02  0.18254861944E+02 -0.75165862888E+02  0.78106205144E+02  0.00000000000E+00 0.  1.
</event>
<event>
 4    1  0.5792100E+003  0.3594390E+02  0.7546771E-02  0.1374046E+00
          2   -1    0    0  501    0  0.00000000000E+00  0.00000000000E+00  0.51368422295E+03  0.51368422295E+03  0.00000000000E+00 0.  1.
         -2   -1    0    0    0  501 -0.00000000000E+00 -0.00000000000E+00 -0.22020041308E+03  0.22020041308E+03  0.00000000000E+00 0. -1.
          2    1    1    2  502    0 -0.26108542877E+02 -0.24704415346E+02  0.51158262630E+03  0.51284378487E+03  0.00000000000E+00 0.  1.
         -2    1    1    2    0  502  0.26108542877E+02  0.24704415346E+02 -0.21809881644E+03  0.22104085116E+03  0.00000000000E+00 0. -1.
</event>
<event>
 4    1  0.5792100E+003  0.2766689E+02  0.7546771E-02  0.1441022E+00
          2   -1    0    0  501    0  0.00000000000E+00  0.00000000000E+00  0.73927988954E+02  0.73927988954E+02  0.00000000000E+00 0.  1.
         -2   -1    0    0    0  501 -0.00000000000E+00 -0.00000000000E+00 -0.20960555198E+03  0.20960555198E+03  0.00000000000E+00 0. -1.
          2    1    1    2  502    0  0.69359543645E-01 -0.27666802635E+02  0.70382150593E+02  0.75624757195E+02  0.00000000000E+00 0.  1.
         -2    1    1    2    0  502 -0.69359543645E-01  0.27666802635E+02 -0.20605971362E+03  0.20790878374E+03  0.00000000000E+00 0. -1.
</event>
<event>
 4    1  0.5792100E+003  0.2406294E+02  0.7546771E-02  0.1479565E+00
          2   -1    0    0  501    0  0.00000000000E+00  0.00000000000E+00  0.90881192799E+02  0.90881192799E+02  0.00000000000E+00 0.  1.
         -2   -1    0    0    0  501 -0.00000000000E+00 -0.00000000000E+00 -0.10771442748E+02  0.10771442748E+02  0.00000000000E+00 0.  1.
          2    1    1    2  502    0  0.23722625756E+02  0.40326418821E+01  0.72540291746E+02  0.76427214393E+02  0.00000000000E+00 0.  1.
         -2    1    1    2    0  502 -0.23722625756E+02 -0.40326418821E+01  0.75694583055E+01  0.25225421153E+02  0.00000000000E+00 0.  1.
</event>
<event>
 4    1  0.5792100E+003  0.2469296E+02  0.7546771E-02  0.1472268E+00
          2   -1    0    0  501    0  0.00000000000E+00  0.00000000000E+00  0.27101719436E+03  0.27101719436E+03  0.00000000000E+00 0.  1.
         -2   -1    0    0    0  501 -0.00000000000E+00 -0.00000000000E+00 -0.23697496194E+01  0.23697496194E+01  0.00000000000E+00 0.  1.
          2    1    1    2  502    0  0.12040788371E+02 -0.21558335184E+02  0.16507357886E+03  0.16691024187E+03  0.00000000000E+00 0.  1.
         -2    1    1    2    0  502 -0.12040788371E+02  0.21558335184E+02  0.10357386588E+03  0.10647670212E+03  0.00000000000E+00 0.  1.
</event>
<event>
 4    1  0.5792100E+003  0.2040148E+02  0.7546771E-02  0.1527984E+00
          2   -1    0    0  501    0  0.00000000000E+00  0.00000000000E+00  0.26375826502E+03  0.26375826502E+03  0.00000000000E+00 0.  1.
         -2   -1    0    0    0  501 -0.00000000000E+00 -0.00000000000E+00 -0.42741083876E+02  0.42741083876E+02  0.00000000000E+00 0.  1.
          2    1    1    2  502    0  0.20225446363E+02  0.26742969032E+01  0.26090260324E+03  0.26169904265E+03  0.00000000000E+00 0.  1.
         -2    1    1    2    0  502 -0.20225446363E+02 -0.26742969032E+01 -0.39885422094E+02  0.44800306251E+02  0.00000000000E+00 0.  1.
</event>
<event>
 4    1  0.5792100E+003  0.3120110E+02  0.7546771E-02  0.1409438E+00
          2   -1    0    0  501    0  0.00000000000E+00  0.00000000000E+00  0.34874429351E+01  0.34874429351E+01  0.00000000000E+00 0.  1.
         -2   -1    0    0    0  501 -0.00000000000E+00 -0.00000000000E+00 -0.83730951205E+03  0.83730951205E+03  0.00000000000E+00 0.  1.
          2    1    1    2  502    0 -0.30324529915E+02 -0.73438290407E+01 -0.73670565277E+02  0.80005381867E+02  0.00000000000E+00 0.  1.
         -2    1    1    2    0  502  0.30324529915E+02  0.73438290407E+01 -0.76015150384E+03  0.76079157312E+03  0.00000000000E+00 0.  1.
</event>
<event>
 4    1  0.5792100E+003  0.3101314E+02  0.7546771E-02  0.1410992E+00
          2   -1    0    0  501    0  0.00000000000E+00  0.00000000000E+00  0.17869986964E+04  0.17869986964E+04  0.00000000000E+00 0. -1.
         -2   -1    0    0    0  501 -0.00000000000E+00 -0.00000000000E+00 -0.42704676026E+01  0.42704676026E+01  0.00000000000E+00 0.  1.
          2    1    1    2  502    0  0.29268514731E+02  0.10255183351E+02  0.17286578298E+04  0.17289360043E+04  0.00000000000E+00 0. -1.
         -2    1    1    2    0  502 -0.29268514731E+02 -0.10255183351E+02  0.54070399016E+02  0.62333159634E+02  0.00000000000E+00 0.  1.
</event>
<event>
 4    1  0.5792100E+003  0.2023914E+02  0.7546771E-02  0.1530411E+00
          2   -1    0    0  501    0  0.00000000000E+00  0.00000000000E+00  0.14949652636E+04  0.14949652636E+04  0.00000000000E+00 0. -1.
         -2   -1    0    0    0  501 -0.00000000000E+00 -0.00000000000E+00 -0.40783859379E+01  0.40783859379E+01  0.00000000000E+00 0.  1.
          2    1    1    2  502    0  0.15654575898E+02 -0.12827976273E+02  0.14693496806E+04  0.14694890631E+04  0.00000000000E+00 0. -1.
         -2    1    1    2    0  502 -0.15654575898E+02  0.12827976273E+02  0.21537197075E+02  0.29554586440E+02  0.00000000000E+00 0.  1.
</event>
<event>
 4    1  0.5792100E+003  0.2192377E+02  0.7546771E-02  0.1506473E+00
          2   -1    0    0  501    0  0.00000000000E+00  0.00000000000E+00  0.36355897872E+02  0.36355897872E+02  0.00000000000E+00 0.  1.
         -2   -1    0    0    0  501 -0.00000000000E+00 -0.00000000000E+00 -0.22019256718E+02  0.22019256718E+02  0.00000000000E+00 0. -1.
          2    1    1    2  502    0  0.19842205903E+02  0.93240781903E+01  0.25618545238E+02  0.33718858660E+02  0.00000000000E+00 0.  1.
         -2    1    1    2    0  502 -0.19842205903E+02 -0.93240781903E+01 -0.11281904084E+02  0.24656295930E+02  0.00000000000E+00 0. -1.
</event>
<event>
 4    1  0.5792100E+003  0.4235081E+02  0.7546771E-02  0.1335235E+00
          2   -1    0    0  501    0  0.00000000000E+00  0.00000000000E+00  0.33742149081E+03  0.33742149081E+03  0.00000000000E+00 0.  1.
         -2   -1    0    0    0  501 -0.00000000000E+00 -0.00000000000E+00 -0.23544384112E+02  0.23544384112E+02  0.00000000000E+00 0.  1.
          2    1    1    2  502    0 -0.22923148743E+02 -0.35610674533E+02  0.31574625992E+03  0.31857384002E+03  0.00000000000E+00 0.  1.
         -2    1    1    2    0  502  0.22923148743E+02  0.35610674533E+02 -0.18691532306E+01  0.42392034898E+02  0.00000000000E+00 0.  1.
</event>
<event>
 4    1  0.5792100E+003  0.2785795E+02  0.7546771E-02  0.1439175E+00
          2   -1    0    0  501    0  0.00000000000E+00  0.00000000000E+00  0.53673971307E+01  0.53673971307E+01  0.00000000000E+00 0. -1.
         -2   -1    0    0    0  501 -0.00000000000E+00 -0.00000000000E+00 -0.49724558369E+03  0.49724558369E+03  0.00000000000E+00 0. -1.
          2    1    1    2  502    0  0.18645648872E+02  0.20697944178E+02 -0.34300725082E+02  0.44188288677E+02  0.00000000000E+00 0. -1.
         -2    1    1    2    0  502 -0.18645648872E+02 -0.20697944178E+02 -0.45757746148E+03  0.45842469214E+03  0.00000000000E+00 0. -1.
</event>
<event>
 4    1  0.5792100E+003  0.2472933E+02  0.7546771E-02  0.1471854E+00
          2   -1    0    0  501    0  0.00000000000E+00  0.00000000000E+00  0.12686758995E+04  0.12686758995E+04  0.00000000000E+00 0.  1.
         -2   -1    0    0    0  501 -0.00000000000E+00 -0.00000000000E+00 -0.62106635901E+02  0.62106635901E+02  0.00000000000E+00 0.  1.
          2    1    1    2  502    0  0.14260929912E+02  0.20203112741E+02  0.12660887094E+04  0.12663301939E+04  0.00000000000E+00 0.  1.
         -2    1    1    2    0  502 -0.14260929912E+02 -0.20203112741E+02 -0.59519445848E+02  0.64452341466E+02  0.00000000000E+00 0.  1.
</event>
<event>
 4    1  0.5792100E+003  0.3367329E+02  0.7546771E-02  0.1390138E+00
          2   -1    0    0  501    0  0.00000000000E+00  0.00000000000E+00  0.73179343503E+02  0.73179343503E+02  0.00000000000E+00 0. -1.
         -2   -1    0    0    0  501 -0.00000000000E+00 -0.00000000000E+00 -0.40307428282E+03  0.40307428282E+03  0.00000000000E+00 0.  1.
          2    1    1    2  502    0  0.27738165773E+02 -0.19091488055E+02  0.68557543898E+02  0.76380806371E+02  0.00000000000E+00 0. -1.
         -2    1    1    2    0  502 -0.27738165773E+02  0.19091488055E+02 -0.39845248322E+03  0.39987281995E+03  0.00000000000E+00 0.  1.
</event>
<event>
 4    1  0.5792100E+003  0.2887505E+02  0.7546771E-02  0.1429631E+00
          2   -1    0    0  501    0  0.00000000000E+00  0.00000000000E+00  0.40854450449E+03  0.40854450449E+03  0.00000000000E+00 0.  1.
         -2   -1    0    0    0  501 -0.00000000000E+00 -0.00000000000E+00 -0.42039002359E+02  0.42039002359E+02  0.00000000000E+00 0.  1.
          2    1    1    2  502    0  0.16999371915E+02  0.23340734163E+02  0.40300796422E+03  0.40404107185E+03  0.00000000000E+00 0.  1.
         -2    1    1    2    0  502 -0.16999371915E+02 -0.23340734163E+02 -0.36502462091E+02  0.46542434998E+02  0.00000000000E+00 0.  1.
</event>
<event>
 4    1  0.5792100E+003  0.2658464E+02  0.7546771E-02  0.1451826E+00
          2   -1    0    0  501    0  0.00000000000E+00  0.00000000000E+00  0.15752091701E+02  0.15752091701E+02  0.00000000000E+00 0. -1.
         -2   -1    0    0    0  501 -0.00000000000E+00 -0.00000000000E+00 -0.57759238564E+02  0.57759238564E+02  0.00000000000E+00 0. -1.
          2    1    1    2  502    0 -0.26024613481E+02 -0.54279265527E+01 -0.36381907744E+01  0.26832430483E+02  0.00000000000E+00 0. -1.
         -2    1    1    2    0  502  0.26024613481E+02  0.54279265527E+01 -0.38368956088E+02  0.46678899782E+02  0.00000000000E+00 0. -1.
</event>
<event>
 4    1  0.5792100E+003  0.2620573E+02  0.7546771E-02  0.1455754E+00
          2   -1    0    0  501    0  0.00000000000E+00  0.00000000000E+00  0.36537641951E+03  0.36537641951E+03  0.00000000000E+00 0. -1.
         -2   -1    0    0    0  501 -0.00000000000E+00 -0.00000000000E+00 -0.28597988742E+01  0.28597988742E+01  0.00000000000E+00 0. -1.
          2    1    1    2  502    0  0.23127233061E+02  0.12323609563E+02  0.28905334293E+03  0.29023882462E+03  0.00000000000E+00 0. -1.
         -2    1    1    2    0  502 -0.23127233061E+02 -0.12323609563E+02  0.73463277709E+02  0.77997393760E+02  0.00000000000E+00 0. -1.
</event>
<event>
 4    1  0.5792100E+003  0.2161757E+02  0.7546771E-02  0.1510627E+00
          2   -1    0    0  501    0  0.00000000000E+00  0.00000000000E+00  0.13381602620E+04  0.13381602620E+04  0.00000000000E+00 0.  1.
         -2   -1    0    0    0  501 -0.00000000000E+00 -0.00000000000E+00 -0.34578952048E+01  0.34578952048E+01  0.00000000000E+00 0.  1.
          2    1    1    2  502    0  0.42575045475E+01 -0.21194170513E+02  0.13033851853E+04  0.13035644443E+04  0.00000000000E+00 0.  1.
         -2    1    1    2    0  502 -0.42575045475E+01  0.21194170513E+02  0.31317181523E+02  0.38053712923E+02  0.00000000000E+00 0.  1.
</event>
<event>
 4    1  0.5792100E+003  0.2461883E+02  0.7546771E-02  0.1473113E+00
          2   -1    0    0  501    0  0.00000000000E+00  0.00000000000E+00  0.63815427437E+03  0.63815427437E+03  0.00000000000E+00 0. -1.
         -2   -1    0    0    0  501 -0.00000000000E+00 -0.00000000000E+00 -0.14204952985E+01  0.14204952985E+01  0.00000000000E+00 0.  1.
          2    1    1    2  502    0 -0.78643838256E+00  0.24606262729E+02  0.50245879420E+03  0.50306155341E+03  0.00000000000E+00 0. -1.
         -2    1    1    2    0  502  0.78643838256E+00 -0.24606262729E+02  0.13427498486E+03  0.13651321625E+03  0.00000000000E+00 0.  1.
</event>
<event>
 4    1  0.5792100E+003  0.3491811E+02  0.7546771E-02  0.1381140E+00
          2   -1    0    0  501    0  0.00000000000E+00  0.00000000000E+00  0.23241777580E+03  0.23241777580E+03  0.00000000000E+00 0.  1.
         -2   -1    0    0    0  501 -0.00000000000E+00 -0.00000000000E+00 -0.15506742992E+03  0.15506742992E+03  0.00000000000E+00 0. -1.
          2    1    1    2  502    0  0.30635089696E+02  0.16756057980E+02  0.22911235155E+03  0.23175794233E+03  0.00000000000E+00 0.  1.
         -2    1    1    2    0  502 -0.30635089696E+02 -0.16756057980E+02 -0.15176200567E+03  0.15572726339E+03  0.00000000000E+00 0. -1.
</event>
<event>
 4    1  0.5792100E+003  0.2619669E+02  0.7546771E-02  0.1455849E+00
          2   -1    0    0  501    0  0.00000000000E+00  0.00000000000E+00  0.52228466538E+02  0.52228466538E+02  0.00000000000E+00 0. -1.
         -2   -1    0    0    0  501 -0.00000000000E+00 -0.00000000000E+00 -0.51580896602E+02  0.51580896602E+02  0.00000000000E+00 0. -1.
          2    1    1    2  502    0  0.15623128260E+02  0.21028176319E+02  0.45132298968E+02  0.52184200157E+02  0.00000000000E+00 0. -1.
         -2    1    1    2    0  502 -0.15623128260E+02 -0.21028176319E+02 -0.44484729032E+02  0.51625162983E+02  0.00000000000E+00 0. -1.
</event>
<event>
 4    1  0.5792100E+003  0.2124401E+02  0.7546771E-02  0.1515809E+00
          2   -1    0    0  501    0  0.00000000000E+00  0.00000000000E+00  0.87319900941E+02  0.87319900941E+02  0.00000000000E+00 0.  1.
         -2   -1    0    0    0  501 -0.00000000000E+00 -0.00000000000E+00 -0.32228994448E+02  0.32228994448E+02  0.00000000000E+00 0.  1.
          2    1    1    2  502    0 -0.13535327951E+02  0.16373842105E+02  0.82317696306E+02  0.85014768911E+02  0.00000000000E+00 0.  1.
         -2    1    1    2    0  502  0.13535327951E+02 -0.16373842105E+02 -0.27226789813E+02  0.34534126477E+02  0.00000000000E+00 0.  1.
</event>
<event>
 4    1  0.5792100E+003  0.2252108E+02  0.7546771E-02  0.1498601E+00
          2   -1    0    0  501    0  0.00000000000E+00  0.00000000000E+00  0.41280340881E+02  0.41280340881E+02  0.00000000000E+00 0. -1.
         -2   -1    0    0    0  501 -0.00000000000E+00 -0.00000000000E+00 -0.60953528475E+02  0.60953528475E+02  0.00000000000E+00 0.  1.
          2    1    1    2  502    0  0.22503517257E+02 -0.88916023784E+00  0.35838760914E+02  0.42327481365E+02  0.00000000000E+00 0. -1.
         -2    1    1    2    0  502 -0.22503517257E+02  0.88916023784E+00 -0.55511948509E+02  0.59906387991E+02  0.00000000000E+00 0.  1.
</event>
<event>
 4    1  0.5792100E+003  0.2164089E+02  0.7546771E-02  0.1510308E+00
          2   -1    0    0  501    0  0.00000000000E+00  0.00000000000E+00  0.14868074039E+04  0.14868074039E+04  0.00000000000E+00 0.  1.
         -2   -1    0    0    0  501 -0.00000000000E+00 -0.00000000000E+00 -0.31681397572E+00  0.31681397572E+00  0.00000000000E+00 0. -1.
          2    1    1    2  502    0 -0.13451452205E+02  0.16952479749E+02  0.79967800818E+03  0.79997077754E+03  0.00000000000E+00 0.  1.
         -2    1    1    2    0  502  0.13451452205E+02 -0.16952479749E+02  0.68681258176E+03  0.68715344036E+03  0.00000000000E+00 0. -1.
</event>
<event>
 4    1  0.5792100E+003  0.4049516E+02  0.7546771E-02  0.1345608E+00
          2   -1    0    0  501    0  0.00000000000E+00  0.00000000000E+00  0.22726106163E+03  0.22726106163E+03  0.00000000000E+00 0.  1.
         -2   -1    0    0    0  501 -0.00000000000E+00 -0.00000000000E+00 -0.16273559068E+02  0.16273559068E+02  0.00000000000E+00 0.  1.
          2    1    1    2  502    0  0.12378778222E+02  0.38556764684E+02  0.19633876634E+03  0.20047136808E+03  0.00000000000E+00 0.  1.
         -2    1    1    2    0  502 -0.12378778222E+02 -0.38556764684E+02  0.14648736228E+02  0.43063252621E+02  0.00000000000E+00 0.  1.
</event>
<event>
 4    1  0.5792100E+003  0.4059798E+02  0.7546771E-02  0.1345017E+00
          2   -1    0    0  501    0  0.00000000000E+00  0.00000000000E+00  0.21977528228E+04  0.21977528228E+04  0.00000000000E+00 0. -1.
         -2   -1    0    0    0  501 -0.00000000000E+00 -0.00000000000E+00 -0.60558365896E+03  0.60558365896E+03  0.00000000000E+00 0. -1.
          2    1    1    2  502    0  0.78278203799E+01  0.39836179091E+02  0.21968846511E+04  0.21972597403E+04  0.00000000000E+00 0. -1.
         -2    1    1    2    0  502 -0.78278203799E+01 -0.39836179091E+02 -0.60471548731E+03  0.60607674145E+03  0.00000000000E+00 0. -1.
</event>
<event>
 4    1  0.5792100E+003  0.2295647E+02  0.7546771E-02  0.1493045E+00
          2   -1    0    0  501    0  0.00000000000E+00  0.00000000000E+00  0.32618566389E+03  0.32618566389E+03  0.00000000000E+00 0. -1.
         -2   -1    0    0    0  501 -0.00000000000E+00 -0.00000000000E+00 -0.57766694732E+01  0.57766694732E+01  0.00000000000E+00 0.  1.
          2    1    1    2  502    0 -0.10670688384E+02  0.20325749423E+02  0.30107506905E+03  0.30194899716E+03  0.00000000000E+00 0. -1.
         -2    1    1    2    0  502  0.10670688384E+02 -0.20325749423E+02  0.19333925367E+02  0.30013336207E+02  0.00000000000E+00 0.  1.
</event>
<event>
 4    1  0.5792100E+003  0.3395757E+02  0.7546771E-02  0.1388044E+00
          2   -1    0    0  501    0  0.00000000000E+00  0.00000000000E+00  0.11403509886E+04  0.11403509886E+04  0.00000000000E+00 0.  1.
         -2   -1    0    0    0  501 -0.00000000000E+00 -0.00000000000E+00 -0.23799977945E+01  0.23799977945E+01  0.00000000000E+00 0. -1.
          2    1    1    2  502    0 -0.57015427392E+00 -0.33952785414E+02  0.10022930319E+04  0.10028681062E+04  0.00000000000E+00 0.  1.
         -2    1    1    2    0  502  0.57015427392E+00  0.33952785414E+02  0.13567795894E+03  0.13986288019E+03  0.00000000000E+00 0. -1.
</event>
<event>
 4    1  0.5792100E+003  0.2672664E+02  0.7546771E-02  0.1450374E+00
          2   -1    0    0  501    0  0.00000000000E+00  0.00000000000E+00  0.12424849821E+04  0.12424849821E+04  0.00000000000E+00 0. -1.
         -2   -1    0    0    0  501 -0.00000000000E+00 -0.00000000000E+00 -0.27084686304E+01  0.27084686304E+01  0.00000000000E+00 0.  1.
          2    1    1    2  502    0 -0.18119434345E+02  0.19646862028E+02  0.11724712847E+04  0.11727758637E+04  0.00000000000E+00 0. -1.
         -2    1    1    2    0  502  0.18119434345E+02 -0.19646862028E+02  0.67305228819E+02  0.72417587056E+02  0.00000000000E+00 0.  1.
</event>
<event>
 4    1  0.5792100E+003  0.2581198E+02  0.7546771E-02  0.1459921E+00
          2   -1    0    0  501    0  0.00000000000E+00  0.00000000000E+00  0.14333768966E+04  0.14333768966E+04  0.00000000000E+00 0.  1.
         -2   -1    0    0    0  501 -0.00000000000E+00 -0.00000000000E+00 -0.48090115808E+01  0.48090115808E+01  0.00000000000E+00 0. -1.
          2    1    1    2  502    0 -0.24821974015E+02 -0.70800890556E+01  0.13977418191E+04  0.13979801326E+04  0.00000000000E+00 0.  1.
         -2    1    1    2    0  502  0.24821974015E+02  0.70800890556E+01  0.30826065837E+02  0.40205775580E+02  0.00000000000E+00 0. -1.
</event>
<event>
 4    1  0.5792100E+003  0.2096454E+02  0.7546771E-02  0.1519772E+00
          2   -1    0    0  501    0  0.00000000000E+00  0.00000000000E+00  0.40463004544E+03  0.40463004544E+03  0.00000000000E+00 0.  1.
         -2   -1    0    0    0  501 -0.00000000000E+00 -0.00000000000E+00 -0.13370697636E+01  0.13370697636E+01  0.00000000000E+00 0.  1.
          2    1    1    2  502    0 -0.14741498716E+02 -0.14906381315E+02  0.28956937202E+03  0.29032728635E+03  0.00000000000E+00 0.  1.
         -2    1    1    2    0  502  0.14741498716E+02  0.14906381315E+02  0.11372360366E+03  0.11563982885E+03  0.00000000000E+00 0.  1.
</event>
<event>
 4    1  0.5792100E+003  0.2809197E+02  0.7546771E-02  0.1436937E+00
          2   -1    0    0  501    0  0.00000000000E+00  0.00000000000E+00  0.12064576755E+04  0.12064576755E+04  0.00000000000E+00 0. -1.
         -2   -1    0    0    0  501 -0.00000000000E+00 -0.00000000000E+00 -0.18402885109E+01  0.18402885109E+01  0.00000000000E+00 0. -1.
          2    1    1    2  502    0  0.13247486360E+02  0.24772215719E+02  0.10873466570E+04  0.10877094791E+04  0.00000000000E+00 0. -1.
         -2    1    1    2    0  502 -0.13247486360E+02 -0.24772215719E+02  0.11727073001E+03  0.12058848487E+03  0.00000000000E+00 0. -1.
</event>
<event>
 4    1  0.5792100E+003  0.3407046E+02  0.7546771E-02  0.1387219E+00
          2   -1    0    0  501    0  0.00000000000E+00  0.00000000000E+00  0.42562469214E+03  0.42562469214E+03  0.00000000000E+00 0. -1.
         -2   -1    0    0    0  501 -0.00000000000E+00 -0.00000000000E+00 -0.31860892666E+01  0.31860892666E+01  0.00000000000E+00 0. -1.
          2    1    1    2  502    0 -0.10508712836E+02  0.32409304518E+02  0.29258187006E+03  0.29455890201E+03  0.00000000000E+00 0. -1.
         -2    1    1    2    0  502  0.10508712836E+02 -0.32409304518E+02  0.12985673281E+03  0.13425187940E+03  0.00000000000E+00 0. -1.
</event>
<event>
 4    1  0.5792100E+003  0.2616865E+02  0.7546771E-02  0.1456143E+00
          2   -1    0    0  501    0  0.00000000000E+00  0.00000000000E+00  0.16707448023E+03  0.16707448023E+03  0.00000000000E+00 0.  1.
         -2   -1    0    0    0  501 -0.00000000000E+00 -0.00000000000E+00 -0.12943473418E+03  0.12943473418E+03  0.00000000000E+00 0.  1.
          2    1    1    2  502    0 -0.93243561185E+01 -0.24451064321E+02  0.16470823607E+03  0.16677410228E+03  0.00000000000E+00 0.  1.
         -2    1    1    2    0  502  0.93243561185E+01  0.24451064321E+02 -0.12706849001E+03  0.12973511212E+03  0.00000000000E+00 0.  1.
</event>
<event>
 4    1  0.5792100E+003  0.2263303E+02  0.7546771E-02  0.1497158E+00
          2   -1    0    0  501    0  0.00000000000E+00  0.00000000000E+00  0.43395672475E+03  0.43395672475E+03  0.00000000000E+00 0. -1.
         -2   -1    0    0    0  501 -0.00000000000E+00 -0.00000000000E+00 -0.60290995628E+01  0.60290995628E+01  0.00000000000E+00 0.  1.
          2    1    1    2  502    0 -0.21766204625E+02 -0.62037340721E+01  0.41124874412E+03  0.41187107633E+03  0.00000000000E+00 0. -1.
         -2    1    1    2    0  502  0.21766204625E+02  0.62037340721E+01  0.16678881065E+02  0.28114747977E+02  0.00000000000E+00 0.  1.
</event>
<event>
 4    1  0.5792100E+003  0.2060028E+02  0.7546771E-02  0.1525049E+00
          2   -1    0    0  501    0  0.00000000000E+00  0.00000000000E+00  0.12349044256E+04  0.12349044256E+04  0.00000000000E+00 0. -1.
         -2   -1    0    0    0  501 -0.00000000000E+00 -0.00000000000E+00 -0.41372368088E+01  0.41372368088E+01  0.00000000000E+00 0.  1.
          2    1    1    2  502    0  0.16487212939E+02  0.12350837115E+02  0.12086174134E+04  0.12087929613E+04  0.00000000000E+00 0. -1.
         -2    1    1    2    0  502 -0.16487212939E+02 -0.12350837115E+02  0.22149775415E+02  0.30248701111E+02  0.00000000000E+00 0.  1.
</event>
<event>
 4    1  0.5792100E+003  0.2855052E+02  0.7546771E-02  0.1432625E+00
          2   -1    0    0  501    0  0.00000000000E+00  0.00000000000E+00  0.23814115669E+04  0.23814115669E+04  0.00000000000E+00 0.  1.
         -2   -1    0    0    0  501 -0.00000000000E+00 -0.00000000000E+00 -0.49303960229E+00  0.49303960229E+00  0.00000000000E+00 0. -1.
          2    1    1    2  502    0  0.28534049251E+02  0.96973112973E+00  0.18489992814E+04  0.18492196936E+04  0.00000000000E+00 0.  1.
         -2    1    1    2    0  502 -0.28534049251E+02 -0.96973112973E+00  0.53191924591E+03  0.53268491297E+03  0.00000000000E+00 0. -1.
</event>
<event>
 4    1  0.5792100E+003  0.2193293E+02  0.7546771E-02  0.1506350E+00
          2   -1    0    0  501    0  0.00000000000E+00  0.00000000000E+00  0.13493753452E+04  0.13493753452E+04  0.00000000000E+00 0.  1.
         -2   -1    0    0    0  501 -0.00000000000E+00 -0.00000000000E+00 -0.35770841141E+00  0.35770841141E+00  0.00000000000E+00 0. -1.
          2    1    1    2  502    0  0.16639474837E+02  0.14289190251E+02  0.63529328677E+03  0.63567178111E+03  0.00000000000E+00 0.  1.
         -2    1    1    2    0  502 -0.16639474837E+02 -0.14289190251E+02  0.71372434998E+03  0.71406127246E+03  0.00000000000E+00 0. -1.
</event>
<event>
 4    1  0.5792100E+003  0.2092384E+02  0.7546771E-02  0.1520355E+00
          2   -1    0    0  501    0  0.00000000000E+00  0.00000000000E+00  0.29938731485E+02  0.29938731485E+02  0.00000000000E+00 0.  1.
         -2   -1    0    0    0  501 -0.00000000000E+00 -0.00000000000E+00 -0.14675445972E+02  0.14675445972E+02  0.00000000000E+00 0.  1.
          2    1    1    2  502    0 -0.20750748372E+02 -0.26857830466E+01  0.89596774101E+01  0.22761432465E+02  0.00000000000E+00 0.  1.
         -2    1    1    2    0  502  0.20750748372E+02  0.26857830466E+01  0.63036081023E+01  0.21852744992E+02  0.00000000000E+00 0.  1.
</event>
<event>
 4    1  0.5792100E+003  0.9183321E+02  0.7546771E-02  0.1178765E+00
          2   -1    0    0  501    0  0.00000000000E+00  0.00000000000E+00  0.32768335530E+03  0.32768335530E+03  0.00000000000E+00 0.  1.
         -2   -1    0    0    0  501 -0.00000000000E+00 -0.00000000000E+00 -0.33669200390E+02  0.33669200390E+02  0.00000000000E+00 0.  1.
          2    1    1    2  502    0 -0.60714246356E+02 -0.68899340603E+02  0.23470761640E+03  0.25203373592E+03  0.00000000000E+00 0.  1.
         -2    1    1    2    0  502  0.60714246356E+02  0.68899340603E+02  0.59306538514E+02  0.10931881977E+03  0.00000000000E+00 0.  1.
</event>
<event>
 4    1  0.5792100E+003  0.3757201E+02  0.7546771E-02  0.1363333E+00
          2   -1    0    0  501    0  0.00000000000E+00  0.00000000000E+00  0.18703011016E+04  0.18703011016E+04  0.00000000000E+00 0.  1.
         -2   -1    0    0    0  501 -0.00000000000E+00 -0.00000000000E+00 -0.32294939306E+01  0.32294939306E+01  0.00000000000E+00 0.  1.
          2    1    1    2  502    0 -0.18884917341E+02 -0.32481007274E+02  0.17535597317E+04  0.17539621970E+04  0.00000000000E+00 0.  1.
         -2    1    1    2    0  502  0.18884917341E+02  0.32481007274E+02  0.11351187599E+03  0.11956839853E+03  0.00000000000E+00 0.  1.
</event>
<event>
 4    1  0.5792100E+003  0.2245001E+02  0.7546771E-02  0.1499522E+00
          2   -1    0    0  501    0  0.00000000000E+00  0.00000000000E+00  0.12388841804E+04  0.12388841804E+04  0.00000000000E+00 0.  1.
         -2   -1    0    0    0  501 -0.00000000000E+00 -0.00000000000E+00 -0.29952116135E+02  0.29952116135E+02  0.00000000000E+00 0.  1.
          2    1    1    2  502    0 -0.18125756196E+02  0.13246127019E+02  0.12345610066E+04  0.12347651121E+04  0.00000000000E+00 0.  1.
         -2    1    1    2    0  502  0.18125756196E+02 -0.13246127019E+02 -0.25628942405E+02  0.34071184416E+02  0.00000000000E+00 0.  1.
</event>
<event>
 4    1  0.5792100E+003  0.2120699E+02  0.7546771E-02  0.1516330E+00
          2   -1    0    0  501    0  0.00000000000E+00  0.00000000000E+00  0.31713277119E+03  0.31713277119E+03  0.00000000000E+00 0.  1.
         -2   -1    0    0    0  501 -0.00000000000E+00 -0.00000000000E+00 -0.88047073299E+01  0.88047073299E+01  0.00000000000E+00 0. -1.
          2    1    1    2  502    0  0.97349901993E+01 -0.18840555156E+02  0.30343260118E+03  0.30417277987E+03  0.00000000000E+00 0.  1.
         -2    1    1    2    0  502 -0.97349901993E+01  0.18840555156E+02  0.48954626847E+01  0.21764698658E+02  0.00000000000E+00 0. -1.
</event>
<event>
 4    1  0.5792100E+003  0.8904364E+02  0.7546771E-02  0.1184280E+00
          2   -1    0    0  501    0  0.00000000000E+00  0.00000000000E+00  0.19306021386E+04  0.19306021386E+04  0.00000000000E+00 0. -1.
         -2   -1    0    0    0  501 -0.00000000000E+00 -0.00000000000E+00 -0.72687095553E+01  0.72687095553E+01  0.00000000000E+00 0. -1.
          2    1    1    2  502    0 -0.15575635334E+01  0.89030019526E+02  0.16007165466E+04  0.16031912653E+04  0.00000000000E+00 0. -1.
         -2    1    1    2    0  502  0.15575635334E+01 -0.89030019526E+02  0.32261688238E+03  0.33467958285E+03  0.00000000000E+00 0. -1.
</event>
<event>
 4    1  0.5792100E+003  0.2466346E+02  0.7546771E-02  0.1472604E+00
          2   -1    0    0  501    0  0.00000000000E+00  0.00000000000E+00  0.81505311597E+02  0.81505311597E+02  0.00000000000E+00 0.  1.
         -2   -1    0    0    0  501 -0.00000000000E+00 -0.00000000000E+00 -0.11065612815E+02  0.11065612815E+02  0.00000000000E+00 0. -1.
          2    1    1    2  502    0 -0.23884290975E+02 -0.61503532954E+01  0.61629140594E+02  0.66381000078E+02  0.00000000000E+00 0.  1.
         -2    1    1    2    0  502  0.23884290975E+02  0.61503532954E+01  0.88105581871E+01  0.26189924334E+02  0.00000000000E+00 0. -1.
</event>
<event>
 4    1  0.5792100E+003  0.2119156E+02  0.7546771E-02  0.1516547E+00
          2   -1    0    0  501    0  0.00000000000E+00  0.00000000000E+00  0.11561321715E+04  0.11561321715E+04  0.00000000000E+00 0.  1.
         -2   -1    0    0    0  501 -0.00000000000E+00 -0.00000000000E+00 -0.14941583142E+01  0.14941583142E+01  0.00000000000E+00 0.  1.
          2    1    1    2  502    0 -0.10723693671E+02  0.18277977035E+02  0.10752433408E+04  0.10754521487E+04  0.00000000000E+00 0.  1.
         -2    1    1    2    0  502  0.10723693671E+02 -0.18277977035E+02  0.79394672350E+02  0.82174181152E+02  0.00000000000E+00 0.  1.
</event>
<event>
 4    1  0.5792100E+003  0.2135331E+02  0.7546771E-02  0.1514280E+00
          2   -1    0    0  501    0  0.00000000000E+00  0.00000000000E+00  0.11964612778E+04  0.11964612778E+04  0.00000000000E+00 0. -1.
         -2   -1    0    0    0  501 -0.00000000000E+00 -0.00000000000E+00 -0.23281621911E+01  0.23281621911E+01  0.00000000000E+00 0.  1.
          2    1    1    2  502    0  0.34627574187E+01  0.21070675470E+02  0.11452133701E+04  0.11454124266E+04  0.00000000000E+00 0. -1.
         -2    1    1    2    0  502 -0.34627574187E+01 -0.21070675470E+02  0.48919745562E+02  0.53377013400E+02  0.00000000000E+00 0.  1.
</event>
<event>
 4    1  0.5792100E+003  0.3231463E+02  0.7546771E-02  0.1400493E+00
          2   -1    0    0  501    0  0.00000000000E+00  0.00000000000E+00  0.71929473657E+03  0.71929473657E+03  0.00000000000E+00 0. -1.
         -2   -1    0    0    0  501 -0.00000000000E+00 -0.00000000000E+00 -0.20933666396E+01  0.20933666396E+01  0.00000000000E+00 0. -1.
          2    1    1    2  502    0  0.21231141129E+02 -0.24361315592E+02  0.55828991822E+03  0.55922434482E+03  0.00000000000E+00 0. -1.
         -2    1    1    2    0  502 -0.21231141129E+02  0.24361315592E+02  0.15891145171E+03  0.16216375839E+03  0.00000000000E+00 0. -1.
</event>
<event>
 4    1  0.5792100E+003  0.2339265E+02  0.7546771E-02  0.1487626E+00
          2   -1    0    0  501    0  0.00000000000E+00  0.00000000000E+00  0.19909858467E+03  0.19909858467E+03  0.00000000000E+00 0. -1.
         -2   -1    0    0    0  501 -0.00000000000E+00 -0.00000000000E+00 -0.49252940762E+01  0.49252940762E+01  0.00000000000E+00 0. -1.
          2    1    1    2  502    0 -0.10098718040E+02 -0.21100523636E+02  0.16490491873E+03  0.16655584177E+03  0.00000000000E+00 0. -1.
         -2    1    1    2    0  502  0.10098718040E+02  0.21100523636E+02  0.29268371857E+02  0.37468036977E+02  0.00000000000E+00 0. -1.
</event>
<event>
 4    1  0.5792100E+003  0.2570967E+02  0.7546771E-02  0.1461019E+00
          2   -1    0    0  501    0  0.00000000000E+00  0.00000000000E+00  0.85875874607E+03  0.85875874607E+03  0.00000000000E+00 0. -1.
         -2   -1    0    0    0  501 -0.00000000000E+00 -0.00000000000E+00 -0.82419194475E+00  0.82419194475E+00  0.00000000000E+00 0. -1.
          2    1    1    2  502    0 -0.81872380237E+01  0.24371214875E+02  0.53947891755E+03  0.54009118625E+03  0.00000000000E+00 0. -1.
         -2    1    1    2    0  502  0.81872380237E+01 -0.24371214875E+02  0.31845563657E+03  0.31949175177E+03  0.00000000000E+00 0. -1.
</event>
<event>
 4    1  0.5792100E+003  0.2948801E+02  0.7546771E-02  0.1424099E+00
          2   -1    0    0  501    0  0.00000000000E+00  0.00000000000E+00  0.12898629361E+04  0.12898629361E+04  0.00000000000E+00 0.  1.
         -2   -1    0    0    0  501 -0.00000000000E+00 -0.00000000000E+00 -0.17841072462E+01  0.17841072462E+01  0.00000000000E+00 0. -1.
          2    1    1    2  502    0 -0.55553165519E+01  0.28959987924E+02  0.11534398768E+04  0.11538167497E+04  0.00000000000E+00 0.  1.
         -2    1    1    2    0  502  0.55553165519E+01 -0.28959987924E+02  0.13463895201E+03  0.13783029363E+03  0.00000000000E+00 0. -1.
</event>
<event>
 4    1  0.5792100E+003  0.3188598E+02  0.7546771E-02  0.1403886E+00
          2   -1    0    0  501    0  0.00000000000E+00  0.00000000000E+00  0.20189573302E+04  0.20189573302E+04  0.00000000000E+00 0. -1.
         -2   -1    0    0    0  501 -0.00000000000E+00 -0.00000000000E+00 -0.23177477005E+01  0.23177477005E+01  0.00000000000E+00 0.  1.
          2    1    1    2  502    0  0.31490817067E+02 -0.50043970260E+01  0.19024495033E+04  0.19027166968E+04  0.00000000000E+00 0. -1.
         -2    1    1    2    0  502 -0.31490817067E+02  0.50043970260E+01  0.11419007917E+03  0.11855838110E+03  0.00000000000E+00 0.  1.
</event>
<event>
 4    1  0.5792100E+003  0.3335550E+02  0.7546771E-02  0.1392508E+00
          2   -1    0    0  501    0  0.00000000000E+00  0.00000000000E+00  0.22982622722E+03  0.22982622722E+03  0.00000000000E+00 0. -1.
         -2   -1    0    0    0  501 -0.00000000000E+00 -0.00000000000E+00 -0.15206383399E+03  0.15206383399E+03  0.00000000000E+00 0. -1.
          2    1    1    2  502    0  0.23084475171E+01 -0.33275528064E+02  0.22676224414E+03  0.22920232343E+03  0.00000000000E+00 0. -1.
         -2    1    1    2    0  502 -0.23084475171E+01  0.33275528064E+02 -0.14899985091E+03  0.15268773778E+03  0.00000000000E+00 0. -1.
</event>
<event>
 4    1  0.5792100E+003  0.2081282E+02  0.7546771E-02  0.1521954E+00
          2   -1    0    0  501    0  0.00000000000E+00  0.00000000000E+00  0.65552291624E+03  0.65552291624E+03  0.00000000000E+00 0. -1.
         -2   -1    0    0    0  501 -0.00000000000E+00 -0.00000000000E+00 -0.11960399124E+01  0.11960399124E+01  0.00000000000E+00 0.  1.
          2    1    1    2  502    0  0.80485975349E+01 -0.19193576777E+02  0.54682225169E+03  0.54721819072E+03  0.00000000000E+00 0. -1.
         -2    1    1    2    0  502 -0.80485975349E+01  0.19193576777E+02  0.10750462464E+03  0.10950076543E+03  0.00000000000E+00 0.  1.
</event>
<event>
 4    1  0.5792100E+003  0.2743089E+02  0.7546771E-02  0.1443327E+00
          2   -1    0    0  501    0  0.00000000000E+00  0.00000000000E+00  0.17075264687E+02  0.17075264687E+02  0.00000000000E+00 0. -1.
         -2   -1    0    0    0  501 -0.00000000000E+00 -0.00000000000E+00 -0.54109656022E+02  0.54109656022E+02  0.00000000000E+00 0. -1.
          2    1    1    2  502    0 -0.26437144033E+01 -0.27303193466E+02 -0.31834744396E+01  0.27614997896E+02  0.00000000000E+00 0. -1.
         -2    1    1    2    0  502  0.26437144033E+01  0.27303193466E+02 -0.33850916896E+02  0.43569922813E+02  0.00000000000E+00 0. -1.
</event>
<event>
 4    1  0.5792100E+003  0.3828555E+02  0.7546771E-02  0.1358836E+00
          2   -1    0    0  501    0  0.00000000000E+00  0.00000000000E+00  0.28845671826E+04  0.28845671826E+04  0.00000000000E+00 0.  1.
         -2   -1    0    0    0  501 -0.00000000000E+00 -0.00000000000E+00 -0.33504534957E+01  0.33504534957E+01  0.00000000000E+00 0. -1.
          2    1    1    2  502    0 -0.33199276734E+02  0.19068077776E+02  0.27705680594E+04  0.27708325744E+04  0.00000000000E+00 0.  1.
         -2    1    1    2    0  502  0.33199276734E+02 -0.19068077776E+02  0.11064866969E+03  0.11708506168E+03  0.00000000000E+00 0. -1.
</event>
<event>
 4    1  0.5792100E+003  0.3777375E+02  0.7546771E-02  0.1362050E+00
          2   -1    0    0  501    0  0.00000000000E+00  0.00000000000E+00  0.71335124901E+03  0.71335124901E+03  0.00000000000E+00 0. -1.
         -2   -1    0    0    0  501 -0.00000000000E+00 -0.00000000000E+00 -0.28785606659E+02  0.28785606659E+02  0.00000000000E+00 0. -1.
          2    1    1    2  502    0  0.37744716461E+02  0.14807738862E+01  0.70022700196E+03  0.70124511448E+03  0.00000000000E+00 0. -1.
         -2    1    1    2    0  502 -0.37744716461E+02 -0.14807738862E+01 -0.15661359613E+02  0.40891741182E+02  0.00000000000E+00 0. -1.
</event>
<event>
 4    1  0.5792100E+003  0.2190499E+02  0.7546771E-02  0.1506726E+00
          2   -1    0    0  501    0  0.00000000000E+00  0.00000000000E+00  0.99083575041E+02  0.99083575041E+02  0.00000000000E+00 0.  1.
         -2   -1    0    0    0  501 -0.00000000000E+00 -0.00000000000E+00 -0.19528687049E+02  0.19528687049E+02  0.00000000000E+00 0.  1.
          2    1    1    2  502    0  0.12120416040E+02  0.18246210785E+02  0.91207279851E+02  0.93800834702E+02  0.00000000000E+00 0.  1.
         -2    1    1    2    0  502 -0.12120416040E+02 -0.18246210785E+02 -0.11652391859E+02  0.24811427388E+02  0.00000000000E+00 0.  1.
</event>
<event>
 4    1  0.5792100E+003  0.4632015E+02  0.7546771E-02  0.1314967E+00
          2   -1    0    0  501    0  0.00000000000E+00  0.00000000000E+00  0.89164239947E+02  0.89164239947E+02  0.00000000000E+00 0.  1.
         -2   -1    0    0    0  501 -0.00000000000E+00 -0.00000000000E+00 -0.12645054012E+03  0.12645054012E+03  0.00000000000E+00 0.  1.
          2    1    1    2  502    0  0.21082569840E+02  0.41244164418E+02  0.78365803449E+02  0.91031615386E+02  0.00000000000E+00 0.  1.
         -2    1    1    2    0  502 -0.21082569840E+02 -0.41244164418E+02 -0.11565210362E+03  0.12458316468E+03  0.00000000000E+00 0.  1.
</event>
<event>
 4    1  0.5792100E+003  0.3672938E+02  0.7546771E-02  0.1368796E+00
          2   -1    0    0  501    0  0.00000000000E+00  0.00000000000E+00  0.15754080289E+04  0.15754080289E+04  0.00000000000E+00 0.  1.
         -2   -1    0    0    0  501 -0.00000000000E+00 -0.00000000000E+00 -0.19593588876E+01  0.19593588876E+01  0.00000000000E+00 0.  1.
          2    1    1    2  502    0 -0.27817832410E+02  0.23983650558E+02  0.13784794786E+04  0.13789687162E+04  0.00000000000E+00 0.  1.
         -2    1    1    2    0  502  0.27817832410E+02 -0.23983650558E+02  0.19496919144E+03  0.19839867163E+03  0.00000000000E+00 0.  1.
</event>
<event>
 4    1  0.5792100E+003  0.3013459E+02  0.7546771E-02  0.1418430E+00
          2   -1    0    0  501    0  0.00000000000E+00  0.00000000000E+00  0.36848576560E+03  0.36848576560E+03  0.00000000000E+00 0. -1.
         -2   -1    0    0    0  501 -0.00000000000E+00 -0.00000000000E+00 -0.22744634954E+03  0.22744634954E+03  0.00000000000E+00 0.  1.
          2    1    1    2  502    0 -0.30840452969E+01 -0.29976360662E+02  0.36686713068E+03  0.36810268283E+03  0.00000000000E+00 0. -1.
         -2    1    1    2    0  502  0.30840452969E+01  0.29976360662E+02 -0.22582771462E+03  0.22782943231E+03  0.00000000000E+00 0.  1.
</event>
<event>
 4    1  0.5792100E+003  0.4017107E+02  0.7546771E-02  0.1347486E+00
          2   -1    0    0  501    0  0.00000000000E+00  0.00000000000E+00  0.79332314330E+03  0.79332314330E+03  0.00000000000E+00 0. -1.
         -2   -1    0    0    0  501 -0.00000000000E+00 -0.00000000000E+00 -0.68632004401E+01  0.68632004401E+01  0.00000000000E+00 0. -1.
          2    1    1    2  502    0  0.38414460453E+02  0.11749232155E+02  0.72883617134E+03  0.72994238121E+03  0.00000000000E+00 0. -1.
         -2    1    1    2    0  502 -0.38414460453E+02 -0.11749232155E+02  0.57623771515E+02  0.70243962529E+02  0.00000000000E+00 0. -1.
</event>
<event>
 4    1  0.5792100E+003  0.2264829E+02  0.7546771E-02  0.1496962E+00
          2   -1    0    0  501    0  0.00000000000E+00  0.00000000000E+00  0.29413893793E+03  0.29413893793E+03  0.00000000000E+00 0. -1.
         -2   -1    0    0    0  501 -0.00000000000E+00 -0.00000000000E+00 -0.76482602567E+01  0.76482602567E+01  0.00000000000E+00 0.  1.
          2    1    1    2  502    0 -0.22174070187E+02  0.46104076148E+01  0.27582483633E+03  0.27675311305E+03  0.00000000000E+00 0. -1.
         -2    1    1    2    0  502  0.22174070187E+02 -0.46104076148E+01  0.10665841344E+02  0.25034085136E+02  0.00000000000E+00 0.  1.
</event>
<event>
 4    1  0.5792100E+003  0.2406712E+02  0.7546771E-02  0.1479516E+00
          2   -1    0    0  501    0  0.00000000000E+00  0.00000000000E+00  0.15940852989E+03  0.15940852989E+03  0.00000000000E+00 0. -1.
         -2   -1    0    0    0  501 -0.00000000000E+00 -0.00000000000E+00 -0.10692968411E+02  0.10692968411E+02  0.00000000000E+00 0. -1.
          2    1    1    2  502    0  0.61652738236E+01 -0.23264040932E+02  0.14346319060E+03  0.14546791144E+03  0.00000000000E+00 0. -1.
         -2    1    1    2    0  502 -0.61652738236E+01  0.23264040932E+02  0.52523708805E+01  0.24633586861E+02  0.00000000000E+00 0. -1.
</event>
<event>
 4    1  0.5792100E+003  0.2563414E+02  0.7546771E-02  0.1461833E+00
          2   -1    0    0  501    0  0.00000000000E+00  0.00000000000E+00  0.69084379737E+03  0.69084379737E+03  0.00000000000E+00 0. -1.
         -2   -1    0    0    0  501 -0.00000000000E+00 -0.00000000000E+00 -0.53594268237E+01  0.53594268237E+01  0.00000000000E+00 0. -1.
          2    1    1    2  502    0 -0.13163234123E+02  0.21996322149E+02  0.65844639679E+03  0.65894519223E+03  0.00000000000E+00 0. -1.
         -2    1    1    2    0  502  0.13163234123E+02 -0.21996322149E+02  0.27037973750E+02  0.37258031955E+02  0.00000000000E+00 0. -1.
</event>
<event>
 4    1  0.5792100E+003  0.2357317E+02  0.7546771E-02  0.1485424E+00
          2   -1    0    0  501    0  0.00000000000E+00  0.00000000000E+00  0.17077202672E+03  0.17077202672E+03  0.00000000000E+00 0. -1.
         -2   -1    0    0    0  501 -0.00000000000E+00 -0.00000000000E+00 -0.45354344918E+01  0.45354344918E+01  0.00000000000E+00 0.  1.
          2    1    1    2  502    0 -0.23190019086E+02 -0.42328866339E+01  0.12970983308E+03  0.13183449894E+03  0.00000000000E+00 0. -1.
         -2    1    1    2    0  502  0.23190019086E+02  0.42328866339E+01  0.36526759155E+02  0.43472962274E+02  0.00000000000E+00 0.  1.
</event>
<event>
 4    1  0.5792100E+003  0.3864770E+02  0.7546771E-02  0.1356598E+00
          2   -1    0    0  501    0  0.00000000000E+00  0.00000000000E+00  0.12352208276E+04  0.12352208276E+04  0.00000000000E+00 0. -1.
         -2   -1    0    0    0  501 -0.00000000000E+00 -0.00000000000E+00 -0.24813814471E+01  0.24813814471E+01  0.00000000000E+00 0.  1.
          2    1    1    2  502    0 -0.19084847126E+01  0.38600545325E+02  0.10594799845E+04  0.10601846452E+04  0.00000000000E+00 0. -1.
         -2    1    1    2    0  502  0.19084847126E+01 -0.38600545325E+02  0.17325946164E+03  0.17751756381E+03  0.00000000000E+00 0.  1.
</event>
<event>
 4    1  0.5792100E+003  0.2430911E+02  0.7546771E-02  0.1476683E+00
          2   -1    0    0  501    0  0.00000000000E+00  0.00000000000E+00  0.11431356316E+04  0.11431356316E+04  0.00000000000E+00 0.  1.
         -2   -1    0    0    0  501 -0.00000000000E+00 -0.00000000000E+00 -0.21755154330E+01  0.21755154330E+01  0.00000000000E+00 0.  1.
          2    1    1    2  502    0 -0.20177263282E+02  0.13557685528E+02  0.10704915574E+04  0.10707675319E+04  0.00000000000E+00 0.  1.
         -2    1    1    2    0  502  0.20177263282E+02 -0.13557685528E+02  0.70468558759E+02  0.74543615179E+02  0.00000000000E+00 0.  1.
</event>
<event>
 4    1  0.5792100E+003  0.2430898E+02  0.7546771E-02  0.1476684E+00
          2   -1    0    0  501    0  0.00000000000E+00  0.00000000000E+00  0.16115311747E+04  0.16115311747E+04  0.00000000000E+00 0.  1.
         -2   -1    0    0    0  501 -0.00000000000E+00 -0.00000000000E+00 -0.19289576308E+01  0.19289576308E+01  0.00000000000E+00 0.  1.
          2    1    1    2  502    0 -0.24220296031E+02 -0.20745545909E+01  0.15308153177E+04  0.15310083159E+04  0.00000000000E+00 0.  1.
         -2    1    1    2    0  502  0.24220296031E+02  0.20745545909E+01  0.78786899320E+02  0.82451816359E+02  0.00000000000E+00 0.  1.
</event>
<event>
 4    1  0.5792100E+003  0.2188838E+02  0.7546771E-02  0.1506949E+00
          2   -1    0    0  501    0  0.00000000000E+00  0.00000000000E+00  0.25245846981E+03  0.25245846981E+03  0.00000000000E+00 0. -1.
         -2   -1    0    0    0  501 -0.00000000000E+00 -0.00000000000E+00 -0.27893649372E+01  0.27893649372E+01  0.00000000000E+00 0. -1.
          2    1    1    2  502    0 -0.19418957751E+01  0.21802068797E+02  0.19699012897E+03  0.19820245224E+03  0.00000000000E+00 0. -1.
         -2    1    1    2    0  502  0.19418957751E+01 -0.21802068797E+02  0.52678975904E+02  0.57045382507E+02  0.00000000000E+00 0. -1.
</event>
<event>
 4    1  0.5792100E+003  0.2339744E+02  0.7546771E-02  0.1487567E+00
          2   -1    0    0  501    0  0.00000000000E+00  0.00000000000E+00  0.83983779311E+03  0.83983779311E+03  0.00000000000E+00 0.  1.
         -2   -1    0    0    0  501 -0.00000000000E+00 -0.00000000000E+00 -0.71450546849E+01  0.71450546849E+01  0.00000000000E+00 0.  1.
          2    1    1    2  502    0 -0.19518895419E+02  0.12901662118E+02  0.82005841755E+03  0.82039213085E+03  0.00000000000E+00 0.  1.
         -2    1    1    2    0  502  0.19518895419E+02 -0.12901662118E+02  0.12634320877E+02  0.26590716948E+02  0.00000000000E+00 0.  1.
</event>
<event>
 4    1  0.5792100E+003  0.2313338E+02  0.7546771E-02  0.1490830E+00
          2   -1    0    0  501    0  0.00000000000E+00  0.00000000000E+00  0.90791055448E+02  0.90791055448E+02  0.00000000000E+00 0. -1.
         -2   -1    0    0    0  501 -0.00000000000E+00 -0.00000000000E+00 -0.13135680205E+02  0.13135680205E+02  0.00000000000E+00 0.  1.
          2    1    1    2  502    0 -0.13879813239E+02  0.18506871135E+02  0.77409305477E+02  0.80792042115E+02  0.00000000000E+00 0. -1.
         -2    1    1    2    0  502  0.13879813239E+02 -0.18506871135E+02  0.24606976542E+00  0.23134693538E+02  0.00000000000E+00 0.  1.
</event>
<event>
 4    1  0.5792100E+003  0.3412176E+02  0.7546771E-02  0.1386845E+00
          2   -1    0    0  501    0  0.00000000000E+00  0.00000000000E+00  0.23313926458E+03  0.23313926458E+03  0.00000000000E+00 0.  1.
         -2   -1    0    0    0  501 -0.00000000000E+00 -0.00000000000E+00 -0.43514106530E+02  0.43514106530E+02  0.00000000000E+00 0.  1.
          2    1    1    2  502    0  0.15717141811E+02 -0.30286395671E+02  0.22495975599E+03  0.22753282428E+03  0.00000000000E+00 0.  1.
         -2    1    1    2    0  502 -0.15717141811E+02  0.30286395671E+02 -0.35334597939E+02  0.49120546831E+02  0.00000000000E+00 0.  1.
</event>
<event>
 4    1  0.5792100E+003  0.3426277E+02  0.7546771E-02  0.1385821E+00
          2   -1    0    0  501    0  0.00000000000E+00  0.00000000000E+00  0.36068071865E+01  0.36068071865E+01  0.00000000000E+00 0.  1.
         -2   -1    0    0    0  501 -0.00000000000E+00 -0.00000000000E+00 -0.11545468790E+04  0.11545468790E+04  0.00000000000E+00 0. -1.
          2    1    1    2  502    0 -0.10327448364E+02  0.32669268483E+02 -0.84759194227E+02  0.91422416829E+02  0.00000000000E+00 0.  1.
         -2    1    1    2    0  502  0.10327448364E+02 -0.32669268483E+02 -0.10661808776E+04  0.10667312694E+04  0.00000000000E+00 0. -1.
</event>
<event>
 4    1  0.5792100E+003  0.2531465E+02  0.7546771E-02  0.1465314E+00
          2   -1    0    0  501    0  0.00000000000E+00  0.00000000000E+00  0.33747394317E+03  0.33747394317E+03  0.00000000000E+00 0.  1.
         -2   -1    0    0    0  501 -0.00000000000E+00 -0.00000000000E+00 -0.81545648041E+02  0.81545648041E+02  0.00000000000E+00 0. -1.
          2    1    1    2  502    0  0.19021456240E+02 -0.16703767501E+02  0.33502020672E+03  0.33597525289E+03  0.00000000000E+00 0.  1.
         -2    1    1    2    0  502 -0.19021456240E+02  0.16703767501E+02 -0.79091911595E+02  0.83044338313E+02  0.00000000000E+00 0. -1.
</event>
<event>
 4    1  0.5792100E+003  0.2492972E+02  0.7546771E-02  0.1469591E+00
          2   -1    0    0  501    0  0.00000000000E+00  0.00000000000E+00  0.82407912929E+03  0.82407912929E+03  0.00000000000E+00 0. -1.
         -2   -1    0    0    0  501 -0.00000000000E+00 -0.00000000000E+00 -0.80101906932E+00  0.80101906932E+00  0.00000000000E+00 0.  1.
          2    1    1    2  502    0  0.15112160391E+02 -0.19827086261E+02  0.51139025335E+03  0.51199754098E+03  0.00000000000E+00 0. -1.
         -2    1    1    2    0  502 -0.15112160391E+02  0.19827086261E+02  0.31188785686E+03  0.31288260738E+03  0.00000000000E+00 0.  1.
</event>
<event>
 4    1  0.5792100E+003  0.2932256E+02  0.7546771E-02  0.1425576E+00
          2   -1    0    0  501    0  0.00000000000E+00  0.00000000000E+00  0.34811370601E+02  0.34811370601E+02  0.00000000000E+00 0.  1.
         -2   -1    0    0    0  501 -0.00000000000E+00 -0.00000000000E+00 -0.77807694135E+02  0.77807694135E+02  0.00000000000E+00 0.  1.
          2    1    1    2  502    0  0.10997136383E+02  0.27182267082E+02  0.25023228325E+02  0.38548341185E+02  0.00000000000E+00 0.  1.
         -2    1    1    2    0  502 -0.10997136383E+02 -0.27182267082E+02 -0.68019551858E+02  0.74070723551E+02  0.00000000000E+00 0.  1.
</event>
<event>
 4    1  0.5792100E+003  0.2583176E+02  0.7546771E-02  0.1459710E+00
          2   -1    0    0  501    0  0.00000000000E+00  0.00000000000E+00  0.21033427073E+03  0.21033427073E+03  0.00000000000E+00 0.  1.
         -2   -1    0    0    0  501 -0.00000000000E+00 -0.00000000000E+00 -0.13339308447E+04  0.13339308447E+04  0.00000000000E+00 0.  1.
          2    1    1    2  502    0  0.10925389049E+02  0.23407594178E+02  0.20941554727E+03  0.21100272754E+03  0.00000000000E+00 0.  1.
         -2    1    1    2    0  502 -0.10925389049E+02 -0.23407594178E+02 -0.13330121213E+04  0.13332623879E+04  0.00000000000E+00 0.  1.
</event>
<event>
 4    1  0.5792100E+003  0.2136345E+02  0.7546771E-02  0.1514138E+00
          2   -1    0    0  501    0  0.00000000000E+00  0.00000000000E+00  0.34342595300E+03  0.34342595300E+03  0.00000000000E+00 0. -1.
         -2   -1    0    0    0  501 -0.00000000000E+00 -0.00000000000E+00 -0.32095468205E+01  0.32095468205E+01  0.00000000000E+00 0.  1.
          2    1    1    2  502    0  0.29999213128E+01 -0.21151773951E+02  0.30277695603E+03  0.30352970559E+03  0.00000000000E+00 0. -1.
         -2    1    1    2    0  502 -0.29999213128E+01  0.21151773951E+02  0.37439450142E+02  0.43105794229E+02  0.00000000000E+00 0.  1.
</event>
<event>
 4    1  0.5792100E+003  0.2212149E+02  0.7546771E-02  0.1503834E+00
          2   -1    0    0  501    0  0.00000000000E+00  0.00000000000E+00  0.80184885733E+03  0.80184885733E+03  0.00000000000E+00 0. -1.
         -2   -1    0    0    0  501 -0.00000000000E+00 -0.00000000000E+00 -0.78813771676E+01  0.78813771676E+01  0.00000000000E+00 0.  1.
          2    1    1    2  502    0 -0.22034419095E+02 -0.19608039991E+01  0.78585780379E+03  0.78616909641E+03  0.00000000000E+00 0. -1.
         -2    1    1    2    0  502  0.22034419095E+02  0.19608039991E+01  0.81096763795E+01  0.23561138092E+02  0.00000000000E+00 0.  1.
</event>
<event>
 4    1  0.5792100E+003  0.2518921E+02  0.7546771E-02  0.1466698E+00
          2   -1    0    0  501    0  0.00000000000E+00  0.00000000000E+00  0.35396835667E+03  0.35396835667E+03  0.00000000000E+00 0.  1.
         -2   -1    0    0    0  501 -0.00000000000E+00 -0.00000000000E+00 -0.90844265668E+01  0.90844265668E+01  0.00000000000E+00 0. -1.
          2    1    1    2  502    0 -0.24612756551E+02  0.53580442360E+01  0.33507601371E+03  0.33602147459E+03  0.00000000000E+00 0.  1.
         -2    1    1    2    0  502  0.24612756551E+02 -0.53580442360E+01  0.98079163936E+01  0.27031308645E+02  0.00000000000E+00 0. -1.
</event>
<event>
 4    1  0.5792100E+003  0.2509319E+02  0.7546771E-02  0.1467763E+00
          2   -1    0    0  501    0  0.00000000000E+00  0.00000000000E+00  0.14849613309E+03  0.14849613309E+03  0.00000000000E+00 0.  1.
         -2   -1    0    0    0  501 -0.00000000000E+00 -0.00000000000E+00 -0.22499587274E+02  0.22499587274E+02  0.00000000000E+00 0.  1.
          2    1    1    2  502    0  0.17907469834E+02 -0.17578135494E+02  0.14001939949E+03  0.14225013377E+03  0.00000000000E+00 0.  1.
         -2    1    1    2    0  502 -0.17907469834E+02  0.17578135494E+02 -0.14022853678E+02  0.28745586593E+02  0.00000000000E+00 0.  1.
</event>
<event>
 4    1  0.5792100E+003  0.2235238E+02  0.7546771E-02  0.1500794E+00
          2   -1    0    0  501    0  0.00000000000E+00  0.00000000000E+00  0.65170371446E+03  0.65170371446E+03  0.00000000000E+00 0.  1.
         -2   -1    0    0    0  501 -0.00000000000E+00 -0.00000000000E+00 -0.14699843665E+01  0.14699843665E+01  0.00000000000E+00 0.  1.
          2    1    1    2  502    0  0.86430563009E+01 -0.20613744516E+02  0.55102046108E+03  0.55147364163E+03  0.00000000000E+00 0.  1.
         -2    1    1    2    0  502 -0.86430563009E+01  0.20613744516E+02  0.99213269012E+02  0.10170005719E+03  0.00000000000E+00 0.  1.
</event>
<event>
 4    1  0.5792100E+003  0.2015611E+02  0.7546771E-02  0.1531663E+00
          2   -1    0    0  501    0  0.00000000000E+00  0.00000000000E+00  0.15137055184E+04  0.15137055184E+04  0.00000000000E+00 0. -1.
         -2   -1    0    0    0  501 -0.00000000000E+00 -0.00000000000E+00 -0.53319753798E+01  0.53319753798E+01  0.00000000000E+00 0. -1.
          2    1    1    2  502    0  0.90425819094E+01 -0.18013895141E+02  0.14943429165E+04  0.14944788459E+04  0.00000000000E+00 0. -1.
         -2    1    1    2    0  502 -0.90425819094E+01  0.18013895141E+02  0.14030626516E+02  0.24558647890E+02  0.00000000000E+00 0. -1.
</event>
<event>
 4    1  0.5792100E+003  0.2477116E+02  0.7546771E-02  0.1471380E+00
          2   -1    0    0  501    0  0.00000000000E+00  0.00000000000E+00  0.36820508556E+03  0.36820508556E+03  0.00000000000E+00 0. -1.
         -2   -1    0    0    0  501 -0.00000000000E+00 -0.00000000000E+00 -0.17608532165E+01  0.17608532165E+01  0.00000000000E+00 0. -1.
          2    1    1    2  502    0 -0.23094612976E+02 -0.89582049744E+01  0.22604426568E+03  0.22739749477E+03  0.00000000000E+00 0. -1.
         -2    1    1    2    0  502  0.23094612976E+02  0.89582049744E+01  0.14039996667E+03  0.14256844400E+03  0.00000000000E+00 0. -1.
</event>
<event>
 4    1  0.5792100E+003  0.2604397E+02  0.7546771E-02  0.1457455E+00
          2   -1    0    0  501    0  0.00000000000E+00  0.00000000000E+00  0.15971802105E+04  0.15971802105E+04  0.00000000000E+00 0. -1.
         -2   -1    0    0    0  501 -0.00000000000E+00 -0.00000000000E+00 -0.10110771463E+02  0.10110771463E+02  0.00000000000E+00 0.  1.
          2    1    1    2  502    0 -0.20272341105E+02  0.16349943390E+02  0.15801215604E+04  0.15803361775E+04  0.00000000000E+00 0. -1.
         -2    1    1    2    0  502  0.20272341105E+02 -0.16349943390E+02  0.69478786336E+01  0.26954804400E+02  0.00000000000E+00 0.  1.
</event>
<event>
 4    1  0.5792100E+003  0.5576920E+02  0.7546771E-02  0.1274927E+00
          2   -1    0    0  501    0  0.00000000000E+00  0.00000000000E+00  0.63170789567E+03  0.63170789567E+03  0.00000000000E+00 0. -1.
         -2   -1    0    0    0  501 -0.00000000000E+00 -0.00000000000E+00 -0.58603542489E+01  0.58603542489E+01  0.00000000000E+00 0.  1.
          2    1    1    2  502    0  0.76272009158E+01  0.55245179111E+02  0.44038390396E+03  0.44390110033E+03  0.00000000000E+00 0. -1.
         -2    1    1    2    0  502 -0.76272009158E+01 -0.55245179111E+02  0.18546363746E+03  0.19366714959E+03  0.00000000000E+00 0.  1.
</event>
<event>
 4    1  0.5792100E+003  0.3384965E+02  0.7546771E-02  0.1388836E+00
          2   -1    0    0  501    0  0.00000000000E+00  0.00000000000E+00  0.84610739969E+03  0.84610739969E+03  0.00000000000E+00 0. -1.
         -2   -1    0    0    0  501 -0.00000000000E+00 -0.00000000000E+00 -0.14602228982E+01  0.14602228982E+01  0.00000000000E+00 0.  1.
          2    1    1    2  502    0  0.20007177166E+02  0.27304056683E+02  0.53651530450E+03  0.53758205942E+03  0.00000000000E+00 0. -1.
         -2    1    1    2    0  502 -0.20007177166E+02 -0.27304056683E+02  0.30813187229E+03  0.30998556317E+03  0.00000000000E+00 0.  1.
</event>
<event>
 4    1  0.5792100E+003  0.2098425E+02  0.7546771E-02  0.1519490E+00
          2   -1    0    0  501    0  0.00000000000E+00  0.00000000000E+00  0.20094962058E+02  0.20094962058E+02  0.00000000000E+00 0. -1.
         -2   -1    0    0    0  501 -0.00000000000E+00 -0.00000000000E+00 -0.43740588707E+02  0.43740588707E+02  0.00000000000E+00 0. -1.
          2    1    1    2  502    0 -0.14995436965E+02 -0.14679094201E+02  0.10724466618E+02  0.23565931354E+02  0.00000000000E+00 0. -1.
         -2    1    1    2    0  502  0.14995436965E+02  0.14679094201E+02 -0.34370093267E+02  0.40269619411E+02  0.00000000000E+00 0. -1.
</event>
<event>
 4    1  0.5792100E+003  0.3145373E+02  0.7546771E-02  0.1407371E+00
          2   -1    0    0  501    0  0.00000000000E+00  0.00000000000E+00  0.21339203850E+02  0.21339203850E+02  0.00000000000E+00 0. -1.
         -2   -1    0    0    0  501 -0.00000000000E+00 -0.00000000000E+00 -0.48895326907E+02  0.48895326907E+02  0.00000000000E+00 0. -1.
          2    1    1    2  502    0 -0.28155849440E+02 -0.14020886094E+02 -0.57853022283E+01  0.31981351228E+02  0.00000000000E+00 0. -1.
         -2    1    1    2    0  502  0.28155849440E+02  0.14020886094E+02 -0.21770820829E+02  0.38253179529E+02  0.00000000000E+00 0. -1.
</event>
<event>
 4    1  0.5792100E+003  0.2880207E+02  0.7546771E-02  0.1430300E+00
          2   -1    0    0  501    0  0.00000000000E+00  0.00000000000E+00  0.18393310129E+04  0.18393310129E+04  0.00000000000E+00 0.  1.
         -2   -1    0    0    0  501 -0.00000000000E+00 -0.00000000000E+00 -0.73741405720E+00  0.73741405720E+00  0.00000000000E+00 0.  1.
          2    1    1    2  502    0  0.14446435456E+02 -0.24917062756E+02  0.14926690711E+04  0.14929469232E+04  0.00000000000E+00 0.  1.
         -2    1    1    2    0  502 -0.14446435456E+02  0.24917062756E+02  0.34592452774E+03  0.34712150381E+03  0.00000000000E+00 0.  1.
</event>
<event>
 4    1  0.5792100E+003  0.2135860E+02  0.7546771E-02  0.1514206E+00
          2   -1    0    0  501    0  0.00000000000E+00  0.00000000000E+00  0.25842884683E+03  0.25842884683E+03  0.00000000000E+00 0.  1.
         -2   -1    0    0    0  501 -0.00000000000E+00 -0.00000000000E+00 -0.18664856889E+01  0.18664856889E+01  0.00000000000E+00 0. -1.
          2    1    1    2  502    0  0.18748852457E+02  0.10230858835E+02  0.15859244094E+03  0.16002422400E+03  0.00000000000E+00 0.  1.
         -2    1    1    2    0  502 -0.18748852457E+02 -0.10230858835E+02  0.97969920194E+02  0.10027110852E+03  0.00000000000E+00 0. -1.
</event>
<event>
 4    1  0.5792100E+003  0.4206426E+02  0.7546771E-02  0.1336796E+00
          2   -1    0    0  501    0  0.00000000000E+00  0.00000000000E+00  0.90512967744E+01  0.90512967744E+01  0.00000000000E+00 0. -1.
         -2   -1    0    0    0  501 -0.00000000000E+00 -0.00000000000E+00 -0.64584557590E+03  0.64584557590E+03  0.00000000000E+00 0. -1.
          2    1    1    2  502    0  0.10376298865E+02 -0.40764376091E+02 -0.44959516627E+02  0.61569148699E+02  0.00000000000E+00 0. -1.
         -2    1    1    2    0  502 -0.10376298865E+02  0.40764376091E+02 -0.59183476250E+03  0.59332772398E+03  0.00000000000E+00 0. -1.
</event>
<event>
 4    1  0.5792100E+003  0.2337087E+02  0.7546771E-02  0.1487893E+00
          2   -1    0    0  501    0  0.00000000000E+00  0.00000000000E+00  0.58771355006E+03  0.58771355006E+03  0.00000000000E+00 0.  1.
         -2   -1    0    0    0  501 -0.00000000000E+00 -0.00000000000E+00 -0.14629256477E+03  0.14629256477E+03  0.00000000000E+00 0. -1.
          2    1    1    2  502    0  0.10580491649E+02  0.20838688412E+02  0.58654595294E+03  0.58701137352E+03  0.00000000000E+00 0.  1.
         -2    1    1    2    0  502 -0.10580491649E+02 -0.20838688412E+02 -0.14512496764E+03  0.14699474131E+03  0.00000000000E+00 0. -1.
</event>
<event>
 4    1  0.5792100E+003  0.2447090E+02  0.7546771E-02  0.1474810E+00
          2   -1    0    0  501    0  0.00000000000E+00  0.00000000000E+00  0.20329479397E+02  0.20329479397E+02  0.00000000000E+00 0. -1.
         -2   -1    0    0    0  501 -0.00000000000E+00 -0.00000000000E+00 -0.42933543347E+03  0.42933543347E+03  0.00000000000E+00 0.  1.
          2    1    1    2  502    0 -0.23072229116E+02 -0.81545777407E+01  0.12479758370E+02  0.27469424156E+02  0.00000000000E+00 0. -1.
         -2    1    1    2    0  502  0.23072229116E+02  0.81545777407E+01 -0.42148571244E+03  0.42219548871E+03  0.00000000000E+00 0.  1.
</event>
<event>
 4    1  0.5792100E+003  0.7069849E+02  0.7546771E-02  0.1227262E+00
          2   -1    0    0  501    0  0.00000000000E+00  0.00000000000E+00  0.89933851515E+02  0.89933851515E+02  0.00000000000E+00 0.  1.
         -2   -1    0    0    0  501 -0.00000000000E+00 -0.00000000000E+00 -0.10831708421E+04  0.10831708421E+04  0.00000000000E+00 0.  1.
          2    1    1    2  502    0  0.35303011691E+02 -0.61253359703E+02  0.74687772577E+02  0.10284230687E+03  0.00000000000E+00 0.  1.
         -2    1    1    2    0  502 -0.35303011691E+02  0.61253359703E+02 -0.10679247632E+04  0.10702623868E+04  0.00000000000E+00 0.  1.
</event>
<event>
 4    1  0.5792100E+003  0.2276571E+02  0.7546771E-02  0.1495461E+00
          2   -1    0    0  501    0  0.00000000000E+00  0.00000000000E+00  0.63004182928E+00  0.63004182928E+00  0.00000000000E+00 0.  1.
         -2   -1    0    0    0  501 -0.00000000000E+00 -0.00000000000E+00 -0.10959173528E+04  0.10959173528E+04  0.00000000000E+00 0.  1.
          2    1    1    2  502    0 -0.21154826323E+02  0.84113581905E+01 -0.27384233582E+03  0.27478701299E+03  0.00000000000E+00 0.  1.
         -2    1    1    2    0  502  0.21154826323E+02 -0.84113581905E+01 -0.82144497519E+03  0.82176038167E+03  0.00000000000E+00 0.  1.
</event>
<event>
 4    1  0.5792100E+003  0.5510660E+02  0.7546771E-02  0.1277431E+00
          2   -1    0    0  501    0  0.00000000000E+00  0.00000000000E+00  0.90168145563E+01  0.90168145563E+01  0.00000000000E+00 0.  1.
         -2   -1    0    0    0  501 -0.00000000000E+00 -0.00000000000E+00 -0.63390280252E+03  0.63390280252E+03  0.00000000000E+00 0.  1.
          2    1    1    2  502    0  0.52122540877E+02 -0.17887935172E+02 -0.92363841612E+02  0.10755378529E+03  0.00000000000E+00 0.  1.
         -2    1    1    2    0  502 -0.52122540877E+02  0.17887935172E+02 -0.53252214636E+03  0.53536583179E+03  0.00000000000E+00 0.  1.
</event>
<event>
 4    1  0.5792100E+003  0.3455222E+02  0.7546771E-02  0.1383739E+00
          2   -1    0    0  501    0  0.00000000000E+00  0.00000000000E+00  0.19830126647E+04  0.19830126647E+04  0.00000000000E+00 0. -1.
         -2   -1    0    0    0  501 -0.00000000000E+00 -0.00000000000E+00 -0.48475320368E+01  0.48475320368E+01  0.00000000000E+00 0. -1.
          2    1    1    2  502    0  0.28655933948E+02 -0.19305265860E+02  0.19192463774E+04  0.19195573742E+04  0.00000000000E+00 0. -1.
         -2    1    1    2    0  502 -0.28655933948E+02  0.19305265860E+02  0.58918755328E+02  0.68302822561E+02  0.00000000000E+00 0. -1.
</event>
<event>
 4    1  0.5792100E+003  0.3029841E+02  0.7546771E-02  0.1417021E+00
          2   -1    0    0  501    0  0.00000000000E+00  0.00000000000E+00  0.53729444149E+01  0.53729444149E+01  0.00000000000E+00 0. -1.
         -2   -1    0    0    0  501 -0.00000000000E+00 -0.00000000000E+00 -0.25935624989E+03  0.25935624989E+03  0.00000000000E+00 0.  1.
          2    1    1    2  502    0 -0.94492361488E+01 -0.28787250551E+02 -0.49670478456E+02  0.58182044379E+02  0.00000000000E+00 0. -1.
         -2    1    1    2    0  502  0.94492361488E+01  0.28787250551E+02 -0.20431282702E+03  0.20654714993E+03  0.00000000000E+00 0.  1.
</event>
<event>
 4    1  0.5998866E+003  0.3223120E+02  0.7546771E-02  0.1401149E+00
          2   -1    0    0  501    0  0.00000000000E+00  0.00000000000E+00  0.85397403633E+03  0.85397403633E+03  0.00000000000E+00 0. -1.
         -2   -1    0    0    0  501 -0.00000000000E+00 -0.00000000000E+00 -0.14488668155E+03  0.14488668155E+03  0.00000000000E+00 0.  1.
          2    1    1    2  502    0 -0.30857922250E+02  0.93079957190E+01  0.85187297273E+03  0.85248249942E+03  0.00000000000E+00 0. -1.
         -2    1    1    2    0  502  0.30857922250E+02 -0.93079957190E+01 -0.14278561794E+03  0.14637821846E+03  0.00000000000E+00 0.  1.
</event>
<event>
 4    1  0.5792100E+003  0.2061794E+02  0.7546771E-02  0.1524790E+00
          2   -1    0    0  501    0  0.00000000000E+00  0.00000000000E+00  0.18262346167E+02  0.18262346167E+02  0.00000000000E+00 0.  1.
         -2   -1    0    0    0  501 -0.00000000000E+00 -0.00000000000E+00 -0.95054877228E+02  0.95054877228E+02  0.00000000000E+00 0.  1.
          2    1    1    2  502    0  0.11373839099E+02 -0.17196952562E+02  0.10838617586E+02  0.23293239888E+02  0.00000000000E+00 0.  1.
         -2    1    1    2    0  502 -0.11373839099E+02  0.17196952562E+02 -0.87631148648E+02  0.90023983508E+02  0.00000000000E+00 0.  1.
</event>
<event>
 4    1  0.5792100E+003  0.3074795E+02  0.7546771E-02  0.1413206E+00
          2   -1    0    0  501    0  0.00000000000E+00  0.00000000000E+00  0.94386275268E+03  0.94386275268E+03  0.00000000000E+00 0.  1.
         -2   -1    0    0    0  501 -0.00000000000E+00 -0.00000000000E+00 -0.10409116490E+02  0.10409116490E+02  0.00000000000E+00 0. -1.
          2    1    1    2  502    0  0.29710252491E+02 -0.79206990798E+01  0.92032481615E+03  0.92083831578E+03  0.00000000000E+00 0.  1.
         -2    1    1    2    0  502 -0.29710252491E+02  0.79206990798E+01  0.13128820040E+02  0.33433553395E+02  0.00000000000E+00 0. -1.
</event>
<event>
 4    1  0.5792100E+003  0.2242549E+02  0.7546771E-02  0.1499841E+00
          2   -1    0    0  501    0  0.00000000000E+00  0.00000000000E+00  0.10360050659E+03  0.10360050659E+03  0.00000000000E+00 0. -1.
         -2   -1    0    0    0  501 -0.00000000000E+00 -0.00000000000E+00 -0.72598973411E+01  0.72598973411E+01  0.00000000000E+00 0.  1.
          2    1    1    2  502    0 -0.22414283682E+02  0.70874448449E+00  0.80078150625E+02  0.83158960065E+02  0.00000000000E+00 0. -1.
         -2    1    1    2    0  502  0.22414283682E+02 -0.70874448449E+00  0.16262458624E+02  0.27701443865E+02  0.00000000000E+00 0.  1.
</event>
<event>
 4    1  0.5792100E+003  0.2092101E+02  0.7546771E-02  0.1520396E+00
          2   -1    0    0  501    0  0.00000000000E+00  0.00000000000E+00  0.12175937789E+01  0.12175937789E+01  0.00000000000E+00 0. -1.
         -2   -1    0    0    0  501 -0.00000000000E+00 -0.00000000000E+00 -0.36209295012E+03  0.36209295012E+03  0.00000000000E+00 0. -1.
          2    1    1    2  502    0  0.76151737561E+01 -0.19485838791E+02 -0.16497768651E+03  0.16629890508E+03  0.00000000000E+00 0. -1.
         -2    1    1    2    0  502 -0.76151737561E+01  0.19485838791E+02 -0.19589766982E+03  0.19701163881E+03  0.00000000000E+00 0. -1.
</event>
<event>
 4    1  0.5792100E+003  0.2694112E+02  0.7546771E-02  0.1448200E+00
          2   -1    0    0  501    0  0.00000000000E+00  0.00000000000E+00  0.88417466370E+03  0.88417466370E+03  0.00000000000E+00 0.  1.
         -2   -1    0    0    0  501 -0.00000000000E+00 -0.00000000000E+00 -0.83235775018E+00  0.83235775018E+00  0.00000000000E+00 0.  1.
          2    1    1    2  502    0  0.14850817232E+02 -0.22478353269E+02  0.38976459086E+03  0.39069458587E+03  0.00000000000E+00 0.  1.
         -2    1    1    2    0  502 -0.14850817232E+02  0.22478353269E+02  0.49357771509E+03  0.49431243558E+03  0.00000000000E+00 0.  1.
</event>
<event>
 4    1  0.5792100E+003  0.2900126E+02  0.7546771E-02  0.1428479E+00
          2   -1    0    0  501    0  0.00000000000E+00  0.00000000000E+00  0.24468396743E+02  0.24468396743E+02  0.00000000000E+00 0.  1.
         -2   -1    0    0    0  501 -0.00000000000E+00 -0.00000000000E+00 -0.37597881419E+02  0.37597881419E+02  0.00000000000E+00 0.  1.
          2    1    1    2  502    0 -0.22692870817E+02  0.18058420936E+02  0.25227442383E+01  0.29110774485E+02  0.00000000000E+00 0.  1.
         -2    1    1    2    0  502  0.22692870817E+02 -0.18058420936E+02 -0.15652228915E+02  0.32955503677E+02  0.00000000000E+00 0.  1.
</event>
<event>
 4    1  0.5792100E+003  0.2485211E+02  0.7546771E-02  0.1470465E+00
          2   -1    0    0  501    0  0.00000000000E+00  0.00000000000E+00  0.11462894249E+02  0.11462894249E+02  0.00000000000E+00 0. -1.
         -2   -1    0    0    0  501 -0.00000000000E+00 -0.00000000000E+00 -0.17414777654E+03  0.17414777654E+03  0.00000000000E+00 0.  1.
          2    1    1    2  502    0  0.13727720427E+02 -0.20716591284E+02 -0.42187938034E+01  0.25207651293E+02  0.00000000000E+00 0. -1.
         -2    1    1    2    0  502 -0.13727720427E+02  0.20716591284E+02 -0.15846608849E+03  0.16040301949E+03  0.00000000000E+00 0.  1.
</event>
<event>
 4    1  0.5792100E+003  0.2407357E+02  0.7546771E-02  0.1479440E+00
          2   -1    0    0  501    0  0.00000000000E+00  0.00000000000E+00  0.32574404255E+03  0.32574404255E+03  0.00000000000E+00 0.  1.
         -2   -1    0    0    0  501 -0.00000000000E+00 -0.00000000000E+00 -0.10347383770E+02  0.10347383770E+02  0.00000000000E+00 0.  1.
          2    1    1    2  502    0 -0.20235518507E+02 -0.13040728781E+02  0.31061634212E+03  0.31154782748E+03  0.00000000000E+00 0.  1.
         -2    1    1    2    0  502  0.20235518507E+02  0.13040728781E+02  0.47803166551E+01  0.24543598834E+02  0.00000000000E+00 0.  1.
</event>
<event>
 4    1  0.5792100E+003  0.3076418E+02  0.7546771E-02  0.1413070E+00
          2   -1    0    0  501    0  0.00000000000E+00  0.00000000000E+00  0.38560566574E+02  0.38560566574E+02  0.00000000000E+00 0. -1.
         -2   -1    0    0    0  501 -0.00000000000E+00 -0.00000000000E+00 -0.40204018171E+02  0.40204018171E+02  0.00000000000E+00 0.  1.
          2    1    1    2  502    0  0.44607367763E+00  0.30760942023E+02  0.23757090167E+02  0.38869446473E+02  0.00000000000E+00 0. -1.
         -2    1    1    2    0  502 -0.44607367763E+00 -0.30760942023E+02 -0.25400541764E+02  0.39895138273E+02  0.00000000000E+00 0.  1.
</event>
<event>
 4    1  0.5792100E+003  0.2285169E+02  0.7546771E-02  0.1494369E+00
          2   -1    0    0  501    0  0.00000000000E+00  0.00000000000E+00  0.77880724867E+03  0.77880724867E+03  0.00000000000E+00 0.  1.
         -2   -1    0    0    0  501 -0.00000000000E+00 -0.00000000000E+00 -0.33658271807E+01  0.33658271807E+01  0.00000000000E+00 0.  1.
          2    1    1    2  502    0 -0.14621753443E+02 -0.17561433984E+02  0.73769145060E+03  0.73804530750E+03  0.00000000000E+00 0.  1.
         -2    1    1    2    0  502  0.14621753443E+02  0.17561433984E+02  0.37749970891E+02  0.44127768351E+02  0.00000000000E+00 0.  1.
</event>
<event>
 4    1  0.5792100E+003  0.3563690E+02  0.7546771E-02  0.1376140E+00
          2   -1    0    0  501    0  0.00000000000E+00  0.00000000000E+00  0.14883787140E+04  0.14883787140E+04  0.00000000000E+00 0.  1.
         -2   -1    0    0    0  501 -0.00000000000E+00 -0.00000000000E+00 -0.76537553772E+01  0.76537553772E+01  0.00000000000E+00 0. -1.
          2    1    1    2  502    0  0.35111884268E+02 -0.60946156618E+01  0.14454510805E+04  0.14458903191E+04  0.00000000000E+00 0.  1.
         -2    1    1    2    0  502 -0.35111884268E+02  0.60946156618E+01  0.35273878143E+02  0.50142150295E+02  0.00000000000E+00 0. -1.
</event>
<event>
 4    1  0.5792100E+003  0.2136595E+02  0.7546771E-02  0.1514104E+00
          2   -1    0    0  501    0  0.00000000000E+00  0.00000000000E+00  0.68446893866E+02  0.68446893866E+02  0.00000000000E+00 0.  1.
         -2   -1    0    0    0  501 -0.00000000000E+00 -0.00000000000E+00 -0.29758000519E+03  0.29758000519E+03  0.00000000000E+00 0.  1.
          2    1    1    2  502    0  0.21365482751E+02 -0.14116135967E+00  0.66384393689E+02  0.69738020513E+02  0.00000000000E+00 0.  1.
         -2    1    1    2    0  502 -0.21365482751E+02  0.14116135967E+00 -0.29551750501E+03  0.29628887854E+03  0.00000000000E+00 0.  1.
</event>
<event>
 4    1  0.5792100E+003  0.2417522E+02  0.7546771E-02  0.1478246E+00
          2   -1    0    0  501    0  0.00000000000E+00  0.00000000000E+00  0.46093680787E+01  0.46093680787E+01  0.00000000000E+00 0.  1.
         -2   -1    0    0    0  501 -0.00000000000E+00 -0.00000000000E+00 -0.17588304867E+03  0.17588304867E+03  0.00000000000E+00 0.  1.
          2    1    1    2  502    0 -0.21535079199E+02 -0.10985525398E+02 -0.37959926011E+02  0.45004415196E+02  0.00000000000E+00 0.  1.
         -2    1    1    2    0  502  0.21535079199E+02  0.10985525398E+02 -0.13331375458E+03  0.13548800155E+03  0.00000000000E+00 0.  1.
</event>
<event>
 4    1  0.5792100E+003  0.3211704E+02  0.7546771E-02  0.1402049E+00
          2   -1    0    0  501    0  0.00000000000E+00  0.00000000000E+00  0.34295915255E+03  0.34295915255E+03  0.00000000000E+00 0. -1.
         -2   -1    0    0    0  501 -0.00000000000E+00 -0.00000000000E+00 -0.37547480564E+02  0.37547480564E+02  0.00000000000E+00 0.  1.
          2    1    1    2  502    0 -0.23746320118E+02  0.21624449200E+02  0.33518020656E+03  0.33671542197E+03  0.00000000000E+00 0. -1.
         -2    1    1    2    0  502  0.23746320118E+02 -0.21624449200E+02 -0.29768534577E+02  0.43791211141E+02  0.00000000000E+00 0.  1.
</event>
<event>
 4    1  0.5792100E+003  0.2277517E+02  0.7546771E-02  0.1495341E+00
          2   -1    0    0  501    0  0.00000000000E+00  0.00000000000E+00  0.23170875734E+01  0.23170875734E+01  0.00000000000E+00 0. -1.
         -2   -1    0    0    0  501 -0.00000000000E+00 -0.00000000000E+00 -0.31878740793E+03  0.31878740793E+03  0.00000000000E+00 0. -1.
          2    1    1    2  502    0  0.20888062902E+02 -0.90772974632E+01 -0.70624609030E+02  0.74206090732E+02  0.00000000000E+00 0. -1.
         -2    1    1    2    0  502 -0.20888062902E+02  0.90772974632E+01 -0.24584571133E+03  0.24689840477E+03  0.00000000000E+00 0. -1.
</event>
<event>
 4    1  0.5792100E+003  0.2210721E+02  0.7546771E-02  0.1504024E+00
          2   -1    0    0  501    0  0.00000000000E+00  0.00000000000E+00  0.49200462542E+01  0.49200462542E+01  0.00000000000E+00 0. -1.
         -2   -1    0    0    0  501 -0.00000000000E+00 -0.00000000000E+00 -0.10670732943E+03  0.10670732943E+03  0.00000000000E+00 0. -1.
          2    1    1    2  502    0  0.87739760959E+00 -0.22089789644E+02 -0.36222264734E+02  0.42435611172E+02  0.00000000000E+00 0. -1.
         -2    1    1    2    0  502 -0.87739760959E+00  0.22089789644E+02 -0.65565018445E+02  0.69191764516E+02  0.00000000000E+00 0. -1.
</event>
<event>
 4    1  0.5792100E+003  0.2279028E+02  0.7546771E-02  0.1495149E+00
          2   -1    0    0  501    0  0.00000000000E+00  0.00000000000E+00  0.34918861086E+03  0.34918861086E+03  0.00000000000E+00 0.  1.
         -2   -1    0    0    0  501 -0.00000000000E+00 -0.00000000000E+00 -0.28167435040E+03  0.28167435040E+03  0.00000000000E+00 0.  1.
          2    1    1    2  502    0  0.33598575126E+01  0.22541255022E+02  0.34835465812E+03  0.34909936215E+03  0.00000000000E+00 0.  1.
         -2    1    1    2    0  502 -0.33598575126E+01 -0.22541255022E+02 -0.28084039766E+03  0.28176359910E+03  0.00000000000E+00 0.  1.
</event>
<event>
 4    1  0.5792100E+003  0.2418868E+02  0.7546771E-02  0.1478088E+00
          2   -1    0    0  501    0  0.00000000000E+00  0.00000000000E+00  0.18507536814E+02  0.18507536814E+02  0.00000000000E+00 0.  1.
         -2   -1    0    0    0  501 -0.00000000000E+00 -0.00000000000E+00 -0.39189938275E+02  0.39189938275E+02  0.00000000000E+00 0. -1.
          2    1    1    2  502    0  0.42586654185E+01  0.23810839181E+02  0.23430682106E+01  0.24301898327E+02  0.00000000000E+00 0.  1.
         -2    1    1    2    0  502 -0.42586654185E+01 -0.23810839181E+02 -0.23025469672E+02  0.33395576762E+02  0.00000000000E+00 0. -1.
</event>
<event>
 4    1  0.5792100E+003  0.4921759E+02  0.7546771E-02  0.1301601E+00
          2   -1    0    0  501    0  0.00000000000E+00  0.00000000000E+00  0.39015843716E+03  0.39015843716E+03  0.00000000000E+00 0.  1.
         -2   -1    0    0    0  501 -0.00000000000E+00 -0.00000000000E+00 -0.84111768944E+01  0.84111768944E+01  0.00000000000E+00 0.  1.
          2    1    1    2  502    0  0.16176676096E+01  0.49190972787E+02  0.88896327957E+02  0.10161164193E+03  0.00000000000E+00 0.  1.
         -2    1    1    2    0  502 -0.16176676096E+01 -0.49190972787E+02  0.29285093231E+03  0.29695797212E+03  0.00000000000E+00 0.  1.
</event>
<event>
 4    1  0.5792100E+003  0.3485492E+02  0.7546771E-02  0.1381586E+00
          2   -1    0    0  501    0  0.00000000000E+00  0.00000000000E+00  0.22528818017E+02  0.22528818017E+02  0.00000000000E+00 0. -1.
         -2   -1    0    0    0  501 -0.00000000000E+00 -0.00000000000E+00 -0.11006780612E+03  0.11006780612E+03  0.00000000000E+00 0. -1.
          2    1    1    2  502    0 -0.15533842343E+02  0.31202010244E+02  0.35804547167E+01  0.35038341245E+02  0.00000000000E+00 0. -1.
         -2    1    1    2    0  502  0.15533842343E+02 -0.31202010244E+02 -0.91119442821E+02  0.97558282894E+02  0.00000000000E+00 0. -1.
</event>
<event>
 4    1  0.5792100E+003  0.2388106E+02  0.7546771E-02  0.1481721E+00
          2   -1    0    0  501    0  0.00000000000E+00  0.00000000000E+00  0.35491572474E+03  0.35491572474E+03  0.00000000000E+00 0. -1.
         -2   -1    0    0    0  501 -0.00000000000E+00 -0.00000000000E+00 -0.57848139397E+03  0.57848139397E+03  0.00000000000E+00 0.  1.
          2    1    1    2  502    0  0.17211270375E+02  0.16555277687E+02  0.35426708889E+03  0.35507108488E+03  0.00000000000E+00 0. -1.
         -2    1    1    2    0  502 -0.17211270375E+02 -0.16555277687E+02 -0.57783275812E+03  0.57832603382E+03  0.00000000000E+00 0.  1.
</event>
<event>
 4    1  0.5792100E+003  0.2521809E+02  0.7546771E-02  0.1466378E+00
          2   -1    0    0  501    0  0.00000000000E+00  0.00000000000E+00  0.94692120989E+01  0.94692120989E+01  0.00000000000E+00 0. -1.
         -2   -1    0    0    0  501 -0.00000000000E+00 -0.00000000000E+00 -0.12986590302E+03  0.12986590302E+03  0.00000000000E+00 0. -1.
          2    1    1    2  502    0 -0.22398289173E+02 -0.11587436480E+02 -0.11788096385E+02  0.27837227923E+02  0.00000000000E+00 0. -1.
         -2    1    1    2    0  502  0.22398289173E+02  0.11587436480E+02 -0.10860859453E+03  0.11149788719E+03  0.00000000000E+00 0. -1.
</event>
<event>
 4    1  0.5792100E+003  0.2558782E+02  0.7546771E-02  0.1462334E+00
          2   -1    0    0  501    0  0.00000000000E+00  0.00000000000E+00  0.29100134338E+02  0.29100134338E+02  0.00000000000E+00 0. -1.
         -2   -1    0    0    0  501 -0.00000000000E+00 -0.00000000000E+00 -0.23107290857E+02  0.23107290857E+02  0.00000000000E+00 0.  1.
          2    1    1    2  502    0 -0.23997145588E+02  0.88810735399E+01  0.72302136446E+01  0.26589705770E+02  0.00000000000E+00 0. -1.
         -2    1    1    2    0  502  0.23997145588E+02 -0.88810735399E+01 -0.12373701643E+01  0.25617719425E+02  0.00000000000E+00 0.  1.
</event>
<event>
 4    1  0.5792100E+003  0.2206512E+02  0.7546771E-02  0.1504583E+00
          2   -1    0    0  501    0  0.00000000000E+00  0.00000000000E+00  0.97639756992E+03  0.97639756992E+03  0.00000000000E+00 0. -1.
         -2   -1    0    0    0  501 -0.00000000000E+00 -0.00000000000E+00 -0.72979757968E+01  0.72979757968E+01  0.00000000000E+00 0. -1.
          2    1    1    2  502    0 -0.14515395516E+02 -0.16618443935E+02  0.95929741451E+03  0.95955114448E+03  0.00000000000E+00 0. -1.
         -2    1    1    2    0  502  0.14515395516E+02  0.16618443935E+02  0.98021796086E+01  0.24144401233E+02  0.00000000000E+00 0. -1.
</event>
<event>
 4    1  0.5792100E+003  0.4268090E+02  0.7546771E-02  0.1333453E+00
          2   -1    0    0  501    0  0.00000000000E+00  0.00000000000E+00  0.36524239751E+02  0.36524239751E+02  0.00000000000E+00 0. -1.
         -2   -1    0    0    0  501 -0.00000000000E+00 -0.00000000000E+00 -0.23094982788E+03  0.23094982788E+03  0.00000000000E+00 0.  1.
          2    1    1    2  502    0 -0.33005935023E+02  0.27060448459E+02  0.21206228926E+02  0.47658826704E+02  0.00000000000E+00 0. -1.
         -2    1    1    2    0  502  0.33005935023E+02 -0.27060448459E+02 -0.21563181706E+03  0.21981524093E+03  0.00000000000E+00 0.  1.
</event>
<event>
 4    1  0.5792100E+003  0.2942328E+02  0.7546771E-02  0.1424675E+00
          2   -1    0    0  501    0  0.00000000000E+00  0.00000000000E+00  0.12415199512E+04  0.12415199512E+04  0.00000000000E+00 0.  1.
         -2   -1    0    0    0  501 -0.00000000000E+00 -0.00000000000E+00 -0.37626393716E+01  0.37626393716E+01  0.00000000000E+00 0.  1.
          2    1    1    2  502    0 -0.15968551611E+02  0.24713047518E+02  0.11808703623E+04  0.11812368695E+04  0.00000000000E+00 0.  1.
         -2    1    1    2    0  502  0.15968551611E+02 -0.24713047518E+02  0.56886949527E+02  0.64045721048E+02  0.00000000000E+00 0.  1.
</event>
<event>
 4    1  0.5792100E+003  0.2424594E+02  0.7546771E-02  0.1477419E+00
          2   -1    0    0  501    0  0.00000000000E+00  0.00000000000E+00  0.58698675589E+01  0.58698675589E+01  0.00000000000E+00 0. -1.
         -2   -1    0    0    0  501 -0.00000000000E+00 -0.00000000000E+00 -0.20678611542E+03  0.20678611542E+03  0.00000000000E+00 0. -1.
          2    1    1    2  502    0  0.13690689028E+02  0.20010764353E+02 -0.24102746376E+02  0.34187834663E+02  0.00000000000E+00 0. -1.
         -2    1    1    2    0  502 -0.13690689028E+02 -0.20010764353E+02 -0.17681350148E+03  0.17846814832E+03  0.00000000000E+00 0. -1.
</event>
<event>
 4    1  0.5792100E+003  0.2426031E+02  0.7546771E-02  0.1477251E+00
          2   -1    0    0  501    0  0.00000000000E+00  0.00000000000E+00  0.52323021056E+03  0.52323021056E+03  0.00000000000E+00 0.  1.
         -2   -1    0    0    0  501 -0.00000000000E+00 -0.00000000000E+00 -0.34998242206E+01  0.34998242206E+01  0.00000000000E+00 0.  1.
          2    1    1    2  502    0  0.13812728256E+02  0.19944206990E+02  0.47681693258E+03  0.47743371273E+03  0.00000000000E+00 0.  1.
         -2    1    1    2    0  502 -0.13812728256E+02 -0.19944206990E+02  0.42913453760E+02  0.49296322053E+02  0.00000000000E+00 0.  1.
</event>
<event>
 4    1  0.5792100E+003  0.2457454E+02  0.7546771E-02  0.1473620E+00
          2   -1    0    0  501    0  0.00000000000E+00  0.00000000000E+00  0.96386664121E+02  0.96386664121E+02  0.00000000000E+00 0. -1.
         -2   -1    0    0    0  501 -0.00000000000E+00 -0.00000000000E+00 -0.79789069557E+01  0.79789069557E+01  0.00000000000E+00 0. -1.
          2    1    1    2  502    0  0.22530440095E+02 -0.98126186702E+01  0.68385700197E+02  0.72667132925E+02  0.00000000000E+00 0. -1.
         -2    1    1    2    0  502 -0.22530440095E+02  0.98126186702E+01  0.20022056968E+02  0.31698438152E+02  0.00000000000E+00 0. -1.
</event>
<event>
 4    1  0.5792100E+003  0.2578776E+02  0.7546771E-02  0.1460181E+00
          2   -1    0    0  501    0  0.00000000000E+00  0.00000000000E+00  0.49869671520E+03  0.49869671520E+03  0.00000000000E+00 0. -1.
         -2   -1    0    0    0  501 -0.00000000000E+00 -0.00000000000E+00 -0.24584295428E+01  0.24584295428E+01  0.00000000000E+00 0.  1.
          2    1    1    2  502    0  0.95375534456E+01  0.23959206504E+02  0.41762213009E+03  0.41841755704E+03  0.00000000000E+00 0. -1.
         -2    1    1    2    0  502 -0.95375534456E+01 -0.23959206504E+02  0.78616155571E+02  0.82737587702E+02  0.00000000000E+00 0.  1.
</event>
<event>
 4    1  0.5792100E+003  0.2099014E+02  0.7546771E-02  0.1519406E+00
          2   -1    0    0  501    0  0.00000000000E+00  0.00000000000E+00  0.60265504791E+03  0.60265504791E+03  0.00000000000E+00 0.  1.
         -2   -1    0    0    0  501 -0.00000000000E+00 -0.00000000000E+00 -0.20814626086E+02  0.20814626086E+02  0.00000000000E+00 0. -1.
          2    1    1    2  502    0 -0.13456286797E+02 -0.16109452821E+02  0.59713155980E+03  0.59750036471E+03  0.00000000000E+00 0.  1.
         -2    1    1    2    0  502  0.13456286797E+02  0.16109452821E+02 -0.15291137969E+02  0.25969309289E+02  0.00000000000E+00 0. -1.
</event>
<event>
 4    1  0.5792100E+003  0.2124061E+02  0.7546771E-02  0.1515857E+00
          2   -1    0    0  501    0  0.00000000000E+00  0.00000000000E+00  0.13507671540E+04  0.13507671540E+04  0.00000000000E+00 0.  1.
         -2   -1    0    0    0  501 -0.00000000000E+00 -0.00000000000E+00 -0.21599801807E+01  0.21599801807E+01  0.00000000000E+00 0.  1.
          2    1    1    2  502    0  0.62076331576E+01 -0.20313264094E+02  0.12962699901E+04  0.12964440021E+04  0.00000000000E+00 0.  1.
         -2    1    1    2    0  502 -0.62076331576E+01  0.20313264094E+02  0.52337183743E+02  0.56483132081E+02  0.00000000000E+00 0.  1.
</event>
<event>
 4    1  0.5792100E+003  0.6141601E+02  0.7546771E-02  0.1255096E+00
          2   -1    0    0  501    0  0.00000000000E+00  0.00000000000E+00  0.87295674455E+03  0.87295674455E+03  0.00000000000E+00 0.  1.
         -2   -1    0    0    0  501 -0.00000000000E+00 -0.00000000000E+00 -0.19783417891E+03  0.19783417891E+03  0.00000000000E+00 0. -1.
          2    1    1    2  502    0 -0.61415922928E+02 -0.10313487384E+00  0.86707772602E+03  0.86925008437E+03  0.00000000000E+00 0.  1.
         -2    1    1    2    0  502  0.61415922928E+02  0.10313487384E+00 -0.19195516037E+03  0.20154083909E+03  0.00000000000E+00 0. -1.
</event>
<event>
 4    1  0.5792100E+003  0.2259810E+02  0.7546771E-02  0.1497607E+00
          2   -1    0    0  501    0  0.00000000000E+00  0.00000000000E+00  0.21589826123E+02  0.21589826123E+02  0.00000000000E+00 0.  1.
         -2   -1    0    0    0  501 -0.00000000000E+00 -0.00000000000E+00 -0.32238773040E+02  0.32238773040E+02  0.00000000000E+00 0.  1.
          2    1    1    2  502    0 -0.15410951767E+02 -0.16528061756E+02  0.85645495324E+01  0.24166625095E+02  0.00000000000E+00 0.  1.
         -2    1    1    2    0  502  0.15410951767E+02  0.16528061756E+02 -0.19213496450E+02  0.29661974068E+02  0.00000000000E+00 0.  1.
</event>
<event>
 4    1  0.5792100E+003  0.2398593E+02  0.7546771E-02  0.1480475E+00
          2   -1    0    0  501    0  0.00000000000E+00  0.00000000000E+00  0.35669971583E+01  0.35669971583E+01  0.00000000000E+00 0. -1.
         -2   -1    0    0    0  501 -0.00000000000E+00 -0.00000000000E+00 -0.22292093394E+03  0.22292093394E+03  0.00000000000E+00 0. -1.
          2    1    1    2  502    0 -0.87484783424E+01  0.22333579667E+02 -0.50133328542E+02  0.55575851634E+02  0.00000000000E+00 0. -1.
         -2    1    1    2    0  502  0.87484783424E+01 -0.22333579667E+02 -0.16922060824E+03  0.17091207947E+03  0.00000000000E+00 0. -1.
</event>
<event>
 4    1  0.5792100E+003  0.6701869E+02  0.7546771E-02  0.1237685E+00
          2   -1    0    0  501    0  0.00000000000E+00  0.00000000000E+00  0.53137953778E+03  0.53137953778E+03  0.00000000000E+00 0.  1.
         -2   -1    0    0    0  501 -0.00000000000E+00 -0.00000000000E+00 -0.10347857716E+02  0.10347857716E+02  0.00000000000E+00 0.  1.
          2    1    1    2  502    0 -0.65264637265E+02 -0.15232614026E+02  0.37643811345E+03  0.38235737035E+03  0.00000000000E+00 0.  1.
         -2    1    1    2    0  502  0.65264637265E+02  0.15232614026E+02  0.14459356662E+03  0.15937002514E+03  0.00000000000E+00 0.  1.
</event>
<event>
 4    1  0.5792100E+003  0.2103350E+02  0.7546771E-02  0.1518787E+00
          2   -1    0    0  501    0  0.00000000000E+00  0.00000000000E+00  0.37201160292E+03  0.37201160292E+03  0.00000000000E+00 0. -1.
         -2   -1    0    0    0  501 -0.00000000000E+00 -0.00000000000E+00 -0.43091060712E+01  0.43091060712E+01  0.00000000000E+00 0. -1.
          2    1    1    2  502    0 -0.20560361950E+02  0.44361811968E+01  0.34395556713E+03  0.34459808523E+03  0.00000000000E+00 0. -1.
         -2    1    1    2    0  502  0.20560361950E+02 -0.44361811968E+01  0.23746929728E+02  0.31722623767E+02  0.00000000000E+00 0. -1.
</event>
<event>
 4    1  0.5792100E+003  0.3074922E+02  0.7546771E-02  0.1413195E+00
          2   -1    0    0  501    0  0.00000000000E+00  0.00000000000E+00  0.17198674118E+04  0.17198674118E+04  0.00000000000E+00 0.  1.
         -2   -1    0    0    0  501 -0.00000000000E+00 -0.00000000000E+00 -0.11210156529E+01  0.11210156529E+01  0.00000000000E+00 0.  1.
          2    1    1    2  502    0  0.26598753742E+02  0.15427930127E+02  0.14736403308E+04  0.14739611051E+04  0.00000000000E+00 0.  1.
         -2    1    1    2    0  502 -0.26598753742E+02 -0.15427930127E+02  0.24510606533E+03  0.24702732235E+03  0.00000000000E+00 0.  1.
</event>
<event>
 4    1  0.5792100E+003  0.2241292E+02  0.7546771E-02  0.1500005E+00
          2   -1    0    0  501    0  0.00000000000E+00  0.00000000000E+00  0.70015922035E+02  0.70015922035E+02  0.00000000000E+00 0.  1.
         -2   -1    0    0    0  501 -0.00000000000E+00 -0.00000000000E+00 -0.75964580652E+02  0.75964580652E+02  0.00000000000E+00 0. -1.
          2    1    1    2  502    0 -0.88789099829E+01 -0.20579215228E+02  0.66483586795E+02  0.70159863562E+02  0.00000000000E+00 0.  1.
         -2    1    1    2    0  502  0.88789099829E+01  0.20579215228E+02 -0.72432245412E+02  0.75820639125E+02  0.00000000000E+00 0. -1.
</event>
<event>
 4    1  0.5792100E+003  0.2213892E+02  0.7546771E-02  0.1503603E+00
          2   -1    0    0  501    0  0.00000000000E+00  0.00000000000E+00  0.10500682849E+03  0.10500682849E+03  0.00000000000E+00 0.  1.
         -2   -1    0    0    0  501 -0.00000000000E+00 -0.00000000000E+00 -0.12597691544E+03  0.12597691544E+03  0.00000000000E+00 0. -1.
          2    1    1    2  502    0  0.21280032790E+02 -0.61067286953E+01  0.10284706704E+03  0.10520290456E+03  0.00000000000E+00 0.  1.
         -2    1    1    2    0  502 -0.21280032790E+02  0.61067286953E+01 -0.12381715399E+03  0.12578083937E+03  0.00000000000E+00 0. -1.
</event>
<event>
 4    1  0.5792100E+003  0.3089945E+02  0.7546771E-02  0.1411938E+00
          2   -1    0    0  501    0  0.00000000000E+00  0.00000000000E+00  0.18327875946E+04  0.18327875946E+04  0.00000000000E+00 0. -1.
         -2   -1    0    0    0  501 -0.00000000000E+00 -0.00000000000E+00 -0.34904917456E+01  0.34904917456E+01  0.00000000000E+00 0. -1.
          2    1    1    2  502    0  0.26309420771E+02  0.16204639769E+02  0.17615062759E+04  0.17617772662E+04  0.00000000000E+00 0. -1.
         -2    1    1    2    0  502 -0.26309420771E+02 -0.16204639769E+02  0.67790827038E+02  0.74500820142E+02  0.00000000000E+00 0. -1.
</event>
<event>
 4    1  0.5792100E+003  0.2272595E+02  0.7546771E-02  0.1495968E+00
          2   -1    0    0  501    0  0.00000000000E+00  0.00000000000E+00  0.12815468966E+03  0.12815468966E+03  0.00000000000E+00 0.  1.
         -2   -1    0    0    0  501 -0.00000000000E+00 -0.00000000000E+00 -0.40513716042E+01  0.40513716042E+01  0.00000000000E+00 0.  1.
          2    1    1    2  502    0  0.14380164576E+02  0.17597723310E+02  0.66847828064E+02  0.70605248500E+02  0.00000000000E+00 0.  1.
         -2    1    1    2    0  502 -0.14380164576E+02 -0.17597723310E+02  0.57255489991E+02  0.61600812763E+02  0.00000000000E+00 0.  1.
</event>
<event>
 4    1  0.5792100E+003  0.4488607E+02  0.7546771E-02  0.1322010E+00
          2   -1    0    0  501    0  0.00000000000E+00  0.00000000000E+00  0.34670586403E+02  0.34670586403E+02  0.00000000000E+00 0. -1.
         -2   -1    0    0    0  501 -0.00000000000E+00 -0.00000000000E+00 -0.10541717091E+03  0.10541717091E+03  0.00000000000E+00 0. -1.
          2    1    1    2  502    0 -0.23614697735E+02 -0.38172054124E+02  0.11548125615E+02  0.46347803296E+02  0.00000000000E+00 0. -1.
         -2    1    1    2    0  502  0.23614697735E+02  0.38172054124E+02 -0.82294710122E+02  0.93739954017E+02  0.00000000000E+00 0. -1.
</event>
<event>
 4    1  0.5792100E+003  0.2694641E+02  0.7546771E-02  0.1448147E+00
          2   -1    0    0  501    0  0.00000000000E+00  0.00000000000E+00  0.30054102684E+02  0.30054102684E+02  0.00000000000E+00 0.  1.
         -2   -1    0    0    0  501 -0.00000000000E+00 -0.00000000000E+00 -0.19589842732E+03  0.19589842732E+03  0.00000000000E+00 0.  1.
          2    1    1    2  502    0  0.26928333523E+02 -0.98679591720E+00  0.22858286050E+02  0.35335678198E+02  0.00000000000E+00 0.  1.
         -2    1    1    2    0  502 -0.26928333523E+02  0.98679591720E+00 -0.18870261068E+03  0.19061685180E+03  0.00000000000E+00 0.  1.
</event>
<event>
 4    1  0.5792100E+003  0.2264858E+02  0.7546771E-02  0.1496959E+00
          2   -1    0    0  501    0  0.00000000000E+00  0.00000000000E+00  0.16753592879E+04  0.16753592879E+04  0.00000000000E+00 0.  1.
         -2   -1    0    0    0  501 -0.00000000000E+00 -0.00000000000E+00 -0.61777214095E+01  0.61777214095E+01  0.00000000000E+00 0. -1.
          2    1    1    2  502    0  0.13741930831E+02 -0.18003263059E+02  0.16542595998E+04  0.16544146341E+04  0.00000000000E+00 0.  1.
         -2    1    1    2    0  502 -0.13741930831E+02  0.18003263059E+02  0.14921966655E+02  0.27122375128E+02  0.00000000000E+00 0. -1.
</event>
<event>
 4    1  0.5792100E+003  0.3111520E+02  0.7546771E-02  0.1410147E+00
          2   -1    0    0  501    0  0.00000000000E+00  0.00000000000E+00  0.10109401391E+03  0.10109401391E+03  0.00000000000E+00 0.  1.
         -2   -1    0    0    0  501 -0.00000000000E+00 -0.00000000000E+00 -0.23205645461E+02  0.23205645461E+02  0.00000000000E+00 0. -1.
          2    1    1    2  502    0  0.23561068641E+02  0.20323175683E+02  0.86573344218E+02  0.91995105057E+02  0.00000000000E+00 0.  1.
         -2    1    1    2    0  502 -0.23561068641E+02 -0.20323175683E+02 -0.86849757694E+01  0.32304554314E+02  0.00000000000E+00 0. -1.
</event>
<event>
 4    1  0.5792100E+003  0.2251773E+02  0.7546771E-02  0.1498645E+00
          2   -1    0    0  501    0  0.00000000000E+00  0.00000000000E+00  0.65583112075E+03  0.65583112075E+03  0.00000000000E+00 0. -1.
         -2   -1    0    0    0  501 -0.00000000000E+00 -0.00000000000E+00 -0.52635431037E+01  0.52635431037E+01  0.00000000000E+00 0. -1.
          2    1    1    2  502    0 -0.22464026241E+02 -0.15541860374E+01  0.63059118471E+03  0.63099309838E+03  0.00000000000E+00 0. -1.
         -2    1    1    2    0  502  0.22464026241E+02  0.15541860374E+01  0.19976392935E+02  0.30101565473E+02  0.00000000000E+00 0. -1.
</event>
<event>
 4    1  0.5792100E+003  0.5330340E+02  0.7546771E-02  0.1284452E+00
          2   -1    0    0  501    0  0.00000000000E+00  0.00000000000E+00  0.23390451580E+04  0.23390451580E+04  0.00000000000E+00 0. -1.
         -2   -1    0    0    0  501 -0.00000000000E+00 -0.00000000000E+00 -0.24275219236E+02  0.24275219236E+02  0.00000000000E+00 0.  1.
          2    1    1    2  502    0  0.38011922022E+02  0.37367711872E+02  0.23091012557E+04  0.23097164028E+04  0.00000000000E+00 0. -1.
         -2    1    1    2    0  502 -0.38011922022E+02 -0.37367711872E+02  0.56686830062E+01  0.53603974418E+02  0.00000000000E+00 0.  1.
</event>
<event>
 4    1  0.5792100E+003  0.2486484E+02  0.7546771E-02  0.1470321E+00
          2   -1    0    0  501    0  0.00000000000E+00  0.00000000000E+00  0.25269450664E+03  0.25269450664E+03  0.00000000000E+00 0.  1.
         -2   -1    0    0    0  501 -0.00000000000E+00 -0.00000000000E+00 -0.59064064733E+02  0.59064064733E+02  0.00000000000E+00 0.  1.
          2    1    1    2  502    0  0.18273257515E+02 -0.16862626768E+02  0.24943178828E+03  0.25066806164E+03  0.00000000000E+00 0.  1.
         -2    1    1    2    0  502 -0.18273257515E+02  0.16862626768E+02 -0.55801346376E+02  0.61090509731E+02  0.00000000000E+00 0.  1.
</event>
<event>
 4    1  0.5792100E+003  0.2417790E+02  0.7546771E-02  0.1478214E+00
          2   -1    0    0  501    0  0.00000000000E+00  0.00000000000E+00  0.11587697982E+03  0.11587697982E+03  0.00000000000E+00 0. -1.
         -2   -1    0    0    0  501 -0.00000000000E+00 -0.00000000000E+00 -0.46887242702E+02  0.46887242702E+02  0.00000000000E+00 0.  1.
          2    1    1    2  502    0  0.22873081984E+02  0.78353818851E+01  0.11137433292E+03  0.11396847425E+03  0.00000000000E+00 0. -1.
         -2    1    1    2    0  502 -0.22873081984E+02 -0.78353818851E+01 -0.42384595801E+02  0.48795748277E+02  0.00000000000E+00 0.  1.
</event>
<event>
 4    1  0.5792100E+003  0.4663669E+02  0.7546771E-02  0.1313452E+00
          2   -1    0    0  501    0  0.00000000000E+00  0.00000000000E+00  0.49916820074E+03  0.49916820074E+03  0.00000000000E+00 0.  1.
         -2   -1    0    0    0  501 -0.00000000000E+00 -0.00000000000E+00 -0.22595907928E+03  0.22595907928E+03  0.00000000000E+00 0. -1.
          2    1    1    2  502    0  0.52089010637E+01  0.46344887533E+02  0.49565549305E+03  0.49784470374E+03  0.00000000000E+00 0.  1.
         -2    1    1    2    0  502 -0.52089010637E+01 -0.46344887533E+02 -0.22244637159E+03  0.22728257629E+03  0.00000000000E+00 0. -1.
</event>
<event>
 4    1  0.5792100E+003  0.2160871E+02  0.7546771E-02  0.1510749E+00
          2   -1    0    0  501    0  0.00000000000E+00  0.00000000000E+00  0.14763732664E+04  0.14763732664E+04  0.00000000000E+00 0. -1.
         -2   -1    0    0    0  501 -0.00000000000E+00 -0.00000000000E+00 -0.17205174357E+01  0.17205174357E+01  0.00000000000E+00 0. -1.
          2    1    1    2  502    0 -0.15329476694E+02 -0.15229684767E+02  0.14049995072E+04  0.14051656669E+04  0.00000000000E+00 0. -1.
         -2    1    1    2    0  502  0.15329476694E+02  0.15229684767E+02  0.69653241730E+02  0.72928116919E+02  0.00000000000E+00 0. -1.
</event>
<event>
 4    1  0.5792100E+003  0.2789051E+02  0.7546771E-02  0.1438862E+00
          2   -1    0    0  501    0  0.00000000000E+00  0.00000000000E+00  0.91088149132E+03  0.91088149132E+03  0.00000000000E+00 0.  1.
         -2   -1    0    0    0  501 -0.00000000000E+00 -0.00000000000E+00 -0.77681663918E+01  0.77681663918E+01  0.00000000000E+00 0.  1.
          2    1    1    2  502    0  0.26850809310E+02  0.75441713792E+01  0.88489887862E+03  0.88533830024E+03  0.00000000000E+00 0.  1.
         -2    1    1    2    0  502 -0.26850809310E+02 -0.75441713792E+01  0.18214446303E+02  0.33311357471E+02  0.00000000000E+00 0.  1.
</event>
<event>
 4    1  0.5792100E+003  0.2010134E+02  0.7546771E-02  0.1532492E+00
          2   -1    0    0  501    0  0.00000000000E+00  0.00000000000E+00  0.28259682139E+03  0.28259682139E+03  0.00000000000E+00 0. -1.
         -2   -1    0    0    0  501 -0.00000000000E+00 -0.00000000000E+00 -0.24513056749E+01  0.24513056749E+01  0.00000000000E+00 0.  1.
          2    1    1    2  502    0 -0.95999941296E+00  0.20078402646E+02  0.23207632157E+03  0.23294523580E+03  0.00000000000E+00 0. -1.
         -2    1    1    2    0  502  0.95999941296E+00 -0.20078402646E+02  0.48069194146E+02  0.52102891259E+02  0.00000000000E+00 0.  1.
</event>
<event>
 4    1  0.5792100E+003  0.3115676E+02  0.7546771E-02  0.1409804E+00
          2   -1    0    0  501    0  0.00000000000E+00  0.00000000000E+00  0.33940627365E+02  0.33940627365E+02  0.00000000000E+00 0. -1.
         -2   -1    0    0    0  501 -0.00000000000E+00 -0.00000000000E+00 -0.21985795874E+03  0.21985795874E+03  0.00000000000E+00 0. -1.
          2    1    1    2  502    0 -0.44793716767E+01 -0.30833079600E+02  0.25399022204E+02  0.40197685221E+02  0.00000000000E+00 0. -1.
         -2    1    1    2    0  502  0.44793716767E+01  0.30833079600E+02 -0.21131635358E+03  0.21360090088E+03  0.00000000000E+00 0. -1.
</event>
<event>
 4    1  0.5792100E+003  0.2598173E+02  0.7546771E-02  0.1458114E+00
          2   -1    0    0  501    0  0.00000000000E+00  0.00000000000E+00  0.15211766993E+04  0.15211766993E+04  0.00000000000E+00 0. -1.
         -2   -1    0    0    0  501 -0.00000000000E+00 -0.00000000000E+00 -0.27750806327E+01  0.27750806327E+01  0.00000000000E+00 0. -1.
          2    1    1    2  502    0 -0.25887481659E+02  0.22109842099E+01  0.14575998712E+04  0.14578314151E+04  0.00000000000E+00 0. -1.
         -2    1    1    2    0  502  0.25887481659E+02 -0.22109842099E+01  0.60801747418E+02  0.66120364843E+02  0.00000000000E+00 0. -1.
</event>
<event>
 4    1  0.5792100E+003  0.2066578E+02  0.7546771E-02  0.1524091E+00
          2   -1    0    0  501    0  0.00000000000E+00  0.00000000000E+00  0.86233300333E+03  0.86233300333E+03  0.00000000000E+00 0.  1.
         -2   -1    0    0    0  501 -0.00000000000E+00 -0.00000000000E+00 -0.75872318796E+00  0.75872318796E+00  0.00000000000E+00 0. -1.
          2    1    1    2  502    0  0.19463913153E+02 -0.69448166241E+01  0.68508909279E+03  0.68540071451E+03  0.00000000000E+00 0.  1.
         -2    1    1    2    0  502 -0.19463913153E+02  0.69448166241E+01  0.17648518735E+03  0.17769101200E+03  0.00000000000E+00 0. -1.
</event>
<event>
 4    1  0.5792100E+003  0.2460464E+02  0.7546771E-02  0.1473275E+00
          2   -1    0    0  501    0  0.00000000000E+00  0.00000000000E+00  0.23438854370E+03  0.23438854370E+03  0.00000000000E+00 0.  1.
         -2   -1    0    0    0  501 -0.00000000000E+00 -0.00000000000E+00 -0.85725910434E+01  0.85725910434E+01  0.00000000000E+00 0. -1.
          2    1    1    2  502    0 -0.17405115527E+02 -0.17391103876E+02  0.21445216578E+03  0.21585902795E+03  0.00000000000E+00 0.  1.
         -2    1    1    2    0  502  0.17405115527E+02  0.17391103876E+02  0.11363786881E+02  0.27102106796E+02  0.00000000000E+00 0. -1.
</event>
<event>
 4    1  0.5792100E+003  0.3261013E+02  0.7546771E-02  0.1398191E+00
          2   -1    0    0  501    0  0.00000000000E+00  0.00000000000E+00  0.17249666519E+04  0.17249666519E+04  0.00000000000E+00 0.  1.
         -2   -1    0    0    0  501 -0.00000000000E+00 -0.00000000000E+00 -0.64389856603E+01  0.64389856603E+01  0.00000000000E+00 0. -1.
          2    1    1    2  502    0 -0.18371870193E+02  0.26942434721E+02  0.16824816895E+04  0.16827976871E+04  0.00000000000E+00 0.  1.
         -2    1    1    2    0  502  0.18371870193E+02 -0.26942434721E+02  0.36045976736E+02  0.48607950398E+02  0.00000000000E+00 0. -1.
</event>
<event>
 4    1  0.5792100E+003  0.3238767E+02  0.7546771E-02  0.1399922E+00
          2   -1    0    0  501    0  0.00000000000E+00  0.00000000000E+00  0.69616475344E+02  0.69616475344E+02  0.00000000000E+00 0.  1.
         -2   -1    0    0    0  501 -0.00000000000E+00 -0.00000000000E+00 -0.68017901317E+03  0.68017901317E+03  0.00000000000E+00 0.  1.
          2    1    1    2  502    0 -0.26262122902E+02 -0.18954207600E+02  0.65440745783E+02  0.73016794600E+02  0.00000000000E+00 0.  1.
         -2    1    1    2    0  502  0.26262122902E+02  0.18954207600E+02 -0.67600328361E+03  0.67677869392E+03  0.00000000000E+00 0.  1.
</event>
<event>
 4    1  0.5792100E+003  0.2558938E+02  0.7546771E-02  0.1462317E+00
          2   -1    0    0  501    0  0.00000000000E+00  0.00000000000E+00  0.69534048320E+01  0.69534048320E+01  0.00000000000E+00 0.  1.
         -2   -1    0    0    0  501 -0.00000000000E+00 -0.00000000000E+00 -0.85499255926E+03  0.85499255926E+03  0.00000000000E+00 0.  1.
          2    1    1    2  502    0  0.25277427691E+02  0.39834533568E+01 -0.17473300084E+02  0.30986004375E+02  0.00000000000E+00 0.  1.
         -2    1    1    2    0  502 -0.25277427691E+02 -0.39834533568E+01 -0.83056585434E+03  0.83095995972E+03  0.00000000000E+00 0.  1.
</event>
<event>
 4    1  0.5792100E+003  0.2178108E+02  0.7546771E-02  0.1508399E+00
          2   -1    0    0  501    0  0.00000000000E+00  0.00000000000E+00  0.97817910660E+02  0.97817910660E+02  0.00000000000E+00 0. -1.
         -2   -1    0    0    0  501 -0.00000000000E+00 -0.00000000000E+00 -0.77878923991E+01  0.77878923991E+01  0.00000000000E+00 0. -1.
          2    1    1    2  502    0  0.16223141851E+02  0.14533587573E+02  0.77446490964E+02  0.80451068744E+02  0.00000000000E+00 0. -1.
         -2    1    1    2    0  502 -0.16223141851E+02 -0.14533587573E+02  0.12583527297E+02  0.25154734316E+02  0.00000000000E+00 0. -1.
</event>
<event>
 4    1  0.5792100E+003  0.2223929E+02  0.7546771E-02  0.1502278E+00
          2   -1    0    0  501    0  0.00000000000E+00  0.00000000000E+00  0.90242465895E+02  0.90242465895E+02  0.00000000000E+00 0. -1.
         -2   -1    0    0    0  501 -0.00000000000E+00 -0.00000000000E+00 -0.26114861836E+02  0.26114861836E+02  0.00000000000E+00 0.  1.
          2    1    1    2  502    0 -0.13298369178E+02 -0.17825240833E+02  0.83778500690E+02  0.86680003527E+02  0.00000000000E+00 0. -1.
         -2    1    1    2    0  502  0.13298369178E+02  0.17825240833E+02 -0.19650896631E+02  0.29677324205E+02  0.00000000000E+00 0.  1.
</event>
<event>
 4    1  0.5792100E+003  0.3089182E+02  0.7546771E-02  0.1412001E+00
          2   -1    0    0  501    0  0.00000000000E+00  0.00000000000E+00  0.24910347247E+03  0.24910347247E+03  0.00000000000E+00 0. -1.
         -2   -1    0    0    0  501 -0.00000000000E+00 -0.00000000000E+00 -0.10487442603E+03  0.10487442603E+03  0.00000000000E+00 0. -1.
          2    1    1    2  502    0 -0.30891815213E+02 -0.12858047728E-01  0.24584078669E+03  0.24777408422E+03  0.00000000000E+00 0. -1.
         -2    1    1    2    0  502  0.30891815213E+02  0.12858047728E-01 -0.10161174024E+03  0.10620381428E+03  0.00000000000E+00 0. -1.
</event>
<event>
 4    1  0.5792100E+003  0.2872754E+02  0.7546771E-02  0.1430986E+00
          2   -1    0    0  501    0  0.00000000000E+00  0.00000000000E+00  0.48023505451E+03  0.48023505451E+03  0.00000000000E+00 0. -1.
         -2   -1    0    0    0  501 -0.00000000000E+00 -0.00000000000E+00 -0.51797403385E+01  0.51797403385E+01  0.00000000000E+00 0. -1.
          2    1    1    2  502    0  0.15996611142E+02 -0.23861687358E+02  0.43592986336E+03  0.43687540268E+03  0.00000000000E+00 0. -1.
         -2    1    1    2    0  502 -0.15996611142E+02  0.23861687358E+02  0.39125450812E+02  0.48539392177E+02  0.00000000000E+00 0. -1.
</event>
<event>
 4    1  0.5792100E+003  0.2697864E+02  0.7546771E-02  0.1447823E+00
          2   -1    0    0  501    0  0.00000000000E+00  0.00000000000E+00  0.70023812023E+01  0.70023812023E+01  0.00000000000E+00 0. -1.
         -2   -1    0    0    0  501 -0.00000000000E+00 -0.00000000000E+00 -0.21908143925E+03  0.21908143925E+03  0.00000000000E+00 0. -1.
          2    1    1    2  502    0 -0.72788926938E+00 -0.26968818590E+02 -0.24089847346E+02  0.36168601633E+02  0.00000000000E+00 0. -1.
         -2    1    1    2    0  502  0.72788926938E+00  0.26968818590E+02 -0.18798921070E+03  0.18991521882E+03  0.00000000000E+00 0. -1.
</event>
<event>
 4    1  0.5792100E+003  0.2446771E+02  0.7546771E-02  0.1474847E+00
          2   -1    0    0  501    0  0.00000000000E+00  0.00000000000E+00  0.61986119338E+03  0.61986119338E+03  0.00000000000E+00 0. -1.
         -2   -1    0    0    0  501 -0.00000000000E+00 -0.00000000000E+00 -0.31367456814E+01  0.31367456814E+01  0.00000000000E+00 0.  1.
          2    1    1    2  502    0  0.92509569512E+01 -0.22651459194E+02  0.56750572999E+03  0.56803294128E+03  0.00000000000E+00 0. -1.
         -2    1    1    2    0  502 -0.92509569512E+01  0.22651459194E+02  0.49218717702E+02  0.54964997775E+02  0.00000000000E+00 0.  1.
</event>
<event>
 4    1  0.5792100E+003  0.7940350E+02  0.7546771E-02  0.1205239E+00
          2   -1    0    0  501    0  0.00000000000E+00  0.00000000000E+00  0.29682151001E+03  0.29682151001E+03  0.00000000000E+00 0.  1.
         -2   -1    0    0    0  501 -0.00000000000E+00 -0.00000000000E+00 -0.63045670347E+03  0.63045670347E+03  0.00000000000E+00 0. -1.
          2    1    1    2  502    0  0.40817314781E+02  0.68109193046E+02  0.28894409240E+03  0.29965580904E+03  0.00000000000E+00 0.  1.
         -2    1    1    2    0  502 -0.40817314781E+02 -0.68109193046E+02 -0.62257928586E+03  0.62762240443E+03  0.00000000000E+00 0. -1.
</event>
<event>
 4    1  0.5792100E+003  0.2603621E+02  0.7546771E-02  0.1457537E+00
          2   -1    0    0  501    0  0.00000000000E+00  0.00000000000E+00  0.98349959242E+02  0.98349959242E+02  0.00000000000E+00 0.  1.
         -2   -1    0    0    0  501 -0.00000000000E+00 -0.00000000000E+00 -0.16902400254E+02  0.16902400254E+02  0.00000000000E+00 0. -1.
          2    1    1    2  502    0  0.26010648366E+02 -0.11534782855E+01  0.85070235173E+02  0.88965326128E+02  0.00000000000E+00 0.  1.
         -2    1    1    2    0  502 -0.26010648366E+02  0.11534782855E+01 -0.36226761857E+01  0.26287033369E+02  0.00000000000E+00 0. -1.
</event>
<event>
 4    1  0.5792100E+003  0.2077780E+02  0.7546771E-02  0.1522461E+00
          2   -1    0    0  501    0  0.00000000000E+00  0.00000000000E+00  0.57615945388E+02  0.57615945388E+02  0.00000000000E+00 0. -1.
         -2   -1    0    0    0  501 -0.00000000000E+00 -0.00000000000E+00 -0.10983139089E+02  0.10983139089E+02  0.00000000000E+00 0. -1.
          2    1    1    2  502    0  0.19184239300E+02 -0.79800949246E+01  0.42651471963E+02  0.47443282065E+02  0.00000000000E+00 0. -1.
         -2    1    1    2    0  502 -0.19184239300E+02  0.79800949246E+01  0.39813343362E+01  0.21155802411E+02  0.00000000000E+00 0. -1.
</event>
<event>
 4    1  0.5792100E+003  0.3363778E+02  0.7546771E-02  0.1390401E+00
          2   -1    0    0  501    0  0.00000000000E+00  0.00000000000E+00  0.17397523494E+04  0.17397523494E+04  0.00000000000E+00 0. -1.
         -2   -1    0    0    0  501 -0.00000000000E+00 -0.00000000000E+00 -0.12383188159E+01  0.12383188159E+01  0.00000000000E+00 0. -1.
          2    1    1    2  502    0  0.31204816587E+02  0.12560236153E+02  0.14690705801E+04  0.14694556371E+04  0.00000000000E+00 0. -1.
         -2    1    1    2    0  502 -0.31204816587E+02 -0.12560236153E+02  0.26944345048E+03  0.27153503111E+03  0.00000000000E+00 0. -1.
</event>
<event>
 4    1  0.5792100E+003  0.2987210E+02  0.7546771E-02  0.1420711E+00
          2   -1    0    0  501    0  0.00000000000E+00  0.00000000000E+00  0.17191432544E+04  0.17191432544E+04  0.00000000000E+00 0. -1.
         -2   -1    0    0    0  501 -0.00000000000E+00 -0.00000000000E+00 -0.12699951887E+02  0.12699951887E+02  0.00000000000E+00 0. -1.
          2    1    1    2  502    0 -0.18157735089E+02 -0.23720016992E+02  0.17012630214E+04  0.17015252601E+04  0.00000000000E+00 0. -1.
         -2    1    1    2    0  502  0.18157735089E+02  0.23720016992E+02  0.51802810554E+01  0.30317946195E+02  0.00000000000E+00 0. -1.
</event>
<event>
 4    1  0.5792100E+003  0.2065266E+02  0.7546771E-02  0.1524282E+00
          2   -1    0    0  501    0  0.00000000000E+00  0.00000000000E+00  0.11527131085E+02  0.11527131085E+02  0.00000000000E+00 0.  1.
         -2   -1    0    0    0  501 -0.00000000000E+00 -0.00000000000E+00 -0.41784016638E+02  0.41784016638E+02  0.00000000000E+00 0.  1.
          2    1    1    2  502    0 -0.19666408559E+01 -0.20558813126E+02 -0.61113498345E+01  0.21537898463E+02  0.00000000000E+00 0.  1.
         -2    1    1    2    0  502  0.19666408559E+01  0.20558813126E+02 -0.24145535719E+02  0.31773249260E+02  0.00000000000E+00 0.  1.
</event>
<event>
 4    1  0.5792100E+003  0.6483751E+02  0.7546771E-02  0.1244227E+00
          2   -1    0    0  501    0  0.00000000000E+00  0.00000000000E+00  0.33182307500E+03  0.33182307500E+03  0.00000000000E+00 0.  1.
         -2   -1    0    0    0  501 -0.00000000000E+00 -0.00000000000E+00 -0.18333654009E+02  0.18333654009E+02  0.00000000000E+00 0.  1.
          2    1    1    2  502    0 -0.59506205118E+02  0.25747116815E+02  0.25406211295E+03  0.26220499558E+03  0.00000000000E+00 0.  1.
         -2    1    1    2    0  502  0.59506205118E+02 -0.25747116815E+02  0.59427308045E+02  0.87951733430E+02  0.00000000000E+00 0.  1.
</event>
<event>
 4    1  0.5792100E+003  0.2440790E+02  0.7546771E-02  0.1475537E+00
          2   -1    0    0  501    0  0.00000000000E+00  0.00000000000E+00  0.47432430442E+03  0.47432430442E+03  0.00000000000E+00 0. -1.
         -2   -1    0    0    0  501 -0.00000000000E+00 -0.00000000000E+00 -0.25563798150E+02  0.25563798150E+02  0.00000000000E+00 0. -1.
          2    1    1    2  502    0 -0.24391087699E+02  0.90573825792E+00  0.46810691204E+03  0.46874281501E+03  0.00000000000E+00 0. -1.
         -2    1    1    2    0  502  0.24391087699E+02 -0.90573825792E+00 -0.19346405772E+02  0.31145287561E+02  0.00000000000E+00 0. -1.
</event>
<event>
 4    1  0.5792100E+003  0.4295293E+02  0.7546771E-02  0.1332000E+00
          2   -1    0    0  501    0  0.00000000000E+00  0.00000000000E+00  0.17504568245E+03  0.17504568245E+03  0.00000000000E+00 0. -1.
         -2   -1    0    0    0  501 -0.00000000000E+00 -0.00000000000E+00 -0.19705725360E+03  0.19705725360E+03  0.00000000000E+00 0.  1.
          2    1    1    2  502    0  0.41459280405E+01 -0.42752370950E+02  0.17000171752E+03  0.17534405579E+03  0.00000000000E+00 0. -1.
         -2    1    1    2    0  502 -0.41459280405E+01  0.42752370950E+02 -0.19201328866E+03  0.19675888027E+03  0.00000000000E+00 0.  1.
</event>
<event>
 4    1  0.5792100E+003  0.2576540E+02  0.7546771E-02  0.1460420E+00
          2   -1    0    0  501    0  0.00000000000E+00  0.00000000000E+00  0.14625366955E+04  0.14625366955E+04  0.00000000000E+00 0. -1.
         -2   -1    0    0    0  501 -0.00000000000E+00 -0.00000000000E+00 -0.27431007660E+01  0.27431007660E+01  0.00000000000E+00 0. -1.
          2    1    1    2  502    0  0.20334014851E+02  0.15823517649E+02  0.13991815754E+04  0.13994187853E+04  0.00000000000E+00 0. -1.
         -2    1    1    2    0  502 -0.20334014851E+02 -0.15823517649E+02  0.60612019385E+02  0.65861010960E+02  0.00000000000E+00 0. -1.
</event>
<event>
 4    1  0.5792100E+003  0.2028881E+02  0.7546771E-02  0.1529666E+00
          2   -1    0    0  501    0  0.00000000000E+00  0.00000000000E+00  0.32233393984E+03  0.32233393984E+03  0.00000000000E+00 0.  1.
         -2   -1    0    0    0  501 -0.00000000000E+00 -0.00000000000E+00 -0.39516180006E+02  0.39516180006E+02  0.00000000000E+00 0. -1.
          2    1    1    2  502    0  0.85948406741E+01  0.18378370769E+02  0.31938644564E+03  0.32003021335E+03  0.00000000000E+00 0.  1.
         -2    1    1    2    0  502 -0.85948406741E+01 -0.18378370769E+02 -0.36568685802E+02  0.41819906500E+02  0.00000000000E+00 0. -1.
</event>
<event>
 4    1  0.5792100E+003  0.3698157E+02  0.7546771E-02  0.1367143E+00
          2   -1    0    0  501    0  0.00000000000E+00  0.00000000000E+00  0.23597933799E+04  0.23597933799E+04  0.00000000000E+00 0. -1.
         -2   -1    0    0    0  501 -0.00000000000E+00 -0.00000000000E+00 -0.42825448615E+02  0.42825448615E+02  0.00000000000E+00 0. -1.
          2    1    1    2  502    0  0.20151379136E+01  0.36926624288E+02  0.23516370183E+04  0.23519277843E+04  0.00000000000E+00 0. -1.
         -2    1    1    2    0  502 -0.20151379136E+01 -0.36926624288E+02 -0.34669087102E+02  0.50691044205E+02  0.00000000000E+00 0. -1.
</event>
<event>
 4    1  0.5792100E+003  0.2127844E+02  0.7546771E-02  0.1515326E+00
          2   -1    0    0  501    0  0.00000000000E+00  0.00000000000E+00  0.84159718777E+02  0.84159718777E+02  0.00000000000E+00 0. -1.
         -2   -1    0    0    0  501 -0.00000000000E+00 -0.00000000000E+00 -0.53841116744E+01  0.53841116744E+01  0.00000000000E+00 0.  1.
          2    1    1    2  502    0  0.13100845810E+02  0.16767225189E+02  0.40638011919E+02  0.45871777971E+02  0.00000000000E+00 0. -1.
         -2    1    1    2    0  502 -0.13100845810E+02 -0.16767225189E+02  0.38137595184E+02  0.43672052481E+02  0.00000000000E+00 0.  1.
</event>
<event>
 4    1  0.5792100E+003  0.2742282E+02  0.7546771E-02  0.1443406E+00
          2   -1    0    0  501    0  0.00000000000E+00  0.00000000000E+00  0.41766979436E+03  0.41766979436E+03  0.00000000000E+00 0. -1.
         -2   -1    0    0    0  501 -0.00000000000E+00 -0.00000000000E+00 -0.11906298063E+02  0.11906298063E+02  0.00000000000E+00 0. -1.
          2    1    1    2  502    0 -0.81714674297E+01  0.26177056613E+02  0.40076416660E+03  0.40170129251E+03  0.00000000000E+00 0. -1.
         -2    1    1    2    0  502  0.81714674297E+01 -0.26177056613E+02  0.49993296974E+01  0.27874799915E+02  0.00000000000E+00 0. -1.
</event>
<event>
 4    1  0.5792100E+003  0.3556721E+02  0.7546771E-02  0.1376619E+00
          2   -1    0    0  501    0  0.00000000000E+00  0.00000000000E+00  0.62398750574E+02  0.62398750574E+02  0.00000000000E+00 0.  1.
         -2   -1    0    0    0  501 -0.00000000000E+00 -0.00000000000E+00 -0.20724287220E+02  0.20724287220E+02  0.00000000000E+00 0.  1.
          2    1    1    2  502    0 -0.29244137822E+02 -0.20243684757E+02  0.26968507598E+02  0.44635487805E+02  0.00000000000E+00 0.  1.
         -2    1    1    2    0  502  0.29244137822E+02  0.20243684757E+02  0.14705955756E+02  0.38487549989E+02  0.00000000000E+00 0.  1.
</event>
<event>
 4    1  0.5792100E+003  0.3653148E+02  0.7546771E-02  0.1370105E+00
          2   -1    0    0  501    0  0.00000000000E+00  0.00000000000E+00  0.14155262276E+04  0.14155262276E+04  0.00000000000E+00 0.  1.
         -2   -1    0    0    0  501 -0.00000000000E+00 -0.00000000000E+00 -0.70050419683E+01  0.70050419683E+01  0.00000000000E+00 0. -1.
          2    1    1    2  502    0 -0.93676950969E+01  0.35309984238E+02  0.13659334617E+04  0.13664218859E+04  0.00000000000E+00 0.  1.
         -2    1    1    2    0  502  0.93676950969E+01 -0.35309984238E+02  0.42587723990E+02  0.56109383644E+02  0.00000000000E+00 0. -1.
</event>
<event>
 4    1  0.5792100E+003  0.2661605E+02  0.7546771E-02  0.1451504E+00
          2   -1    0    0  501    0  0.00000000000E+00  0.00000000000E+00  0.56962849591E+02  0.56962849591E+02  0.00000000000E+00 0.  1.
         -2   -1    0    0    0  501 -0.00000000000E+00 -0.00000000000E+00 -0.23995105074E+02  0.23995105074E+02  0.00000000000E+00 0.  1.
          2    1    1    2  502    0  0.26560984856E+02  0.17111887186E+01  0.44578440757E+02  0.51919663555E+02  0.00000000000E+00 0.  1.
         -2    1    1    2    0  502 -0.26560984856E+02 -0.17111887186E+01 -0.11610696240E+02  0.29038291109E+02  0.00000000000E+00 0.  1.
</event>
<event>
 4    1  0.5792100E+003  0.2274579E+02  0.7546771E-02  0.1495715E+00
          2   -1    0    0  501    0  0.00000000000E+00  0.00000000000E+00  0.11818082650E+04  0.11818082650E+04  0.00000000000E+00 0.  1.
         -2   -1    0    0    0  501 -0.00000000000E+00 -0.00000000000E+00 -0.31336571151E+01  0.31336571151E+01  0.00000000000E+00 0. -1.
          2    1    1    2  502    0  0.21285667873E+02 -0.80181792497E+01  0.11388673685E+04  0.11390944886E+04  0.00000000000E+00 0.  1.
         -2    1    1    2    0  502 -0.21285667873E+02  0.80181792497E+01  0.39807239387E+02  0.45847433547E+02  0.00000000000E+00 0. -1.
</event>
<event>
 4    1  0.5792100E+003  0.2294198E+02  0.7546771E-02  0.1493228E+00
          2   -1    0    0  501    0  0.00000000000E+00  0.00000000000E+00  0.47335844862E+03  0.47335844862E+03  0.00000000000E+00 0. -1.
         -2   -1    0    0    0  501 -0.00000000000E+00 -0.00000000000E+00 -0.65330206165E+01  0.65330206165E+01  0.00000000000E+00 0. -1.
          2    1    1    2  502    0  0.20776360125E+02  0.97302376039E+01  0.45198743276E+03  0.45256930302E+03  0.00000000000E+00 0. -1.
         -2    1    1    2    0  502 -0.20776360125E+02 -0.97302376039E+01  0.14837995244E+02  0.27322166217E+02  0.00000000000E+00 0. -1.
</event>
<event>
 4    1  0.5792100E+003  0.2026427E+02  0.7546771E-02  0.1530033E+00
          2   -1    0    0  501    0  0.00000000000E+00  0.00000000000E+00  0.39361858230E+03  0.39361858230E+03  0.00000000000E+00 0.  1.
         -2   -1    0    0    0  501 -0.00000000000E+00 -0.00000000000E+00 -0.43859719935E+01  0.43859719935E+01  0.00000000000E+00 0.  1.
          2    1    1    2  502    0 -0.19642819073E+02 -0.49799970943E+01  0.36834660034E+03  0.36890358997E+03  0.00000000000E+00 0.  1.
         -2    1    1    2    0  502  0.19642819073E+02  0.49799970943E+01  0.20886009972E+02  0.29100964326E+02  0.00000000000E+00 0.  1.
</event>
<event>
 4    1  0.5792100E+003  0.3986458E+02  0.7546771E-02  0.1349281E+00
          2   -1    0    0  501    0  0.00000000000E+00  0.00000000000E+00  0.18822781066E+03  0.18822781066E+03  0.00000000000E+00 0.  1.
         -2   -1    0    0    0  501 -0.00000000000E+00 -0.00000000000E+00 -0.10144720231E+02  0.10144720231E+02  0.00000000000E+00 0. -1.
          2    1    1    2  502    0 -0.33201725625E+02 -0.22064230908E+02  0.12966630995E+03  0.13565595013E+03  0.00000000000E+00 0.  1.
         -2    1    1    2    0  502  0.33201725625E+02  0.22064230908E+02  0.48416780479E+02  0.62716580758E+02  0.00000000000E+00 0. -1.
</event>
<event>
 4    1  0.5792100E+003  0.2206570E+02  0.7546771E-02  0.1504576E+00
          2   -1    0    0  501    0  0.00000000000E+00  0.00000000000E+00  0.11761050345E+04  0.11761050345E+04  0.00000000000E+00 0.  1.
         -2   -1    0    0    0  501 -0.00000000000E+00 -0.00000000000E+00 -0.83739224397E+00  0.83739224397E+00  0.00000000000E+00 0.  1.
          2    1    1    2  502    0  0.31139855145E+01 -0.21844866400E+02  0.10060780747E+04  0.10063200224E+04  0.00000000000E+00 0.  1.
         -2    1    1    2    0  502 -0.31139855145E+01  0.21844866400E+02  0.16918956755E+03  0.17062240433E+03  0.00000000000E+00 0.  1.
</event>
<event>
 4    1  0.5792100E+003  0.2010824E+02  0.7546771E-02  0.1532388E+00
          2   -1    0    0  501    0  0.00000000000E+00  0.00000000000E+00  0.10437948162E+04  0.10437948162E+04  0.00000000000E+00 0.  1.
         -2   -1    0    0    0  501 -0.00000000000E+00 -0.00000000000E+00 -0.38750055022E+00  0.38750055022E+00  0.00000000000E+00 0.  1.
          2    1    1    2  502    0 -0.15983859173E+02 -0.12200698644E+02  0.51233418747E+03  0.51272864212E+03  0.00000000000E+00 0.  1.
         -2    1    1    2    0  502  0.15983859173E+02  0.12200698644E+02  0.53107312818E+03  0.53145367462E+03  0.00000000000E+00 0.  1.
</event>
<event>
 4    1  0.5792100E+003  0.1499540E+03  0.7546771E-02  0.1097664E+00
          2   -1    0    0  501    0  0.00000000000E+00  0.00000000000E+00  0.70212644614E+03  0.70212644614E+03  0.00000000000E+00 0. -1.
         -2   -1    0    0    0  501 -0.00000000000E+00 -0.00000000000E+00 -0.45496004578E+02  0.45496004578E+02  0.00000000000E+00 0. -1.
          2    1    1    2  502    0  0.13734512382E+03  0.60187317487E+02  0.53171571305E+03  0.55245614824E+03  0.00000000000E+00 0. -1.
         -2    1    1    2    0  502 -0.13734512382E+03 -0.60187317487E+02  0.12491472851E+03  0.19516630248E+03  0.00000000000E+00 0. -1.
</event>
<event>
 4    1  0.5792100E+003  0.2416014E+02  0.7546771E-02  0.1478422E+00
          2   -1    0    0  501    0  0.00000000000E+00  0.00000000000E+00  0.15733526550E+01  0.15733526550E+01  0.00000000000E+00 0.  1.
         -2   -1    0    0    0  501 -0.00000000000E+00 -0.00000000000E+00 -0.37798311518E+03  0.37798311518E+03  0.00000000000E+00 0. -1.
          2    1    1    2  502    0  0.22865419834E+02  0.78028797650E+01 -0.16240818936E+03  0.16419540897E+03  0.00000000000E+00 0.  1.
         -2    1    1    2    0  502 -0.22865419834E+02 -0.78028797650E+01 -0.21400157317E+03  0.21536105887E+03  0.00000000000E+00 0. -1.
</event>
<event>
 4    1  0.5792100E+003  0.2172850E+02  0.7546771E-02  0.1509113E+00
          2   -1    0    0  501    0  0.00000000000E+00  0.00000000000E+00  0.83405818357E+03  0.83405818357E+03  0.00000000000E+00 0.  1.
         -2   -1    0    0    0  501 -0.00000000000E+00 -0.00000000000E+00 -0.73780904418E+00  0.73780904418E+00  0.00000000000E+00 0. -1.
          2    1    1    2  502    0 -0.21554482279E+02  0.27444352328E+01  0.61804399264E+03  0.61842582779E+03  0.00000000000E+00 0.  1.
         -2    1    1    2    0  502  0.21554482279E+02 -0.27444352328E+01  0.21527638188E+03  0.21637016482E+03  0.00000000000E+00 0. -1.
</event>
<event>
 4    1  0.5792100E+003  0.2225157E+02  0.7546771E-02  0.1502116E+00
          2   -1    0    0  501    0  0.00000000000E+00  0.00000000000E+00  0.86514119942E+03  0.86514119942E+03  0.00000000000E+00 0.  1.
         -2   -1    0    0    0  501 -0.00000000000E+00 -0.00000000000E+00 -0.28956027448E+02  0.28956027448E+02  0.00000000000E+00 0.  1.
          2    1    1    2  502    0  0.58406910215E+01 -0.21471345633E+02  0.86070120809E+03  0.86098879317E+03  0.00000000000E+00 0.  1.
         -2    1    1    2    0  502 -0.58406910215E+01  0.21471345633E+02 -0.24516036119E+02  0.33108433697E+02  0.00000000000E+00 0.  1.
</event>
<event>
 4    1  0.5792100E+003  0.2195747E+02  0.7546771E-02  0.1506021E+00
          2   -1    0    0  501    0  0.00000000000E+00  0.00000000000E+00  0.23410804267E+01  0.23410804267E+01  0.00000000000E+00 0.  1.
         -2   -1    0    0    0  501 -0.00000000000E+00 -0.00000000000E+00 -0.21836227381E+03  0.21836227381E+03  0.00000000000E+00 0. -1.
          2    1    1    2  502    0 -0.21101049160E+02  0.60725947583E+01 -0.81694188728E+02  0.84593564499E+02  0.00000000000E+00 0.  1.
         -2    1    1    2    0  502  0.21101049160E+02 -0.60725947583E+01 -0.13432700465E+03  0.13610978974E+03  0.00000000000E+00 0. -1.
</event>
<event>
 4    1  0.5792100E+003  0.2594824E+02  0.7546771E-02  0.1458469E+00
          2   -1    0    0  501    0  0.00000000000E+00  0.00000000000E+00  0.90612143694E+03  0.90612143694E+03  0.00000000000E+00 0.  1.
         -2   -1    0    0    0  501 -0.00000000000E+00 -0.00000000000E+00 -0.13617120768E+01  0.13617120768E+01  0.00000000000E+00 0.  1.
          2    1    1    2  502    0 -0.43295878728E+01 -0.25584481586E+02  0.75821395728E+03  0.75865783858E+03  0.00000000000E+00 0.  1.
         -2    1    1    2    0  502  0.43295878728E+01  0.25584481586E+02  0.14654576759E+03  0.14882531044E+03  0.00000000000E+00 0.  1.
</event>
<event>
 4    1  0.5792100E+003  0.2748119E+02  0.7546771E-02  0.1442833E+00
          2   -1    0    0  501    0  0.00000000000E+00  0.00000000000E+00  0.13327935620E+03  0.13327935620E+03  0.00000000000E+00 0. -1.
         -2   -1    0    0    0  501 -0.00000000000E+00 -0.00000000000E+00 -0.12026611399E+03  0.12026611399E+03  0.00000000000E+00 0. -1.
          2    1    1    2  502    0  0.24714656007E+01 -0.27369835004E+02  0.13025683590E+03  0.13312422510E+03  0.00000000000E+00 0. -1.
         -2    1    1    2    0  502 -0.24714656007E+01  0.27369835004E+02 -0.11724359369E+03  0.12042124510E+03  0.00000000000E+00 0. -1.
</event>
<event>
 4    1  0.5792100E+003  0.2295388E+02  0.7546771E-02  0.1493078E+00
          2   -1    0    0  501    0  0.00000000000E+00  0.00000000000E+00  0.91688860844E+03  0.91688860844E+03  0.00000000000E+00 0. -1.
         -2   -1    0    0    0  501 -0.00000000000E+00 -0.00000000000E+00 -0.10122200786E+01  0.10122200786E+01  0.00000000000E+00 0.  1.
          2    1    1    2  502    0 -0.22492107664E+02  0.45810310100E+01  0.75969503682E+03  0.76004172893E+03  0.00000000000E+00 0. -1.
         -2    1    1    2    0  502  0.22492107664E+02 -0.45810310100E+01  0.15618135154E+03  0.15785909958E+03  0.00000000000E+00 0.  1.
</event>
<event>
 4    1  0.5792100E+003  0.2180415E+02  0.7546771E-02  0.1508086E+00
          2   -1    0    0  501    0  0.00000000000E+00  0.00000000000E+00  0.16153746516E+03  0.16153746516E+03  0.00000000000E+00 0. -1.
         -2   -1    0    0    0  501 -0.00000000000E+00 -0.00000000000E+00 -0.32370050562E+02  0.32370050562E+02  0.00000000000E+00 0. -1.
          2    1    1    2  502    0 -0.14483292137E+02 -0.16298938175E+02  0.15702490792E+03  0.15853152003E+03  0.00000000000E+00 0. -1.
         -2    1    1    2    0  502  0.14483292137E+02  0.16298938175E+02 -0.27857493323E+02  0.35375995689E+02  0.00000000000E+00 0. -1.
</event>
<event>
 4    1  0.5792100E+003  0.2735308E+02  0.7546771E-02  0.1444093E+00
          2   -1    0    0  501    0  0.00000000000E+00  0.00000000000E+00  0.53839761702E+03  0.53839761702E+03  0.00000000000E+00 0. -1.
         -2   -1    0    0    0  501 -0.00000000000E+00 -0.00000000000E+00 -0.39373372344E+02  0.39373372344E+02  0.00000000000E+00 0. -1.
          2    1    1    2  502    0 -0.27237966081E+02  0.25068684564E+01  0.53325378981E+03  0.53395486282E+03  0.00000000000E+00 0. -1.
         -2    1    1    2    0  502  0.27237966081E+02 -0.25068684564E+01 -0.34229545130E+02  0.43816126546E+02  0.00000000000E+00 0. -1.
</event>
<event>
 4    1  0.5792100E+003  0.2301616E+02  0.7546771E-02  0.1492295E+00
          2   -1    0    0  501    0  0.00000000000E+00  0.00000000000E+00  0.14433190991E+04  0.14433190991E+04  0.00000000000E+00 0. -1.
         -2   -1    0    0    0  501 -0.00000000000E+00 -0.00000000000E+00 -0.18135967910E+02  0.18135967910E+02  0.00000000000E+00 0.  1.
          2    1    1    2  502    0  0.61602438531E+01  0.22176450630E+02  0.14358871586E+04  0.14360716124E+04  0.00000000000E+00 0. -1.
         -2    1    1    2    0  502 -0.61602438531E+01 -0.22176450630E+02 -0.10704027421E+02  0.25383454649E+02  0.00000000000E+00 0.  1.
</event>
<event>
 4    1  0.5792100E+003  0.2353398E+02  0.7546771E-02  0.1485900E+00
          2   -1    0    0  501    0  0.00000000000E+00  0.00000000000E+00  0.19251367680E+03  0.19251367680E+03  0.00000000000E+00 0.  1.
         -2   -1    0    0    0  501 -0.00000000000E+00 -0.00000000000E+00 -0.44376721088E+01  0.44376721088E+01  0.00000000000E+00 0. -1.
          2    1    1    2  502    0  0.41629251565E+01  0.23162868687E+02  0.15243854599E+03  0.15424447716E+03  0.00000000000E+00 0.  1.
         -2    1    1    2    0  502 -0.41629251565E+01 -0.23162868687E+02  0.35637458703E+02  0.42706871748E+02  0.00000000000E+00 0. -1.
</event>
<event>
 4    1  0.5792100E+003  0.2301143E+02  0.7546771E-02  0.1492355E+00
          2   -1    0    0  501    0  0.00000000000E+00  0.00000000000E+00  0.10674066491E+04  0.10674066491E+04  0.00000000000E+00 0.  1.
         -2   -1    0    0    0  501 -0.00000000000E+00 -0.00000000000E+00 -0.34201684504E+01  0.34201684504E+01  0.00000000000E+00 0.  1.
          2    1    1    2  502    0  0.12795260383E+02  0.19126083902E+02  0.10270560279E+04  0.10273137837E+04  0.00000000000E+00 0.  1.
         -2    1    1    2    0  502 -0.12795260383E+02 -0.19126083902E+02  0.36930452811E+02  0.43513033893E+02  0.00000000000E+00 0.  1.
</event>
<event>
 4    1  0.5792100E+003  0.5105222E+02  0.7546771E-02  0.1293674E+00
          2   -1    0    0  501    0  0.00000000000E+00  0.00000000000E+00  0.39468388219E+02  0.39468388219E+02  0.00000000000E+00 0.  1.
         -2   -1    0    0    0  501 -0.00000000000E+00 -0.00000000000E+00 -0.21464280357E+03  0.21464280357E+03  0.00000000000E+00 0. -1.
          2    1    1    2  502    0  0.30265452888E+02 -0.41113644228E+02  0.18132308441E+02  0.54176655394E+02  0.00000000000E+00 0.  1.
         -2    1    1    2    0  502 -0.30265452888E+02  0.41113644228E+02 -0.19330672380E+03  0.19993453640E+03  0.00000000000E+00 0. -1.
</event>
<event>
 4    1  0.5792100E+003  0.2016880E+02  0.7546771E-02  0.1531471E+00
          2   -1    0    0  501    0  0.00000000000E+00  0.00000000000E+00  0.61511348427E+02  0.61511348427E+02  0.00000000000E+00 0.  1.
         -2   -1    0    0    0  501 -0.00000000000E+00 -0.00000000000E+00 -0.16005339214E+02  0.16005339214E+02  0.00000000000E+00 0.  1.
          2    1    1    2  502    0 -0.60483263577E+01 -0.19240539888E+02  0.52443494871E+02  0.56188083979E+02  0.00000000000E+00 0.  1.
         -2    1    1    2    0  502  0.60483263577E+01  0.19240539888E+02 -0.69374856585E+01  0.21328603662E+02  0.00000000000E+00 0.  1.
</event>
<event>
 4    1  0.5792100E+003  0.3003729E+02  0.7546771E-02  0.1419273E+00
          2   -1    0    0  501    0  0.00000000000E+00  0.00000000000E+00  0.20245225952E+04  0.20245225952E+04  0.00000000000E+00 0. -1.
         -2   -1    0    0    0  501 -0.00000000000E+00 -0.00000000000E+00 -0.37116346233E+02  0.37116346233E+02  0.00000000000E+00 0.  1.
          2    1    1    2  502    0 -0.29030374519E+02  0.77120607255E+01  0.20183153959E+04  0.20185388963E+04  0.00000000000E+00 0. -1.
         -2    1    1    2    0  502  0.29030374519E+02 -0.77120607255E+01 -0.30909146943E+02  0.43100045129E+02  0.00000000000E+00 0.  1.
</event>
<event>
 4    1  0.5792100E+003  0.4433723E+02  0.7546771E-02  0.1324787E+00
          2   -1    0    0  501    0  0.00000000000E+00  0.00000000000E+00  0.58130368599E+03  0.58130368599E+03  0.00000000000E+00 0.  1.
         -2   -1    0    0    0  501 -0.00000000000E+00 -0.00000000000E+00 -0.57746063259E+02  0.57746063259E+02  0.00000000000E+00 0. -1.
          2    1    1    2  502    0  0.28298676535E+02  0.34131732433E+02  0.57180663045E+03  0.57352298374E+03  0.00000000000E+00 0.  1.
         -2    1    1    2    0  502 -0.28298676535E+02 -0.34131732433E+02 -0.48249007718E+02  0.65526765510E+02  0.00000000000E+00 0. -1.
</event>
<event>
 4    1  0.5792100E+003  0.2090384E+02  0.7546771E-02  0.1520642E+00
          2   -1    0    0  501    0  0.00000000000E+00  0.00000000000E+00  0.19596775129E+04  0.19596775129E+04  0.00000000000E+00 0. -1.
         -2   -1    0    0    0  501 -0.00000000000E+00 -0.00000000000E+00 -0.29878468805E+00  0.29878468805E+00  0.00000000000E+00 0.  1.
          2    1    1    2  502    0 -0.16326696990E+02  0.13054094413E+02  0.14733033544E+04  0.14734516431E+04  0.00000000000E+00 0. -1.
         -2    1    1    2    0  502  0.16326696990E+02 -0.13054094413E+02  0.48607537385E+03  0.48652465454E+03  0.00000000000E+00 0.  1.
</event>
<event>
 4    1  0.5792100E+003  0.2020046E+02  0.7546771E-02  0.1530993E+00
          2   -1    0    0  501    0  0.00000000000E+00  0.00000000000E+00  0.16510330275E+02  0.16510330275E+02  0.00000000000E+00 0. -1.
         -2   -1    0    0    0  501 -0.00000000000E+00 -0.00000000000E+00 -0.55954763137E+02  0.55954763137E+02  0.00000000000E+00 0. -1.
          2    1    1    2  502    0  0.19390800212E+02  0.56617675128E+01  0.73504915534E+01  0.21496243167E+02  0.00000000000E+00 0. -1.
         -2    1    1    2    0  502 -0.19390800212E+02 -0.56617675128E+01 -0.46794924416E+02  0.50968850245E+02  0.00000000000E+00 0. -1.
</event>
<event>
 4    1  0.5792100E+003  0.4294193E+02  0.7546771E-02  0.1332058E+00
          2   -1    0    0  501    0  0.00000000000E+00  0.00000000000E+00  0.29235259646E+04  0.29235259646E+04  0.00000000000E+00 0.  1.
         -2   -1    0    0    0  501 -0.00000000000E+00 -0.00000000000E+00 -0.13689693792E+03  0.13689693792E+03  0.00000000000E+00 0.  1.
          2    1    1    2  502    0 -0.17354398241E+02 -0.39278924840E+02  0.29199966942E+04  0.29203124325E+04  0.00000000000E+00 0.  1.
         -2    1    1    2    0  502  0.17354398241E+02  0.39278924840E+02 -0.13336766753E+03  0.14011047005E+03  0.00000000000E+00 0.  1.
</event>
<event>
 4    1  0.5792100E+003  0.2643318E+02  0.7546771E-02  0.1453386E+00
          2   -1    0    0  501    0  0.00000000000E+00  0.00000000000E+00  0.23108865658E+03  0.23108865658E+03  0.00000000000E+00 0. -1.
         -2   -1    0    0    0  501 -0.00000000000E+00 -0.00000000000E+00 -0.97640928301E+01  0.97640928301E+01  0.00000000000E+00 0.  1.
          2    1    1    2  502    0  0.18314555206E+02 -0.19060175324E+02  0.21072041300E+03  0.21237185706E+03  0.00000000000E+00 0. -1.
         -2    1    1    2    0  502 -0.18314555206E+02  0.19060175324E+02  0.10604150745E+02  0.28480892346E+02  0.00000000000E+00 0.  1.
</event>
<event>
 4    1  0.5792100E+003  0.3311741E+02  0.7546771E-02  0.1394304E+00
          2   -1    0    0  501    0  0.00000000000E+00  0.00000000000E+00  0.17878131720E+04  0.17878131720E+04  0.00000000000E+00 0.  1.
         -2   -1    0    0    0  501 -0.00000000000E+00 -0.00000000000E+00 -0.13041204307E+01  0.13041204307E+01  0.00000000000E+00 0.  1.
          2    1    1    2  502    0 -0.31543826631E+02 -0.10087117277E+02  0.15442535086E+04  0.15446085788E+04  0.00000000000E+00 0.  1.
         -2    1    1    2    0  502  0.31543826631E+02  0.10087117277E+02  0.24225554298E+03  0.24450871362E+03  0.00000000000E+00 0.  1.
</event>
<event>
 4    1  0.5792100E+003  0.2608748E+02  0.7546771E-02  0.1456996E+00
          2   -1    0    0  501    0  0.00000000000E+00  0.00000000000E+00  0.59320862281E+03  0.59320862281E+03  0.00000000000E+00 0. -1.
         -2   -1    0    0    0  501 -0.00000000000E+00 -0.00000000000E+00 -0.11474847924E+01  0.11474847924E+01  0.00000000000E+00 0.  1.
          2    1    1    2  502    0  0.54322614200E+01  0.25515625666E+02  0.30031154909E+03  0.30144250387E+03  0.00000000000E+00 0. -1.
         -2    1    1    2    0  502 -0.54322614200E+01 -0.25515625666E+02  0.29174958893E+03  0.29291360374E+03  0.00000000000E+00 0.  1.
</event>
<event>
 4    1  0.5792100E+003  0.6477000E+02  0.7546771E-02  0.1244434E+00
          2   -1    0    0  501    0  0.00000000000E+00  0.00000000000E+00  0.37232055738E+02  0.37232055738E+02  0.00000000000E+00 0. -1.
         -2   -1    0    0    0  501 -0.00000000000E+00 -0.00000000000E+00 -0.20074186793E+03  0.20074186793E+03  0.00000000000E+00 0. -1.
          2    1    1    2  502    0 -0.31389557037E+02 -0.56655522799E+02 -0.29443051383E+01  0.64836883696E+02  0.00000000000E+00 0. -1.
         -2    1    1    2    0  502  0.31389557037E+02  0.56655522799E+02 -0.16056550705E+03  0.17313703997E+03  0.00000000000E+00 0. -1.
</event>
<event>
 4    1  0.5792100E+003  0.3104393E+02  0.7546771E-02  0.1410736E+00
          2   -1    0    0  501    0  0.00000000000E+00  0.00000000000E+00  0.22008393672E+03  0.22008393672E+03  0.00000000000E+00 0. -1.
         -2   -1    0    0    0  501 -0.00000000000E+00 -0.00000000000E+00 -0.43966876621E+01  0.43966876621E+01  0.00000000000E+00 0. -1.
          2    1    1    2  502    0 -0.27846352026E+02 -0.13722474167E+02  0.11498269595E+03  0.11909973126E+03  0.00000000000E+00 0. -1.
         -2    1    1    2    0  502  0.27846352026E+02  0.13722474167E+02  0.10070455311E+03  0.10538089312E+03  0.00000000000E+00 0. -1.
</event>
<event>
 4    1  0.5792100E+003  0.2012409E+02  0.7546771E-02  0.1532147E+00
          2   -1    0    0  501    0  0.00000000000E+00  0.00000000000E+00  0.45875314903E+02  0.45875314903E+02  0.00000000000E+00 0.  1.
         -2   -1    0    0    0  501 -0.00000000000E+00 -0.00000000000E+00 -0.26853829042E+02  0.26853829042E+02  0.00000000000E+00 0. -1.
          2    1    1    2  502    0 -0.61050402113E+01 -0.19175696792E+02  0.39304495330E+02  0.44156791285E+02  0.00000000000E+00 0.  1.
         -2    1    1    2    0  502  0.61050402113E+01  0.19175696792E+02 -0.20283009469E+02  0.28572352661E+02  0.00000000000E+00 0. -1.
</event>
<event>
 4    1  0.5792100E+003  0.2063142E+02  0.7546771E-02  0.1524593E+00
          2   -1    0    0  501    0  0.00000000000E+00  0.00000000000E+00  0.84875823367E+03  0.84875823367E+03  0.00000000000E+00 0. -1.
         -2   -1    0    0    0  501 -0.00000000000E+00 -0.00000000000E+00 -0.32267429374E+02  0.32267429374E+02  0.00000000000E+00 0. -1.
          2    1    1    2  502    0  0.13061629953E+02 -0.15970269773E+02  0.84532157792E+03  0.84557331190E+03  0.00000000000E+00 0. -1.
         -2    1    1    2    0  502 -0.13061629953E+02  0.15970269773E+02 -0.28830773628E+02  0.35452351144E+02  0.00000000000E+00 0. -1.
</event>
<event>
 4    1  0.5792100E+003  0.2516202E+02  0.7546771E-02  0.1466999E+00
          2   -1    0    0  501    0  0.00000000000E+00  0.00000000000E+00  0.11071238493E+03  0.11071238493E+03  0.00000000000E+00 0. -1.
         -2   -1    0    0    0  501 -0.00000000000E+00 -0.00000000000E+00 -0.54421734885E+02  0.54421734885E+02  0.00000000000E+00 0.  1.
          2    1    1    2  502    0  0.55694714328E+01  0.24537894895E+02  0.10625391305E+03  0.10919258829E+03  0.00000000000E+00 0. -1.
         -2    1    1    2    0  502 -0.55694714328E+01 -0.24537894895E+02 -0.49963263014E+02  0.55941531522E+02  0.00000000000E+00 0.  1.
</event>
<event>
 4    1  0.5792100E+003  0.2364629E+02  0.7546771E-02  0.1484538E+00
          2   -1    0    0  501    0  0.00000000000E+00  0.00000000000E+00  0.97834365858E+01  0.97834365858E+01  0.00000000000E+00 0.  1.
         -2   -1    0    0    0  501 -0.00000000000E+00 -0.00000000000E+00 -0.57880180439E+02  0.57880180439E+02  0.00000000000E+00 0.  1.
          2    1    1    2  502    0  0.20055021285E+02 -0.12527695994E+02 -0.20254737765E+02  0.31135212342E+02  0.00000000000E+00 0.  1.
         -2    1    1    2    0  502 -0.20055021285E+02  0.12527695994E+02 -0.27842006088E+02  0.36528404683E+02  0.00000000000E+00 0.  1.
</event>
<event>
 4    1  0.5792100E+003  0.2271444E+02  0.7546771E-02  0.1496115E+00
          2   -1    0    0  501    0  0.00000000000E+00  0.00000000000E+00  0.39470524025E+03  0.39470524025E+03  0.00000000000E+00 0. -1.
         -2   -1    0    0    0  501 -0.00000000000E+00 -0.00000000000E+00 -0.10737059749E+03  0.10737059749E+03  0.00000000000E+00 0. -1.
          2    1    1    2  502    0  0.12556553160E+01  0.22679711592E+02  0.39317244834E+03  0.39382803370E+03  0.00000000000E+00 0. -1.
         -2    1    1    2    0  502 -0.12556553160E+01 -0.22679711592E+02 -0.10583780559E+03  0.10824780405E+03  0.00000000000E+00 0. -1.
</event>
<event>
 4    1  0.5792100E+003  0.2232927E+02  0.7546771E-02  0.1501097E+00
          2   -1    0    0  501    0  0.00000000000E+00  0.00000000000E+00  0.39464028738E+02  0.39464028738E+02  0.00000000000E+00 0. -1.
         -2   -1    0    0    0  501 -0.00000000000E+00 -0.00000000000E+00 -0.61580223306E+02  0.61580223306E+02  0.00000000000E+00 0. -1.
          2    1    1    2  502    0  0.76953672360E+01  0.20961331404E+02  0.33984117038E+02  0.40663451673E+02  0.00000000000E+00 0. -1.
         -2    1    1    2    0  502 -0.76953672360E+01 -0.20961331404E+02 -0.56100311606E+02  0.60380800371E+02  0.00000000000E+00 0. -1.
</event>
<event>
 4    1  0.5792100E+003  0.2353215E+02  0.7546771E-02  0.1485922E+00
          2   -1    0    0  501    0  0.00000000000E+00  0.00000000000E+00  0.21531284551E+03  0.21531284551E+03  0.00000000000E+00 0.  1.
         -2   -1    0    0    0  501 -0.00000000000E+00 -0.00000000000E+00 -0.37421987807E+01  0.37421987807E+01  0.00000000000E+00 0.  1.
          2    1    1    2  502    0 -0.13639534498E+02  0.19176164352E+02  0.16703573492E+03  0.16868520659E+03  0.00000000000E+00 0.  1.
         -2    1    1    2    0  502  0.13639534498E+02 -0.19176164352E+02  0.44534911810E+02  0.50369837705E+02  0.00000000000E+00 0.  1.
</event>
<event>
 4    1  0.5792100E+003  0.2962903E+02  0.7546771E-02  0.1422848E+00
          2   -1    0    0  501    0  0.00000000000E+00  0.00000000000E+00  0.28293337721E+03  0.28293337721E+03  0.00000000000E+00 0.  1.
         -2   -1    0    0    0  501 -0.00000000000E+00 -0.00000000000E+00 -0.49722333243E+02  0.49722333243E+02  0.00000000000E+00 0.  1.
          2    1    1    2  502    0 -0.23114393738E+02 -0.18536566734E+02  0.27766018359E+03  0.27923656110E+03  0.00000000000E+00 0.  1.
         -2    1    1    2    0  502  0.23114393738E+02  0.18536566734E+02 -0.44449139624E+02  0.53419149352E+02  0.00000000000E+00 0.  1.
</event>
<event>
 4    1  0.5792100E+003  0.5642694E+02  0.7546771E-02  0.1272481E+00
          2   -1    0    0  501    0  0.00000000000E+00  0.00000000000E+00  0.32415367282E+04  0.32415367282E+04  0.00000000000E+00 0. -1.
         -2   -1    0    0    0  501 -0.00000000000E+00 -0.00000000000E+00 -0.34687421891E+01  0.34687421891E+01  0.00000000000E+00 0. -1.
          2    1    1    2  502    0 -0.50747792630E+02 -0.24671047437E+02  0.29927374371E+04  0.29932693441E+04  0.00000000000E+00 0. -1.
         -2    1    1    2    0  502  0.50747792630E+02  0.24671047437E+02  0.24533054885E+03  0.25173612621E+03  0.00000000000E+00 0. -1.
</event>
<event>
 4    1  0.5792100E+003  0.2080812E+02  0.7546771E-02  0.1522022E+00
          2   -1    0    0  501    0  0.00000000000E+00  0.00000000000E+00  0.78492343997E+02  0.78492343997E+02  0.00000000000E+00 0.  1.
         -2   -1    0    0    0  501 -0.00000000000E+00 -0.00000000000E+00 -0.31915893489E+02  0.31915893489E+02  0.00000000000E+00 0. -1.
          2    1    1    2  502    0  0.11041650618E+02 -0.17636883252E+02  0.73495610634E+02  0.76384438740E+02  0.00000000000E+00 0.  1.
         -2    1    1    2    0  502 -0.11041650618E+02  0.17636883252E+02 -0.26919160127E+02  0.34023798746E+02  0.00000000000E+00 0. -1.
</event>
<event>
 4    1  0.5792100E+003  0.4473574E+02  0.7546771E-02  0.1322766E+00
          2   -1    0    0  501    0  0.00000000000E+00  0.00000000000E+00  0.16832103003E+04  0.16832103003E+04  0.00000000000E+00 0. -1.
         -2   -1    0    0    0  501 -0.00000000000E+00 -0.00000000000E+00 -0.32551159232E+01  0.32551159232E+01  0.00000000000E+00 0.  1.
          2    1    1    2  502    0 -0.44211946267E+02  0.68257221767E+01  0.15117848660E+04  0.15124466165E+04  0.00000000000E+00 0. -1.
         -2    1    1    2    0  502  0.44211946267E+02 -0.68257221767E+01  0.16817031834E+03  0.17401879969E+03  0.00000000000E+00 0.  1.
</event>
<event>
 4    1  0.5792100E+003  0.2405770E+02  0.7546771E-02  0.1479627E+00
          2   -1    0    0  501    0  0.00000000000E+00  0.00000000000E+00  0.13391672874E+03  0.13391672874E+03  0.00000000000E+00 0.  1.
         -2   -1    0    0    0  501 -0.00000000000E+00 -0.00000000000E+00 -0.11555579367E+02  0.11555579367E+02  0.00000000000E+00 0.  1.
          2    1    1    2  502    0 -0.19330967609E+02  0.14320837338E+02  0.11872914667E+03  0.12114199503E+03  0.00000000000E+00 0.  1.
         -2    1    1    2    0  502  0.19330967609E+02 -0.14320837338E+02  0.36320027017E+01  0.24330313076E+02  0.00000000000E+00 0.  1.
</event>
<event>
 4    1  0.5792100E+003  0.2556422E+02  0.7546771E-02  0.1462589E+00
          2   -1    0    0  501    0  0.00000000000E+00  0.00000000000E+00  0.19852178585E+03  0.19852178585E+03  0.00000000000E+00 0. -1.
         -2   -1    0    0    0  501 -0.00000000000E+00 -0.00000000000E+00 -0.28519049074E+02  0.28519049074E+02  0.00000000000E+00 0.  1.
          2    1    1    2  502    0  0.47819542994E+01 -0.25112987749E+02  0.19176906648E+03  0.19346551140E+03  0.00000000000E+00 0. -1.
         -2    1    1    2    0  502 -0.47819542994E+01  0.25112987749E+02 -0.21766329710E+02  0.33575323523E+02  0.00000000000E+00 0.  1.
</event>
<event>
 4    1  0.5792100E+003  0.2304064E+02  0.7546771E-02  0.1491988E+00
          2   -1    0    0  501    0  0.00000000000E+00  0.00000000000E+00  0.10322082514E+02  0.10322082514E+02  0.00000000000E+00 0. -1.
         -2   -1    0    0    0  501 -0.00000000000E+00 -0.00000000000E+00 -0.53823429604E+02  0.53823429604E+02  0.00000000000E+00 0.  1.
          2    1    1    2  502    0  0.22757422748E+02  0.36015098992E+01 -0.14988222426E+02  0.27486687235E+02  0.00000000000E+00 0. -1.
         -2    1    1    2    0  502 -0.22757422748E+02 -0.36015098992E+01 -0.28513124664E+02  0.36658824883E+02  0.00000000000E+00 0.  1.
</event>
<event>
 4    1  0.5792100E+003  0.2243726E+02  0.7546771E-02  0.1499688E+00
          2   -1    0    0  501    0  0.00000000000E+00  0.00000000000E+00  0.15913288986E+04  0.15913288986E+04  0.00000000000E+00 0.  1.
         -2   -1    0    0    0  501 -0.00000000000E+00 -0.00000000000E+00 -0.24925388917E+02  0.24925388917E+02  0.00000000000E+00 0. -1.
          2    1    1    2  502    0  0.20866812573E+02  0.82466325452E+01  0.15861840541E+04  0.15863427386E+04  0.00000000000E+00 0.  1.
         -2    1    1    2    0  502 -0.20866812573E+02 -0.82466325452E+01 -0.19780544479E+02  0.29911548860E+02  0.00000000000E+00 0. -1.
</event>
<event>
 4    1  0.5792100E+003  0.2439251E+02  0.7546771E-02  0.1475715E+00
          2   -1    0    0  501    0  0.00000000000E+00  0.00000000000E+00  0.68546173851E+01  0.68546173851E+01  0.00000000000E+00 0.  1.
         -2   -1    0    0    0  501 -0.00000000000E+00 -0.00000000000E+00 -0.10315756509E+03  0.10315756509E+03  0.00000000000E+00 0. -1.
          2    1    1    2  502    0  0.11687948856E+02 -0.21409960769E+02 -0.26249014442E+02  0.35833020076E+02  0.00000000000E+00 0.  1.
         -2    1    1    2    0  502 -0.11687948856E+02  0.21409960769E+02 -0.70053933263E+02  0.74179162399E+02  0.00000000000E+00 0. -1.
</event>
<event>
 4    1  0.5792100E+003  0.7921211E+02  0.7546771E-02  0.1205689E+00
          2   -1    0    0  501    0  0.00000000000E+00  0.00000000000E+00  0.70128675891E+03  0.70128675891E+03  0.00000000000E+00 0. -1.
         -2   -1    0    0    0  501 -0.00000000000E+00 -0.00000000000E+00 -0.42649934958E+02  0.42649934958E+02  0.00000000000E+00 0.  1.
          2    1    1    2  502    0 -0.73525298093E+02  0.29471836916E+02  0.65997662766E+03  0.66471325223E+03  0.00000000000E+00 0. -1.
         -2    1    1    2    0  502  0.73525298093E+02 -0.29471836916E+02 -0.13398037093E+01  0.79223441637E+02  0.00000000000E+00 0.  1.
</event>
<event>
 4    1  0.5792100E+003  0.5136190E+02  0.7546771E-02  0.1292373E+00
          2   -1    0    0  501    0  0.00000000000E+00  0.00000000000E+00  0.86759143153E+03  0.86759143153E+03  0.00000000000E+00 0.  1.
         -2   -1    0    0    0  501 -0.00000000000E+00 -0.00000000000E+00 -0.11032113596E+03  0.11032113596E+03  0.00000000000E+00 0.  1.
          2    1    1    2  502    0 -0.50972318134E+02  0.63140548270E+01  0.86080608434E+03  0.86233703350E+03  0.00000000000E+00 0.  1.
         -2    1    1    2    0  502  0.50972318134E+02 -0.63140548270E+01 -0.10353578876E+03  0.11557553400E+03  0.00000000000E+00 0.  1.
</event>
<event>
 4    1  0.5792100E+003  0.2131469E+02  0.7546771E-02  0.1514819E+00
          2   -1    0    0  501    0  0.00000000000E+00  0.00000000000E+00  0.11755115536E+01  0.11755115536E+01  0.00000000000E+00 0. -1.
         -2   -1    0    0    0  501 -0.00000000000E+00 -0.00000000000E+00 -0.11858306409E+04  0.11858306409E+04  0.00000000000E+00 0. -1.
          2    1    1    2  502    0 -0.16568539975E+02 -0.13408936793E+02 -0.10504677778E+03  0.10718741356E+03  0.00000000000E+00 0. -1.
         -2    1    1    2    0  502  0.16568539975E+02  0.13408936793E+02 -0.10796083516E+04  0.10798187389E+04  0.00000000000E+00 0. -1.
</event>
<event>
 4    1  0.5792100E+003  0.2903146E+02  0.7546771E-02  0.1428204E+00
          2   -1    0    0  501    0  0.00000000000E+00  0.00000000000E+00  0.60198992631E+03  0.60198992631E+03  0.00000000000E+00 0. -1.
         -2   -1    0    0    0  501 -0.00000000000E+00 -0.00000000000E+00 -0.15511190865E+01  0.15511190865E+01  0.00000000000E+00 0. -1.
          2    1    1    2  502    0  0.18882812998E+02 -0.22051400215E+02  0.20604761111E+03  0.20808277901E+03  0.00000000000E+00 0. -1.
         -2    1    1    2    0  502 -0.18882812998E+02  0.22051400215E+02  0.39439119612E+03  0.39545826639E+03  0.00000000000E+00 0. -1.
</event>
<event>
 4    1  0.5792100E+003  0.2406610E+02  0.7546771E-02  0.1479528E+00
          2   -1    0    0  501    0  0.00000000000E+00  0.00000000000E+00  0.24418863643E+03  0.24418863643E+03  0.00000000000E+00 0. -1.
         -2   -1    0    0    0  501 -0.00000000000E+00 -0.00000000000E+00 -0.68775780117E+02  0.68775780117E+02  0.00000000000E+00 0. -1.
          2    1    1    2  502    0 -0.11570534275E+01  0.24038268494E+02  0.24146669294E+03  0.24266301928E+03  0.00000000000E+00 0. -1.
         -2    1    1    2    0  502  0.11570534275E+01 -0.24038268494E+02 -0.66053836628E+02  0.70301397270E+02  0.00000000000E+00 0. -1.
</event>
<event>
 4    1  0.5792100E+003  0.3313718E+02  0.7546771E-02  0.1394155E+00
          2   -1    0    0  501    0  0.00000000000E+00  0.00000000000E+00  0.17761635948E+04  0.17761635948E+04  0.00000000000E+00 0.  1.
         -2   -1    0    0    0  501 -0.00000000000E+00 -0.00000000000E+00 -0.38110863560E+01  0.38110863560E+01  0.00000000000E+00 0.  1.
          2    1    1    2  502    0  0.32489422316E+02 -0.65199825377E+01  0.17007854561E+04  0.17011082388E+04  0.00000000000E+00 0.  1.
         -2    1    1    2    0  502 -0.32489422316E+02  0.65199825377E+01  0.71567052349E+02  0.78866442272E+02  0.00000000000E+00 0.  1.
</event>
<event>
 4    1  0.5792100E+003  0.3385882E+02  0.7546771E-02  0.1388768E+00
          2   -1    0    0  501    0  0.00000000000E+00  0.00000000000E+00  0.95778625205E+03  0.95778625205E+03  0.00000000000E+00 0.  1.
         -2   -1    0    0    0  501 -0.00000000000E+00 -0.00000000000E+00 -0.31760766114E+01  0.31760766114E+01  0.00000000000E+00 0.  1.
          2    1    1    2  502    0  0.17381328718E+01  0.33814180157E+02  0.85659207496E+03  0.85726098871E+03  0.00000000000E+00 0.  1.
         -2    1    1    2    0  502 -0.17381328718E+01 -0.33814180157E+02  0.98018100478E+02  0.10370133995E+03  0.00000000000E+00 0.  1.
</event>
<event>
 4    1  0.6768990E+003  0.2537401E+02  0.7546771E-02  0.1464662E+00
          2   -1    0    0  501    0  0.00000000000E+00  0.00000000000E+00  0.60201451069E+03  0.60201451069E+03  0.00000000000E+00 0.  1.
         -2   -1    0    0    0  501 -0.00000000000E+00 -0.00000000000E+00 -0.18438448622E+03  0.18438448622E+03  0.00000000000E+00 0.  1.
          2    1    1    2  502    0 -0.15812061237E+02 -0.19844881405E+02  0.60087252383E+03  0.60140803993E+03  0.00000000000E+00 0.  1.
         -2    1    1    2    0  502  0.15812061237E+02  0.19844881405E+02 -0.18324249935E+03  0.18499095699E+03  0.00000000000E+00 0.  1.
</event>
<event>
 4    1  0.5792100E+003  0.4186211E+02  0.7546771E-02  0.1337906E+00
          2   -1    0    0  501    0  0.00000000000E+00  0.00000000000E+00  0.11456457795E+04  0.11456457795E+04  0.00000000000E+00 0. -1.
         -2   -1    0    0    0  501 -0.00000000000E+00 -0.00000000000E+00 -0.19068950379E+02  0.19068950379E+02  0.00000000000E+00 0.  1.
          2    1    1    2  502    0  0.20843039848E+02 -0.36304322777E+02  0.11218001728E+04  0.11225809833E+04  0.00000000000E+00 0. -1.
         -2    1    1    2    0  502 -0.20843039848E+02  0.36304322777E+02  0.47766563131E+01  0.42133746664E+02  0.00000000000E+00 0.  1.
</event>
<event>
 4    1  0.5792100E+003  0.2371819E+02  0.7546771E-02  0.1483671E+00
          2   -1    0    0  501    0  0.00000000000E+00  0.00000000000E+00  0.16286033418E+04  0.16286033418E+04  0.00000000000E+00 0.  1.
         -2   -1    0    0    0  501 -0.00000000000E+00 -0.00000000000E+00 -0.32986188896E+02  0.32986188896E+02  0.00000000000E+00 0.  1.
          2    1    1    2  502    0  0.15493952810E+02  0.17958005109E+02  0.16242419932E+04  0.16244151578E+04  0.00000000000E+00 0.  1.
         -2    1    1    2    0  502 -0.15493952810E+02 -0.17958005109E+02 -0.28624840256E+02  0.37174372904E+02  0.00000000000E+00 0.  1.
</event>
<event>
 4    1  0.5792100E+003  0.2987897E+02  0.7546771E-02  0.1420651E+00
          2   -1    0    0  501    0  0.00000000000E+00  0.00000000000E+00  0.20794321535E+04  0.20794321535E+04  0.00000000000E+00 0.  1.
         -2   -1    0    0    0  501 -0.00000000000E+00 -0.00000000000E+00 -0.11907295105E+02  0.11907295105E+02  0.00000000000E+00 0. -1.
          2    1    1    2  502    0  0.72428160156E+01 -0.28987828717E+02  0.20604079494E+04  0.20606245827E+04  0.00000000000E+00 0.  1.
         -2    1    1    2    0  502 -0.72428160156E+01  0.28987828717E+02  0.71169089835E+01  0.30714865961E+02  0.00000000000E+00 0. -1.
</event>
<event>
 4    1  0.5792100E+003  0.2950927E+02  0.7546771E-02  0.1423909E+00
          2   -1    0    0  501    0  0.00000000000E+00  0.00000000000E+00  0.95064637954E+03  0.95064637954E+03  0.00000000000E+00 0.  1.
         -2   -1    0    0    0  501 -0.00000000000E+00 -0.00000000000E+00 -0.54365785856E+01  0.54365785856E+01  0.00000000000E+00 0.  1.
          2    1    1    2  502    0  0.21431828546E+02  0.20284812741E+02  0.90851759296E+03  0.90899670716E+03  0.00000000000E+00 0.  1.
         -2    1    1    2    0  502 -0.21431828546E+02 -0.20284812741E+02  0.36692207989E+02  0.47086250964E+02  0.00000000000E+00 0.  1.
</event>
<event>
 4    1  0.5792100E+003  0.2201291E+02  0.7546771E-02  0.1505279E+00
          2   -1    0    0  501    0  0.00000000000E+00  0.00000000000E+00  0.74471797542E+03  0.74471797542E+03  0.00000000000E+00 0. -1.
         -2   -1    0    0    0  501 -0.00000000000E+00 -0.00000000000E+00 -0.81768678896E+01  0.81768678896E+01  0.00000000000E+00 0. -1.
          2    1    1    2  502    0  0.21563224572E+02  0.44267081208E+01  0.72942964065E+03  0.72976172074E+03  0.00000000000E+00 0. -1.
         -2    1    1    2    0  502 -0.21563224572E+02 -0.44267081208E+01  0.71114668830E+01  0.23133122572E+02  0.00000000000E+00 0. -1.
</event>
<event>
 4    1  0.5792100E+003  0.2007600E+02  0.7546771E-02  0.1532877E+00
          2   -1    0    0  501    0  0.00000000000E+00  0.00000000000E+00  0.14201004941E+04  0.14201004941E+04  0.00000000000E+00 0. -1.
         -2   -1    0    0    0  501 -0.00000000000E+00 -0.00000000000E+00 -0.61775887134E+01  0.61775887134E+01  0.00000000000E+00 0.  1.
          2    1    1    2  502    0  0.16362429427E+02 -0.11632577328E+02  0.14035261223E+04  0.14036696983E+04  0.00000000000E+00 0. -1.
         -2    1    1    2    0  502 -0.16362429427E+02  0.11632577328E+02  0.10396783101E+02  0.22608384527E+02  0.00000000000E+00 0.  1.
</event>
<event>
 4    1  0.5792100E+003  0.2719795E+02  0.7546771E-02  0.1445630E+00
          2   -1    0    0  501    0  0.00000000000E+00  0.00000000000E+00  0.17452778844E+04  0.17452778844E+04  0.00000000000E+00 0.  1.
         -2   -1    0    0    0  501 -0.00000000000E+00 -0.00000000000E+00 -0.19578126211E+02  0.19578126211E+02  0.00000000000E+00 0. -1.
          2    1    1    2  502    0 -0.16917306205E+02  0.21296313642E+02  0.17356738085E+04  0.17358868908E+04  0.00000000000E+00 0.  1.
         -2    1    1    2    0  502  0.16917306205E+02 -0.21296313642E+02 -0.99740502805E+01  0.28969119817E+02  0.00000000000E+00 0. -1.
</event>
<event>
 4    1  0.5792100E+003  0.2994960E+02  0.7546771E-02  0.1420035E+00
          2   -1    0    0  501    0  0.00000000000E+00  0.00000000000E+00  0.86373188365E+02  0.86373188365E+02  0.00000000000E+00 0. -1.
         -2   -1    0    0    0  501 -0.00000000000E+00 -0.00000000000E+00 -0.31638725498E+03  0.31638725498E+03  0.00000000000E+00 0.  1.
          2    1    1    2  502    0 -0.27718177450E+02 -0.11343785625E+02  0.83040616480E+02  0.88276400124E+02  0.00000000000E+00 0. -1.
         -2    1    1    2    0  502  0.27718177450E+02  0.11343785625E+02 -0.31305468310E+03  0.31448404322E+03  0.00000000000E+00 0.  1.
</event>
<event>
 4    1  0.5792100E+003  0.2290248E+02  0.7546771E-02  0.1493726E+00
          2   -1    0    0  501    0  0.00000000000E+00  0.00000000000E+00  0.10977336183E+04  0.10977336183E+04  0.00000000000E+00 0. -1.
         -2   -1    0    0    0  501 -0.00000000000E+00 -0.00000000000E+00 -0.39172308890E+01  0.39172308890E+01  0.00000000000E+00 0.  1.
          2    1    1    2  502    0 -0.20811965803E+02 -0.95595812892E+01  0.10630465903E+04  0.10632932694E+04  0.00000000000E+00 0. -1.
         -2    1    1    2    0  502  0.20811965803E+02  0.95595812892E+01  0.30769797032E+02  0.38357579751E+02  0.00000000000E+00 0.  1.
</event>
<event>
 4    1  0.5792100E+003  0.2552241E+02  0.7546771E-02  0.1463043E+00
          2   -1    0    0  501    0  0.00000000000E+00  0.00000000000E+00  0.19099230744E+02  0.19099230744E+02  0.00000000000E+00 0.  1.
         -2   -1    0    0    0  501 -0.00000000000E+00 -0.00000000000E+00 -0.21946784547E+03  0.21946784547E+03  0.00000000000E+00 0.  1.
          2    1    1    2  502    0  0.25359944287E+02 -0.28752026861E+01  0.94396634219E+01  0.27212144536E+02  0.00000000000E+00 0.  1.
         -2    1    1    2    0  502 -0.25359944287E+02  0.28752026861E+01 -0.20980827815E+03  0.21135493168E+03  0.00000000000E+00 0.  1.
</event>
<event>
 4    1  0.5792100E+003  0.2033164E+02  0.7546771E-02  0.1529025E+00
          2   -1    0    0  501    0  0.00000000000E+00  0.00000000000E+00  0.49525354876E+03  0.49525354876E+03  0.00000000000E+00 0. -1.
         -2   -1    0    0    0  501 -0.00000000000E+00 -0.00000000000E+00 -0.10621883016E+03  0.10621883016E+03  0.00000000000E+00 0. -1.
          2    1    1    2  502    0  0.32889145887E+01  0.20063863469E+02  0.49406961582E+03  0.49448777624E+03  0.00000000000E+00 0. -1.
         -2    1    1    2    0  502 -0.32889145887E+01 -0.20063863469E+02 -0.10503489722E+03  0.10698460268E+03  0.00000000000E+00 0. -1.
</event>
<event>
 4    1  0.5792100E+003  0.3414926E+02  0.7546771E-02  0.1386645E+00
          2   -1    0    0  501    0  0.00000000000E+00  0.00000000000E+00  0.19293402388E+02  0.19293402388E+02  0.00000000000E+00 0. -1.
         -2   -1    0    0    0  501 -0.00000000000E+00 -0.00000000000E+00 -0.87409412176E+02  0.87409412176E+02  0.00000000000E+00 0. -1.
          2    1    1    2  502    0 -0.14050495327E+02 -0.31124841954E+02 -0.44254182158E+01  0.34434815696E+02  0.00000000000E+00 0. -1.
         -2    1    1    2    0  502  0.14050495327E+02  0.31124841954E+02 -0.63690591573E+02  0.72267998869E+02  0.00000000000E+00 0. -1.
</event>
<event>
 4    1  0.5792100E+003  0.4726111E+02  0.7546771E-02  0.1310505E+00
          2   -1    0    0  501    0  0.00000000000E+00  0.00000000000E+00  0.17247620543E+04  0.17247620543E+04  0.00000000000E+00 0.  1.
         -2   -1    0    0    0  501 -0.00000000000E+00 -0.00000000000E+00 -0.12968411103E+01  0.12968411103E+01  0.00000000000E+00 0.  1.
          2    1    1    2  502    0  0.31929540179E+02 -0.34844180607E+02  0.89401616688E+03  0.89526449673E+03  0.00000000000E+00 0.  1.
         -2    1    1    2    0  502 -0.31929540179E+02  0.34844180607E+02  0.82944904626E+03  0.83079439864E+03  0.00000000000E+00 0.  1.
</event>
<event>
 4    1  0.5792100E+003  0.2303359E+02  0.7546771E-02  0.1492077E+00
          2   -1    0    0  501    0  0.00000000000E+00  0.00000000000E+00  0.19136997422E+02  0.19136997422E+02  0.00000000000E+00 0.  1.
         -2   -1    0    0    0  501 -0.00000000000E+00 -0.00000000000E+00 -0.51353759863E+02  0.51353759863E+02  0.00000000000E+00 0.  1.
          2    1    1    2  502    0  0.65825191294E+01 -0.22072988992E+02  0.77999584089E+01  0.24318424133E+02  0.00000000000E+00 0.  1.
         -2    1    1    2    0  502 -0.65825191294E+01  0.22072988992E+02 -0.40016720849E+02  0.46172333152E+02  0.00000000000E+00 0.  1.
</event>
<event>
 4    1  0.5792100E+003  0.2029991E+02  0.7546771E-02  0.1529499E+00
          2   -1    0    0  501    0  0.00000000000E+00  0.00000000000E+00  0.45521950236E+03  0.45521950236E+03  0.00000000000E+00 0. -1.
         -2   -1    0    0    0  501 -0.00000000000E+00 -0.00000000000E+00 -0.29339965925E+01  0.29339965925E+01  0.00000000000E+00 0. -1.
          2    1    1    2  502    0  0.13079063620E+02  0.15524965970E+02  0.41662975274E+03  0.41712400716E+03  0.00000000000E+00 0. -1.
         -2    1    1    2    0  502 -0.13079063620E+02 -0.15524965970E+02  0.35655753028E+02  0.41029491802E+02  0.00000000000E+00 0. -1.
</event>
<event>
 4    1  0.5792100E+003  0.2185212E+02  0.7546771E-02  0.1507438E+00
          2   -1    0    0  501    0  0.00000000000E+00  0.00000000000E+00  0.14645623526E+01  0.14645623526E+01  0.00000000000E+00 0.  1.
         -2   -1    0    0    0  501 -0.00000000000E+00 -0.00000000000E+00 -0.37155418623E+03  0.37155418623E+03  0.00000000000E+00 0.  1.
          2    1    1    2  502    0  0.80209561218E+01 -0.20326815894E+02 -0.11977193275E+03  0.12174904950E+03  0.00000000000E+00 0.  1.
         -2    1    1    2    0  502 -0.80209561218E+01  0.20326815894E+02 -0.25031769113E+03  0.25126969908E+03  0.00000000000E+00 0.  1.
</event>
<event>
 4    1  0.5792100E+003  0.2075019E+02  0.7546771E-02  0.1522862E+00
          2   -1    0    0  501    0  0.00000000000E+00  0.00000000000E+00  0.30782220594E+02  0.30782220594E+02  0.00000000000E+00 0. -1.
         -2   -1    0    0    0  501 -0.00000000000E+00 -0.00000000000E+00 -0.53038343078E+03  0.53038343078E+03  0.00000000000E+00 0.  1.
          2    1    1    2  502    0  0.13616263370E+02  0.15657831718E+02  0.27057639762E+02  0.34098184582E+02  0.00000000000E+00 0. -1.
         -2    1    1    2    0  502 -0.13616263370E+02 -0.15657831718E+02 -0.52665884995E+03  0.52706746680E+03  0.00000000000E+00 0.  1.
</event>
<event>
 4    1  0.5792100E+003  0.2675337E+02  0.7546771E-02  0.1450101E+00
          2   -1    0    0  501    0  0.00000000000E+00  0.00000000000E+00  0.39902252613E+01  0.39902252613E+01  0.00000000000E+00 0.  1.
         -2   -1    0    0    0  501 -0.00000000000E+00 -0.00000000000E+00 -0.30056911218E+03  0.30056911218E+03  0.00000000000E+00 0.  1.
          2    1    1    2  502    0 -0.17633003606E+02 -0.20120143236E+02 -0.51592630444E+02  0.58116628396E+02  0.00000000000E+00 0.  1.
         -2    1    1    2    0  502  0.17633003606E+02  0.20120143236E+02 -0.24498625647E+03  0.24644270904E+03  0.00000000000E+00 0.  1.
</event>
<event>
 4    1  0.5792100E+003  0.2129515E+02  0.7546771E-02  0.1515092E+00
          2   -1    0    0  501    0  0.00000000000E+00  0.00000000000E+00  0.24096259878E+03  0.24096259878E+03  0.00000000000E+00 0. -1.
         -2   -1    0    0    0  501 -0.00000000000E+00 -0.00000000000E+00 -0.23621203404E+02  0.23621203404E+02  0.00000000000E+00 0.  1.
          2    1    1    2  502    0  0.64037556223E+01 -0.20309486257E+02  0.23558319927E+03  0.23654371076E+03  0.00000000000E+00 0. -1.
         -2    1    1    2    0  502 -0.64037556223E+01  0.20309486257E+02 -0.18241803896E+02  0.28040091431E+02  0.00000000000E+00 0.  1.
</event>
<event>
 4    1  0.5792100E+003  0.3402400E+02  0.7546771E-02  0.1387558E+00
          2   -1    0    0  501    0  0.00000000000E+00  0.00000000000E+00  0.43728157972E+03  0.43728157972E+03  0.00000000000E+00 0. -1.
         -2   -1    0    0    0  501 -0.00000000000E+00 -0.00000000000E+00 -0.87419791218E+01  0.87419791218E+01  0.00000000000E+00 0. -1.
          2    1    1    2  502    0 -0.29317554010E+02  0.17265958264E+02  0.40047721803E+03  0.40191993537E+03  0.00000000000E+00 0. -1.
         -2    1    1    2    0  502  0.29317554010E+02 -0.17265958264E+02  0.28062382571E+02  0.44103623474E+02  0.00000000000E+00 0. -1.
</event>
<event>
 4    1  0.5792100E+003  0.3913475E+02  0.7546771E-02  0.1353632E+00
          2   -1    0    0  501    0  0.00000000000E+00  0.00000000000E+00  0.57529664171E+02  0.57529664171E+02  0.00000000000E+00 0.  1.
         -2   -1    0    0    0  501 -0.00000000000E+00 -0.00000000000E+00 -0.41915986124E+03  0.41915986124E+03  0.00000000000E+00 0.  1.
          2    1    1    2  502    0  0.33575810728E+02 -0.20104559518E+02  0.49836675137E+02  0.63365783892E+02  0.00000000000E+00 0.  1.
         -2    1    1    2    0  502 -0.33575810728E+02  0.20104559518E+02 -0.41146687220E+03  0.41332374152E+03  0.00000000000E+00 0.  1.
</event>
<event>
 4    1  0.5792100E+003  0.2041665E+02  0.7546771E-02  0.1527759E+00
          2   -1    0    0  501    0  0.00000000000E+00  0.00000000000E+00  0.90400806086E+03  0.90400806086E+03  0.00000000000E+00 0.  1.
         -2   -1    0    0    0  501 -0.00000000000E+00 -0.00000000000E+00 -0.21825463073E+01  0.21825463073E+01  0.00000000000E+00 0. -1.
          2    1    1    2  502    0  0.20385174810E+02 -0.11331912232E+01  0.85330942762E+03  0.85355364140E+03  0.00000000000E+00 0.  1.
         -2    1    1    2    0  502 -0.20385174810E+02  0.11331912232E+01  0.48516086929E+02  0.52636965768E+02  0.00000000000E+00 0. -1.
</event>
<event>
 4    1  0.5792100E+003  0.3962513E+02  0.7546771E-02  0.1350697E+00
          2   -1    0    0  501    0  0.00000000000E+00  0.00000000000E+00  0.70832083905E+03  0.70832083905E+03  0.00000000000E+00 0. -1.
         -2   -1    0    0    0  501 -0.00000000000E+00 -0.00000000000E+00 -0.12120544403E+03  0.12120544403E+03  0.00000000000E+00 0. -1.
          2    1    1    2  502    0 -0.38264011736E+02 -0.10296440099E+02  0.70451054083E+03  0.70562401703E+03  0.00000000000E+00 0. -1.
         -2    1    1    2    0  502  0.38264011736E+02  0.10296440099E+02 -0.11739514581E+03  0.12390226605E+03  0.00000000000E+00 0. -1.
</event>
<event>
 4    1  0.5792100E+003  0.4236475E+02  0.7546771E-02  0.1335159E+00
          2   -1    0    0  501    0  0.00000000000E+00  0.00000000000E+00  0.38855032778E+02  0.38855032778E+02  0.00000000000E+00 0.  1.
         -2   -1    0    0    0  501 -0.00000000000E+00 -0.00000000000E+00 -0.12654819927E+03  0.12654819927E+03  0.00000000000E+00 0.  1.
          2    1    1    2  502    0 -0.38956568905E+02 -0.16648052068E+02  0.22055186886E+02  0.47761942664E+02  0.00000000000E+00 0.  1.
         -2    1    1    2    0  502  0.38956568905E+02  0.16648052068E+02 -0.10974835338E+03  0.11764128938E+03  0.00000000000E+00 0.  1.
</event>
<event>
 4    1  0.5792100E+003  0.2724813E+02  0.7546771E-02  0.1445131E+00
          2   -1    0    0  501    0  0.00000000000E+00  0.00000000000E+00  0.20335975118E+04  0.20335975118E+04  0.00000000000E+00 0. -1.
         -2   -1    0    0    0  501 -0.00000000000E+00 -0.00000000000E+00 -0.53496181468E+01  0.53496181468E+01  0.00000000000E+00 0.  1.
          2    1    1    2  502    0  0.14723788642E+02 -0.22927504532E+02  0.19981946380E+04  0.19983804122E+04  0.00000000000E+00 0. -1.
         -2    1    1    2    0  502 -0.14723788642E+02  0.22927504532E+02  0.30053255666E+02  0.40566717789E+02  0.00000000000E+00 0.  1.
</event>
<event>
 4    1  0.5792100E+003  0.2312832E+02  0.7546771E-02  0.1490893E+00
          2   -1    0    0  501    0  0.00000000000E+00  0.00000000000E+00  0.58023469485E+03  0.58023469485E+03  0.00000000000E+00 0.  1.
         -2   -1    0    0    0  501 -0.00000000000E+00 -0.00000000000E+00 -0.15909148770E+03  0.15909148770E+03  0.00000000000E+00 0. -1.
          2    1    1    2  502    0 -0.23038078014E+02 -0.20411410042E+01  0.57916207889E+03  0.57962369941E+03  0.00000000000E+00 0.  1.
         -2    1    1    2    0  502  0.23038078014E+02  0.20411410042E+01 -0.15801887174E+03  0.15970248314E+03  0.00000000000E+00 0. -1.
</event>
<event>
 4    1  0.5792100E+003  0.4491147E+02  0.7546771E-02  0.1321883E+00
          2   -1    0    0  501    0  0.00000000000E+00  0.00000000000E+00  0.88483776464E+03  0.88483776464E+03  0.00000000000E+00 0.  1.
         -2   -1    0    0    0  501 -0.00000000000E+00 -0.00000000000E+00 -0.22971668535E+01  0.22971668535E+01  0.00000000000E+00 0. -1.
          2    1    1    2  502    0 -0.55803020306E+01  0.44563443636E+02  0.48010421537E+03  0.48220026742E+03  0.00000000000E+00 0. -1.
         -2    1    1    2    0  502  0.55803020306E+01 -0.44563443636E+02  0.40243638241E+03  0.40493466407E+03  0.00000000000E+00 0.  1.
</event>
<event>
 4    1  0.5792100E+003  0.3426105E+02  0.7546771E-02  0.1385834E+00
          2   -1    0    0  501    0  0.00000000000E+00  0.00000000000E+00  0.10494394689E+04  0.10494394689E+04  0.00000000000E+00 0. -1.
         -2   -1    0    0    0  501 -0.00000000000E+00 -0.00000000000E+00 -0.15116561885E+02  0.15116561885E+02  0.00000000000E+00 0. -1.
          2    1    1    2  502    0  0.34027913900E+02  0.39900728984E+01  0.10293686213E+04  0.10299386284E+04  0.00000000000E+00 0. -1.
         -2    1    1    2    0  502 -0.34027913900E+02 -0.39900728984E+01  0.49542857177E+01  0.34617402460E+02  0.00000000000E+00 0. -1.
</event>
<event>
 4    1  0.5792100E+003  0.2077662E+02  0.7546771E-02  0.1522478E+00
          2   -1    0    0  501    0  0.00000000000E+00  0.00000000000E+00  0.13986432908E+04  0.13986432908E+04  0.00000000000E+00 0.  1.
         -2   -1    0    0    0  501 -0.00000000000E+00 -0.00000000000E+00 -0.35676774552E+00  0.35676774552E+00  0.00000000000E+00 0. -1.
          2    1    1    2  502    0 -0.68679614318E+01 -0.19608637896E+02  0.44220785010E+03  0.44269566326E+03  0.00000000000E+00 0. -1.
         -2    1    1    2    0  502  0.68679614318E+01  0.19608637896E+02  0.95607867292E+03  0.95630439526E+03  0.00000000000E+00 0.  1.
</event>
<event>
 4    1  0.5792100E+003  0.2100988E+02  0.7546771E-02  0.1519124E+00
          2   -1    0    0  501    0  0.00000000000E+00  0.00000000000E+00  0.77661523436E+03  0.77661523436E+03  0.00000000000E+00 0.  1.
         -2   -1    0    0    0  501 -0.00000000000E+00 -0.00000000000E+00 -0.94952011390E+01  0.94952011390E+01  0.00000000000E+00 0. -1.
          2    1    1    2  502    0  0.21007492806E+02 -0.31656396182E+00  0.76466955886E+03  0.76495813559E+03  0.00000000000E+00 0.  1.
         -2    1    1    2    0  502 -0.21007492806E+02  0.31656396182E+00  0.24504743643E+01  0.21152299907E+02  0.00000000000E+00 0. -1.
</event>
<event>
 4    1  0.5792100E+003  0.2790723E+02  0.7546771E-02  0.1438702E+00
          2   -1    0    0  501    0  0.00000000000E+00  0.00000000000E+00  0.60224461489E+03  0.60224461489E+03  0.00000000000E+00 0. -1.
         -2   -1    0    0    0  501 -0.00000000000E+00 -0.00000000000E+00 -0.42878298858E+02  0.42878298858E+02  0.00000000000E+00 0. -1.
          2    1    1    2  502    0  0.72723548403E+01  0.26943017113E+02  0.59734324412E+03  0.59799478644E+03  0.00000000000E+00 0. -1.
         -2    1    1    2    0  502 -0.72723548403E+01 -0.26943017113E+02 -0.37976928090E+02  0.47128127305E+02  0.00000000000E+00 0. -1.
</event>
<event>
 4    1  0.5792100E+003  0.4091199E+02  0.7546771E-02  0.1343223E+00
          2   -1    0    0  501    0  0.00000000000E+00  0.00000000000E+00  0.53247423502E+03  0.53247423502E+03  0.00000000000E+00 0.  1.
         -2   -1    0    0    0  501 -0.00000000000E+00 -0.00000000000E+00 -0.54432037566E+02  0.54432037566E+02  0.00000000000E+00 0. -1.
          2    1    1    2  502    0  0.27587141111E+02 -0.30211598346E+02  0.52387485406E+03  0.52546993610E+03  0.00000000000E+00 0.  1.
         -2    1    1    2    0  502 -0.27587141111E+02  0.30211598346E+02 -0.45832656605E+02  0.61436336486E+02  0.00000000000E+00 0. -1.
</event>
<event>
 4    1  0.5792100E+003  0.2167901E+02  0.7546771E-02  0.1509787E+00
          2   -1    0    0  501    0  0.00000000000E+00  0.00000000000E+00  0.44532742895E+03  0.44532742895E+03  0.00000000000E+00 0. -1.
         -2   -1    0    0    0  501 -0.00000000000E+00 -0.00000000000E+00 -0.29002875477E+01  0.29002875477E+01  0.00000000000E+00 0. -1.
          2    1    1    2  502    0 -0.79673410860E+01 -0.20161863969E+02  0.39996035207E+03  0.40054745351E+03  0.00000000000E+00 0. -1.
         -2    1    1    2    0  502  0.79673410860E+01  0.20161863969E+02  0.42466789331E+02  0.47680262989E+02  0.00000000000E+00 0. -1.
</event>
<event>
 4    1  0.5792100E+003  0.3586189E+02  0.7546771E-02  0.1374603E+00
          2   -1    0    0  501    0  0.00000000000E+00  0.00000000000E+00  0.17879651729E+01  0.17879651729E+01  0.00000000000E+00 0.  1.
         -2   -1    0    0    0  501 -0.00000000000E+00 -0.00000000000E+00 -0.82959791584E+03  0.82959791584E+03  0.00000000000E+00 0.  1.
          2    1    1    2  502    0 -0.51509183078E+01 -0.35490044715E+02 -0.26232863682E+03  0.26476855729E+03  0.00000000000E+00 0.  1.
         -2    1    1    2    0  502  0.51509183078E+01  0.35490044715E+02 -0.56548131384E+03  0.56661732372E+03  0.00000000000E+00 0.  1.
</event>
<event>
 4    1  0.5792100E+003  0.3404475E+02  0.7546771E-02  0.1387406E+00
          2   -1    0    0  501    0  0.00000000000E+00  0.00000000000E+00  0.19145712290E+03  0.19145712290E+03  0.00000000000E+00 0.  1.
         -2   -1    0    0    0  501 -0.00000000000E+00 -0.00000000000E+00 -0.56460612151E+03  0.56460612151E+03  0.00000000000E+00 0. -1.
          2    1    1    2  502    0  0.13623077169E+01  0.34017482207E+02  0.18942499907E+03  0.19246006145E+03  0.00000000000E+00 0.  1.
         -2    1    1    2    0  502 -0.13623077169E+01 -0.34017482207E+02 -0.56257399768E+03  0.56360318296E+03  0.00000000000E+00 0. -1.
</event>
<event>
 4    1  0.5792100E+003  0.6252402E+02  0.7546771E-02  0.1251490E+00
          2   -1    0    0  501    0  0.00000000000E+00  0.00000000000E+00  0.67763988467E+03  0.67763988467E+03  0.00000000000E+00 0. -1.
         -2   -1    0    0    0  501 -0.00000000000E+00 -0.00000000000E+00 -0.57775526530E+01  0.57775526530E+01  0.00000000000E+00 0. -1.
          2    1    1    2  502    0  0.37349714726E+02  0.50142321730E+02  0.34913598375E+03  0.35469027160E+03  0.00000000000E+00 0. -1.
         -2    1    1    2    0  502 -0.37349714726E+02 -0.50142321730E+02  0.32272634827E+03  0.32872716572E+03  0.00000000000E+00 0. -1.
</event>
<event>
 4    1  0.5792100E+003  0.2213692E+02  0.7546771E-02  0.1503630E+00
          2   -1    0    0  501    0  0.00000000000E+00  0.00000000000E+00  0.15288493755E+04  0.15288493755E+04  0.00000000000E+00 0.  1.
         -2   -1    0    0    0  501 -0.00000000000E+00 -0.00000000000E+00 -0.37701152823E+01  0.37701152823E+01  0.00000000000E+00 0.  1.
          2    1    1    2  502    0  0.78547071740E-01  0.22136784074E+02  0.14955505147E+04  0.14957143395E+04  0.00000000000E+00 0.  1.
         -2    1    1    2    0  502 -0.78547071740E-01 -0.22136784074E+02  0.29528745503E+02  0.36905151263E+02  0.00000000000E+00 0.  1.
</event>
<event>
 4    1  0.5792100E+003  0.4562018E+02  0.7546771E-02  0.1318367E+00
          2   -1    0    0  501    0  0.00000000000E+00  0.00000000000E+00  0.89874565544E+03  0.89874565544E+03  0.00000000000E+00 0. -1.
         -2   -1    0    0    0  501 -0.00000000000E+00 -0.00000000000E+00 -0.66242597684E+02  0.66242597684E+02  0.00000000000E+00 0. -1.
          2    1    1    2  502    0 -0.45326328892E+02  0.51696130951E+01  0.89023725146E+03  0.89140538750E+03  0.00000000000E+00 0. -1.
         -2    1    1    2    0  502  0.45326328892E+02 -0.51696130951E+01 -0.57734193701E+02  0.73582865619E+02  0.00000000000E+00 0. -1.
</event>
<event>
 4    1  0.5792100E+003  0.2238052E+02  0.7546771E-02  0.1500427E+00
          2   -1    0    0  501    0  0.00000000000E+00  0.00000000000E+00  0.10160969694E+04  0.10160969694E+04  0.00000000000E+00 0. -1.
         -2   -1    0    0    0  501 -0.00000000000E+00 -0.00000000000E+00 -0.17373351145E+01  0.17373351145E+01  0.00000000000E+00 0. -1.
          2    1    1    2  502    0  0.17833317727E+02 -0.13522588900E+02  0.93788712585E+03  0.93815411766E+03  0.00000000000E+00 0. -1.
         -2    1    1    2    0  502 -0.17833317727E+02  0.13522588900E+02  0.76472508383E+02  0.79680186810E+02  0.00000000000E+00 0. -1.
</event>
<event>
 4    1  0.5792100E+003  0.2453093E+02  0.7546771E-02  0.1474120E+00
          2   -1    0    0  501    0  0.00000000000E+00  0.00000000000E+00  0.78134247039E+03  0.78134247039E+03  0.00000000000E+00 0. -1.
         -2   -1    0    0    0  501 -0.00000000000E+00 -0.00000000000E+00 -0.30236341190E+01  0.30236341190E+01  0.00000000000E+00 0.  1.
          2    1    1    2  502    0  0.19445540079E+02  0.14954512861E+02  0.72773024406E+03  0.72814358103E+03  0.00000000000E+00 0. -1.
         -2    1    1    2    0  502 -0.19445540079E+02 -0.14954512861E+02  0.50588592215E+02  0.56222523478E+02  0.00000000000E+00 0.  1.
</event>
<event>
 4    1  0.5792100E+003  0.2869913E+02  0.7546771E-02  0.1431248E+00
          2   -1    0    0  501    0  0.00000000000E+00  0.00000000000E+00  0.28531847520E+03  0.28531847520E+03  0.00000000000E+00 0. -1.
         -2   -1    0    0    0  501 -0.00000000000E+00 -0.00000000000E+00 -0.81803691961E+01  0.81803691961E+01  0.00000000000E+00 0.  1.
          2    1    1    2  502    0  0.27562389518E+02  0.79971784439E+01  0.25661925024E+03  0.25821905385E+03  0.00000000000E+00 0. -1.
         -2    1    1    2    0  502 -0.27562389518E+02 -0.79971784439E+01  0.20518855767E+02  0.35279790546E+02  0.00000000000E+00 0.  1.
</event>
<event>
 4    1  0.5792100E+003  0.2151110E+02  0.7546771E-02  0.1512091E+00
          2   -1    0    0  501    0  0.00000000000E+00  0.00000000000E+00  0.22093552982E+04  0.22093552982E+04  0.00000000000E+00 0.  1.
         -2   -1    0    0    0  501 -0.00000000000E+00 -0.00000000000E+00 -0.24409463323E+00  0.24409463323E+00  0.00000000000E+00 0.  1.
          2    1    1    2  502    0  0.21420528075E+02 -0.19718903161E+01  0.15208351571E+04  0.15209872788E+04  0.00000000000E+00 0.  1.
         -2    1    1    2    0  502 -0.21420528075E+02  0.19718903161E+01  0.68827604646E+03  0.68861211397E+03  0.00000000000E+00 0.  1.
</event>
<event>
 4    1  0.5792100E+003  0.2143881E+02  0.7546771E-02  0.1513091E+00
          2   -1    0    0  501    0  0.00000000000E+00  0.00000000000E+00  0.64294390280E+03  0.64294390280E+03  0.00000000000E+00 0. -1.
         -2   -1    0    0    0  501 -0.00000000000E+00 -0.00000000000E+00 -0.33744750951E+01  0.33744750951E+01  0.00000000000E+00 0. -1.
          2    1    1    2  502    0  0.14364770061E+02 -0.15914643070E+02  0.60667895108E+03  0.60705763497E+03  0.00000000000E+00 0. -1.
         -2    1    1    2    0  502 -0.14364770061E+02  0.15914643070E+02  0.32890476622E+02  0.39260742930E+02  0.00000000000E+00 0. -1.
</event>
<event>
 4    1  0.5792100E+003  0.2499337E+02  0.7546771E-02  0.1468878E+00
          2   -1    0    0  501    0  0.00000000000E+00  0.00000000000E+00  0.28716158216E+02  0.28716158216E+02  0.00000000000E+00 0.  1.
         -2   -1    0    0    0  501 -0.00000000000E+00 -0.00000000000E+00 -0.76119294703E+02  0.76119294703E+02  0.00000000000E+00 0.  1.
          2    1    1    2  502    0  0.14482460887E+02 -0.20369749209E+02  0.20597528162E+02  0.32387135140E+02  0.00000000000E+00 0.  1.
         -2    1    1    2    0  502 -0.14482460887E+02  0.20369749209E+02 -0.68000664649E+02  0.72448317778E+02  0.00000000000E+00 0.  1.
</event>
<event>
 4    1  0.5792100E+003  0.2555602E+02  0.7546771E-02  0.1462678E+00
          2   -1    0    0  501    0  0.00000000000E+00  0.00000000000E+00  0.14107694462E+03  0.14107694462E+03  0.00000000000E+00 0. -1.
         -2   -1    0    0    0  501 -0.00000000000E+00 -0.00000000000E+00 -0.92563417789E+01  0.92563417789E+01  0.00000000000E+00 0.  1.
          2    1    1    2  502    0 -0.25438558224E+02 -0.24474692426E+01  0.11905373050E+03  0.12176576323E+03  0.00000000000E+00 0. -1.
         -2    1    1    2    0  502  0.25438558224E+02  0.24474692426E+01  0.12766872337E+02  0.28567523160E+02  0.00000000000E+00 0.  1.
</event>
<event>
 4    1  0.5792100E+003  0.2352127E+02  0.7546771E-02  0.1486054E+00
          2   -1    0    0  501    0  0.00000000000E+00  0.00000000000E+00  0.29779128659E+03  0.29779128659E+03  0.00000000000E+00 0. -1.
         -2   -1    0    0    0  501 -0.00000000000E+00 -0.00000000000E+00 -0.68888946757E+01  0.68888946757E+01  0.00000000000E+00 0.  1.
          2    1    1    2  502    0  0.20713205776E+02 -0.11145100783E+02  0.27563852701E+03  0.27664028582E+03  0.00000000000E+00 0. -1.
         -2    1    1    2    0  502 -0.20713205776E+02  0.11145100783E+02  0.15263864907E+02  0.28039895451E+02  0.00000000000E+00 0.  1.
</event>
<event>
 4    1  0.5792100E+003  0.2636833E+02  0.7546771E-02  0.1454059E+00
          2   -1    0    0  501    0  0.00000000000E+00  0.00000000000E+00  0.83800853954E+02  0.83800853954E+02  0.00000000000E+00 0. -1.
         -2   -1    0    0    0  501 -0.00000000000E+00 -0.00000000000E+00 -0.46988105658E+02  0.46988105658E+02  0.00000000000E+00 0.  1.
          2    1    1    2  502    0  0.70478848413E+01  0.25408977062E+02  0.77747140786E+02  0.82096934757E+02  0.00000000000E+00 0. -1.
         -2    1    1    2    0  502 -0.70478848413E+01 -0.25408977062E+02 -0.40934392489E+02  0.48692024856E+02  0.00000000000E+00 0.  1.
</event>
<event>
 4    1  0.7035015E+003  0.2246743E+02  0.7546771E-02  0.1499296E+00
          2   -1    0    0  501    0  0.00000000000E+00  0.00000000000E+00  0.14697286682E+04  0.14697286682E+04  0.00000000000E+00 0.  1.
         -2   -1    0    0    0  501 -0.00000000000E+00 -0.00000000000E+00 -0.14523451602E+03  0.14523451602E+03  0.00000000000E+00 0.  1.
          2    1    1    2  502    0  0.19715717402E+02 -0.10773854541E+02  0.14687733249E+04  0.14689451540E+04  0.00000000000E+00 0.  1.
         -2    1    1    2    0  502 -0.19715717402E+02  0.10773854541E+02 -0.14427917276E+03  0.14601803021E+03  0.00000000000E+00 0.  1.
</event>
<event>
 4    1  0.5792100E+003  0.2268995E+02  0.7546771E-02  0.1496429E+00
          2   -1    0    0  501    0  0.00000000000E+00  0.00000000000E+00  0.63753541523E+02  0.63753541523E+02  0.00000000000E+00 0. -1.
         -2   -1    0    0    0  501 -0.00000000000E+00 -0.00000000000E+00 -0.19490833148E+03  0.19490833148E+03  0.00000000000E+00 0. -1.
          2    1    1    2  502    0  0.22500008751E+02  0.29297544018E+01  0.61046002428E+02  0.65126402228E+02  0.00000000000E+00 0. -1.
         -2    1    1    2    0  502 -0.22500008751E+02 -0.29297544018E+01 -0.19220079238E+03  0.19353547077E+03  0.00000000000E+00 0. -1.
</event>
<event>
 4    1  0.5792100E+003  0.3278052E+02  0.7546771E-02  0.1396876E+00
          2   -1    0    0  501    0  0.00000000000E+00  0.00000000000E+00  0.16683312929E+02  0.16683312929E+02  0.00000000000E+00 0. -1.
         -2   -1    0    0    0  501 -0.00000000000E+00 -0.00000000000E+00 -0.13933101583E+03  0.13933101583E+03  0.00000000000E+00 0. -1.
          2    1    1    2  502    0  0.19386220346E+02  0.26433633467E+02 -0.41214715774E+01  0.33038599328E+02  0.00000000000E+00 0. -1.
         -2    1    1    2    0  502 -0.19386220346E+02 -0.26433633467E+02 -0.11852623132E+03  0.12297572943E+03  0.00000000000E+00 0. -1.
</event>
<event>
 4    1  0.5792100E+003  0.2410224E+02  0.7546771E-02  0.1479102E+00
          2   -1    0    0  501    0  0.00000000000E+00  0.00000000000E+00  0.10368231388E+04  0.10368231388E+04  0.00000000000E+00 0. -1.
         -2   -1    0    0    0  501 -0.00000000000E+00 -0.00000000000E+00 -0.52568377716E+01  0.52568377716E+01  0.00000000000E+00 0. -1.
          2    1    1    2  502    0  0.74642748243E+01 -0.22917297599E+02  0.10082741586E+04  0.10085621929E+04  0.00000000000E+00 0. -1.
         -2    1    1    2    0  502 -0.74642748243E+01  0.22917297599E+02  0.23292142458E+02  0.33517783760E+02  0.00000000000E+00 0. -1.
</event>
<event>
 4    1  0.5792100E+003  0.4601264E+02  0.7546771E-02  0.1316452E+00
          2   -1    0    0  501    0  0.00000000000E+00  0.00000000000E+00  0.36117426326E+03  0.36117426326E+03  0.00000000000E+00 0. -1.
         -2   -1    0    0    0  501 -0.00000000000E+00 -0.00000000000E+00 -0.15888388105E+02  0.15888388105E+02  0.00000000000E+00 0. -1.
          2    1    1    2  502    0 -0.23501565164E+02 -0.39558048424E+02  0.32241068642E+03  0.32567746848E+03  0.00000000000E+00 0. -1.
         -2    1    1    2    0  502  0.23501565164E+02  0.39558048424E+02  0.22875188740E+02  0.51385182885E+02  0.00000000000E+00 0. -1.
</event>
<event>
 4    1  0.5792100E+003  0.2831396E+02  0.7546771E-02  0.1434838E+00
          2   -1    0    0  501    0  0.00000000000E+00  0.00000000000E+00  0.40034389777E+03  0.40034389777E+03  0.00000000000E+00 0.  1.
         -2   -1    0    0    0  501 -0.00000000000E+00 -0.00000000000E+00 -0.61838481774E+03  0.61838481774E+03  0.00000000000E+00 0. -1.
          2    1    1    2  502    0  0.24993949317E+02  0.13303479496E+02  0.39951850696E+03  0.40052055812E+03  0.00000000000E+00 0.  1.
         -2    1    1    2    0  502 -0.24993949317E+02 -0.13303479496E+02 -0.61755942694E+03  0.61820815740E+03  0.00000000000E+00 0. -1.
</event>
<event>
 4    1  0.5792100E+003  0.2414565E+02  0.7546771E-02  0.1478592E+00
          2   -1    0    0  501    0  0.00000000000E+00  0.00000000000E+00  0.49028237971E+03  0.49028237971E+03  0.00000000000E+00 0.  1.
         -2   -1    0    0    0  501 -0.00000000000E+00 -0.00000000000E+00 -0.11971764160E+01  0.11971764160E+01  0.00000000000E+00 0.  1.
          2    1    1    2  502    0 -0.23876976217E+02 -0.35919737012E+01  0.26468190445E+03  0.26578096774E+03  0.00000000000E+00 0.  1.
         -2    1    1    2    0  502  0.23876976217E+02  0.35919737012E+01  0.22440329885E+03  0.22569858839E+03  0.00000000000E+00 0.  1.
</event>
<event>
 4    1  0.5792100E+003  0.2030508E+02  0.7546771E-02  0.1529422E+00
          2   -1    0    0  501    0  0.00000000000E+00  0.00000000000E+00  0.76324639511E+03  0.76324639511E+03  0.00000000000E+00 0.  1.
         -2   -1    0    0    0  501 -0.00000000000E+00 -0.00000000000E+00 -0.54867923281E+00  0.54867923281E+00  0.00000000000E+00 0.  1.
          2    1    1    2  502    0 -0.13044046607E+02  0.15561136169E+02  0.42885912549E+03  0.42933954585E+03  0.00000000000E+00 0.  1.
         -2    1    1    2    0  502  0.13044046607E+02 -0.15561136169E+02  0.33383859039E+03  0.33445552850E+03  0.00000000000E+00 0.  1.
</event>
<event>
 4    1  0.5792100E+003  0.2873294E+02  0.7546771E-02  0.1430936E+00
          2   -1    0    0  501    0  0.00000000000E+00  0.00000000000E+00  0.63100537443E+03  0.63100537443E+03  0.00000000000E+00 0. -1.
         -2   -1    0    0    0  501 -0.00000000000E+00 -0.00000000000E+00 -0.72171843748E+01  0.72171843748E+01  0.00000000000E+00 0.  1.
          2    1    1    2  502    0  0.24849361459E+01  0.28625283849E+02  0.60063533673E+03  0.60132220108E+03  0.00000000000E+00 0. -1.
         -2    1    1    2    0  502 -0.24849361459E+01 -0.28625283849E+02  0.23152853325E+02  0.36900357724E+02  0.00000000000E+00 0.  1.
</event>
<event>
 4    1  0.7306363E+003  0.2329641E+02  0.7546771E-02  0.1488809E+00
          2   -1    0    0  501    0  0.00000000000E+00  0.00000000000E+00  0.86138735881E+03  0.86138735881E+03  0.00000000000E+00 0. -1.
         -2   -1    0    0    0  501 -0.00000000000E+00 -0.00000000000E+00 -0.28429452743E+03  0.28429452743E+03  0.00000000000E+00 0. -1.
          2    1    1    2  502    0  0.18172533006E+02  0.14576747126E+02  0.86075223891E+03  0.86106744179E+03  0.00000000000E+00 0. -1.
         -2    1    1    2    0  502 -0.18172533006E+02 -0.14576747126E+02 -0.28365940753E+03  0.28461444446E+03  0.00000000000E+00 0. -1.
</event>
<event>
 4    1  0.5792100E+003  0.2963138E+02  0.7546771E-02  0.1422827E+00
          2   -1    0    0  501    0  0.00000000000E+00  0.00000000000E+00  0.20595434246E+04  0.20595434246E+04  0.00000000000E+00 0. -1.
         -2   -1    0    0    0  501 -0.00000000000E+00 -0.00000000000E+00 -0.95233715334E+00  0.95233715334E+00  0.00000000000E+00 0.  1.
          2    1    1    2  502    0  0.17480987989E+02 -0.23925583040E+02  0.17949759605E+04  0.17952205205E+04  0.00000000000E+00 0. -1.
         -2    1    1    2    0  502 -0.17480987989E+02  0.23925583040E+02  0.26361512693E+03  0.26527524123E+03  0.00000000000E+00 0.  1.
</event>
<event>
 4    1  0.5792100E+003  0.2055987E+02  0.7546771E-02  0.1525642E+00
          2   -1    0    0  501    0  0.00000000000E+00  0.00000000000E+00  0.28649225720E+03  0.28649225720E+03  0.00000000000E+00 0.  1.
         -2   -1    0    0    0  501 -0.00000000000E+00 -0.00000000000E+00 -0.13904087577E+02  0.13904087577E+02  0.00000000000E+00 0. -1.
          2    1    1    2  502    0  0.18503024151E+02  0.89636196481E+01  0.27829951665E+03  0.27905793189E+03  0.00000000000E+00 0.  1.
         -2    1    1    2    0  502 -0.18503024151E+02 -0.89636196481E+01 -0.57113470268E+01  0.21338412893E+02  0.00000000000E+00 0. -1.
</event>
<event>
 4    1  0.5792100E+003  0.6026737E+02  0.7546771E-02  0.1258927E+00
          2   -1    0    0  501    0  0.00000000000E+00  0.00000000000E+00  0.13962460611E+04  0.13962460611E+04  0.00000000000E+00 0.  1.
         -2   -1    0    0    0  501 -0.00000000000E+00 -0.00000000000E+00 -0.31518886013E+02  0.31518886013E+02  0.00000000000E+00 0.  1.
          2    1    1    2  502    0  0.53555952431E+02 -0.27639028671E+02  0.13661520433E+04  0.13674807352E+04  0.00000000000E+00 0.  1.
         -2    1    1    2    0  502 -0.53555952431E+02  0.27639028671E+02 -0.14248682169E+01  0.60284211831E+02  0.00000000000E+00 0.  1.
</event>
<event>
 4    1  0.5792100E+003  0.2508164E+02  0.7546771E-02  0.1467892E+00
          2   -1    0    0  501    0  0.00000000000E+00  0.00000000000E+00  0.10948816730E+02  0.10948816730E+02  0.00000000000E+00 0.  1.
         -2   -1    0    0    0  501 -0.00000000000E+00 -0.00000000000E+00 -0.99212962269E+02  0.99212962269E+02  0.00000000000E+00 0. -1.
          2    1    1    2  502    0  0.15423809608E+02  0.19778646732E+02 -0.83986393692E+01  0.26450442579E+02  0.00000000000E+00 0.  1.
         -2    1    1    2    0  502 -0.15423809608E+02 -0.19778646732E+02 -0.79865506170E+02  0.83711336420E+02  0.00000000000E+00 0. -1.
</event>
<event>
 4    1  0.5792100E+003  0.2342650E+02  0.7546771E-02  0.1487211E+00
          2   -1    0    0  501    0  0.00000000000E+00  0.00000000000E+00  0.25571157499E+03  0.25571157499E+03  0.00000000000E+00 0.  1.
         -2   -1    0    0    0  501 -0.00000000000E+00 -0.00000000000E+00 -0.11012230779E+02  0.11012230779E+02  0.00000000000E+00 0. -1.
          2    1    1    2  502    0  0.21227286885E+02  0.99097581500E+01  0.24201254777E+03  0.24314373176E+03  0.00000000000E+00 0.  1.
         -2    1    1    2    0  502 -0.21227286885E+02 -0.99097581500E+01  0.26867964379E+01  0.23580074008E+02  0.00000000000E+00 0. -1.
</event>
<event>
 4    1  0.5792100E+003  0.2447158E+02  0.7546771E-02  0.1474802E+00
          2   -1    0    0  501    0  0.00000000000E+00  0.00000000000E+00  0.87416008703E+01  0.87416008703E+01  0.00000000000E+00 0. -1.
         -2   -1    0    0    0  501 -0.00000000000E+00 -0.00000000000E+00 -0.10943514952E+04  0.10943514952E+04  0.00000000000E+00 0.  1.
          2    1    1    2  502    0 -0.10396690133E+02  0.22153267917E+02 -0.88008644663E+01  0.26006031233E+02  0.00000000000E+00 0. -1.
         -2    1    1    2    0  502  0.10396690133E+02 -0.22153267917E+02 -0.10768090299E+04  0.10770870649E+04  0.00000000000E+00 0.  1.
</event>
<event>
 4    1  0.5792100E+003  0.3870438E+02  0.7546771E-02  0.1356250E+00
          2   -1    0    0  501    0  0.00000000000E+00  0.00000000000E+00  0.56452835751E+02  0.56452835751E+02  0.00000000000E+00 0.  1.
         -2   -1    0    0    0  501 -0.00000000000E+00 -0.00000000000E+00 -0.38908179203E+02  0.38908179203E+02  0.00000000000E+00 0.  1.
          2    1    1    2  502    0 -0.34613911254E+02 -0.17317799730E+02  0.35659466280E+02  0.52627241759E+02  0.00000000000E+00 0.  1.
         -2    1    1    2    0  502  0.34613911254E+02  0.17317799730E+02 -0.18114809732E+02  0.42733773194E+02  0.00000000000E+00 0.  1.
</event>
<event>
 4    1  0.5792100E+003  0.1198172E+03  0.7546771E-02  0.1133309E+00
          2   -1    0    0  501    0  0.00000000000E+00  0.00000000000E+00  0.15531704007E+03  0.15531704007E+03  0.00000000000E+00 0. -1.
         -2   -1    0    0    0  501 -0.00000000000E+00 -0.00000000000E+00 -0.22193706368E+03  0.22193706368E+03  0.00000000000E+00 0.  1.
          2    1    1    2  502    0 -0.11970159839E+03 -0.52616941156E+01  0.11077990296E+03  0.16318193829E+03  0.00000000000E+00 0. -1.
         -2    1    1    2    0  502  0.11970159839E+03  0.52616941156E+01 -0.17739992657E+03  0.21407216547E+03  0.00000000000E+00 0.  1.
</event>
<event>
 4    1  0.5792100E+003  0.7595003E+02  0.7546771E-02  0.1213575E+00
          2   -1    0    0  501    0  0.00000000000E+00  0.00000000000E+00  0.10338280730E+04  0.10338280730E+04  0.00000000000E+00 0. -1.
         -2   -1    0    0    0  501 -0.00000000000E+00 -0.00000000000E+00 -0.55276497823E+02  0.55276497823E+02  0.00000000000E+00 0. -1.
          2    1    1    2  502    0  0.75715319783E+02 -0.59663060754E+01  0.10056133433E+04  0.10084773685E+04  0.00000000000E+00 0. -1.
         -2    1    1    2    0  502 -0.75715319783E+02  0.59663060754E+01 -0.27061768169E+02  0.80627202324E+02  0.00000000000E+00 0. -1.
</event>
<event>
 4    1  0.5792100E+003  0.2554131E+02  0.7546771E-02  0.1462838E+00
          2   -1    0    0  501    0  0.00000000000E+00  0.00000000000E+00  0.74359087420E+02  0.74359087420E+02  0.00000000000E+00 0.  1.
         -2   -1    0    0    0  501 -0.00000000000E+00 -0.00000000000E+00 -0.28416303826E+02  0.28416303826E+02  0.00000000000E+00 0. -1.
          2    1    1    2  502    0  0.25167886761E+02  0.43515718232E+01  0.65696351399E+02  0.70486660358E+02  0.00000000000E+00 0.  1.
         -2    1    1    2    0  502 -0.25167886761E+02 -0.43515718232E+01 -0.19753567805E+02  0.32288730888E+02  0.00000000000E+00 0. -1.
</event>
<event>
 4    1  0.5792100E+003  0.3561844E+02  0.7546771E-02  0.1376267E+00
          2   -1    0    0  501    0  0.00000000000E+00  0.00000000000E+00  0.16127480803E+04  0.16127480803E+04  0.00000000000E+00 0. -1.
         -2   -1    0    0    0  501 -0.00000000000E+00 -0.00000000000E+00 -0.79867306267E+01  0.79867306267E+01  0.00000000000E+00 0.  1.
          2    1    1    2  502    0  0.34521094342E+02 -0.87731010184E+01  0.15718052135E+04  0.15722087337E+04  0.00000000000E+00 0. -1.
         -2    1    1    2    0  502 -0.34521094342E+02  0.87731010184E+01  0.32956136181E+02  0.48526077196E+02  0.00000000000E+00 0.  1.
</event>
<event>
 4    1  0.5792100E+003  0.2688038E+02  0.7546771E-02  0.1448813E+00
          2   -1    0    0  501    0  0.00000000000E+00  0.00000000000E+00  0.68086232221E+01  0.68086232221E+01  0.00000000000E+00 0.  1.
         -2   -1    0    0    0  501 -0.00000000000E+00 -0.00000000000E+00 -0.13805450732E+03  0.13805450732E+03  0.00000000000E+00 0. -1.
          2    1    1    2  502    0  0.18655468629E+02  0.19352737647E+02 -0.30788500913E+02  0.40871588576E+02  0.00000000000E+00 0.  1.
         -2    1    1    2    0  502 -0.18655468629E+02 -0.19352737647E+02 -0.10045738319E+03  0.10399154197E+03  0.00000000000E+00 0. -1.
</event>
<event>
 4    1  0.5792100E+003  0.2239390E+02  0.7546771E-02  0.1500253E+00
          2   -1    0    0  501    0  0.00000000000E+00  0.00000000000E+00  0.15949158339E+04  0.15949158339E+04  0.00000000000E+00 0.  1.
         -2   -1    0    0    0  501 -0.00000000000E+00 -0.00000000000E+00 -0.48485131053E+00  0.48485131053E+00  0.00000000000E+00 0.  1.
          2    1    1    2  502    0 -0.22093993717E+02  0.36526828008E+01  0.12701485005E+04  0.12703458978E+04  0.00000000000E+00 0.  1.
         -2    1    1    2    0  502  0.22093993717E+02 -0.36526828008E+01  0.32428248202E+03  0.32505478737E+03  0.00000000000E+00 0.  1.
</event>
<event>
 4    1  0.5792100E+003  0.4279423E+02  0.7546771E-02  0.1332846E+00
          2   -1    0    0  501    0  0.00000000000E+00  0.00000000000E+00  0.13774043134E+04  0.13774043134E+04  0.00000000000E+00 0.  1.
         -2   -1    0    0    0  501 -0.00000000000E+00 -0.00000000000E+00 -0.20836117852E+01  0.20836117852E+01  0.00000000000E+00 0.  1.
          2    1    1    2  502    0  0.15864111156E+02 -0.39745133969E+02  0.11025945692E+04  0.11034247278E+04  0.00000000000E+00 0.  1.
         -2    1    1    2    0  502 -0.15864111156E+02  0.39745133969E+02  0.27272613239E+03  0.27606319745E+03  0.00000000000E+00 0.  1.
</event>
<event>
 4    1  0.5792100E+003  0.2630446E+02  0.7546771E-02  0.1454723E+00
          2   -1    0    0  501    0  0.00000000000E+00  0.00000000000E+00  0.18071557360E+04  0.18071557360E+04  0.00000000000E+00 0. -1.
         -2   -1    0    0    0  501 -0.00000000000E+00 -0.00000000000E+00 -0.23227925005E+01  0.23227925005E+01  0.00000000000E+00 0.  1.
          2    1    1    2  502    0  0.26137726990E+02 -0.29570242335E+01  0.17292331741E+04  0.17294332295E+04  0.00000000000E+00 0. -1.
         -2    1    1    2    0  502 -0.26137726990E+02  0.29570242335E+01  0.75599769382E+02  0.80045299019E+02  0.00000000000E+00 0.  1.
</event>
<event>
 4    1  0.5792100E+003  0.6254423E+02  0.7546771E-02  0.1251425E+00
          2   -1    0    0  501    0  0.00000000000E+00  0.00000000000E+00  0.97933814969E+03  0.97933814969E+03  0.00000000000E+00 0. -1.
         -2   -1    0    0    0  501 -0.00000000000E+00 -0.00000000000E+00 -0.14976128411E+02  0.14976128411E+02  0.00000000000E+00 0.  1.
          2    1    1    2  502    0  0.14259419964E+02  0.60897040687E+02  0.90790784203E+03  0.91005957511E+03  0.00000000000E+00 0. -1.
         -2    1    1    2    0  502 -0.14259419964E+02 -0.60897040687E+02  0.56454179250E+02  0.84254702996E+02  0.00000000000E+00 0.  1.
</event>
<event>
 4    1  0.5792100E+003  0.2166358E+02  0.7546771E-02  0.1509998E+00
          2   -1    0    0  501    0  0.00000000000E+00  0.00000000000E+00  0.72907848646E+02  0.72907848646E+02  0.00000000000E+00 0.  1.
         -2   -1    0    0    0  501 -0.00000000000E+00 -0.00000000000E+00 -0.22631747040E+02  0.22631747040E+02  0.00000000000E+00 0. -1.
          2    1    1    2  502    0 -0.15100455463E+02  0.15533410062E+02  0.65547314741E+02  0.69034491764E+02  0.00000000000E+00 0.  1.
         -2    1    1    2    0  502  0.15100455463E+02 -0.15533410062E+02 -0.15271213134E+02  0.26505103922E+02  0.00000000000E+00 0. -1.
</event>
<event>
 4    1  0.5792100E+003  0.2081129E+02  0.7546771E-02  0.1521976E+00
          2   -1    0    0  501    0  0.00000000000E+00  0.00000000000E+00  0.26929662999E+03  0.26929662999E+03  0.00000000000E+00 0. -1.
         -2   -1    0    0    0  501 -0.00000000000E+00 -0.00000000000E+00 -0.52658347407E+01  0.52658347407E+01  0.00000000000E+00 0. -1.
          2    1    1    2  502    0 -0.19500578122E+02 -0.72689357433E+01  0.24642744083E+03  0.24730465740E+03  0.00000000000E+00 0. -1.
         -2    1    1    2    0  502  0.19500578122E+02  0.72689357433E+01  0.17603354412E+02  0.27257807331E+02  0.00000000000E+00 0. -1.
</event>
<event>
 4    1  0.5792100E+003  0.2241645E+02  0.7546771E-02  0.1499959E+00
          2   -1    0    0  501    0  0.00000000000E+00  0.00000000000E+00  0.63849407975E+03  0.63849407975E+03  0.00000000000E+00 0. -1.
         -2   -1    0    0    0  501 -0.00000000000E+00 -0.00000000000E+00 -0.19860879143E+02  0.19860879143E+02  0.00000000000E+00 0. -1.
          2    1    1    2  502    0 -0.40148056544E+01  0.22053993246E+02  0.63190619201E+03  0.63230367133E+03  0.00000000000E+00 0. -1.
         -2    1    1    2    0  502  0.40148056544E+01 -0.22053993246E+02 -0.13272991405E+02  0.26051287557E+02  0.00000000000E+00 0. -1.
</event>
<event>
 4    1  0.5792100E+003  0.9267326E+02  0.7546771E-02  0.1177147E+00
          2   -1    0    0  501    0  0.00000000000E+00  0.00000000000E+00  0.69017226551E+03  0.69017226551E+03  0.00000000000E+00 0. -1.
         -2   -1    0    0    0  501 -0.00000000000E+00 -0.00000000000E+00 -0.30943977968E+02  0.30943977968E+02  0.00000000000E+00 0. -1.
          2    1    1    2  502    0  0.70939093730E+02  0.59632021437E+02  0.60840319846E+03  0.61542081936E+03  0.00000000000E+00 0. -1.
         -2    1    1    2    0  502 -0.70939093730E+02 -0.59632021437E+02  0.50825089080E+02  0.10569542412E+03  0.00000000000E+00 0. -1.
</event>
<event>
 4    1  0.5792100E+003  0.2032120E+02  0.7546771E-02  0.1529181E+00
          2   -1    0    0  501    0  0.00000000000E+00  0.00000000000E+00  0.43092288589E+03  0.43092288589E+03  0.00000000000E+00 0. -1.
         -2   -1    0    0    0  501 -0.00000000000E+00 -0.00000000000E+00 -0.52546225563E+02  0.52546225563E+02  0.00000000000E+00 0.  1.
          2    1    1    2  502    0  0.64222871789E+01  0.19279663698E+02  0.42870846510E+03  0.42918981728E+03  0.00000000000E+00 0. -1.
         -2    1    1    2    0  502 -0.64222871789E+01 -0.19279663698E+02 -0.50331804772E+02  0.54279294179E+02  0.00000000000E+00 0.  1.
</event>
<event>
 4    1  0.5792100E+003  0.3525189E+02  0.7546771E-02  0.1378801E+00
          2   -1    0    0  501    0  0.00000000000E+00  0.00000000000E+00  0.49654621837E+03  0.49654621837E+03  0.00000000000E+00 0.  1.
         -2   -1    0    0    0  501 -0.00000000000E+00 -0.00000000000E+00 -0.24954703508E+02  0.24954703508E+02  0.00000000000E+00 0.  1.
          2    1    1    2  502    0  0.31562328254E+02 -0.15700801731E+02  0.48312566348E+03  0.48441005610E+03  0.00000000000E+00 0.  1.
         -2    1    1    2    0  502 -0.31562328254E+02  0.15700801731E+02 -0.11534148616E+02  0.37090865777E+02  0.00000000000E+00 0.  1.
</event>
<event>
 4    1  0.5792100E+003  0.3660983E+02  0.7546771E-02  0.1369586E+00
          2   -1    0    0  501    0  0.00000000000E+00  0.00000000000E+00  0.12701325012E+04  0.12701325012E+04  0.00000000000E+00 0.  1.
         -2   -1    0    0    0  501 -0.00000000000E+00 -0.00000000000E+00 -0.48893716593E+01  0.48893716593E+01  0.00000000000E+00 0.  1.
          2    1    1    2  502    0 -0.22043063817E+02  0.29229827242E+02  0.11971623213E+04  0.11977219639E+04  0.00000000000E+00 0.  1.
         -2    1    1    2    0  502  0.22043063817E+02 -0.29229827242E+02  0.68080808308E+02  0.77299908945E+02  0.00000000000E+00 0.  1.
</event>
<event>
 4    1  0.5792100E+003  0.3087805E+02  0.7546771E-02  0.1412116E+00
          2   -1    0    0  501    0  0.00000000000E+00  0.00000000000E+00  0.20086081166E+03  0.20086081166E+03  0.00000000000E+00 0. -1.
         -2   -1    0    0    0  501 -0.00000000000E+00 -0.00000000000E+00 -0.15451716559E+02  0.15451716559E+02  0.00000000000E+00 0. -1.
          2    1    1    2  502    0 -0.22868903907E+02 -0.20747698042E+02  0.18272769291E+03  0.18531827621E+03  0.00000000000E+00 0. -1.
         -2    1    1    2    0  502  0.22868903907E+02  0.20747698042E+02  0.26814021878E+01  0.30994252010E+02  0.00000000000E+00 0. -1.
</event>
<event>
 4    1  0.5792100E+003  0.2113518E+02  0.7546771E-02  0.1517343E+00
          2   -1    0    0  501    0  0.00000000000E+00  0.00000000000E+00  0.24749634755E+03  0.24749634755E+03  0.00000000000E+00 0.  1.
         -2   -1    0    0    0  501 -0.00000000000E+00 -0.00000000000E+00 -0.25878420701E+01  0.25878420701E+01  0.00000000000E+00 0.  1.
          2    1    1    2  502    0  0.20917034161E+02 -0.30287954719E+01  0.19123448583E+03  0.19239886822E+03  0.00000000000E+00 0.  1.
         -2    1    1    2    0  502 -0.20917034161E+02  0.30287954719E+01  0.53674019647E+02  0.57685321401E+02  0.00000000000E+00 0.  1.
</event>
<event>
 4    1  0.5792100E+003  0.2359135E+02  0.7546771E-02  0.1485203E+00
          2   -1    0    0  501    0  0.00000000000E+00  0.00000000000E+00  0.25891873857E+02  0.25891873857E+02  0.00000000000E+00 0.  1.
         -2   -1    0    0    0  501 -0.00000000000E+00 -0.00000000000E+00 -0.64802537332E+02  0.64802537332E+02  0.00000000000E+00 0.  1.
          2    1    1    2  502    0 -0.19730952699E+02 -0.12932187362E+02  0.17615734762E+02  0.29442589485E+02  0.00000000000E+00 0.  1.
         -2    1    1    2    0  502  0.19730952699E+02  0.12932187362E+02 -0.56526398237E+02  0.61251821704E+02  0.00000000000E+00 0.  1.
</event>
<event>
 4    1  0.5792100E+003  0.2616090E+02  0.7546771E-02  0.1456224E+00
          2   -1    0    0  501    0  0.00000000000E+00  0.00000000000E+00  0.27109640258E+03  0.27109640258E+03  0.00000000000E+00 0.  1.
         -2   -1    0    0    0  501 -0.00000000000E+00 -0.00000000000E+00 -0.12358369857E+02  0.12358369857E+02  0.00000000000E+00 0.  1.
          2    1    1    2  502    0  0.34622259742E+01 -0.25930785776E+02  0.25579449725E+03  0.25712879552E+03  0.00000000000E+00 0.  1.
         -2    1    1    2    0  502 -0.34622259742E+01  0.25930785776E+02  0.29435354695E+01  0.26325976918E+02  0.00000000000E+00 0.  1.
</event>
<event>
 4    1  0.5792100E+003  0.2020143E+02  0.7546771E-02  0.1530978E+00
          2   -1    0    0  501    0  0.00000000000E+00  0.00000000000E+00  0.10624957850E+03  0.10624957850E+03  0.00000000000E+00 0. -1.
         -2   -1    0    0    0  501 -0.00000000000E+00 -0.00000000000E+00 -0.39654004534E+02  0.39654004534E+02  0.00000000000E+00 0.  1.
          2    1    1    2  502    0  0.20099931485E+02  0.20225123273E+01  0.10262651052E+03  0.10459588168E+03  0.00000000000E+00 0. -1.
         -2    1    1    2    0  502 -0.20099931485E+02 -0.20225123273E+01 -0.36030936560E+02  0.41307701354E+02  0.00000000000E+00 0.  1.
</event>
<event>
 4    1  0.5792100E+003  0.3477886E+02  0.7546771E-02  0.1382125E+00
          2   -1    0    0  501    0  0.00000000000E+00  0.00000000000E+00  0.37565164478E+03  0.37565164478E+03  0.00000000000E+00 0.  1.
         -2   -1    0    0    0  501 -0.00000000000E+00 -0.00000000000E+00 -0.42249265632E+01  0.42249265632E+01  0.00000000000E+00 0.  1.
          2    1    1    2  502    0 -0.15509108105E+02  0.31129354659E+02  0.27835086549E+03  0.28051519295E+03  0.00000000000E+00 0.  1.
         -2    1    1    2    0  502  0.15509108105E+02 -0.31129354659E+02  0.93075852722E+02  0.99361378390E+02  0.00000000000E+00 0.  1.
</event>
<event>
 4    1  0.5792100E+003  0.3355173E+02  0.7546771E-02  0.1391041E+00
          2   -1    0    0  501    0  0.00000000000E+00  0.00000000000E+00  0.81321481101E+02  0.81321481101E+02  0.00000000000E+00 0.  1.
         -2   -1    0    0    0  501 -0.00000000000E+00 -0.00000000000E+00 -0.18845984393E+03  0.18845984393E+03  0.00000000000E+00 0.  1.
          2    1    1    2  502    0 -0.96958847600E+01 -0.32120223146E+02  0.76272987291E+02  0.83326391416E+02  0.00000000000E+00 0.  1.
         -2    1    1    2    0  502  0.96958847600E+01  0.32120223146E+02 -0.18341135012E+03  0.18645493362E+03  0.00000000000E+00 0.  1.
</event>
<event>
 4    1  0.5792100E+003  0.3288789E+02  0.7546771E-02  0.1396053E+00
          2   -1    0    0  501    0  0.00000000000E+00  0.00000000000E+00  0.86651789334E+02  0.86651789334E+02  0.00000000000E+00 0. -1.
         -2   -1    0    0    0  501 -0.00000000000E+00 -0.00000000000E+00 -0.13725148907E+02  0.13725148907E+02  0.00000000000E+00 0. -1.
          2    1    1    2  502    0 -0.29927903456E+02  0.13635764121E+02  0.51566031127E+02  0.61161009104E+02  0.00000000000E+00 0. -1.
         -2    1    1    2    0  502  0.29927903456E+02 -0.13635764121E+02  0.21360609300E+02  0.39215929137E+02  0.00000000000E+00 0. -1.
</event>
<event>
 4    1  0.5792100E+003  0.2868754E+02  0.7546771E-02  0.1431355E+00
          2   -1    0    0  501    0  0.00000000000E+00  0.00000000000E+00  0.39247194200E+03  0.39247194200E+03  0.00000000000E+00 0. -1.
         -2   -1    0    0    0  501 -0.00000000000E+00 -0.00000000000E+00 -0.39774110902E+01  0.39774110902E+01  0.00000000000E+00 0. -1.
          2    1    1    2  502    0  0.21628708122E+02  0.18846059013E+02  0.33054708105E+03  0.33178961368E+03  0.00000000000E+00 0. -1.
         -2    1    1    2    0  502 -0.21628708122E+02 -0.18846059013E+02  0.57947449862E+02  0.64659739412E+02  0.00000000000E+00 0. -1.
</event>
<event>
 4    1  0.5792100E+003  0.2101999E+02  0.7546771E-02  0.1518980E+00
          2   -1    0    0  501    0  0.00000000000E+00  0.00000000000E+00  0.49436357518E+03  0.49436357518E+03  0.00000000000E+00 0.  1.
         -2   -1    0    0    0  501 -0.00000000000E+00 -0.00000000000E+00 -0.16532598117E+01  0.16532598117E+01  0.00000000000E+00 0. -1.
          2    1    1    2  502    0 -0.11634679966E+02 -0.17506406342E+02  0.41445258239E+03  0.41498528057E+03  0.00000000000E+00 0.  1.
         -2    1    1    2    0  502  0.11634679966E+02  0.17506406342E+02  0.78257732982E+02  0.81031554424E+02  0.00000000000E+00 0. -1.
</event>
<event>
 4    1  0.5792100E+003  0.2121572E+02  0.7546771E-02  0.1516207E+00
          2   -1    0    0  501    0  0.00000000000E+00  0.00000000000E+00  0.27170361842E+03  0.27170361842E+03  0.00000000000E+00 0. -1.
         -2   -1    0    0    0  501 -0.00000000000E+00 -0.00000000000E+00 -0.29684022770E+01  0.29684022770E+01  0.00000000000E+00 0.  1.
          2    1    1    2  502    0  0.16404175341E+02  0.13453992926E+02  0.22566441873E+03  0.22665951729E+03  0.00000000000E+00 0. -1.
         -2    1    1    2    0  502 -0.16404175341E+02 -0.13453992926E+02  0.43070797413E+02  0.48012503414E+02  0.00000000000E+00 0.  1.
</event>
<event>
 4    1  0.5792100E+003  0.2460032E+02  0.7546771E-02  0.1473325E+00
          2   -1    0    0  501    0  0.00000000000E+00  0.00000000000E+00  0.12349080077E+04  0.12349080077E+04  0.00000000000E+00 0. -1.
         -2   -1    0    0    0  501 -0.00000000000E+00 -0.00000000000E+00 -0.48585930107E+01  0.48585930107E+01  0.00000000000E+00 0. -1.
          2    1    1    2  502    0  0.10550756632E+02  0.22222898843E+02  0.12028152858E+04  0.12030668258E+04  0.00000000000E+00 0. -1.
         -2    1    1    2    0  502 -0.10550756632E+02 -0.22222898843E+02  0.27234128878E+02  0.36699774853E+02  0.00000000000E+00 0. -1.
</event>
<event>
 4    1  0.5792100E+003  0.2212462E+02  0.7546771E-02  0.1503793E+00
          2   -1    0    0  501    0  0.00000000000E+00  0.00000000000E+00  0.71764996671E+00  0.71764996671E+00  0.00000000000E+00 0. -1.
         -2   -1    0    0    0  501 -0.00000000000E+00 -0.00000000000E+00 -0.68259733174E+03  0.68259733174E+03  0.00000000000E+00 0.  1.
          2    1    1    2  502    0 -0.16456522673E+02 -0.14787878782E+02 -0.35029722430E+03  0.35099521913E+03  0.00000000000E+00 0. -1.
         -2    1    1    2    0  502  0.16456522673E+02  0.14787878782E+02 -0.33158245747E+03  0.33231976258E+03  0.00000000000E+00 0.  1.
</event>
<event>
 4    1  0.5792100E+003  0.2211351E+02  0.7546771E-02  0.1503940E+00
          2   -1    0    0  501    0  0.00000000000E+00  0.00000000000E+00  0.27607781675E+03  0.27607781675E+03  0.00000000000E+00 0. -1.
         -2   -1    0    0    0  501 -0.00000000000E+00 -0.00000000000E+00 -0.44602873774E+02  0.44602873774E+02  0.00000000000E+00 0. -1.
          2    1    1    2  502    0 -0.12612172547E+02 -0.18164257627E+02  0.27286185403E+03  0.27375645843E+03  0.00000000000E+00 0. -1.
         -2    1    1    2    0  502  0.12612172547E+02  0.18164257627E+02 -0.41386911048E+02  0.46924232093E+02  0.00000000000E+00 0. -1.
</event>
<event>
 4    1  0.5792100E+003  0.3174994E+02  0.7546771E-02  0.1404975E+00
          2   -1    0    0  501    0  0.00000000000E+00  0.00000000000E+00  0.27325637026E+04  0.27325637026E+04  0.00000000000E+00 0.  1.
         -2   -1    0    0    0  501 -0.00000000000E+00 -0.00000000000E+00 -0.47540132505E+00  0.47540132505E+00  0.00000000000E+00 0. -1.
          2    1    1    2  502    0  0.31551714880E+02 -0.35422907969E+01  0.20128164070E+04  0.20130668014E+04  0.00000000000E+00 0.  1.
         -2    1    1    2    0  502 -0.31551714880E+02  0.35422907969E+01  0.71927189428E+03  0.71997230255E+03  0.00000000000E+00 0. -1.
</event>
<event>
 4    1  0.5792100E+003  0.2244291E+02  0.7546771E-02  0.1499615E+00
          2   -1    0    0  501    0  0.00000000000E+00  0.00000000000E+00  0.24280269532E+03  0.24280269532E+03  0.00000000000E+00 0. -1.
         -2   -1    0    0    0  501 -0.00000000000E+00 -0.00000000000E+00 -0.27755076365E+02  0.27755076365E+02  0.00000000000E+00 0. -1.
          2    1    1    2  502    0 -0.20582764254E+02 -0.89461854481E+01  0.23764904486E+03  0.23870641580E+03  0.00000000000E+00 0. -1.
         -2    1    1    2    0  502  0.20582764254E+02  0.89461854481E+01 -0.22601425912E+02  0.31851355884E+02  0.00000000000E+00 0. -1.
</event>
<event>
 4    1  0.5792100E+003  0.2058841E+02  0.7546771E-02  0.1525223E+00
          2   -1    0    0  501    0  0.00000000000E+00  0.00000000000E+00  0.19503295215E+03  0.19503295215E+03  0.00000000000E+00 0.  1.
         -2   -1    0    0    0  501 -0.00000000000E+00 -0.00000000000E+00 -0.73852528565E+01  0.73852528565E+01  0.00000000000E+00 0. -1.
          2    1    1    2  502    0  0.56392756838E+01 -0.19801045423E+02  0.17884624652E+03  0.18002739437E+03  0.00000000000E+00 0.  1.
         -2    1    1    2    0  502 -0.56392756838E+01  0.19801045423E+02  0.88014527790E+01  0.22390810640E+02  0.00000000000E+00 0. -1.
</event>
<event>
 4    1  0.5792100E+003  0.1062870E+03  0.7546771E-02  0.1153338E+00
          2   -1    0    0  501    0  0.00000000000E+00  0.00000000000E+00  0.24251236020E+03  0.24251236020E+03  0.00000000000E+00 0.  1.
         -2   -1    0    0    0  501 -0.00000000000E+00 -0.00000000000E+00 -0.49961671119E+02  0.49961671119E+02  0.00000000000E+00 0.  1.
          2    1    1    2  502    0 -0.22309889549E+02  0.10391917138E+03  0.13430472035E+03  0.17127370860E+03  0.00000000000E+00 0.  1.
         -2    1    1    2    0  502  0.22309889549E+02 -0.10391917138E+03  0.58245968729E+02  0.12120032271E+03  0.00000000000E+00 0.  1.
</event>
<event>
 4    1  0.5792100E+003  0.2358317E+02  0.7546771E-02  0.1485302E+00
          2   -1    0    0  501    0  0.00000000000E+00  0.00000000000E+00  0.12079838665E+04  0.12079838665E+04  0.00000000000E+00 0. -1.
         -2   -1    0    0    0  501 -0.00000000000E+00 -0.00000000000E+00 -0.31916452499E+01  0.31916452499E+01  0.00000000000E+00 0. -1.
          2    1    1    2  502    0  0.11868489793E+02  0.20379026887E+02  0.11626043207E+04  0.11628434857E+04  0.00000000000E+00 0. -1.
         -2    1    1    2    0  502 -0.11868489793E+02 -0.20379026887E+02  0.42187900563E+02  0.48332026036E+02  0.00000000000E+00 0. -1.
</event>
<event>
 4    1  0.5792100E+003  0.2111360E+02  0.7546771E-02  0.1517649E+00
          2   -1    0    0  501    0  0.00000000000E+00  0.00000000000E+00  0.27766584389E+02  0.27766584389E+02  0.00000000000E+00 0.  1.
         -2   -1    0    0    0  501 -0.00000000000E+00 -0.00000000000E+00 -0.25540070638E+02  0.25540070638E+02  0.00000000000E+00 0. -1.
          2    1    1    2  502    0  0.21110748671E+02 -0.34718368281E+00  0.17356303435E+02  0.27331767504E+02  0.00000000000E+00 0.  1.
         -2    1    1    2    0  502 -0.21110748671E+02  0.34718368281E+00 -0.15129789684E+02  0.25974887523E+02  0.00000000000E+00 0. -1.
</event>
<event>
 4    1  0.5792100E+003  0.2067109E+02  0.7546771E-02  0.1524013E+00
          2   -1    0    0  501    0  0.00000000000E+00  0.00000000000E+00  0.26953910496E+02  0.26953910496E+02  0.00000000000E+00 0.  1.
         -2   -1    0    0    0  501 -0.00000000000E+00 -0.00000000000E+00 -0.10380337145E+03  0.10380337145E+03  0.00000000000E+00 0.  1.
          2    1    1    2  502    0 -0.95028491094E+01 -0.18357287750E+02  0.21754906674E+02  0.30009500481E+02  0.00000000000E+00 0.  1.
         -2    1    1    2    0  502  0.95028491094E+01  0.18357287750E+02 -0.98604367630E+02  0.10074778147E+03  0.00000000000E+00 0.  1.
</event>
<event>
 4    1  0.5792100E+003  0.2107977E+02  0.7546771E-02  0.1518129E+00
          2   -1    0    0  501    0  0.00000000000E+00  0.00000000000E+00  0.11399815636E+03  0.11399815636E+03  0.00000000000E+00 0. -1.
         -2   -1    0    0    0  501 -0.00000000000E+00 -0.00000000000E+00 -0.75726971534E+02  0.75726971534E+02  0.00000000000E+00 0.  1.
          2    1    1    2  502    0 -0.16003365598E+02 -0.13720384868E+02  0.11152445152E+03  0.11349916281E+03  0.00000000000E+00 0. -1.
         -2    1    1    2    0  502  0.16003365598E+02  0.13720384868E+02 -0.73253266695E+02  0.76225965084E+02  0.00000000000E+00 0.  1.
</event>
<event>
 4    1  0.5792100E+003  0.2656342E+02  0.7546771E-02  0.1452044E+00
          2   -1    0    0  501    0  0.00000000000E+00  0.00000000000E+00  0.64668920978E+03  0.64668920978E+03  0.00000000000E+00 0. -1.
         -2   -1    0    0    0  501 -0.00000000000E+00 -0.00000000000E+00 -0.12077817173E+01  0.12077817173E+01  0.00000000000E+00 0. -1.
          2    1    1    2  502    0 -0.18585554675E+02 -0.18978742625E+02  0.42342135496E+03  0.42425376763E+03  0.00000000000E+00 0. -1.
         -2    1    1    2    0  502  0.18585554675E+02  0.18978742625E+02  0.22206007310E+03  0.22364322386E+03  0.00000000000E+00 0. -1.
</event>
<event>
 4    1  0.5792100E+003  0.2284781E+02  0.7546771E-02  0.1494418E+00
          2   -1    0    0  501    0  0.00000000000E+00  0.00000000000E+00  0.14682208259E+04  0.14682208259E+04  0.00000000000E+00 0.  1.
         -2   -1    0    0    0  501 -0.00000000000E+00 -0.00000000000E+00 -0.43323727036E+00  0.43323727036E+00  0.00000000000E+00 0.  1.
          2    1    1    2  502    0  0.78492892608E+01 -0.21457193613E+02  0.10448563110E+04  0.10451060871E+04  0.00000000000E+00 0.  1.
         -2    1    1    2    0  502 -0.78492892608E+01  0.21457193613E+02  0.42293127763E+03  0.42354797615E+03  0.00000000000E+00 0.  1.
</event>
<event>
 4    1  0.5792100E+003  0.3863488E+02  0.7546771E-02  0.1356676E+00
          2   -1    0    0  501    0  0.00000000000E+00  0.00000000000E+00  0.29645786052E+03  0.29645786052E+03  0.00000000000E+00 0. -1.
         -2   -1    0    0    0  501 -0.00000000000E+00 -0.00000000000E+00 -0.59828648179E+01  0.59828648179E+01  0.00000000000E+00 0.  1.
          2    1    1    2  502    0 -0.38628344158E+02 -0.71048527674E+00  0.20542936560E+03  0.20903080638E+03  0.00000000000E+00 0. -1.
         -2    1    1    2    0  502  0.38628344158E+02  0.71048527674E+00  0.85045630098E+02  0.93409918962E+02  0.00000000000E+00 0.  1.
</event>
<event>
 4    1  0.5792100E+003  0.3585093E+02  0.7546771E-02  0.1374678E+00
          2   -1    0    0  501    0  0.00000000000E+00  0.00000000000E+00  0.98541892138E+03  0.98541892138E+03  0.00000000000E+00 0. -1.
         -2   -1    0    0    0  501 -0.00000000000E+00 -0.00000000000E+00 -0.44607421315E+01  0.44607421315E+01  0.00000000000E+00 0.  1.
          2    1    1    2  502    0 -0.35808652345E+02  0.17404996709E+01  0.90681826036E+03  0.90752666421E+03  0.00000000000E+00 0. -1.
         -2    1    1    2    0  502  0.35808652345E+02 -0.17404996709E+01  0.74139918886E+02  0.82352999304E+02  0.00000000000E+00 0.  1.
</event>
<event>
 4    1  0.5792100E+003  0.2033356E+02  0.7546771E-02  0.1528996E+00
          2   -1    0    0  501    0  0.00000000000E+00  0.00000000000E+00  0.35668502995E+03  0.35668502995E+03  0.00000000000E+00 0.  1.
         -2   -1    0    0    0  501 -0.00000000000E+00 -0.00000000000E+00 -0.17422249008E+03  0.17422249008E+03  0.00000000000E+00 0. -1.
          2    1    1    2  502    0  0.90156865494E-01 -0.20333360559E+02  0.35580048312E+03  0.35638102849E+03  0.00000000000E+00 0.  1.
         -2    1    1    2    0  502 -0.90156865494E-01  0.20333360559E+02 -0.17333794325E+03  0.17452649154E+03  0.00000000000E+00 0. -1.
</event>
<event>
 4    1  0.5792100E+003  0.2410363E+02  0.7546771E-02  0.1479086E+00
          2   -1    0    0  501    0  0.00000000000E+00  0.00000000000E+00  0.53353483919E+03  0.53353483919E+03  0.00000000000E+00 0.  1.
         -2   -1    0    0    0  501 -0.00000000000E+00 -0.00000000000E+00 -0.12929204887E+01  0.12929204887E+01  0.00000000000E+00 0.  1.
          2    1    1    2  502    0  0.85022393718E+00 -0.24088633462E+02  0.37233866330E+03  0.37311803137E+03  0.00000000000E+00 0.  1.
         -2    1    1    2    0  502 -0.85022393718E+00  0.24088633462E+02  0.15990325540E+03  0.16170972831E+03  0.00000000000E+00 0.  1.
</event>
<event>
 4    1  0.5792100E+003  0.7005219E+02  0.7546771E-02  0.1229040E+00
          2   -1    0    0  501    0  0.00000000000E+00  0.00000000000E+00  0.20823485493E+04  0.20823485493E+04  0.00000000000E+00 0. -1.
         -2   -1    0    0    0  501 -0.00000000000E+00 -0.00000000000E+00 -0.13169947834E+03  0.13169947834E+03  0.00000000000E+00 0. -1.
          2    1    1    2  502    0 -0.47346678314E+02 -0.51629458414E+02  0.20723993314E+04  0.20735829614E+04  0.00000000000E+00 0. -1.
         -2    1    1    2    0  502  0.47346678314E+02  0.51629458414E+02 -0.12175026044E+03  0.14046506627E+03  0.00000000000E+00 0. -1.
</event>
<event>
 4    1  0.5792100E+003  0.4410824E+02  0.7546771E-02  0.1325959E+00
          2   -1    0    0  501    0  0.00000000000E+00  0.00000000000E+00  0.15834308969E+04  0.15834308969E+04  0.00000000000E+00 0. -1.
         -2   -1    0    0    0  501 -0.00000000000E+00 -0.00000000000E+00 -0.14599368038E+02  0.14599368038E+02  0.00000000000E+00 0. -1.
          2    1    1    2  502    0 -0.32544938100E+02  0.29771865412E+02  0.15490694415E+04  0.15496972839E+04  0.00000000000E+00 0. -1.
         -2    1    1    2    0  502  0.32544938100E+02 -0.29771865412E+02  0.19762087387E+02  0.48332981120E+02  0.00000000000E+00 0. -1.
</event>
<event>
 4    1  0.5792100E+003  0.2772501E+02  0.7546771E-02  0.1440458E+00
          2   -1    0    0  501    0  0.00000000000E+00  0.00000000000E+00  0.32457972683E+03  0.32457972683E+03  0.00000000000E+00 0. -1.
         -2   -1    0    0    0  501 -0.00000000000E+00 -0.00000000000E+00 -0.31317268609E+01  0.31317268609E+01  0.00000000000E+00 0. -1.
          2    1    1    2  502    0  0.18876074005E+02 -0.20306893202E+02  0.24162916774E+03  0.24321457766E+03  0.00000000000E+00 0. -1.
         -2    1    1    2    0  502 -0.18876074005E+02  0.20306893202E+02  0.79818832230E+02  0.84496876037E+02  0.00000000000E+00 0. -1.
</event>
<event>
 4    1  0.5792100E+003  0.2264920E+02  0.7546771E-02  0.1496951E+00
          2   -1    0    0  501    0  0.00000000000E+00  0.00000000000E+00  0.98196859187E+03  0.98196859187E+03  0.00000000000E+00 0. -1.
         -2   -1    0    0    0  501 -0.00000000000E+00 -0.00000000000E+00 -0.14847214873E+01  0.14847214873E+01  0.00000000000E+00 0. -1.
          2    1    1    2  502    0  0.10684633387E+02  0.19970603473E+02  0.88611865927E+03  0.88640806895E+03  0.00000000000E+00 0. -1.
         -2    1    1    2    0  502 -0.10684633387E+02 -0.19970603473E+02  0.94365211118E+02  0.97045244412E+02  0.00000000000E+00 0. -1.
</event>
<event>
 4    1  0.5792100E+003  0.3659293E+02  0.7546771E-02  0.1369697E+00
          2   -1    0    0  501    0  0.00000000000E+00  0.00000000000E+00  0.27771403654E+03  0.27771403654E+03  0.00000000000E+00 0. -1.
         -2   -1    0    0    0  501 -0.00000000000E+00 -0.00000000000E+00 -0.77135890182E+01  0.77135890182E+01  0.00000000000E+00 0. -1.
          2    1    1    2  502    0  0.22382679855E+02 -0.28949235344E+02  0.22238415853E+03  0.22537470255E+03  0.00000000000E+00 0. -1.
         -2    1    1    2    0  502 -0.22382679855E+02  0.28949235344E+02  0.47616288994E+02  0.60052923010E+02  0.00000000000E+00 0. -1.
</event>
<event>
 4    1  0.5792100E+003  0.2073317E+02  0.7546771E-02  0.1523109E+00
          2   -1    0    0  501    0  0.00000000000E+00  0.00000000000E+00  0.36168613920E+03  0.36168613920E+03  0.00000000000E+00 0.  1.
         -2   -1    0    0    0  501 -0.00000000000E+00 -0.00000000000E+00 -0.14204922905E+02  0.14204922905E+02  0.00000000000E+00 0. -1.
          2    1    1    2  502    0  0.15579896680E+02  0.13679595157E+02  0.35365187594E+03  0.35425910554E+03  0.00000000000E+00 0.  1.
         -2    1    1    2    0  502 -0.15579896680E+02 -0.13679595157E+02 -0.61706596454E+01  0.21631956562E+02  0.00000000000E+00 0. -1.
</event>
<event>
 4    1  0.5792100E+003  0.2282997E+02  0.7546771E-02  0.1494644E+00
          2   -1    0    0  501    0  0.00000000000E+00  0.00000000000E+00  0.10489716263E+04  0.10489716263E+04  0.00000000000E+00 0. -1.
         -2   -1    0    0    0  501 -0.00000000000E+00 -0.00000000000E+00 -0.18656324250E+02  0.18656324250E+02  0.00000000000E+00 0.  1.
          2    1    1    2  502    0  0.20363150910E+02 -0.10322297388E+02  0.10418151055E+04  0.10420652195E+04  0.00000000000E+00 0. -1.
         -2    1    1    2    0  502 -0.20363150910E+02  0.10322297388E+02 -0.11499803432E+02  0.25562731023E+02  0.00000000000E+00 0.  1.
</event>
<event>
 4    1  0.5792100E+003  0.2282992E+02  0.7546771E-02  0.1494645E+00
          2   -1    0    0  501    0  0.00000000000E+00  0.00000000000E+00  0.21656569794E+03  0.21656569794E+03  0.00000000000E+00 0. -1.
         -2   -1    0    0    0  501 -0.00000000000E+00 -0.00000000000E+00 -0.28679152290E+01  0.28679152290E+01  0.00000000000E+00 0. -1.
          2    1    1    2  502    0 -0.17992343863E+02 -0.14052787890E+02  0.15084853621E+03  0.15256633365E+03  0.00000000000E+00 0. -1.
         -2    1    1    2    0  502  0.17992343863E+02  0.14052787890E+02  0.62849246497E+02  0.66867279520E+02  0.00000000000E+00 0. -1.
</event>
<event>
 4    1  0.5792100E+003  0.3311038E+02  0.7546771E-02  0.1394358E+00
          2   -1    0    0  501    0  0.00000000000E+00  0.00000000000E+00  0.14971071751E+04  0.14971071751E+04  0.00000000000E+00 0. -1.
         -2   -1    0    0    0  501 -0.00000000000E+00 -0.00000000000E+00 -0.63836427863E+01  0.63836427863E+01  0.00000000000E+00 0.  1.
          2    1    1    2  502    0 -0.29983775783E+02 -0.14045304661E+02  0.14526773045E+04  0.14530545924E+04  0.00000000000E+00 0. -1.
         -2    1    1    2    0  502  0.29983775783E+02  0.14045304661E+02  0.38046227796E+02  0.50436225500E+02  0.00000000000E+00 0.  1.
</event>
<event>
 4    1  0.5792100E+003  0.2103239E+02  0.7546771E-02  0.1518803E+00
          2   -1    0    0  501    0  0.00000000000E+00  0.00000000000E+00  0.21858902536E+04  0.21858902536E+04  0.00000000000E+00 0.  1.
         -2   -1    0    0    0  501 -0.00000000000E+00 -0.00000000000E+00 -0.21845931180E+00  0.21845931180E+00  0.00000000000E+00 0. -1.
          2    1    1    2  502    0 -0.17731408279E+02  0.11311874796E+02  0.13894612669E+04  0.13896204423E+04  0.00000000000E+00 0.  1.
         -2    1    1    2    0  502  0.17731408279E+02 -0.11311874796E+02  0.79621052732E+03  0.79648827058E+03  0.00000000000E+00 0. -1.
</event>
<event>
 4    1  0.5792100E+003  0.2732904E+02  0.7546771E-02  0.1444331E+00
          2   -1    0    0  501    0  0.00000000000E+00  0.00000000000E+00  0.16353502600E+02  0.16353502600E+02  0.00000000000E+00 0. -1.
         -2   -1    0    0    0  501 -0.00000000000E+00 -0.00000000000E+00 -0.49393736632E+02  0.49393736632E+02  0.00000000000E+00 0. -1.
          2    1    1    2  502    0  0.27238943557E+02 -0.22172408948E+01 -0.74948679122E+01  0.28338123585E+02  0.00000000000E+00 0. -1.
         -2    1    1    2    0  502 -0.27238943557E+02  0.22172408948E+01 -0.25545366120E+02  0.37409115647E+02  0.00000000000E+00 0. -1.
</event>
<event>
 4    1  0.5792100E+003  0.2766526E+02  0.7546771E-02  0.1441038E+00
          2   -1    0    0  501    0  0.00000000000E+00  0.00000000000E+00  0.39438738222E+03  0.39438738222E+03  0.00000000000E+00 0. -1.
         -2   -1    0    0    0  501 -0.00000000000E+00 -0.00000000000E+00 -0.24879524696E+02  0.24879524696E+02  0.00000000000E+00 0.  1.
          2    1    1    2  502    0 -0.25550267168E+02 -0.10608982605E+02  0.38604551990E+03  0.38703554113E+03  0.00000000000E+00 0. -1.
         -2    1    1    2    0  502  0.25550267168E+02  0.10608982605E+02 -0.16537662368E+02  0.32231365793E+02  0.00000000000E+00 0.  1.
</event>
<event>
 4    1  0.5792100E+003  0.2917444E+02  0.7546771E-02  0.1426909E+00
          2   -1    0    0  501    0  0.00000000000E+00  0.00000000000E+00  0.93327456490E+03  0.93327456490E+03  0.00000000000E+00 0.  1.
         -2   -1    0    0    0  501 -0.00000000000E+00 -0.00000000000E+00 -0.12674112906E+01  0.12674112906E+01  0.00000000000E+00 0. -1.
          2    1    1    2  502    0  0.10969067665E+02  0.27033819692E+02  0.71344630356E+03  0.71404255890E+03  0.00000000000E+00 0.  1.
         -2    1    1    2    0  502 -0.10969067665E+02 -0.27033819692E+02  0.21856085005E+03  0.22049941729E+03  0.00000000000E+00 0. -1.
</event>
<event>
 4    1  0.5792100E+003  0.2896641E+02  0.7546771E-02  0.1428796E+00
          2   -1    0    0  501    0  0.00000000000E+00  0.00000000000E+00  0.14248056028E+04  0.14248056028E+04  0.00000000000E+00 0.  1.
         -2   -1    0    0    0  501 -0.00000000000E+00 -0.00000000000E+00 -0.62170573608E+01  0.62170573608E+01  0.00000000000E+00 0. -1.
          2    1    1    2  502    0 -0.34253799156E+01  0.28763165022E+02  0.13900755502E+04  0.13903773186E+04  0.00000000000E+00 0.  1.
         -2    1    1    2    0  502  0.34253799156E+01 -0.28763165022E+02  0.28512995189E+02  0.40645341483E+02  0.00000000000E+00 0. -1.
</event>
