<event>
 4    1  0.1725802E+006  0.2380421E+02  0.7546771E-02  0.1482639E+00
         21   -1    0    0  502  501  0.00000000000E+00  0.00000000000E+00  0.34841716360E+03  0.34841716360E+03  0.00000000000E+00 0. -1.
         21   -1    0    0  504  502 -0.00000000000E+00 -0.00000000000E+00 -0.83398683754E+01  0.83398683754E+01  0.00000000000E+00 0. -1.
         21    1    1    2  503  501  0.61375069122E+01  0.22999381610E+02  0.33008241091E+03  0.33093962974E+03  0.00000000000E+00 0. -1.
         21    1    1    2  504  503 -0.61375069122E+01 -0.22999381610E+02  0.99948843214E+01  0.25817402234E+02  0.00000000000E+00 0. -1.
</event>
<event>
 4    1  0.1725802E+006  0.3147875E+02  0.7546771E-02  0.1407167E+00
         21   -1    0    0  504  501  0.00000000000E+00  0.00000000000E+00  0.94517924417E+02  0.94517924417E+02  0.00000000000E+00 0. -1.
         21   -1    0    0  503  502 -0.00000000000E+00 -0.00000000000E+00 -0.47235027627E+03  0.47235027627E+03  0.00000000000E+00 0. -1.
         21    1    1    2  503  501  0.17734212215E+02  0.26007874506E+02 -0.46918720578E+03  0.47024200778E+03  0.00000000000E+00 0. -1.
         21    1    1    2  504  502 -0.17734212215E+02 -0.26007874506E+02  0.91354853925E+02  0.96626192902E+02  0.00000000000E+00 0. -1.
</event>
<event>
 4    1  0.1725802E+006  0.2511750E+02  0.7546771E-02  0.1467493E+00
         21   -1    0    0  503  501  0.00000000000E+00  0.00000000000E+00  0.29115309751E+03  0.29115309751E+03  0.00000000000E+00 0. -1.
         21   -1    0    0  504  502 -0.00000000000E+00 -0.00000000000E+00 -0.93878224239E+01  0.93878224239E+01  0.00000000000E+00 0.  1.
         21    1    1    2  503  502  0.24900196978E+02 -0.32968467333E+01  0.90907672475E+01  0.26712002117E+02  0.00000000000E+00 0.  1.
         21    1    1    2  504  501 -0.24900196978E+02  0.32968467333E+01  0.27267450784E+03  0.27382891782E+03  0.00000000000E+00 0. -1.
</event>
<event>
 4    1  0.1725802E+006  0.4198963E+02  0.7546771E-02  0.1337205E+00
         21   -1    0    0  503  501  0.00000000000E+00  0.00000000000E+00  0.22699359642E+02  0.22699359642E+02  0.00000000000E+00 0. -1.
         21   -1    0    0  504  502 -0.00000000000E+00 -0.00000000000E+00 -0.82099976398E+02  0.82099976398E+02  0.00000000000E+00 0. -1.
         21    1    1    2  503  502 -0.40645111187E+02 -0.10540570823E+02 -0.17532629563E+02  0.45502986672E+02  0.00000000000E+00 0. -1.
         21    1    1    2  504  501  0.40645111187E+02  0.10540570823E+02 -0.41867987194E+02  0.59296349368E+02  0.00000000000E+00 0. -1.
</event>
<event>
 4    1  0.1725802E+006  0.3520733E+02  0.7546771E-02  0.1379111E+00
         21   -1    0    0  502  501  0.00000000000E+00  0.00000000000E+00  0.88760100175E+01  0.88760100175E+01  0.00000000000E+00 0. -1.
         21   -1    0    0  504  502 -0.00000000000E+00 -0.00000000000E+00 -0.28346451443E+03  0.28346451443E+03  0.00000000000E+00 0. -1.
         21    1    1    2  503  501 -0.27993284275E+02 -0.21352565636E+02 -0.33180661362E+02  0.48378841575E+02  0.00000000000E+00 0. -1.
         21    1    1    2  504  503  0.27993284275E+02  0.21352565636E+02 -0.24140784305E+03  0.24396168287E+03  0.00000000000E+00 0. -1.
</event>
<event>
 4    1  0.1725802E+006  0.3056472E+02  0.7546771E-02  0.1414751E+00
         21   -1    0    0  502  501  0.00000000000E+00  0.00000000000E+00  0.15099948173E+02  0.15099948173E+02  0.00000000000E+00 0.  1.
         21   -1    0    0  503  502 -0.00000000000E+00 -0.00000000000E+00 -0.50048593641E+03  0.50048593641E+03  0.00000000000E+00 0.  1.
         21    1    1    2  503  504  0.27554611976E+02  0.13226699205E+02 -0.48402688957E+03  0.48499096079E+03  0.00000000000E+00 0.  1.
         21    1    1    2  504  501 -0.27554611976E+02 -0.13226699205E+02 -0.13590986618E+01  0.30594923797E+02  0.00000000000E+00 0.  1.
</event>
<event>
 4    1  0.1725802E+006  0.2250938E+02  0.7546771E-02  0.1498752E+00
         21   -1    0    0  503  501  0.00000000000E+00  0.00000000000E+00  0.27034260774E+02  0.27034260774E+02  0.00000000000E+00 0. -1.
         21   -1    0    0  504  502 -0.00000000000E+00 -0.00000000000E+00 -0.40297584697E+02  0.40297584697E+02  0.00000000000E+00 0.  1.
         21    1    1    2  503  502 -0.22466406204E+02  0.13903087044E+01  0.17990847609E+02  0.28815672189E+02  0.00000000000E+00 0. -1.
         21    1    1    2  504  501  0.22466406204E+02 -0.13903087044E+01 -0.31254171532E+02  0.38516173281E+02  0.00000000000E+00 0.  1.
</event>
<event>
 4    1  0.1725802E+006  0.2534052E+02  0.7546771E-02  0.1465030E+00
         21   -1    0    0  502  501  0.00000000000E+00  0.00000000000E+00  0.54389348257E+02  0.54389348257E+02  0.00000000000E+00 0. -1.
         21   -1    0    0  503  502 -0.00000000000E+00 -0.00000000000E+00 -0.11832155281E+02  0.11832155281E+02  0.00000000000E+00 0. -1.
         21    1    1    2  503  504  0.20660613726E+02 -0.14672462198E+02  0.22823551895E+02  0.34103616048E+02  0.00000000000E+00 0. -1.
         21    1    1    2  504  501 -0.20660613726E+02  0.14672462198E+02  0.19733641081E+02  0.32117887489E+02  0.00000000000E+00 0. -1.
</event>
<event>
 4    1  0.1725802E+006  0.2356697E+02  0.7546771E-02  0.1485499E+00
         21   -1    0    0  503  501  0.00000000000E+00  0.00000000000E+00  0.20516403408E+03  0.20516403408E+03  0.00000000000E+00 0. -1.
         21   -1    0    0  504  502 -0.00000000000E+00 -0.00000000000E+00 -0.32841147122E+01  0.32841147122E+01  0.00000000000E+00 0.  1.
         21    1    1    2  503  502 -0.17019259328E+02 -0.16301750966E+02  0.57253449923E+02  0.61914132480E+02  0.00000000000E+00 0.  1.
         21    1    1    2  504  501  0.17019259328E+02  0.16301750966E+02  0.14462646945E+03  0.14653401632E+03  0.00000000000E+00 0. -1.
</event>
<event>
 4    1  0.1725802E+006  0.2372694E+02  0.7546771E-02  0.1483566E+00
         21   -1    0    0  503  501  0.00000000000E+00  0.00000000000E+00  0.11241485328E+03  0.11241485328E+03  0.00000000000E+00 0. -1.
         21   -1    0    0  501  502 -0.00000000000E+00 -0.00000000000E+00 -0.53481090749E+02  0.53481090749E+02  0.00000000000E+00 0. -1.
         21    1    1    2  503  504 -0.23723245305E+02 -0.41861899237E+00  0.10843580855E+03  0.11100131615E+03  0.00000000000E+00 0. -1.
         21    1    1    2  504  502  0.23723245305E+02  0.41861899237E+00 -0.49502046024E+02  0.54894627881E+02  0.00000000000E+00 0. -1.
</event>
<event>
 4    1  0.1725802E+006  0.2904723E+02  0.7546771E-02  0.1428061E+00
         21   -1    0    0  502  501  0.00000000000E+00  0.00000000000E+00  0.31526235637E+03  0.31526235637E+03  0.00000000000E+00 0. -1.
         21   -1    0    0  503  502 -0.00000000000E+00 -0.00000000000E+00 -0.46031610674E+02  0.46031610674E+02  0.00000000000E+00 0. -1.
         21    1    1    2  503  504 -0.25778797447E+02 -0.13386389851E+02 -0.40701492641E+02  0.50003533218E+02  0.00000000000E+00 0. -1.
         21    1    1    2  504  501  0.25778797447E+02  0.13386389851E+02  0.30993223834E+03  0.31129043383E+03  0.00000000000E+00 0. -1.
</event>
<event>
 4    1  0.1725802E+006  0.2536454E+02  0.7546771E-02  0.1464766E+00
         21   -1    0    0  504  501  0.00000000000E+00  0.00000000000E+00  0.40622893050E+01  0.40622893050E+01  0.00000000000E+00 0. -1.
         21   -1    0    0  503  502 -0.00000000000E+00 -0.00000000000E+00 -0.15877827835E+03  0.15877827835E+03  0.00000000000E+00 0. -1.
         21    1    1    2  503  501  0.11175699741E+01 -0.25339908800E+02 -0.73248218271E+02  0.77515555990E+02  0.00000000000E+00 0. -1.
         21    1    1    2  504  502 -0.11175699741E+01  0.25339908800E+02 -0.81467770769E+02  0.85325011660E+02  0.00000000000E+00 0. -1.
</event>
<event>
 4    1  0.1725802E+006  0.3039960E+02  0.7546771E-02  0.1416155E+00
         21   -1    0    0  504  501  0.00000000000E+00  0.00000000000E+00  0.57901417287E+02  0.57901417287E+02  0.00000000000E+00 0. -1.
         21   -1    0    0  503  502 -0.00000000000E+00 -0.00000000000E+00 -0.23120611717E+02  0.23120611717E+02  0.00000000000E+00 0. -1.
         21    1    1    2  503  501  0.24696051613E+02  0.17726833245E+02  0.39934526147E+02  0.50188663668E+02  0.00000000000E+00 0. -1.
         21    1    1    2  504  502 -0.24696051613E+02 -0.17726833245E+02 -0.51537205771E+01  0.30833365337E+02  0.00000000000E+00 0. -1.
</event>
<event>
 4    1  0.1725802E+006  0.2468708E+02  0.7546771E-02  0.1472335E+00
         21   -1    0    0  504  501  0.00000000000E+00  0.00000000000E+00  0.49419175314E+02  0.49419175314E+02  0.00000000000E+00 0. -1.
         21   -1    0    0  503  502 -0.00000000000E+00 -0.00000000000E+00 -0.15608505829E+02  0.15608505829E+02  0.00000000000E+00 0. -1.
         21    1    1    2  503  501 -0.17541748433E+02  0.17370636395E+02  0.20092067449E+01  0.24768707245E+02  0.00000000000E+00 0. -1.
         21    1    1    2  504  502  0.17541748433E+02 -0.17370636395E+02  0.31801462740E+02  0.40258973897E+02  0.00000000000E+00 0. -1.
</event>
<event>
 4    1  0.1725802E+006  0.2350288E+02  0.7546771E-02  0.1486278E+00
         21   -1    0    0  504  501  0.00000000000E+00  0.00000000000E+00  0.43367288936E+02  0.43367288936E+02  0.00000000000E+00 0. -1.
         21   -1    0    0  503  502 -0.00000000000E+00 -0.00000000000E+00 -0.17377315814E+02  0.17377315814E+02  0.00000000000E+00 0. -1.
         21    1    1    2  503  501 -0.19208713573E+02  0.13542915564E+02 -0.26993436347E+01  0.23657381410E+02  0.00000000000E+00 0. -1.
         21    1    1    2  504  502  0.19208713573E+02 -0.13542915564E+02  0.28689316757E+02  0.37087223340E+02  0.00000000000E+00 0. -1.
</event>
<event>
 4    1  0.1725802E+006  0.2303608E+02  0.7546771E-02  0.1492046E+00
         21   -1    0    0  503  501  0.00000000000E+00  0.00000000000E+00  0.49109609288E+03  0.49109609288E+03  0.00000000000E+00 0. -1.
         21   -1    0    0  504  502 -0.00000000000E+00 -0.00000000000E+00 -0.20952437894E+02  0.20952437894E+02  0.00000000000E+00 0.  1.
         21    1    1    2  503  502  0.91372278243E+01 -0.21146440550E+02 -0.14263178273E+02  0.27094263871E+02  0.00000000000E+00 0.  1.
         21    1    1    2  504  501 -0.91372278243E+01  0.21146440550E+02  0.48440683326E+03  0.48495426691E+03  0.00000000000E+00 0. -1.
</event>
<event>
 4    1  0.1725802E+006  0.2604370E+02  0.7546771E-02  0.1457458E+00
         21   -1    0    0  503  501  0.00000000000E+00  0.00000000000E+00  0.51076401867E+03  0.51076401867E+03  0.00000000000E+00 0.  1.
         21   -1    0    0  504  502 -0.00000000000E+00 -0.00000000000E+00 -0.70438844498E+02  0.70438844498E+02  0.00000000000E+00 0.  1.
         21    1    1    2  503  502 -0.34455066278E+01  0.25814782492E+02  0.50801167754E+03  0.50867881716E+03  0.00000000000E+00 0.  1.
         21    1    1    2  504  501  0.34455066278E+01 -0.25814782492E+02 -0.67686503368E+02  0.72524046007E+02  0.00000000000E+00 0.  1.
</event>
<event>
 4    1  0.1725802E+006  0.2213676E+02  0.7546771E-02  0.1503632E+00
         21   -1    0    0  504  501  0.00000000000E+00  0.00000000000E+00  0.33304994740E+02  0.33304994740E+02  0.00000000000E+00 0.  1.
         21   -1    0    0  503  502 -0.00000000000E+00 -0.00000000000E+00 -0.20609021027E+02  0.20609021027E+02  0.00000000000E+00 0.  1.
         21    1    1    2  503  501  0.20185612680E+02  0.90871973464E+01  0.20765843410E+02  0.30352205314E+02  0.00000000000E+00 0.  1.
         21    1    1    2  504  502 -0.20185612680E+02 -0.90871973464E+01 -0.80698696969E+01  0.23561810453E+02  0.00000000000E+00 0.  1.
</event>
<event>
 4    1  0.1725802E+006  0.3556271E+02  0.7546771E-02  0.1376650E+00
         21   -1    0    0  502  501  0.00000000000E+00  0.00000000000E+00  0.53657098949E+01  0.53657098949E+01  0.00000000000E+00 0. -1.
         21   -1    0    0  503  502 -0.00000000000E+00 -0.00000000000E+00 -0.25414157091E+03  0.25414157091E+03  0.00000000000E+00 0. -1.
         21    1    1    2  503  504  0.33176367929E+02 -0.12807624104E+02 -0.89436791256E+02  0.96247837660E+02  0.00000000000E+00 0. -1.
         21    1    1    2  504  501 -0.33176367929E+02  0.12807624104E+02 -0.15933906976E+03  0.16325944315E+03  0.00000000000E+00 0. -1.
</event>
<event>
 4    1  0.1725802E+006  0.2018765E+02  0.7546771E-02  0.1531186E+00
         21   -1    0    0  502  501  0.00000000000E+00  0.00000000000E+00  0.84205139668E+01  0.84205139668E+01  0.00000000000E+00 0.  1.
         21   -1    0    0  504  502 -0.00000000000E+00 -0.00000000000E+00 -0.76618108001E+03  0.76618108001E+03  0.00000000000E+00 0.  1.
         21    1    1    2  503  501 -0.65525042396E+01 -0.19094659891E+02 -0.40116552458E+01  0.20582388733E+02  0.00000000000E+00 0.  1.
         21    1    1    2  504  503  0.65525042396E+01  0.19094659891E+02 -0.75374891080E+03  0.75401920525E+03  0.00000000000E+00 0.  1.
</event>
<event>
 4    1  0.1725802E+006  0.2852188E+02  0.7546771E-02  0.1432892E+00
         21   -1    0    0  503  501  0.00000000000E+00  0.00000000000E+00  0.22602332028E+03  0.22602332028E+03  0.00000000000E+00 0. -1.
         21   -1    0    0  501  502 -0.00000000000E+00 -0.00000000000E+00 -0.21609306057E+02  0.21609306057E+02  0.00000000000E+00 0. -1.
         21    1    1    2  503  504  0.20829116429E+02 -0.19484498105E+02  0.21524277260E+03  0.21712427067E+03  0.00000000000E+00 0. -1.
         21    1    1    2  504  502 -0.20829116429E+02  0.19484498105E+02 -0.10828758376E+02  0.30508355668E+02  0.00000000000E+00 0. -1.
</event>
<event>
 4    1  0.1725802E+006  0.2659387E+02  0.7546771E-02  0.1451731E+00
         21   -1    0    0  503  501  0.00000000000E+00  0.00000000000E+00  0.25074308865E+03  0.25074308865E+03  0.00000000000E+00 0.  1.
         21   -1    0    0  504  502 -0.00000000000E+00 -0.00000000000E+00 -0.58199037636E+01  0.58199037636E+01  0.00000000000E+00 0. -1.
         21    1    1    2  503  502 -0.21114417011E+02 -0.16168346084E+02  0.21455314342E+03  0.21619501700E+03  0.00000000000E+00 0.  1.
         21    1    1    2  504  501  0.21114417011E+02  0.16168346084E+02  0.30370041459E+02  0.40367975414E+02  0.00000000000E+00 0. -1.
</event>
<event>
 4    1  0.1725802E+006  0.2052102E+02  0.7546771E-02  0.1526214E+00
         21   -1    0    0  504  501  0.00000000000E+00  0.00000000000E+00  0.43299203317E+02  0.43299203317E+02  0.00000000000E+00 0. -1.
         21   -1    0    0  501  502 -0.00000000000E+00 -0.00000000000E+00 -0.16935515816E+02  0.16935515816E+02  0.00000000000E+00 0.  1.
         21    1    1    2  503  502  0.10292297123E+02 -0.17753338765E+02 -0.64690181699E+01  0.21516519548E+02  0.00000000000E+00 0.  1.
         21    1    1    2  504  503 -0.10292297123E+02  0.17753338765E+02  0.32832705671E+02  0.38718199584E+02  0.00000000000E+00 0. -1.
</event>
<event>
 4    1  0.1725802E+006  0.3281766E+02  0.7546771E-02  0.1396591E+00
         21   -1    0    0  503  501  0.00000000000E+00  0.00000000000E+00  0.17517079769E+02  0.17517079769E+02  0.00000000000E+00 0.  1.
         21   -1    0    0  504  502 -0.00000000000E+00 -0.00000000000E+00 -0.68965723085E+02  0.68965723085E+02  0.00000000000E+00 0.  1.
         21    1    1    2  503  502  0.31589718276E+02 -0.88931542711E+01 -0.11480721335E+02  0.34767879659E+02  0.00000000000E+00 0.  1.
         21    1    1    2  504  501 -0.31589718276E+02  0.88931542711E+01 -0.39967921981E+02  0.51714923196E+02  0.00000000000E+00 0.  1.
</event>
<event>
 4    1  0.1725802E+006  0.2699361E+02  0.7546771E-02  0.1447672E+00
         21   -1    0    0  502  501  0.00000000000E+00  0.00000000000E+00  0.10491753888E+03  0.10491753888E+03  0.00000000000E+00 0. -1.
         21   -1    0    0  503  502 -0.00000000000E+00 -0.00000000000E+00 -0.10807316711E+03  0.10807316711E+03  0.00000000000E+00 0.  1.
         21    1    1    2  503  504 -0.26517387972E+02  0.50480879095E+01 -0.10459453690E+03  0.10802162842E+03  0.00000000000E+00 0.  1.
         21    1    1    2  504  501  0.26517387972E+02 -0.50480879095E+01  0.10143890866E+03  0.10496907757E+03  0.00000000000E+00 0. -1.
</event>
<event>
 4    1  0.1725802E+006  0.2388434E+02  0.7546771E-02  0.1481682E+00
         21   -1    0    0  504  501  0.00000000000E+00  0.00000000000E+00  0.18098984703E+03  0.18098984703E+03  0.00000000000E+00 0. -1.
         21   -1    0    0  503  502 -0.00000000000E+00 -0.00000000000E+00 -0.56072917406E+01  0.56072917406E+01  0.00000000000E+00 0. -1.
         21    1    1    2  503  501 -0.63216951293E+01  0.23032542579E+02  0.25952385965E+02  0.35270216674E+02  0.00000000000E+00 0. -1.
         21    1    1    2  504  502  0.63216951293E+01 -0.23032542579E+02  0.14943016933E+03  0.15132692210E+03  0.00000000000E+00 0. -1.
</event>
<event>
 4    1  0.1725802E+006  0.2203885E+02  0.7546771E-02  0.1504933E+00
         21   -1    0    0  504  501  0.00000000000E+00  0.00000000000E+00  0.58013527866E+01  0.58013527866E+01  0.00000000000E+00 0. -1.
         21   -1    0    0  501  502 -0.00000000000E+00 -0.00000000000E+00 -0.18421937905E+03  0.18421937905E+03  0.00000000000E+00 0. -1.
         21    1    1    2  503  502  0.21405327440E+02  0.52462087616E+01 -0.15938313996E+03  0.16089964590E+03  0.00000000000E+00 0. -1.
         21    1    1    2  504  503 -0.21405327440E+02 -0.52462087616E+01 -0.19034886302E+02  0.29121085929E+02  0.00000000000E+00 0. -1.
</event>
<event>
 4    1  0.1725802E+006  0.2124870E+02  0.7546771E-02  0.1515744E+00
         21   -1    0    0  503  501  0.00000000000E+00  0.00000000000E+00  0.65489645031E+02  0.65489645031E+02  0.00000000000E+00 0.  1.
         21   -1    0    0  504  502 -0.00000000000E+00 -0.00000000000E+00 -0.90401276104E+01  0.90401276104E+01  0.00000000000E+00 0.  1.
         21    1    1    2  503  502 -0.18992366092E+02  0.95287514724E+01  0.46380213432E+02  0.51015990359E+02  0.00000000000E+00 0.  1.
         21    1    1    2  504  501  0.18992366092E+02 -0.95287514724E+01  0.10069303989E+02  0.23513782282E+02  0.00000000000E+00 0.  1.
</event>
<event>
 4    1  0.1725802E+006  0.2313382E+02  0.7546771E-02  0.1490825E+00
         21   -1    0    0  504  501  0.00000000000E+00  0.00000000000E+00  0.84709732214E+02  0.84709732214E+02  0.00000000000E+00 0.  1.
         21   -1    0    0  503  502 -0.00000000000E+00 -0.00000000000E+00 -0.18396836230E+03  0.18396836230E+03  0.00000000000E+00 0. -1.
         21    1    1    2  503  501  0.88283728449E+01  0.21383017747E+02  0.82382884090E+02  0.85569347351E+02  0.00000000000E+00 0.  1.
         21    1    1    2  504  502 -0.88283728449E+01 -0.21383017747E+02 -0.18164151418E+03  0.18310874717E+03  0.00000000000E+00 0. -1.
</event>
<event>
 4    1  0.1725802E+006  0.3521637E+02  0.7546771E-02  0.1379048E+00
         21   -1    0    0  503  501  0.00000000000E+00  0.00000000000E+00  0.64107677450E+02  0.64107677450E+02  0.00000000000E+00 0. -1.
         21   -1    0    0  504  502 -0.00000000000E+00 -0.00000000000E+00 -0.83433507496E+02  0.83433507496E+02  0.00000000000E+00 0. -1.
         21    1    1    2  503  502 -0.20124616961E+02  0.28899694501E+02 -0.74317829094E+02  0.82239481220E+02  0.00000000000E+00 0. -1.
         21    1    1    2  504  501  0.20124616961E+02 -0.28899694501E+02  0.54991999049E+02  0.65301703725E+02  0.00000000000E+00 0. -1.
</event>
<event>
 4    1  0.1725802E+006  0.2258752E+02  0.7546771E-02  0.1497744E+00
         21   -1    0    0  503  501  0.00000000000E+00  0.00000000000E+00  0.12477818266E+02  0.12477818266E+02  0.00000000000E+00 0.  1.
         21   -1    0    0  504  502 -0.00000000000E+00 -0.00000000000E+00 -0.82159760632E+02  0.82159760632E+02  0.00000000000E+00 0.  1.
         21    1    1    2  503  502  0.15904761568E+01 -0.22531450183E+02 -0.13035744587E+01  0.22625100401E+02  0.00000000000E+00 0.  1.
         21    1    1    2  504  501 -0.15904761568E+01  0.22531450183E+02 -0.68378367907E+02  0.72012478497E+02  0.00000000000E+00 0.  1.
</event>
<event>
 4    1  0.1725802E+006  0.5629812E+02  0.7546771E-02  0.1272957E+00
         21   -1    0    0  503  501  0.00000000000E+00  0.00000000000E+00  0.28309249024E+03  0.28309249024E+03  0.00000000000E+00 0.  1.
         21   -1    0    0  504  502 -0.00000000000E+00 -0.00000000000E+00 -0.13720049886E+02  0.13720049886E+02  0.00000000000E+00 0. -1.
         21    1    1    2  503  502  0.56277723490E+02 -0.15153276968E+01  0.71031441552E+02  0.90636328634E+02  0.00000000000E+00 0. -1.
         21    1    1    2  504  501 -0.56277723490E+02  0.15153276968E+01  0.19834099880E+03  0.20617621149E+03  0.00000000000E+00 0.  1.
</event>
<event>
 4    1  0.1725802E+006  0.2207209E+02  0.7546771E-02  0.1504491E+00
         21   -1    0    0  502  501  0.00000000000E+00  0.00000000000E+00  0.76369844591E+03  0.76369844591E+03  0.00000000000E+00 0. -1.
         21   -1    0    0  504  502 -0.00000000000E+00 -0.00000000000E+00 -0.11725032162E+02  0.11725032162E+02  0.00000000000E+00 0.  1.
         21    1    1    2  503  501 -0.11957667697E+02 -0.18552393522E+02  0.75300392580E+03  0.75332734544E+03  0.00000000000E+00 0. -1.
         21    1    1    2  504  503  0.11957667697E+02  0.18552393522E+02 -0.10305120500E+01  0.22096132631E+02  0.00000000000E+00 0.  1.
</event>
<event>
 4    1  0.1725802E+006  0.2875424E+02  0.7546771E-02  0.1430740E+00
         21   -1    0    0  504  501  0.00000000000E+00  0.00000000000E+00  0.10404934194E+03  0.10404934194E+03  0.00000000000E+00 0. -1.
         21   -1    0    0  503  502 -0.00000000000E+00 -0.00000000000E+00 -0.10686832864E+02  0.10686832864E+02  0.00000000000E+00 0.  1.
         21    1    1    2  503  501 -0.28446343242E+02 -0.41966575449E+01  0.75732453506E+02  0.81007474299E+02  0.00000000000E+00 0. -1.
         21    1    1    2  504  502  0.28446343242E+02  0.41966575449E+01  0.17630055573E+02  0.33728700507E+02  0.00000000000E+00 0.  1.
</event>
<event>
 4    1  0.1725802E+006  0.2887832E+02  0.7546771E-02  0.1429601E+00
         21   -1    0    0  502  501  0.00000000000E+00  0.00000000000E+00  0.18568028121E+02  0.18568028121E+02  0.00000000000E+00 0.  1.
         21   -1    0    0  504  502 -0.00000000000E+00 -0.00000000000E+00 -0.44915646970E+02  0.44915646970E+02  0.00000000000E+00 0.  1.
         21    1    1    2  503  501 -0.22172387490E+02 -0.18502508548E+02 -0.12961228801E+02  0.31653610246E+02  0.00000000000E+00 0.  1.
         21    1    1    2  504  503  0.22172387490E+02  0.18502508548E+02 -0.13386390048E+02  0.31830064846E+02  0.00000000000E+00 0.  1.
</event>
<event>
 4    1  0.1725802E+006  0.2178065E+02  0.7546771E-02  0.1508405E+00
         21   -1    0    0  503  501  0.00000000000E+00  0.00000000000E+00  0.60606466600E+02  0.60606466600E+02  0.00000000000E+00 0. -1.
         21   -1    0    0  504  502 -0.00000000000E+00 -0.00000000000E+00 -0.15140235178E+02  0.15140235178E+02  0.00000000000E+00 0. -1.
         21    1    1    2  503  502 -0.14442283786E+02  0.16303904062E+02  0.49054424229E+02  0.53672463937E+02  0.00000000000E+00 0. -1.
         21    1    1    2  504  501  0.14442283786E+02 -0.16303904062E+02 -0.35881928071E+01  0.22074237841E+02  0.00000000000E+00 0. -1.
</event>
<event>
 4    1  0.1725802E+006  0.4075632E+02  0.7546771E-02  0.1344110E+00
         21   -1    0    0  504  501  0.00000000000E+00  0.00000000000E+00  0.92042423329E+02  0.92042423329E+02  0.00000000000E+00 0.  1.
         21   -1    0    0  503  502 -0.00000000000E+00 -0.00000000000E+00 -0.19535534684E+02  0.19535534684E+02  0.00000000000E+00 0.  1.
         21    1    1    2  503  501  0.29190901708E+02  0.28442381360E+02  0.51653913954E+02  0.65796691610E+02  0.00000000000E+00 0.  1.
         21    1    1    2  504  502 -0.29190901708E+02 -0.28442381360E+02  0.20852974691E+02  0.45781266403E+02  0.00000000000E+00 0.  1.
</event>
<event>
 4    1  0.1725802E+006  0.2938144E+02  0.7546771E-02  0.1425049E+00
         21   -1    0    0  504  501  0.00000000000E+00  0.00000000000E+00  0.33002237122E+03  0.33002237122E+03  0.00000000000E+00 0. -1.
         21   -1    0    0  501  502 -0.00000000000E+00 -0.00000000000E+00 -0.91896282354E+01  0.91896282354E+01  0.00000000000E+00 0.  1.
         21    1    1    2  503  502 -0.19524245188E+02 -0.21956155589E+02  0.16965967234E+02  0.33928055686E+02  0.00000000000E+00 0.  1.
         21    1    1    2  504  503  0.19524245188E+02  0.21956155589E+02  0.30386677575E+03  0.30528394377E+03  0.00000000000E+00 0. -1.
</event>
<event>
 4    1  0.1725802E+006  0.2285614E+02  0.7546771E-02  0.1494313E+00
         21   -1    0    0  503  501  0.00000000000E+00  0.00000000000E+00  0.87694214127E+02  0.87694214127E+02  0.00000000000E+00 0. -1.
         21   -1    0    0  504  502 -0.00000000000E+00 -0.00000000000E+00 -0.11499639065E+03  0.11499639065E+03  0.00000000000E+00 0. -1.
         21    1    1    2  503  502  0.18204306231E+01  0.22783524031E+02  0.85034340636E+02  0.88052495832E+02  0.00000000000E+00 0. -1.
         21    1    1    2  504  501 -0.18204306231E+01 -0.22783524031E+02 -0.11233651716E+03  0.11463810894E+03  0.00000000000E+00 0. -1.
</event>
<event>
 4    1  0.1725802E+006  0.2047978E+02  0.7546771E-02  0.1526823E+00
         21   -1    0    0  502  501  0.00000000000E+00  0.00000000000E+00  0.71997468942E+02  0.71997468942E+02  0.00000000000E+00 0. -1.
         21   -1    0    0  504  502 -0.00000000000E+00 -0.00000000000E+00 -0.32468032337E+02  0.32468032337E+02  0.00000000000E+00 0. -1.
         21    1    1    2  503  501  0.19189900585E+02  0.71532533314E+01  0.67080133532E+02  0.70136763771E+02  0.00000000000E+00 0. -1.
         21    1    1    2  504  503 -0.19189900585E+02 -0.71532533314E+01 -0.27550696928E+02  0.34328737508E+02  0.00000000000E+00 0. -1.
</event>
<event>
 4    1  0.1725802E+006  0.2328983E+02  0.7546771E-02  0.1488891E+00
         21   -1    0    0  503  501  0.00000000000E+00  0.00000000000E+00  0.12511329967E+01  0.12511329967E+01  0.00000000000E+00 0.  1.
         21   -1    0    0  504  502 -0.00000000000E+00 -0.00000000000E+00 -0.44330365147E+03  0.44330365147E+03  0.00000000000E+00 0. -1.
         21    1    1    2  503  502  0.27004187011E+01 -0.23132741202E+02 -0.18803835451E+03  0.18947516656E+03  0.00000000000E+00 0.  1.
         21    1    1    2  504  501 -0.27004187011E+01  0.23132741202E+02 -0.25401416397E+03  0.25507961791E+03  0.00000000000E+00 0. -1.
</event>
<event>
 4    1  0.1725802E+006  0.2141190E+02  0.7546771E-02  0.1513464E+00
         21   -1    0    0  504  501  0.00000000000E+00  0.00000000000E+00  0.38984637135E+02  0.38984637135E+02  0.00000000000E+00 0.  1.
         21   -1    0    0  503  502 -0.00000000000E+00 -0.00000000000E+00 -0.16884607861E+02  0.16884607861E+02  0.00000000000E+00 0.  1.
         21    1    1    2  503  501 -0.43755743099E+01 -0.20960055680E+02  0.26439230562E+02  0.34022088374E+02  0.00000000000E+00 0.  1.
         21    1    1    2  504  502  0.43755743099E+01  0.20960055680E+02 -0.43392012878E+01  0.21847156622E+02  0.00000000000E+00 0.  1.
</event>
<event>
 4    1  0.1725802E+006  0.2074534E+02  0.7546771E-02  0.1522932E+00
         21   -1    0    0  503  501  0.00000000000E+00  0.00000000000E+00  0.24357023329E+02  0.24357023329E+02  0.00000000000E+00 0.  1.
         21   -1    0    0  504  502 -0.00000000000E+00 -0.00000000000E+00 -0.31101975675E+02  0.31101975675E+02  0.00000000000E+00 0.  1.
         21    1    1    2  503  502  0.20335423156E+02 -0.41036411250E+01 -0.21595934502E+02  0.29945845996E+02  0.00000000000E+00 0.  1.
         21    1    1    2  504  501 -0.20335423156E+02  0.41036411250E+01  0.14850982155E+02  0.25513153008E+02  0.00000000000E+00 0.  1.
</event>
<event>
 4    1  0.1725802E+006  0.2169266E+02  0.7546771E-02  0.1509601E+00
         21   -1    0    0  503  501  0.00000000000E+00  0.00000000000E+00  0.18338309095E+03  0.18338309095E+03  0.00000000000E+00 0. -1.
         21   -1    0    0  504  502 -0.00000000000E+00 -0.00000000000E+00 -0.12657022316E+03  0.12657022316E+03  0.00000000000E+00 0.  1.
         21    1    1    2  503  502  0.14336823587E+02 -0.16279655423E+02  0.18180406459E+03  0.18309366344E+03  0.00000000000E+00 0. -1.
         21    1    1    2  504  501 -0.14336823587E+02  0.16279655423E+02 -0.12499119680E+03  0.12685965067E+03  0.00000000000E+00 0.  1.
</event>
<event>
 4    1  0.1725802E+006  0.2377659E+02  0.7546771E-02  0.1482970E+00
         21   -1    0    0  504  501  0.00000000000E+00  0.00000000000E+00  0.18279528592E+01  0.18279528592E+01  0.00000000000E+00 0. -1.
         21   -1    0    0  503  502 -0.00000000000E+00 -0.00000000000E+00 -0.62464363062E+03  0.62464363062E+03  0.00000000000E+00 0. -1.
         21    1    1    2  503  501  0.17534106995E+02 -0.16058685834E+02 -0.88836276122E+02  0.91963091804E+02  0.00000000000E+00 0. -1.
         21    1    1    2  504  502 -0.17534106995E+02  0.16058685834E+02 -0.53397940164E+03  0.53450849167E+03  0.00000000000E+00 0. -1.
</event>
<event>
 4    1  0.1725802E+006  0.2433291E+02  0.7546771E-02  0.1476406E+00
         21   -1    0    0  504  501  0.00000000000E+00  0.00000000000E+00  0.17996900112E+02  0.17996900112E+02  0.00000000000E+00 0. -1.
         21   -1    0    0  501  502 -0.00000000000E+00 -0.00000000000E+00 -0.66417115807E+02  0.66417115807E+02  0.00000000000E+00 0. -1.
         21    1    1    2  503  502  0.56162046971E+01  0.23675913184E+02 -0.54193484583E+02  0.59405592259E+02  0.00000000000E+00 0. -1.
         21    1    1    2  504  503 -0.56162046971E+01 -0.23675913184E+02  0.57732688883E+01  0.25008423660E+02  0.00000000000E+00 0. -1.
</event>
<event>
 4    1  0.1725802E+006  0.2420314E+02  0.7546771E-02  0.1477919E+00
         21   -1    0    0  504  501  0.00000000000E+00  0.00000000000E+00  0.18390983126E+01  0.18390983126E+01  0.00000000000E+00 0.  1.
         21   -1    0    0  503  502 -0.00000000000E+00 -0.00000000000E+00 -0.14956688556E+04  0.14956688556E+04  0.00000000000E+00 0.  1.
         21    1    1    2  503  501  0.23771033482E+02 -0.45530287083E+01 -0.14111729767E+04  0.14113805165E+04  0.00000000000E+00 0.  1.
         21    1    1    2  504  502 -0.23771033482E+02  0.45530287083E+01 -0.82656780573E+02  0.86127437429E+02  0.00000000000E+00 0.  1.
</event>
<event>
 4    1  0.1725802E+006  0.2444510E+02  0.7546771E-02  0.1475108E+00
         21   -1    0    0  502  501  0.00000000000E+00  0.00000000000E+00  0.29883952466E+03  0.29883952466E+03  0.00000000000E+00 0. -1.
         21   -1    0    0  504  502 -0.00000000000E+00 -0.00000000000E+00 -0.39902895631E+02  0.39902895631E+02  0.00000000000E+00 0. -1.
         21    1    1    2  503  501 -0.18712766539E+02  0.15728804119E+02  0.29454122389E+03  0.29555387915E+03  0.00000000000E+00 0. -1.
         21    1    1    2  504  503  0.18712766539E+02 -0.15728804119E+02 -0.35604594862E+02  0.43188541140E+02  0.00000000000E+00 0. -1.
</event>
<event>
 4    1  0.1725802E+006  0.3521717E+02  0.7546771E-02  0.1379043E+00
         21   -1    0    0  502  501  0.00000000000E+00  0.00000000000E+00  0.14253148063E+02  0.14253148063E+02  0.00000000000E+00 0.  1.
         21   -1    0    0  504  502 -0.00000000000E+00 -0.00000000000E+00 -0.57227584366E+03  0.57227584366E+03  0.00000000000E+00 0. -1.
         21    1    1    2  503  501  0.12444297560E+02 -0.32945231700E+02 -0.89614263419E+01  0.36339455082E+02  0.00000000000E+00 0.  1.
         21    1    1    2  504  503 -0.12444297560E+02  0.32945231700E+02 -0.54906126926E+03  0.55018953664E+03  0.00000000000E+00 0. -1.
</event>
<event>
 4    1  0.1725802E+006  0.2553407E+02  0.7546771E-02  0.1462917E+00
         21   -1    0    0  502  501  0.00000000000E+00  0.00000000000E+00  0.39861059499E+02  0.39861059499E+02  0.00000000000E+00 0. -1.
         21   -1    0    0  503  502 -0.00000000000E+00 -0.00000000000E+00 -0.62105492833E+02  0.62105492833E+02  0.00000000000E+00 0. -1.
         21    1    1    2  503  504 -0.99722459317E+01 -0.23506228760E+02 -0.54879804778E+02  0.60529178516E+02  0.00000000000E+00 0. -1.
         21    1    1    2  504  501  0.99722459317E+01  0.23506228760E+02  0.32635371444E+02  0.41437373815E+02  0.00000000000E+00 0. -1.
</event>
<event>
 4    1  0.1725802E+006  0.2567282E+02  0.7546771E-02  0.1461415E+00
         21   -1    0    0  503  501  0.00000000000E+00  0.00000000000E+00  0.61018948107E+02  0.61018948107E+02  0.00000000000E+00 0. -1.
         21   -1    0    0  504  502 -0.00000000000E+00 -0.00000000000E+00 -0.78093866295E+02  0.78093866295E+02  0.00000000000E+00 0.  1.
         21    1    1    2  503  502 -0.24874793411E+02 -0.63512603056E+01 -0.73104621650E+02  0.77481478827E+02  0.00000000000E+00 0.  1.
         21    1    1    2  504  501  0.24874793411E+02  0.63512603056E+01  0.56029703462E+02  0.61631335575E+02  0.00000000000E+00 0. -1.
</event>
<event>
 4    1  0.1725802E+006  0.2140209E+02  0.7546771E-02  0.1513601E+00
         21   -1    0    0  504  501  0.00000000000E+00  0.00000000000E+00  0.16110865425E+02  0.16110865425E+02  0.00000000000E+00 0. -1.
         21   -1    0    0  501  502 -0.00000000000E+00 -0.00000000000E+00 -0.35503799285E+02  0.35503799285E+02  0.00000000000E+00 0. -1.
         21    1    1    2  503  502 -0.16782948660E+02 -0.13280898603E+02 -0.21215029411E+02  0.30135147359E+02  0.00000000000E+00 0. -1.
         21    1    1    2  504  503  0.16782948660E+02  0.13280898603E+02  0.18220955507E+01  0.21479517351E+02  0.00000000000E+00 0. -1.
</event>
<event>
 4    1  0.1725802E+006  0.2539046E+02  0.7546771E-02  0.1464482E+00
         21   -1    0    0  502  501  0.00000000000E+00  0.00000000000E+00  0.27007155734E+02  0.27007155734E+02  0.00000000000E+00 0. -1.
         21   -1    0    0  504  502 -0.00000000000E+00 -0.00000000000E+00 -0.39532962599E+02  0.39532962599E+02  0.00000000000E+00 0.  1.
         21    1    1    2  503  501 -0.20755787122E+02 -0.14624383545E+02  0.14678385633E+02  0.29327978074E+02  0.00000000000E+00 0. -1.
         21    1    1    2  504  503  0.20755787122E+02  0.14624383545E+02 -0.27204192498E+02  0.37212140258E+02  0.00000000000E+00 0.  1.
</event>
<event>
 4    1  0.1725802E+006  0.2241537E+02  0.7546771E-02  0.1499973E+00
         21   -1    0    0  504  501  0.00000000000E+00  0.00000000000E+00  0.88454399301E+02  0.88454399301E+02  0.00000000000E+00 0.  1.
         21   -1    0    0  503  502 -0.00000000000E+00 -0.00000000000E+00 -0.48601755748E+02  0.48601755748E+02  0.00000000000E+00 0.  1.
         21    1    1    2  503  501 -0.22053008505E+02 -0.40141935718E+01  0.84325408748E+02  0.87253787853E+02  0.00000000000E+00 0.  1.
         21    1    1    2  504  502  0.22053008505E+02  0.40141935718E+01 -0.44472765196E+02  0.49802367196E+02  0.00000000000E+00 0.  1.
</event>
<event>
 4    1  0.1725802E+006  0.2634312E+02  0.7546771E-02  0.1454321E+00
         21   -1    0    0  504  501  0.00000000000E+00  0.00000000000E+00  0.88465307192E+02  0.88465307192E+02  0.00000000000E+00 0.  1.
         21   -1    0    0  503  502 -0.00000000000E+00 -0.00000000000E+00 -0.10110547464E+02  0.10110547464E+02  0.00000000000E+00 0.  1.
         21    1    1    2  503  501  0.19472630802E+02 -0.17741946142E+02  0.15843104059E+02  0.30740265930E+02  0.00000000000E+00 0.  1.
         21    1    1    2  504  502 -0.19472630802E+02  0.17741946142E+02  0.62511655669E+02  0.67835588726E+02  0.00000000000E+00 0.  1.
</event>
<event>
 4    1  0.1725802E+006  0.5635810E+02  0.7546771E-02  0.1272735E+00
         21   -1    0    0  504  501  0.00000000000E+00  0.00000000000E+00  0.11762377755E+03  0.11762377755E+03  0.00000000000E+00 0.  1.
         21   -1    0    0  503  502 -0.00000000000E+00 -0.00000000000E+00 -0.27014421564E+02  0.27014421564E+02  0.00000000000E+00 0.  1.
         21    1    1    2  503  501  0.47612192222E+02  0.30154837103E+02  0.43840061966E+02  0.71401583191E+02  0.00000000000E+00 0.  1.
         21    1    1    2  504  502 -0.47612192222E+02 -0.30154837103E+02  0.46769294021E+02  0.73236615925E+02  0.00000000000E+00 0.  1.
</event>
<event>
 4    1  0.1725802E+006  0.2521683E+02  0.7546771E-02  0.1466392E+00
         21   -1    0    0  504  501  0.00000000000E+00  0.00000000000E+00  0.59477509339E+03  0.59477509339E+03  0.00000000000E+00 0. -1.
         21   -1    0    0  501  502 -0.00000000000E+00 -0.00000000000E+00 -0.13399719164E+01  0.13399719164E+01  0.00000000000E+00 0.  1.
         21    1    1    2  503  502 -0.19018338799E+02  0.16558728874E+02  0.16271457240E+03  0.16465697915E+03  0.00000000000E+00 0.  1.
         21    1    1    2  504  503  0.19018338799E+02 -0.16558728874E+02  0.43072054907E+03  0.43145808615E+03  0.00000000000E+00 0. -1.
</event>
<event>
 4    1  0.1725802E+006  0.2111428E+02  0.7546771E-02  0.1517639E+00
         21   -1    0    0  504  501  0.00000000000E+00  0.00000000000E+00  0.10181600921E+01  0.10181600921E+01  0.00000000000E+00 0.  1.
         21   -1    0    0  503  502 -0.00000000000E+00 -0.00000000000E+00 -0.54986260920E+03  0.54986260920E+03  0.00000000000E+00 0.  1.
         21    1    1    2  503  501 -0.19428017154E+02  0.82683089355E+01 -0.15011044118E+03  0.15158811739E+03  0.00000000000E+00 0.  1.
         21    1    1    2  504  502  0.19428017154E+02 -0.82683089355E+01 -0.39873400793E+03  0.39929265190E+03  0.00000000000E+00 0.  1.
</event>
<event>
 4    1  0.1725802E+006  0.2294572E+02  0.7546771E-02  0.1493181E+00
         21   -1    0    0  504  501  0.00000000000E+00  0.00000000000E+00  0.10808312933E+01  0.10808312933E+01  0.00000000000E+00 0. -1.
         21   -1    0    0  503  502 -0.00000000000E+00 -0.00000000000E+00 -0.92143341721E+03  0.92143341721E+03  0.00000000000E+00 0. -1.
         21    1    1    2  503  501  0.15158311909E+02  0.17225900021E+02 -0.14350594043E+03  0.14532880303E+03  0.00000000000E+00 0. -1.
         21    1    1    2  504  502 -0.15158311909E+02 -0.17225900021E+02 -0.77684664549E+03  0.77718544548E+03  0.00000000000E+00 0. -1.
</event>
<event>
 4    1  0.1725802E+006  0.3239891E+02  0.7546771E-02  0.1399834E+00
         21   -1    0    0  504  501  0.00000000000E+00  0.00000000000E+00  0.81942121564E+01  0.81942121564E+01  0.00000000000E+00 0.  1.
         21   -1    0    0  503  502 -0.00000000000E+00 -0.00000000000E+00 -0.15205744932E+03  0.15205744932E+03  0.00000000000E+00 0.  1.
         21    1    1    2  503  501  0.19775720321E+02 -0.25663398750E+02 -0.40127944882E+02  0.51574616916E+02  0.00000000000E+00 0.  1.
         21    1    1    2  504  502 -0.19775720321E+02  0.25663398750E+02 -0.10373529228E+03  0.10867704456E+03  0.00000000000E+00 0.  1.
</event>
<event>
 4    1  0.1725802E+006  0.3224757E+02  0.7546771E-02  0.1401020E+00
         21   -1    0    0  502  501  0.00000000000E+00  0.00000000000E+00  0.26125184358E+02  0.26125184358E+02  0.00000000000E+00 0. -1.
         21   -1    0    0  504  502 -0.00000000000E+00 -0.00000000000E+00 -0.11770212889E+03  0.11770212889E+03  0.00000000000E+00 0. -1.
         21    1    1    2  503  501 -0.28828435315E+02  0.14450845207E+02  0.12714876103E+02  0.34663722884E+02  0.00000000000E+00 0. -1.
         21    1    1    2  504  503  0.28828435315E+02 -0.14450845207E+02 -0.10429182063E+03  0.10916359036E+03  0.00000000000E+00 0. -1.
</event>
<event>
 4    1  0.1725802E+006  0.2679306E+02  0.7546771E-02  0.1449698E+00
         21   -1    0    0  504  501  0.00000000000E+00  0.00000000000E+00  0.18964024562E+02  0.18964024562E+02  0.00000000000E+00 0. -1.
         21   -1    0    0  503  502 -0.00000000000E+00 -0.00000000000E+00 -0.37946570789E+02  0.37946570789E+02  0.00000000000E+00 0. -1.
         21    1    1    2  503  501  0.22642095205E+02 -0.14324926664E+02 -0.10895190768E+02  0.28923574832E+02  0.00000000000E+00 0. -1.
         21    1    1    2  504  502 -0.22642095205E+02  0.14324926664E+02 -0.80873554597E+01  0.27987020519E+02  0.00000000000E+00 0. -1.
</event>
<event>
 4    1  0.1725802E+006  0.2444319E+02  0.7546771E-02  0.1475130E+00
         21   -1    0    0  504  501  0.00000000000E+00  0.00000000000E+00  0.21411528922E+02  0.21411528922E+02  0.00000000000E+00 0.  1.
         21   -1    0    0  503  502 -0.00000000000E+00 -0.00000000000E+00 -0.56678092637E+03  0.56678092637E+03  0.00000000000E+00 0.  1.
         21    1    1    2  503  501 -0.23538286535E+02 -0.65892970539E+01 -0.55944999205E+03  0.55998371706E+03  0.00000000000E+00 0.  1.
         21    1    1    2  504  502  0.23538286535E+02  0.65892970539E+01  0.14080594596E+02  0.28208738236E+02  0.00000000000E+00 0.  1.
</event>
<event>
 4    1  0.1725802E+006  0.2146922E+02  0.7546771E-02  0.1512670E+00
         21   -1    0    0  502  501  0.00000000000E+00  0.00000000000E+00  0.13521217475E+02  0.13521217475E+02  0.00000000000E+00 0.  1.
         21   -1    0    0  504  502 -0.00000000000E+00 -0.00000000000E+00 -0.53990061234E+02  0.53990061234E+02  0.00000000000E+00 0. -1.
         21    1    1    2  503  501  0.12583717169E+02 -0.17394755112E+02  0.25951522590E+00  0.21470789258E+02  0.00000000000E+00 0.  1.
         21    1    1    2  504  503 -0.12583717169E+02  0.17394755112E+02 -0.40728358985E+02  0.46040489450E+02  0.00000000000E+00 0. -1.
</event>
<event>
 4    1  0.1725802E+006  0.2322634E+02  0.7546771E-02  0.1489675E+00
         21   -1    0    0  502  501  0.00000000000E+00  0.00000000000E+00  0.19142306323E+03  0.19142306323E+03  0.00000000000E+00 0. -1.
         21   -1    0    0  503  502 -0.00000000000E+00 -0.00000000000E+00 -0.37303583697E+02  0.37303583697E+02  0.00000000000E+00 0. -1.
         21    1    1    2  503  504  0.22597389841E+02  0.53685100081E+01 -0.32898860703E+02  0.40271552775E+02  0.00000000000E+00 0. -1.
         21    1    1    2  504  501 -0.22597389841E+02 -0.53685100081E+01  0.18701834024E+03  0.18845509415E+03  0.00000000000E+00 0. -1.
</event>
<event>
 4    1  0.1725802E+006  0.2174195E+02  0.7546771E-02  0.1508930E+00
         21   -1    0    0  503  501  0.00000000000E+00  0.00000000000E+00  0.11758425554E+03  0.11758425554E+03  0.00000000000E+00 0. -1.
         21   -1    0    0  504  502 -0.00000000000E+00 -0.00000000000E+00 -0.55642769951E+01  0.55642769951E+01  0.00000000000E+00 0.  1.
         21    1    1    2  503  502 -0.20288324500E+02  0.78164079996E+01  0.23573846279E+02  0.32069277719E+02  0.00000000000E+00 0.  1.
         21    1    1    2  504  501  0.20288324500E+02 -0.78164079996E+01  0.88446132263E+02  0.91079254813E+02  0.00000000000E+00 0. -1.
</event>
<event>
 4    1  0.1725802E+006  0.2200670E+02  0.7546771E-02  0.1505362E+00
         21   -1    0    0  504  501  0.00000000000E+00  0.00000000000E+00  0.10372250902E+02  0.10372250902E+02  0.00000000000E+00 0. -1.
         21   -1    0    0  503  502 -0.00000000000E+00 -0.00000000000E+00 -0.83216478856E+02  0.83216478856E+02  0.00000000000E+00 0. -1.
         21    1    1    2  503  501 -0.27243133775E+01  0.21837422598E+02 -0.54204878606E+01  0.22664434644E+02  0.00000000000E+00 0. -1.
         21    1    1    2  504  502  0.27243133775E+01 -0.21837422598E+02 -0.67423740094E+02  0.70924295113E+02  0.00000000000E+00 0. -1.
</event>
<event>
 4    1  0.1725802E+006  0.2889191E+02  0.7546771E-02  0.1429476E+00
         21   -1    0    0  504  501  0.00000000000E+00  0.00000000000E+00  0.25892046870E+03  0.25892046870E+03  0.00000000000E+00 0. -1.
         21   -1    0    0  503  502 -0.00000000000E+00 -0.00000000000E+00 -0.39481815107E+01  0.39481815107E+01  0.00000000000E+00 0. -1.
         21    1    1    2  503  501 -0.78523068353E+01 -0.27804379534E+02  0.18377909890E+03  0.18603628526E+03  0.00000000000E+00 0. -1.
         21    1    1    2  504  502  0.78523068353E+01  0.27804379534E+02  0.71193188291E+02  0.76832364944E+02  0.00000000000E+00 0. -1.
</event>
<event>
 4    1  0.1725802E+006  0.2229035E+02  0.7546771E-02  0.1501607E+00
         21   -1    0    0  504  501  0.00000000000E+00  0.00000000000E+00  0.15094075478E+01  0.15094075478E+01  0.00000000000E+00 0.  1.
         21   -1    0    0  503  502 -0.00000000000E+00 -0.00000000000E+00 -0.59309448192E+03  0.59309448192E+03  0.00000000000E+00 0.  1.
         21    1    1    2  503  501  0.18822414878E+02  0.11940539395E+02 -0.49411469165E+03  0.49461721390E+03  0.00000000000E+00 0.  1.
         21    1    1    2  504  502 -0.18822414878E+02 -0.11940539395E+02 -0.97470382723E+02  0.99986675567E+02  0.00000000000E+00 0.  1.
</event>
<event>
 4    1  0.1725802E+006  0.3782894E+02  0.7546771E-02  0.1361700E+00
         21   -1    0    0  503  501  0.00000000000E+00  0.00000000000E+00  0.92128112651E+02  0.92128112651E+02  0.00000000000E+00 0.  1.
         21   -1    0    0  504  502 -0.00000000000E+00 -0.00000000000E+00 -0.20500773545E+02  0.20500773545E+02  0.00000000000E+00 0.  1.
         21    1    1    2  503  502  0.32704243683E+02 -0.19012135086E+02  0.63535008753E+02  0.73944074629E+02  0.00000000000E+00 0.  1.
         21    1    1    2  504  501 -0.32704243683E+02  0.19012135086E+02  0.80923303519E+01  0.38684811567E+02  0.00000000000E+00 0.  1.
</event>
<event>
 4    1  0.1725802E+006  0.2614403E+02  0.7546771E-02  0.1456401E+00
         21   -1    0    0  502  501  0.00000000000E+00  0.00000000000E+00  0.16822480970E+03  0.16822480970E+03  0.00000000000E+00 0.  1.
         21   -1    0    0  504  502 -0.00000000000E+00 -0.00000000000E+00 -0.87500709909E+01  0.87500709909E+01  0.00000000000E+00 0.  1.
         21    1    1    2  503  501 -0.10539464403E+02  0.23925506712E+02  0.14449979259E+03  0.14684583835E+03  0.00000000000E+00 0.  1.
         21    1    1    2  504  503  0.10539464403E+02 -0.23925506712E+02  0.14974946120E+02  0.30129042344E+02  0.00000000000E+00 0.  1.
</event>
<event>
 4    1  0.1725802E+006  0.2164022E+02  0.7546771E-02  0.1510317E+00
         21   -1    0    0  504  501  0.00000000000E+00  0.00000000000E+00  0.35329836714E+01  0.35329836714E+01  0.00000000000E+00 0.  1.
         21   -1    0    0  503  502 -0.00000000000E+00 -0.00000000000E+00 -0.40995235385E+03  0.40995235385E+03  0.00000000000E+00 0. -1.
         21    1    1    2  503  501  0.42181477533E+01 -0.21225136919E+02 -0.37327588380E+03  0.37390264058E+03  0.00000000000E+00 0. -1.
         21    1    1    2  504  502 -0.42181477533E+01  0.21225136919E+02 -0.33143486381E+02  0.39582696942E+02  0.00000000000E+00 0.  1.
</event>
<event>
 4    1  0.1725802E+006  0.2211769E+02  0.7546771E-02  0.1503885E+00
         21   -1    0    0  503  501  0.00000000000E+00  0.00000000000E+00  0.52080508446E+01  0.52080508446E+01  0.00000000000E+00 0.  1.
         21   -1    0    0  501  502 -0.00000000000E+00 -0.00000000000E+00 -0.77398815112E+03  0.77398815112E+03  0.00000000000E+00 0.  1.
         21    1    1    2  503  504  0.61670707163E+01  0.21240514059E+02 -0.19196833959E+02  0.29286697198E+02  0.00000000000E+00 0.  1.
         21    1    1    2  504  502 -0.61670707163E+01 -0.21240514059E+02 -0.74958326632E+03  0.74990950477E+03  0.00000000000E+00 0.  1.
</event>
<event>
 4    1  0.1725802E+006  0.2634532E+02  0.7546771E-02  0.1454298E+00
         21   -1    0    0  504  501  0.00000000000E+00  0.00000000000E+00  0.77598119822E+01  0.77598119822E+01  0.00000000000E+00 0. -1.
         21   -1    0    0  503  502 -0.00000000000E+00 -0.00000000000E+00 -0.10196970495E+03  0.10196970495E+03  0.00000000000E+00 0. -1.
         21    1    1    2  503  501  0.14169988862E+02 -0.22210074659E+02 -0.27876575361E+02  0.38355957225E+02  0.00000000000E+00 0. -1.
         21    1    1    2  504  502 -0.14169988862E+02  0.22210074659E+02 -0.66333317609E+02  0.71373559711E+02  0.00000000000E+00 0. -1.
</event>
<event>
 4    1  0.1725802E+006  0.3325342E+02  0.7546771E-02  0.1393276E+00
         21   -1    0    0  503  501  0.00000000000E+00  0.00000000000E+00  0.49266796634E+02  0.49266796634E+02  0.00000000000E+00 0.  1.
         21   -1    0    0  504  502 -0.00000000000E+00 -0.00000000000E+00 -0.47429110136E+02  0.47429110136E+02  0.00000000000E+00 0.  1.
         21    1    1    2  503  502 -0.18344822401E+02 -0.27735493871E+02 -0.34171539066E+02  0.47681067641E+02  0.00000000000E+00 0.  1.
         21    1    1    2  504  501  0.18344822401E+02  0.27735493871E+02  0.36009225564E+02  0.49014839130E+02  0.00000000000E+00 0.  1.
</event>
<event>
 4    1  0.1725802E+006  0.3220724E+02  0.7546771E-02  0.1401337E+00
         21   -1    0    0  504  501  0.00000000000E+00  0.00000000000E+00  0.11138285771E+03  0.11138285771E+03  0.00000000000E+00 0.  1.
         21   -1    0    0  503  502 -0.00000000000E+00 -0.00000000000E+00 -0.33306491711E+02  0.33306491711E+02  0.00000000000E+00 0.  1.
         21    1    1    2  503  501 -0.32202094661E+02 -0.57552179647E+00 -0.22364740337E+02  0.39210811471E+02  0.00000000000E+00 0.  1.
         21    1    1    2  504  502  0.32202094661E+02  0.57552179647E+00  0.10044110634E+03  0.10547853795E+03  0.00000000000E+00 0.  1.
</event>
<event>
 4    1  0.1725802E+006  0.2449269E+02  0.7546771E-02  0.1474559E+00
         21   -1    0    0  504  501  0.00000000000E+00  0.00000000000E+00  0.17180112465E+01  0.17180112465E+01  0.00000000000E+00 0. -1.
         21   -1    0    0  503  502 -0.00000000000E+00 -0.00000000000E+00 -0.18639858943E+04  0.18639858943E+04  0.00000000000E+00 0.  1.
         21    1    1    2  503  501 -0.19201030481E+02  0.15205668723E+02 -0.90183936945E+02  0.93450705806E+02  0.00000000000E+00 0. -1.
         21    1    1    2  504  502  0.19201030481E+02 -0.15205668723E+02 -0.17720839461E+04  0.17722531998E+04  0.00000000000E+00 0.  1.
</event>
<event>
 4    1  0.1725802E+006  0.4769635E+02  0.7546771E-02  0.1308482E+00
         21   -1    0    0  504  501  0.00000000000E+00  0.00000000000E+00  0.10714267214E+03  0.10714267214E+03  0.00000000000E+00 0.  1.
         21   -1    0    0  503  502 -0.00000000000E+00 -0.00000000000E+00 -0.47353532096E+02  0.47353532096E+02  0.00000000000E+00 0.  1.
         21    1    1    2  503  501  0.43227492664E+02 -0.20157510795E+02  0.87267114656E+02  0.99450946018E+02  0.00000000000E+00 0.  1.
         21    1    1    2  504  502 -0.43227492664E+02  0.20157510795E+02 -0.27477974612E+02  0.55045258217E+02  0.00000000000E+00 0.  1.
</event>
<event>
 4    1  0.1725802E+006  0.2072519E+02  0.7546771E-02  0.1523225E+00
         21   -1    0    0  503  501  0.00000000000E+00  0.00000000000E+00  0.18178779380E+02  0.18178779380E+02  0.00000000000E+00 0. -1.
         21   -1    0    0  504  502 -0.00000000000E+00 -0.00000000000E+00 -0.99680512189E+02  0.99680512189E+02  0.00000000000E+00 0.  1.
         21    1    1    2  503  502 -0.52753967200E+01 -0.20042549918E+02  0.10722744025E+02  0.23334756421E+02  0.00000000000E+00 0. -1.
         21    1    1    2  504  501  0.52753967200E+01  0.20042549918E+02 -0.92224476834E+02  0.94524535149E+02  0.00000000000E+00 0.  1.
</event>
<event>
 4    1  0.1725802E+006  0.2028837E+02  0.7546771E-02  0.1529672E+00
         21   -1    0    0  502  501  0.00000000000E+00  0.00000000000E+00  0.15684936082E+03  0.15684936082E+03  0.00000000000E+00 0.  1.
         21   -1    0    0  503  502 -0.00000000000E+00 -0.00000000000E+00 -0.61816689699E+01  0.61816689699E+01  0.00000000000E+00 0.  1.
         21    1    1    2  503  504  0.11988234491E+02 -0.16367659874E+02  0.13496259548E+02  0.24367336287E+02  0.00000000000E+00 0.  1.
         21    1    1    2  504  501 -0.11988234491E+02  0.16367659874E+02  0.13717143230E+03  0.13866369350E+03  0.00000000000E+00 0.  1.
</event>
<event>
 4    1  0.1725802E+006  0.2730677E+02  0.7546771E-02  0.1444551E+00
         21   -1    0    0  503  501  0.00000000000E+00  0.00000000000E+00  0.39582335951E+02  0.39582335951E+02  0.00000000000E+00 0.  1.
         21   -1    0    0  504  502 -0.00000000000E+00 -0.00000000000E+00 -0.20890468464E+02  0.20890468464E+02  0.00000000000E+00 0.  1.
         21    1    1    2  503  502 -0.34452668717E+01 -0.27088559542E+02 -0.13111719460E+00  0.27307089072E+02  0.00000000000E+00 0.  1.
         21    1    1    2  504  501  0.34452668717E+01  0.27088559542E+02  0.18822984682E+02  0.33165715343E+02  0.00000000000E+00 0.  1.
</event>
<event>
 4    1  0.1725802E+006  0.2167140E+02  0.7546771E-02  0.1509891E+00
         21   -1    0    0  502  501  0.00000000000E+00  0.00000000000E+00  0.23512797078E+02  0.23512797078E+02  0.00000000000E+00 0.  1.
         21   -1    0    0  504  502 -0.00000000000E+00 -0.00000000000E+00 -0.20061021976E+02  0.20061021976E+02  0.00000000000E+00 0.  1.
         21    1    1    2  503  501 -0.18916880050E+02 -0.10573615999E+02  0.31590385344E+01  0.21900439050E+02  0.00000000000E+00 0.  1.
         21    1    1    2  504  503  0.18916880050E+02  0.10573615999E+02  0.29273656762E+00  0.21673380004E+02  0.00000000000E+00 0.  1.
</event>
<event>
 4    1  0.1725802E+006  0.3495726E+02  0.7546771E-02  0.1380864E+00
         21   -1    0    0  503  501  0.00000000000E+00  0.00000000000E+00  0.33244276311E+01  0.33244276311E+01  0.00000000000E+00 0.  1.
         21   -1    0    0  504  502 -0.00000000000E+00 -0.00000000000E+00 -0.52537143655E+03  0.52537143655E+03  0.00000000000E+00 0. -1.
         21    1    1    2  503  502 -0.17839707451E+02  0.30062512616E+02 -0.40589317856E+03  0.40739573173E+03  0.00000000000E+00 0. -1.
         21    1    1    2  504  501  0.17839707451E+02 -0.30062512616E+02 -0.11615383036E+03  0.12130013246E+03  0.00000000000E+00 0.  1.
</event>
<event>
 4    1  0.1725802E+006  0.2954891E+02  0.7546771E-02  0.1423557E+00
         21   -1    0    0  503  501  0.00000000000E+00  0.00000000000E+00  0.25833102691E+02  0.25833102691E+02  0.00000000000E+00 0.  1.
         21   -1    0    0  501  502 -0.00000000000E+00 -0.00000000000E+00 -0.79098387683E+02  0.79098387683E+02  0.00000000000E+00 0.  1.
         21    1    1    2  503  504  0.11664786979E+02 -0.27149051446E+02  0.13071628722E+02  0.32311077468E+02  0.00000000000E+00 0.  1.
         21    1    1    2  504  502 -0.11664786979E+02  0.27149051446E+02 -0.66336913714E+02  0.72620412907E+02  0.00000000000E+00 0.  1.
</event>
<event>
 4    1  0.1725802E+006  0.2125565E+02  0.7546771E-02  0.1515646E+00
         21   -1    0    0  504  501  0.00000000000E+00  0.00000000000E+00  0.26356830039E+03  0.26356830039E+03  0.00000000000E+00 0.  1.
         21   -1    0    0  503  502 -0.00000000000E+00 -0.00000000000E+00 -0.17691393182E+01  0.17691393182E+01  0.00000000000E+00 0.  1.
         21    1    1    2  503  501  0.13111160024E+02  0.16730214141E+02  0.10751540393E+03  0.10959637159E+03  0.00000000000E+00 0.  1.
         21    1    1    2  504  502 -0.13111160024E+02 -0.16730214141E+02  0.15428375714E+03  0.15574106812E+03  0.00000000000E+00 0.  1.
</event>
<event>
 4    1  0.1725802E+006  0.3549634E+02  0.7546771E-02  0.1377107E+00
         21   -1    0    0  502  501  0.00000000000E+00  0.00000000000E+00  0.11445818382E+02  0.11445818382E+02  0.00000000000E+00 0. -1.
         21   -1    0    0  503  502 -0.00000000000E+00 -0.00000000000E+00 -0.93937351175E+03  0.93937351175E+03  0.00000000000E+00 0. -1.
         21    1    1    2  503  504 -0.39068258394E+01  0.35280681943E+02 -0.91064970671E+03  0.91134125230E+03  0.00000000000E+00 0. -1.
         21    1    1    2  504  501  0.39068258394E+01 -0.35280681943E+02 -0.17277986655E+02  0.39478077833E+02  0.00000000000E+00 0. -1.
</event>
<event>
 4    1  0.1725802E+006  0.2078089E+02  0.7546771E-02  0.1522416E+00
         21   -1    0    0  504  501  0.00000000000E+00  0.00000000000E+00  0.98678031783E+01  0.98678031783E+01  0.00000000000E+00 0. -1.
         21   -1    0    0  501  502 -0.00000000000E+00 -0.00000000000E+00 -0.86154403091E+02  0.86154403091E+02  0.00000000000E+00 0. -1.
         21    1    1    2  503  502 -0.17871512247E+02  0.10604446728E+02 -0.71820931845E+02  0.74766914417E+02  0.00000000000E+00 0. -1.
         21    1    1    2  504  503  0.17871512247E+02 -0.10604446728E+02 -0.44656680676E+01  0.21255291852E+02  0.00000000000E+00 0. -1.
</event>
<event>
 4    1  0.1725802E+006  0.3479950E+02  0.7546771E-02  0.1381978E+00
         21   -1    0    0  502  501  0.00000000000E+00  0.00000000000E+00  0.63946271654E+03  0.63946271654E+03  0.00000000000E+00 0.  1.
         21   -1    0    0  504  502 -0.00000000000E+00 -0.00000000000E+00 -0.14783296166E+02  0.14783296166E+02  0.00000000000E+00 0. -1.
         21    1    1    2  503  501 -0.20515662737E+02 -0.28108950814E+02  0.61779219115E+03  0.61877152244E+03  0.00000000000E+00 0.  1.
         21    1    1    2  504  503  0.20515662737E+02  0.28108950814E+02  0.68872292219E+01  0.35474490267E+02  0.00000000000E+00 0. -1.
</event>
<event>
 4    1  0.1725802E+006  0.2079004E+02  0.7546771E-02  0.1522284E+00
         21   -1    0    0  503  501  0.00000000000E+00  0.00000000000E+00  0.11723213955E+01  0.11723213955E+01  0.00000000000E+00 0. -1.
         21   -1    0    0  504  502 -0.00000000000E+00 -0.00000000000E+00 -0.40624230363E+03  0.40624230363E+03  0.00000000000E+00 0. -1.
         21    1    1    2  503  502 -0.83363955178E+01  0.19045478599E+02 -0.26446764083E+03  0.26528354414E+03  0.00000000000E+00 0. -1.
         21    1    1    2  504  501  0.83363955178E+01 -0.19045478599E+02 -0.14060234141E+03  0.14213108089E+03  0.00000000000E+00 0. -1.
</event>
<event>
 4    1  0.1725802E+006  0.2627294E+02  0.7546771E-02  0.1455051E+00
         21   -1    0    0  502  501  0.00000000000E+00  0.00000000000E+00  0.28068865167E+03  0.28068865167E+03  0.00000000000E+00 0. -1.
         21   -1    0    0  504  502 -0.00000000000E+00 -0.00000000000E+00 -0.58651015799E+01  0.58651015799E+01  0.00000000000E+00 0. -1.
         21    1    1    2  503  501 -0.11612699893E+02 -0.23567192053E+02  0.24659473939E+03  0.24799038859E+03  0.00000000000E+00 0. -1.
         21    1    1    2  504  503  0.11612699893E+02  0.23567192053E+02  0.28228810702E+02  0.38563364658E+02  0.00000000000E+00 0. -1.
</event>
<event>
 4    1  0.1725802E+006  0.2017582E+02  0.7546771E-02  0.1531365E+00
         21   -1    0    0  504  501  0.00000000000E+00  0.00000000000E+00  0.82169222859E+00  0.82169222859E+00  0.00000000000E+00 0.  1.
         21   -1    0    0  503  502 -0.00000000000E+00 -0.00000000000E+00 -0.62556569559E+03  0.62556569559E+03  0.00000000000E+00 0.  1.
         21    1    1    2  503  501  0.20010610237E+02  0.25766608797E+01 -0.45523841801E+03  0.45568528716E+03  0.00000000000E+00 0.  1.
         21    1    1    2  504  502 -0.20010610237E+02 -0.25766608797E+01 -0.16950558535E+03  0.17070210065E+03  0.00000000000E+00 0.  1.
</event>
<event>
 4    1  0.1725802E+006  0.2174245E+02  0.7546771E-02  0.1508923E+00
         21   -1    0    0  503  501  0.00000000000E+00  0.00000000000E+00  0.37880351171E+01  0.37880351171E+01  0.00000000000E+00 0. -1.
         21   -1    0    0  504  502 -0.00000000000E+00 -0.00000000000E+00 -0.24040790918E+03  0.24040790918E+03  0.00000000000E+00 0.  1.
         21    1    1    2  503  502  0.18369256572E+02  0.11632053814E+02 -0.20298081374E+03  0.20414197268E+03  0.00000000000E+00 0.  1.
         21    1    1    2  504  501 -0.18369256572E+02 -0.11632053814E+02 -0.33639060323E+02  0.40053971618E+02  0.00000000000E+00 0. -1.
</event>
<event>
 4    1  0.1725802E+006  0.2559057E+02  0.7546771E-02  0.1462304E+00
         21   -1    0    0  503  501  0.00000000000E+00  0.00000000000E+00  0.44686015847E+01  0.44686015847E+01  0.00000000000E+00 0. -1.
         21   -1    0    0  504  502 -0.00000000000E+00 -0.00000000000E+00 -0.15536751934E+03  0.15536751934E+03  0.00000000000E+00 0. -1.
         21    1    1    2  503  502 -0.22969860439E+02 -0.11281073170E+02 -0.94487336455E+02  0.97891439109E+02  0.00000000000E+00 0. -1.
         21    1    1    2  504  501  0.22969860439E+02  0.11281073170E+02 -0.56411581301E+02  0.61944681816E+02  0.00000000000E+00 0. -1.
</event>
<event>
 4    1  0.1725802E+006  0.3072677E+02  0.7546771E-02  0.1413384E+00
         21   -1    0    0  502  501  0.00000000000E+00  0.00000000000E+00  0.82979853962E+02  0.82979853962E+02  0.00000000000E+00 0. -1.
         21   -1    0    0  503  502 -0.00000000000E+00 -0.00000000000E+00 -0.10709083822E+04  0.10709083822E+04  0.00000000000E+00 0. -1.
         21    1    1    2  503  504 -0.16321756992E+02 -0.26033337912E+02 -0.10678353241E+04  0.10682773113E+04  0.00000000000E+00 0. -1.
         21    1    1    2  504  501  0.16321756992E+02  0.26033337912E+02  0.79906795853E+02  0.85610924874E+02  0.00000000000E+00 0. -1.
</event>
<event>
 4    1  0.1725802E+006  0.2499124E+02  0.7546771E-02  0.1468901E+00
         21   -1    0    0  504  501  0.00000000000E+00  0.00000000000E+00  0.51032555592E+02  0.51032555592E+02  0.00000000000E+00 0. -1.
         21   -1    0    0  501  502 -0.00000000000E+00 -0.00000000000E+00 -0.17555915875E+02  0.17555915875E+02  0.00000000000E+00 0. -1.
         21    1    1    2  503  502  0.14615147624E+01 -0.24948466818E+02 -0.21354921440E+01  0.25082311470E+02  0.00000000000E+00 0. -1.
         21    1    1    2  504  503 -0.14615147624E+01  0.24948466818E+02  0.35612131861E+02  0.43506159997E+02  0.00000000000E+00 0. -1.
</event>
<event>
 4    1  0.1725802E+006  0.3319603E+02  0.7546771E-02  0.1393709E+00
         21   -1    0    0  503  501  0.00000000000E+00  0.00000000000E+00  0.82637582392E+01  0.82637582392E+01  0.00000000000E+00 0. -1.
         21   -1    0    0  504  502 -0.00000000000E+00 -0.00000000000E+00 -0.24930803045E+03  0.24930803045E+03  0.00000000000E+00 0. -1.
         21    1    1    2  503  502 -0.30928097265E+02 -0.12059416550E+02 -0.32690788827E+02  0.46590389589E+02  0.00000000000E+00 0. -1.
         21    1    1    2  504  501  0.30928097265E+02  0.12059416550E+02 -0.20835348338E+03  0.21098139910E+03  0.00000000000E+00 0. -1.
</event>
<event>
 4    1  0.1725802E+006  0.2252568E+02  0.7546771E-02  0.1498542E+00
         21   -1    0    0  504  501  0.00000000000E+00  0.00000000000E+00  0.23258958103E+02  0.23258958103E+02  0.00000000000E+00 0.  1.
         21   -1    0    0  503  502 -0.00000000000E+00 -0.00000000000E+00 -0.24396294836E+02  0.24396294836E+02  0.00000000000E+00 0.  1.
         21    1    1    2  503  501 -0.81815210624E+01 -0.20987353353E+02  0.71811910578E+01  0.23642668899E+02  0.00000000000E+00 0.  1.
         21    1    1    2  504  502  0.81815210624E+01  0.20987353353E+02 -0.83185277910E+01  0.24012584040E+02  0.00000000000E+00 0.  1.
</event>
<event>
 4    1  0.1725802E+006  0.2502692E+02  0.7546771E-02  0.1468502E+00
         21   -1    0    0  503  501  0.00000000000E+00  0.00000000000E+00  0.95179088260E+02  0.95179088260E+02  0.00000000000E+00 0.  1.
         21   -1    0    0  504  502 -0.00000000000E+00 -0.00000000000E+00 -0.35464384402E+02  0.35464384402E+02  0.00000000000E+00 0.  1.
         21    1    1    2  503  502  0.23329104534E+02  0.90608916983E+01  0.88807874161E+02  0.92266924679E+02  0.00000000000E+00 0.  1.
         21    1    1    2  504  501 -0.23329104534E+02 -0.90608916983E+01 -0.29093170304E+02  0.38376547982E+02  0.00000000000E+00 0.  1.
</event>
<event>
 4    1  0.1725802E+006  0.2385502E+02  0.7546771E-02  0.1482032E+00
         21   -1    0    0  504  501  0.00000000000E+00  0.00000000000E+00  0.16872449081E+02  0.16872449081E+02  0.00000000000E+00 0.  1.
         21   -1    0    0  501  502 -0.00000000000E+00 -0.00000000000E+00 -0.56632992319E+03  0.56632992319E+03  0.00000000000E+00 0.  1.
         21    1    1    2  503  502 -0.10602463275E+02 -0.21369369820E+02 -0.55751361472E+03  0.55802373855E+03  0.00000000000E+00 0.  1.
         21    1    1    2  504  503  0.10602463275E+02  0.21369369820E+02  0.80561406132E+01  0.25178633712E+02  0.00000000000E+00 0.  1.
</event>
<event>
 4    1  0.1725802E+006  0.2461164E+02  0.7546771E-02  0.1473195E+00
         21   -1    0    0  502  501  0.00000000000E+00  0.00000000000E+00  0.68878062380E+02  0.68878062380E+02  0.00000000000E+00 0.  1.
         21   -1    0    0  504  502 -0.00000000000E+00 -0.00000000000E+00 -0.45324000365E+03  0.45324000365E+03  0.00000000000E+00 0. -1.
         21    1    1    2  503  501  0.15609989967E+02  0.19027905256E+02  0.66332973530E+02  0.70751652578E+02  0.00000000000E+00 0.  1.
         21    1    1    2  504  503 -0.15609989967E+02 -0.19027905256E+02 -0.45069491480E+03  0.45136641345E+03  0.00000000000E+00 0. -1.
</event>
<event>
 4    1  0.1725802E+006  0.2109832E+02  0.7546771E-02  0.1517866E+00
         21   -1    0    0  502  501  0.00000000000E+00  0.00000000000E+00  0.21926965191E+01  0.21926965191E+01  0.00000000000E+00 0. -1.
         21   -1    0    0  504  502 -0.00000000000E+00 -0.00000000000E+00 -0.30317106287E+03  0.30317106287E+03  0.00000000000E+00 0.  1.
         21    1    1    2  503  501  0.94974649693E+01  0.18839775051E+02 -0.62729824963E+02  0.66182852044E+02  0.00000000000E+00 0. -1.
         21    1    1    2  504  503 -0.94974649693E+01 -0.18839775051E+02 -0.23824854139E+03  0.23918090734E+03  0.00000000000E+00 0.  1.
</event>
<event>
 4    1  0.1725802E+006  0.2497301E+02  0.7546771E-02  0.1469106E+00
         21   -1    0    0  504  501  0.00000000000E+00  0.00000000000E+00  0.25431137254E+02  0.25431137254E+02  0.00000000000E+00 0. -1.
         21   -1    0    0  503  502 -0.00000000000E+00 -0.00000000000E+00 -0.56853514522E+02  0.56853514522E+02  0.00000000000E+00 0.  1.
         21    1    1    2  503  501  0.13403149320E+02  0.21071468752E+02  0.15314082409E+02  0.29294578459E+02  0.00000000000E+00 0. -1.
         21    1    1    2  504  502 -0.13403149320E+02 -0.21071468752E+02 -0.46736459677E+02  0.52990073318E+02  0.00000000000E+00 0.  1.
</event>
<event>
 4    1  0.1725802E+006  0.2241259E+02  0.7546771E-02  0.1500009E+00
         21   -1    0    0  504  501  0.00000000000E+00  0.00000000000E+00  0.42775886498E+03  0.42775886498E+03  0.00000000000E+00 0.  1.
         21   -1    0    0  501  502 -0.00000000000E+00 -0.00000000000E+00 -0.20895766744E+02  0.20895766744E+02  0.00000000000E+00 0. -1.
         21    1    1    2  503  502  0.41887066820E+01 -0.22017693513E+02 -0.14501167929E+02  0.26694717879E+02  0.00000000000E+00 0. -1.
         21    1    1    2  504  503 -0.41887066820E+01  0.22017693513E+02  0.42136426616E+03  0.42195991384E+03  0.00000000000E+00 0.  1.
</event>
<event>
 4    1  0.1725802E+006  0.4354631E+02  0.7546771E-02  0.1328870E+00
         21   -1    0    0  504  501  0.00000000000E+00  0.00000000000E+00  0.69795746703E+03  0.69795746703E+03  0.00000000000E+00 0.  1.
         21   -1    0    0  503  502 -0.00000000000E+00 -0.00000000000E+00 -0.27806157895E+01  0.27806157895E+01  0.00000000000E+00 0.  1.
         21    1    1    2  503  501  0.38948481647E+02  0.19475552500E+02  0.40062497052E+03  0.40298467511E+03  0.00000000000E+00 0.  1.
         21    1    1    2  504  502 -0.38948481647E+02 -0.19475552500E+02  0.29455188072E+03  0.29775340771E+03  0.00000000000E+00 0.  1.
</event>
<event>
 4    1  0.1725802E+006  0.2251647E+02  0.7546771E-02  0.1498661E+00
         21   -1    0    0  503  501  0.00000000000E+00  0.00000000000E+00  0.10732852541E+04  0.10732852541E+04  0.00000000000E+00 0.  1.
         21   -1    0    0  504  502 -0.00000000000E+00 -0.00000000000E+00 -0.50430924866E+00  0.50430924866E+00  0.00000000000E+00 0. -1.
         21    1    1    2  503  502 -0.15291163274E+02  0.16527903204E+02  0.67149841244E+03  0.67187581380E+03  0.00000000000E+00 0. -1.
         21    1    1    2  504  501  0.15291163274E+02 -0.16527903204E+02  0.40128253240E+03  0.40191374954E+03  0.00000000000E+00 0.  1.
</event>
<event>
 4    1  0.1725802E+006  0.2177742E+02  0.7546771E-02  0.1508448E+00
         21   -1    0    0  503  501  0.00000000000E+00  0.00000000000E+00  0.25097265553E+01  0.25097265553E+01  0.00000000000E+00 0. -1.
         21   -1    0    0  504  502 -0.00000000000E+00 -0.00000000000E+00 -0.57558712642E+03  0.57558712642E+03  0.00000000000E+00 0. -1.
         21    1    1    2  503  502  0.21707963282E+02  0.17379088397E+01 -0.52343440724E+03  0.52388723470E+03  0.00000000000E+00 0. -1.
         21    1    1    2  504  501 -0.21707963282E+02 -0.17379088397E+01 -0.49642992621E+02  0.54209618274E+02  0.00000000000E+00 0. -1.
</event>
<event>
 4    1  0.1725802E+006  0.3422782E+02  0.7546771E-02  0.1386075E+00
         21   -1    0    0  503  501  0.00000000000E+00  0.00000000000E+00  0.71616743219E+02  0.71616743219E+02  0.00000000000E+00 0. -1.
         21   -1    0    0  504  502 -0.00000000000E+00 -0.00000000000E+00 -0.16768357832E+02  0.16768357832E+02  0.00000000000E+00 0. -1.
         21    1    1    2  503  502 -0.20944114202E+02  0.27071899068E+02  0.34333141103E+02  0.48479977484E+02  0.00000000000E+00 0. -1.
         21    1    1    2  504  501  0.20944114202E+02 -0.27071899068E+02  0.20515244284E+02  0.39905123567E+02  0.00000000000E+00 0. -1.
</event>
<event>
 4    1  0.1725802E+006  0.2082039E+02  0.7546771E-02  0.1521845E+00
         21   -1    0    0  503  501  0.00000000000E+00  0.00000000000E+00  0.86876143016E+01  0.86876143016E+01  0.00000000000E+00 0. -1.
         21   -1    0    0  501  502 -0.00000000000E+00 -0.00000000000E+00 -0.17761999010E+03  0.17761999010E+03  0.00000000000E+00 0.  1.
         21    1    1    2  503  504 -0.18203841361E+02 -0.10104888530E+02 -0.54731763810E+01  0.21527755856E+02  0.00000000000E+00 0. -1.
         21    1    1    2  504  502  0.18203841361E+02  0.10104888530E+02 -0.16345919942E+03  0.16477984855E+03  0.00000000000E+00 0.  1.
</event>
<event>
 4    1  0.1725802E+006  0.2253129E+02  0.7546771E-02  0.1498469E+00
         21   -1    0    0  503  501  0.00000000000E+00  0.00000000000E+00  0.12803822080E+01  0.12803822080E+01  0.00000000000E+00 0.  1.
         21   -1    0    0  504  502 -0.00000000000E+00 -0.00000000000E+00 -0.40030054375E+03  0.40030054375E+03  0.00000000000E+00 0. -1.
         21    1    1    2  503  502  0.22527137175E+02 -0.43241412590E+00 -0.17991997374E+03  0.18132527635E+03  0.00000000000E+00 0.  1.
         21    1    1    2  504  501 -0.22527137175E+02  0.43241412590E+00 -0.21910018780E+03  0.22025564961E+03  0.00000000000E+00 0. -1.
</event>
<event>
 4    1  0.1725802E+006  0.2234939E+02  0.7546771E-02  0.1500834E+00
         21   -1    0    0  502  501  0.00000000000E+00  0.00000000000E+00  0.94284884023E+02  0.94284884023E+02  0.00000000000E+00 0.  1.
         21   -1    0    0  504  502 -0.00000000000E+00 -0.00000000000E+00 -0.96967471032E+01  0.96967471032E+01  0.00000000000E+00 0.  1.
         21    1    1    2  503  501  0.15764701089E+02  0.15842019260E+02  0.77312095537E+02  0.80477670760E+02  0.00000000000E+00 0.  1.
         21    1    1    2  504  503 -0.15764701089E+02 -0.15842019260E+02  0.72760413828E+01  0.23503960366E+02  0.00000000000E+00 0.  1.
</event>
<event>
 4    1  0.1725802E+006  0.3162172E+02  0.7546771E-02  0.1406008E+00
         21   -1    0    0  502  501  0.00000000000E+00  0.00000000000E+00  0.12525540047E+03  0.12525540047E+03  0.00000000000E+00 0. -1.
         21   -1    0    0  504  502 -0.00000000000E+00 -0.00000000000E+00 -0.17613257066E+02  0.17613257066E+02  0.00000000000E+00 0.  1.
         21    1    1    2  503  501  0.36740597371E+01  0.31407550639E+02  0.10664158714E+03  0.11123111552E+03  0.00000000000E+00 0. -1.
         21    1    1    2  504  503 -0.36740597371E+01 -0.31407550639E+02  0.10005562654E+01  0.31637542018E+02  0.00000000000E+00 0.  1.
</event>
<event>
 4    1  0.1725802E+006  0.3227735E+02  0.7546771E-02  0.1400786E+00
         21   -1    0    0  504  501  0.00000000000E+00  0.00000000000E+00  0.43368275710E+02  0.43368275710E+02  0.00000000000E+00 0.  1.
         21   -1    0    0  503  502 -0.00000000000E+00 -0.00000000000E+00 -0.76594641872E+02  0.76594641872E+02  0.00000000000E+00 0.  1.
         21    1    1    2  503  501 -0.32081396197E+02 -0.35512614045E+01 -0.66306092318E+02  0.73745001986E+02  0.00000000000E+00 0.  1.
         21    1    1    2  504  502  0.32081396197E+02  0.35512614045E+01  0.33079726156E+02  0.46217915596E+02  0.00000000000E+00 0.  1.
</event>
<event>
 4    1  0.1725802E+006  0.4034787E+02  0.7546771E-02  0.1346459E+00
         21   -1    0    0  503  501  0.00000000000E+00  0.00000000000E+00  0.95418044893E+02  0.95418044893E+02  0.00000000000E+00 0.  1.
         21   -1    0    0  504  502 -0.00000000000E+00 -0.00000000000E+00 -0.30373144692E+02  0.30373144692E+02  0.00000000000E+00 0.  1.
         21    1    1    2  503  502  0.23459548689E+02  0.32826818721E+02 -0.91160809302E+01  0.41364881041E+02  0.00000000000E+00 0.  1.
         21    1    1    2  504  501 -0.23459548689E+02 -0.32826818721E+02  0.74160981131E+02  0.84426308544E+02  0.00000000000E+00 0.  1.
</event>
<event>
 4    1  0.1725802E+006  0.2030703E+02  0.7546771E-02  0.1529393E+00
         21   -1    0    0  503  501  0.00000000000E+00  0.00000000000E+00  0.45058781154E+01  0.45058781154E+01  0.00000000000E+00 0.  1.
         21   -1    0    0  504  502 -0.00000000000E+00 -0.00000000000E+00 -0.10113615962E+03  0.10113615962E+03  0.00000000000E+00 0.  1.
         21    1    1    2  503  502 -0.77168459543E+01  0.18783660295E+02 -0.32027199230E+02  0.37922514369E+02  0.00000000000E+00 0.  1.
         21    1    1    2  504  501  0.77168459543E+01 -0.18783660295E+02 -0.64603082273E+02  0.67719523364E+02  0.00000000000E+00 0.  1.
</event>
<event>
 4    1  0.1725802E+006  0.2986773E+02  0.7546771E-02  0.1420749E+00
         21   -1    0    0  504  501  0.00000000000E+00  0.00000000000E+00  0.43756389084E+01  0.43756389084E+01  0.00000000000E+00 0.  1.
         21   -1    0    0  501  502 -0.00000000000E+00 -0.00000000000E+00 -0.25816820117E+03  0.25816820117E+03  0.00000000000E+00 0. -1.
         21    1    1    2  503  502  0.29270978791E+02  0.59406385314E+01 -0.18709607618E+03  0.18946509734E+03  0.00000000000E+00 0. -1.
         21    1    1    2  504  503 -0.29270978791E+02 -0.59406385314E+01 -0.66696486078E+02  0.73078742741E+02  0.00000000000E+00 0.  1.
</event>
<event>
 4    1  0.1725802E+006  0.7114737E+02  0.7546771E-02  0.1226040E+00
         21   -1    0    0  504  501  0.00000000000E+00  0.00000000000E+00  0.17356465538E+03  0.17356465538E+03  0.00000000000E+00 0. -1.
         21   -1    0    0  503  502 -0.00000000000E+00 -0.00000000000E+00 -0.32968459805E+02  0.32968459805E+02  0.00000000000E+00 0. -1.
         21    1    1    2  503  501  0.45929032439E+02  0.54336659129E+02  0.35221210782E+02  0.79388174403E+02  0.00000000000E+00 0. -1.
         21    1    1    2  504  502 -0.45929032439E+02 -0.54336659129E+02  0.10537498479E+03  0.12714494078E+03  0.00000000000E+00 0. -1.
</event>
<event>
 4    1  0.1725802E+006  0.6321533E+02  0.7546771E-02  0.1249283E+00
         21   -1    0    0  503  501  0.00000000000E+00  0.00000000000E+00  0.22963381437E+03  0.22963381437E+03  0.00000000000E+00 0.  1.
         21   -1    0    0  504  502 -0.00000000000E+00 -0.00000000000E+00 -0.19663707552E+03  0.19663707552E+03  0.00000000000E+00 0.  1.
         21    1    1    2  503  502  0.80241689928E+01  0.62703990655E+02 -0.18698738138E+03  0.19738403818E+03  0.00000000000E+00 0.  1.
         21    1    1    2  504  501 -0.80241689928E+01 -0.62703990655E+02  0.21998412024E+03  0.22888685171E+03  0.00000000000E+00 0.  1.
</event>
<event>
 4    1  0.1725802E+006  0.2944836E+02  0.7546771E-02  0.1424452E+00
         21   -1    0    0  503  501  0.00000000000E+00  0.00000000000E+00  0.96012242824E+02  0.96012242824E+02  0.00000000000E+00 0. -1.
         21   -1    0    0  504  502 -0.00000000000E+00 -0.00000000000E+00 -0.49487702554E+02  0.49487702554E+02  0.00000000000E+00 0. -1.
         21    1    1    2  503  502 -0.94073704529E+01  0.27905330069E+02  0.89039071290E+02  0.93782526524E+02  0.00000000000E+00 0. -1.
         21    1    1    2  504  501  0.94073704529E+01 -0.27905330069E+02 -0.42514531019E+02  0.51717418854E+02  0.00000000000E+00 0. -1.
</event>
<event>
 4    1  0.1725802E+006  0.2992923E+02  0.7546771E-02  0.1420213E+00
         21   -1    0    0  504  501  0.00000000000E+00  0.00000000000E+00  0.57557180027E+02  0.57557180027E+02  0.00000000000E+00 0. -1.
         21   -1    0    0  503  502 -0.00000000000E+00 -0.00000000000E+00 -0.17533637999E+02  0.17533637999E+02  0.00000000000E+00 0. -1.
         21    1    1    2  503  501 -0.12233384660E+02  0.27314888137E+02  0.32599028009E+02  0.44254439792E+02  0.00000000000E+00 0. -1.
         21    1    1    2  504  502  0.12233384660E+02 -0.27314888137E+02  0.74245140190E+01  0.30836378234E+02  0.00000000000E+00 0. -1.
</event>
<event>
 4    1  0.1725802E+006  0.5302906E+02  0.7546771E-02  0.1285548E+00
         21   -1    0    0  503  501  0.00000000000E+00  0.00000000000E+00  0.22984897039E+03  0.22984897039E+03  0.00000000000E+00 0.  1.
         21   -1    0    0  504  502 -0.00000000000E+00 -0.00000000000E+00 -0.21052311567E+02  0.21052311567E+02  0.00000000000E+00 0.  1.
         21    1    1    2  503  502  0.45617275677E+02 -0.27039698338E+02  0.23208047209E+02  0.57885184475E+02  0.00000000000E+00 0.  1.
         21    1    1    2  504  501 -0.45617275677E+02  0.27039698338E+02  0.18558861162E+03  0.19301609748E+03  0.00000000000E+00 0.  1.
</event>
<event>
 4    1  0.1725802E+006  0.2864694E+02  0.7546771E-02  0.1431731E+00
         21   -1    0    0  504  501  0.00000000000E+00  0.00000000000E+00  0.39308776676E+01  0.39308776676E+01  0.00000000000E+00 0. -1.
         21   -1    0    0  503  502 -0.00000000000E+00 -0.00000000000E+00 -0.21013076213E+03  0.21013076213E+03  0.00000000000E+00 0. -1.
         21    1    1    2  503  501 -0.21702207907E+02 -0.18699230290E+02 -0.11171479887E+03  0.11532928218E+03  0.00000000000E+00 0. -1.
         21    1    1    2  504  502  0.21702207907E+02  0.18699230290E+02 -0.94485085592E+02  0.98732357618E+02  0.00000000000E+00 0. -1.
</event>
<event>
 4    1  0.1725802E+006  0.2943119E+02  0.7546771E-02  0.1424605E+00
         21   -1    0    0  503  501  0.00000000000E+00  0.00000000000E+00  0.60895841249E+02  0.60895841249E+02  0.00000000000E+00 0.  1.
         21   -1    0    0  504  502 -0.00000000000E+00 -0.00000000000E+00 -0.18151461321E+02  0.18151461321E+02  0.00000000000E+00 0.  1.
         21    1    1    2  503  502 -0.29393930637E+02 -0.14804583184E+01  0.29879407605E+01  0.29582472938E+02  0.00000000000E+00 0.  1.
         21    1    1    2  504  501  0.29393930637E+02  0.14804583184E+01  0.39756439168E+02  0.49464829631E+02  0.00000000000E+00 0.  1.
</event>
<event>
 4    1  0.1725802E+006  0.2959955E+02  0.7546771E-02  0.1423109E+00
         21   -1    0    0  503  501  0.00000000000E+00  0.00000000000E+00  0.47341040457E+01  0.47341040457E+01  0.00000000000E+00 0.  1.
         21   -1    0    0  504  502 -0.00000000000E+00 -0.00000000000E+00 -0.16656161441E+04  0.16656161441E+04  0.00000000000E+00 0.  1.
         21    1    1    2  503  502  0.29349208781E+02  0.38415345600E+01 -0.43030367167E+02  0.52227827280E+02  0.00000000000E+00 0.  1.
         21    1    1    2  504  501 -0.29349208781E+02 -0.38415345600E+01 -0.16178516729E+04  0.16181224209E+04  0.00000000000E+00 0.  1.
</event>
<event>
 4    1  0.1725802E+006  0.5430732E+02  0.7546771E-02  0.1280505E+00
         21   -1    0    0  504  501  0.00000000000E+00  0.00000000000E+00  0.15320260982E+03  0.15320260982E+03  0.00000000000E+00 0. -1.
         21   -1    0    0  503  502 -0.00000000000E+00 -0.00000000000E+00 -0.10277612551E+04  0.10277612551E+04  0.00000000000E+00 0. -1.
         21    1    1    2  503  501 -0.53181224638E+02 -0.11001927882E+02 -0.10222049884E+04  0.10236465813E+04  0.00000000000E+00 0. -1.
         21    1    1    2  504  502  0.53181224638E+02  0.11001927882E+02  0.14764634315E+03  0.15731728360E+03  0.00000000000E+00 0. -1.
</event>
<event>
 4    1  0.1725802E+006  0.2172966E+02  0.7546771E-02  0.1509097E+00
         21   -1    0    0  502  501  0.00000000000E+00  0.00000000000E+00  0.42038023031E+02  0.42038023031E+02  0.00000000000E+00 0. -1.
         21   -1    0    0  504  502 -0.00000000000E+00 -0.00000000000E+00 -0.19540601638E+02  0.19540601638E+02  0.00000000000E+00 0.  1.
         21    1    1    2  503  501 -0.28894464966E+01 -0.21536695472E+02  0.31325330352E+02  0.38124198019E+02  0.00000000000E+00 0. -1.
         21    1    1    2  504  503  0.28894464966E+01  0.21536695472E+02 -0.88279089582E+01  0.23454426650E+02  0.00000000000E+00 0.  1.
</event>
<event>
 4    1  0.1725802E+006  0.2937770E+02  0.7546771E-02  0.1425082E+00
         21   -1    0    0  502  501  0.00000000000E+00  0.00000000000E+00  0.11160885656E+03  0.11160885656E+03  0.00000000000E+00 0. -1.
         21   -1    0    0  504  502 -0.00000000000E+00 -0.00000000000E+00 -0.29571795933E+02  0.29571795933E+02  0.00000000000E+00 0. -1.
         21    1    1    2  503  501 -0.29339762586E+02  0.14925730578E+01  0.10168135517E+03  0.10584019762E+03  0.00000000000E+00 0. -1.
         21    1    1    2  504  503  0.29339762586E+02 -0.14925730578E+01 -0.19644294540E+02  0.35340454877E+02  0.00000000000E+00 0. -1.
</event>
<event>
 4    1  0.1725802E+006  0.2625720E+02  0.7546771E-02  0.1455216E+00
         21   -1    0    0  503  501  0.00000000000E+00  0.00000000000E+00  0.39647545989E+02  0.39647545989E+02  0.00000000000E+00 0.  1.
         21   -1    0    0  501  502 -0.00000000000E+00 -0.00000000000E+00 -0.37575296907E+03  0.37575296907E+03  0.00000000000E+00 0.  1.
         21    1    1    2  503  504 -0.21482246581E+02  0.15098127834E+02  0.34784603369E+02  0.43582209832E+02  0.00000000000E+00 0.  1.
         21    1    1    2  504  502  0.21482246581E+02 -0.15098127834E+02 -0.37089002645E+03  0.37181830523E+03  0.00000000000E+00 0.  1.
</event>
<event>
 4    1  0.1725802E+006  0.2272662E+02  0.7546771E-02  0.1495960E+00
         21   -1    0    0  503  501  0.00000000000E+00  0.00000000000E+00  0.48294822592E+03  0.48294822592E+03  0.00000000000E+00 0. -1.
         21   -1    0    0  504  502 -0.00000000000E+00 -0.00000000000E+00 -0.10917056991E+01  0.10917056991E+01  0.00000000000E+00 0. -1.
         21    1    1    2  503  502 -0.98843813092E+01  0.20464563838E+02  0.20638931386E+03  0.20763681813E+03  0.00000000000E+00 0. -1.
         21    1    1    2  504  501  0.98843813092E+01 -0.20464563838E+02  0.27546720635E+03  0.27640311348E+03  0.00000000000E+00 0. -1.
</event>
<event>
 4    1  0.1725802E+006  0.4054278E+02  0.7546771E-02  0.1345334E+00
         21   -1    0    0  503  501  0.00000000000E+00  0.00000000000E+00  0.42073687949E+03  0.42073687949E+03  0.00000000000E+00 0. -1.
         21   -1    0    0  504  502 -0.00000000000E+00 -0.00000000000E+00 -0.39086298451E+01  0.39086298451E+01  0.00000000000E+00 0. -1.
         21    1    1    2  503  502  0.33346043501E+01  0.40405413121E+02  0.21306106665E+03  0.21688415138E+03  0.00000000000E+00 0. -1.
         21    1    1    2  504  501 -0.33346043501E+01 -0.40405413121E+02  0.20376718299E+03  0.20776135796E+03  0.00000000000E+00 0. -1.
</event>
<event>
 4    1  0.1725802E+006  0.2327696E+02  0.7546771E-02  0.1489049E+00
         21   -1    0    0  502  501  0.00000000000E+00  0.00000000000E+00  0.17774981876E+02  0.17774981876E+02  0.00000000000E+00 0. -1.
         21   -1    0    0  503  502 -0.00000000000E+00 -0.00000000000E+00 -0.21311921759E+03  0.21311921759E+03  0.00000000000E+00 0. -1.
         21    1    1    2  503  504 -0.23251876377E+02  0.10804215404E+01 -0.20454471343E+03  0.20586489952E+03  0.00000000000E+00 0. -1.
         21    1    1    2  504  501  0.23251876377E+02 -0.10804215404E+01  0.92004777074E+01  0.25029299946E+02  0.00000000000E+00 0. -1.
</event>
<event>
 4    1  0.1725802E+006  0.5023807E+02  0.7546771E-02  0.1297144E+00
         21   -1    0    0  504  501  0.00000000000E+00  0.00000000000E+00  0.76051514334E+01  0.76051514334E+01  0.00000000000E+00 0.  1.
         21   -1    0    0  503  502 -0.00000000000E+00 -0.00000000000E+00 -0.40245896861E+03  0.40245896861E+03  0.00000000000E+00 0.  1.
         21    1    1    2  503  501  0.49268827075E+02  0.98206855974E+01 -0.28329919318E+03  0.28771912701E+03  0.00000000000E+00 0.  1.
         21    1    1    2  504  502 -0.49268827075E+02 -0.98206855974E+01 -0.11155462399E+03  0.12234499303E+03  0.00000000000E+00 0.  1.
</event>
<event>
 4    1  0.1725802E+006  0.2886897E+02  0.7546771E-02  0.1429686E+00
         21   -1    0    0  503  501  0.00000000000E+00  0.00000000000E+00  0.11273930726E+02  0.11273930726E+02  0.00000000000E+00 0. -1.
         21   -1    0    0  504  502 -0.00000000000E+00 -0.00000000000E+00 -0.12193219459E+03  0.12193219459E+03  0.00000000000E+00 0.  1.
         21    1    1    2  503  502 -0.12071134155E+02 -0.26224129124E+02 -0.13537299024E+02  0.31885352326E+02  0.00000000000E+00 0. -1.
         21    1    1    2  504  501  0.12071134155E+02  0.26224129124E+02 -0.97120964842E+02  0.10132077299E+03  0.00000000000E+00 0.  1.
</event>
<event>
 4    1  0.1725802E+006  0.3119770E+02  0.7546771E-02  0.1409466E+00
         21   -1    0    0  504  501  0.00000000000E+00  0.00000000000E+00  0.90759663157E+01  0.90759663157E+01  0.00000000000E+00 0. -1.
         21   -1    0    0  503  502 -0.00000000000E+00 -0.00000000000E+00 -0.47738275034E+03  0.47738275034E+03  0.00000000000E+00 0. -1.
         21    1    1    2  503  501  0.29764232307E+02 -0.93480960914E+01 -0.44832796824E+03  0.44941213104E+03  0.00000000000E+00 0. -1.
         21    1    1    2  504  502 -0.29764232307E+02  0.93480960914E+01 -0.19978815790E+02  0.37046585615E+02  0.00000000000E+00 0. -1.
</event>
<event>
 4    1  0.1725802E+006  0.2154621E+02  0.7546771E-02  0.1511607E+00
         21   -1    0    0  504  501  0.00000000000E+00  0.00000000000E+00  0.12562267982E+03  0.12562267982E+03  0.00000000000E+00 0. -1.
         21   -1    0    0  503  502 -0.00000000000E+00 -0.00000000000E+00 -0.45389965693E+03  0.45389965693E+03  0.00000000000E+00 0. -1.
         21    1    1    2  503  501  0.53643373872E+01 -0.20867752797E+02 -0.45271767512E+03  0.45323010998E+03  0.00000000000E+00 0. -1.
         21    1    1    2  504  502 -0.53643373872E+01  0.20867752797E+02  0.12444069801E+03  0.12629222677E+03  0.00000000000E+00 0. -1.
</event>
<event>
 4    1  0.1725802E+006  0.2299074E+02  0.7546771E-02  0.1492614E+00
         21   -1    0    0  504  501  0.00000000000E+00  0.00000000000E+00  0.43327134716E+02  0.43327134716E+02  0.00000000000E+00 0. -1.
         21   -1    0    0  501  502 -0.00000000000E+00 -0.00000000000E+00 -0.15556879296E+02  0.15556879296E+02  0.00000000000E+00 0. -1.
         21    1    1    2  503  502  0.95255009009E+01 -0.20924598137E+02  0.20785470370E+00  0.22991676280E+02  0.00000000000E+00 0. -1.
         21    1    1    2  504  503 -0.95255009009E+01  0.20924598137E+02  0.27562400716E+02  0.35892337731E+02  0.00000000000E+00 0. -1.
</event>
<event>
 4    1  0.1725802E+006  0.5508838E+02  0.7546771E-02  0.1277500E+00
         21   -1    0    0  503  501  0.00000000000E+00  0.00000000000E+00  0.26586216257E+02  0.26586216257E+02  0.00000000000E+00 0.  1.
         21   -1    0    0  504  502 -0.00000000000E+00 -0.00000000000E+00 -0.12797942467E+03  0.12797942467E+03  0.00000000000E+00 0.  1.
         21    1    1    2  503  502  0.52472479663E+02 -0.16774035870E+02 -0.76104367118E+02  0.93950008493E+02  0.00000000000E+00 0.  1.
         21    1    1    2  504  501 -0.52472479663E+02  0.16774035870E+02 -0.25288841294E+02  0.60615632434E+02  0.00000000000E+00 0.  1.
</event>
<event>
 4    1  0.1725802E+006  0.2389279E+02  0.7546771E-02  0.1481582E+00
         21   -1    0    0  504  501  0.00000000000E+00  0.00000000000E+00  0.51927548439E+03  0.51927548439E+03  0.00000000000E+00 0. -1.
         21   -1    0    0  501  502 -0.00000000000E+00 -0.00000000000E+00 -0.37640874833E+01  0.37640874833E+01  0.00000000000E+00 0. -1.
         21    1    1    2  503  502  0.12711404965E+02  0.20230807788E+02  0.37715549853E+02  0.44646703133E+02  0.00000000000E+00 0. -1.
         21    1    1    2  504  503 -0.12711404965E+02 -0.20230807788E+02  0.47779584705E+03  0.47839286874E+03  0.00000000000E+00 0. -1.
</event>
<event>
 4    1  0.1725802E+006  0.2586628E+02  0.7546771E-02  0.1459341E+00
         21   -1    0    0  504  501  0.00000000000E+00  0.00000000000E+00  0.27184085946E+03  0.27184085946E+03  0.00000000000E+00 0. -1.
         21   -1    0    0  503  502 -0.00000000000E+00 -0.00000000000E+00 -0.34851153903E+01  0.34851153903E+01  0.00000000000E+00 0. -1.
         21    1    1    2  503  501  0.14783366350E+02  0.21225377151E+02  0.20879404552E+03  0.21039015661E+03  0.00000000000E+00 0. -1.
         21    1    1    2  504  502 -0.14783366350E+02 -0.21225377151E+02  0.59561698559E+02  0.64935818244E+02  0.00000000000E+00 0. -1.
</event>
<event>
 4    1  0.1725802E+006  0.2657910E+02  0.7546771E-02  0.1451883E+00
         21   -1    0    0  504  501  0.00000000000E+00  0.00000000000E+00  0.86472965427E+02  0.86472965427E+02  0.00000000000E+00 0. -1.
         21   -1    0    0  503  502 -0.00000000000E+00 -0.00000000000E+00 -0.92195606930E+01  0.92195606930E+01  0.00000000000E+00 0. -1.
         21    1    1    2  503  501 -0.25853042577E+02 -0.61699737561E+01  0.22480061538E+02  0.34810940140E+02  0.00000000000E+00 0. -1.
         21    1    1    2  504  502  0.25853042577E+02  0.61699737561E+01  0.54773343196E+02  0.60881585980E+02  0.00000000000E+00 0. -1.
</event>
<event>
 4    1  0.1725802E+006  0.2141988E+02  0.7546771E-02  0.1513354E+00
         21   -1    0    0  504  501  0.00000000000E+00  0.00000000000E+00  0.21263009572E+03  0.21263009572E+03  0.00000000000E+00 0. -1.
         21   -1    0    0  503  502 -0.00000000000E+00 -0.00000000000E+00 -0.30453347830E+02  0.30453347830E+02  0.00000000000E+00 0. -1.
         21    1    1    2  503  501  0.67665184986E+01 -0.20323032590E+02 -0.26068285794E+02  0.33739693989E+02  0.00000000000E+00 0. -1.
         21    1    1    2  504  502 -0.67665184986E+01  0.20323032590E+02  0.20824503368E+03  0.20934374956E+03  0.00000000000E+00 0. -1.
</event>
<event>
 4    1  0.1725802E+006  0.2070276E+02  0.7546771E-02  0.1523551E+00
         21   -1    0    0  504  501  0.00000000000E+00  0.00000000000E+00  0.76922290686E+02  0.76922290686E+02  0.00000000000E+00 0.  1.
         21   -1    0    0  503  502 -0.00000000000E+00 -0.00000000000E+00 -0.52411903371E+02  0.52411903371E+02  0.00000000000E+00 0.  1.
         21    1    1    2  503  501 -0.15303740977E+02 -0.13942726588E+02  0.73388348722E+02  0.76252566125E+02  0.00000000000E+00 0.  1.
         21    1    1    2  504  502  0.15303740977E+02  0.13942726588E+02 -0.48877961406E+02  0.53081627931E+02  0.00000000000E+00 0.  1.
</event>
<event>
 4    1  0.1725802E+006  0.4346944E+02  0.7546771E-02  0.1329272E+00
         21   -1    0    0  504  501  0.00000000000E+00  0.00000000000E+00  0.17231941951E+03  0.17231941951E+03  0.00000000000E+00 0.  1.
         21   -1    0    0  503  502 -0.00000000000E+00 -0.00000000000E+00 -0.11772447582E+02  0.11772447582E+02  0.00000000000E+00 0.  1.
         21    1    1    2  503  501  0.41409082430E+02  0.13224232416E+02  0.10437013545E+03  0.11306068107E+03  0.00000000000E+00 0.  1.
         21    1    1    2  504  502 -0.41409082430E+02 -0.13224232416E+02  0.56176836480E+02  0.71031186021E+02  0.00000000000E+00 0.  1.
</event>
<event>
 4    1  0.1725802E+006  0.3258872E+02  0.7546771E-02  0.1398357E+00
         21   -1    0    0  503  501  0.00000000000E+00  0.00000000000E+00  0.43202545063E+03  0.43202545063E+03  0.00000000000E+00 0. -1.
         21   -1    0    0  504  502 -0.00000000000E+00 -0.00000000000E+00 -0.67133339535E+02  0.67133339535E+02  0.00000000000E+00 0. -1.
         21    1    1    2  503  502  0.50369199768E+01 -0.32197110999E+02  0.42741336777E+03  0.42865395306E+03  0.00000000000E+00 0. -1.
         21    1    1    2  504  501 -0.50369199768E+01  0.32197110999E+02 -0.62521256677E+02  0.70504837111E+02  0.00000000000E+00 0. -1.
</event>
<event>
 4    1  0.1725802E+006  0.2698928E+02  0.7546771E-02  0.1447716E+00
         21   -1    0    0  503  501  0.00000000000E+00  0.00000000000E+00  0.80111661555E+01  0.80111661555E+01  0.00000000000E+00 0.  1.
         21   -1    0    0  501  502 -0.00000000000E+00 -0.00000000000E+00 -0.20667678986E+03  0.20667678986E+03  0.00000000000E+00 0.  1.
         21    1    1    2  503  504 -0.91051417211E+01 -0.25407036391E+02 -0.18999748870E+02  0.33006235185E+02  0.00000000000E+00 0.  1.
         21    1    1    2  504  502  0.91051417211E+01  0.25407036391E+02 -0.17966587483E+03  0.18168172083E+03  0.00000000000E+00 0.  1.
</event>
<event>
 4    1  0.1725802E+006  0.2312541E+02  0.7546771E-02  0.1490929E+00
         21   -1    0    0  504  501  0.00000000000E+00  0.00000000000E+00  0.13698541151E+03  0.13698541151E+03  0.00000000000E+00 0. -1.
         21   -1    0    0  503  502 -0.00000000000E+00 -0.00000000000E+00 -0.42638284801E+02  0.42638284801E+02  0.00000000000E+00 0.  1.
         21    1    1    2  503  501 -0.15088784113E+02 -0.17524642632E+02 -0.38428022165E+02  0.44849720099E+02  0.00000000000E+00 0.  1.
         21    1    1    2  504  502  0.15088784113E+02  0.17524642632E+02  0.13277514887E+03  0.13477397621E+03  0.00000000000E+00 0. -1.
</event>
<event>
 4    1  0.1725802E+006  0.2630512E+02  0.7546771E-02  0.1454716E+00
         21   -1    0    0  504  501  0.00000000000E+00  0.00000000000E+00  0.57234209237E+02  0.57234209237E+02  0.00000000000E+00 0. -1.
         21   -1    0    0  503  502 -0.00000000000E+00 -0.00000000000E+00 -0.33804611874E+02  0.33804611874E+02  0.00000000000E+00 0. -1.
         21    1    1    2  503  501 -0.21904527133E+02 -0.14565412600E+02 -0.24767739366E+02  0.36130326132E+02  0.00000000000E+00 0. -1.
         21    1    1    2  504  502  0.21904527133E+02  0.14565412600E+02  0.48197336729E+02  0.54908494979E+02  0.00000000000E+00 0. -1.
</event>
<event>
 4    1  0.1725802E+006  0.2111027E+02  0.7546771E-02  0.1517696E+00
         21   -1    0    0  503  501  0.00000000000E+00  0.00000000000E+00  0.18576908167E+03  0.18576908167E+03  0.00000000000E+00 0.  1.
         21   -1    0    0  504  502 -0.00000000000E+00 -0.00000000000E+00 -0.44580609876E+01  0.44580609876E+01  0.00000000000E+00 0. -1.
         21    1    1    2  503  502 -0.15264175765E+02  0.14582468485E+02  0.26013701252E+02  0.33501583571E+02  0.00000000000E+00 0. -1.
         21    1    1    2  504  501  0.15264175765E+02 -0.14582468485E+02  0.15529731943E+03  0.15672555909E+03  0.00000000000E+00 0.  1.
</event>
<event>
 4    1  0.1725802E+006  0.3261376E+02  0.7546771E-02  0.1398163E+00
         21   -1    0    0  504  501  0.00000000000E+00  0.00000000000E+00  0.16106092142E+03  0.16106092142E+03  0.00000000000E+00 0.  1.
         21   -1    0    0  501  502 -0.00000000000E+00 -0.00000000000E+00 -0.20098799704E+02  0.20098799704E+02  0.00000000000E+00 0.  1.
         21    1    1    2  503  502  0.32516310022E+02 -0.25192952422E+01 -0.37402661875E+01  0.32827531998E+02  0.00000000000E+00 0.  1.
         21    1    1    2  504  503 -0.32516310022E+02  0.25192952422E+01  0.14470238790E+03  0.14833218912E+03  0.00000000000E+00 0.  1.
</event>
<event>
 4    1  0.1725802E+006  0.2551589E+02  0.7546771E-02  0.1463114E+00
         21   -1    0    0  504  501  0.00000000000E+00  0.00000000000E+00  0.71827640564E+02  0.71827640564E+02  0.00000000000E+00 0.  1.
         21   -1    0    0  503  502 -0.00000000000E+00 -0.00000000000E+00 -0.90821317319E+01  0.90821317319E+01  0.00000000000E+00 0.  1.
         21    1    1    2  503  501 -0.14101396473E+01 -0.25476897842E+02  0.29575675545E+02  0.39061251918E+02  0.00000000000E+00 0.  1.
         21    1    1    2  504  502  0.14101396473E+01  0.25476897842E+02  0.33169833288E+02  0.41848520378E+02  0.00000000000E+00 0.  1.
</event>
<event>
 4    1  0.1725802E+006  0.2724471E+02  0.7546771E-02  0.1445165E+00
         21   -1    0    0  504  501  0.00000000000E+00  0.00000000000E+00  0.12569021465E+02  0.12569021465E+02  0.00000000000E+00 0.  1.
         21   -1    0    0  501  502 -0.00000000000E+00 -0.00000000000E+00 -0.93690941440E+03  0.93690941440E+03  0.00000000000E+00 0. -1.
         21    1    1    2  503  502 -0.30523856924E+01  0.27073176979E+02 -0.92170388214E+03  0.92210645823E+03  0.00000000000E+00 0. -1.
         21    1    1    2  504  503  0.30523856924E+01 -0.27073176979E+02 -0.26365107974E+01  0.27371977630E+02  0.00000000000E+00 0.  1.
</event>
<event>
 4    1  0.1725802E+006  0.2028862E+02  0.7546771E-02  0.1529668E+00
         21   -1    0    0  503  501  0.00000000000E+00  0.00000000000E+00  0.32424808449E+02  0.32424808449E+02  0.00000000000E+00 0. -1.
         21   -1    0    0  504  502 -0.00000000000E+00 -0.00000000000E+00 -0.23267545232E+02  0.23267545232E+02  0.00000000000E+00 0.  1.
         21    1    1    2  503  502  0.16072642282E+02  0.12381364476E+02 -0.14192186021E+02  0.24759768986E+02  0.00000000000E+00 0.  1.
         21    1    1    2  504  501 -0.16072642282E+02 -0.12381364476E+02  0.23349449238E+02  0.30932584695E+02  0.00000000000E+00 0. -1.
</event>
<event>
 4    1  0.1725802E+006  0.2238410E+02  0.7546771E-02  0.1500380E+00
         21   -1    0    0  503  501  0.00000000000E+00  0.00000000000E+00  0.13668926633E+02  0.13668926633E+02  0.00000000000E+00 0. -1.
         21   -1    0    0  501  502 -0.00000000000E+00 -0.00000000000E+00 -0.42102192185E+03  0.42102192185E+03  0.00000000000E+00 0. -1.
         21    1    1    2  503  504 -0.13841772118E+02  0.17591281891E+02  0.39919889889E+01  0.22737278422E+02  0.00000000000E+00 0. -1.
         21    1    1    2  504  502  0.13841772118E+02 -0.17591281891E+02 -0.41134498421E+03  0.41195357006E+03  0.00000000000E+00 0. -1.
</event>
<event>
 4    1  0.1725802E+006  0.2298501E+02  0.7546771E-02  0.1492686E+00
         21   -1    0    0  503  501  0.00000000000E+00  0.00000000000E+00  0.21609929786E+03  0.21609929786E+03  0.00000000000E+00 0.  1.
         21   -1    0    0  504  502 -0.00000000000E+00 -0.00000000000E+00 -0.26383054205E+01  0.26383054205E+01  0.00000000000E+00 0.  1.
         21    1    1    2  503  502  0.21269944207E+02 -0.87120682761E+01  0.13635313306E+03  0.13827685112E+03  0.00000000000E+00 0.  1.
         21    1    1    2  504  501 -0.21269944207E+02  0.87120682761E+01  0.77107859373E+02  0.80460752155E+02  0.00000000000E+00 0.  1.
</event>
<event>
 4    1  0.1725802E+006  0.2072687E+02  0.7546771E-02  0.1523200E+00
         21   -1    0    0  504  501  0.00000000000E+00  0.00000000000E+00  0.53416381267E+02  0.53416381267E+02  0.00000000000E+00 0. -1.
         21   -1    0    0  503  502 -0.00000000000E+00 -0.00000000000E+00 -0.16552938426E+03  0.16552938426E+03  0.00000000000E+00 0. -1.
         21    1    1    2  503  501  0.20703130180E+02  0.99182842107E+00 -0.16283680395E+03  0.16415062608E+03  0.00000000000E+00 0. -1.
         21    1    1    2  504  502 -0.20703130180E+02 -0.99182842107E+00  0.50723800958E+02  0.54795139442E+02  0.00000000000E+00 0. -1.
</event>
<event>
 4    1  0.1725802E+006  0.2468800E+02  0.7546771E-02  0.1472324E+00
         21   -1    0    0  504  501  0.00000000000E+00  0.00000000000E+00  0.46124970053E+01  0.46124970053E+01  0.00000000000E+00 0. -1.
         21   -1    0    0  501  502 -0.00000000000E+00 -0.00000000000E+00 -0.96729647182E+03  0.96729647182E+03  0.00000000000E+00 0. -1.
         21    1    1    2  503  502  0.23415970086E+02 -0.78223723851E+01 -0.93288550899E+03  0.93321212490E+03  0.00000000000E+00 0. -1.
         21    1    1    2  504  503 -0.23415970086E+02  0.78223723851E+01 -0.29798465828E+02  0.38696843935E+02  0.00000000000E+00 0. -1.
</event>
<event>
 4    1  0.1725802E+006  0.2466019E+02  0.7546771E-02  0.1472641E+00
         21   -1    0    0  503  501  0.00000000000E+00  0.00000000000E+00  0.61330838513E+02  0.61330838513E+02  0.00000000000E+00 0.  1.
         21   -1    0    0  504  502 -0.00000000000E+00 -0.00000000000E+00 -0.20793133772E+02  0.20793133772E+02  0.00000000000E+00 0.  1.
         21    1    1    2  503  502 -0.23069237260E+02 -0.87140907844E+01  0.49968238259E+02  0.55722077497E+02  0.00000000000E+00 0.  1.
         21    1    1    2  504  501  0.23069237260E+02  0.87140907844E+01 -0.94305335183E+01  0.26401894788E+02  0.00000000000E+00 0.  1.
</event>
<event>
 4    1  0.1725802E+006  0.2928442E+02  0.7546771E-02  0.1425918E+00
         21   -1    0    0  502  501  0.00000000000E+00  0.00000000000E+00  0.56868521508E+02  0.56868521508E+02  0.00000000000E+00 0.  1.
         21   -1    0    0  504  502 -0.00000000000E+00 -0.00000000000E+00 -0.20659880354E+03  0.20659880354E+03  0.00000000000E+00 0.  1.
         21    1    1    2  503  501  0.35056325568E+00 -0.29282325064E+02  0.51969701022E+02  0.59652554682E+02  0.00000000000E+00 0.  1.
         21    1    1    2  504  503 -0.35056325568E+00  0.29282325064E+02 -0.20169998305E+03  0.20381477036E+03  0.00000000000E+00 0.  1.
</event>
<event>
 4    1  0.1725802E+006  0.2969307E+02  0.7546771E-02  0.1422283E+00
         21   -1    0    0  502  501  0.00000000000E+00  0.00000000000E+00  0.23829638254E+03  0.23829638254E+03  0.00000000000E+00 0. -1.
         21   -1    0    0  503  502 -0.00000000000E+00 -0.00000000000E+00 -0.41046981835E+01  0.41046981835E+01  0.00000000000E+00 0. -1.
         21    1    1    2  503  504  0.14124582893E+01  0.29659456270E+02  0.79035681719E+02  0.84429363194E+02  0.00000000000E+00 0. -1.
         21    1    1    2  504  501 -0.14124582893E+01 -0.29659456270E+02  0.15515600264E+03  0.15797171753E+03  0.00000000000E+00 0. -1.
</event>
<event>
 4    1  0.1725802E+006  0.2292769E+02  0.7546771E-02  0.1493408E+00
         21   -1    0    0  504  501  0.00000000000E+00  0.00000000000E+00  0.42297690719E+02  0.42297690719E+02  0.00000000000E+00 0.  1.
         21   -1    0    0  501  502 -0.00000000000E+00 -0.00000000000E+00 -0.51889483748E+02  0.51889483748E+02  0.00000000000E+00 0.  1.
         21    1    1    2  503  502  0.20501440760E+02  0.10264981521E+02 -0.45864353375E+02  0.51275899108E+02  0.00000000000E+00 0.  1.
         21    1    1    2  504  503 -0.20501440760E+02 -0.10264981521E+02  0.36272560346E+02  0.42911275359E+02  0.00000000000E+00 0.  1.
</event>
<event>
 4    1  0.1725802E+006  0.2819270E+02  0.7546771E-02  0.1435982E+00
         21   -1    0    0  504  501  0.00000000000E+00  0.00000000000E+00  0.10108655489E+03  0.10108655489E+03  0.00000000000E+00 0.  1.
         21   -1    0    0  501  502 -0.00000000000E+00 -0.00000000000E+00 -0.81275378686E+01  0.81275378686E+01  0.00000000000E+00 0.  1.
         21    1    1    2  503  502 -0.20471191071E+02  0.19384497092E+02  0.36624967038E+02  0.46219223294E+02  0.00000000000E+00 0.  1.
         21    1    1    2  504  503  0.20471191071E+02 -0.19384497092E+02  0.56334049986E+02  0.62994869467E+02  0.00000000000E+00 0.  1.
</event>
<event>
 4    1  0.1725802E+006  0.2436638E+02  0.7546771E-02  0.1476018E+00
         21   -1    0    0  502  501  0.00000000000E+00  0.00000000000E+00  0.24194065740E+01  0.24194065740E+01  0.00000000000E+00 0.  1.
         21   -1    0    0  503  502 -0.00000000000E+00 -0.00000000000E+00 -0.66947617021E+03  0.66947617021E+03  0.00000000000E+00 0. -1.
         21    1    1    2  503  504  0.51572412778E+01 -0.23814351918E+02 -0.60090692765E+03  0.60140074508E+03  0.00000000000E+00 0. -1.
         21    1    1    2  504  501 -0.51572412778E+01  0.23814351918E+02 -0.66149835991E+02  0.70494831700E+02  0.00000000000E+00 0.  1.
</event>
<event>
 4    1  0.1725802E+006  0.4117031E+02  0.7546771E-02  0.1341761E+00
         21   -1    0    0  503  501  0.00000000000E+00  0.00000000000E+00  0.18322667139E+04  0.18322667139E+04  0.00000000000E+00 0. -1.
         21   -1    0    0  501  502 -0.00000000000E+00 -0.00000000000E+00 -0.92508273444E+00  0.92508273444E+00  0.00000000000E+00 0. -1.
         21    1    1    2  503  504 -0.29059345724E+02 -0.29164168777E+02  0.91707670620E+03  0.91800037003E+03  0.00000000000E+00 0. -1.
         21    1    1    2  504  502  0.29059345724E+02  0.29164168777E+02  0.91426492501E+03  0.91519142665E+03  0.00000000000E+00 0. -1.
</event>
<event>
 4    1  0.1725802E+006  0.3014080E+02  0.7546771E-02  0.1418377E+00
         21   -1    0    0  504  501  0.00000000000E+00  0.00000000000E+00  0.15877892705E+04  0.15877892705E+04  0.00000000000E+00 0.  1.
         21   -1    0    0  503  502 -0.00000000000E+00 -0.00000000000E+00 -0.87971193158E+01  0.87971193158E+01  0.00000000000E+00 0. -1.
         21    1    1    2  503  501 -0.30135005614E+02 -0.59121161635E+00  0.15613926057E+04  0.15616834946E+04  0.00000000000E+00 0.  1.
         21    1    1    2  504  502  0.30135005614E+02  0.59121161635E+00  0.17599545473E+02  0.34902895229E+02  0.00000000000E+00 0. -1.
</event>
<event>
 4    1  0.1725802E+006  0.2777780E+02  0.7546771E-02  0.1439948E+00
         21   -1    0    0  504  501  0.00000000000E+00  0.00000000000E+00  0.22535660854E+02  0.22535660854E+02  0.00000000000E+00 0.  1.
         21   -1    0    0  503  502 -0.00000000000E+00 -0.00000000000E+00 -0.15227350161E+03  0.15227350161E+03  0.00000000000E+00 0. -1.
         21    1    1    2  503  501  0.85356162934E+01 -0.26433872872E+02 -0.14182197618E+03  0.14451670944E+03  0.00000000000E+00 0. -1.
         21    1    1    2  504  502 -0.85356162934E+01  0.26433872872E+02  0.12084135432E+02  0.30292453014E+02  0.00000000000E+00 0.  1.
</event>
<event>
 4    1  0.1725802E+006  0.3190894E+02  0.7546771E-02  0.1403702E+00
         21   -1    0    0  503  501  0.00000000000E+00  0.00000000000E+00  0.30181670858E+02  0.30181670858E+02  0.00000000000E+00 0.  1.
         21   -1    0    0  504  502 -0.00000000000E+00 -0.00000000000E+00 -0.10864788575E+03  0.10864788575E+03  0.00000000000E+00 0. -1.
         21    1    1    2  503  502  0.30854044100E+02  0.81368582789E+01  0.18406284226E+02  0.36837098135E+02  0.00000000000E+00 0.  1.
         21    1    1    2  504  501 -0.30854044100E+02 -0.81368582789E+01 -0.96872499116E+02  0.10199245847E+03  0.00000000000E+00 0. -1.
</event>
<event>
 4    1  0.1725802E+006  0.2038158E+02  0.7546771E-02  0.1528280E+00
         21   -1    0    0  502  501  0.00000000000E+00  0.00000000000E+00  0.84534292011E+01  0.84534292011E+01  0.00000000000E+00 0.  1.
         21   -1    0    0  503  502 -0.00000000000E+00 -0.00000000000E+00 -0.68184237073E+02  0.68184237073E+02  0.00000000000E+00 0.  1.
         21    1    1    2  503  504 -0.52425576833E+01  0.19695793719E+02 -0.50116212762E+02  0.54102157840E+02  0.00000000000E+00 0.  1.
         21    1    1    2  504  501  0.52425576833E+01 -0.19695793719E+02 -0.96145951101E+01  0.22535508435E+02  0.00000000000E+00 0.  1.
</event>
<event>
 4    1  0.1725802E+006  0.2044306E+02  0.7546771E-02  0.1527367E+00
         21   -1    0    0  503  501  0.00000000000E+00  0.00000000000E+00  0.26011878687E+02  0.26011878687E+02  0.00000000000E+00 0. -1.
         21   -1    0    0  504  502 -0.00000000000E+00 -0.00000000000E+00 -0.23815464984E+02  0.23815464984E+02  0.00000000000E+00 0. -1.
         21    1    1    2  503  502  0.12538008068E+02 -0.16146739999E+02 -0.13113005295E+02  0.24287234647E+02  0.00000000000E+00 0. -1.
         21    1    1    2  504  501 -0.12538008068E+02  0.16146739999E+02  0.15309418999E+02  0.25540109025E+02  0.00000000000E+00 0. -1.
</event>
<event>
 4    1  0.1725802E+006  0.2076565E+02  0.7546771E-02  0.1522637E+00
         21   -1    0    0  503  501  0.00000000000E+00  0.00000000000E+00  0.31873046442E+03  0.31873046442E+03  0.00000000000E+00 0.  1.
         21   -1    0    0  504  502 -0.00000000000E+00 -0.00000000000E+00 -0.21809564173E+01  0.21809564173E+01  0.00000000000E+00 0. -1.
         21    1    1    2  503  502 -0.12245584253E+02 -0.16770739387E+02  0.59405708532E+02  0.62930519142E+02  0.00000000000E+00 0. -1.
         21    1    1    2  504  501  0.12245584253E+02  0.16770739387E+02  0.25714379947E+03  0.25798090169E+03  0.00000000000E+00 0.  1.
</event>
<event>
 4    1  0.1725802E+006  0.2519470E+02  0.7546771E-02  0.1466637E+00
         21   -1    0    0  503  501  0.00000000000E+00  0.00000000000E+00  0.26023712981E+03  0.26023712981E+03  0.00000000000E+00 0. -1.
         21   -1    0    0  504  502 -0.00000000000E+00 -0.00000000000E+00 -0.14489288840E+03  0.14489288840E+03  0.00000000000E+00 0.  1.
         21    1    1    2  503  502  0.67439885861E+01 -0.24275322493E+02 -0.14318060457E+03  0.14538039135E+03  0.00000000000E+00 0.  1.
         21    1    1    2  504  501 -0.67439885861E+01  0.24275322493E+02  0.25852484598E+03  0.25974962686E+03  0.00000000000E+00 0. -1.
</event>
<event>
 4    1  0.1725802E+006  0.2064256E+02  0.7546771E-02  0.1524430E+00
         21   -1    0    0  503  501  0.00000000000E+00  0.00000000000E+00  0.66133689508E+02  0.66133689508E+02  0.00000000000E+00 0.  1.
         21   -1    0    0  501  502 -0.00000000000E+00 -0.00000000000E+00 -0.16465213198E+02  0.16465213198E+02  0.00000000000E+00 0.  1.
         21    1    1    2  503  504 -0.38462160097E+01 -0.20281073446E+02  0.57055103054E+02  0.60674542456E+02  0.00000000000E+00 0.  1.
         21    1    1    2  504  502  0.38462160097E+01  0.20281073446E+02 -0.73866267437E+01  0.21924360250E+02  0.00000000000E+00 0.  1.
</event>
<event>
 4    1  0.1725802E+006  0.4945271E+02  0.7546771E-02  0.1300563E+00
         21   -1    0    0  504  501  0.00000000000E+00  0.00000000000E+00  0.12462480287E+04  0.12462480287E+04  0.00000000000E+00 0. -1.
         21   -1    0    0  503  502 -0.00000000000E+00 -0.00000000000E+00 -0.13373885118E+03  0.13373885118E+03  0.00000000000E+00 0.  1.
         21    1    1    2  503  501  0.46855799782E+02  0.15814687643E+02 -0.12865801744E+03  0.13783488589E+03  0.00000000000E+00 0.  1.
         21    1    1    2  504  502 -0.46855799782E+02 -0.15814687643E+02  0.12411671949E+04  0.12421519939E+04  0.00000000000E+00 0. -1.
</event>
<event>
 4    1  0.1725802E+006  0.2978818E+02  0.7546771E-02  0.1421446E+00
         21   -1    0    0  502  501  0.00000000000E+00  0.00000000000E+00  0.38067939055E+03  0.38067939055E+03  0.00000000000E+00 0.  1.
         21   -1    0    0  503  502 -0.00000000000E+00 -0.00000000000E+00 -0.25189013470E+01  0.25189013470E+01  0.00000000000E+00 0. -1.
         21    1    1    2  503  504 -0.29326928264E+02  0.52217613924E+01  0.13673968479E+03  0.13994669310E+03  0.00000000000E+00 0.  1.
         21    1    1    2  504  501  0.29326928264E+02 -0.52217613924E+01  0.24142080441E+03  0.24325159879E+03  0.00000000000E+00 0. -1.
</event>
<event>
 4    1  0.1725802E+006  0.2320270E+02  0.7546771E-02  0.1489968E+00
         21   -1    0    0  503  501  0.00000000000E+00  0.00000000000E+00  0.17346795613E+01  0.17346795613E+01  0.00000000000E+00 0. -1.
         21   -1    0    0  504  502 -0.00000000000E+00 -0.00000000000E+00 -0.85027521670E+03  0.85027521670E+03  0.00000000000E+00 0. -1.
         21    1    1    2  503  502 -0.23910903692E+01  0.23079170411E+02 -0.84801423711E+02  0.87918410378E+02  0.00000000000E+00 0. -1.
         21    1    1    2  504  501  0.23910903692E+01 -0.23079170411E+02 -0.76373911343E+03  0.76409148589E+03  0.00000000000E+00 0. -1.
</event>
<event>
 4    1  0.1725802E+006  0.2185408E+02  0.7546771E-02  0.1507412E+00
         21   -1    0    0  503  501  0.00000000000E+00  0.00000000000E+00  0.31702178581E+02  0.31702178581E+02  0.00000000000E+00 0.  1.
         21   -1    0    0  504  502 -0.00000000000E+00 -0.00000000000E+00 -0.17438688412E+02  0.17438688412E+02  0.00000000000E+00 0. -1.
         21    1    1    2  503  502  0.99261659803E+01 -0.19469776965E+02  0.16196282433E+02  0.27201480673E+02  0.00000000000E+00 0.  1.
         21    1    1    2  504  501 -0.99261659803E+01  0.19469776965E+02 -0.19327922648E+01  0.21939386320E+02  0.00000000000E+00 0. -1.
</event>
<event>
 4    1  0.1725802E+006  0.3255880E+02  0.7546771E-02  0.1398589E+00
         21   -1    0    0  504  501  0.00000000000E+00  0.00000000000E+00  0.10447828289E+03  0.10447828289E+03  0.00000000000E+00 0.  1.
         21   -1    0    0  503  502 -0.00000000000E+00 -0.00000000000E+00 -0.49358716326E+02  0.49358716326E+02  0.00000000000E+00 0.  1.
         21    1    1    2  503  501  0.29327574315E+02 -0.14141023953E+02 -0.40998557479E+02  0.52354148728E+02  0.00000000000E+00 0.  1.
         21    1    1    2  504  502 -0.29327574315E+02  0.14141023953E+02  0.96118124043E+02  0.10148285049E+03  0.00000000000E+00 0.  1.
</event>
<event>
 4    1  0.1725802E+006  0.2514978E+02  0.7546771E-02  0.1467135E+00
         21   -1    0    0  504  501  0.00000000000E+00  0.00000000000E+00  0.39874277037E+02  0.39874277037E+02  0.00000000000E+00 0. -1.
         21   -1    0    0  501  502 -0.00000000000E+00 -0.00000000000E+00 -0.83057219562E+02  0.83057219562E+02  0.00000000000E+00 0. -1.
         21    1    1    2  503  502  0.24831375149E+02 -0.39892725875E+01 -0.76877014883E+02  0.80886259061E+02  0.00000000000E+00 0. -1.
         21    1    1    2  504  503 -0.24831375149E+02  0.39892725875E+01  0.33694072358E+02  0.42045237538E+02  0.00000000000E+00 0. -1.
</event>
<event>
 4    1  0.1725802E+006  0.3501561E+02  0.7546771E-02  0.1380453E+00
         21   -1    0    0  504  501  0.00000000000E+00  0.00000000000E+00  0.58013356655E+01  0.58013356655E+01  0.00000000000E+00 0.  1.
         21   -1    0    0  503  502 -0.00000000000E+00 -0.00000000000E+00 -0.63705499492E+03  0.63705499492E+03  0.00000000000E+00 0.  1.
         21    1    1    2  503  501  0.25325125799E+02  0.24181216250E+02 -0.57838214908E+03  0.57944111314E+03  0.00000000000E+00 0.  1.
         21    1    1    2  504  502 -0.25325125799E+02 -0.24181216250E+02 -0.52871510169E+02  0.63415217445E+02  0.00000000000E+00 0.  1.
</event>
<event>
 4    1  0.1725802E+006  0.2069046E+02  0.7546771E-02  0.1523731E+00
         21   -1    0    0  504  501  0.00000000000E+00  0.00000000000E+00  0.12280852207E+03  0.12280852207E+03  0.00000000000E+00 0. -1.
         21   -1    0    0  501  502 -0.00000000000E+00 -0.00000000000E+00 -0.53024781527E+03  0.53024781527E+03  0.00000000000E+00 0. -1.
         21    1    1    2  503  502  0.66640943291E+01 -0.19587876843E+02 -0.52917273961E+03  0.52957707977E+03  0.00000000000E+00 0. -1.
         21    1    1    2  504  503 -0.66640943291E+01  0.19587876843E+02  0.12173344642E+03  0.12347925757E+03  0.00000000000E+00 0. -1.
</event>
<event>
 4    1  0.1725802E+006  0.2702409E+02  0.7546771E-02  0.1447366E+00
         21   -1    0    0  503  501  0.00000000000E+00  0.00000000000E+00  0.16499814081E+03  0.16499814081E+03  0.00000000000E+00 0. -1.
         21   -1    0    0  504  502 -0.00000000000E+00 -0.00000000000E+00 -0.13043030422E+02  0.13043030422E+02  0.00000000000E+00 0.  1.
         21    1    1    2  503  502  0.26537023787E+02  0.51076430506E+01  0.36211519378E+01  0.27265626535E+02  0.00000000000E+00 0.  1.
         21    1    1    2  504  501 -0.26537023787E+02 -0.51076430506E+01  0.14833395845E+03  0.15077554470E+03  0.00000000000E+00 0. -1.
</event>
<event>
 4    1  0.1725802E+006  0.2154171E+02  0.7546771E-02  0.1511669E+00
         21   -1    0    0  503  501  0.00000000000E+00  0.00000000000E+00  0.54237368691E+02  0.54237368691E+02  0.00000000000E+00 0.  1.
         21   -1    0    0  501  502 -0.00000000000E+00 -0.00000000000E+00 -0.24626350971E+02  0.24626350971E+02  0.00000000000E+00 0.  1.
         21    1    1    2  503  504  0.18084754479E+02  0.11704134120E+02  0.46659390202E+02  0.51392059640E+02  0.00000000000E+00 0.  1.
         21    1    1    2  504  502 -0.18084754479E+02 -0.11704134120E+02 -0.17048372482E+02  0.27471660021E+02  0.00000000000E+00 0.  1.
</event>
<event>
 4    1  0.1725802E+006  0.3028107E+02  0.7546771E-02  0.1417169E+00
         21   -1    0    0  504  501  0.00000000000E+00  0.00000000000E+00  0.26606773021E+02  0.26606773021E+02  0.00000000000E+00 0.  1.
         21   -1    0    0  503  502 -0.00000000000E+00 -0.00000000000E+00 -0.89397698765E+02  0.89397698765E+02  0.00000000000E+00 0.  1.
         21    1    1    2  503  501  0.35420126991E+01 -0.30073202240E+02  0.14072532959E+02  0.33391309211E+02  0.00000000000E+00 0.  1.
         21    1    1    2  504  502 -0.35420126991E+01  0.30073202240E+02 -0.76863458703E+02  0.82613162575E+02  0.00000000000E+00 0.  1.
</event>
<event>
 4    1  0.1725802E+006  0.2336684E+02  0.7546771E-02  0.1487942E+00
         21   -1    0    0  504  501  0.00000000000E+00  0.00000000000E+00  0.64682100118E+03  0.64682100118E+03  0.00000000000E+00 0. -1.
         21   -1    0    0  503  502 -0.00000000000E+00 -0.00000000000E+00 -0.80752507624E+01  0.80752507624E+01  0.00000000000E+00 0. -1.
         21    1    1    2  503  501 -0.19146638000E+02  0.13394604404E+02  0.62923388284E+03  0.62966760159E+03  0.00000000000E+00 0. -1.
         21    1    1    2  504  502  0.19146638000E+02 -0.13394604404E+02  0.95118675728E+01  0.25228650351E+02  0.00000000000E+00 0. -1.
</event>
<event>
 4    1  0.1725802E+006  0.2631120E+02  0.7546771E-02  0.1454653E+00
         21   -1    0    0  502  501  0.00000000000E+00  0.00000000000E+00  0.12118386639E+03  0.12118386639E+03  0.00000000000E+00 0.  1.
         21   -1    0    0  504  502 -0.00000000000E+00 -0.00000000000E+00 -0.21692761350E+02  0.21692761350E+02  0.00000000000E+00 0.  1.
         21    1    1    2  503  501 -0.11420421457E+02  0.23703444437E+02  0.11106014818E+03  0.11413428853E+03  0.00000000000E+00 0.  1.
         21    1    1    2  504  503  0.11420421457E+02 -0.23703444437E+02 -0.11569043136E+02  0.28742339214E+02  0.00000000000E+00 0.  1.
</event>
<event>
 4    1  0.1725802E+006  0.3670112E+02  0.7546771E-02  0.1368983E+00
         21   -1    0    0  503  501  0.00000000000E+00  0.00000000000E+00  0.43697980314E+03  0.43697980314E+03  0.00000000000E+00 0.  1.
         21   -1    0    0  504  502 -0.00000000000E+00 -0.00000000000E+00 -0.19380902323E+02  0.19380902323E+02  0.00000000000E+00 0. -1.
         21    1    1    2  503  502  0.25835446685E+01  0.36610069655E+02 -0.45000047063E+00  0.36703874504E+02  0.00000000000E+00 0. -1.
         21    1    1    2  504  501 -0.25835446685E+01 -0.36610069655E+02  0.41804890129E+03  0.41965683096E+03  0.00000000000E+00 0.  1.
</event>
<event>
 4    1  0.1725802E+006  0.2900659E+02  0.7546771E-02  0.1428430E+00
         21   -1    0    0  504  501  0.00000000000E+00  0.00000000000E+00  0.23329641436E+03  0.23329641436E+03  0.00000000000E+00 0.  1.
         21   -1    0    0  503  502 -0.00000000000E+00 -0.00000000000E+00 -0.16092599776E+02  0.16092599776E+02  0.00000000000E+00 0.  1.
         21    1    1    2  503  501  0.28735777128E+02 -0.39544169742E+01 -0.12348515279E+01  0.29032863432E+02  0.00000000000E+00 0.  1.
         21    1    1    2  504  502 -0.28735777128E+02  0.39544169742E+01  0.21843866611E+03  0.22035615071E+03  0.00000000000E+00 0.  1.
</event>
<event>
 4    1  0.1725802E+006  0.2154576E+02  0.7546771E-02  0.1511614E+00
         21   -1    0    0  502  501  0.00000000000E+00  0.00000000000E+00  0.11889206901E+03  0.11889206901E+03  0.00000000000E+00 0. -1.
         21   -1    0    0  503  502 -0.00000000000E+00 -0.00000000000E+00 -0.44649981285E+01  0.44649981285E+01  0.00000000000E+00 0. -1.
         21    1    1    2  503  504  0.65210360409E+01  0.20535234447E+02  0.35361496367E+02  0.41408395165E+02  0.00000000000E+00 0. -1.
         21    1    1    2  504  501 -0.65210360409E+01 -0.20535234447E+02  0.79065574516E+02  0.81948671975E+02  0.00000000000E+00 0. -1.
</event>
<event>
 4    1  0.1725802E+006  0.2641299E+02  0.7546771E-02  0.1453596E+00
         21   -1    0    0  504  501  0.00000000000E+00  0.00000000000E+00  0.12974956149E+03  0.12974956149E+03  0.00000000000E+00 0. -1.
         21   -1    0    0  503  502 -0.00000000000E+00 -0.00000000000E+00 -0.10138180632E+02  0.10138180632E+02  0.00000000000E+00 0. -1.
         21    1    1    2  503  501 -0.81052297880E+01  0.25138638674E+02  0.11872854070E+02  0.28958773593E+02  0.00000000000E+00 0. -1.
         21    1    1    2  504  502  0.81052297880E+01 -0.25138638674E+02  0.10773852679E+03  0.11092896853E+03  0.00000000000E+00 0. -1.
</event>
<event>
 4    1  0.1725802E+006  0.3744730E+02  0.7546771E-02  0.1364131E+00
         21   -1    0    0  502  501  0.00000000000E+00  0.00000000000E+00  0.14738084161E+03  0.14738084161E+03  0.00000000000E+00 0. -1.
         21   -1    0    0  503  502 -0.00000000000E+00 -0.00000000000E+00 -0.21964143516E+02  0.21964143516E+02  0.00000000000E+00 0.  1.
         21    1    1    2  503  504 -0.22503353067E+02  0.29931583359E+02 -0.10384340852E+01  0.37461699467E+02  0.00000000000E+00 0.  1.
         21    1    1    2  504  501  0.22503353067E+02 -0.29931583359E+02  0.12645513218E+03  0.13188328566E+03  0.00000000000E+00 0. -1.
</event>
<event>
 4    1  0.1725802E+006  0.2682299E+02  0.7546771E-02  0.1449394E+00
         21   -1    0    0  502  501  0.00000000000E+00  0.00000000000E+00  0.51825098655E+03  0.51825098655E+03  0.00000000000E+00 0.  1.
         21   -1    0    0  503  502 -0.00000000000E+00 -0.00000000000E+00 -0.16020711439E+01  0.16020711439E+01  0.00000000000E+00 0.  1.
         21    1    1    2  503  504  0.10159393146E+02  0.24824573143E+02  0.16337031237E+03  0.16555763850E+03  0.00000000000E+00 0.  1.
         21    1    1    2  504  501 -0.10159393146E+02 -0.24824573143E+02  0.35327860304E+03  0.35429541920E+03  0.00000000000E+00 0.  1.
</event>
<event>
 4    1  0.1725802E+006  0.2820909E+02  0.7546771E-02  0.1435827E+00
         21   -1    0    0  504  501  0.00000000000E+00  0.00000000000E+00  0.21958051064E+03  0.21958051064E+03  0.00000000000E+00 0.  1.
         21   -1    0    0  503  502 -0.00000000000E+00 -0.00000000000E+00 -0.36257134764E+01  0.36257134764E+01  0.00000000000E+00 0.  1.
         21    1    1    2  503  501 -0.98486744539E+01 -0.26433997345E+02  0.11042655090E+03  0.11397269738E+03  0.00000000000E+00 0.  1.
         21    1    1    2  504  502  0.98486744539E+01  0.26433997345E+02  0.10552824626E+03  0.10923352674E+03  0.00000000000E+00 0.  1.
</event>
<event>
 4    1  0.1725802E+006  0.2000762E+02  0.7546771E-02  0.1533919E+00
         21   -1    0    0  503  501  0.00000000000E+00  0.00000000000E+00  0.50093847049E+03  0.50093847049E+03  0.00000000000E+00 0.  1.
         21   -1    0    0  504  502 -0.00000000000E+00 -0.00000000000E+00 -0.80686868526E+00  0.80686868526E+00  0.00000000000E+00 0.  1.
         21    1    1    2  503  502  0.13222000847E+02  0.15016107284E+02  0.22546468828E+03  0.22635068024E+03  0.00000000000E+00 0.  1.
         21    1    1    2  504  501 -0.13222000847E+02 -0.15016107284E+02  0.27466691352E+03  0.27539465893E+03  0.00000000000E+00 0.  1.
</event>
<event>
 4    1  0.1725802E+006  0.3062724E+02  0.7546771E-02  0.1414223E+00
         21   -1    0    0  504  501  0.00000000000E+00  0.00000000000E+00  0.10620583968E+03  0.10620583968E+03  0.00000000000E+00 0.  1.
         21   -1    0    0  503  502 -0.00000000000E+00 -0.00000000000E+00 -0.23387652883E+03  0.23387652883E+03  0.00000000000E+00 0. -1.
         21    1    1    2  503  501 -0.28533668232E+02  0.11129142642E+02  0.10296420236E+03  0.10742278625E+03  0.00000000000E+00 0.  1.
         21    1    1    2  504  502  0.28533668232E+02 -0.11129142642E+02 -0.23063489151E+03  0.23265958226E+03  0.00000000000E+00 0. -1.
</event>
<event>
 4    1  0.1725802E+006  0.2237667E+02  0.7546771E-02  0.1500477E+00
         21   -1    0    0  503  501  0.00000000000E+00  0.00000000000E+00  0.75083801363E+01  0.75083801363E+01  0.00000000000E+00 0. -1.
         21   -1    0    0  504  502 -0.00000000000E+00 -0.00000000000E+00 -0.11941283194E+03  0.11941283194E+03  0.00000000000E+00 0. -1.
         21    1    1    2  503  502  0.16070890588E+02 -0.15570541039E+02 -0.98120738555E+02  0.10063992551E+03  0.00000000000E+00 0. -1.
         21    1    1    2  504  501 -0.16070890588E+02  0.15570541039E+02 -0.13783713248E+02  0.26281286564E+02  0.00000000000E+00 0. -1.
</event>
<event>
 4    1  0.1725802E+006  0.3438200E+02  0.7546771E-02  0.1384961E+00
         21   -1    0    0  503  501  0.00000000000E+00  0.00000000000E+00  0.55681522754E+02  0.55681522754E+02  0.00000000000E+00 0. -1.
         21   -1    0    0  504  502 -0.00000000000E+00 -0.00000000000E+00 -0.12602595494E+03  0.12602595494E+03  0.00000000000E+00 0.  1.
         21    1    1    2  503  502 -0.19946893023E+02 -0.28004342888E+02 -0.11802077387E+03  0.12292690847E+03  0.00000000000E+00 0.  1.
         21    1    1    2  504  501  0.19946893023E+02  0.28004342888E+02  0.47676341683E+02  0.58780569222E+02  0.00000000000E+00 0. -1.
</event>
<event>
 4    1  0.1725802E+006  0.6699178E+02  0.7546771E-02  0.1237764E+00
         21   -1    0    0  504  501  0.00000000000E+00  0.00000000000E+00  0.13579722604E+02  0.13579722604E+02  0.00000000000E+00 0. -1.
         21   -1    0    0  501  502 -0.00000000000E+00 -0.00000000000E+00 -0.11692260559E+04  0.11692260559E+04  0.00000000000E+00 0. -1.
         21    1    1    2  503  502 -0.24102008199E+02  0.62505934694E+02 -0.10787197546E+04  0.10807979495E+04  0.00000000000E+00 0. -1.
         21    1    1    2  504  503  0.24102008199E+02 -0.62505934694E+02 -0.76926578741E+02  0.10200782905E+03  0.00000000000E+00 0. -1.
</event>
<event>
 4    1  0.1725802E+006  0.2236034E+02  0.7546771E-02  0.1500690E+00
         21   -1    0    0  504  501  0.00000000000E+00  0.00000000000E+00  0.16188044101E+02  0.16188044101E+02  0.00000000000E+00 0. -1.
         21   -1    0    0  503  502 -0.00000000000E+00 -0.00000000000E+00 -0.31017958586E+02  0.31017958586E+02  0.00000000000E+00 0. -1.
         21    1    1    2  503  501 -0.25914698425E+01  0.22209664813E+02 -0.89540970925E+01  0.24086526977E+02  0.00000000000E+00 0. -1.
         21    1    1    2  504  502  0.25914698425E+01 -0.22209664813E+02 -0.58758173928E+01  0.23119475710E+02  0.00000000000E+00 0. -1.
</event>
<event>
 4    1  0.1725802E+006  0.2252599E+02  0.7546771E-02  0.1498538E+00
         21   -1    0    0  504  501  0.00000000000E+00  0.00000000000E+00  0.20742971706E+03  0.20742971706E+03  0.00000000000E+00 0. -1.
         21   -1    0    0  503  502 -0.00000000000E+00 -0.00000000000E+00 -0.33233579179E+02  0.33233579179E+02  0.00000000000E+00 0.  1.
         21    1    1    2  503  501 -0.16227027100E+02 -0.15623826084E+02 -0.28720306998E+02  0.36500361424E+02  0.00000000000E+00 0.  1.
         21    1    1    2  504  502  0.16227027100E+02  0.15623826084E+02  0.20291644488E+03  0.20416293481E+03  0.00000000000E+00 0. -1.
</event>
<event>
 4    1  0.1725802E+006  0.3915679E+02  0.7546771E-02  0.1353499E+00
         21   -1    0    0  503  501  0.00000000000E+00  0.00000000000E+00  0.34573652738E+02  0.34573652738E+02  0.00000000000E+00 0.  1.
         21   -1    0    0  501  502 -0.00000000000E+00 -0.00000000000E+00 -0.56102486505E+02  0.56102486505E+02  0.00000000000E+00 0.  1.
         21    1    1    2  503  504 -0.36010376505E+02 -0.15378779514E+02  0.99887111861E+01  0.40410746424E+02  0.00000000000E+00 0.  1.
         21    1    1    2  504  502  0.36010376505E+02  0.15378779514E+02 -0.31517544954E+02  0.50265392819E+02  0.00000000000E+00 0.  1.
</event>
<event>
 4    1  0.1725802E+006  0.2101158E+02  0.7546771E-02  0.1519100E+00
         21   -1    0    0  503  501  0.00000000000E+00  0.00000000000E+00  0.55049307644E+03  0.55049307644E+03  0.00000000000E+00 0. -1.
         21   -1    0    0  504  502 -0.00000000000E+00 -0.00000000000E+00 -0.52615756342E+03  0.52615756342E+03  0.00000000000E+00 0. -1.
         21    1    1    2  503  502 -0.20927507488E+02 -0.18776944495E+01 -0.52574714206E+03  0.52616684017E+03  0.00000000000E+00 0. -1.
         21    1    1    2  504  501  0.20927507488E+02  0.18776944495E+01  0.55008265508E+03  0.55048379970E+03  0.00000000000E+00 0. -1.
</event>
<event>
 4    1  0.1725802E+006  0.2101823E+02  0.7546771E-02  0.1519005E+00
         21   -1    0    0  503  501  0.00000000000E+00  0.00000000000E+00  0.45348304932E+03  0.45348304932E+03  0.00000000000E+00 0.  1.
         21   -1    0    0  504  502 -0.00000000000E+00 -0.00000000000E+00 -0.10938587836E+01  0.10938587836E+01  0.00000000000E+00 0.  1.
         21    1    1    2  503  502 -0.38791263868E+01  0.20657167215E+02  0.15100857673E+03  0.15246427918E+03  0.00000000000E+00 0.  1.
         21    1    1    2  504  501  0.38791263868E+01 -0.20657167215E+02  0.30138061381E+03  0.30211262893E+03  0.00000000000E+00 0.  1.
</event>
<event>
 4    1  0.1725802E+006  0.3190572E+02  0.7546771E-02  0.1403728E+00
         21   -1    0    0  503  501  0.00000000000E+00  0.00000000000E+00  0.37145702710E+01  0.37145702710E+01  0.00000000000E+00 0. -1.
         21   -1    0    0  504  502 -0.00000000000E+00 -0.00000000000E+00 -0.73330796485E+03  0.73330796485E+03  0.00000000000E+00 0. -1.
         21    1    1    2  503  502  0.32566761018E+01 -0.31739075590E+02 -0.65642946294E+03  0.65720439338E+03  0.00000000000E+00 0. -1.
         21    1    1    2  504  501 -0.32566761018E+01  0.31739075590E+02 -0.73163931637E+02  0.79818141742E+02  0.00000000000E+00 0. -1.
</event>
<event>
 4    1  0.1725802E+006  0.2117644E+02  0.7546771E-02  0.1516761E+00
         21   -1    0    0  504  501  0.00000000000E+00  0.00000000000E+00  0.99354198788E+01  0.99354198788E+01  0.00000000000E+00 0.  1.
         21   -1    0    0  503  502 -0.00000000000E+00 -0.00000000000E+00 -0.45791747144E+02  0.45791747144E+02  0.00000000000E+00 0.  1.
         21    1    1    2  503  501 -0.19574930677E+02 -0.80785900077E+01 -0.21263433592E+02  0.30009584063E+02  0.00000000000E+00 0.  1.
         21    1    1    2  504  502  0.19574930677E+02  0.80785900077E+01 -0.14592893674E+02  0.25717582960E+02  0.00000000000E+00 0.  1.
</event>
<event>
 4    1  0.1725802E+006  0.2459788E+02  0.7546771E-02  0.1473352E+00
         21   -1    0    0  503  501  0.00000000000E+00  0.00000000000E+00  0.12363978887E+04  0.12363978887E+04  0.00000000000E+00 0. -1.
         21   -1    0    0  504  502 -0.00000000000E+00 -0.00000000000E+00 -0.49411659639E+00  0.49411659639E+00  0.00000000000E+00 0. -1.
         21    1    1    2  503  502 -0.82714324421E+01 -0.23165471011E+02  0.55733512056E+03  0.55787766782E+03  0.00000000000E+00 0. -1.
         21    1    1    2  504  501  0.82714324421E+01  0.23165471011E+02  0.67856865157E+03  0.67901433751E+03  0.00000000000E+00 0. -1.
</event>
<event>
 4    1  0.1725802E+006  0.2001930E+02  0.7546771E-02  0.1533741E+00
         21   -1    0    0  503  501  0.00000000000E+00  0.00000000000E+00  0.16616491225E+01  0.16616491225E+01  0.00000000000E+00 0. -1.
         21   -1    0    0  504  502 -0.00000000000E+00 -0.00000000000E+00 -0.74067248766E+03  0.74067248766E+03  0.00000000000E+00 0.  1.
         21    1    1    2  503  502 -0.74902635154E+01  0.18565250470E+02 -0.67430657877E+03  0.67460368717E+03  0.00000000000E+00 0.  1.
         21    1    1    2  504  501  0.74902635154E+01 -0.18565250470E+02 -0.64704259777E+02  0.67730449621E+02  0.00000000000E+00 0. -1.
</event>
<event>
 4    1  0.1725802E+006  0.2053314E+02  0.7546771E-02  0.1526036E+00
         21   -1    0    0  503  501  0.00000000000E+00  0.00000000000E+00  0.48037227023E+03  0.48037227023E+03  0.00000000000E+00 0.  1.
         21   -1    0    0  501  502 -0.00000000000E+00 -0.00000000000E+00 -0.18355286596E+01  0.18355286596E+01  0.00000000000E+00 0. -1.
         21    1    1    2  503  504  0.18943817475E+02  0.79209633905E+01  0.41343848328E+03  0.41394805150E+03  0.00000000000E+00 0.  1.
         21    1    1    2  504  502 -0.18943817475E+02 -0.79209633905E+01  0.65098258285E+02  0.68259747386E+02  0.00000000000E+00 0. -1.
</event>
<event>
 4    1  0.1725802E+006  0.2962740E+02  0.7546771E-02  0.1422862E+00
         21   -1    0    0  503  501  0.00000000000E+00  0.00000000000E+00  0.31623268159E+03  0.31623268159E+03  0.00000000000E+00 0. -1.
         21   -1    0    0  504  502 -0.00000000000E+00 -0.00000000000E+00 -0.12094101859E+03  0.12094101859E+03  0.00000000000E+00 0.  1.
         21    1    1    2  503  502  0.11621683308E+01 -0.29604599551E+02 -0.11841803497E+03  0.12206807099E+03  0.00000000000E+00 0.  1.
         21    1    1    2  504  501 -0.11621683308E+01  0.29604599551E+02  0.31370969797E+03  0.31510562919E+03  0.00000000000E+00 0. -1.
</event>
<event>
 4    1  0.1725802E+006  0.2246683E+02  0.7546771E-02  0.1499304E+00
         21   -1    0    0  503  501  0.00000000000E+00  0.00000000000E+00  0.31419109687E+01  0.31419109687E+01  0.00000000000E+00 0.  1.
         21   -1    0    0  504  502 -0.00000000000E+00 -0.00000000000E+00 -0.16287192527E+03  0.16287192527E+03  0.00000000000E+00 0.  1.
         21    1    1    2  503  502 -0.15918611742E+02  0.15854224891E+02 -0.89552789899E+02  0.92328006723E+02  0.00000000000E+00 0.  1.
         21    1    1    2  504  501  0.15918611742E+02 -0.15854224891E+02 -0.70177224405E+02  0.73685829518E+02  0.00000000000E+00 0.  1.
</event>
<event>
 4    1  0.1725802E+006  0.2694319E+02  0.7546771E-02  0.1448180E+00
         21   -1    0    0  502  501  0.00000000000E+00  0.00000000000E+00  0.97357604521E+03  0.97357604521E+03  0.00000000000E+00 0. -1.
         21   -1    0    0  504  502 -0.00000000000E+00 -0.00000000000E+00 -0.21582223616E+02  0.21582223616E+02  0.00000000000E+00 0.  1.
         21    1    1    2  503  501 -0.20589411028E+02  0.17378486183E+02  0.96490513195E+03  0.96528122808E+03  0.00000000000E+00 0. -1.
         21    1    1    2  504  503  0.20589411028E+02 -0.17378486183E+02 -0.12911310354E+02  0.29877040743E+02  0.00000000000E+00 0.  1.
</event>
<event>
 4    1  0.1725802E+006  0.4625905E+02  0.7546771E-02  0.1315261E+00
         21   -1    0    0  504  501  0.00000000000E+00  0.00000000000E+00  0.23122991420E+02  0.23122991420E+02  0.00000000000E+00 0.  1.
         21   -1    0    0  501  502 -0.00000000000E+00 -0.00000000000E+00 -0.95687870831E+02  0.95687870831E+02  0.00000000000E+00 0. -1.
         21    1    1    2  503  502 -0.41757022941E+02  0.19906058291E+02 -0.47049871261E+02  0.65981743742E+02  0.00000000000E+00 0. -1.
         21    1    1    2  504  503  0.41757022941E+02 -0.19906058291E+02 -0.25515008150E+02  0.52829118509E+02  0.00000000000E+00 0.  1.
</event>
<event>
 4    1  0.1725802E+006  0.3735964E+02  0.7546771E-02  0.1364694E+00
         21   -1    0    0  503  501  0.00000000000E+00  0.00000000000E+00  0.14848647521E+02  0.14848647521E+02  0.00000000000E+00 0.  1.
         21   -1    0    0  501  502 -0.00000000000E+00 -0.00000000000E+00 -0.59228341419E+03  0.59228341419E+03  0.00000000000E+00 0.  1.
         21    1    1    2  503  504 -0.28941001354E+02  0.23625427929E+02 -0.10280030321E+02  0.38748179668E+02  0.00000000000E+00 0.  1.
         21    1    1    2  504  502  0.28941001354E+02 -0.23625427929E+02 -0.56715473634E+03  0.56838388204E+03  0.00000000000E+00 0.  1.
</event>
<event>
 4    1  0.1725802E+006  0.3217727E+02  0.7546771E-02  0.1401574E+00
         21   -1    0    0  504  501  0.00000000000E+00  0.00000000000E+00  0.15586598417E+02  0.15586598417E+02  0.00000000000E+00 0.  1.
         21   -1    0    0  501  502 -0.00000000000E+00 -0.00000000000E+00 -0.85319385456E+02  0.85319385456E+02  0.00000000000E+00 0.  1.
         21    1    1    2  503  502 -0.30074982487E+02 -0.11439933738E+02 -0.58607572101E+02  0.66859734991E+02  0.00000000000E+00 0.  1.
         21    1    1    2  504  503  0.30074982487E+02  0.11439933738E+02 -0.11125214938E+02  0.34046248882E+02  0.00000000000E+00 0.  1.
</event>
<event>
 4    1  0.1725802E+006  0.2139603E+02  0.7546771E-02  0.1513685E+00
         21   -1    0    0  503  501  0.00000000000E+00  0.00000000000E+00  0.50064246067E+03  0.50064246067E+03  0.00000000000E+00 0.  1.
         21   -1    0    0  501  502 -0.00000000000E+00 -0.00000000000E+00 -0.27665158796E+03  0.27665158796E+03  0.00000000000E+00 0. -1.
         21    1    1    2  503  504  0.18075267684E+02  0.11448794711E+02  0.49999963929E+03  0.50045722045E+03  0.00000000000E+00 0.  1.
         21    1    1    2  504  502 -0.18075267684E+02 -0.11448794711E+02 -0.27600876659E+03  0.27683682818E+03  0.00000000000E+00 0. -1.
</event>
<event>
 4    1  0.1725802E+006  0.2944313E+02  0.7546771E-02  0.1424498E+00
         21   -1    0    0  503  501  0.00000000000E+00  0.00000000000E+00  0.46916085751E+01  0.46916085751E+01  0.00000000000E+00 0.  1.
         21   -1    0    0  504  502 -0.00000000000E+00 -0.00000000000E+00 -0.18716882569E+03  0.18716882569E+03  0.00000000000E+00 0.  1.
         21    1    1    2  503  502 -0.17522818848E+02  0.23661117953E+02 -0.10208473159E+03  0.10624589454E+03  0.00000000000E+00 0.  1.
         21    1    1    2  504  501  0.17522818848E+02 -0.23661117953E+02 -0.80392485522E+02  0.85614539721E+02  0.00000000000E+00 0.  1.
</event>
<event>
 4    1  0.1725802E+006  0.2075065E+02  0.7546771E-02  0.1522855E+00
         21   -1    0    0  504  501  0.00000000000E+00  0.00000000000E+00  0.19941250567E+03  0.19941250567E+03  0.00000000000E+00 0. -1.
         21   -1    0    0  503  502 -0.00000000000E+00 -0.00000000000E+00 -0.85567739411E+02  0.85567739411E+02  0.00000000000E+00 0.  1.
         21    1    1    2  503  501  0.16852052901E+02 -0.12107759956E+02  0.19760315841E+03  0.19868970218E+03  0.00000000000E+00 0. -1.
         21    1    1    2  504  502 -0.16852052901E+02  0.12107759956E+02 -0.83758392152E+02  0.86290542901E+02  0.00000000000E+00 0.  1.
</event>
<event>
 4    1  0.1725802E+006  0.4063009E+02  0.7546771E-02  0.1344833E+00
         21   -1    0    0  503  501  0.00000000000E+00  0.00000000000E+00  0.18412284265E+03  0.18412284265E+03  0.00000000000E+00 0. -1.
         21   -1    0    0  504  502 -0.00000000000E+00 -0.00000000000E+00 -0.48217879554E+02  0.48217879554E+02  0.00000000000E+00 0. -1.
         21    1    1    2  503  502  0.39383604239E+02 -0.99868070820E+01 -0.36862349909E+02  0.54860162589E+02  0.00000000000E+00 0. -1.
         21    1    1    2  504  501 -0.39383604239E+02  0.99868070820E+01  0.17276731301E+03  0.17748055962E+03  0.00000000000E+00 0. -1.
</event>
<event>
 4    1  0.1725802E+006  0.2027091E+02  0.7546771E-02  0.1529934E+00
         21   -1    0    0  502  501  0.00000000000E+00  0.00000000000E+00  0.12060873874E+03  0.12060873874E+03  0.00000000000E+00 0.  1.
         21   -1    0    0  504  502 -0.00000000000E+00 -0.00000000000E+00 -0.31043073178E+03  0.31043073178E+03  0.00000000000E+00 0.  1.
         21    1    1    2  503  501  0.17787906288E+02 -0.97211129445E+01  0.11942281591E+03  0.12113099771E+03  0.00000000000E+00 0.  1.
         21    1    1    2  504  503 -0.17787906288E+02  0.97211129445E+01 -0.30924480895E+03  0.30990847280E+03  0.00000000000E+00 0.  1.
</event>
<event>
 4    1  0.1725802E+006  0.2008837E+02  0.7546771E-02  0.1532689E+00
         21   -1    0    0  503  501  0.00000000000E+00  0.00000000000E+00  0.67031815990E+02  0.67031815990E+02  0.00000000000E+00 0. -1.
         21   -1    0    0  504  502 -0.00000000000E+00 -0.00000000000E+00 -0.60323991703E+01  0.60323991703E+01  0.00000000000E+00 0. -1.
         21    1    1    2  503  502 -0.11066539790E+02  0.16765270965E+02  0.28854536053E+02  0.35158595881E+02  0.00000000000E+00 0. -1.
         21    1    1    2  504  501  0.11066539790E+02 -0.16765270965E+02  0.32144880767E+02  0.37905619280E+02  0.00000000000E+00 0. -1.
</event>
<event>
 4    1  0.1725802E+006  0.2161735E+02  0.7546771E-02  0.1510630E+00
         21   -1    0    0  504  501  0.00000000000E+00  0.00000000000E+00  0.47341260661E+01  0.47341260661E+01  0.00000000000E+00 0. -1.
         21   -1    0    0  501  502 -0.00000000000E+00 -0.00000000000E+00 -0.29475555755E+03  0.29475555755E+03  0.00000000000E+00 0. -1.
         21    1    1    2  503  502  0.40425643602E+01  0.21235999935E+02 -0.26713396059E+03  0.26800720684E+03  0.00000000000E+00 0. -1.
         21    1    1    2  504  503 -0.40425643602E+01 -0.21235999935E+02 -0.22887470898E+02  0.31482476776E+02  0.00000000000E+00 0. -1.
</event>
<event>
 4    1  0.1725802E+006  0.2116147E+02  0.7546771E-02  0.1516972E+00
         21   -1    0    0  503  501  0.00000000000E+00  0.00000000000E+00  0.11086917275E+01  0.11086917275E+01  0.00000000000E+00 0. -1.
         21   -1    0    0  504  502 -0.00000000000E+00 -0.00000000000E+00 -0.67332323989E+03  0.67332323989E+03  0.00000000000E+00 0. -1.
         21    1    1    2  503  502  0.21087506215E+02  0.17677055689E+01 -0.12279851814E+03  0.12460852201E+03  0.00000000000E+00 0. -1.
         21    1    1    2  504  501 -0.21087506215E+02 -0.17677055689E+01 -0.54941603003E+03  0.54982340961E+03  0.00000000000E+00 0. -1.
</event>
<event>
 4    1  0.1725802E+006  0.2154427E+02  0.7546771E-02  0.1511634E+00
         21   -1    0    0  503  501  0.00000000000E+00  0.00000000000E+00  0.59079047870E+01  0.59079047870E+01  0.00000000000E+00 0. -1.
         21   -1    0    0  501  502 -0.00000000000E+00 -0.00000000000E+00 -0.26253120533E+03  0.26253120533E+03  0.00000000000E+00 0.  1.
         21    1    1    2  503  504  0.21505485960E+02 -0.12922259840E+01 -0.15956209721E+02  0.26809632654E+02  0.00000000000E+00 0. -1.
         21    1    1    2  504  502 -0.21505485960E+02  0.12922259840E+01 -0.24066709082E+03  0.24162947746E+03  0.00000000000E+00 0.  1.
</event>
<event>
 4    1  0.1725802E+006  0.4613659E+02  0.7546771E-02  0.1315852E+00
         21   -1    0    0  504  501  0.00000000000E+00  0.00000000000E+00  0.73083919536E+02  0.73083919536E+02  0.00000000000E+00 0. -1.
         21   -1    0    0  501  502 -0.00000000000E+00 -0.00000000000E+00 -0.14577643875E+03  0.14577643875E+03  0.00000000000E+00 0.  1.
         21    1    1    2  503  502 -0.30564008492E+02 -0.34560479613E+02 -0.13423620335E+03  0.14194345232E+03  0.00000000000E+00 0.  1.
         21    1    1    2  504  503  0.30564008492E+02  0.34560479613E+02  0.61543684137E+02  0.76916905966E+02  0.00000000000E+00 0. -1.
</event>
<event>
 4    1  0.1725802E+006  0.2531929E+02  0.7546771E-02  0.1465263E+00
         21   -1    0    0  504  501  0.00000000000E+00  0.00000000000E+00  0.39503811892E+02  0.39503811892E+02  0.00000000000E+00 0. -1.
         21   -1    0    0  501  502 -0.00000000000E+00 -0.00000000000E+00 -0.24200686215E+02  0.24200686215E+02  0.00000000000E+00 0.  1.
         21    1    1    2  503  502 -0.23474986171E+02 -0.94863944909E+01 -0.10630678090E+02  0.27460480200E+02  0.00000000000E+00 0.  1.
         21    1    1    2  504  503  0.23474986171E+02  0.94863944909E+01  0.25933803768E+02  0.36244017907E+02  0.00000000000E+00 0. -1.
</event>
<event>
 4    1  0.1725802E+006  0.2120238E+02  0.7546771E-02  0.1516395E+00
         21   -1    0    0  504  501  0.00000000000E+00  0.00000000000E+00  0.88804388854E+02  0.88804388854E+02  0.00000000000E+00 0. -1.
         21   -1    0    0  503  502 -0.00000000000E+00 -0.00000000000E+00 -0.66022640544E+01  0.66022640544E+01  0.00000000000E+00 0.  1.
         21    1    1    2  503  501  0.13985566719E+02  0.15935650263E+02  0.64140869478E+02  0.67554364501E+02  0.00000000000E+00 0. -1.
         21    1    1    2  504  502 -0.13985566719E+02 -0.15935650263E+02  0.18061255323E+02  0.27852288408E+02  0.00000000000E+00 0.  1.
</event>
<event>
 4    1  0.1725802E+006  0.2193836E+02  0.7546771E-02  0.1506277E+00
         21   -1    0    0  503  501  0.00000000000E+00  0.00000000000E+00  0.11623647756E+02  0.11623647756E+02  0.00000000000E+00 0. -1.
         21   -1    0    0  504  502 -0.00000000000E+00 -0.00000000000E+00 -0.48758470684E+02  0.48758470684E+02  0.00000000000E+00 0. -1.
         21    1    1    2  503  502  0.12511085383E+02 -0.18021222379E+02 -0.30291050976E+02  0.37401062589E+02  0.00000000000E+00 0. -1.
         21    1    1    2  504  501 -0.12511085383E+02  0.18021222379E+02 -0.68437719524E+01  0.22981055851E+02  0.00000000000E+00 0. -1.
</event>
<event>
 4    1  0.1725802E+006  0.2147828E+02  0.7546771E-02  0.1512545E+00
         21   -1    0    0  504  501  0.00000000000E+00  0.00000000000E+00  0.29975036696E+03  0.29975036696E+03  0.00000000000E+00 0.  1.
         21   -1    0    0  503  502 -0.00000000000E+00 -0.00000000000E+00 -0.59304053696E+01  0.59304053696E+01  0.00000000000E+00 0. -1.
         21    1    1    2  503  501  0.20673195161E+02 -0.58254308579E+01  0.27843172623E+03  0.27925891717E+03  0.00000000000E+00 0.  1.
         21    1    1    2  504  502 -0.20673195161E+02  0.58254308579E+01  0.15388235353E+02  0.26421855161E+02  0.00000000000E+00 0. -1.
</event>
<event>
 4    1  0.1725802E+006  0.3540045E+02  0.7546771E-02  0.1377770E+00
         21   -1    0    0  502  501  0.00000000000E+00  0.00000000000E+00  0.62297961510E+02  0.62297961510E+02  0.00000000000E+00 0. -1.
         21   -1    0    0  503  502 -0.00000000000E+00 -0.00000000000E+00 -0.32038744347E+02  0.32038744347E+02  0.00000000000E+00 0. -1.
         21    1    1    2  503  504 -0.26860547277E+02  0.23058679163E+02 -0.13644333260E+02  0.37938891851E+02  0.00000000000E+00 0. -1.
         21    1    1    2  504  501  0.26860547277E+02 -0.23058679163E+02  0.43903550423E+02  0.56397814005E+02  0.00000000000E+00 0. -1.
</event>
<event>
 4    1  0.1725802E+006  0.3356569E+02  0.7546771E-02  0.1390937E+00
         21   -1    0    0  504  501  0.00000000000E+00  0.00000000000E+00  0.41819020878E+01  0.41819020878E+01  0.00000000000E+00 0. -1.
         21   -1    0    0  503  502 -0.00000000000E+00 -0.00000000000E+00 -0.36451516038E+03  0.36451516038E+03  0.00000000000E+00 0. -1.
         21    1    1    2  503  501 -0.33544702558E+02  0.11867339196E+01 -0.86003925249E+02  0.92321885624E+02  0.00000000000E+00 0. -1.
         21    1    1    2  504  502  0.33544702558E+02 -0.11867339196E+01 -0.27432933304E+03  0.27637517684E+03  0.00000000000E+00 0. -1.
</event>
<event>
 4    1  0.1725802E+006  0.2206918E+02  0.7546771E-02  0.1504529E+00
         21   -1    0    0  502  501  0.00000000000E+00  0.00000000000E+00  0.99370963784E+02  0.99370963784E+02  0.00000000000E+00 0.  1.
         21   -1    0    0  503  502 -0.00000000000E+00 -0.00000000000E+00 -0.18545194437E+02  0.18545194437E+02  0.00000000000E+00 0. -1.
         21    1    1    2  503  504 -0.13879358834E+02 -0.17158435052E+02 -0.10157534164E+02  0.24294526037E+02  0.00000000000E+00 0. -1.
         21    1    1    2  504  501  0.13879358834E+02  0.17158435052E+02  0.90983303511E+02  0.93621632184E+02  0.00000000000E+00 0.  1.
</event>
<event>
 4    1  0.1725802E+006  0.2603436E+02  0.7546771E-02  0.1457557E+00
         21   -1    0    0  504  501  0.00000000000E+00  0.00000000000E+00  0.43608102926E+02  0.43608102926E+02  0.00000000000E+00 0. -1.
         21   -1    0    0  503  502 -0.00000000000E+00 -0.00000000000E+00 -0.18696303456E+02  0.18696303456E+02  0.00000000000E+00 0.  1.
         21    1    1    2  503  501 -0.25835539136E+02  0.32113294269E+01 -0.33833583913E+00  0.26036554884E+02  0.00000000000E+00 0.  1.
         21    1    1    2  504  502  0.25835539136E+02 -0.32113294269E+01  0.25250135310E+02  0.36267851498E+02  0.00000000000E+00 0. -1.
</event>
<event>
 4    1  0.1725802E+006  0.2215274E+02  0.7546771E-02  0.1503420E+00
         21   -1    0    0  503  501  0.00000000000E+00  0.00000000000E+00  0.82585870022E+02  0.82585870022E+02  0.00000000000E+00 0.  1.
         21   -1    0    0  504  502 -0.00000000000E+00 -0.00000000000E+00 -0.46126886751E+02  0.46126886751E+02  0.00000000000E+00 0. -1.
         21    1    1    2  503  502 -0.22028508500E+02  0.23428096424E+01  0.78297699528E+02  0.81371209252E+02  0.00000000000E+00 0.  1.
         21    1    1    2  504  501  0.22028508500E+02 -0.23428096424E+01 -0.41838716257E+02  0.47341547522E+02  0.00000000000E+00 0. -1.
</event>
<event>
 4    1  0.1725802E+006  0.2545676E+02  0.7546771E-02  0.1463758E+00
         21   -1    0    0  504  501  0.00000000000E+00  0.00000000000E+00  0.28517276901E+03  0.28517276901E+03  0.00000000000E+00 0.  1.
         21   -1    0    0  503  502 -0.00000000000E+00 -0.00000000000E+00 -0.32308100032E+01  0.32308100032E+01  0.00000000000E+00 0.  1.
         21    1    1    2  503  501  0.25271455880E+02  0.30659849564E+01  0.21950803288E+03  0.22097923714E+03  0.00000000000E+00 0.  1.
         21    1    1    2  504  502 -0.25271455880E+02 -0.30659849564E+01  0.62433926123E+02  0.67424341874E+02  0.00000000000E+00 0.  1.
</event>
<event>
 4    1  0.1725802E+006  0.2461047E+02  0.7546771E-02  0.1473209E+00
         21   -1    0    0  504  501  0.00000000000E+00  0.00000000000E+00  0.13331543773E+03  0.13331543773E+03  0.00000000000E+00 0. -1.
         21   -1    0    0  501  502 -0.00000000000E+00 -0.00000000000E+00 -0.18934316501E+02  0.18934316501E+02  0.00000000000E+00 0.  1.
         21    1    1    2  503  502  0.24547974154E+02 -0.17527098796E+01 -0.91760209207E+01  0.26265459960E+02  0.00000000000E+00 0.  1.
         21    1    1    2  504  503 -0.24547974154E+02  0.17527098796E+01  0.12355714215E+03  0.12598429427E+03  0.00000000000E+00 0. -1.
</event>
<event>
 4    1  0.1725802E+006  0.2055617E+02  0.7546771E-02  0.1525697E+00
         21   -1    0    0  502  501  0.00000000000E+00  0.00000000000E+00  0.24438929715E+02  0.24438929715E+02  0.00000000000E+00 0.  1.
         21   -1    0    0  503  502 -0.00000000000E+00 -0.00000000000E+00 -0.14475906464E+03  0.14475906464E+03  0.00000000000E+00 0. -1.
         21    1    1    2  503  504  0.53758619066E+01  0.19840770523E+02 -0.13954612680E+03  0.14105203852E+03  0.00000000000E+00 0. -1.
         21    1    1    2  504  501 -0.53758619066E+01 -0.19840770523E+02  0.19225991875E+02  0.28145955833E+02  0.00000000000E+00 0.  1.
</event>
<event>
 4    1  0.1725802E+006  0.2521325E+02  0.7546771E-02  0.1466432E+00
         21   -1    0    0  502  501  0.00000000000E+00  0.00000000000E+00  0.12002461700E+04  0.12002461700E+04  0.00000000000E+00 0.  1.
         21   -1    0    0  504  502 -0.00000000000E+00 -0.00000000000E+00 -0.66479754309E+00  0.66479754309E+00  0.00000000000E+00 0.  1.
         21    1    1    2  503  501  0.30348489213E+01 -0.25029932358E+02  0.87052519744E+03  0.87089024980E+03  0.00000000000E+00 0.  1.
         21    1    1    2  504  503 -0.30348489213E+01  0.25029932358E+02  0.32905617505E+03  0.33002071778E+03  0.00000000000E+00 0.  1.
</event>
<event>
 4    1  0.1725802E+006  0.4712204E+02  0.7546771E-02  0.1311157E+00
         21   -1    0    0  504  501  0.00000000000E+00  0.00000000000E+00  0.10034496846E+03  0.10034496846E+03  0.00000000000E+00 0.  1.
         21   -1    0    0  503  502 -0.00000000000E+00 -0.00000000000E+00 -0.64866133690E+03  0.64866133690E+03  0.00000000000E+00 0.  1.
         21    1    1    2  503  501 -0.12126672394E+02  0.45534937241E+02 -0.64221797919E+03  0.64394442267E+03  0.00000000000E+00 0.  1.
         21    1    1    2  504  502  0.12126672394E+02 -0.45534937241E+02  0.93901610745E+02  0.10506188269E+03  0.00000000000E+00 0.  1.
</event>
<event>
 4    1  0.1725802E+006  0.2598573E+02  0.7546771E-02  0.1458071E+00
         21   -1    0    0  503  501  0.00000000000E+00  0.00000000000E+00  0.70653011599E+02  0.70653011599E+02  0.00000000000E+00 0.  1.
         21   -1    0    0  501  502 -0.00000000000E+00 -0.00000000000E+00 -0.29869047443E+02  0.29869047443E+02  0.00000000000E+00 0.  1.
         21    1    1    2  503  504  0.19934401350E+02 -0.16669672174E+02  0.61839009129E+02  0.67076980982E+02  0.00000000000E+00 0.  1.
         21    1    1    2  504  502 -0.19934401350E+02  0.16669672174E+02 -0.21055044974E+02  0.33445078060E+02  0.00000000000E+00 0.  1.
</event>
<event>
 4    1  0.1725802E+006  0.2052223E+02  0.7546771E-02  0.1526197E+00
         21   -1    0    0  504  501  0.00000000000E+00  0.00000000000E+00  0.21791499802E+03  0.21791499802E+03  0.00000000000E+00 0. -1.
         21   -1    0    0  501  502 -0.00000000000E+00 -0.00000000000E+00 -0.55723016604E+02  0.55723016604E+02  0.00000000000E+00 0. -1.
         21    1    1    2  503  502  0.13170855141E+02  0.15738180152E+02 -0.53329374011E+02  0.57141787442E+02  0.00000000000E+00 0. -1.
         21    1    1    2  504  503 -0.13170855141E+02 -0.15738180152E+02  0.21552135542E+03  0.21649622718E+03  0.00000000000E+00 0. -1.
</event>
<event>
 4    1  0.1725802E+006  0.2255723E+02  0.7546771E-02  0.1498134E+00
         21   -1    0    0  504  501  0.00000000000E+00  0.00000000000E+00  0.18546240771E+02  0.18546240771E+02  0.00000000000E+00 0.  1.
         21   -1    0    0  501  502 -0.00000000000E+00 -0.00000000000E+00 -0.18090036358E+03  0.18090036358E+03  0.00000000000E+00 0.  1.
         21    1    1    2  503  502  0.19529752957E+02 -0.11287926257E+02 -0.17302748644E+03  0.17449166053E+03  0.00000000000E+00 0.  1.
         21    1    1    2  504  503 -0.19529752957E+02  0.11287926257E+02  0.10673363636E+02  0.24954943820E+02  0.00000000000E+00 0.  1.
</event>
<event>
 4    1  0.1725802E+006  0.5769782E+02  0.7546771E-02  0.1267862E+00
         21   -1    0    0  503  501  0.00000000000E+00  0.00000000000E+00  0.51511920017E+03  0.51511920017E+03  0.00000000000E+00 0. -1.
         21   -1    0    0  504  502 -0.00000000000E+00 -0.00000000000E+00 -0.73840240331E+01  0.73840240331E+01  0.00000000000E+00 0. -1.
         21    1    1    2  503  502 -0.35629500965E+02 -0.45382561349E+02  0.34615213565E+03  0.35092782624E+03  0.00000000000E+00 0. -1.
         21    1    1    2  504  501  0.35629500965E+02  0.45382561349E+02  0.16158304049E+03  0.17157539797E+03  0.00000000000E+00 0. -1.
</event>
<event>
 4    1  0.1725802E+006  0.2095380E+02  0.7546771E-02  0.1519925E+00
         21   -1    0    0  504  501  0.00000000000E+00  0.00000000000E+00  0.41426701899E+01  0.41426701899E+01  0.00000000000E+00 0.  1.
         21   -1    0    0  503  502 -0.00000000000E+00 -0.00000000000E+00 -0.52458394382E+03  0.52458394382E+03  0.00000000000E+00 0. -1.
         21    1    1    2  503  501  0.75911398715E+01  0.19530392281E+02 -0.49637319368E+03  0.49681526650E+03  0.00000000000E+00 0. -1.
         21    1    1    2  504  502 -0.75911398715E+01 -0.19530392281E+02 -0.24068079952E+02  0.31911347508E+02  0.00000000000E+00 0.  1.
</event>
<event>
 4    1  0.1725802E+006  0.2603789E+02  0.7546771E-02  0.1457520E+00
         21   -1    0    0  503  501  0.00000000000E+00  0.00000000000E+00  0.18579842909E+02  0.18579842909E+02  0.00000000000E+00 0. -1.
         21   -1    0    0  504  502 -0.00000000000E+00 -0.00000000000E+00 -0.51748665440E+02  0.51748665440E+02  0.00000000000E+00 0. -1.
         21    1    1    2  503  502 -0.19003258947E+02 -0.17800220631E+02  0.25103964158E+01  0.26158627550E+02  0.00000000000E+00 0. -1.
         21    1    1    2  504  501  0.19003258947E+02  0.17800220631E+02 -0.35679218946E+02  0.44169880799E+02  0.00000000000E+00 0. -1.
</event>
<event>
 4    1  0.1725802E+006  0.3906194E+02  0.7546771E-02  0.1354072E+00
         21   -1    0    0  502  501  0.00000000000E+00  0.00000000000E+00  0.28783510568E+03  0.28783510568E+03  0.00000000000E+00 0. -1.
         21   -1    0    0  504  502 -0.00000000000E+00 -0.00000000000E+00 -0.40997324238E+02  0.40997324238E+02  0.00000000000E+00 0.  1.
         21    1    1    2  503  501 -0.37429585032E+02  0.11174126640E+02  0.27683755377E+03  0.27957980277E+03  0.00000000000E+00 0. -1.
         21    1    1    2  504  503  0.37429585032E+02 -0.11174126640E+02 -0.29999772321E+02  0.49252627150E+02  0.00000000000E+00 0.  1.
</event>
<event>
 4    1  0.1725802E+006  0.3065068E+02  0.7546771E-02  0.1414025E+00
         21   -1    0    0  504  501  0.00000000000E+00  0.00000000000E+00  0.18609371834E+04  0.18609371834E+04  0.00000000000E+00 0.  1.
         21   -1    0    0  503  502 -0.00000000000E+00 -0.00000000000E+00 -0.79268784624E+00  0.79268784624E+00  0.00000000000E+00 0.  1.
         21    1    1    2  503  501  0.20018883633E+02 -0.23210089596E+02  0.14910191482E+04  0.14913341558E+04  0.00000000000E+00 0.  1.
         21    1    1    2  504  502 -0.20018883633E+02  0.23210089596E+02  0.36912534741E+03  0.37039571550E+03  0.00000000000E+00 0.  1.
</event>
<event>
 4    1  0.1725802E+006  0.2346923E+02  0.7546771E-02  0.1486689E+00
         21   -1    0    0  504  501  0.00000000000E+00  0.00000000000E+00  0.53201615036E+02  0.53201615036E+02  0.00000000000E+00 0. -1.
         21   -1    0    0  503  502 -0.00000000000E+00 -0.00000000000E+00 -0.14057846176E+02  0.14057846176E+02  0.00000000000E+00 0. -1.
         21    1    1    2  503  501  0.23426618151E+02 -0.14135943621E+01  0.23079464217E+01  0.23582436339E+02  0.00000000000E+00 0. -1.
         21    1    1    2  504  502 -0.23426618151E+02  0.14135943621E+01  0.36835822438E+02  0.43677024872E+02  0.00000000000E+00 0. -1.
</event>
<event>
 4    1  0.1725802E+006  0.2178991E+02  0.7546771E-02  0.1508279E+00
         21   -1    0    0  504  501  0.00000000000E+00  0.00000000000E+00  0.57567343946E+02  0.57567343946E+02  0.00000000000E+00 0. -1.
         21   -1    0    0  503  502 -0.00000000000E+00 -0.00000000000E+00 -0.26157606049E+02  0.26157606049E+02  0.00000000000E+00 0. -1.
         21    1    1    2  503  501 -0.18374757438E+01 -0.21712298990E+02 -0.18934671630E+02  0.28867317753E+02  0.00000000000E+00 0. -1.
         21    1    1    2  504  502  0.18374757438E+01  0.21712298990E+02  0.50344409527E+02  0.54857632241E+02  0.00000000000E+00 0. -1.
</event>
<event>
 4    1  0.1725802E+006  0.2389140E+02  0.7546771E-02  0.1481598E+00
         21   -1    0    0  503  501  0.00000000000E+00  0.00000000000E+00  0.38405757105E+02  0.38405757105E+02  0.00000000000E+00 0. -1.
         21   -1    0    0  504  502 -0.00000000000E+00 -0.00000000000E+00 -0.35453711273E+02  0.35453711273E+02  0.00000000000E+00 0. -1.
         21    1    1    2  503  502  0.23882975428E+02 -0.63455842725E+00 -0.26668120199E+02  0.35804857417E+02  0.00000000000E+00 0. -1.
         21    1    1    2  504  501 -0.23882975428E+02  0.63455842725E+00  0.29620166031E+02  0.38054610961E+02  0.00000000000E+00 0. -1.
</event>
<event>
 4    1  0.1725802E+006  0.2412775E+02  0.7546771E-02  0.1478803E+00
         21   -1    0    0  502  501  0.00000000000E+00  0.00000000000E+00  0.13574796697E+02  0.13574796697E+02  0.00000000000E+00 0.  1.
         21   -1    0    0  503  502 -0.00000000000E+00 -0.00000000000E+00 -0.64769951400E+02  0.64769951400E+02  0.00000000000E+00 0.  1.
         21    1    1    2  503  504 -0.21082886004E+01  0.24035457671E+02 -0.48367997996E+02  0.54051931847E+02  0.00000000000E+00 0.  1.
         21    1    1    2  504  501  0.21082886004E+01 -0.24035457671E+02 -0.28271567070E+01  0.24292816250E+02  0.00000000000E+00 0.  1.
</event>
<event>
 4    1  0.1725802E+006  0.3179730E+02  0.7546771E-02  0.1404595E+00
         21   -1    0    0  503  501  0.00000000000E+00  0.00000000000E+00  0.65123712100E+02  0.65123712100E+02  0.00000000000E+00 0.  1.
         21   -1    0    0  504  502 -0.00000000000E+00 -0.00000000000E+00 -0.18833212697E+02  0.18833212697E+02  0.00000000000E+00 0.  1.
         21    1    1    2  503  502  0.12884158768E+02  0.29070028386E+02  0.40738188322E+02  0.51678506995E+02  0.00000000000E+00 0.  1.
         21    1    1    2  504  501 -0.12884158768E+02 -0.29070028386E+02  0.55523110814E+01  0.32278417803E+02  0.00000000000E+00 0.  1.
</event>
<event>
 4    1  0.1725802E+006  0.3590633E+02  0.7546771E-02  0.1374301E+00
         21   -1    0    0  504  501  0.00000000000E+00  0.00000000000E+00  0.44976601917E+02  0.44976601917E+02  0.00000000000E+00 0. -1.
         21   -1    0    0  503  502 -0.00000000000E+00 -0.00000000000E+00 -0.24423452942E+03  0.24423452942E+03  0.00000000000E+00 0.  1.
         21    1    1    2  503  501  0.22236374843E+02  0.28192336802E+02 -0.23548374934E+03  0.23820550040E+03  0.00000000000E+00 0.  1.
         21    1    1    2  504  502 -0.22236374843E+02 -0.28192336802E+02  0.36225821828E+02  0.51005630941E+02  0.00000000000E+00 0. -1.
</event>
<event>
 4    1  0.1725802E+006  0.2073014E+02  0.7546771E-02  0.1523153E+00
         21   -1    0    0  502  501  0.00000000000E+00  0.00000000000E+00  0.34258230612E+02  0.34258230612E+02  0.00000000000E+00 0.  1.
         21   -1    0    0  503  502 -0.00000000000E+00 -0.00000000000E+00 -0.19605211427E+02  0.19605211427E+02  0.00000000000E+00 0.  1.
         21    1    1    2  503  504  0.20705712084E+02  0.10061351839E+01 -0.88362212039E+01  0.22534809209E+02  0.00000000000E+00 0.  1.
         21    1    1    2  504  501 -0.20705712084E+02 -0.10061351839E+01  0.23489240389E+02  0.31328632830E+02  0.00000000000E+00 0.  1.
</event>
<event>
 4    1  0.1725802E+006  0.5101920E+02  0.7546771E-02  0.1293813E+00
         21   -1    0    0  503  501  0.00000000000E+00  0.00000000000E+00  0.47141676191E+02  0.47141676191E+02  0.00000000000E+00 0.  1.
         21   -1    0    0  504  502 -0.00000000000E+00 -0.00000000000E+00 -0.32255712946E+03  0.32255712946E+03  0.00000000000E+00 0.  1.
         21    1    1    2  503  502 -0.36124934887E+02 -0.36027037248E+02 -0.30599369338E+03  0.31021782464E+03  0.00000000000E+00 0.  1.
         21    1    1    2  504  501  0.36124934887E+02  0.36027037248E+02  0.30578240116E+02  0.59480981011E+02  0.00000000000E+00 0.  1.
</event>
<event>
 4    1  0.1725802E+006  0.2263446E+02  0.7546771E-02  0.1497140E+00
         21   -1    0    0  503  501  0.00000000000E+00  0.00000000000E+00  0.51355263382E+03  0.51355263382E+03  0.00000000000E+00 0.  1.
         21   -1    0    0  504  502 -0.00000000000E+00 -0.00000000000E+00 -0.14038996112E+01  0.14038996112E+01  0.00000000000E+00 0. -1.
         21    1    1    2  503  502 -0.70429815405E+01 -0.21510818107E+02  0.39458943717E+03  0.39523808370E+03  0.00000000000E+00 0.  1.
         21    1    1    2  504  501  0.70429815405E+01  0.21510818107E+02  0.11755929704E+03  0.11971844972E+03  0.00000000000E+00 0. -1.
</event>
<event>
 4    1  0.1725802E+006  0.2154192E+02  0.7546771E-02  0.1511667E+00
         21   -1    0    0  503  501  0.00000000000E+00  0.00000000000E+00  0.12074254520E+03  0.12074254520E+03  0.00000000000E+00 0. -1.
         21   -1    0    0  504  502 -0.00000000000E+00 -0.00000000000E+00 -0.45247874308E+01  0.45247874308E+01  0.00000000000E+00 0. -1.
         21    1    1    2  503  502 -0.82400694619E+01 -0.19903651951E+02  0.33802158288E+02  0.40082914198E+02  0.00000000000E+00 0. -1.
         21    1    1    2  504  501  0.82400694619E+01  0.19903651951E+02  0.82415599481E+02  0.85184418432E+02  0.00000000000E+00 0. -1.
</event>
<event>
 4    1  0.1725802E+006  0.2692449E+02  0.7546771E-02  0.1448368E+00
         21   -1    0    0  504  501  0.00000000000E+00  0.00000000000E+00  0.17024640051E+02  0.17024640051E+02  0.00000000000E+00 0. -1.
         21   -1    0    0  503  502 -0.00000000000E+00 -0.00000000000E+00 -0.33179175925E+03  0.33179175925E+03  0.00000000000E+00 0. -1.
         21    1    1    2  503  501  0.63065223609E+01  0.26175482340E+02  0.54489965023E+01  0.27470341514E+02  0.00000000000E+00 0. -1.
         21    1    1    2  504  502 -0.63065223609E+01 -0.26175482340E+02 -0.32021611570E+03  0.32134605779E+03  0.00000000000E+00 0. -1.
</event>
<event>
 4    1  0.1725802E+006  0.2718223E+02  0.7546771E-02  0.1445786E+00
         21   -1    0    0  503  501  0.00000000000E+00  0.00000000000E+00  0.19244971323E+01  0.19244971323E+01  0.00000000000E+00 0.  1.
         21   -1    0    0  504  502 -0.00000000000E+00 -0.00000000000E+00 -0.42642793888E+03  0.42642793888E+03  0.00000000000E+00 0. -1.
         21    1    1    2  503  502 -0.57140569505E+01 -0.26574856481E+02 -0.14463890729E+03  0.14717094464E+03  0.00000000000E+00 0.  1.
         21    1    1    2  504  501  0.57140569505E+01  0.26574856481E+02 -0.27986453446E+03  0.28118149137E+03  0.00000000000E+00 0. -1.
</event>
<event>
 4    1  0.1725802E+006  0.2428254E+02  0.7546771E-02  0.1476992E+00
         21   -1    0    0  504  501  0.00000000000E+00  0.00000000000E+00  0.69005044003E+01  0.69005044003E+01  0.00000000000E+00 0. -1.
         21   -1    0    0  501  502 -0.00000000000E+00 -0.00000000000E+00 -0.85870363510E+02  0.85870363510E+02  0.00000000000E+00 0. -1.
         21    1    1    2  503  502  0.21855899733E+02 -0.10581189196E+02 -0.36236040748E+02  0.43619864363E+02  0.00000000000E+00 0. -1.
         21    1    1    2  504  503 -0.21855899733E+02  0.10581189196E+02 -0.42733818362E+02  0.49151003547E+02  0.00000000000E+00 0. -1.
</event>
<event>
 4    1  0.1725802E+006  0.3376081E+02  0.7546771E-02  0.1389491E+00
         21   -1    0    0  504  501  0.00000000000E+00  0.00000000000E+00  0.76982227823E+01  0.76982227823E+01  0.00000000000E+00 0. -1.
         21   -1    0    0  501  502 -0.00000000000E+00 -0.00000000000E+00 -0.20469830177E+03  0.20469830177E+03  0.00000000000E+00 0. -1.
         21    1    1    2  503  502  0.25172494054E+02 -0.22497511002E+02 -0.15436231122E+03  0.15801112487E+03  0.00000000000E+00 0. -1.
         21    1    1    2  504  503 -0.25172494054E+02  0.22497511002E+02 -0.42637767767E+02  0.54385399680E+02  0.00000000000E+00 0. -1.
</event>
<event>
 4    1  0.1725802E+006  0.2361706E+02  0.7546771E-02  0.1484892E+00
         21   -1    0    0  504  501  0.00000000000E+00  0.00000000000E+00  0.14431100574E+03  0.14431100574E+03  0.00000000000E+00 0.  1.
         21   -1    0    0  503  502 -0.00000000000E+00 -0.00000000000E+00 -0.28765029238E+02  0.28765029238E+02  0.00000000000E+00 0. -1.
         21    1    1    2  503  501  0.23223188752E+02  0.42952169429E+01 -0.22741540993E+02  0.32786324453E+02  0.00000000000E+00 0. -1.
         21    1    1    2  504  502 -0.23223188752E+02 -0.42952169429E+01  0.13828751749E+03  0.14028971052E+03  0.00000000000E+00 0.  1.
</event>
<event>
 4    1  0.1725802E+006  0.2591722E+02  0.7546771E-02  0.1458799E+00
         21   -1    0    0  504  501  0.00000000000E+00  0.00000000000E+00  0.62556146272E+02  0.62556146272E+02  0.00000000000E+00 0. -1.
         21   -1    0    0  503  502 -0.00000000000E+00 -0.00000000000E+00 -0.36098734525E+03  0.36098734525E+03  0.00000000000E+00 0.  1.
         21    1    1    2  503  501 -0.48592488708E+01  0.25457611403E+02 -0.35781398748E+03  0.35875137897E+03  0.00000000000E+00 0.  1.
         21    1    1    2  504  502  0.48592488708E+01 -0.25457611403E+02  0.59382788504E+02  0.64792112548E+02  0.00000000000E+00 0. -1.
</event>
<event>
 4    1  0.1725802E+006  0.2085151E+02  0.7546771E-02  0.1521396E+00
         21   -1    0    0  504  501  0.00000000000E+00  0.00000000000E+00  0.15234826789E+02  0.15234826789E+02  0.00000000000E+00 0.  1.
         21   -1    0    0  503  502 -0.00000000000E+00 -0.00000000000E+00 -0.15483097604E+03  0.15483097604E+03  0.00000000000E+00 0. -1.
         21    1    1    2  503  501  0.20733338065E+02 -0.22168016779E+01 -0.14659539863E+03  0.14807091685E+03  0.00000000000E+00 0. -1.
         21    1    1    2  504  502 -0.20733338065E+02  0.22168016779E+01  0.69992493857E+01  0.21994885973E+02  0.00000000000E+00 0.  1.
</event>
<event>
 4    1  0.1725802E+006  0.3388378E+02  0.7546771E-02  0.1388585E+00
         21   -1    0    0  503  501  0.00000000000E+00  0.00000000000E+00  0.14694711066E+02  0.14694711066E+02  0.00000000000E+00 0.  1.
         21   -1    0    0  501  502 -0.00000000000E+00 -0.00000000000E+00 -0.29307071794E+03  0.29307071794E+03  0.00000000000E+00 0.  1.
         21    1    1    2  503  504  0.30214748782E+02 -0.15335557827E+02 -0.74041793338E+01  0.34683313703E+02  0.00000000000E+00 0.  1.
         21    1    1    2  504  502 -0.30214748782E+02  0.15335557827E+02 -0.27097182754E+03  0.27308211530E+03  0.00000000000E+00 0.  1.
</event>
<event>
 4    1  0.1725802E+006  0.2496692E+02  0.7546771E-02  0.1469174E+00
         21   -1    0    0  504  501  0.00000000000E+00  0.00000000000E+00  0.17107467805E+02  0.17107467805E+02  0.00000000000E+00 0. -1.
         21   -1    0    0  501  502 -0.00000000000E+00 -0.00000000000E+00 -0.19914754777E+03  0.19914754777E+03  0.00000000000E+00 0.  1.
         21    1    1    2  503  502  0.24776298399E+02  0.30793253161E+01 -0.18875644887E+03  0.19040048371E+03  0.00000000000E+00 0.  1.
         21    1    1    2  504  503 -0.24776298399E+02 -0.30793253161E+01  0.67163689049E+01  0.25854531866E+02  0.00000000000E+00 0. -1.
</event>
<event>
 4    1  0.1725802E+006  0.2507611E+02  0.7546771E-02  0.1467954E+00
         21   -1    0    0  503  501  0.00000000000E+00  0.00000000000E+00  0.24094960613E+02  0.24094960613E+02  0.00000000000E+00 0. -1.
         21   -1    0    0  504  502 -0.00000000000E+00 -0.00000000000E+00 -0.15543031780E+03  0.15543031780E+03  0.00000000000E+00 0.  1.
         21    1    1    2  503  502  0.24028134345E+02 -0.71735709462E+01 -0.14754857615E+03  0.14966426990E+03  0.00000000000E+00 0.  1.
         21    1    1    2  504  501 -0.24028134345E+02  0.71735709462E+01  0.16213218964E+02  0.29861008513E+02  0.00000000000E+00 0. -1.
</event>
<event>
 4    1  0.1725802E+006  0.2673358E+02  0.7546771E-02  0.1450303E+00
         21   -1    0    0  504  501  0.00000000000E+00  0.00000000000E+00  0.95772155554E+02  0.95772155554E+02  0.00000000000E+00 0. -1.
         21   -1    0    0  503  502 -0.00000000000E+00 -0.00000000000E+00 -0.13312793985E+02  0.13312793985E+02  0.00000000000E+00 0.  1.
         21    1    1    2  503  501  0.26420407844E+02  0.40800030458E+01  0.77386899995E+02  0.81874395670E+02  0.00000000000E+00 0. -1.
         21    1    1    2  504  502 -0.26420407844E+02 -0.40800030458E+01  0.50724615748E+01  0.27210553870E+02  0.00000000000E+00 0.  1.
</event>
<event>
 4    1  0.1725802E+006  0.3425656E+02  0.7546771E-02  0.1385866E+00
         21   -1    0    0  503  501  0.00000000000E+00  0.00000000000E+00  0.24401508428E+03  0.24401508428E+03  0.00000000000E+00 0.  1.
         21   -1    0    0  504  502 -0.00000000000E+00 -0.00000000000E+00 -0.11356874341E+03  0.11356874341E+03  0.00000000000E+00 0.  1.
         21    1    1    2  503  502  0.12952992753E+02  0.31713272060E+02  0.24018857989E+03  0.24261917804E+03  0.00000000000E+00 0.  1.
         21    1    1    2  504  501 -0.12952992753E+02 -0.31713272060E+02 -0.10974223901E+03  0.11496464965E+03  0.00000000000E+00 0.  1.
</event>
<event>
 4    1  0.1725802E+006  0.2083668E+02  0.7546771E-02  0.1521610E+00
         21   -1    0    0  503  501  0.00000000000E+00  0.00000000000E+00  0.22785180084E+01  0.22785180084E+01  0.00000000000E+00 0. -1.
         21   -1    0    0  501  502 -0.00000000000E+00 -0.00000000000E+00 -0.21726077469E+03  0.21726077469E+03  0.00000000000E+00 0. -1.
         21    1    1    2  503  504  0.12603081269E+02 -0.16593052588E+02 -0.69000846095E+02  0.72078317222E+02  0.00000000000E+00 0. -1.
         21    1    1    2  504  502 -0.12603081269E+02  0.16593052588E+02 -0.14598141059E+03  0.14746097548E+03  0.00000000000E+00 0. -1.
</event>
<event>
 4    1  0.1725802E+006  0.2062904E+02  0.7546771E-02  0.1524628E+00
         21   -1    0    0  504  501  0.00000000000E+00  0.00000000000E+00  0.22911974043E+03  0.22911974043E+03  0.00000000000E+00 0. -1.
         21   -1    0    0  503  502 -0.00000000000E+00 -0.00000000000E+00 -0.42533999804E+03  0.42533999804E+03  0.00000000000E+00 0.  1.
         21    1    1    2  503  501 -0.46816286109E+01  0.20090784207E+02 -0.42462474930E+03  0.42512555201E+03  0.00000000000E+00 0.  1.
         21    1    1    2  504  502  0.46816286109E+01 -0.20090784207E+02  0.22840449169E+03  0.22933418646E+03  0.00000000000E+00 0. -1.
</event>
<event>
 4    1  0.1725802E+006  0.2172144E+02  0.7546771E-02  0.1509209E+00
         21   -1    0    0  503  501  0.00000000000E+00  0.00000000000E+00  0.10743352220E+02  0.10743352220E+02  0.00000000000E+00 0.  1.
         21   -1    0    0  504  502 -0.00000000000E+00 -0.00000000000E+00 -0.86137817143E+02  0.86137817143E+02  0.00000000000E+00 0.  1.
         21    1    1    2  503  502  0.61912633029E+00  0.21712616079E+02 -0.71610783473E+02  0.74832648784E+02  0.00000000000E+00 0.  1.
         21    1    1    2  504  501 -0.61912633029E+00 -0.21712616079E+02 -0.37836814509E+01  0.22048520579E+02  0.00000000000E+00 0.  1.
</event>
<event>
 4    1  0.1725802E+006  0.2374442E+02  0.7546771E-02  0.1483356E+00
         21   -1    0    0  504  501  0.00000000000E+00  0.00000000000E+00  0.48344351837E+01  0.48344351837E+01  0.00000000000E+00 0. -1.
         21   -1    0    0  501  502 -0.00000000000E+00 -0.00000000000E+00 -0.21989654885E+03  0.21989654885E+03  0.00000000000E+00 0.  1.
         21    1    1    2  503  502 -0.95794914890E+01 -0.21726272531E+02 -0.18453662175E+03  0.18605795426E+03  0.00000000000E+00 0.  1.
         21    1    1    2  504  503  0.95794914890E+01  0.21726272531E+02 -0.30525491911E+02  0.38673029771E+02  0.00000000000E+00 0. -1.
</event>
<event>
 4    1  0.1725802E+006  0.3365813E+02  0.7546771E-02  0.1390250E+00
         21   -1    0    0  504  501  0.00000000000E+00  0.00000000000E+00  0.18837684533E+03  0.18837684533E+03  0.00000000000E+00 0.  1.
         21   -1    0    0  503  502 -0.00000000000E+00 -0.00000000000E+00 -0.14172284752E+02  0.14172284752E+02  0.00000000000E+00 0.  1.
         21    1    1    2  503  501 -0.19821603678E+02 -0.27202458624E+02  0.16394167329E+03  0.16736111247E+03  0.00000000000E+00 0.  1.
         21    1    1    2  504  502  0.19821603678E+02  0.27202458624E+02  0.10262887285E+02  0.35188017605E+02  0.00000000000E+00 0.  1.
</event>
<event>
 4    1  0.1725802E+006  0.2010800E+02  0.7546771E-02  0.1532391E+00
         21   -1    0    0  504  501  0.00000000000E+00  0.00000000000E+00  0.18697160288E+02  0.18697160288E+02  0.00000000000E+00 0.  1.
         21   -1    0    0  503  502 -0.00000000000E+00 -0.00000000000E+00 -0.73264901626E+02  0.73264901626E+02  0.00000000000E+00 0.  1.
         21    1    1    2  503  501  0.18641085028E+02 -0.75393338981E+01 -0.65886970667E+02  0.68887041671E+02  0.00000000000E+00 0.  1.
         21    1    1    2  504  502 -0.18641085028E+02  0.75393338981E+01  0.11319229328E+02  0.23075020243E+02  0.00000000000E+00 0.  1.
</event>
<event>
 4    1  0.1725802E+006  0.2294123E+02  0.7546771E-02  0.1493238E+00
         21   -1    0    0  504  501  0.00000000000E+00  0.00000000000E+00  0.61681476132E+03  0.61681476132E+03  0.00000000000E+00 0.  1.
         21   -1    0    0  501  502 -0.00000000000E+00 -0.00000000000E+00 -0.15916914256E+02  0.15916914256E+02  0.00000000000E+00 0. -1.
         21    1    1    2  503  502  0.78067733921E+01  0.21572067688E+02 -0.73204460330E+01  0.24080879246E+02  0.00000000000E+00 0. -1.
         21    1    1    2  504  503 -0.78067733921E+01 -0.21572067688E+02  0.60821829310E+03  0.60865079633E+03  0.00000000000E+00 0.  1.
</event>
<event>
 4    1  0.1725802E+006  0.4038485E+02  0.7546771E-02  0.1346245E+00
         21   -1    0    0  503  501  0.00000000000E+00  0.00000000000E+00  0.81642885822E+01  0.81642885822E+01  0.00000000000E+00 0.  1.
         21   -1    0    0  504  502 -0.00000000000E+00 -0.00000000000E+00 -0.54179135536E+03  0.54179135536E+03  0.00000000000E+00 0.  1.
         21    1    1    2  503  502  0.32430571748E+02 -0.24066447310E+02 -0.48529352487E+03  0.48697098594E+03  0.00000000000E+00 0.  1.
         21    1    1    2  504  501 -0.32430571748E+02  0.24066447310E+02 -0.48333541915E+02  0.62984658006E+02  0.00000000000E+00 0.  1.
</event>
<event>
 4    1  0.1725802E+006  0.2065980E+02  0.7546771E-02  0.1524178E+00
         21   -1    0    0  502  501  0.00000000000E+00  0.00000000000E+00  0.25699090646E+01  0.25699090646E+01  0.00000000000E+00 0. -1.
         21   -1    0    0  503  502 -0.00000000000E+00 -0.00000000000E+00 -0.18608483929E+03  0.18608483929E+03  0.00000000000E+00 0. -1.
         21    1    1    2  503  504  0.17667227374E+02  0.10709649706E+02 -0.12268019818E+03  0.12440763057E+03  0.00000000000E+00 0. -1.
         21    1    1    2  504  501 -0.17667227374E+02 -0.10709649706E+02 -0.60834732047E+02  0.64247117781E+02  0.00000000000E+00 0. -1.
</event>
<event>
 4    1  0.1725802E+006  0.2370901E+02  0.7546771E-02  0.1483782E+00
         21   -1    0    0  502  501  0.00000000000E+00  0.00000000000E+00  0.14285430063E+03  0.14285430063E+03  0.00000000000E+00 0.  1.
         21   -1    0    0  503  502 -0.00000000000E+00 -0.00000000000E+00 -0.13954087228E+03  0.13954087228E+03  0.00000000000E+00 0.  1.
         21    1    1    2  503  504 -0.29371713509E+01  0.23526370413E+02 -0.13753582852E+03  0.13956439807E+03  0.00000000000E+00 0.  1.
         21    1    1    2  504  501  0.29371713509E+01 -0.23526370413E+02  0.14084925687E+03  0.14283077484E+03  0.00000000000E+00 0.  1.
</event>
<event>
 4    1  0.1725802E+006  0.2748504E+02  0.7546771E-02  0.1442796E+00
         21   -1    0    0  503  501  0.00000000000E+00  0.00000000000E+00  0.84573226477E+01  0.84573226477E+01  0.00000000000E+00 0.  1.
         21   -1    0    0  504  502 -0.00000000000E+00 -0.00000000000E+00 -0.17656530363E+03  0.17656530363E+03  0.00000000000E+00 0.  1.
         21    1    1    2  503  502 -0.24947883593E+02  0.11533877820E+02 -0.14908306137E+03  0.15159546966E+03  0.00000000000E+00 0.  1.
         21    1    1    2  504  501  0.24947883593E+02 -0.11533877820E+02 -0.19024919608E+02  0.33427156616E+02  0.00000000000E+00 0.  1.
</event>
<event>
 4    1  0.1725802E+006  0.3801760E+02  0.7546771E-02  0.1360511E+00
         21   -1    0    0  504  501  0.00000000000E+00  0.00000000000E+00  0.14837411775E+03  0.14837411775E+03  0.00000000000E+00 0. -1.
         21   -1    0    0  503  502 -0.00000000000E+00 -0.00000000000E+00 -0.31093653821E+02  0.31093653821E+02  0.00000000000E+00 0.  1.
         21    1    1    2  503  501 -0.16168838800E+02  0.34407941721E+02 -0.15720691661E+02  0.41139736848E+02  0.00000000000E+00 0.  1.
         21    1    1    2  504  502  0.16168838800E+02 -0.34407941721E+02  0.13300115559E+03  0.13832803472E+03  0.00000000000E+00 0. -1.
</event>
<event>
 4    1  0.1725802E+006  0.2393249E+02  0.7546771E-02  0.1481109E+00
         21   -1    0    0  503  501  0.00000000000E+00  0.00000000000E+00  0.11312320517E+02  0.11312320517E+02  0.00000000000E+00 0.  1.
         21   -1    0    0  501  502 -0.00000000000E+00 -0.00000000000E+00 -0.22810650775E+03  0.22810650775E+03  0.00000000000E+00 0. -1.
         21    1    1    2  503  504 -0.10894132335E+02  0.21309199485E+02 -0.28059242730E+01  0.24096417017E+02  0.00000000000E+00 0.  1.
         21    1    1    2  504  502  0.10894132335E+02 -0.21309199485E+02 -0.21398826296E+03  0.21532241125E+03  0.00000000000E+00 0. -1.
</event>
<event>
 4    1  0.1725802E+006  0.2467185E+02  0.7546771E-02  0.1472508E+00
         21   -1    0    0  504  501  0.00000000000E+00  0.00000000000E+00  0.24806598922E+01  0.24806598922E+01  0.00000000000E+00 0. -1.
         21   -1    0    0  501  502 -0.00000000000E+00 -0.00000000000E+00 -0.35031305169E+03  0.35031305169E+03  0.00000000000E+00 0. -1.
         21    1    1    2  503  502 -0.11807184052E+02  0.21663119007E+02 -0.27045950319E+03  0.27158247953E+03  0.00000000000E+00 0. -1.
         21    1    1    2  504  503  0.11807184052E+02 -0.21663119007E+02 -0.77372888604E+02  0.81211232051E+02  0.00000000000E+00 0. -1.
</event>
<event>
 4    1  0.1725802E+006  0.2049485E+02  0.7546771E-02  0.1526601E+00
         21   -1    0    0  503  501  0.00000000000E+00  0.00000000000E+00  0.96836841659E+02  0.96836841659E+02  0.00000000000E+00 0. -1.
         21   -1    0    0  504  502 -0.00000000000E+00 -0.00000000000E+00 -0.31498831797E+02  0.31498831797E+02  0.00000000000E+00 0.  1.
         21    1    1    2  503  502 -0.15061046740E+02  0.13899775725E+02 -0.26917094132E+02  0.33831477216E+02  0.00000000000E+00 0.  1.
         21    1    1    2  504  501  0.15061046740E+02 -0.13899775725E+02  0.92255103994E+02  0.94504196241E+02  0.00000000000E+00 0. -1.
</event>
<event>
 4    1  0.1725802E+006  0.2260649E+02  0.7546771E-02  0.1497500E+00
         21   -1    0    0  503  501  0.00000000000E+00  0.00000000000E+00  0.18636563212E+02  0.18636563212E+02  0.00000000000E+00 0.  1.
         21   -1    0    0  501  502 -0.00000000000E+00 -0.00000000000E+00 -0.18388056270E+03  0.18388056270E+03  0.00000000000E+00 0. -1.
         21    1    1    2  503  504  0.20325486081E+02 -0.98958524175E+01  0.10781555735E+02  0.25045862404E+02  0.00000000000E+00 0.  1.
         21    1    1    2  504  502 -0.20325486081E+02  0.98958524175E+01 -0.17602555523E+03  0.17747126351E+03  0.00000000000E+00 0. -1.
</event>
<event>
 4    1  0.1725802E+006  0.3220700E+02  0.7546771E-02  0.1401339E+00
         21   -1    0    0  503  501  0.00000000000E+00  0.00000000000E+00  0.59215500760E+02  0.59215500760E+02  0.00000000000E+00 0.  1.
         21   -1    0    0  504  502 -0.00000000000E+00 -0.00000000000E+00 -0.19497372615E+02  0.19497372615E+02  0.00000000000E+00 0.  1.
         21    1    1    2  503  502  0.18557160917E+02 -0.26323423685E+02  0.73167624954E+01  0.33027653099E+02  0.00000000000E+00 0.  1.
         21    1    1    2  504  501 -0.18557160917E+02  0.26323423685E+02  0.32401365649E+02  0.45685220277E+02  0.00000000000E+00 0.  1.
</event>
<event>
 4    1  0.1725802E+006  0.2995895E+02  0.7546771E-02  0.1419954E+00
         21   -1    0    0  504  501  0.00000000000E+00  0.00000000000E+00  0.59033240798E+03  0.59033240798E+03  0.00000000000E+00 0. -1.
         21   -1    0    0  501  502 -0.00000000000E+00 -0.00000000000E+00 -0.36227399015E+02  0.36227399015E+02  0.00000000000E+00 0.  1.
         21    1    1    2  503  502  0.29200879690E+02 -0.66968107493E+01 -0.29583056985E+02  0.42103395462E+02  0.00000000000E+00 0.  1.
         21    1    1    2  504  503 -0.29200879690E+02  0.66968107493E+01  0.58368806595E+03  0.58445641154E+03  0.00000000000E+00 0. -1.
</event>
<event>
 4    1  0.1725802E+006  0.2229722E+02  0.7546771E-02  0.1501517E+00
         21   -1    0    0  503  501  0.00000000000E+00  0.00000000000E+00  0.30521582166E+02  0.30521582166E+02  0.00000000000E+00 0. -1.
         21   -1    0    0  504  502 -0.00000000000E+00 -0.00000000000E+00 -0.17207483438E+02  0.17207483438E+02  0.00000000000E+00 0. -1.
         21    1    1    2  503  502 -0.17050137843E+02  0.14368679202E+02  0.12170572732E+02  0.25402538910E+02  0.00000000000E+00 0. -1.
         21    1    1    2  504  501  0.17050137843E+02 -0.14368679202E+02  0.11435259967E+01  0.22326526693E+02  0.00000000000E+00 0. -1.
</event>
<event>
 4    1  0.1725802E+006  0.2636709E+02  0.7546771E-02  0.1454071E+00
         21   -1    0    0  504  501  0.00000000000E+00  0.00000000000E+00  0.26805266147E+02  0.26805266147E+02  0.00000000000E+00 0.  1.
         21   -1    0    0  503  502 -0.00000000000E+00 -0.00000000000E+00 -0.38886449366E+03  0.38886449366E+03  0.00000000000E+00 0.  1.
         21    1    1    2  503  501  0.11276445616E+02  0.23834121760E+02  0.19754696713E+02  0.32946496445E+02  0.00000000000E+00 0.  1.
         21    1    1    2  504  502 -0.11276445616E+02 -0.23834121760E+02 -0.38181392423E+03  0.38272326336E+03  0.00000000000E+00 0.  1.
</event>
<event>
 4    1  0.1725802E+006  0.2240211E+02  0.7546771E-02  0.1500146E+00
         21   -1    0    0  503  501  0.00000000000E+00  0.00000000000E+00  0.60280164358E+01  0.60280164358E+01  0.00000000000E+00 0.  1.
         21   -1    0    0  504  502 -0.00000000000E+00 -0.00000000000E+00 -0.95321874254E+02  0.95321874254E+02  0.00000000000E+00 0.  1.
         21    1    1    2  503  502  0.21837925697E+02  0.49959348430E+01 -0.26615974773E+02  0.34788855641E+02  0.00000000000E+00 0.  1.
         21    1    1    2  504  501 -0.21837925697E+02 -0.49959348430E+01 -0.62677883045E+02  0.66561035049E+02  0.00000000000E+00 0.  1.
</event>
<event>
 4    1  0.1725802E+006  0.2005027E+02  0.7546771E-02  0.1533269E+00
         21   -1    0    0  504  501  0.00000000000E+00  0.00000000000E+00  0.17951193705E+02  0.17951193705E+02  0.00000000000E+00 0.  1.
         21   -1    0    0  501  502 -0.00000000000E+00 -0.00000000000E+00 -0.36659037892E+02  0.36659037892E+02  0.00000000000E+00 0.  1.
         21    1    1    2  503  502 -0.16416424176E+02  0.11511480454E+02 -0.26386405365E+02  0.33139938942E+02  0.00000000000E+00 0.  1.
         21    1    1    2  504  503  0.16416424176E+02 -0.11511480454E+02  0.76785611783E+01  0.21470292656E+02  0.00000000000E+00 0.  1.
</event>
<event>
 4    1  0.1725802E+006  0.2458511E+02  0.7546771E-02  0.1473499E+00
         21   -1    0    0  502  501  0.00000000000E+00  0.00000000000E+00  0.60489339522E+01  0.60489339522E+01  0.00000000000E+00 0. -1.
         21   -1    0    0  504  502 -0.00000000000E+00 -0.00000000000E+00 -0.10842690876E+03  0.10842690876E+03  0.00000000000E+00 0. -1.
         21    1    1    2  503  501  0.12010906190E+02 -0.21451476032E+02 -0.35159326300E+02  0.42902283358E+02  0.00000000000E+00 0. -1.
         21    1    1    2  504  503 -0.12010906190E+02  0.21451476032E+02 -0.67218648512E+02  0.71573559359E+02  0.00000000000E+00 0. -1.
</event>
<event>
 4    1  0.1725802E+006  0.2071641E+02  0.7546771E-02  0.1523353E+00
         21   -1    0    0  504  501  0.00000000000E+00  0.00000000000E+00  0.10536204220E+03  0.10536204220E+03  0.00000000000E+00 0. -1.
         21   -1    0    0  503  502 -0.00000000000E+00 -0.00000000000E+00 -0.11036482994E+02  0.11036482994E+02  0.00000000000E+00 0. -1.
         21    1    1    2  503  501  0.88764801329E+01 -0.18718383069E+02  0.93390924302E+02  0.95661039646E+02  0.00000000000E+00 0. -1.
         21    1    1    2  504  502 -0.88764801329E+01  0.18718383069E+02  0.93463490103E+00  0.20737485544E+02  0.00000000000E+00 0. -1.
</event>
<event>
 4    1  0.1725802E+006  0.2926392E+02  0.7546771E-02  0.1426103E+00
         21   -1    0    0  504  501  0.00000000000E+00  0.00000000000E+00  0.15923561595E+02  0.15923561595E+02  0.00000000000E+00 0. -1.
         21   -1    0    0  503  502 -0.00000000000E+00 -0.00000000000E+00 -0.23822198610E+03  0.23822198610E+03  0.00000000000E+00 0. -1.
         21    1    1    2  503  501  0.19752274845E+02  0.21592233042E+02  0.66343037559E+00  0.29271437088E+02  0.00000000000E+00 0. -1.
         21    1    1    2  504  502 -0.19752274845E+02 -0.21592233042E+02 -0.22296185488E+03  0.22487411060E+03  0.00000000000E+00 0. -1.
</event>
<event>
 4    1  0.1725802E+006  0.2172245E+02  0.7546771E-02  0.1509195E+00
         21   -1    0    0  504  501  0.00000000000E+00  0.00000000000E+00  0.66049794838E+03  0.66049794838E+03  0.00000000000E+00 0. -1.
         21   -1    0    0  501  502 -0.00000000000E+00 -0.00000000000E+00 -0.11841429590E+01  0.11841429590E+01  0.00000000000E+00 0.  1.
         21    1    1    2  503  502 -0.21385340607E+02  0.38120834913E+01  0.12128271056E+03  0.12321266434E+03  0.00000000000E+00 0.  1.
         21    1    1    2  504  503  0.21385340607E+02 -0.38120834913E+01  0.53803109486E+03  0.53846942700E+03  0.00000000000E+00 0. -1.
</event>
<event>
 4    1  0.1725802E+006  0.3039776E+02  0.7546771E-02  0.1416171E+00
         21   -1    0    0  503  501  0.00000000000E+00  0.00000000000E+00  0.74931635824E+01  0.74931635824E+01  0.00000000000E+00 0.  1.
         21   -1    0    0  501  502 -0.00000000000E+00 -0.00000000000E+00 -0.23550930155E+03  0.23550930155E+03  0.00000000000E+00 0.  1.
         21    1    1    2  503  504 -0.64403083458E+01  0.29707678076E+02 -0.30146891576E+02  0.42811899980E+02  0.00000000000E+00 0.  1.
         21    1    1    2  504  502  0.64403083458E+01 -0.29707678076E+02 -0.19786924639E+03  0.20019056515E+03  0.00000000000E+00 0.  1.
</event>
<event>
 4    1  0.1725802E+006  0.3256731E+02  0.7546771E-02  0.1398523E+00
         21   -1    0    0  504  501  0.00000000000E+00  0.00000000000E+00  0.20244722756E+03  0.20244722756E+03  0.00000000000E+00 0.  1.
         21   -1    0    0  503  502 -0.00000000000E+00 -0.00000000000E+00 -0.52551691723E+01  0.52551691723E+01  0.00000000000E+00 0.  1.
         21    1    1    2  503  501  0.26183498756E+02 -0.19366311314E+02  0.10434898561E+03  0.10931303865E+03  0.00000000000E+00 0.  1.
         21    1    1    2  504  502 -0.26183498756E+02  0.19366311314E+02  0.92843072772E+02  0.98389358077E+02  0.00000000000E+00 0.  1.
</event>
<event>
 4    1  0.1725802E+006  0.5162355E+02  0.7546771E-02  0.1291283E+00
         21   -1    0    0  503  501  0.00000000000E+00  0.00000000000E+00  0.12330299854E+03  0.12330299854E+03  0.00000000000E+00 0.  1.
         21   -1    0    0  504  502 -0.00000000000E+00 -0.00000000000E+00 -0.23544665647E+02  0.23544665647E+02  0.00000000000E+00 0.  1.
         21    1    1    2  503  502  0.25267232142E+01 -0.51561682303E+02  0.70908083730E+02  0.87709450747E+02  0.00000000000E+00 0.  1.
         21    1    1    2  504  501 -0.25267232142E+01  0.51561682303E+02  0.28850249166E+02  0.59138213442E+02  0.00000000000E+00 0.  1.
</event>
<event>
 4    1  0.1725802E+006  0.2167757E+02  0.7546771E-02  0.1509807E+00
         21   -1    0    0  504  501  0.00000000000E+00  0.00000000000E+00  0.18466120753E+02  0.18466120753E+02  0.00000000000E+00 0.  1.
         21   -1    0    0  503  502 -0.00000000000E+00 -0.00000000000E+00 -0.28859819881E+02  0.28859819881E+02  0.00000000000E+00 0. -1.
         21    1    1    2  503  501 -0.21476662117E+02 -0.29444655219E+01  0.29398135809E+01  0.21876000475E+02  0.00000000000E+00 0.  1.
         21    1    1    2  504  502  0.21476662117E+02  0.29444655219E+01 -0.13333512709E+02  0.25449940158E+02  0.00000000000E+00 0. -1.
</event>
<event>
 4    1  0.1725802E+006  0.2908381E+02  0.7546771E-02  0.1427729E+00
         21   -1    0    0  502  501  0.00000000000E+00  0.00000000000E+00  0.97702575537E+01  0.97702575537E+01  0.00000000000E+00 0. -1.
         21   -1    0    0  503  502 -0.00000000000E+00 -0.00000000000E+00 -0.40480298063E+03  0.40480298063E+03  0.00000000000E+00 0.  1.
         21    1    1    2  503  504 -0.23672106242E+02 -0.16896730043E+02 -0.38130473590E+03  0.38241230331E+03  0.00000000000E+00 0.  1.
         21    1    1    2  504  501  0.23672106242E+02  0.16896730043E+02 -0.13727987171E+02  0.32160934872E+02  0.00000000000E+00 0. -1.
</event>
<event>
 4    1  0.1725802E+006  0.4966022E+02  0.7546771E-02  0.1299652E+00
         21   -1    0    0  504  501  0.00000000000E+00  0.00000000000E+00  0.29758753628E+02  0.29758753628E+02  0.00000000000E+00 0. -1.
         21   -1    0    0  501  502 -0.00000000000E+00 -0.00000000000E+00 -0.27811617994E+03  0.27811617994E+03  0.00000000000E+00 0.  1.
         21    1    1    2  503  502 -0.44233403872E+02  0.22573077995E+02 -0.25315841271E+03  0.25798317735E+03  0.00000000000E+00 0.  1.
         21    1    1    2  504  503  0.44233403872E+02 -0.22573077995E+02  0.48009863994E+01  0.49891756220E+02  0.00000000000E+00 0. -1.
</event>
<event>
 4    1  0.1725802E+006  0.2054495E+02  0.7546771E-02  0.1525862E+00
         21   -1    0    0  503  501  0.00000000000E+00  0.00000000000E+00  0.45392373980E+02  0.45392373980E+02  0.00000000000E+00 0. -1.
         21   -1    0    0  504  502 -0.00000000000E+00 -0.00000000000E+00 -0.16576839092E+02  0.16576839092E+02  0.00000000000E+00 0. -1.
         21    1    1    2  503  502 -0.10183033156E+02 -0.17843783402E+02 -0.61228593912E+01  0.21437914485E+02  0.00000000000E+00 0. -1.
         21    1    1    2  504  501  0.10183033156E+02  0.17843783402E+02  0.34938394279E+02  0.40531298587E+02  0.00000000000E+00 0. -1.
</event>
<event>
 4    1  0.1725802E+006  0.2534578E+02  0.7546771E-02  0.1464972E+00
         21   -1    0    0  504  501  0.00000000000E+00  0.00000000000E+00  0.44266039445E+03  0.44266039445E+03  0.00000000000E+00 0. -1.
         21   -1    0    0  501  502 -0.00000000000E+00 -0.00000000000E+00 -0.40816191991E+01  0.40816191991E+01  0.00000000000E+00 0. -1.
         21    1    1    2  503  502 -0.24633376796E+02 -0.59670080885E+01  0.39973250917E+02  0.47331482406E+02  0.00000000000E+00 0. -1.
         21    1    1    2  504  503  0.24633376796E+02  0.59670080885E+01  0.39860552433E+03  0.39941053124E+03  0.00000000000E+00 0. -1.
</event>
<event>
 4    1  0.1725802E+006  0.2692062E+02  0.7546771E-02  0.1448407E+00
         21   -1    0    0  503  501  0.00000000000E+00  0.00000000000E+00  0.18086066127E+02  0.18086066127E+02  0.00000000000E+00 0.  1.
         21   -1    0    0  504  502 -0.00000000000E+00 -0.00000000000E+00 -0.40153876931E+02  0.40153876931E+02  0.00000000000E+00 0.  1.
         21    1    1    2  503  502  0.23147789488E+02  0.13744072483E+02 -0.97078375863E+01  0.28617508577E+02  0.00000000000E+00 0.  1.
         21    1    1    2  504  501 -0.23147789488E+02 -0.13744072483E+02 -0.12359973218E+02  0.29622434480E+02  0.00000000000E+00 0.  1.
</event>
<event>
 4    1  0.1725802E+006  0.2263182E+02  0.7546771E-02  0.1497174E+00
         21   -1    0    0  503  501  0.00000000000E+00  0.00000000000E+00  0.15720608755E+03  0.15720608755E+03  0.00000000000E+00 0.  1.
         21   -1    0    0  504  502 -0.00000000000E+00 -0.00000000000E+00 -0.72497606912E+01  0.72497606912E+01  0.00000000000E+00 0. -1.
         21    1    1    2  503  502  0.20991115279E+02  0.84600345420E+01  0.13599254870E+03  0.13786287538E+03  0.00000000000E+00 0.  1.
         21    1    1    2  504  501 -0.20991115279E+02 -0.84600345420E+01  0.13963778151E+02  0.26592972857E+02  0.00000000000E+00 0. -1.
</event>
<event>
 4    1  0.1725802E+006  0.2589596E+02  0.7546771E-02  0.1459025E+00
         21   -1    0    0  503  501  0.00000000000E+00  0.00000000000E+00  0.28117291010E+02  0.28117291010E+02  0.00000000000E+00 0. -1.
         21   -1    0    0  501  502 -0.00000000000E+00 -0.00000000000E+00 -0.50195544934E+02  0.50195544934E+02  0.00000000000E+00 0. -1.
         21    1    1    2  503  504 -0.18795183598E+02 -0.17814091428E+02  0.17328497466E+02  0.31158908908E+02  0.00000000000E+00 0. -1.
         21    1    1    2  504  502  0.18795183598E+02  0.17814091428E+02 -0.39406751390E+02  0.47153927037E+02  0.00000000000E+00 0. -1.
</event>
<event>
 4    1  0.1725802E+006  0.2224391E+02  0.7546771E-02  0.1502217E+00
         21   -1    0    0  503  501  0.00000000000E+00  0.00000000000E+00  0.17383116847E+03  0.17383116847E+03  0.00000000000E+00 0. -1.
         21   -1    0    0  501  502 -0.00000000000E+00 -0.00000000000E+00 -0.45630512409E+01  0.45630512409E+01  0.00000000000E+00 0. -1.
         21    1    1    2  503  504  0.17407299912E+02 -0.13848380555E+02  0.13934385449E+03  0.14110811996E+03  0.00000000000E+00 0. -1.
         21    1    1    2  504  502 -0.17407299912E+02  0.13848380555E+02  0.29924262737E+02  0.37286099750E+02  0.00000000000E+00 0. -1.
</event>
<event>
 4    1  0.1725802E+006  0.3359041E+02  0.7546771E-02  0.1390753E+00
         21   -1    0    0  503  501  0.00000000000E+00  0.00000000000E+00  0.10393355186E+02  0.10393355186E+02  0.00000000000E+00 0. -1.
         21   -1    0    0  504  502 -0.00000000000E+00 -0.00000000000E+00 -0.12673113004E+03  0.12673113004E+03  0.00000000000E+00 0. -1.
         21    1    1    2  503  502 -0.20141324457E+02  0.26882013916E+02 -0.32208008028E+02  0.46536774750E+02  0.00000000000E+00 0. -1.
         21    1    1    2  504  501  0.20141324457E+02 -0.26882013916E+02 -0.84129766826E+02  0.90587710476E+02  0.00000000000E+00 0. -1.
</event>
<event>
 4    1  0.1725802E+006  0.4075433E+02  0.7546771E-02  0.1344121E+00
         21   -1    0    0  503  501  0.00000000000E+00  0.00000000000E+00  0.43266186933E+01  0.43266186933E+01  0.00000000000E+00 0.  1.
         21   -1    0    0  504  502 -0.00000000000E+00 -0.00000000000E+00 -0.45935639745E+03  0.45935639745E+03  0.00000000000E+00 0.  1.
         21    1    1    2  503  502  0.35672487140E+02  0.19707597647E+02 -0.32149003471E+03  0.32406289230E+03  0.00000000000E+00 0.  1.
         21    1    1    2  504  501 -0.35672487140E+02 -0.19707597647E+02 -0.13353974404E+03  0.13962012384E+03  0.00000000000E+00 0.  1.
</event>
<event>
 4    1  0.1725802E+006  0.2637256E+02  0.7546771E-02  0.1454015E+00
         21   -1    0    0  504  501  0.00000000000E+00  0.00000000000E+00  0.11315464447E+03  0.11315464447E+03  0.00000000000E+00 0.  1.
         21   -1    0    0  503  502 -0.00000000000E+00 -0.00000000000E+00 -0.63512577679E+01  0.63512577679E+01  0.00000000000E+00 0.  1.
         21    1    1    2  503  501  0.12682502159E+02 -0.23122852690E+02  0.42674586365E+02  0.50166049266E+02  0.00000000000E+00 0.  1.
         21    1    1    2  504  502 -0.12682502159E+02  0.23122852690E+02  0.64128800339E+02  0.69339852974E+02  0.00000000000E+00 0.  1.
</event>
<event>
 4    1  0.1725802E+006  0.8381405E+02  0.7546771E-02  0.1195259E+00
         21   -1    0    0  503  501  0.00000000000E+00  0.00000000000E+00  0.34690639605E+03  0.34690639605E+03  0.00000000000E+00 0.  1.
         21   -1    0    0  504  502 -0.00000000000E+00 -0.00000000000E+00 -0.42638415565E+02  0.42638415565E+02  0.00000000000E+00 0.  1.
         21    1    1    2  503  502 -0.35985234359E+02  0.75695829072E+02  0.29327077705E+03  0.30501236746E+03  0.00000000000E+00 0.  1.
         21    1    1    2  504  501  0.35985234359E+02 -0.75695829072E+02  0.10997203429E+02  0.84532444151E+02  0.00000000000E+00 0.  1.
</event>
<event>
 4    1  0.1725802E+006  0.2716011E+02  0.7546771E-02  0.1446006E+00
         21   -1    0    0  502  501  0.00000000000E+00  0.00000000000E+00  0.58792580432E+01  0.58792580432E+01  0.00000000000E+00 0. -1.
         21   -1    0    0  504  502 -0.00000000000E+00 -0.00000000000E+00 -0.13346352143E+03  0.13346352143E+03  0.00000000000E+00 0. -1.
         21    1    1    2  503  501  0.27133954787E+02 -0.11916025771E+01 -0.46741595550E+02  0.54059672341E+02  0.00000000000E+00 0. -1.
         21    1    1    2  504  503 -0.27133954787E+02  0.11916025771E+01 -0.80842667833E+02  0.85283107129E+02  0.00000000000E+00 0. -1.
</event>
<event>
 4    1  0.1725802E+006  0.3151792E+02  0.7546771E-02  0.1406849E+00
         21   -1    0    0  504  501  0.00000000000E+00  0.00000000000E+00  0.13660391437E+03  0.13660391437E+03  0.00000000000E+00 0. -1.
         21   -1    0    0  501  502 -0.00000000000E+00 -0.00000000000E+00 -0.68215414742E+02  0.68215414742E+02  0.00000000000E+00 0.  1.
         21    1    1    2  503  502  0.29093812116E+02  0.12121432192E+02 -0.62603039385E+02  0.70089368396E+02  0.00000000000E+00 0.  1.
         21    1    1    2  504  503 -0.29093812116E+02 -0.12121432192E+02  0.13099153902E+03  0.13472996072E+03  0.00000000000E+00 0. -1.
</event>
<event>
 4    1  0.1725802E+006  0.2250391E+02  0.7546771E-02  0.1498823E+00
         21   -1    0    0  504  501  0.00000000000E+00  0.00000000000E+00  0.51299006885E+01  0.51299006885E+01  0.00000000000E+00 0. -1.
         21   -1    0    0  503  502 -0.00000000000E+00 -0.00000000000E+00 -0.14732159855E+03  0.14732159855E+03  0.00000000000E+00 0.  1.
         21    1    1    2  503  501 -0.22474095651E+02  0.11580709836E+01 -0.11487746212E+03  0.11706091323E+03  0.00000000000E+00 0.  1.
         21    1    1    2  504  502  0.22474095651E+02 -0.11580709836E+01 -0.27314235744E+02  0.35390586008E+02  0.00000000000E+00 0. -1.
</event>
<event>
 4    1  0.1725802E+006  0.2648400E+02  0.7546771E-02  0.1452861E+00
         21   -1    0    0  503  501  0.00000000000E+00  0.00000000000E+00  0.51936774395E+00  0.51936774395E+00  0.00000000000E+00 0.  1.
         21   -1    0    0  501  502 -0.00000000000E+00 -0.00000000000E+00 -0.19574764983E+04  0.19574764983E+04  0.00000000000E+00 0.  1.
         21    1    1    2  503  504 -0.89925715051E+01 -0.24910559039E+02 -0.43332095071E+03  0.43412952977E+03  0.00000000000E+00 0.  1.
         21    1    1    2  504  502  0.89925715051E+01  0.24910559039E+02 -0.15236361798E+04  0.15238663363E+04  0.00000000000E+00 0.  1.
</event>
<event>
 4    1  0.1725802E+006  0.3511649E+02  0.7546771E-02  0.1379746E+00
         21   -1    0    0  504  501  0.00000000000E+00  0.00000000000E+00  0.47123482308E+03  0.47123482308E+03  0.00000000000E+00 0. -1.
         21   -1    0    0  501  502 -0.00000000000E+00 -0.00000000000E+00 -0.51509724601E+01  0.51509724601E+01  0.00000000000E+00 0.  1.
         21    1    1    2  503  502 -0.11925357442E+02 -0.33029592713E+02  0.65973319858E+02  0.74737186714E+02  0.00000000000E+00 0.  1.
         21    1    1    2  504  503  0.11925357442E+02  0.33029592713E+02  0.40011053076E+03  0.40164860882E+03  0.00000000000E+00 0. -1.
</event>
<event>
 4    1  0.1725802E+006  0.6139943E+02  0.7546771E-02  0.1255151E+00
         21   -1    0    0  504  501  0.00000000000E+00  0.00000000000E+00  0.26779044359E+03  0.26779044359E+03  0.00000000000E+00 0.  1.
         21   -1    0    0  503  502 -0.00000000000E+00 -0.00000000000E+00 -0.40552417081E+02  0.40552417081E+02  0.00000000000E+00 0. -1.
         21    1    1    2  503  501 -0.52993172781E+02  0.31009900352E+02  0.23818821455E+03  0.24597462437E+03  0.00000000000E+00 0.  1.
         21    1    1    2  504  502  0.52993172781E+02 -0.31009900352E+02 -0.10950188045E+02  0.62368236302E+02  0.00000000000E+00 0. -1.
</event>
<event>
 4    1  0.1725802E+006  0.2645738E+02  0.7546771E-02  0.1453136E+00
         21   -1    0    0  502  501  0.00000000000E+00  0.00000000000E+00  0.92886355567E+01  0.92886355567E+01  0.00000000000E+00 0.  1.
         21   -1    0    0  503  502 -0.00000000000E+00 -0.00000000000E+00 -0.17196612999E+03  0.17196612999E+03  0.00000000000E+00 0. -1.
         21    1    1    2  503  504 -0.24985513732E+02  0.87015568233E+01 -0.14926536333E+03  0.15159202379E+03  0.00000000000E+00 0. -1.
         21    1    1    2  504  501  0.24985513732E+02 -0.87015568233E+01 -0.13412131103E+02  0.29662741754E+02  0.00000000000E+00 0.  1.
</event>
<event>
 4    1  0.1725802E+006  0.2069998E+02  0.7546771E-02  0.1523592E+00
         21   -1    0    0  503  501  0.00000000000E+00  0.00000000000E+00  0.36774662383E+02  0.36774662383E+02  0.00000000000E+00 0. -1.
         21   -1    0    0  504  502 -0.00000000000E+00 -0.00000000000E+00 -0.11663241224E+02  0.11663241224E+02  0.00000000000E+00 0. -1.
         21    1    1    2  503  502  0.65187626960E+01  0.19646750544E+02  0.13316000825E+02  0.24613105290E+02  0.00000000000E+00 0. -1.
         21    1    1    2  504  501 -0.65187626960E+01 -0.19646750544E+02  0.11795420334E+02  0.23824798318E+02  0.00000000000E+00 0. -1.
</event>
<event>
 4    1  0.1725802E+006  0.2114705E+02  0.7546771E-02  0.1517176E+00
         21   -1    0    0  504  501  0.00000000000E+00  0.00000000000E+00  0.33378046953E+03  0.33378046953E+03  0.00000000000E+00 0. -1.
         21   -1    0    0  503  502 -0.00000000000E+00 -0.00000000000E+00 -0.44705742344E+01  0.44705742344E+01  0.00000000000E+00 0. -1.
         21    1    1    2  503  501 -0.10166427311E+02 -0.18542963739E+02  0.30618662219E+03  0.30691602330E+03  0.00000000000E+00 0. -1.
         21    1    1    2  504  502  0.10166427311E+02  0.18542963739E+02  0.23123273101E+02  0.31335020463E+02  0.00000000000E+00 0. -1.
</event>
<event>
 4    1  0.1725802E+006  0.2831650E+02  0.7546771E-02  0.1434814E+00
         21   -1    0    0  503  501  0.00000000000E+00  0.00000000000E+00  0.91938449243E+00  0.91938449243E+00  0.00000000000E+00 0. -1.
         21   -1    0    0  504  502 -0.00000000000E+00 -0.00000000000E+00 -0.11921636878E+04  0.11921636878E+04  0.00000000000E+00 0. -1.
         21    1    1    2  503  502 -0.18787740655E+02 -0.21185966530E+02 -0.90470109996E+03  0.90514413473E+03  0.00000000000E+00 0. -1.
         21    1    1    2  504  501  0.18787740655E+02  0.21185966530E+02 -0.28654320330E+03  0.28793893751E+03  0.00000000000E+00 0. -1.
</event>
<event>
 4    1  0.1725802E+006  0.2128899E+02  0.7546771E-02  0.1515179E+00
         21   -1    0    0  503  501  0.00000000000E+00  0.00000000000E+00  0.48164860737E+02  0.48164860737E+02  0.00000000000E+00 0. -1.
         21   -1    0    0  504  502 -0.00000000000E+00 -0.00000000000E+00 -0.30805511822E+03  0.30805511822E+03  0.00000000000E+00 0.  1.
         21    1    1    2  503  502 -0.20747019674E+02  0.47730838697E+01  0.45423508559E+02  0.50164890958E+02  0.00000000000E+00 0. -1.
         21    1    1    2  504  501  0.20747019674E+02 -0.47730838697E+01 -0.30531376604E+03  0.30605508800E+03  0.00000000000E+00 0.  1.
</event>
<event>
 4    1  0.1725802E+006  0.2776425E+02  0.7546771E-02  0.1440079E+00
         21   -1    0    0  504  501  0.00000000000E+00  0.00000000000E+00  0.34445914352E+02  0.34445914352E+02  0.00000000000E+00 0. -1.
         21   -1    0    0  503  502 -0.00000000000E+00 -0.00000000000E+00 -0.39046705856E+02  0.39046705856E+02  0.00000000000E+00 0. -1.
         21    1    1    2  503  501 -0.25178170171E+02 -0.11700997096E+02  0.21708036983E+02  0.35243332077E+02  0.00000000000E+00 0. -1.
         21    1    1    2  504  502  0.25178170171E+02  0.11700997096E+02 -0.26308828487E+02  0.38249288131E+02  0.00000000000E+00 0. -1.
</event>
<event>
 4    1  0.1725802E+006  0.2393947E+02  0.7546771E-02  0.1481027E+00
         21   -1    0    0  504  501  0.00000000000E+00  0.00000000000E+00  0.27029238254E+02  0.27029238254E+02  0.00000000000E+00 0.  1.
         21   -1    0    0  503  502 -0.00000000000E+00 -0.00000000000E+00 -0.24887047704E+03  0.24887047704E+03  0.00000000000E+00 0. -1.
         21    1    1    2  503  501  0.13696193873E+02 -0.19634466758E+02 -0.24286325871E+03  0.24404028446E+03  0.00000000000E+00 0. -1.
         21    1    1    2  504  502 -0.13696193873E+02  0.19634466758E+02  0.21022019919E+02  0.31859430832E+02  0.00000000000E+00 0.  1.
</event>
<event>
 4    1  0.1725802E+006  0.3434489E+02  0.7546771E-02  0.1385228E+00
         21   -1    0    0  504  501  0.00000000000E+00  0.00000000000E+00  0.12380961508E+03  0.12380961508E+03  0.00000000000E+00 0. -1.
         21   -1    0    0  503  502 -0.00000000000E+00 -0.00000000000E+00 -0.95626746200E+01  0.95626746200E+01  0.00000000000E+00 0. -1.
         21    1    1    2  503  501  0.34055047174E+02 -0.44525354344E+01  0.53067510866E+02  0.63211802848E+02  0.00000000000E+00 0. -1.
         21    1    1    2  504  502 -0.34055047174E+02  0.44525354344E+01  0.61179429595E+02  0.70160486852E+02  0.00000000000E+00 0. -1.
</event>
<event>
 4    1  0.1725802E+006  0.2308057E+02  0.7546771E-02  0.1491489E+00
         21   -1    0    0  504  501  0.00000000000E+00  0.00000000000E+00  0.33493476142E+03  0.33493476142E+03  0.00000000000E+00 0. -1.
         21   -1    0    0  501  502 -0.00000000000E+00 -0.00000000000E+00 -0.23928976979E+02  0.23928976979E+02  0.00000000000E+00 0. -1.
         21    1    1    2  503  502  0.95566750053E+01 -0.21009111885E+02 -0.17863264664E+02  0.29185767830E+02  0.00000000000E+00 0. -1.
         21    1    1    2  504  503 -0.95566750053E+01  0.21009111885E+02  0.32886904910E+03  0.32967797057E+03  0.00000000000E+00 0. -1.
</event>
<event>
 4    1  0.1725802E+006  0.2063897E+02  0.7546771E-02  0.1524482E+00
         21   -1    0    0  503  501  0.00000000000E+00  0.00000000000E+00  0.12850609812E+02  0.12850609812E+02  0.00000000000E+00 0.  1.
         21   -1    0    0  504  502 -0.00000000000E+00 -0.00000000000E+00 -0.41204539503E+02  0.41204539503E+02  0.00000000000E+00 0.  1.
         21    1    1    2  503  502 -0.19631971997E+02  0.63681025369E+01 -0.22255529087E+01  0.20758616046E+02  0.00000000000E+00 0.  1.
         21    1    1    2  504  501  0.19631971997E+02 -0.63681025369E+01 -0.26128376782E+02  0.33296533268E+02  0.00000000000E+00 0.  1.
</event>
<event>
 4    1  0.1725802E+006  0.2222473E+02  0.7546771E-02  0.1502470E+00
         21   -1    0    0  504  501  0.00000000000E+00  0.00000000000E+00  0.15750154817E+03  0.15750154817E+03  0.00000000000E+00 0. -1.
         21   -1    0    0  503  502 -0.00000000000E+00 -0.00000000000E+00 -0.31434672788E+01  0.31434672788E+01  0.00000000000E+00 0. -1.
         21    1    1    2  503  501 -0.19037421394E+02  0.11468003614E+02  0.81071070363E+02  0.84062220825E+02  0.00000000000E+00 0. -1.
         21    1    1    2  504  502  0.19037421394E+02 -0.11468003614E+02  0.73287010529E+02  0.76582794624E+02  0.00000000000E+00 0. -1.
</event>
<event>
 4    1  0.1725802E+006  0.2679433E+02  0.7546771E-02  0.1449685E+00
         21   -1    0    0  504  501  0.00000000000E+00  0.00000000000E+00  0.38700674353E+03  0.38700674353E+03  0.00000000000E+00 0. -1.
         21   -1    0    0  501  502 -0.00000000000E+00 -0.00000000000E+00 -0.81019338820E+01  0.81019338820E+01  0.00000000000E+00 0.  1.
         21    1    1    2  503  502 -0.26657415540E+02  0.27052226428E+01  0.15983267267E+02  0.31199372836E+02  0.00000000000E+00 0.  1.
         21    1    1    2  504  503  0.26657415540E+02 -0.27052226428E+01  0.36292154238E+03  0.36390930457E+03  0.00000000000E+00 0. -1.
</event>
<event>
 4    1  0.1725802E+006  0.7212374E+02  0.7546771E-02  0.1223417E+00
         21   -1    0    0  503  501  0.00000000000E+00  0.00000000000E+00  0.42967311262E+03  0.42967311262E+03  0.00000000000E+00 0. -1.
         21   -1    0    0  501  502 -0.00000000000E+00 -0.00000000000E+00 -0.55136270420E+02  0.55136270420E+02  0.00000000000E+00 0. -1.
         21    1    1    2  503  504 -0.60981527255E+02 -0.38510862348E+02  0.40141290583E+03  0.40784084414E+03  0.00000000000E+00 0. -1.
         21    1    1    2  504  502  0.60981527255E+02  0.38510862348E+02 -0.26876063622E+02  0.76968538904E+02  0.00000000000E+00 0. -1.
</event>
<event>
 4    1  0.1725802E+006  0.2852623E+02  0.7546771E-02  0.1432851E+00
         21   -1    0    0  504  501  0.00000000000E+00  0.00000000000E+00  0.30058997993E+02  0.30058997993E+02  0.00000000000E+00 0.  1.
         21   -1    0    0  503  502 -0.00000000000E+00 -0.00000000000E+00 -0.92239469344E+02  0.92239469344E+02  0.00000000000E+00 0.  1.
         21    1    1    2  503  501 -0.28455738903E+02  0.20042045097E+01 -0.82488600137E+02  0.87281814056E+02  0.00000000000E+00 0.  1.
         21    1    1    2  504  502  0.28455738903E+02 -0.20042045097E+01  0.20308128786E+02  0.35016653281E+02  0.00000000000E+00 0.  1.
</event>
<event>
 4    1  0.1725802E+006  0.2682636E+02  0.7546771E-02  0.1449360E+00
         21   -1    0    0  503  501  0.00000000000E+00  0.00000000000E+00  0.12857182918E+04  0.12857182918E+04  0.00000000000E+00 0.  1.
         21   -1    0    0  501  502 -0.00000000000E+00 -0.00000000000E+00 -0.80696762683E+01  0.80696762683E+01  0.00000000000E+00 0.  1.
         21    1    1    2  503  504  0.25641777726E+02 -0.78837168187E+01  0.12628802188E+04  0.12631651123E+04  0.00000000000E+00 0.  1.
         21    1    1    2  504  502 -0.25641777726E+02  0.78837168187E+01  0.14768396701E+02  0.30622855793E+02  0.00000000000E+00 0.  1.
</event>
<event>
 4    1  0.1725802E+006  0.2863938E+02  0.7546771E-02  0.1431801E+00
         21   -1    0    0  502  501  0.00000000000E+00  0.00000000000E+00  0.20871371968E+03  0.20871371968E+03  0.00000000000E+00 0. -1.
         21   -1    0    0  503  502 -0.00000000000E+00 -0.00000000000E+00 -0.17780860585E+02  0.17780860585E+02  0.00000000000E+00 0. -1.
         21    1    1    2  503  504  0.28953883930E+01  0.28492649413E+02 -0.44857124967E+01  0.28988548793E+02  0.00000000000E+00 0. -1.
         21    1    1    2  504  501 -0.28953883930E+01 -0.28492649413E+02  0.19541857159E+03  0.19750603147E+03  0.00000000000E+00 0. -1.
</event>
<event>
 4    1  0.1725802E+006  0.2525458E+02  0.7546771E-02  0.1465975E+00
         21   -1    0    0  502  501  0.00000000000E+00  0.00000000000E+00  0.36088616701E+01  0.36088616701E+01  0.00000000000E+00 0. -1.
         21   -1    0    0  503  502 -0.00000000000E+00 -0.00000000000E+00 -0.42770806568E+03  0.42770806568E+03  0.00000000000E+00 0. -1.
         21    1    1    2  503  504  0.10772915136E+02  0.22841592805E+02 -0.37724984635E+03  0.37809422190E+03  0.00000000000E+00 0. -1.
         21    1    1    2  504  501 -0.10772915136E+02 -0.22841592805E+02 -0.46849357662E+02  0.53222705453E+02  0.00000000000E+00 0. -1.
</event>
<event>
 4    1  0.1725802E+006  0.4720212E+02  0.7546771E-02  0.1310781E+00
         21   -1    0    0  503  501  0.00000000000E+00  0.00000000000E+00  0.48615778692E+02  0.48615778692E+02  0.00000000000E+00 0.  1.
         21   -1    0    0  504  502 -0.00000000000E+00 -0.00000000000E+00 -0.46269668976E+02  0.46269668976E+02  0.00000000000E+00 0.  1.
         21    1    1    2  503  502 -0.76871218267E+01 -0.46571964480E+02 -0.34539699349E+01  0.47328317378E+02  0.00000000000E+00 0.  1.
         21    1    1    2  504  501  0.76871218267E+01  0.46571964480E+02  0.58000796507E+01  0.47557130291E+02  0.00000000000E+00 0.  1.
</event>
<event>
 4    1  0.1725802E+006  0.2907571E+02  0.7546771E-02  0.1427802E+00
         21   -1    0    0  502  501  0.00000000000E+00  0.00000000000E+00  0.48187533871E+03  0.48187533871E+03  0.00000000000E+00 0.  1.
         21   -1    0    0  504  502 -0.00000000000E+00 -0.00000000000E+00 -0.30346678693E+01  0.30346678693E+01  0.00000000000E+00 0. -1.
         21    1    1    2  503  501 -0.16112649329E+01  0.29031032144E+02  0.39690119725E+03  0.39796476902E+03  0.00000000000E+00 0.  1.
         21    1    1    2  504  503  0.16112649329E+01 -0.29031032144E+02  0.81939473589E+02  0.86945237558E+02  0.00000000000E+00 0. -1.
</event>
<event>
 4    1  0.1725802E+006  0.2648986E+02  0.7546771E-02  0.1452801E+00
         21   -1    0    0  504  501  0.00000000000E+00  0.00000000000E+00  0.95146749155E+01  0.95146749155E+01  0.00000000000E+00 0. -1.
         21   -1    0    0  501  502 -0.00000000000E+00 -0.00000000000E+00 -0.37068928874E+03  0.37068928874E+03  0.00000000000E+00 0.  1.
         21    1    1    2  503  502 -0.13904753583E+02 -0.22547073798E+02 -0.35073068070E+03  0.35172961646E+03  0.00000000000E+00 0.  1.
         21    1    1    2  504  503  0.13904753583E+02  0.22547073798E+02 -0.10443933119E+02  0.28474347193E+02  0.00000000000E+00 0. -1.
</event>
<event>
 4    1  0.1725802E+006  0.2480665E+02  0.7546771E-02  0.1470978E+00
         21   -1    0    0  503  501  0.00000000000E+00  0.00000000000E+00  0.34376885312E+03  0.34376885312E+03  0.00000000000E+00 0.  1.
         21   -1    0    0  504  502 -0.00000000000E+00 -0.00000000000E+00 -0.18229287455E+02  0.18229287455E+02  0.00000000000E+00 0. -1.
         21    1    1    2  503  502 -0.24697841657E+02 -0.23208372352E+01 -0.91128875413E+01  0.26427530859E+02  0.00000000000E+00 0. -1.
         21    1    1    2  504  501  0.24697841657E+02  0.23208372352E+01  0.33465245321E+03  0.33557060972E+03  0.00000000000E+00 0.  1.
</event>
<event>
 4    1  0.1725802E+006  0.2032621E+02  0.7546771E-02  0.1529106E+00
         21   -1    0    0  504  501  0.00000000000E+00  0.00000000000E+00  0.29000371865E+02  0.29000371865E+02  0.00000000000E+00 0. -1.
         21   -1    0    0  503  502 -0.00000000000E+00 -0.00000000000E+00 -0.75559901368E+02  0.75559901368E+02  0.00000000000E+00 0. -1.
         21    1    1    2  503  501  0.12542513184E+02 -0.15995001094E+02  0.23814564685E+02  0.31309554262E+02  0.00000000000E+00 0. -1.
         21    1    1    2  504  502 -0.12542513184E+02  0.15995001094E+02 -0.70374094188E+02  0.73250718970E+02  0.00000000000E+00 0. -1.
</event>
<event>
 4    1  0.1725802E+006  0.2495601E+02  0.7546771E-02  0.1469296E+00
         21   -1    0    0  503  501  0.00000000000E+00  0.00000000000E+00  0.13818033622E+03  0.13818033622E+03  0.00000000000E+00 0.  1.
         21   -1    0    0  504  502 -0.00000000000E+00 -0.00000000000E+00 -0.45566351099E+01  0.45566351099E+01  0.00000000000E+00 0.  1.
         21    1    1    2  503  502  0.28911842630E+01  0.24787974580E+02  0.59376143466E+02  0.64407523187E+02  0.00000000000E+00 0.  1.
         21    1    1    2  504  501 -0.28911842630E+01 -0.24787974580E+02  0.74247557645E+02  0.78329448143E+02  0.00000000000E+00 0.  1.
</event>
<event>
 4    1  0.1725802E+006  0.2145505E+02  0.7546771E-02  0.1512866E+00
         21   -1    0    0  503  501  0.00000000000E+00  0.00000000000E+00  0.50133177743E+02  0.50133177743E+02  0.00000000000E+00 0. -1.
         21   -1    0    0  501  502 -0.00000000000E+00 -0.00000000000E+00 -0.21595950538E+02  0.21595950538E+02  0.00000000000E+00 0. -1.
         21    1    1    2  503  504 -0.11810055628E+02 -0.17912053425E+02  0.41460273186E+02  0.46682687631E+02  0.00000000000E+00 0. -1.
         21    1    1    2  504  502  0.11810055628E+02  0.17912053425E+02 -0.12923045980E+02  0.25046440650E+02  0.00000000000E+00 0. -1.
</event>
<event>
 4    1  0.1725802E+006  0.3112416E+02  0.7546771E-02  0.1410073E+00
         21   -1    0    0  503  501  0.00000000000E+00  0.00000000000E+00  0.80262623077E+01  0.80262623077E+01  0.00000000000E+00 0. -1.
         21   -1    0    0  504  502 -0.00000000000E+00 -0.00000000000E+00 -0.21442777227E+03  0.21442777227E+03  0.00000000000E+00 0. -1.
         21    1    1    2  503  502 -0.30959458878E+02 -0.31976777391E+01 -0.17674018603E+03  0.17945976316E+03  0.00000000000E+00 0. -1.
         21    1    1    2  504  501  0.30959458878E+02  0.31976777391E+01 -0.29661323931E+02  0.42994271412E+02  0.00000000000E+00 0. -1.
</event>
<event>
 4    1  0.1725802E+006  0.2563704E+02  0.7546771E-02  0.1461801E+00
         21   -1    0    0  504  501  0.00000000000E+00  0.00000000000E+00  0.18407292694E+01  0.18407292694E+01  0.00000000000E+00 0.  1.
         21   -1    0    0  503  502 -0.00000000000E+00 -0.00000000000E+00 -0.42087680690E+03  0.42087680690E+03  0.00000000000E+00 0.  1.
         21    1    1    2  503  501  0.79205676806E+01 -0.24382827255E+02 -0.12721845906E+03  0.12977593761E+03  0.00000000000E+00 0.  1.
         21    1    1    2  504  502 -0.79205676806E+01  0.24382827255E+02 -0.29181761857E+03  0.29294159856E+03  0.00000000000E+00 0.  1.
</event>
<event>
 4    1  0.1725802E+006  0.2700064E+02  0.7546771E-02  0.1447602E+00
         21   -1    0    0  502  501  0.00000000000E+00  0.00000000000E+00  0.14901866486E+02  0.14901866486E+02  0.00000000000E+00 0. -1.
         21   -1    0    0  503  502 -0.00000000000E+00 -0.00000000000E+00 -0.20862809877E+03  0.20862809877E+03  0.00000000000E+00 0.  1.
         21    1    1    2  503  504 -0.20740659032E+02  0.17287562981E+02 -0.19464977083E+03  0.19651353148E+03  0.00000000000E+00 0.  1.
         21    1    1    2  504  501  0.20740659032E+02 -0.17287562981E+02  0.92353853809E+00  0.27016433783E+02  0.00000000000E+00 0. -1.
</event>
<event>
 4    1  0.1725802E+006  0.2255713E+02  0.7546771E-02  0.1498135E+00
         21   -1    0    0  502  501  0.00000000000E+00  0.00000000000E+00  0.30441896483E+01  0.30441896483E+01  0.00000000000E+00 0.  1.
         21   -1    0    0  504  502 -0.00000000000E+00 -0.00000000000E+00 -0.18080216895E+03  0.18080216895E+03  0.00000000000E+00 0.  1.
         21    1    1    2  503  501 -0.79229718974E+01  0.21119912015E+02 -0.63615843880E+02  0.67496664805E+02  0.00000000000E+00 0.  1.
         21    1    1    2  504  503  0.79229718974E+01 -0.21119912015E+02 -0.11414213542E+03  0.11634969379E+03  0.00000000000E+00 0.  1.
</event>
<event>
 4    1  0.1725802E+006  0.3140675E+02  0.7546771E-02  0.1407753E+00
         21   -1    0    0  504  501  0.00000000000E+00  0.00000000000E+00  0.29360117594E+02  0.29360117594E+02  0.00000000000E+00 0.  1.
         21   -1    0    0  503  502 -0.00000000000E+00 -0.00000000000E+00 -0.23128610774E+03  0.23128610774E+03  0.00000000000E+00 0. -1.
         21    1    1    2  503  501 -0.26192399951E+02 -0.17330376420E+02 -0.22144969035E+03  0.22366570841E+03  0.00000000000E+00 0. -1.
         21    1    1    2  504  502  0.26192399951E+02  0.17330376420E+02  0.19523700207E+02  0.36980516922E+02  0.00000000000E+00 0.  1.
</event>
<event>
 4    1  0.1725802E+006  0.3416652E+02  0.7546771E-02  0.1386519E+00
         21   -1    0    0  503  501  0.00000000000E+00  0.00000000000E+00  0.24014155241E+03  0.24014155241E+03  0.00000000000E+00 0. -1.
         21   -1    0    0  504  502 -0.00000000000E+00 -0.00000000000E+00 -0.57861084375E+01  0.57861084375E+01  0.00000000000E+00 0. -1.
         21    1    1    2  503  502  0.23214911421E+02  0.25068287297E+02  0.16634293043E+03  0.16981555184E+03  0.00000000000E+00 0. -1.
         21    1    1    2  504  501 -0.23214911421E+02 -0.25068287297E+02  0.68012513540E+02  0.76112109012E+02  0.00000000000E+00 0. -1.
</event>
<event>
 4    1  0.1725802E+006  0.2401048E+02  0.7546771E-02  0.1480185E+00
         21   -1    0    0  503  501  0.00000000000E+00  0.00000000000E+00  0.18366414735E+03  0.18366414735E+03  0.00000000000E+00 0. -1.
         21   -1    0    0  504  502 -0.00000000000E+00 -0.00000000000E+00 -0.43154063832E+01  0.43154063832E+01  0.00000000000E+00 0. -1.
         21    1    1    2  503  502  0.22008422380E+02  0.95985640140E+01  0.40598589514E+02  0.47167240298E+02  0.00000000000E+00 0. -1.
         21    1    1    2  504  501 -0.22008422380E+02 -0.95985640140E+01  0.13875015145E+03  0.14081231343E+03  0.00000000000E+00 0. -1.
</event>
<event>
 4    1  0.1725802E+006  0.2220650E+02  0.7546771E-02  0.1502710E+00
         21   -1    0    0  504  501  0.00000000000E+00  0.00000000000E+00  0.28667498351E+02  0.28667498351E+02  0.00000000000E+00 0.  1.
         21   -1    0    0  503  502 -0.00000000000E+00 -0.00000000000E+00 -0.83742035176E+02  0.83742035176E+02  0.00000000000E+00 0.  1.
         21    1    1    2  503  501  0.10416482620E+02  0.19611877556E+02  0.22563453492E+02  0.31658147212E+02  0.00000000000E+00 0.  1.
         21    1    1    2  504  502 -0.10416482620E+02 -0.19611877556E+02 -0.77637990316E+02  0.80751386315E+02  0.00000000000E+00 0.  1.
</event>
<event>
 4    1  0.1725802E+006  0.2027823E+02  0.7546771E-02  0.1529824E+00
         21   -1    0    0  504  501  0.00000000000E+00  0.00000000000E+00  0.41040788414E+02  0.41040788414E+02  0.00000000000E+00 0.  1.
         21   -1    0    0  501  502 -0.00000000000E+00 -0.00000000000E+00 -0.19892522225E+02  0.19892522225E+02  0.00000000000E+00 0. -1.
         21    1    1    2  503  502  0.20247412703E+02  0.11175379731E+01 -0.10889624283E+02  0.23017179004E+02  0.00000000000E+00 0. -1.
         21    1    1    2  504  503 -0.20247412703E+02 -0.11175379731E+01  0.32037890472E+02  0.37916131635E+02  0.00000000000E+00 0.  1.
</event>
<event>
 4    1  0.1725802E+006  0.2852394E+02  0.7546771E-02  0.1432872E+00
         21   -1    0    0  503  501  0.00000000000E+00  0.00000000000E+00  0.17840949469E+02  0.17840949469E+02  0.00000000000E+00 0. -1.
         21   -1    0    0  504  502 -0.00000000000E+00 -0.00000000000E+00 -0.85941097677E+02  0.85941097677E+02  0.00000000000E+00 0.  1.
         21    1    1    2  503  502 -0.79561181361E+01  0.27391884782E+02 -0.69600529328E+02  0.75218673549E+02  0.00000000000E+00 0.  1.
         21    1    1    2  504  501  0.79561181361E+01 -0.27391884782E+02  0.15003811207E+01  0.28563373597E+02  0.00000000000E+00 0. -1.
</event>
<event>
 4    1  0.1725802E+006  0.2267878E+02  0.7546771E-02  0.1496572E+00
         21   -1    0    0  503  501  0.00000000000E+00  0.00000000000E+00  0.23401349906E+02  0.23401349906E+02  0.00000000000E+00 0.  1.
         21   -1    0    0  501  502 -0.00000000000E+00 -0.00000000000E+00 -0.39141354732E+02  0.39141354732E+02  0.00000000000E+00 0.  1.
         21    1    1    2  503  504  0.98661920683E+01  0.20420212983E+02  0.12837291629E+02  0.26059986580E+02  0.00000000000E+00 0.  1.
         21    1    1    2  504  502 -0.98661920683E+01 -0.20420212983E+02 -0.28577296455E+02  0.36482718058E+02  0.00000000000E+00 0.  1.
</event>
<event>
 4    1  0.1725802E+006  0.2004736E+02  0.7546771E-02  0.1533313E+00
         21   -1    0    0  504  501  0.00000000000E+00  0.00000000000E+00  0.60496782141E+02  0.60496782141E+02  0.00000000000E+00 0. -1.
         21   -1    0    0  501  502 -0.00000000000E+00 -0.00000000000E+00 -0.23141604796E+02  0.23141604796E+02  0.00000000000E+00 0.  1.
         21    1    1    2  503  502  0.17992636298E+02 -0.88409130756E+01 -0.16632508995E+02  0.26048743932E+02  0.00000000000E+00 0.  1.
         21    1    1    2  504  503 -0.17992636298E+02  0.88409130756E+01  0.53987686340E+02  0.57589643004E+02  0.00000000000E+00 0. -1.
</event>
<event>
 4    1  0.1725802E+006  0.3254895E+02  0.7546771E-02  0.1398665E+00
         21   -1    0    0  504  501  0.00000000000E+00  0.00000000000E+00  0.24730034687E+02  0.24730034687E+02  0.00000000000E+00 0.  1.
         21   -1    0    0  501  502 -0.00000000000E+00 -0.00000000000E+00 -0.46851727742E+02  0.46851727742E+02  0.00000000000E+00 0.  1.
         21    1    1    2  503  502 -0.31174143323E+02 -0.93598639589E+01 -0.21533970218E+02  0.39027504898E+02  0.00000000000E+00 0.  1.
         21    1    1    2  504  503  0.31174143323E+02  0.93598639589E+01 -0.58772283686E+00  0.32554257530E+02  0.00000000000E+00 0.  1.
</event>
<event>
 4    1  0.1725802E+006  0.3008006E+02  0.7546771E-02  0.1418902E+00
         21   -1    0    0  504  501  0.00000000000E+00  0.00000000000E+00  0.29986836655E+03  0.29986836655E+03  0.00000000000E+00 0. -1.
         21   -1    0    0  503  502 -0.00000000000E+00 -0.00000000000E+00 -0.56784998063E+01  0.56784998063E+01  0.00000000000E+00 0. -1.
         21    1    1    2  503  501  0.23277159780E+02 -0.19052134022E+02  0.42510968105E+02  0.52076793176E+02  0.00000000000E+00 0. -1.
         21    1    1    2  504  502 -0.23277159780E+02  0.19052134022E+02  0.25167889864E+03  0.25347007318E+03  0.00000000000E+00 0. -1.
</event>
<event>
 4    1  0.1725802E+006  0.2572157E+02  0.7546771E-02  0.1460891E+00
         21   -1    0    0  503  501  0.00000000000E+00  0.00000000000E+00  0.77549291194E+02  0.77549291194E+02  0.00000000000E+00 0. -1.
         21   -1    0    0  504  502 -0.00000000000E+00 -0.00000000000E+00 -0.19742678609E+02  0.19742678609E+02  0.00000000000E+00 0. -1.
         21    1    1    2  503  502  0.23635158028E+02  0.10147823081E+02 -0.77550331151E+01  0.26865210717E+02  0.00000000000E+00 0. -1.
         21    1    1    2  504  501 -0.23635158028E+02 -0.10147823081E+02  0.65561645700E+02  0.70426759085E+02  0.00000000000E+00 0. -1.
</event>
<event>
 4    1  0.1725802E+006  0.2594105E+02  0.7546771E-02  0.1458546E+00
         21   -1    0    0  504  501  0.00000000000E+00  0.00000000000E+00  0.35956381450E+03  0.35956381450E+03  0.00000000000E+00 0. -1.
         21   -1    0    0  503  502 -0.00000000000E+00 -0.00000000000E+00 -0.30323565354E+02  0.30323565354E+02  0.00000000000E+00 0. -1.
         21    1    1    2  503  501  0.18607770168E+02  0.18074540422E+02 -0.24211897155E+02  0.35484561233E+02  0.00000000000E+00 0. -1.
         21    1    1    2  504  502 -0.18607770168E+02 -0.18074540422E+02  0.35345214630E+03  0.35440281863E+03  0.00000000000E+00 0. -1.
</event>
<event>
 4    1  0.1725802E+006  0.2452377E+02  0.7546771E-02  0.1474202E+00
         21   -1    0    0  503  501  0.00000000000E+00  0.00000000000E+00  0.33118406483E+03  0.33118406483E+03  0.00000000000E+00 0. -1.
         21   -1    0    0  504  502 -0.00000000000E+00 -0.00000000000E+00 -0.99777133563E+02  0.99777133563E+02  0.00000000000E+00 0.  1.
         21    1    1    2  503  502 -0.38085791141E+01 -0.24226228885E+02  0.32921417483E+03  0.33012632181E+03  0.00000000000E+00 0. -1.
         21    1    1    2  504  501  0.38085791141E+01  0.24226228885E+02 -0.97807243568E+02  0.10083487658E+03  0.00000000000E+00 0.  1.
</event>
<event>
 4    1  0.1725802E+006  0.3055926E+02  0.7546771E-02  0.1414798E+00
         21   -1    0    0  502  501  0.00000000000E+00  0.00000000000E+00  0.72902145771E+02  0.72902145771E+02  0.00000000000E+00 0. -1.
         21   -1    0    0  504  502 -0.00000000000E+00 -0.00000000000E+00 -0.15450147812E+02  0.15450147812E+02  0.00000000000E+00 0. -1.
         21    1    1    2  503  501  0.29994179965E+02 -0.58495653809E+01  0.46987855688E+02  0.56051109080E+02  0.00000000000E+00 0. -1.
         21    1    1    2  504  503 -0.29994179965E+02  0.58495653809E+01  0.10464142271E+02  0.32301184504E+02  0.00000000000E+00 0. -1.
</event>
<event>
 4    1  0.1725802E+006  0.3569251E+02  0.7546771E-02  0.1375759E+00
         21   -1    0    0  503  501  0.00000000000E+00  0.00000000000E+00  0.15888442677E+04  0.15888442677E+04  0.00000000000E+00 0. -1.
         21   -1    0    0  501  502 -0.00000000000E+00 -0.00000000000E+00 -0.33932860097E+01  0.33932860097E+01  0.00000000000E+00 0. -1.
         21    1    1    2  503  504 -0.53563422829E+01 -0.35288314783E+02  0.14884559245E+04  0.14888838083E+04  0.00000000000E+00 0. -1.
         21    1    1    2  504  502  0.53563422829E+01  0.35288314783E+02  0.96995057244E+02  0.10335374542E+03  0.00000000000E+00 0. -1.
</event>
<event>
 4    1  0.1725802E+006  0.2132374E+02  0.7546771E-02  0.1514693E+00
         21   -1    0    0  502  501  0.00000000000E+00  0.00000000000E+00  0.23924497561E+02  0.23924497561E+02  0.00000000000E+00 0.  1.
         21   -1    0    0  503  502 -0.00000000000E+00 -0.00000000000E+00 -0.32868711439E+02  0.32868711439E+02  0.00000000000E+00 0.  1.
         21    1    1    2  503  504 -0.19525742690E+02 -0.85701403996E+01 -0.22913927487E+02  0.31300958563E+02  0.00000000000E+00 0.  1.
         21    1    1    2  504  501  0.19525742690E+02  0.85701403996E+01  0.13969713609E+02  0.25492250438E+02  0.00000000000E+00 0.  1.
</event>
<event>
 4    1  0.1725802E+006  0.2126624E+02  0.7546771E-02  0.1515497E+00
         21   -1    0    0  502  501  0.00000000000E+00  0.00000000000E+00  0.66303536106E+00  0.66303536106E+00  0.00000000000E+00 0. -1.
         21   -1    0    0  503  502 -0.00000000000E+00 -0.00000000000E+00 -0.79582682382E+03  0.79582682382E+03  0.00000000000E+00 0.  1.
         21    1    1    2  503  504  0.20568013705E+02  0.54045980156E+01 -0.54813255057E+03  0.54854493513E+03  0.00000000000E+00 0.  1.
         21    1    1    2  504  501 -0.20568013705E+02 -0.54045980156E+01 -0.24703123789E+03  0.24794492405E+03  0.00000000000E+00 0. -1.
</event>
<event>
 4    1  0.1725802E+006  0.2157671E+02  0.7546771E-02  0.1511188E+00
         21   -1    0    0  503  501  0.00000000000E+00  0.00000000000E+00  0.24515347872E+01  0.24515347872E+01  0.00000000000E+00 0.  1.
         21   -1    0    0  504  502 -0.00000000000E+00 -0.00000000000E+00 -0.26564850676E+03  0.26564850676E+03  0.00000000000E+00 0. -1.
         21    1    1    2  503  502  0.19686951571E+02 -0.88305408908E+01 -0.60018631571E+02  0.63779233691E+02  0.00000000000E+00 0.  1.
         21    1    1    2  504  501 -0.19686951571E+02  0.88305408908E+01 -0.20317834041E+03  0.20432080786E+03  0.00000000000E+00 0. -1.
</event>
<event>
 4    1  0.1725802E+006  0.2454912E+02  0.7546771E-02  0.1473911E+00
         21   -1    0    0  504  501  0.00000000000E+00  0.00000000000E+00  0.70614524532E+02  0.70614524532E+02  0.00000000000E+00 0.  1.
         21   -1    0    0  503  502 -0.00000000000E+00 -0.00000000000E+00 -0.19663497644E+02  0.19663497644E+02  0.00000000000E+00 0. -1.
         21    1    1    2  503  501  0.15668776686E+02 -0.18898374360E+02  0.59434117584E+02  0.64304536771E+02  0.00000000000E+00 0.  1.
         21    1    1    2  504  502 -0.15668776686E+02  0.18898374360E+02 -0.84830906970E+01  0.25973485405E+02  0.00000000000E+00 0. -1.
</event>
<event>
 4    1  0.1725802E+006  0.2716249E+02  0.7546771E-02  0.1445983E+00
         21   -1    0    0  504  501  0.00000000000E+00  0.00000000000E+00  0.62135397227E+02  0.62135397227E+02  0.00000000000E+00 0.  1.
         21   -1    0    0  501  502 -0.00000000000E+00 -0.00000000000E+00 -0.18460651193E+02  0.18460651193E+02  0.00000000000E+00 0.  1.
         21    1    1    2  503  502  0.24835745349E+02 -0.10999399234E+02 -0.22333842293E+01  0.27254156300E+02  0.00000000000E+00 0.  1.
         21    1    1    2  504  503 -0.24835745349E+02  0.10999399234E+02  0.45908130264E+02  0.53341892119E+02  0.00000000000E+00 0.  1.
</event>
<event>
 4    1  0.1725802E+006  0.2942214E+02  0.7546771E-02  0.1424685E+00
         21   -1    0    0  502  501  0.00000000000E+00  0.00000000000E+00  0.35054401325E+01  0.35054401325E+01  0.00000000000E+00 0. -1.
         21   -1    0    0  503  502 -0.00000000000E+00 -0.00000000000E+00 -0.40359649716E+03  0.40359649716E+03  0.00000000000E+00 0.  1.
         21    1    1    2  503  504  0.18873104711E+02  0.22571406302E+02 -0.32685806424E+03  0.32817961031E+03  0.00000000000E+00 0.  1.
         21    1    1    2  504  501 -0.18873104711E+02 -0.22571406302E+02 -0.73232992785E+02  0.78922326982E+02  0.00000000000E+00 0. -1.
</event>
<event>
 4    1  0.1725802E+006  0.2407766E+02  0.7546771E-02  0.1479392E+00
         21   -1    0    0  504  501  0.00000000000E+00  0.00000000000E+00  0.82026780885E+03  0.82026780885E+03  0.00000000000E+00 0.  1.
         21   -1    0    0  503  502 -0.00000000000E+00 -0.00000000000E+00 -0.59156683109E+01  0.59156683109E+01  0.00000000000E+00 0. -1.
         21    1    1    2  503  501  0.17946603261E+02  0.16051578007E+02  0.19545611717E+02  0.31012330814E+02  0.00000000000E+00 0. -1.
         21    1    1    2  504  502 -0.17946603261E+02 -0.16051578007E+02  0.79480652882E+03  0.79517114635E+03  0.00000000000E+00 0.  1.
</event>
<event>
 4    1  0.1725802E+006  0.3368993E+02  0.7546771E-02  0.1390015E+00
         21   -1    0    0  503  501  0.00000000000E+00  0.00000000000E+00  0.47948241430E+02  0.47948241430E+02  0.00000000000E+00 0.  1.
         21   -1    0    0  504  502 -0.00000000000E+00 -0.00000000000E+00 -0.28996694324E+03  0.28996694324E+03  0.00000000000E+00 0. -1.
         21    1    1    2  503  502  0.33573402343E+02  0.27996944308E+01  0.40904966098E+02  0.52992715398E+02  0.00000000000E+00 0.  1.
         21    1    1    2  504  501 -0.33573402343E+02 -0.27996944308E+01 -0.28292366791E+03  0.28492246927E+03  0.00000000000E+00 0. -1.
</event>
<event>
 4    1  0.1725802E+006  0.2829022E+02  0.7546771E-02  0.1435061E+00
         21   -1    0    0  503  501  0.00000000000E+00  0.00000000000E+00  0.49249229951E+03  0.49249229951E+03  0.00000000000E+00 0. -1.
         21   -1    0    0  504  502 -0.00000000000E+00 -0.00000000000E+00 -0.62726698630E+01  0.62726698630E+01  0.00000000000E+00 0.  1.
         21    1    1    2  503  502 -0.17839473772E+02 -0.21956546889E+02  0.28448454196E+02  0.40120460141E+02  0.00000000000E+00 0.  1.
         21    1    1    2  504  501  0.17839473772E+02  0.21956546889E+02  0.45777117545E+03  0.45864450923E+03  0.00000000000E+00 0. -1.
</event>
<event>
 4    1  0.1725802E+006  0.2287191E+02  0.7546771E-02  0.1494113E+00
         21   -1    0    0  502  501  0.00000000000E+00  0.00000000000E+00  0.36148496378E+02  0.36148496378E+02  0.00000000000E+00 0.  1.
         21   -1    0    0  504  502 -0.00000000000E+00 -0.00000000000E+00 -0.14295911893E+03  0.14295911893E+03  0.00000000000E+00 0.  1.
         21    1    1    2  503  501  0.80938659056E+01 -0.21391900792E+02  0.31494888598E+02  0.38923670082E+02  0.00000000000E+00 0.  1.
         21    1    1    2  504  503 -0.80938659056E+01  0.21391900792E+02 -0.13830551115E+03  0.14018394523E+03  0.00000000000E+00 0.  1.
</event>
<event>
 4    1  0.1725802E+006  0.2033003E+02  0.7546771E-02  0.1529049E+00
         21   -1    0    0  504  501  0.00000000000E+00  0.00000000000E+00  0.44169233730E+02  0.44169233730E+02  0.00000000000E+00 0.  1.
         21   -1    0    0  503  502 -0.00000000000E+00 -0.00000000000E+00 -0.11989057302E+02  0.11989057302E+02  0.00000000000E+00 0.  1.
         21    1    1    2  503  501 -0.19999881527E+02 -0.36489799486E+01  0.29346921027E+01  0.20540757861E+02  0.00000000000E+00 0.  1.
         21    1    1    2  504  502  0.19999881527E+02  0.36489799486E+01  0.29245484325E+02  0.35617533171E+02  0.00000000000E+00 0.  1.
</event>
<event>
 4    1  0.1725802E+006  0.2599082E+02  0.7546771E-02  0.1458018E+00
         21   -1    0    0  502  501  0.00000000000E+00  0.00000000000E+00  0.11643777921E+03  0.11643777921E+03  0.00000000000E+00 0. -1.
         21   -1    0    0  504  502 -0.00000000000E+00 -0.00000000000E+00 -0.35322899690E+02  0.35322899690E+02  0.00000000000E+00 0.  1.
         21    1    1    2  503  501  0.52876710982E+01  0.25447267411E+02  0.10992700745E+03  0.11295782333E+03  0.00000000000E+00 0. -1.
         21    1    1    2  504  503 -0.52876710982E+01 -0.25447267411E+02 -0.28812127932E+02  0.38802855569E+02  0.00000000000E+00 0.  1.
</event>
<event>
 4    1  0.1725802E+006  0.3185024E+02  0.7546771E-02  0.1404171E+00
         21   -1    0    0  503  501  0.00000000000E+00  0.00000000000E+00  0.78363166599E+02  0.78363166599E+02  0.00000000000E+00 0.  1.
         21   -1    0    0  501  502 -0.00000000000E+00 -0.00000000000E+00 -0.50379361961E+02  0.50379361961E+02  0.00000000000E+00 0. -1.
         21    1    1    2  503  504  0.22546942123E+02 -0.22496072548E+02  0.69479886747E+02  0.76432274214E+02  0.00000000000E+00 0.  1.
         21    1    1    2  504  502 -0.22546942123E+02  0.22496072548E+02 -0.41496082109E+02  0.52310254345E+02  0.00000000000E+00 0. -1.
</event>
<event>
 4    1  0.1725802E+006  0.5571578E+02  0.7546771E-02  0.1275127E+00
         21   -1    0    0  503  501  0.00000000000E+00  0.00000000000E+00  0.17311876864E+03  0.17311876864E+03  0.00000000000E+00 0. -1.
         21   -1    0    0  501  502 -0.00000000000E+00 -0.00000000000E+00 -0.86946521176E+02  0.86946521176E+02  0.00000000000E+00 0.  1.
         21    1    1    2  503  504 -0.50123548921E+02 -0.24328534216E+02  0.15893682739E+03  0.16841960347E+03  0.00000000000E+00 0. -1.
         21    1    1    2  504  502  0.50123548921E+02  0.24328534216E+02 -0.72764579925E+02  0.91645686342E+02  0.00000000000E+00 0.  1.
</event>
<event>
 4    1  0.1725802E+006  0.2587626E+02  0.7546771E-02  0.1459235E+00
         21   -1    0    0  504  501  0.00000000000E+00  0.00000000000E+00  0.76769279824E+01  0.76769279824E+01  0.00000000000E+00 0.  1.
         21   -1    0    0  503  502 -0.00000000000E+00 -0.00000000000E+00 -0.14304147561E+03  0.14304147561E+03  0.00000000000E+00 0. -1.
         21    1    1    2  503  501 -0.12145254517E+02  0.22848935318E+02 -0.20605546657E+02  0.33078234619E+02  0.00000000000E+00 0.  1.
         21    1    1    2  504  502  0.12145254517E+02 -0.22848935318E+02 -0.11475900097E+03  0.11764016897E+03  0.00000000000E+00 0. -1.
</event>
<event>
 4    1  0.1725802E+006  0.2784036E+02  0.7546771E-02  0.1439344E+00
         21   -1    0    0  503  501  0.00000000000E+00  0.00000000000E+00  0.56186482694E+01  0.56186482694E+01  0.00000000000E+00 0.  1.
         21   -1    0    0  504  502 -0.00000000000E+00 -0.00000000000E+00 -0.14925424704E+03  0.14925424704E+03  0.00000000000E+00 0. -1.
         21    1    1    2  503  502 -0.20396370015E+02  0.18949246016E+02 -0.93129876487E+02  0.97202159075E+02  0.00000000000E+00 0. -1.
         21    1    1    2  504  501  0.20396370015E+02 -0.18949246016E+02 -0.50505722281E+02  0.57670736231E+02  0.00000000000E+00 0.  1.
</event>
<event>
 4    1  0.1725802E+006  0.8835238E+02  0.7546771E-02  0.1185682E+00
         21   -1    0    0  503  501  0.00000000000E+00  0.00000000000E+00  0.66231233459E+02  0.66231233459E+02  0.00000000000E+00 0.  1.
         21   -1    0    0  504  502 -0.00000000000E+00 -0.00000000000E+00 -0.11984553090E+03  0.11984553090E+03  0.00000000000E+00 0.  1.
         21    1    1    2  503  502  0.41091939238E+02  0.78215060907E+02 -0.14837684654E+02  0.89589620543E+02  0.00000000000E+00 0.  1.
         21    1    1    2  504  501 -0.41091939238E+02 -0.78215060907E+02 -0.38776612791E+02  0.96487143820E+02  0.00000000000E+00 0.  1.
</event>
<event>
 4    1  0.1725802E+006  0.2001312E+02  0.7546771E-02  0.1533835E+00
         21   -1    0    0  504  501  0.00000000000E+00  0.00000000000E+00  0.59023046017E+00  0.59023046017E+00  0.00000000000E+00 0. -1.
         21   -1    0    0  503  502 -0.00000000000E+00 -0.00000000000E+00 -0.10486607664E+04  0.10486607664E+04  0.00000000000E+00 0. -1.
         21    1    1    2  503  501 -0.13563347423E+02  0.14715999840E+02 -0.83568999700E+03  0.83592959998E+03  0.00000000000E+00 0. -1.
         21    1    1    2  504  502  0.13563347423E+02 -0.14715999840E+02 -0.21238053898E+03  0.21332139692E+03  0.00000000000E+00 0. -1.
</event>
<event>
 4    1  0.1725802E+006  0.6771597E+02  0.7546771E-02  0.1235653E+00
         21   -1    0    0  504  501  0.00000000000E+00  0.00000000000E+00  0.45343490687E+02  0.45343490687E+02  0.00000000000E+00 0. -1.
         21   -1    0    0  503  502 -0.00000000000E+00 -0.00000000000E+00 -0.10744981219E+03  0.10744981219E+03  0.00000000000E+00 0. -1.
         21    1    1    2  503  501 -0.67624694300E+02 -0.35147996556E+01 -0.49585284223E+02  0.83929455540E+02  0.00000000000E+00 0. -1.
         21    1    1    2  504  502  0.67624694300E+02  0.35147996556E+01 -0.12521037282E+02  0.68863847340E+02  0.00000000000E+00 0. -1.
</event>
<event>
 4    1  0.1725802E+006  0.2269528E+02  0.7546771E-02  0.1496360E+00
         21   -1    0    0  503  501  0.00000000000E+00  0.00000000000E+00  0.16126098479E+03  0.16126098479E+03  0.00000000000E+00 0.  1.
         21   -1    0    0  504  502 -0.00000000000E+00 -0.00000000000E+00 -0.75622927651E+01  0.75622927651E+01  0.00000000000E+00 0.  1.
         21    1    1    2  503  502 -0.76843625313E+01 -0.21354770905E+02  0.14100411799E+03  0.14281889566E+03  0.00000000000E+00 0.  1.
         21    1    1    2  504  501  0.76843625313E+01  0.21354770905E+02  0.12694574043E+02  0.26004381901E+02  0.00000000000E+00 0.  1.
</event>
<event>
 4    1  0.1725802E+006  0.4944788E+02  0.7546771E-02  0.1300584E+00
         21   -1    0    0  502  501  0.00000000000E+00  0.00000000000E+00  0.50770168407E+02  0.50770168407E+02  0.00000000000E+00 0. -1.
         21   -1    0    0  503  502 -0.00000000000E+00 -0.00000000000E+00 -0.16377241180E+04  0.16377241180E+04  0.00000000000E+00 0. -1.
         21    1    1    2  503  504  0.39677111877E+02 -0.29509654510E+02 -0.16252182394E+04  0.16259703007E+04  0.00000000000E+00 0. -1.
         21    1    1    2  504  501 -0.39677111877E+02  0.29509654510E+02  0.38264289829E+02  0.62523985736E+02  0.00000000000E+00 0. -1.
</event>
<event>
 4    1  0.1725802E+006  0.4404445E+02  0.7546771E-02  0.1326287E+00
         21   -1    0    0  503  501  0.00000000000E+00  0.00000000000E+00  0.33333043894E+03  0.33333043894E+03  0.00000000000E+00 0.  1.
         21   -1    0    0  504  502 -0.00000000000E+00 -0.00000000000E+00 -0.58197913572E+01  0.58197913572E+01  0.00000000000E+00 0.  1.
         21    1    1    2  503  502  0.44044340935E+02 -0.97840006206E-01  0.16378674859E+03  0.16960546145E+03  0.00000000000E+00 0.  1.
         21    1    1    2  504  501 -0.44044340935E+02  0.97840006206E-01  0.16372389900E+03  0.16954476885E+03  0.00000000000E+00 0.  1.
</event>
<event>
 4    1  0.1725802E+006  0.2094437E+02  0.7546771E-02  0.1520060E+00
         21   -1    0    0  502  501  0.00000000000E+00  0.00000000000E+00  0.76764340844E+02  0.76764340844E+02  0.00000000000E+00 0. -1.
         21   -1    0    0  503  502 -0.00000000000E+00 -0.00000000000E+00 -0.21624862144E+02  0.21624862144E+02  0.00000000000E+00 0. -1.
         21    1    1    2  503  504 -0.92400884292E+01 -0.18795946369E+02 -0.14627237488E+02  0.25546485289E+02  0.00000000000E+00 0. -1.
         21    1    1    2  504  501  0.92400884292E+01  0.18795946369E+02  0.69766716187E+02  0.72842717698E+02  0.00000000000E+00 0. -1.
</event>
<event>
 4    1  0.1725802E+006  0.2318214E+02  0.7546771E-02  0.1490224E+00
         21   -1    0    0  502  501  0.00000000000E+00  0.00000000000E+00  0.14616427154E+03  0.14616427154E+03  0.00000000000E+00 0.  1.
         21   -1    0    0  503  502 -0.00000000000E+00 -0.00000000000E+00 -0.95843504679E+01  0.95843504679E+01  0.00000000000E+00 0.  1.
         21    1    1    2  503  504 -0.18749073127E+02  0.13633929366E+02  0.71510272681E+01  0.24260028113E+02  0.00000000000E+00 0.  1.
         21    1    1    2  504  501  0.18749073127E+02 -0.13633929366E+02  0.12942889380E+03  0.13148859390E+03  0.00000000000E+00 0.  1.
</event>
<event>
 4    1  0.1725802E+006  0.2205230E+02  0.7546771E-02  0.1504754E+00
         21   -1    0    0  504  501  0.00000000000E+00  0.00000000000E+00  0.30775797283E+01  0.30775797283E+01  0.00000000000E+00 0.  1.
         21   -1    0    0  503  502 -0.00000000000E+00 -0.00000000000E+00 -0.15869626613E+03  0.15869626613E+03  0.00000000000E+00 0.  1.
         21    1    1    2  503  501  0.95571398242E+01  0.19873722852E+02 -0.83109042147E+02  0.85984979318E+02  0.00000000000E+00 0.  1.
         21    1    1    2  504  502 -0.95571398242E+01 -0.19873722852E+02 -0.72509644258E+02  0.75788866544E+02  0.00000000000E+00 0.  1.
</event>
<event>
 4    1  0.1725802E+006  0.3232409E+02  0.7546771E-02  0.1400419E+00
         21   -1    0    0  502  501  0.00000000000E+00  0.00000000000E+00  0.37245432485E+03  0.37245432485E+03  0.00000000000E+00 0.  1.
         21   -1    0    0  503  502 -0.00000000000E+00 -0.00000000000E+00 -0.91611454920E+01  0.91611454920E+01  0.00000000000E+00 0.  1.
         21    1    1    2  503  504 -0.34376362856E+01 -0.32140775715E+02  0.22715929001E+02  0.39507723765E+02  0.00000000000E+00 0.  1.
         21    1    1    2  504  501  0.34376362856E+01  0.32140775715E+02  0.34057725036E+03  0.34210774658E+03  0.00000000000E+00 0.  1.
</event>
<event>
 4    1  0.1725802E+006  0.4470145E+02  0.7546771E-02  0.1322939E+00
         21   -1    0    0  502  501  0.00000000000E+00  0.00000000000E+00  0.14901652575E+02  0.14901652575E+02  0.00000000000E+00 0.  1.
         21   -1    0    0  503  502 -0.00000000000E+00 -0.00000000000E+00 -0.44413828296E+03  0.44413828296E+03  0.00000000000E+00 0. -1.
         21    1    1    2  503  504 -0.91429821926E+01  0.43756432779E+02 -0.40638508761E+03  0.40883622511E+03  0.00000000000E+00 0. -1.
         21    1    1    2  504  501  0.91429821926E+01 -0.43756432779E+02 -0.22851542774E+02  0.50203710422E+02  0.00000000000E+00 0.  1.
</event>
<event>
 4    1  0.1725802E+006  0.2040610E+02  0.7546771E-02  0.1527916E+00
         21   -1    0    0  503  501  0.00000000000E+00  0.00000000000E+00  0.53277874990E+01  0.53277874990E+01  0.00000000000E+00 0. -1.
         21   -1    0    0  501  502 -0.00000000000E+00 -0.00000000000E+00 -0.49598632061E+03  0.49598632061E+03  0.00000000000E+00 0.  1.
         21    1    1    2  503  504  0.17192237666E+02  0.10992534153E+02 -0.15267709504E+02  0.25485521313E+02  0.00000000000E+00 0. -1.
         21    1    1    2  504  502 -0.17192237666E+02 -0.10992534153E+02 -0.47539082360E+03  0.47582858679E+03  0.00000000000E+00 0.  1.
</event>
<event>
 4    1  0.1725802E+006  0.2608381E+02  0.7546771E-02  0.1457035E+00
         21   -1    0    0  504  501  0.00000000000E+00  0.00000000000E+00  0.22418511650E+01  0.22418511650E+01  0.00000000000E+00 0.  1.
         21   -1    0    0  501  502 -0.00000000000E+00 -0.00000000000E+00 -0.37728213613E+03  0.37728213613E+03  0.00000000000E+00 0.  1.
         21    1    1    2  503  502 -0.18234787060E+02 -0.18650938387E+02 -0.27144683700E+03  0.27269717688E+03  0.00000000000E+00 0.  1.
         21    1    1    2  504  503  0.18234787060E+02  0.18650938387E+02 -0.10359344797E+03  0.10682681042E+03  0.00000000000E+00 0.  1.
</event>
<event>
 4    1  0.1725802E+006  0.2232406E+02  0.7546771E-02  0.1501165E+00
         21   -1    0    0  502  501  0.00000000000E+00  0.00000000000E+00  0.15094623378E+01  0.15094623378E+01  0.00000000000E+00 0.  1.
         21   -1    0    0  503  502 -0.00000000000E+00 -0.00000000000E+00 -0.54859427878E+03  0.54859427878E+03  0.00000000000E+00 0.  1.
         21    1    1    2  503  504  0.12722391159E+02 -0.18344057099E+02 -0.44710240661E+03  0.44765938577E+03  0.00000000000E+00 0.  1.
         21    1    1    2  504  501 -0.12722391159E+02  0.18344057099E+02 -0.99982409828E+02  0.10244435535E+03  0.00000000000E+00 0.  1.
</event>
<event>
 4    1  0.1725802E+006  0.2270739E+02  0.7546771E-02  0.1496206E+00
         21   -1    0    0  502  501  0.00000000000E+00  0.00000000000E+00  0.21250679930E+03  0.21250679930E+03  0.00000000000E+00 0. -1.
         21   -1    0    0  503  502 -0.00000000000E+00 -0.00000000000E+00 -0.13932256499E+02  0.13932256499E+02  0.00000000000E+00 0.  1.
         21    1    1    2  503  504 -0.63014114744E+01 -0.21815540100E+02 -0.36020178963E+01  0.22991305081E+02  0.00000000000E+00 0.  1.
         21    1    1    2  504  501  0.63014114744E+01  0.21815540100E+02  0.20217656070E+03  0.20344775072E+03  0.00000000000E+00 0. -1.
</event>
<event>
 4    1  0.1725802E+006  0.2176212E+02  0.7546771E-02  0.1508656E+00
         21   -1    0    0  504  501  0.00000000000E+00  0.00000000000E+00  0.33645570049E+02  0.33645570049E+02  0.00000000000E+00 0. -1.
         21   -1    0    0  503  502 -0.00000000000E+00 -0.00000000000E+00 -0.22546886637E+03  0.22546886637E+03  0.00000000000E+00 0.  1.
         21    1    1    2  503  501 -0.20682331404E+02 -0.67698592277E+01  0.29536324436E+02  0.36687658517E+02  0.00000000000E+00 0. -1.
         21    1    1    2  504  502  0.20682331404E+02  0.67698592277E+01 -0.22135962075E+03  0.22242677790E+03  0.00000000000E+00 0.  1.
</event>
<event>
 4    1  0.1725802E+006  0.2049025E+02  0.7546771E-02  0.1526669E+00
         21   -1    0    0  504  501  0.00000000000E+00  0.00000000000E+00  0.53022848582E+02  0.53022848582E+02  0.00000000000E+00 0. -1.
         21   -1    0    0  503  502 -0.00000000000E+00 -0.00000000000E+00 -0.14439115772E+02  0.14439115772E+02  0.00000000000E+00 0. -1.
         21    1    1    2  503  501  0.20037975342E+02  0.42813544633E+01  0.41959693202E+02  0.46695463435E+02  0.00000000000E+00 0. -1.
         21    1    1    2  504  502 -0.20037975342E+02 -0.42813544633E+01 -0.33759603913E+01  0.20766500918E+02  0.00000000000E+00 0. -1.
</event>
<event>
 4    1  0.1725802E+006  0.3725476E+02  0.7546771E-02  0.1365370E+00
         21   -1    0    0  502  501  0.00000000000E+00  0.00000000000E+00  0.11371335353E+04  0.11371335353E+04  0.00000000000E+00 0. -1.
         21   -1    0    0  504  502 -0.00000000000E+00 -0.00000000000E+00 -0.93747833747E+01  0.93747833747E+01  0.00000000000E+00 0. -1.
         21    1    1    2  503  501  0.22746473080E+02  0.29504495195E+02  0.10985156499E+04  0.10991471923E+04  0.00000000000E+00 0. -1.
         21    1    1    2  504  503 -0.22746473080E+02 -0.29504495195E+02  0.29243102004E+02  0.47361126350E+02  0.00000000000E+00 0. -1.
</event>
<event>
 4    1  0.1725802E+006  0.2017460E+02  0.7546771E-02  0.1531383E+00
         21   -1    0    0  504  501  0.00000000000E+00  0.00000000000E+00  0.71759358724E+00  0.71759358724E+00  0.00000000000E+00 0.  1.
         21   -1    0    0  503  502 -0.00000000000E+00 -0.00000000000E+00 -0.60314566897E+03  0.60314566897E+03  0.00000000000E+00 0.  1.
         21    1    1    2  503  501 -0.69317386509E+01  0.18946386835E+02 -0.37492952441E+03  0.37547192019E+03  0.00000000000E+00 0.  1.
         21    1    1    2  504  502  0.69317386509E+01 -0.18946386835E+02 -0.22749855097E+03  0.22839134237E+03  0.00000000000E+00 0.  1.
</event>
<event>
 4    1  0.1725802E+006  0.2320149E+02  0.7546771E-02  0.1489983E+00
         21   -1    0    0  504  501  0.00000000000E+00  0.00000000000E+00  0.43455728610E+02  0.43455728610E+02  0.00000000000E+00 0. -1.
         21   -1    0    0  501  502 -0.00000000000E+00 -0.00000000000E+00 -0.21269864760E+02  0.21269864760E+02  0.00000000000E+00 0. -1.
         21    1    1    2  503  502 -0.12167751927E+02  0.19754876614E+02 -0.98205882321E+01  0.25194310671E+02  0.00000000000E+00 0. -1.
         21    1    1    2  504  503  0.12167751927E+02 -0.19754876614E+02  0.32006452082E+02  0.39531282699E+02  0.00000000000E+00 0. -1.
</event>
<event>
 4    1  0.1725802E+006  0.3358763E+02  0.7546771E-02  0.1390774E+00
         21   -1    0    0  503  501  0.00000000000E+00  0.00000000000E+00  0.47179378339E+03  0.47179378339E+03  0.00000000000E+00 0. -1.
         21   -1    0    0  504  502 -0.00000000000E+00 -0.00000000000E+00 -0.33451009203E+01  0.33451009203E+01  0.00000000000E+00 0.  1.
         21    1    1    2  503  502 -0.31483513921E+02  0.11701172743E+02  0.36109151842E+03  0.36265026370E+03  0.00000000000E+00 0. -1.
         21    1    1    2  504  501  0.31483513921E+02 -0.11701172743E+02  0.10735716406E+03  0.11248862061E+03  0.00000000000E+00 0.  1.
</event>
<event>
 4    1  0.1725802E+006  0.2838956E+02  0.7546771E-02  0.1434128E+00
         21   -1    0    0  503  501  0.00000000000E+00  0.00000000000E+00  0.95921738229E+01  0.95921738229E+01  0.00000000000E+00 0.  1.
         21   -1    0    0  501  502 -0.00000000000E+00 -0.00000000000E+00 -0.13508401077E+03  0.13508401077E+03  0.00000000000E+00 0.  1.
         21    1    1    2  503  504  0.58838220596E+01  0.27773150554E+02 -0.18271733926E+02  0.33761272405E+02  0.00000000000E+00 0.  1.
         21    1    1    2  504  502 -0.58838220596E+01 -0.27773150554E+02 -0.10722010302E+03  0.11091491219E+03  0.00000000000E+00 0.  1.
</event>
<event>
 4    1  0.1725802E+006  0.3352955E+02  0.7546771E-02  0.1391206E+00
         21   -1    0    0  503  501  0.00000000000E+00  0.00000000000E+00  0.20207526434E+01  0.20207526434E+01  0.00000000000E+00 0.  1.
         21   -1    0    0  504  502 -0.00000000000E+00 -0.00000000000E+00 -0.67550585172E+03  0.67550585172E+03  0.00000000000E+00 0.  1.
         21    1    1    2  503  502  0.29925042097E+02  0.15123584814E+02 -0.19445961686E+03  0.19732909961E+03  0.00000000000E+00 0.  1.
         21    1    1    2  504  501 -0.29925042097E+02 -0.15123584814E+02 -0.47902548221E+03  0.48019750476E+03  0.00000000000E+00 0.  1.
</event>
<event>
 4    1  0.1725802E+006  0.7329408E+02  0.7546771E-02  0.1220334E+00
         21   -1    0    0  504  501  0.00000000000E+00  0.00000000000E+00  0.11443074614E+02  0.11443074614E+02  0.00000000000E+00 0.  1.
         21   -1    0    0  503  502 -0.00000000000E+00 -0.00000000000E+00 -0.51196124118E+03  0.51196124118E+03  0.00000000000E+00 0.  1.
         21    1    1    2  503  501  0.40025815217E+02 -0.61399972413E+02 -0.32566560459E+03  0.33381148648E+03  0.00000000000E+00 0.  1.
         21    1    1    2  504  502 -0.40025815217E+02  0.61399972413E+02 -0.17485256198E+03  0.18959282931E+03  0.00000000000E+00 0.  1.
</event>
<event>
 4    1  0.1725802E+006  0.2307590E+02  0.7546771E-02  0.1491547E+00
         21   -1    0    0  503  501  0.00000000000E+00  0.00000000000E+00  0.66833094765E+01  0.66833094765E+01  0.00000000000E+00 0.  1.
         21   -1    0    0  504  502 -0.00000000000E+00 -0.00000000000E+00 -0.12994734592E+03  0.12994734592E+03  0.00000000000E+00 0. -1.
         21    1    1    2  503  502 -0.13462858576E+02  0.18741622969E+02 -0.19141087956E+02  0.29981298182E+02  0.00000000000E+00 0.  1.
         21    1    1    2  504  501  0.13462858576E+02 -0.18741622969E+02 -0.10412294848E+03  0.10664935721E+03  0.00000000000E+00 0. -1.
</event>
<event>
 4    1  0.1725802E+006  0.2407051E+02  0.7546771E-02  0.1479476E+00
         21   -1    0    0  504  501  0.00000000000E+00  0.00000000000E+00  0.25376015654E+02  0.25376015654E+02  0.00000000000E+00 0.  1.
         21   -1    0    0  503  502 -0.00000000000E+00 -0.00000000000E+00 -0.28317963570E+02  0.28317963570E+02  0.00000000000E+00 0.  1.
         21    1    1    2  503  501  0.78479242314E+01 -0.22755208959E+02  0.10345404709E+02  0.26199558166E+02  0.00000000000E+00 0.  1.
         21    1    1    2  504  502 -0.78479242314E+01  0.22755208959E+02 -0.13287352625E+02  0.27494421057E+02  0.00000000000E+00 0.  1.
</event>
<event>
 4    1  0.1725802E+006  0.2717467E+02  0.7546771E-02  0.1445861E+00
         21   -1    0    0  503  501  0.00000000000E+00  0.00000000000E+00  0.15534060671E+03  0.15534060671E+03  0.00000000000E+00 0.  1.
         21   -1    0    0  504  502 -0.00000000000E+00 -0.00000000000E+00 -0.87275810786E+01  0.87275810786E+01  0.00000000000E+00 0.  1.
         21    1    1    2  503  502 -0.16634554788E+02 -0.21488467134E+02  0.12866036382E+03  0.13149886635E+03  0.00000000000E+00 0.  1.
         21    1    1    2  504  501  0.16634554788E+02  0.21488467134E+02  0.17952661805E+02  0.32569321433E+02  0.00000000000E+00 0.  1.
</event>
<event>
 4    1  0.1725802E+006  0.2586193E+02  0.7546771E-02  0.1459388E+00
         21   -1    0    0  504  501  0.00000000000E+00  0.00000000000E+00  0.13766628549E+03  0.13766628549E+03  0.00000000000E+00 0. -1.
         21   -1    0    0  503  502 -0.00000000000E+00 -0.00000000000E+00 -0.66029914668E+03  0.66029914668E+03  0.00000000000E+00 0.  1.
         21    1    1    2  503  501  0.14145709603E+02  0.21650363228E+02 -0.65882860058E+03  0.65933600256E+03  0.00000000000E+00 0.  1.
         21    1    1    2  504  502 -0.14145709603E+02 -0.21650363228E+02  0.13619573939E+03  0.13862942962E+03  0.00000000000E+00 0. -1.
</event>
<event>
 4    1  0.1725802E+006  0.2913466E+02  0.7546771E-02  0.1427268E+00
         21   -1    0    0  504  501  0.00000000000E+00  0.00000000000E+00  0.56830425556E+02  0.56830425556E+02  0.00000000000E+00 0.  1.
         21   -1    0    0  501  502 -0.00000000000E+00 -0.00000000000E+00 -0.62605050077E+02  0.62605050077E+02  0.00000000000E+00 0. -1.
         21    1    1    2  503  502  0.77660710038E+01 -0.28080540724E+02 -0.54996722774E+02  0.62237192594E+02  0.00000000000E+00 0. -1.
         21    1    1    2  504  503 -0.77660710038E+01  0.28080540724E+02  0.49222098253E+02  0.57198283039E+02  0.00000000000E+00 0.  1.
</event>
<event>
 4    1  0.1725802E+006  0.2254646E+02  0.7546771E-02  0.1498273E+00
         21   -1    0    0  503  501  0.00000000000E+00  0.00000000000E+00  0.32961891271E+01  0.32961891271E+01  0.00000000000E+00 0. -1.
         21   -1    0    0  504  502 -0.00000000000E+00 -0.00000000000E+00 -0.26491311961E+03  0.26491311961E+03  0.00000000000E+00 0.  1.
         21    1    1    2  503  502  0.20001360466E+02  0.10406169512E+02 -0.44122307305E+02  0.49549175435E+02  0.00000000000E+00 0. -1.
         21    1    1    2  504  501 -0.20001360466E+02 -0.10406169512E+02 -0.21749462317E+03  0.21866013330E+03  0.00000000000E+00 0.  1.
</event>
<event>
 4    1  0.1725802E+006  0.2083098E+02  0.7546771E-02  0.1521692E+00
         21   -1    0    0  503  501  0.00000000000E+00  0.00000000000E+00  0.10570781598E+02  0.10570781598E+02  0.00000000000E+00 0.  1.
         21   -1    0    0  504  502 -0.00000000000E+00 -0.00000000000E+00 -0.41729716769E+02  0.41729716769E+02  0.00000000000E+00 0.  1.
         21    1    1    2  503  502 -0.20791512026E+02 -0.12816993570E+01 -0.18917135055E+02  0.28138722861E+02  0.00000000000E+00 0.  1.
         21    1    1    2  504  501  0.20791512026E+02  0.12816993570E+01 -0.12241800116E+02  0.24161775507E+02  0.00000000000E+00 0.  1.
</event>
<event>
 4    1  0.1725802E+006  0.2014862E+02  0.7546771E-02  0.1531776E+00
         21   -1    0    0  503  501  0.00000000000E+00  0.00000000000E+00  0.37435359142E+02  0.37435359142E+02  0.00000000000E+00 0.  1.
         21   -1    0    0  501  502 -0.00000000000E+00 -0.00000000000E+00 -0.49647172776E+02  0.49647172776E+02  0.00000000000E+00 0.  1.
         21    1    1    2  503  504 -0.66721184202E+01  0.19011828988E+02  0.32387358501E+02  0.38143253616E+02  0.00000000000E+00 0.  1.
         21    1    1    2  504  502  0.66721184202E+01 -0.19011828988E+02 -0.44599172135E+02  0.48939278303E+02  0.00000000000E+00 0.  1.
</event>
<event>
 4    1  0.1725802E+006  0.2056433E+02  0.7546771E-02  0.1525577E+00
         21   -1    0    0  504  501  0.00000000000E+00  0.00000000000E+00  0.19946110049E+02  0.19946110049E+02  0.00000000000E+00 0. -1.
         21   -1    0    0  503  502 -0.00000000000E+00 -0.00000000000E+00 -0.21716012820E+02  0.21716012820E+02  0.00000000000E+00 0. -1.
         21    1    1    2  503  501  0.20480315867E+02 -0.18569130632E+01  0.23208347703E+01  0.20694872267E+02  0.00000000000E+00 0. -1.
         21    1    1    2  504  502 -0.20480315867E+02  0.18569130632E+01 -0.40907375412E+01  0.20967250601E+02  0.00000000000E+00 0. -1.
</event>
<event>
 4    1  0.1725802E+006  0.2862939E+02  0.7546771E-02  0.1431893E+00
         21   -1    0    0  503  501  0.00000000000E+00  0.00000000000E+00  0.12452096371E+02  0.12452096371E+02  0.00000000000E+00 0.  1.
         21   -1    0    0  501  502 -0.00000000000E+00 -0.00000000000E+00 -0.12928074391E+03  0.12928074391E+03  0.00000000000E+00 0. -1.
         21    1    1    2  503  504  0.20167150442E+02  0.20320629990E+02 -0.87649479439E+01  0.29941046618E+02  0.00000000000E+00 0.  1.
         21    1    1    2  504  502 -0.20167150442E+02 -0.20320629990E+02 -0.10806369959E+03  0.11179179366E+03  0.00000000000E+00 0. -1.
</event>
<event>
 4    1  0.1725802E+006  0.2696711E+02  0.7546771E-02  0.1447939E+00
         21   -1    0    0  504  501  0.00000000000E+00  0.00000000000E+00  0.25381569793E+02  0.25381569793E+02  0.00000000000E+00 0.  1.
         21   -1    0    0  503  502 -0.00000000000E+00 -0.00000000000E+00 -0.30907472024E+02  0.30907472024E+02  0.00000000000E+00 0.  1.
         21    1    1    2  503  501 -0.21627531131E+02  0.16108217792E+02 -0.10366406647E+02  0.28890953083E+02  0.00000000000E+00 0.  1.
         21    1    1    2  504  502  0.21627531131E+02 -0.16108217792E+02  0.48405044166E+01  0.27398088734E+02  0.00000000000E+00 0.  1.
</event>
<event>
 4    1  0.1725802E+006  0.3094328E+02  0.7546771E-02  0.1411572E+00
         21   -1    0    0  504  501  0.00000000000E+00  0.00000000000E+00  0.10281086356E+03  0.10281086356E+03  0.00000000000E+00 0.  1.
         21   -1    0    0  503  502 -0.00000000000E+00 -0.00000000000E+00 -0.60368417377E+02  0.60368417377E+02  0.00000000000E+00 0.  1.
         21    1    1    2  503  501 -0.31708041105E+01 -0.30780395783E+02  0.96253937744E+02  0.10110542663E+03  0.00000000000E+00 0.  1.
         21    1    1    2  504  502  0.31708041105E+01  0.30780395783E+02 -0.53811491565E+02  0.62073854300E+02  0.00000000000E+00 0.  1.
</event>
<event>
 4    1  0.1725802E+006  0.2019154E+02  0.7546771E-02  0.1531128E+00
         21   -1    0    0  502  501  0.00000000000E+00  0.00000000000E+00  0.60566615207E+02  0.60566615207E+02  0.00000000000E+00 0. -1.
         21   -1    0    0  503  502 -0.00000000000E+00 -0.00000000000E+00 -0.26166944947E+02  0.26166944947E+02  0.00000000000E+00 0. -1.
         21    1    1    2  503  504  0.16945832682E+02 -0.10978934146E+02 -0.20174975853E+02  0.28543438668E+02  0.00000000000E+00 0. -1.
         21    1    1    2  504  501 -0.16945832682E+02  0.10978934146E+02  0.54574646113E+02  0.58190121487E+02  0.00000000000E+00 0. -1.
</event>
<event>
 4    1  0.1725802E+006  0.2958319E+02  0.7546771E-02  0.1423253E+00
         21   -1    0    0  504  501  0.00000000000E+00  0.00000000000E+00  0.79052859278E+02  0.79052859278E+02  0.00000000000E+00 0.  1.
         21   -1    0    0  503  502 -0.00000000000E+00 -0.00000000000E+00 -0.20106668575E+03  0.20106668575E+03  0.00000000000E+00 0.  1.
         21    1    1    2  503  501 -0.25334159409E+02  0.15275659692E+02  0.75142458924E+02  0.80756142461E+02  0.00000000000E+00 0.  1.
         21    1    1    2  504  502  0.25334159409E+02 -0.15275659692E+02 -0.19715628540E+03  0.19936340257E+03  0.00000000000E+00 0.  1.
</event>
<event>
 4    1  0.1725802E+006  0.2150948E+02  0.7546771E-02  0.1512114E+00
         21   -1    0    0  502  501  0.00000000000E+00  0.00000000000E+00  0.56639843447E+02  0.56639843447E+02  0.00000000000E+00 0.  1.
         21   -1    0    0  503  502 -0.00000000000E+00 -0.00000000000E+00 -0.22582584134E+02  0.22582584134E+02  0.00000000000E+00 0.  1.
         21    1    1    2  503  504  0.19101727626E+01 -0.21424492932E+02 -0.14617905120E+02  0.26006553165E+02  0.00000000000E+00 0.  1.
         21    1    1    2  504  501 -0.19101727626E+01  0.21424492932E+02  0.48675164433E+02  0.53215874417E+02  0.00000000000E+00 0.  1.
</event>
<event>
 4    1  0.1725802E+006  0.2156611E+02  0.7546771E-02  0.1511334E+00
         21   -1    0    0  504  501  0.00000000000E+00  0.00000000000E+00  0.17029246847E+03  0.17029246847E+03  0.00000000000E+00 0.  1.
         21   -1    0    0  503  502 -0.00000000000E+00 -0.00000000000E+00 -0.40696949358E+01  0.40696949358E+01  0.00000000000E+00 0.  1.
         21    1    1    2  503  501 -0.21081964163E+02 -0.45439757295E+01  0.33113082452E+02  0.39516745284E+02  0.00000000000E+00 0.  1.
         21    1    1    2  504  502  0.21081964163E+02  0.45439757295E+01  0.13310969108E+03  0.13484541812E+03  0.00000000000E+00 0.  1.
</event>
<event>
 4    1  0.1725802E+006  0.2477376E+02  0.7546771E-02  0.1471350E+00
         21   -1    0    0  504  501  0.00000000000E+00  0.00000000000E+00  0.30905575111E+03  0.30905575111E+03  0.00000000000E+00 0.  1.
         21   -1    0    0  503  502 -0.00000000000E+00 -0.00000000000E+00 -0.46604868996E+01  0.46604868996E+01  0.00000000000E+00 0.  1.
         21    1    1    2  503  501  0.51000773427E+01  0.24243110792E+02  0.27102693533E+03  0.27215682774E+03  0.00000000000E+00 0.  1.
         21    1    1    2  504  502 -0.51000773427E+01 -0.24243110792E+02  0.33368328875E+02  0.41559410266E+02  0.00000000000E+00 0.  1.
</event>
<event>
 4    1  0.1725802E+006  0.2035896E+02  0.7546771E-02  0.1528617E+00
         21   -1    0    0  504  501  0.00000000000E+00  0.00000000000E+00  0.32246227845E+03  0.32246227845E+03  0.00000000000E+00 0. -1.
         21   -1    0    0  503  502 -0.00000000000E+00 -0.00000000000E+00 -0.17889088695E+01  0.17889088695E+01  0.00000000000E+00 0. -1.
         21    1    1    2  503  501  0.38695303818E+00 -0.20355284326E+02  0.74322786738E+02  0.77060780953E+02  0.00000000000E+00 0. -1.
         21    1    1    2  504  502 -0.38695303818E+00  0.20355284326E+02  0.24635058284E+03  0.24719040637E+03  0.00000000000E+00 0. -1.
</event>
<event>
 4    1  0.1725802E+006  0.2024170E+02  0.7546771E-02  0.1530372E+00
         21   -1    0    0  503  501  0.00000000000E+00  0.00000000000E+00  0.17515132154E+02  0.17515132154E+02  0.00000000000E+00 0. -1.
         21   -1    0    0  504  502 -0.00000000000E+00 -0.00000000000E+00 -0.46997332305E+02  0.46997332305E+02  0.00000000000E+00 0.  1.
         21    1    1    2  503  502  0.17154568180E+02  0.10744632213E+02  0.81188670547E+01  0.21809225871E+02  0.00000000000E+00 0. -1.
         21    1    1    2  504  501 -0.17154568180E+02 -0.10744632213E+02 -0.37601067207E+02  0.42703238588E+02  0.00000000000E+00 0.  1.
</event>
<event>
 4    1  0.1725802E+006  0.2612918E+02  0.7546771E-02  0.1456557E+00
         21   -1    0    0  504  501  0.00000000000E+00  0.00000000000E+00  0.10103932991E+02  0.10103932991E+02  0.00000000000E+00 0. -1.
         21   -1    0    0  503  502 -0.00000000000E+00 -0.00000000000E+00 -0.39023944709E+03  0.39023944709E+03  0.00000000000E+00 0. -1.
         21    1    1    2  503  501  0.25088617081E+02  0.73003713246E+01 -0.80493803669E+01  0.27340933649E+02  0.00000000000E+00 0. -1.
         21    1    1    2  504  502 -0.25088617081E+02 -0.73003713246E+01 -0.37208613373E+03  0.37300244643E+03  0.00000000000E+00 0. -1.
</event>
<event>
 4    1  0.1725802E+006  0.3431124E+02  0.7546771E-02  0.1385471E+00
         21   -1    0    0  504  501  0.00000000000E+00  0.00000000000E+00  0.62818396860E+01  0.62818396860E+01  0.00000000000E+00 0.  1.
         21   -1    0    0  501  502 -0.00000000000E+00 -0.00000000000E+00 -0.92977572709E+03  0.92977572709E+03  0.00000000000E+00 0.  1.
         21    1    1    2  503  502  0.19273316613E+01 -0.34257070261E+02 -0.87995583356E+03  0.88062451163E+03  0.00000000000E+00 0.  1.
         21    1    1    2  504  503 -0.19273316613E+01  0.34257070261E+02 -0.43538053846E+02  0.55433055147E+02  0.00000000000E+00 0.  1.
</event>
<event>
 4    1  0.1725802E+006  0.3525659E+02  0.7546771E-02  0.1378768E+00
         21   -1    0    0  504  501  0.00000000000E+00  0.00000000000E+00  0.11473896620E+03  0.11473896620E+03  0.00000000000E+00 0.  1.
         21   -1    0    0  503  502 -0.00000000000E+00 -0.00000000000E+00 -0.10887515442E+02  0.10887515442E+02  0.00000000000E+00 0.  1.
         21    1    1    2  503  501  0.17265748200E+02 -0.30739563955E+02  0.47502220817E+02  0.59156469094E+02  0.00000000000E+00 0.  1.
         21    1    1    2  504  502 -0.17265748200E+02  0.30739563955E+02  0.56349229939E+02  0.66470012545E+02  0.00000000000E+00 0.  1.
</event>
<event>
 4    1  0.1725802E+006  0.2320170E+02  0.7546771E-02  0.1489981E+00
         21   -1    0    0  504  501  0.00000000000E+00  0.00000000000E+00  0.18506274279E+02  0.18506274279E+02  0.00000000000E+00 0. -1.
         21   -1    0    0  503  502 -0.00000000000E+00 -0.00000000000E+00 -0.63775537256E+02  0.63775537256E+02  0.00000000000E+00 0. -1.
         21    1    1    2  503  501 -0.12037686569E+02 -0.19834644685E+02  0.77064206627E+01  0.24448066328E+02  0.00000000000E+00 0. -1.
         21    1    1    2  504  502  0.12037686569E+02  0.19834644685E+02 -0.52975683639E+02  0.57833745208E+02  0.00000000000E+00 0. -1.
</event>
<event>
 4    1  0.1725802E+006  0.2424167E+02  0.7546771E-02  0.1477469E+00
         21   -1    0    0  503  501  0.00000000000E+00  0.00000000000E+00  0.70271544975E+03  0.70271544975E+03  0.00000000000E+00 0.  1.
         21   -1    0    0  504  502 -0.00000000000E+00 -0.00000000000E+00 -0.12977269115E+01  0.12977269115E+01  0.00000000000E+00 0.  1.
         21    1    1    2  503  502  0.27469573877E-01 -0.24241651298E+02  0.14080246334E+03  0.14287404276E+03  0.00000000000E+00 0.  1.
         21    1    1    2  504  501 -0.27469573877E-01  0.24241651298E+02  0.56061525950E+03  0.56113913390E+03  0.00000000000E+00 0.  1.
</event>
<event>
 4    1  0.1725802E+006  0.2368675E+02  0.7546771E-02  0.1484050E+00
         21   -1    0    0  503  501  0.00000000000E+00  0.00000000000E+00  0.51458551555E+01  0.51458551555E+01  0.00000000000E+00 0.  1.
         21   -1    0    0  504  502 -0.00000000000E+00 -0.00000000000E+00 -0.60600733117E+03  0.60600733117E+03  0.00000000000E+00 0.  1.
         21    1    1    2  503  502 -0.11107653761E+02  0.20920854318E+02 -0.23705591381E+02  0.33511448495E+02  0.00000000000E+00 0.  1.
         21    1    1    2  504  501  0.11107653761E+02 -0.20920854318E+02 -0.57715588464E+03  0.57764173784E+03  0.00000000000E+00 0.  1.
</event>
<event>
 4    1  0.1725802E+006  0.2725949E+02  0.7546771E-02  0.1445019E+00
         21   -1    0    0  504  501  0.00000000000E+00  0.00000000000E+00  0.26306878969E+02  0.26306878969E+02  0.00000000000E+00 0.  1.
         21   -1    0    0  503  502 -0.00000000000E+00 -0.00000000000E+00 -0.93427571980E+03  0.93427571980E+03  0.00000000000E+00 0. -1.
         21    1    1    2  503  501  0.25695113689E+02 -0.91017036958E+01  0.18990667149E+02  0.33222361692E+02  0.00000000000E+00 0.  1.
         21    1    1    2  504  502 -0.25695113689E+02  0.91017036958E+01 -0.92695950798E+03  0.92736023707E+03  0.00000000000E+00 0. -1.
</event>
<event>
 4    1  0.1725802E+006  0.2107240E+02  0.7546771E-02  0.1518234E+00
         21   -1    0    0  502  501  0.00000000000E+00  0.00000000000E+00  0.85298456250E+03  0.85298456250E+03  0.00000000000E+00 0. -1.
         21   -1    0    0  504  502 -0.00000000000E+00 -0.00000000000E+00 -0.36221095298E+01  0.36221095298E+01  0.00000000000E+00 0. -1.
         21    1    1    2  503  501 -0.13660209074E+02  0.16045083100E+02  0.82101281259E+03  0.82128319381E+03  0.00000000000E+00 0. -1.
         21    1    1    2  504  503  0.13660209074E+02 -0.16045083100E+02  0.28349640382E+02  0.35323478218E+02  0.00000000000E+00 0. -1.
</event>
<event>
 4    1  0.1725802E+006  0.2615262E+02  0.7546771E-02  0.1456311E+00
         21   -1    0    0  503  501  0.00000000000E+00  0.00000000000E+00  0.54394195402E+02  0.54394195402E+02  0.00000000000E+00 0.  1.
         21   -1    0    0  501  502 -0.00000000000E+00 -0.00000000000E+00 -0.12586482617E+02  0.12586482617E+02  0.00000000000E+00 0.  1.
         21    1    1    2  503  504 -0.16680250766E+02 -0.20142713246E+02  0.21953045711E+02  0.34145217506E+02  0.00000000000E+00 0.  1.
         21    1    1    2  504  502  0.16680250766E+02  0.20142713246E+02  0.19854667074E+02  0.32835460513E+02  0.00000000000E+00 0.  1.
</event>
<event>
 4    1  0.1725802E+006  0.2470502E+02  0.7546771E-02  0.1472130E+00
         21   -1    0    0  502  501  0.00000000000E+00  0.00000000000E+00  0.58054474817E+01  0.58054474817E+01  0.00000000000E+00 0.  1.
         21   -1    0    0  504  502 -0.00000000000E+00 -0.00000000000E+00 -0.23177962119E+03  0.23177962119E+03  0.00000000000E+00 0. -1.
         21    1    1    2  503  501 -0.17985846102E+02 -0.16936565984E+02 -0.25175838104E+02  0.35272662950E+02  0.00000000000E+00 0.  1.
         21    1    1    2  504  503  0.17985846102E+02  0.16936565984E+02 -0.20079833561E+03  0.20231240572E+03  0.00000000000E+00 0. -1.
</event>
<event>
 4    1  0.1725802E+006  0.5884830E+02  0.7546771E-02  0.1263797E+00
         21   -1    0    0  503  501  0.00000000000E+00  0.00000000000E+00  0.32616709515E+02  0.32616709515E+02  0.00000000000E+00 0. -1.
         21   -1    0    0  504  502 -0.00000000000E+00 -0.00000000000E+00 -0.10806762266E+03  0.10806762266E+03  0.00000000000E+00 0. -1.
         21    1    1    2  503  502 -0.53332610618E+02  0.24874793942E+02 -0.28419810160E+02  0.65351421856E+02  0.00000000000E+00 0. -1.
         21    1    1    2  504  501  0.53332610618E+02 -0.24874793942E+02 -0.47031102983E+02  0.75332910317E+02  0.00000000000E+00 0. -1.
</event>
<event>
 4    1  0.1725802E+006  0.2058805E+02  0.7546771E-02  0.1525229E+00
         21   -1    0    0  503  501  0.00000000000E+00  0.00000000000E+00  0.50427213559E+02  0.50427213559E+02  0.00000000000E+00 0.  1.
         21   -1    0    0  504  502 -0.00000000000E+00 -0.00000000000E+00 -0.11771808221E+02  0.11771808221E+02  0.00000000000E+00 0.  1.
         21    1    1    2  503  502  0.18277149990E+02 -0.94769960761E+01  0.35958256209E+02  0.41435055882E+02  0.00000000000E+00 0.  1.
         21    1    1    2  504  501 -0.18277149990E+02  0.94769960761E+01  0.26971491295E+01  0.20763965898E+02  0.00000000000E+00 0.  1.
</event>
<event>
 4    1  0.1725802E+006  0.2640873E+02  0.7546771E-02  0.1453640E+00
         21   -1    0    0  503  501  0.00000000000E+00  0.00000000000E+00  0.78691609941E+01  0.78691609941E+01  0.00000000000E+00 0.  1.
         21   -1    0    0  501  502 -0.00000000000E+00 -0.00000000000E+00 -0.17726912995E+03  0.17726912995E+03  0.00000000000E+00 0. -1.
         21    1    1    2  503  504 -0.25455335491E+02  0.70318437338E+01 -0.19240958223E+02  0.32674690581E+02  0.00000000000E+00 0.  1.
         21    1    1    2  504  502  0.25455335491E+02 -0.70318437338E+01 -0.15015901074E+03  0.15246360037E+03  0.00000000000E+00 0. -1.
</event>
<event>
 4    1  0.1725802E+006  0.2208085E+02  0.7546771E-02  0.1504374E+00
         21   -1    0    0  503  501  0.00000000000E+00  0.00000000000E+00  0.13952186707E+01  0.13952186707E+01  0.00000000000E+00 0. -1.
         21   -1    0    0  504  502 -0.00000000000E+00 -0.00000000000E+00 -0.14200640278E+04  0.14200640278E+04  0.00000000000E+00 0.  1.
         21    1    1    2  503  502 -0.11168274722E+02 -0.19048187254E+02 -0.92219202142E+02  0.94825866944E+02  0.00000000000E+00 0. -1.
         21    1    1    2  504  501  0.11168274722E+02  0.19048187254E+02 -0.13264496070E+04  0.13266333795E+04  0.00000000000E+00 0.  1.
</event>
<event>
 4    1  0.1725802E+006  0.2414026E+02  0.7546771E-02  0.1478656E+00
         21   -1    0    0  504  501  0.00000000000E+00  0.00000000000E+00  0.85357127129E+01  0.85357127129E+01  0.00000000000E+00 0. -1.
         21   -1    0    0  501  502 -0.00000000000E+00 -0.00000000000E+00 -0.19428420959E+03  0.19428420959E+03  0.00000000000E+00 0.  1.
         21    1    1    2  503  502 -0.15636590071E+02  0.18391558446E+02 -0.17454522239E+03  0.17620666000E+03  0.00000000000E+00 0.  1.
         21    1    1    2  504  503  0.15636590071E+02 -0.18391558446E+02 -0.11203274494E+02  0.26613262305E+02  0.00000000000E+00 0. -1.
</event>
<event>
 4    1  0.1725802E+006  0.2952255E+02  0.7546771E-02  0.1423791E+00
         21   -1    0    0  502  501  0.00000000000E+00  0.00000000000E+00  0.17859061241E+03  0.17859061241E+03  0.00000000000E+00 0. -1.
         21   -1    0    0  504  502 -0.00000000000E+00 -0.00000000000E+00 -0.10355068946E+02  0.10355068946E+02  0.00000000000E+00 0. -1.
         21    1    1    2  503  501 -0.42828431924E+01  0.29210245738E+02  0.15281072167E+03  0.15563642845E+03  0.00000000000E+00 0. -1.
         21    1    1    2  504  503  0.42828431924E+01 -0.29210245738E+02  0.15424821788E+02  0.33309252905E+02  0.00000000000E+00 0. -1.
</event>
<event>
 4    1  0.1725802E+006  0.2720283E+02  0.7546771E-02  0.1445581E+00
         21   -1    0    0  504  501  0.00000000000E+00  0.00000000000E+00  0.32093375736E+01  0.32093375736E+01  0.00000000000E+00 0.  1.
         21   -1    0    0  501  502 -0.00000000000E+00 -0.00000000000E+00 -0.26572679748E+03  0.26572679748E+03  0.00000000000E+00 0.  1.
         21    1    1    2  503  502 -0.21493053051E+02 -0.16674617184E+02 -0.18016595147E+03  0.18220802468E+03  0.00000000000E+00 0.  1.
         21    1    1    2  504  503  0.21493053051E+02  0.16674617184E+02 -0.82351508434E+02  0.86728110374E+02  0.00000000000E+00 0.  1.
</event>
<event>
 4    1  0.1725802E+006  0.2002858E+02  0.7546771E-02  0.1533599E+00
         21   -1    0    0  503  501  0.00000000000E+00  0.00000000000E+00  0.12444070687E+02  0.12444070687E+02  0.00000000000E+00 0. -1.
         21   -1    0    0  504  502 -0.00000000000E+00 -0.00000000000E+00 -0.33263863797E+02  0.33263863797E+02  0.00000000000E+00 0. -1.
         21    1    1    2  503  502  0.18933899399E+02  0.65308000815E+01 -0.14427774959E+02  0.24684095820E+02  0.00000000000E+00 0. -1.
         21    1    1    2  504  501 -0.18933899399E+02 -0.65308000815E+01 -0.63920181505E+01  0.21023838665E+02  0.00000000000E+00 0. -1.
</event>
<event>
 4    1  0.1725802E+006  0.3609970E+02  0.7546771E-02  0.1372993E+00
         21   -1    0    0  503  501  0.00000000000E+00  0.00000000000E+00  0.37450842001E+03  0.37450842001E+03  0.00000000000E+00 0. -1.
         21   -1    0    0  504  502 -0.00000000000E+00 -0.00000000000E+00 -0.76586702991E+02  0.76586702991E+02  0.00000000000E+00 0. -1.
         21    1    1    2  503  502  0.16941351784E+02 -0.31877566469E+02  0.36932495982E+03  0.37108505034E+03  0.00000000000E+00 0. -1.
         21    1    1    2  504  501 -0.16941351784E+02  0.31877566469E+02 -0.71403242799E+02  0.80010072657E+02  0.00000000000E+00 0. -1.
</event>
<event>
 4    1  0.1725802E+006  0.2021391E+02  0.7546771E-02  0.1530791E+00
         21   -1    0    0  503  501  0.00000000000E+00  0.00000000000E+00  0.65975152554E+02  0.65975152554E+02  0.00000000000E+00 0. -1.
         21   -1    0    0  501  502 -0.00000000000E+00 -0.00000000000E+00 -0.31769767082E+02  0.31769767082E+02  0.00000000000E+00 0. -1.
         21    1    1    2  503  504 -0.19548279521E+02  0.51445842879E+01  0.60953511703E+02  0.64217852413E+02  0.00000000000E+00 0. -1.
         21    1    1    2  504  502  0.19548279521E+02 -0.51445842879E+01 -0.26748126230E+02  0.33527067223E+02  0.00000000000E+00 0. -1.
</event>
<event>
 4    1  0.1725802E+006  0.3721393E+02  0.7546771E-02  0.1365634E+00
         21   -1    0    0  504  501  0.00000000000E+00  0.00000000000E+00  0.93151808984E+01  0.93151808984E+01  0.00000000000E+00 0.  1.
         21   -1    0    0  501  502 -0.00000000000E+00 -0.00000000000E+00 -0.36157896107E+03  0.36157896107E+03  0.00000000000E+00 0.  1.
         21    1    1    2  503  502 -0.29506532316E+02 -0.22676879231E+02 -0.31843573917E+03  0.32060286381E+03  0.00000000000E+00 0.  1.
         21    1    1    2  504  503  0.29506532316E+02  0.22676879231E+02 -0.33828041000E+02  0.50291278159E+02  0.00000000000E+00 0.  1.
</event>
<event>
 4    1  0.1725802E+006  0.2186178E+02  0.7546771E-02  0.1507308E+00
         21   -1    0    0  503  501  0.00000000000E+00  0.00000000000E+00  0.14434171519E+03  0.14434171519E+03  0.00000000000E+00 0. -1.
         21   -1    0    0  504  502 -0.00000000000E+00 -0.00000000000E+00 -0.94810190858E+01  0.94810190858E+01  0.00000000000E+00 0. -1.
         21    1    1    2  503  502 -0.18657882091E+02  0.11393901659E+02  0.12947450334E+03  0.13130721448E+03  0.00000000000E+00 0. -1.
         21    1    1    2  504  501  0.18657882091E+02 -0.11393901659E+02  0.53861927615E+01  0.22515519794E+02  0.00000000000E+00 0. -1.
</event>
<event>
 4    1  0.1725802E+006  0.3139034E+02  0.7546771E-02  0.1407887E+00
         21   -1    0    0  503  501  0.00000000000E+00  0.00000000000E+00  0.69591653830E+01  0.69591653830E+01  0.00000000000E+00 0.  1.
         21   -1    0    0  504  502 -0.00000000000E+00 -0.00000000000E+00 -0.14384155852E+03  0.14384155852E+03  0.00000000000E+00 0.  1.
         21    1    1    2  503  502  0.26563394017E+02  0.16725420320E+02 -0.59009310053E+02  0.66839002532E+02  0.00000000000E+00 0.  1.
         21    1    1    2  504  501 -0.26563394017E+02 -0.16725420320E+02 -0.77873083085E+02  0.83961721371E+02  0.00000000000E+00 0.  1.
</event>
<event>
 4    1  0.1725802E+006  0.3267249E+02  0.7546771E-02  0.1397709E+00
         21   -1    0    0  504  501  0.00000000000E+00  0.00000000000E+00  0.11607635493E+02  0.11607635493E+02  0.00000000000E+00 0. -1.
         21   -1    0    0  503  502 -0.00000000000E+00 -0.00000000000E+00 -0.22648158537E+03  0.22648158537E+03  0.00000000000E+00 0.  1.
         21    1    1    2  503  501 -0.21411804717E+02  0.24678456243E+02 -0.15692092421E+02  0.36245459692E+02  0.00000000000E+00 0. -1.
         21    1    1    2  504  502  0.21411804717E+02 -0.24678456243E+02 -0.19918185746E+03  0.20184376117E+03  0.00000000000E+00 0.  1.
</event>
<event>
 4    1  0.1725802E+006  0.2079334E+02  0.7546771E-02  0.1522236E+00
         21   -1    0    0  502  501  0.00000000000E+00  0.00000000000E+00  0.19930177787E+03  0.19930177787E+03  0.00000000000E+00 0.  1.
         21   -1    0    0  504  502 -0.00000000000E+00 -0.00000000000E+00 -0.68949419313E+01  0.68949419313E+01  0.00000000000E+00 0. -1.
         21    1    1    2  503  501  0.90465703985E+00 -0.20773650302E+02  0.18155524006E+03  0.18274208094E+03  0.00000000000E+00 0.  1.
         21    1    1    2  504  503 -0.90465703985E+00  0.20773650302E+02  0.10851595878E+02  0.23454638866E+02  0.00000000000E+00 0. -1.
</event>
<event>
 4    1  0.1725802E+006  0.2072598E+02  0.7546771E-02  0.1523213E+00
         21   -1    0    0  503  501  0.00000000000E+00  0.00000000000E+00  0.11123312536E+02  0.11123312536E+02  0.00000000000E+00 0. -1.
         21   -1    0    0  501  502 -0.00000000000E+00 -0.00000000000E+00 -0.12017254555E+03  0.12017254555E+03  0.00000000000E+00 0. -1.
         21    1    1    2  503  504  0.19727016441E+02  0.63569857015E+01 -0.44408351762E+00  0.20730741787E+02  0.00000000000E+00 0. -1.
         21    1    1    2  504  502 -0.19727016441E+02 -0.63569857015E+01 -0.10860514949E+03  0.11056511630E+03  0.00000000000E+00 0. -1.
</event>
<event>
 4    1  0.1725802E+006  0.2036272E+02  0.7546771E-02  0.1528561E+00
         21   -1    0    0  502  501  0.00000000000E+00  0.00000000000E+00  0.72761251869E+02  0.72761251869E+02  0.00000000000E+00 0. -1.
         21   -1    0    0  503  502 -0.00000000000E+00 -0.00000000000E+00 -0.16891588170E+02  0.16891588170E+02  0.00000000000E+00 0. -1.
         21    1    1    2  503  504 -0.16078463646E+02 -0.12494936771E+02 -0.85549268557E+01  0.22086810807E+02  0.00000000000E+00 0. -1.
         21    1    1    2  504  501  0.16078463646E+02  0.12494936771E+02  0.64424590554E+02  0.67566029232E+02  0.00000000000E+00 0. -1.
</event>
<event>
 4    1  0.1725802E+006  0.2196668E+02  0.7546771E-02  0.1505898E+00
         21   -1    0    0  504  501  0.00000000000E+00  0.00000000000E+00  0.10057805439E+03  0.10057805439E+03  0.00000000000E+00 0. -1.
         21   -1    0    0  503  502 -0.00000000000E+00 -0.00000000000E+00 -0.11285160479E+03  0.11285160479E+03  0.00000000000E+00 0.  1.
         21    1    1    2  503  501 -0.16568297598E+02 -0.14423132119E+02 -0.11055860531E+03  0.11271974287E+03  0.00000000000E+00 0.  1.
         21    1    1    2  504  502  0.16568297598E+02  0.14423132119E+02  0.98285054903E+02  0.10070991631E+03  0.00000000000E+00 0. -1.
</event>
<event>
 4    1  0.1725802E+006  0.2174111E+02  0.7546771E-02  0.1508941E+00
         21   -1    0    0  503  501  0.00000000000E+00  0.00000000000E+00  0.11097651943E+02  0.11097651943E+02  0.00000000000E+00 0. -1.
         21   -1    0    0  504  502 -0.00000000000E+00 -0.00000000000E+00 -0.51172719685E+02  0.51172719685E+02  0.00000000000E+00 0. -1.
         21    1    1    2  503  502 -0.17717555694E+02  0.12600156818E+02 -0.32786756842E+02  0.39340146871E+02  0.00000000000E+00 0. -1.
         21    1    1    2  504  501  0.17717555694E+02 -0.12600156818E+02 -0.72883108994E+01  0.22930224756E+02  0.00000000000E+00 0. -1.
</event>
<event>
 4    1  0.1725802E+006  0.2518768E+02  0.7546771E-02  0.1466715E+00
         21   -1    0    0  504  501  0.00000000000E+00  0.00000000000E+00  0.11472013925E+04  0.11472013925E+04  0.00000000000E+00 0. -1.
         21   -1    0    0  503  502 -0.00000000000E+00 -0.00000000000E+00 -0.16752088802E+01  0.16752088802E+01  0.00000000000E+00 0. -1.
         21    1    1    2  503  501 -0.25157813133E+02 -0.12262442078E+01  0.10260608684E+03  0.10565239369E+03  0.00000000000E+00 0. -1.
         21    1    1    2  504  502  0.25157813133E+02  0.12262442078E+01  0.10429200968E+04  0.10432242077E+04  0.00000000000E+00 0. -1.
</event>
<event>
 4    1  0.1725802E+006  0.2532775E+02  0.7546771E-02  0.1465170E+00
         21   -1    0    0  504  501  0.00000000000E+00  0.00000000000E+00  0.39467721775E+03  0.39467721775E+03  0.00000000000E+00 0.  1.
         21   -1    0    0  503  502 -0.00000000000E+00 -0.00000000000E+00 -0.30688068957E+01  0.30688068957E+01  0.00000000000E+00 0. -1.
         21    1    1    2  503  501 -0.14905969142E+02  0.20476985774E+02  0.59411670779E+02  0.64585149123E+02  0.00000000000E+00 0. -1.
         21    1    1    2  504  502  0.14905969142E+02 -0.20476985774E+02  0.33219674008E+03  0.33316087552E+03  0.00000000000E+00 0.  1.
</event>
<event>
 4    1  0.1725802E+006  0.2373347E+02  0.7546771E-02  0.1483488E+00
         21   -1    0    0  503  501  0.00000000000E+00  0.00000000000E+00  0.35293794860E+02  0.35293794860E+02  0.00000000000E+00 0. -1.
         21   -1    0    0  501  502 -0.00000000000E+00 -0.00000000000E+00 -0.69638864550E+02  0.69638864550E+02  0.00000000000E+00 0.  1.
         21    1    1    2  503  504  0.23202424849E+02 -0.49924811938E+01  0.28891060339E+02  0.37389447105E+02  0.00000000000E+00 0. -1.
         21    1    1    2  504  502 -0.23202424849E+02  0.49924811938E+01 -0.63236130029E+02  0.67543212304E+02  0.00000000000E+00 0.  1.
</event>
<event>
 4    1  0.1725802E+006  0.2524896E+02  0.7546771E-02  0.1466037E+00
         21   -1    0    0  504  501  0.00000000000E+00  0.00000000000E+00  0.68174126968E+01  0.68174126968E+01  0.00000000000E+00 0.  1.
         21   -1    0    0  501  502 -0.00000000000E+00 -0.00000000000E+00 -0.98628905026E+02  0.98628905026E+02  0.00000000000E+00 0.  1.
         21    1    1    2  503  502  0.29866599272E+01 -0.25071697227E+02 -0.57914597842E+02  0.63179195805E+02  0.00000000000E+00 0.  1.
         21    1    1    2  504  503 -0.29866599272E+01  0.25071697227E+02 -0.33896894487E+02  0.42267121918E+02  0.00000000000E+00 0.  1.
</event>
<event>
 4    1  0.1725802E+006  0.2035846E+02  0.7546771E-02  0.1528625E+00
         21   -1    0    0  502  501  0.00000000000E+00  0.00000000000E+00  0.14967562457E+03  0.14967562457E+03  0.00000000000E+00 0.  1.
         21   -1    0    0  503  502 -0.00000000000E+00 -0.00000000000E+00 -0.90034166643E+01  0.90034166643E+01  0.00000000000E+00 0.  1.
         21    1    1    2  503  504  0.12162892447E+02  0.16325774901E+02  0.43153770587E+01  0.20810799070E+02  0.00000000000E+00 0.  1.
         21    1    1    2  504  501 -0.12162892447E+02 -0.16325774901E+02  0.13635683085E+03  0.13786824217E+03  0.00000000000E+00 0.  1.
</event>
<event>
 4    1  0.1725802E+006  0.2013105E+02  0.7546771E-02  0.1532042E+00
         21   -1    0    0  502  501  0.00000000000E+00  0.00000000000E+00  0.19994572948E+02  0.19994572948E+02  0.00000000000E+00 0.  1.
         21   -1    0    0  504  502 -0.00000000000E+00 -0.00000000000E+00 -0.75240647218E+02  0.75240647218E+02  0.00000000000E+00 0. -1.
         21    1    1    2  503  501  0.52679320477E+01  0.19429570396E+02  0.13078688224E+02  0.24006486613E+02  0.00000000000E+00 0.  1.
         21    1    1    2  504  503 -0.52679320477E+01 -0.19429570396E+02 -0.68324762494E+02  0.71228733554E+02  0.00000000000E+00 0. -1.
</event>
<event>
 4    1  0.1725802E+006  0.2137593E+02  0.7546771E-02  0.1513965E+00
         21   -1    0    0  503  501  0.00000000000E+00  0.00000000000E+00  0.77056895651E+00  0.77056895651E+00  0.00000000000E+00 0. -1.
         21   -1    0    0  504  502 -0.00000000000E+00 -0.00000000000E+00 -0.60836581929E+03  0.60836581929E+03  0.00000000000E+00 0. -1.
         21    1    1    2  503  502 -0.19406514151E+02 -0.89620059735E+01 -0.35223632133E+03  0.35288433857E+03  0.00000000000E+00 0. -1.
         21    1    1    2  504  501  0.19406514151E+02  0.89620059735E+01 -0.25535892900E+03  0.25625204968E+03  0.00000000000E+00 0. -1.
</event>
<event>
 4    1  0.1725802E+006  0.2555359E+02  0.7546771E-02  0.1462705E+00
         21   -1    0    0  504  501  0.00000000000E+00  0.00000000000E+00  0.18554529564E+03  0.18554529564E+03  0.00000000000E+00 0. -1.
         21   -1    0    0  501  502 -0.00000000000E+00 -0.00000000000E+00 -0.35966457177E+01  0.35966457177E+01  0.00000000000E+00 0. -1.
         21    1    1    2  503  502  0.23099769477E+02 -0.10926423490E+02  0.77104218830E+02  0.81228361066E+02  0.00000000000E+00 0. -1.
         21    1    1    2  504  503 -0.23099769477E+02  0.10926423490E+02  0.10484443109E+03  0.10791358029E+03  0.00000000000E+00 0. -1.
</event>
<event>
 4    1  0.1725802E+006  0.2351513E+02  0.7546771E-02  0.1486129E+00
         21   -1    0    0  504  501  0.00000000000E+00  0.00000000000E+00  0.19193973937E+01  0.19193973937E+01  0.00000000000E+00 0.  1.
         21   -1    0    0  501  502 -0.00000000000E+00 -0.00000000000E+00 -0.63879883428E+03  0.63879883428E+03  0.00000000000E+00 0. -1.
         21    1    1    2  503  502 -0.11554388927E+02 -0.20480662269E+02 -0.55581071918E+03  0.55630793360E+03  0.00000000000E+00 0. -1.
         21    1    1    2  504  503  0.11554388927E+02  0.20480662269E+02 -0.81068717707E+02  0.84410298075E+02  0.00000000000E+00 0.  1.
</event>
<event>
 4    1  0.1725802E+006  0.2163802E+02  0.7546771E-02  0.1510347E+00
         21   -1    0    0  504  501  0.00000000000E+00  0.00000000000E+00  0.18400109997E+03  0.18400109997E+03  0.00000000000E+00 0.  1.
         21   -1    0    0  503  502 -0.00000000000E+00 -0.00000000000E+00 -0.61542513130E+01  0.61542513130E+01  0.00000000000E+00 0. -1.
         21    1    1    2  503  501  0.45322676342E+01 -0.21158040109E+02  0.16173915835E+03  0.16318014418E+03  0.00000000000E+00 0.  1.
         21    1    1    2  504  502 -0.45322676342E+01  0.21158040109E+02  0.16107690306E+02  0.26975207101E+02  0.00000000000E+00 0. -1.
</event>
<event>
 4    1  0.1725802E+006  0.2100568E+02  0.7546771E-02  0.1519184E+00
         21   -1    0    0  504  501  0.00000000000E+00  0.00000000000E+00  0.12855875981E+02  0.12855875981E+02  0.00000000000E+00 0.  1.
         21   -1    0    0  501  502 -0.00000000000E+00 -0.00000000000E+00 -0.30647771003E+03  0.30647771003E+03  0.00000000000E+00 0.  1.
         21    1    1    2  503  502  0.10226758718E+02  0.18348075431E+02 -0.29727191465E+03  0.29801313680E+03  0.00000000000E+00 0.  1.
         21    1    1    2  504  503 -0.10226758718E+02 -0.18348075431E+02  0.36500806060E+01  0.21320449205E+02  0.00000000000E+00 0.  1.
</event>
<event>
 4    1  0.1725802E+006  0.2939327E+02  0.7546771E-02  0.1424943E+00
         21   -1    0    0  504  501  0.00000000000E+00  0.00000000000E+00  0.14843312380E+01  0.14843312380E+01  0.00000000000E+00 0.  1.
         21   -1    0    0  503  502 -0.00000000000E+00 -0.00000000000E+00 -0.58213113221E+03  0.58213113221E+03  0.00000000000E+00 0. -1.
         21    1    1    2  503  501 -0.21759643492E+02  0.19760619586E+02 -0.28701226828E+03  0.28851344217E+03  0.00000000000E+00 0.  1.
         21    1    1    2  504  502  0.21759643492E+02 -0.19760619586E+02 -0.29363453269E+03  0.29510202128E+03  0.00000000000E+00 0. -1.
</event>
<event>
 4    1  0.1725802E+006  0.3501807E+02  0.7546771E-02  0.1380436E+00
         21   -1    0    0  503  501  0.00000000000E+00  0.00000000000E+00  0.12602373789E+02  0.12602373789E+02  0.00000000000E+00 0.  1.
         21   -1    0    0  504  502 -0.00000000000E+00 -0.00000000000E+00 -0.97846457773E+02  0.97846457773E+02  0.00000000000E+00 0.  1.
         21    1    1    2  503  502  0.35003214007E+02 -0.10198837753E+01 -0.46732797195E+02  0.58397084580E+02  0.00000000000E+00 0.  1.
         21    1    1    2  504  501 -0.35003214007E+02  0.10198837753E+01 -0.38511286789E+02  0.52051746982E+02  0.00000000000E+00 0.  1.
</event>
<event>
 4    1  0.1725802E+006  0.3159642E+02  0.7546771E-02  0.1406213E+00
         21   -1    0    0  504  501  0.00000000000E+00  0.00000000000E+00  0.98619881526E+03  0.98619881526E+03  0.00000000000E+00 0.  1.
         21   -1    0    0  503  502 -0.00000000000E+00 -0.00000000000E+00 -0.10195990044E+01  0.10195990044E+01  0.00000000000E+00 0.  1.
         21    1    1    2  503  501 -0.31185365769E+02  0.50800274483E+01  0.45083928384E+03  0.45194512229E+03  0.00000000000E+00 0.  1.
         21    1    1    2  504  502  0.31185365769E+02 -0.50800274483E+01  0.53433993242E+03  0.53527329197E+03  0.00000000000E+00 0.  1.
</event>
<event>
 4    1  0.1725802E+006  0.4323135E+02  0.7546771E-02  0.1330524E+00
         21   -1    0    0  503  501  0.00000000000E+00  0.00000000000E+00  0.96621911023E+02  0.96621911023E+02  0.00000000000E+00 0. -1.
         21   -1    0    0  504  502 -0.00000000000E+00 -0.00000000000E+00 -0.19343161735E+02  0.19343161735E+02  0.00000000000E+00 0. -1.
         21    1    1    2  503  502 -0.32382920621E+02  0.28640811001E+02  0.38845629817E+02  0.58119984159E+02  0.00000000000E+00 0. -1.
         21    1    1    2  504  501  0.32382920621E+02 -0.28640811001E+02  0.38433119471E+02  0.57845088599E+02  0.00000000000E+00 0. -1.
</event>
<event>
 4    1  0.1725802E+006  0.2165619E+02  0.7546771E-02  0.1510099E+00
         21   -1    0    0  504  501  0.00000000000E+00  0.00000000000E+00  0.14042020312E+03  0.14042020312E+03  0.00000000000E+00 0. -1.
         21   -1    0    0  503  502 -0.00000000000E+00 -0.00000000000E+00 -0.84236732490E+02  0.84236732490E+02  0.00000000000E+00 0.  1.
         21    1    1    2  503  501 -0.19356632287E+02 -0.97114092114E+01 -0.81987350351E+02  0.84799270633E+02  0.00000000000E+00 0.  1.
         21    1    1    2  504  502  0.19356632287E+02  0.97114092114E+01  0.13817082098E+03  0.13985766498E+03  0.00000000000E+00 0. -1.
</event>
<event>
 4    1  0.1725802E+006  0.3113553E+02  0.7546771E-02  0.1409979E+00
         21   -1    0    0  503  501  0.00000000000E+00  0.00000000000E+00  0.40439800285E+01  0.40439800285E+01  0.00000000000E+00 0. -1.
         21   -1    0    0  504  502 -0.00000000000E+00 -0.00000000000E+00 -0.32098089499E+03  0.32098089499E+03  0.00000000000E+00 0. -1.
         21    1    1    2  503  502 -0.24841781774E+01 -0.31036273512E+02 -0.76699438087E+02  0.82778168725E+02  0.00000000000E+00 0. -1.
         21    1    1    2  504  501  0.24841781774E+01  0.31036273512E+02 -0.24023747687E+03  0.24224670629E+03  0.00000000000E+00 0. -1.
</event>
<event>
 4    1  0.1725802E+006  0.3463999E+02  0.7546771E-02  0.1383112E+00
         21   -1    0    0  503  501  0.00000000000E+00  0.00000000000E+00  0.50938219111E+02  0.50938219111E+02  0.00000000000E+00 0. -1.
         21   -1    0    0  504  502 -0.00000000000E+00 -0.00000000000E+00 -0.82152296533E+02  0.82152296533E+02  0.00000000000E+00 0.  1.
         21    1    1    2  503  502  0.10393076476E+02  0.33044106857E+02  0.40593474252E+02  0.53364400010E+02  0.00000000000E+00 0. -1.
         21    1    1    2  504  501 -0.10393076476E+02 -0.33044106857E+02 -0.71807551673E+02  0.79726115633E+02  0.00000000000E+00 0.  1.
</event>
<event>
 4    1  0.1725802E+006  0.2403997E+02  0.7546771E-02  0.1479836E+00
         21   -1    0    0  504  501  0.00000000000E+00  0.00000000000E+00  0.58733272907E+02  0.58733272907E+02  0.00000000000E+00 0. -1.
         21   -1    0    0  503  502 -0.00000000000E+00 -0.00000000000E+00 -0.10105794793E+02  0.10105794793E+02  0.00000000000E+00 0. -1.
         21    1    1    2  503  501 -0.27997297473E+00  0.24038343066E+02  0.29898475530E+02  0.38364556054E+02  0.00000000000E+00 0. -1.
         21    1    1    2  504  502  0.27997297473E+00 -0.24038343066E+02  0.18729002584E+02  0.30474511645E+02  0.00000000000E+00 0. -1.
</event>
<event>
 4    1  0.1725802E+006  0.2272485E+02  0.7546771E-02  0.1495982E+00
         21   -1    0    0  503  501  0.00000000000E+00  0.00000000000E+00  0.38374382888E+02  0.38374382888E+02  0.00000000000E+00 0. -1.
         21   -1    0    0  504  502 -0.00000000000E+00 -0.00000000000E+00 -0.29559008479E+02  0.29559008479E+02  0.00000000000E+00 0. -1.
         21    1    1    2  503  502  0.18918602487E+02  0.12589884156E+02 -0.20661673113E+02  0.30713570925E+02  0.00000000000E+00 0. -1.
         21    1    1    2  504  501 -0.18918602487E+02 -0.12589884156E+02  0.29477047522E+02  0.37219820442E+02  0.00000000000E+00 0. -1.
</event>
<event>
 4    1  0.1725802E+006  0.2030580E+02  0.7546771E-02  0.1529411E+00
         21   -1    0    0  503  501  0.00000000000E+00  0.00000000000E+00  0.21564295744E+01  0.21564295744E+01  0.00000000000E+00 0. -1.
         21   -1    0    0  504  502 -0.00000000000E+00 -0.00000000000E+00 -0.61913151368E+03  0.61913151368E+03  0.00000000000E+00 0.  1.
         21    1    1    2  503  502 -0.13696087538E+02  0.14991426108E+02 -0.56674612629E+03  0.56710977538E+03  0.00000000000E+00 0.  1.
         21    1    1    2  504  501  0.13696087538E+02 -0.14991426108E+02 -0.50228957816E+02  0.54178167872E+02  0.00000000000E+00 0. -1.
</event>
<event>
 4    1  0.1725802E+006  0.2412269E+02  0.7546771E-02  0.1478862E+00
         21   -1    0    0  502  501  0.00000000000E+00  0.00000000000E+00  0.22968571199E+02  0.22968571199E+02  0.00000000000E+00 0.  1.
         21   -1    0    0  503  502 -0.00000000000E+00 -0.00000000000E+00 -0.40464307717E+02  0.40464307717E+02  0.00000000000E+00 0. -1.
         21    1    1    2  503  504 -0.21045609119E+02 -0.11789261964E+02 -0.28141566820E+02  0.37065511515E+02  0.00000000000E+00 0. -1.
         21    1    1    2  504  501  0.21045609119E+02  0.11789261964E+02  0.10645830301E+02  0.26367367401E+02  0.00000000000E+00 0.  1.
</event>
<event>
 4    1  0.1725802E+006  0.3295659E+02  0.7546771E-02  0.1395528E+00
         21   -1    0    0  503  501  0.00000000000E+00  0.00000000000E+00  0.11242894458E+03  0.11242894458E+03  0.00000000000E+00 0. -1.
         21   -1    0    0  504  502 -0.00000000000E+00 -0.00000000000E+00 -0.12153668459E+03  0.12153668459E+03  0.00000000000E+00 0.  1.
         21    1    1    2  503  502  0.28728148131E+02  0.16150240569E+02 -0.11679109088E+03  0.12135194962E+03  0.00000000000E+00 0.  1.
         21    1    1    2  504  501 -0.28728148131E+02 -0.16150240569E+02  0.10768335088E+03  0.11261367955E+03  0.00000000000E+00 0. -1.
</event>
<event>
 4    1  0.1725802E+006  0.2816985E+02  0.7546771E-02  0.1436198E+00
         21   -1    0    0  502  501  0.00000000000E+00  0.00000000000E+00  0.17156064617E+02  0.17156064617E+02  0.00000000000E+00 0.  1.
         21   -1    0    0  503  502 -0.00000000000E+00 -0.00000000000E+00 -0.17666792882E+03  0.17666792882E+03  0.00000000000E+00 0.  1.
         21    1    1    2  503  504 -0.13551849958E+02 -0.24695909824E+02 -0.16302051008E+03  0.16543647514E+03  0.00000000000E+00 0.  1.
         21    1    1    2  504  501  0.13551849958E+02  0.24695909824E+02  0.35086458766E+01  0.28387518300E+02  0.00000000000E+00 0.  1.
</event>
<event>
 4    1  0.1725802E+006  0.2304506E+02  0.7546771E-02  0.1491933E+00
         21   -1    0    0  504  501  0.00000000000E+00  0.00000000000E+00  0.26836506964E+02  0.26836506964E+02  0.00000000000E+00 0.  1.
         21   -1    0    0  503  502 -0.00000000000E+00 -0.00000000000E+00 -0.28551557287E+02  0.28551557287E+02  0.00000000000E+00 0.  1.
         21    1    1    2  503  501 -0.20032983114E+02  0.11390980956E+02 -0.16199457256E+02  0.28169083672E+02  0.00000000000E+00 0.  1.
         21    1    1    2  504  502  0.20032983114E+02 -0.11390980956E+02  0.14484406932E+02  0.27218980579E+02  0.00000000000E+00 0.  1.
</event>
<event>
 4    1  0.1725802E+006  0.2044075E+02  0.7546771E-02  0.1527401E+00
         21   -1    0    0  503  501  0.00000000000E+00  0.00000000000E+00  0.27271876280E+03  0.27271876280E+03  0.00000000000E+00 0. -1.
         21   -1    0    0  501  502 -0.00000000000E+00 -0.00000000000E+00 -0.16520628510E+02  0.16520628510E+02  0.00000000000E+00 0.  1.
         21    1    1    2  503  504  0.19310762023E+02  0.67021400973E+01  0.26584985628E+03  0.26663452570E+03  0.00000000000E+00 0. -1.
         21    1    1    2  504  502 -0.19310762023E+02 -0.67021400973E+01 -0.96517219907E+01  0.22604865608E+02  0.00000000000E+00 0.  1.
</event>
<event>
 4    1  0.1725802E+006  0.2155487E+02  0.7546771E-02  0.1511488E+00
         21   -1    0    0  503  501  0.00000000000E+00  0.00000000000E+00  0.13222898511E+01  0.13222898511E+01  0.00000000000E+00 0. -1.
         21   -1    0    0  504  502 -0.00000000000E+00 -0.00000000000E+00 -0.35690030249E+03  0.35690030249E+03  0.00000000000E+00 0. -1.
         21    1    1    2  503  502 -0.93536581294E+00  0.21534568900E+02 -0.20008548996E+03  0.20124317593E+03  0.00000000000E+00 0. -1.
         21    1    1    2  504  501  0.93536581294E+00 -0.21534568900E+02 -0.15549252268E+03  0.15697941641E+03  0.00000000000E+00 0. -1.
</event>
<event>
 4    1  0.1725802E+006  0.2773220E+02  0.7546771E-02  0.1440388E+00
         21   -1    0    0  503  501  0.00000000000E+00  0.00000000000E+00  0.15832770232E+02  0.15832770232E+02  0.00000000000E+00 0.  1.
         21   -1    0    0  504  502 -0.00000000000E+00 -0.00000000000E+00 -0.71064435169E+02  0.71064435169E+02  0.00000000000E+00 0. -1.
         21    1    1    2  503  502 -0.21777309079E+02  0.17170431880E+02 -0.31736440305E+01  0.27913203651E+02  0.00000000000E+00 0.  1.
         21    1    1    2  504  501  0.21777309079E+02 -0.17170431880E+02 -0.52058020907E+02  0.58984001749E+02  0.00000000000E+00 0. -1.
</event>
<event>
 4    1  0.1725802E+006  0.2673654E+02  0.7546771E-02  0.1450273E+00
         21   -1    0    0  502  501  0.00000000000E+00  0.00000000000E+00  0.36923604613E+03  0.36923604613E+03  0.00000000000E+00 0. -1.
         21   -1    0    0  504  502 -0.00000000000E+00 -0.00000000000E+00 -0.23028112981E+03  0.23028112981E+03  0.00000000000E+00 0. -1.
         21    1    1    2  503  501 -0.36988573951E+01 -0.26479448358E+02  0.36797333099E+03  0.36894337649E+03  0.00000000000E+00 0. -1.
         21    1    1    2  504  503  0.36988573951E+01  0.26479448358E+02 -0.22901841468E+03  0.23057379945E+03  0.00000000000E+00 0. -1.
</event>
<event>
 4    1  0.1725802E+006  0.4715752E+02  0.7546771E-02  0.1310990E+00
         21   -1    0    0  504  501  0.00000000000E+00  0.00000000000E+00  0.15809186303E+03  0.15809186303E+03  0.00000000000E+00 0. -1.
         21   -1    0    0  503  502 -0.00000000000E+00 -0.00000000000E+00 -0.15667342437E+02  0.15667342437E+02  0.00000000000E+00 0.  1.
         21    1    1    2  503  501 -0.71699557652E+01 -0.46609263852E+02  0.98981661918E+02  0.10964123831E+03  0.00000000000E+00 0. -1.
         21    1    1    2  504  502  0.71699557652E+01  0.46609263852E+02  0.43442858679E+02  0.64117967160E+02  0.00000000000E+00 0.  1.
</event>
<event>
 4    1  0.1725802E+006  0.4284439E+02  0.7546771E-02  0.1332578E+00
         21   -1    0    0  504  501  0.00000000000E+00  0.00000000000E+00  0.70091141987E+01  0.70091141987E+01  0.00000000000E+00 0. -1.
         21   -1    0    0  503  502 -0.00000000000E+00 -0.00000000000E+00 -0.26238512545E+03  0.26238512545E+03  0.00000000000E+00 0. -1.
         21    1    1    2  503  501 -0.39180746783E+02 -0.17335240847E+02 -0.12185754196E+03  0.12917005081E+03  0.00000000000E+00 0. -1.
         21    1    1    2  504  502  0.39180746783E+02  0.17335240847E+02 -0.13351846930E+03  0.14022418884E+03  0.00000000000E+00 0. -1.
</event>
<event>
 4    1  0.1725802E+006  0.3780567E+02  0.7546771E-02  0.1361847E+00
         21   -1    0    0  502  501  0.00000000000E+00  0.00000000000E+00  0.81481007779E+03  0.81481007779E+03  0.00000000000E+00 0.  1.
         21   -1    0    0  503  502 -0.00000000000E+00 -0.00000000000E+00 -0.22987613939E+01  0.22987613939E+01  0.00000000000E+00 0.  1.
         21    1    1    2  503  504 -0.26007190122E+00  0.37804774474E+02  0.20738933452E+03  0.21080703186E+03  0.00000000000E+00 0.  1.
         21    1    1    2  504  501  0.26007190122E+00 -0.37804774474E+02  0.60512198188E+03  0.60630180732E+03  0.00000000000E+00 0.  1.
</event>
<event>
 4    1  0.1725802E+006  0.2576967E+02  0.7546771E-02  0.1460374E+00
         21   -1    0    0  503  501  0.00000000000E+00  0.00000000000E+00  0.40922958833E+02  0.40922958833E+02  0.00000000000E+00 0.  1.
         21   -1    0    0  504  502 -0.00000000000E+00 -0.00000000000E+00 -0.21214560285E+03  0.21214560285E+03  0.00000000000E+00 0.  1.
         21    1    1    2  503  502 -0.29394012933E+01  0.25601483821E+02  0.35987257417E+02  0.44262385275E+02  0.00000000000E+00 0.  1.
         21    1    1    2  504  501  0.29394012933E+01 -0.25601483821E+02 -0.20720990143E+03  0.20880617641E+03  0.00000000000E+00 0.  1.
</event>
<event>
 4    1  0.1725802E+006  0.2489303E+02  0.7546771E-02  0.1470004E+00
         21   -1    0    0  504  501  0.00000000000E+00  0.00000000000E+00  0.15993192282E+03  0.15993192282E+03  0.00000000000E+00 0. -1.
         21   -1    0    0  501  502 -0.00000000000E+00 -0.00000000000E+00 -0.81779505443E+01  0.81779505443E+01  0.00000000000E+00 0.  1.
         21    1    1    2  503  502 -0.11187958525E+02  0.22237184727E+02  0.14902616089E+02  0.29012941368E+02  0.00000000000E+00 0.  1.
         21    1    1    2  504  503  0.11187958525E+02 -0.22237184727E+02  0.13685135618E+03  0.13909693199E+03  0.00000000000E+00 0. -1.
</event>
<event>
 4    1  0.1725802E+006  0.3685851E+02  0.7546771E-02  0.1367948E+00
         21   -1    0    0  504  501  0.00000000000E+00  0.00000000000E+00  0.10650434274E+02  0.10650434274E+02  0.00000000000E+00 0. -1.
         21   -1    0    0  503  502 -0.00000000000E+00 -0.00000000000E+00 -0.24498429074E+03  0.24498429074E+03  0.00000000000E+00 0.  1.
         21    1    1    2  503  501  0.10335704527E+02 -0.35379701767E+02 -0.28675122126E+02  0.46699172520E+02  0.00000000000E+00 0. -1.
         21    1    1    2  504  502 -0.10335704527E+02  0.35379701767E+02 -0.20565873434E+03  0.20893555249E+03  0.00000000000E+00 0.  1.
</event>
<event>
 4    1  0.1725802E+006  0.2116714E+02  0.7546771E-02  0.1516892E+00
         21   -1    0    0  504  501  0.00000000000E+00  0.00000000000E+00  0.16889074037E+01  0.16889074037E+01  0.00000000000E+00 0.  1.
         21   -1    0    0  503  502 -0.00000000000E+00 -0.00000000000E+00 -0.40469119379E+03  0.40469119379E+03  0.00000000000E+00 0.  1.
         21    1    1    2  503  501 -0.63310671714E+01 -0.20198150765E+02 -0.32075602050E+03  0.32145368623E+03  0.00000000000E+00 0.  1.
         21    1    1    2  504  502  0.63310671714E+01  0.20198150765E+02 -0.82246265891E+02  0.84926414965E+02  0.00000000000E+00 0.  1.
</event>
<event>
 4    1  0.1725802E+006  0.2144640E+02  0.7546771E-02  0.1512986E+00
         21   -1    0    0  502  501  0.00000000000E+00  0.00000000000E+00  0.48205835401E+02  0.48205835401E+02  0.00000000000E+00 0.  1.
         21   -1    0    0  504  502 -0.00000000000E+00 -0.00000000000E+00 -0.71398428987E+03  0.71398428987E+03  0.00000000000E+00 0. -1.
         21    1    1    2  503  501 -0.19288998251E+02 -0.93745838596E+01  0.45650886002E+02  0.50437601736E+02  0.00000000000E+00 0.  1.
         21    1    1    2  504  503  0.19288998251E+02  0.93745838596E+01 -0.71142934047E+03  0.71175252354E+03  0.00000000000E+00 0. -1.
</event>
<event>
 4    1  0.1725802E+006  0.2291555E+02  0.7546771E-02  0.1493561E+00
         21   -1    0    0  503  501  0.00000000000E+00  0.00000000000E+00  0.35683572761E+02  0.35683572761E+02  0.00000000000E+00 0.  1.
         21   -1    0    0  504  502 -0.00000000000E+00 -0.00000000000E+00 -0.50455447835E+03  0.50455447835E+03  0.00000000000E+00 0. -1.
         21    1    1    2  503  502 -0.15853682760E+02 -0.16546398867E+02  0.31715209779E+02  0.39127702512E+02  0.00000000000E+00 0.  1.
         21    1    1    2  504  501  0.15853682760E+02  0.16546398867E+02 -0.50058611537E+03  0.50111034860E+03  0.00000000000E+00 0. -1.
</event>
<event>
 4    1  0.1725802E+006  0.3764470E+02  0.7546771E-02  0.1362869E+00
         21   -1    0    0  504  501  0.00000000000E+00  0.00000000000E+00  0.54942338677E+01  0.54942338677E+01  0.00000000000E+00 0.  1.
         21   -1    0    0  503  502 -0.00000000000E+00 -0.00000000000E+00 -0.52722191931E+03  0.52722191931E+03  0.00000000000E+00 0.  1.
         21    1    1    2  503  501  0.20716684901E+02  0.31431555656E+02 -0.70501346244E+02  0.79922234369E+02  0.00000000000E+00 0.  1.
         21    1    1    2  504  502 -0.20716684901E+02 -0.31431555656E+02 -0.45122633919E+03  0.45279391880E+03  0.00000000000E+00 0.  1.
</event>
<event>
 4    1  0.1725802E+006  0.4839535E+02  0.7546771E-02  0.1305284E+00
         21   -1    0    0  504  501  0.00000000000E+00  0.00000000000E+00  0.22052141469E+03  0.22052141469E+03  0.00000000000E+00 0.  1.
         21   -1    0    0  503  502 -0.00000000000E+00 -0.00000000000E+00 -0.15658868367E+02  0.15658868367E+02  0.00000000000E+00 0.  1.
         21    1    1    2  503  501 -0.17568754421E+02  0.45093773152E+02  0.16941454105E+03  0.17619136252E+03  0.00000000000E+00 0.  1.
         21    1    1    2  504  502  0.17568754421E+02 -0.45093773152E+02  0.35448005278E+02  0.59988920537E+02  0.00000000000E+00 0.  1.
</event>
<event>
 4    1  0.1725802E+006  0.3963714E+02  0.7546771E-02  0.1350625E+00
         21   -1    0    0  504  501  0.00000000000E+00  0.00000000000E+00  0.14798232107E+03  0.14798232107E+03  0.00000000000E+00 0.  1.
         21   -1    0    0  501  502 -0.00000000000E+00 -0.00000000000E+00 -0.49899524269E+02  0.49899524269E+02  0.00000000000E+00 0.  1.
         21    1    1    2  503  502 -0.39391107552E+02 -0.44095221988E+01 -0.38745232809E+02  0.55428298780E+02  0.00000000000E+00 0.  1.
         21    1    1    2  504  503  0.39391107552E+02  0.44095221988E+01  0.13682802961E+03  0.14245354656E+03  0.00000000000E+00 0.  1.
</event>
<event>
 4    1  0.1725802E+006  0.2343481E+02  0.7546771E-02  0.1487109E+00
         21   -1    0    0  502  501  0.00000000000E+00  0.00000000000E+00  0.36625322090E+03  0.36625322090E+03  0.00000000000E+00 0.  1.
         21   -1    0    0  504  502 -0.00000000000E+00 -0.00000000000E+00 -0.75941066480E+01  0.75941066480E+01  0.00000000000E+00 0.  1.
         21    1    1    2  503  501 -0.10796576680E+02 -0.20799620532E+02  0.34678505243E+03  0.34757598144E+03  0.00000000000E+00 0.  1.
         21    1    1    2  504  503  0.10796576680E+02  0.20799620532E+02  0.11874061818E+02  0.26271346108E+02  0.00000000000E+00 0.  1.
</event>
<event>
 4    1  0.1725802E+006  0.2301528E+02  0.7546771E-02  0.1492306E+00
         21   -1    0    0  504  501  0.00000000000E+00  0.00000000000E+00  0.36218904122E+03  0.36218904122E+03  0.00000000000E+00 0.  1.
         21   -1    0    0  501  502 -0.00000000000E+00 -0.00000000000E+00 -0.18730552079E+01  0.18730552079E+01  0.00000000000E+00 0.  1.
         21    1    1    2  503  502  0.18471290002E+02 -0.13730058148E+02  0.94935612967E+02  0.97685585736E+02  0.00000000000E+00 0.  1.
         21    1    1    2  504  503 -0.18471290002E+02  0.13730058148E+02  0.26538037304E+03  0.26637651069E+03  0.00000000000E+00 0.  1.
</event>
<event>
 4    1  0.1725802E+006  0.2227753E+02  0.7546771E-02  0.1501775E+00
         21   -1    0    0  503  501  0.00000000000E+00  0.00000000000E+00  0.82143140984E+02  0.82143140984E+02  0.00000000000E+00 0. -1.
         21   -1    0    0  504  502 -0.00000000000E+00 -0.00000000000E+00 -0.32155083136E+02  0.32155083136E+02  0.00000000000E+00 0.  1.
         21    1    1    2  503  502  0.12587049907E+02  0.18380816905E+02  0.76495048863E+02  0.79672961260E+02  0.00000000000E+00 0. -1.
         21    1    1    2  504  501 -0.12587049907E+02 -0.18380816905E+02 -0.26506991015E+02  0.34625262860E+02  0.00000000000E+00 0.  1.
</event>
<event>
 4    1  0.1725802E+006  0.5688085E+02  0.7546771E-02  0.1270815E+00
         21   -1    0    0  504  501  0.00000000000E+00  0.00000000000E+00  0.63200823491E+01  0.63200823491E+01  0.00000000000E+00 0.  1.
         21   -1    0    0  503  502 -0.00000000000E+00 -0.00000000000E+00 -0.69541307777E+03  0.69541307777E+03  0.00000000000E+00 0.  1.
         21    1    1    2  503  501 -0.17510307468E+02  0.54118575469E+02 -0.16431934971E+03  0.17388582394E+03  0.00000000000E+00 0.  1.
         21    1    1    2  504  502  0.17510307468E+02 -0.54118575469E+02 -0.52477364571E+03  0.52784733618E+03  0.00000000000E+00 0.  1.
</event>
<event>
 4    1  0.1725802E+006  0.2419974E+02  0.7546771E-02  0.1477958E+00
         21   -1    0    0  503  501  0.00000000000E+00  0.00000000000E+00  0.33431719182E+03  0.33431719182E+03  0.00000000000E+00 0.  1.
         21   -1    0    0  504  502 -0.00000000000E+00 -0.00000000000E+00 -0.17834288248E+01  0.17834288248E+01  0.00000000000E+00 0. -1.
         21    1    1    2  503  502  0.24177561310E+02  0.10358917123E+01  0.18867751393E+03  0.19022311060E+03  0.00000000000E+00 0.  1.
         21    1    1    2  504  501 -0.24177561310E+02 -0.10358917123E+01  0.14385624907E+03  0.14587751005E+03  0.00000000000E+00 0. -1.
</event>
<event>
 4    1  0.1725802E+006  0.2669123E+02  0.7546771E-02  0.1450735E+00
         21   -1    0    0  502  501  0.00000000000E+00  0.00000000000E+00  0.11536143503E+03  0.11536143503E+03  0.00000000000E+00 0. -1.
         21   -1    0    0  503  502 -0.00000000000E+00 -0.00000000000E+00 -0.15005915313E+02  0.15005915313E+02  0.00000000000E+00 0. -1.
         21    1    1    2  503  504 -0.99477744272E+00  0.26672686932E+02  0.17469631534E+00  0.26691802658E+02  0.00000000000E+00 0. -1.
         21    1    1    2  504  501  0.99477744272E+00 -0.26672686932E+02  0.10018082340E+03  0.10367554769E+03  0.00000000000E+00 0. -1.
</event>
<event>
 4    1  0.1725802E+006  0.2410760E+02  0.7546771E-02  0.1479039E+00
         21   -1    0    0  502  501  0.00000000000E+00  0.00000000000E+00  0.52734344732E+01  0.52734344732E+01  0.00000000000E+00 0. -1.
         21   -1    0    0  503  502 -0.00000000000E+00 -0.00000000000E+00 -0.18828870408E+03  0.18828870408E+03  0.00000000000E+00 0.  1.
         21    1    1    2  503  504  0.11189590276E+02 -0.21353439235E+02 -0.15383076863E+03  0.15570832243E+03  0.00000000000E+00 0.  1.
         21    1    1    2  504  501 -0.11189590276E+02  0.21353439235E+02 -0.29184500983E+02  0.37853816126E+02  0.00000000000E+00 0. -1.
</event>
<event>
 4    1  0.1725802E+006  0.4018897E+02  0.7546771E-02  0.1347382E+00
         21   -1    0    0  503  501  0.00000000000E+00  0.00000000000E+00  0.21736790562E+03  0.21736790562E+03  0.00000000000E+00 0. -1.
         21   -1    0    0  504  502 -0.00000000000E+00 -0.00000000000E+00 -0.74584201688E+01  0.74584201688E+01  0.00000000000E+00 0. -1.
         21    1    1    2  503  502 -0.38541268313E+02  0.11389649561E+02  0.11183188112E+03  0.11883401498E+03  0.00000000000E+00 0. -1.
         21    1    1    2  504  501  0.38541268313E+02 -0.11389649561E+02  0.98077604329E+02  0.10599231081E+03  0.00000000000E+00 0. -1.
</event>
<event>
 4    1  0.1725802E+006  0.2220818E+02  0.7546771E-02  0.1502688E+00
         21   -1    0    0  503  501  0.00000000000E+00  0.00000000000E+00  0.23926824673E+02  0.23926824673E+02  0.00000000000E+00 0. -1.
         21   -1    0    0  501  502 -0.00000000000E+00 -0.00000000000E+00 -0.51451066210E+02  0.51451066210E+02  0.00000000000E+00 0. -1.
         21    1    1    2  503  504  0.82322171474E+01  0.20626042820E+02  0.15416216492E+02  0.27034473778E+02  0.00000000000E+00 0. -1.
         21    1    1    2  504  502 -0.82322171474E+01 -0.20626042820E+02 -0.42940458029E+02  0.48343417104E+02  0.00000000000E+00 0. -1.
</event>
<event>
 4    1  0.1725802E+006  0.2068532E+02  0.7546771E-02  0.1523805E+00
         21   -1    0    0  504  501  0.00000000000E+00  0.00000000000E+00  0.62218229073E+03  0.62218229073E+03  0.00000000000E+00 0. -1.
         21   -1    0    0  503  502 -0.00000000000E+00 -0.00000000000E+00 -0.50896892301E+01  0.50896892301E+01  0.00000000000E+00 0. -1.
         21    1    1    2  503  501  0.45687346159E+01  0.20174462804E+02  0.60022462147E+03  0.60058095084E+03  0.00000000000E+00 0. -1.
         21    1    1    2  504  502 -0.45687346159E+01 -0.20174462804E+02  0.16867980023E+02  0.26691029119E+02  0.00000000000E+00 0. -1.
</event>
<event>
 4    1  0.1725802E+006  0.2036633E+02  0.7546771E-02  0.1528507E+00
         21   -1    0    0  504  501  0.00000000000E+00  0.00000000000E+00  0.13397632250E+02  0.13397632250E+02  0.00000000000E+00 0. -1.
         21   -1    0    0  503  502 -0.00000000000E+00 -0.00000000000E+00 -0.11511064521E+03  0.11511064521E+03  0.00000000000E+00 0. -1.
         21    1    1    2  503  501  0.16386127263E+02  0.12094710844E+02 -0.10579449588E+03  0.10773700643E+03  0.00000000000E+00 0. -1.
         21    1    1    2  504  502 -0.16386127263E+02 -0.12094710844E+02  0.40814829215E+01  0.20771271023E+02  0.00000000000E+00 0. -1.
</event>
<event>
 4    1  0.1725802E+006  0.2209201E+02  0.7546771E-02  0.1504226E+00
         21   -1    0    0  504  501  0.00000000000E+00  0.00000000000E+00  0.56884121157E+02  0.56884121157E+02  0.00000000000E+00 0.  1.
         21   -1    0    0  503  502 -0.00000000000E+00 -0.00000000000E+00 -0.57906065287E+02  0.57906065287E+02  0.00000000000E+00 0.  1.
         21    1    1    2  503  501  0.20654981714E+02 -0.78376372919E+01  0.52461673824E+02  0.56923492938E+02  0.00000000000E+00 0.  1.
         21    1    1    2  504  502 -0.20654981714E+02  0.78376372919E+01 -0.53483617953E+02  0.57866693506E+02  0.00000000000E+00 0.  1.
</event>
<event>
 4    1  0.1725802E+006  0.2305638E+02  0.7546771E-02  0.1491791E+00
         21   -1    0    0  504  501  0.00000000000E+00  0.00000000000E+00  0.77726988500E+02  0.77726988500E+02  0.00000000000E+00 0. -1.
         21   -1    0    0  501  502 -0.00000000000E+00 -0.00000000000E+00 -0.14252278847E+03  0.14252278847E+03  0.00000000000E+00 0. -1.
         21    1    1    2  503  502 -0.18723939000E+02  0.13454017866E+02 -0.13984800934E+03  0.14173588891E+03  0.00000000000E+00 0. -1.
         21    1    1    2  504  503  0.18723939000E+02 -0.13454017866E+02  0.75052209366E+02  0.78513888065E+02  0.00000000000E+00 0. -1.
</event>
<event>
 4    1  0.1725802E+006  0.2460122E+02  0.7546771E-02  0.1473314E+00
         21   -1    0    0  502  501  0.00000000000E+00  0.00000000000E+00  0.54432762521E+03  0.54432762521E+03  0.00000000000E+00 0.  1.
         21   -1    0    0  503  502 -0.00000000000E+00 -0.00000000000E+00 -0.14677802220E+02  0.14677802220E+02  0.00000000000E+00 0. -1.
         21    1    1    2  503  504 -0.21507289525E+02 -0.11943890561E+02 -0.38829543365E+01  0.24905769589E+02  0.00000000000E+00 0. -1.
         21    1    1    2  504  501  0.21507289525E+02  0.11943890561E+02  0.53353277733E+03  0.53409965784E+03  0.00000000000E+00 0.  1.
</event>
<event>
 4    1  0.1725802E+006  0.3072570E+02  0.7546771E-02  0.1413393E+00
         21   -1    0    0  503  501  0.00000000000E+00  0.00000000000E+00  0.46572228148E+01  0.46572228148E+01  0.00000000000E+00 0.  1.
         21   -1    0    0  501  502 -0.00000000000E+00 -0.00000000000E+00 -0.37994461641E+03  0.37994461641E+03  0.00000000000E+00 0.  1.
         21    1    1    2  503  504 -0.23202318370E+02  0.20142512074E+02 -0.56304375054E+02  0.64142427617E+02  0.00000000000E+00 0.  1.
         21    1    1    2  504  502  0.23202318370E+02 -0.20142512074E+02 -0.31898301854E+03  0.32045941161E+03  0.00000000000E+00 0.  1.
</event>
<event>
 4    1  0.1725802E+006  0.2125535E+02  0.7546771E-02  0.1515650E+00
         21   -1    0    0  502  501  0.00000000000E+00  0.00000000000E+00  0.12582781204E+02  0.12582781204E+02  0.00000000000E+00 0.  1.
         21   -1    0    0  503  502 -0.00000000000E+00 -0.00000000000E+00 -0.54277233150E+02  0.54277233150E+02  0.00000000000E+00 0. -1.
         21    1    1    2  503  504 -0.19707433238E+02 -0.79628396310E+01 -0.40296523272E+02  0.45558748091E+02  0.00000000000E+00 0. -1.
         21    1    1    2  504  501  0.19707433238E+02  0.79628396310E+01 -0.13979286748E+01  0.21301266263E+02  0.00000000000E+00 0.  1.
</event>
<event>
 4    1  0.1725802E+006  0.2973398E+02  0.7546771E-02  0.1421923E+00
         21   -1    0    0  503  501  0.00000000000E+00  0.00000000000E+00  0.12112010939E+02  0.12112010939E+02  0.00000000000E+00 0. -1.
         21   -1    0    0  504  502 -0.00000000000E+00 -0.00000000000E+00 -0.74239757061E+02  0.74239757061E+02  0.00000000000E+00 0. -1.
         21    1    1    2  503  502 -0.18845882623E+02 -0.22998741215E+02 -0.36655830960E+02  0.47199145466E+02  0.00000000000E+00 0. -1.
         21    1    1    2  504  501  0.18845882623E+02  0.22998741215E+02 -0.25471915162E+02  0.39152622535E+02  0.00000000000E+00 0. -1.
</event>
<event>
 4    1  0.1725802E+006  0.2041256E+02  0.7546771E-02  0.1527820E+00
         21   -1    0    0  502  501  0.00000000000E+00  0.00000000000E+00  0.21875299399E+01  0.21875299399E+01  0.00000000000E+00 0. -1.
         21   -1    0    0  504  502 -0.00000000000E+00 -0.00000000000E+00 -0.46656471431E+03  0.46656471431E+03  0.00000000000E+00 0.  1.
         21    1    1    2  503  501  0.18449325761E+02 -0.87347032872E+01 -0.51894502112E+02  0.55764791868E+02  0.00000000000E+00 0. -1.
         21    1    1    2  504  503 -0.18449325761E+02  0.87347032872E+01 -0.41248268226E+03  0.41298745238E+03  0.00000000000E+00 0.  1.
</event>
<event>
 4    1  0.1725802E+006  0.5203702E+02  0.7546771E-02  0.1289574E+00
         21   -1    0    0  503  501  0.00000000000E+00  0.00000000000E+00  0.57408857030E+01  0.57408857030E+01  0.00000000000E+00 0. -1.
         21   -1    0    0  504  502 -0.00000000000E+00 -0.00000000000E+00 -0.80999820965E+03  0.80999820965E+03  0.00000000000E+00 0.  1.
         21    1    1    2  503  502 -0.87955170220E+01  0.51288311021E+02 -0.66572716835E+03  0.66775782635E+03  0.00000000000E+00 0.  1.
         21    1    1    2  504  501  0.87955170220E+01 -0.51288311021E+02 -0.13853015559E+03  0.14798126900E+03  0.00000000000E+00 0. -1.
</event>
<event>
 4    1  0.1725802E+006  0.2025446E+02  0.7546771E-02  0.1530181E+00
         21   -1    0    0  503  501  0.00000000000E+00  0.00000000000E+00  0.20042662487E+03  0.20042662487E+03  0.00000000000E+00 0.  1.
         21   -1    0    0  504  502 -0.00000000000E+00 -0.00000000000E+00 -0.62567937151E+02  0.62567937151E+02  0.00000000000E+00 0.  1.
         21    1    1    2  503  502 -0.14132972177E+02 -0.14508699317E+02  0.19825783615E+03  0.19928977107E+03  0.00000000000E+00 0.  1.
         21    1    1    2  504  501  0.14132972177E+02  0.14508699317E+02 -0.60399148432E+02  0.63704790948E+02  0.00000000000E+00 0.  1.
</event>
<event>
 4    1  0.1725802E+006  0.2861106E+02  0.7546771E-02  0.1432063E+00
         21   -1    0    0  503  501  0.00000000000E+00  0.00000000000E+00  0.43880977811E+01  0.43880977811E+01  0.00000000000E+00 0. -1.
         21   -1    0    0  501  502 -0.00000000000E+00 -0.00000000000E+00 -0.39810583904E+03  0.39810583904E+03  0.00000000000E+00 0. -1.
         21    1    1    2  503  504 -0.49399345531E+01  0.28181373697E+02 -0.50154116777E+02  0.57741044383E+02  0.00000000000E+00 0. -1.
         21    1    1    2  504  502  0.49399345531E+01 -0.28181373697E+02 -0.34356362448E+03  0.34475289244E+03  0.00000000000E+00 0. -1.
</event>
<event>
 4    1  0.1725802E+006  0.2335452E+02  0.7546771E-02  0.1488094E+00
         21   -1    0    0  504  501  0.00000000000E+00  0.00000000000E+00  0.38538358473E+03  0.38538358473E+03  0.00000000000E+00 0.  1.
         21   -1    0    0  503  502 -0.00000000000E+00 -0.00000000000E+00 -0.18148894068E+01  0.18148894068E+01  0.00000000000E+00 0. -1.
         21    1    1    2  503  501  0.21501816087E+02 -0.91162234978E+01  0.28262603777E+03  0.28358933487E+03  0.00000000000E+00 0.  1.
         21    1    1    2  504  502 -0.21501816087E+02  0.91162234978E+01  0.10094265755E+03  0.10360913927E+03  0.00000000000E+00 0. -1.
</event>
<event>
 4    1  0.1725802E+006  0.2113189E+02  0.7546771E-02  0.1517390E+00
         21   -1    0    0  503  501  0.00000000000E+00  0.00000000000E+00  0.77015120193E+01  0.77015120193E+01  0.00000000000E+00 0.  1.
         21   -1    0    0  504  502 -0.00000000000E+00 -0.00000000000E+00 -0.85799761948E+02  0.85799761948E+02  0.00000000000E+00 0.  1.
         21    1    1    2  503  502  0.19670912479E+02 -0.77208897137E+01 -0.65668485077E+02  0.68984830710E+02  0.00000000000E+00 0.  1.
         21    1    1    2  504  501 -0.19670912479E+02  0.77208897137E+01 -0.12429764851E+02  0.24516443257E+02  0.00000000000E+00 0.  1.
</event>
<event>
 4    1  0.1725802E+006  0.2013860E+02  0.7546771E-02  0.1531927E+00
         21   -1    0    0  504  501  0.00000000000E+00  0.00000000000E+00  0.52260879191E+03  0.52260879191E+03  0.00000000000E+00 0.  1.
         21   -1    0    0  503  502 -0.00000000000E+00 -0.00000000000E+00 -0.10796456258E+01  0.10796456258E+01  0.00000000000E+00 0. -1.
         21    1    1    2  503  501 -0.16393629942E+02  0.11696666423E+02  0.39961918819E+03  0.40012630341E+03  0.00000000000E+00 0.  1.
         21    1    1    2  504  502  0.16393629942E+02 -0.11696666423E+02  0.12190995809E+03  0.12356213413E+03  0.00000000000E+00 0. -1.
</event>
<event>
 4    1  0.1725802E+006  0.2295527E+02  0.7546771E-02  0.1493061E+00
         21   -1    0    0  503  501  0.00000000000E+00  0.00000000000E+00  0.45390704939E+03  0.45390704939E+03  0.00000000000E+00 0. -1.
         21   -1    0    0  501  502 -0.00000000000E+00 -0.00000000000E+00 -0.32428508961E+01  0.32428508961E+01  0.00000000000E+00 0. -1.
         21    1    1    2  503  504 -0.22849338906E+02  0.22027426698E+01  0.40847898623E+03  0.40912348571E+03  0.00000000000E+00 0. -1.
         21    1    1    2  504  502  0.22849338906E+02 -0.22027426698E+01  0.42185212258E+02  0.48026414575E+02  0.00000000000E+00 0. -1.
</event>
<event>
 4    1  0.1725802E+006  0.2025911E+02  0.7546771E-02  0.1530111E+00
         21   -1    0    0  504  501  0.00000000000E+00  0.00000000000E+00  0.73325526145E+02  0.73325526145E+02  0.00000000000E+00 0. -1.
         21   -1    0    0  501  502 -0.00000000000E+00 -0.00000000000E+00 -0.16141358788E+02  0.16141358788E+02  0.00000000000E+00 0.  1.
         21    1    1    2  503  502  0.18487115604E+02  0.82860180948E+01 -0.75625810593E+01  0.21624619569E+02  0.00000000000E+00 0.  1.
         21    1    1    2  504  503 -0.18487115604E+02 -0.82860180948E+01  0.64746748416E+02  0.67842265364E+02  0.00000000000E+00 0. -1.
</event>
<event>
 4    1  0.1725802E+006  0.2947401E+02  0.7546771E-02  0.1424223E+00
         21   -1    0    0  504  501  0.00000000000E+00  0.00000000000E+00  0.91632819573E+01  0.91632819573E+01  0.00000000000E+00 0. -1.
         21   -1    0    0  501  502 -0.00000000000E+00 -0.00000000000E+00 -0.12402756877E+03  0.12402756877E+03  0.00000000000E+00 0.  1.
         21    1    1    2  503  502 -0.61457684523E+01  0.28826148066E+02 -0.89758048340E+02  0.94473406438E+02  0.00000000000E+00 0.  1.
         21    1    1    2  504  503  0.61457684523E+01 -0.28826148066E+02 -0.25106238477E+02  0.38717444294E+02  0.00000000000E+00 0. -1.
</event>
<event>
 4    1  0.1725802E+006  0.2803088E+02  0.7546771E-02  0.1437519E+00
         21   -1    0    0  504  501  0.00000000000E+00  0.00000000000E+00  0.24326648855E+03  0.24326648855E+03  0.00000000000E+00 0. -1.
         21   -1    0    0  503  502 -0.00000000000E+00 -0.00000000000E+00 -0.32322663596E+01  0.32322663596E+01  0.00000000000E+00 0. -1.
         21    1    1    2  503  501  0.26898442902E+02  0.78869649229E+01  0.11669394727E+03  0.12001336499E+03  0.00000000000E+00 0. -1.
         21    1    1    2  504  502 -0.26898442902E+02 -0.78869649229E+01  0.12334027492E+03  0.12648538992E+03  0.00000000000E+00 0. -1.
</event>
<event>
 4    1  0.1725802E+006  0.2030964E+02  0.7546771E-02  0.1529354E+00
         21   -1    0    0  504  501  0.00000000000E+00  0.00000000000E+00  0.47005017623E+02  0.47005017623E+02  0.00000000000E+00 0. -1.
         21   -1    0    0  503  502 -0.00000000000E+00 -0.00000000000E+00 -0.17633684226E+02  0.17633684226E+02  0.00000000000E+00 0.  1.
         21    1    1    2  503  501 -0.16583677853E+02 -0.11724459598E+02 -0.82213904701E+01  0.21910558762E+02  0.00000000000E+00 0.  1.
         21    1    1    2  504  502  0.16583677853E+02  0.11724459598E+02  0.37592723867E+02  0.42728143087E+02  0.00000000000E+00 0. -1.
</event>
<event>
 4    1  0.1725802E+006  0.2065823E+02  0.7546771E-02  0.1524201E+00
         21   -1    0    0  503  501  0.00000000000E+00  0.00000000000E+00  0.50307953003E+02  0.50307953003E+02  0.00000000000E+00 0. -1.
         21   -1    0    0  504  502 -0.00000000000E+00 -0.00000000000E+00 -0.58893342114E+02  0.58893342114E+02  0.00000000000E+00 0. -1.
         21    1    1    2  503  502  0.33859006557E+01 -0.20378867020E+02  0.46222787327E+02  0.50629128103E+02  0.00000000000E+00 0. -1.
         21    1    1    2  504  501 -0.33859006557E+01  0.20378867020E+02 -0.54808176438E+02  0.58572167014E+02  0.00000000000E+00 0. -1.
</event>
<event>
 4    1  0.1725802E+006  0.7959695E+02  0.7546771E-02  0.1204786E+00
         21   -1    0    0  503  501  0.00000000000E+00  0.00000000000E+00  0.12397813420E+02  0.12397813420E+02  0.00000000000E+00 0. -1.
         21   -1    0    0  504  502 -0.00000000000E+00 -0.00000000000E+00 -0.51174815690E+03  0.51174815690E+03  0.00000000000E+00 0. -1.
         21    1    1    2  503  502 -0.34903099713E+02 -0.71536343478E+02 -0.23986875873E+03  0.25273048139E+03  0.00000000000E+00 0. -1.
         21    1    1    2  504  501  0.34903099713E+02  0.71536343478E+02 -0.25948158475E+03  0.27141548893E+03  0.00000000000E+00 0. -1.
</event>
<event>
 4    1  0.1725802E+006  0.2544898E+02  0.7546771E-02  0.1463843E+00
         21   -1    0    0  503  501  0.00000000000E+00  0.00000000000E+00  0.30561937287E+02  0.30561937287E+02  0.00000000000E+00 0.  1.
         21   -1    0    0  501  502 -0.00000000000E+00 -0.00000000000E+00 -0.37588557522E+02  0.37588557522E+02  0.00000000000E+00 0.  1.
         21    1    1    2  503  504  0.15128033943E+02  0.20464436198E+02  0.18992535357E+02  0.31754794271E+02  0.00000000000E+00 0.  1.
         21    1    1    2  504  502 -0.15128033943E+02 -0.20464436198E+02 -0.26019155593E+02  0.36395700538E+02  0.00000000000E+00 0.  1.
</event>
<event>
 4    1  0.1725802E+006  0.4138910E+02  0.7546771E-02  0.1340532E+00
         21   -1    0    0  504  501  0.00000000000E+00  0.00000000000E+00  0.13028739795E+02  0.13028739795E+02  0.00000000000E+00 0. -1.
         21   -1    0    0  503  502 -0.00000000000E+00 -0.00000000000E+00 -0.13148520018E+03  0.13148520018E+03  0.00000000000E+00 0. -1.
         21    1    1    2  503  501 -0.27061801675E+02 -0.31316396115E+02 -0.58932555547E+02  0.72014608788E+02  0.00000000000E+00 0. -1.
         21    1    1    2  504  502  0.27061801675E+02  0.31316396115E+02 -0.59523904838E+02  0.72499331188E+02  0.00000000000E+00 0. -1.
</event>
<event>
 4    1  0.1725802E+006  0.2437118E+02  0.7546771E-02  0.1475962E+00
         21   -1    0    0  502  501  0.00000000000E+00  0.00000000000E+00  0.85830296342E+01  0.85830296342E+01  0.00000000000E+00 0.  1.
         21   -1    0    0  504  502 -0.00000000000E+00 -0.00000000000E+00 -0.21277155016E+03  0.21277155016E+03  0.00000000000E+00 0.  1.
         21    1    1    2  503  501 -0.23097360860E+02 -0.77760175882E+01 -0.11179506293E+02  0.26812979864E+02  0.00000000000E+00 0.  1.
         21    1    1    2  504  503  0.23097360860E+02  0.77760175882E+01 -0.19300901423E+03  0.19454159993E+03  0.00000000000E+00 0.  1.
</event>
<event>
 4    1  0.1725802E+006  0.2464618E+02  0.7546771E-02  0.1472801E+00
         21   -1    0    0  503  501  0.00000000000E+00  0.00000000000E+00  0.81377814275E+01  0.81377814275E+01  0.00000000000E+00 0.  1.
         21   -1    0    0  504  502 -0.00000000000E+00 -0.00000000000E+00 -0.89030538148E+02  0.89030538148E+02  0.00000000000E+00 0. -1.
         21    1    1    2  503  502  0.15384956817E+02  0.19254538072E+02 -0.20916126479E+02  0.32325198832E+02  0.00000000000E+00 0.  1.
         21    1    1    2  504  501 -0.15384956817E+02 -0.19254538072E+02 -0.59976630242E+02  0.64843120744E+02  0.00000000000E+00 0. -1.
</event>
<event>
 4    1  0.1725802E+006  0.2666553E+02  0.7546771E-02  0.1450997E+00
         21   -1    0    0  504  501  0.00000000000E+00  0.00000000000E+00  0.11959358208E+02  0.11959358208E+02  0.00000000000E+00 0.  1.
         21   -1    0    0  503  502 -0.00000000000E+00 -0.00000000000E+00 -0.59695494120E+02  0.59695494120E+02  0.00000000000E+00 0.  1.
         21    1    1    2  503  501  0.24522309166E+02 -0.10474098508E+02 -0.21596701060E+02  0.34314251894E+02  0.00000000000E+00 0.  1.
         21    1    1    2  504  502 -0.24522309166E+02  0.10474098508E+02 -0.26139434852E+02  0.37340600434E+02  0.00000000000E+00 0.  1.
</event>
<event>
 4    1  0.1725802E+006  0.2576081E+02  0.7546771E-02  0.1460469E+00
         21   -1    0    0  504  501  0.00000000000E+00  0.00000000000E+00  0.29629615526E+02  0.29629615526E+02  0.00000000000E+00 0.  1.
         21   -1    0    0  503  502 -0.00000000000E+00 -0.00000000000E+00 -0.41026370687E+02  0.41026370687E+02  0.00000000000E+00 0. -1.
         21    1    1    2  503  501 -0.22477444515E+02 -0.12585063455E+02  0.18107522541E+02  0.31488120088E+02  0.00000000000E+00 0.  1.
         21    1    1    2  504  502  0.22477444515E+02  0.12585063455E+02 -0.29504277702E+02  0.39167866125E+02  0.00000000000E+00 0. -1.
</event>
<event>
 4    1  0.1725802E+006  0.2836912E+02  0.7546771E-02  0.1434319E+00
         21   -1    0    0  503  501  0.00000000000E+00  0.00000000000E+00  0.83074377799E+01  0.83074377799E+01  0.00000000000E+00 0. -1.
         21   -1    0    0  504  502 -0.00000000000E+00 -0.00000000000E+00 -0.18979655280E+03  0.18979655280E+03  0.00000000000E+00 0. -1.
         21    1    1    2  503  502  0.15650575255E+02  0.23661491920E+02 -0.16005052632E+03  0.16254530963E+03  0.00000000000E+00 0. -1.
         21    1    1    2  504  501 -0.15650575255E+02 -0.23661491920E+02 -0.21438588694E+02  0.35558680950E+02  0.00000000000E+00 0. -1.
</event>
<event>
 4    1  0.1725802E+006  0.3328372E+02  0.7546771E-02  0.1393048E+00
         21   -1    0    0  503  501  0.00000000000E+00  0.00000000000E+00  0.84261552961E+02  0.84261552961E+02  0.00000000000E+00 0.  1.
         21   -1    0    0  504  502 -0.00000000000E+00 -0.00000000000E+00 -0.21110256729E+02  0.21110256729E+02  0.00000000000E+00 0.  1.
         21    1    1    2  503  502 -0.11854047615E+02 -0.31101242318E+02  0.63934035429E+02  0.72078891535E+02  0.00000000000E+00 0.  1.
         21    1    1    2  504  501  0.11854047615E+02  0.31101242318E+02 -0.78273919784E+00  0.33292918155E+02  0.00000000000E+00 0.  1.
</event>
<event>
 4    1  0.1725802E+006  0.2604430E+02  0.7546771E-02  0.1457452E+00
         21   -1    0    0  504  501  0.00000000000E+00  0.00000000000E+00  0.59570234291E+03  0.59570234291E+03  0.00000000000E+00 0. -1.
         21   -1    0    0  503  502 -0.00000000000E+00 -0.00000000000E+00 -0.68602594670E+01  0.68602594670E+01  0.00000000000E+00 0. -1.
         21    1    1    2  503  501 -0.24226408960E+02 -0.95596253425E+01  0.19276786867E+02  0.32402157948E+02  0.00000000000E+00 0. -1.
         21    1    1    2  504  502  0.24226408960E+02  0.95596253425E+01  0.56956529657E+03  0.57016044443E+03  0.00000000000E+00 0. -1.
</event>
<event>
 4    1  0.1725802E+006  0.2242497E+02  0.7546771E-02  0.1499848E+00
         21   -1    0    0  504  501  0.00000000000E+00  0.00000000000E+00  0.13088809038E+03  0.13088809038E+03  0.00000000000E+00 0. -1.
         21   -1    0    0  501  502 -0.00000000000E+00 -0.00000000000E+00 -0.13674929966E+02  0.13674929966E+02  0.00000000000E+00 0. -1.
         21    1    1    2  503  502 -0.19892859007E+02  0.10351505345E+02 -0.26855727479E+01  0.22585212051E+02  0.00000000000E+00 0. -1.
         21    1    1    2  504  503  0.19892859007E+02 -0.10351505345E+02  0.11989873316E+03  0.12197780830E+03  0.00000000000E+00 0. -1.
</event>
<event>
 4    1  0.1725802E+006  0.2351408E+02  0.7546771E-02  0.1486142E+00
         21   -1    0    0  503  501  0.00000000000E+00  0.00000000000E+00  0.18889656747E+02  0.18889656747E+02  0.00000000000E+00 0.  1.
         21   -1    0    0  501  502 -0.00000000000E+00 -0.00000000000E+00 -0.46647070609E+03  0.46647070609E+03  0.00000000000E+00 0.  1.
         21    1    1    2  503  504 -0.83932302054E+01 -0.21965095315E+02  0.11152334028E+02  0.26024724393E+02  0.00000000000E+00 0.  1.
         21    1    1    2  504  502  0.83932302054E+01  0.21965095315E+02 -0.45873338337E+03  0.45933563845E+03  0.00000000000E+00 0.  1.
</event>
<event>
 4    1  0.1725802E+006  0.2050709E+02  0.7546771E-02  0.1526420E+00
         21   -1    0    0  502  501  0.00000000000E+00  0.00000000000E+00  0.12294301544E+02  0.12294301544E+02  0.00000000000E+00 0. -1.
         21   -1    0    0  503  502 -0.00000000000E+00 -0.00000000000E+00 -0.93533807374E+02  0.93533807374E+02  0.00000000000E+00 0. -1.
         21    1    1    2  503  504  0.16758746546E+02 -0.11818846702E+02 -0.82761771407E+02  0.85264597164E+02  0.00000000000E+00 0. -1.
         21    1    1    2  504  501 -0.16758746546E+02  0.11818846702E+02  0.15222655774E+01  0.20563511754E+02  0.00000000000E+00 0. -1.
</event>
<event>
 4    1  0.1725802E+006  0.2520013E+02  0.7546771E-02  0.1466577E+00
         21   -1    0    0  503  501  0.00000000000E+00  0.00000000000E+00  0.53874748968E+01  0.53874748968E+01  0.00000000000E+00 0.  1.
         21   -1    0    0  504  502 -0.00000000000E+00 -0.00000000000E+00 -0.14453271713E+03  0.14453271713E+03  0.00000000000E+00 0.  1.
         21    1    1    2  503  502  0.24059344153E+02 -0.74962830513E+01 -0.37379579581E+02  0.45080808226E+02  0.00000000000E+00 0.  1.
         21    1    1    2  504  501 -0.24059344153E+02  0.74962830513E+01 -0.10176566265E+03  0.10483938380E+03  0.00000000000E+00 0.  1.
</event>
<event>
 4    1  0.1725802E+006  0.2686736E+02  0.7546771E-02  0.1448945E+00
         21   -1    0    0  503  501  0.00000000000E+00  0.00000000000E+00  0.16501938647E+01  0.16501938647E+01  0.00000000000E+00 0. -1.
         21   -1    0    0  504  502 -0.00000000000E+00 -0.00000000000E+00 -0.48782332680E+03  0.48782332680E+03  0.00000000000E+00 0.  1.
         21    1    1    2  503  502 -0.89809636754E+01 -0.25321870865E+02 -0.32174166666E+03  0.32286151044E+03  0.00000000000E+00 0.  1.
         21    1    1    2  504  501  0.89809636754E+01  0.25321870865E+02 -0.16443146627E+03  0.16661201023E+03  0.00000000000E+00 0. -1.
</event>
<event>
 4    1  0.1725802E+006  0.2181282E+02  0.7546771E-02  0.1507969E+00
         21   -1    0    0  503  501  0.00000000000E+00  0.00000000000E+00  0.80081655827E+01  0.80081655827E+01  0.00000000000E+00 0. -1.
         21   -1    0    0  504  502 -0.00000000000E+00 -0.00000000000E+00 -0.12786640317E+03  0.12786640317E+03  0.00000000000E+00 0.  1.
         21    1    1    2  503  502 -0.80935068595E+00 -0.21797804085E+02 -0.10221443562E+02  0.24088943936E+02  0.00000000000E+00 0. -1.
         21    1    1    2  504  501  0.80935068595E+00  0.21797804085E+02 -0.10963679402E+03  0.11178562481E+03  0.00000000000E+00 0.  1.
</event>
<event>
 4    1  0.1725802E+006  0.2167953E+02  0.7546771E-02  0.1509780E+00
         21   -1    0    0  502  501  0.00000000000E+00  0.00000000000E+00  0.10914957385E+02  0.10914957385E+02  0.00000000000E+00 0. -1.
         21   -1    0    0  504  502 -0.00000000000E+00 -0.00000000000E+00 -0.78007069597E+02  0.78007069597E+02  0.00000000000E+00 0. -1.
         21    1    1    2  503  501  0.12378031258E+02  0.17798499287E+02 -0.37872581241E+01  0.22007852207E+02  0.00000000000E+00 0. -1.
         21    1    1    2  504  503 -0.12378031258E+02 -0.17798499287E+02 -0.63304854088E+02  0.66914174775E+02  0.00000000000E+00 0. -1.
</event>
<event>
 4    1  0.1725802E+006  0.2470266E+02  0.7546771E-02  0.1472157E+00
         21   -1    0    0  504  501  0.00000000000E+00  0.00000000000E+00  0.55192932452E+02  0.55192932452E+02  0.00000000000E+00 0.  1.
         21   -1    0    0  503  502 -0.00000000000E+00 -0.00000000000E+00 -0.97045504017E+02  0.97045504017E+02  0.00000000000E+00 0. -1.
         21    1    1    2  503  501 -0.56781723488E+01  0.24041213557E+02 -0.92578388709E+02  0.95817428720E+02  0.00000000000E+00 0. -1.
         21    1    1    2  504  502  0.56781723488E+01 -0.24041213557E+02  0.50725817144E+02  0.56421007749E+02  0.00000000000E+00 0.  1.
</event>
<event>
 4    1  0.1725802E+006  0.2196916E+02  0.7546771E-02  0.1505865E+00
         21   -1    0    0  504  501  0.00000000000E+00  0.00000000000E+00  0.25850618675E+02  0.25850618675E+02  0.00000000000E+00 0. -1.
         21   -1    0    0  503  502 -0.00000000000E+00 -0.00000000000E+00 -0.30634642969E+03  0.30634642969E+03  0.00000000000E+00 0. -1.
         21    1    1    2  503  501 -0.21011868537E+02 -0.64144661424E+01  0.20709559730E+02  0.30191552785E+02  0.00000000000E+00 0. -1.
         21    1    1    2  504  502  0.21011868537E+02  0.64144661424E+01 -0.30120537075E+03  0.30200549558E+03  0.00000000000E+00 0. -1.
</event>
<event>
 4    1  0.1725802E+006  0.4308492E+02  0.7546771E-02  0.1331298E+00
         21   -1    0    0  502  501  0.00000000000E+00  0.00000000000E+00  0.17101178143E+02  0.17101178143E+02  0.00000000000E+00 0.  1.
         21   -1    0    0  504  502 -0.00000000000E+00 -0.00000000000E+00 -0.26169464233E+03  0.26169464233E+03  0.00000000000E+00 0.  1.
         21    1    1    2  503  501 -0.12856173782E+02  0.41122128393E+02 -0.15658829315E+02  0.45842224896E+02  0.00000000000E+00 0.  1.
         21    1    1    2  504  503  0.12856173782E+02 -0.41122128393E+02 -0.22893463487E+03  0.23295359557E+03  0.00000000000E+00 0.  1.
</event>
<event>
 4    1  0.1725802E+006  0.2313899E+02  0.7546771E-02  0.1490760E+00
         21   -1    0    0  503  501  0.00000000000E+00  0.00000000000E+00  0.20465315933E+02  0.20465315933E+02  0.00000000000E+00 0.  1.
         21   -1    0    0  504  502 -0.00000000000E+00 -0.00000000000E+00 -0.32220410502E+02  0.32220410502E+02  0.00000000000E+00 0.  1.
         21    1    1    2  503  502  0.48016829993E+00 -0.23134003530E+02  0.55454057762E+01  0.23794205306E+02  0.00000000000E+00 0.  1.
         21    1    1    2  504  501 -0.48016829993E+00  0.23134003530E+02 -0.17300500346E+02  0.28891521129E+02  0.00000000000E+00 0.  1.
</event>
<event>
 4    1  0.1725802E+006  0.2036004E+02  0.7546771E-02  0.1528601E+00
         21   -1    0    0  503  501  0.00000000000E+00  0.00000000000E+00  0.21539117783E+03  0.21539117783E+03  0.00000000000E+00 0. -1.
         21   -1    0    0  501  502 -0.00000000000E+00 -0.00000000000E+00 -0.25336532301E+02  0.25336532301E+02  0.00000000000E+00 0. -1.
         21    1    1    2  503  504 -0.14878343984E+01 -0.20305604770E+02  0.21072951536E+03  0.21171079302E+03  0.00000000000E+00 0. -1.
         21    1    1    2  504  502  0.14878343984E+01  0.20305604770E+02 -0.20674869830E+02  0.29016917113E+02  0.00000000000E+00 0. -1.
</event>
<event>
 4    1  0.1725802E+006  0.2116243E+02  0.7546771E-02  0.1516958E+00
         21   -1    0    0  503  501  0.00000000000E+00  0.00000000000E+00  0.69211877077E+03  0.69211877077E+03  0.00000000000E+00 0. -1.
         21   -1    0    0  501  502 -0.00000000000E+00 -0.00000000000E+00 -0.75059579881E+00  0.75059579881E+00  0.00000000000E+00 0. -1.
         21    1    1    2  503  504  0.74923678876E+01 -0.19791735663E+02  0.47434462782E+03  0.47481646382E+03  0.00000000000E+00 0. -1.
         21    1    1    2  504  502 -0.74923678876E+01  0.19791735663E+02  0.21702354716E+03  0.21805290275E+03  0.00000000000E+00 0. -1.
</event>
<event>
 4    1  0.1725802E+006  0.2219691E+02  0.7546771E-02  0.1502837E+00
         21   -1    0    0  503  501  0.00000000000E+00  0.00000000000E+00  0.12590155608E+03  0.12590155608E+03  0.00000000000E+00 0.  1.
         21   -1    0    0  504  502 -0.00000000000E+00 -0.00000000000E+00 -0.41052045680E+01  0.41052045680E+01  0.00000000000E+00 0.  1.
         21    1    1    2  503  502 -0.17044581608E+02 -0.14219172892E+02  0.74949025695E+02  0.78166866974E+02  0.00000000000E+00 0.  1.
         21    1    1    2  504  501  0.17044581608E+02  0.14219172892E+02  0.46847325815E+02  0.51839893672E+02  0.00000000000E+00 0.  1.
</event>
<event>
 4    1  0.1725802E+006  0.3079841E+02  0.7546771E-02  0.1412783E+00
         21   -1    0    0  503  501  0.00000000000E+00  0.00000000000E+00  0.38259827416E+01  0.38259827416E+01  0.00000000000E+00 0.  1.
         21   -1    0    0  504  502 -0.00000000000E+00 -0.00000000000E+00 -0.73494378559E+03  0.73494378559E+03  0.00000000000E+00 0.  1.
         21    1    1    2  503  502 -0.12054602491E+02  0.28341289538E+02 -0.66625418825E+03  0.66696565540E+03  0.00000000000E+00 0.  1.
         21    1    1    2  504  501  0.12054602491E+02 -0.28341289538E+02 -0.64863614598E+02  0.71804112923E+02  0.00000000000E+00 0.  1.
</event>
<event>
 4    1  0.1725802E+006  0.2083888E+02  0.7546771E-02  0.1521578E+00
         21   -1    0    0  502  501  0.00000000000E+00  0.00000000000E+00  0.10048874712E+04  0.10048874712E+04  0.00000000000E+00 0. -1.
         21   -1    0    0  503  502 -0.00000000000E+00 -0.00000000000E+00 -0.26067381509E+01  0.26067381509E+01  0.00000000000E+00 0.  1.
         21    1    1    2  503  504  0.20345066491E+02 -0.45096596728E+01  0.41039870500E+02  0.46027488869E+02  0.00000000000E+00 0.  1.
         21    1    1    2  504  501 -0.20345066491E+02  0.45096596728E+01  0.96124086252E+03  0.96146672045E+03  0.00000000000E+00 0. -1.
</event>
<event>
 4    1  0.1725802E+006  0.2206240E+02  0.7546771E-02  0.1504620E+00
         21   -1    0    0  502  501  0.00000000000E+00  0.00000000000E+00  0.13335549944E+03  0.13335549944E+03  0.00000000000E+00 0. -1.
         21   -1    0    0  503  502 -0.00000000000E+00 -0.00000000000E+00 -0.61967576509E+01  0.61967576509E+01  0.00000000000E+00 0.  1.
         21    1    1    2  503  504 -0.16764358711E+02  0.14342441103E+02  0.18847476216E+02  0.29016834760E+02  0.00000000000E+00 0.  1.
         21    1    1    2  504  501  0.16764358711E+02 -0.14342441103E+02  0.10831126557E+03  0.11053542233E+03  0.00000000000E+00 0. -1.
</event>
<event>
 4    1  0.1725802E+006  0.2864124E+02  0.7546771E-02  0.1431783E+00
         21   -1    0    0  503  501  0.00000000000E+00  0.00000000000E+00  0.63017722282E+01  0.63017722282E+01  0.00000000000E+00 0.  1.
         21   -1    0    0  504  502 -0.00000000000E+00 -0.00000000000E+00 -0.15055584036E+03  0.15055584036E+03  0.00000000000E+00 0. -1.
         21    1    1    2  503  502 -0.28366419208E+02  0.39581613678E+01 -0.43269524911E+02  0.51890004491E+02  0.00000000000E+00 0.  1.
         21    1    1    2  504  501  0.28366419208E+02 -0.39581613678E+01 -0.10098454322E+03  0.10496760810E+03  0.00000000000E+00 0. -1.
</event>
<event>
 4    1  0.1725802E+006  0.2438236E+02  0.7546771E-02  0.1475833E+00
         21   -1    0    0  503  501  0.00000000000E+00  0.00000000000E+00  0.13855609513E+03  0.13855609513E+03  0.00000000000E+00 0. -1.
         21   -1    0    0  501  502 -0.00000000000E+00 -0.00000000000E+00 -0.45228331383E+01  0.45228331383E+01  0.00000000000E+00 0. -1.
         21    1    1    2  503  504 -0.23343750468E+02 -0.70405136751E+01  0.83224653286E+02  0.86722790738E+02  0.00000000000E+00 0. -1.
         21    1    1    2  504  502  0.23343750468E+02  0.70405136751E+01  0.50808608700E+02  0.56356137526E+02  0.00000000000E+00 0. -1.
</event>
<event>
 4    1  0.1725802E+006  0.2112761E+02  0.7546771E-02  0.1517451E+00
         21   -1    0    0  502  501  0.00000000000E+00  0.00000000000E+00  0.27600373347E+03  0.27600373347E+03  0.00000000000E+00 0.  1.
         21   -1    0    0  504  502 -0.00000000000E+00 -0.00000000000E+00 -0.20365062827E+02  0.20365062827E+02  0.00000000000E+00 0. -1.
         21    1    1    2  503  501 -0.66428099247E+01  0.20056143670E+02  0.26999803544E+03  0.27082340180E+03  0.00000000000E+00 0.  1.
         21    1    1    2  504  503  0.66428099247E+01 -0.20056143670E+02 -0.14359364795E+02  0.25545394495E+02  0.00000000000E+00 0. -1.
</event>
<event>
 4    1  0.1725802E+006  0.2586830E+02  0.7546771E-02  0.1459320E+00
         21   -1    0    0  503  501  0.00000000000E+00  0.00000000000E+00  0.20276122405E+03  0.20276122405E+03  0.00000000000E+00 0. -1.
         21   -1    0    0  504  502 -0.00000000000E+00 -0.00000000000E+00 -0.14396896987E+03  0.14396896987E+03  0.00000000000E+00 0. -1.
         21    1    1    2  503  502  0.16842591913E+02 -0.19634052185E+02  0.20076263185E+03  0.20242233882E+03  0.00000000000E+00 0. -1.
         21    1    1    2  504  501 -0.16842591913E+02  0.19634052185E+02 -0.14197037767E+03  0.14430785510E+03  0.00000000000E+00 0. -1.
</event>
<event>
 4    1  0.1725802E+006  0.2272955E+02  0.7546771E-02  0.1495922E+00
         21   -1    0    0  504  501  0.00000000000E+00  0.00000000000E+00  0.11792445013E+03  0.11792445013E+03  0.00000000000E+00 0. -1.
         21   -1    0    0  501  502 -0.00000000000E+00 -0.00000000000E+00 -0.43952135749E+01  0.43952135749E+01  0.00000000000E+00 0. -1.
         21    1    1    2  503  502  0.21394172491E+02  0.76760662973E+01  0.60236796221E+02  0.64382483871E+02  0.00000000000E+00 0. -1.
         21    1    1    2  504  503 -0.21394172491E+02 -0.76760662973E+01  0.53292440334E+02  0.57937179834E+02  0.00000000000E+00 0. -1.
</event>
<event>
 4    1  0.1725802E+006  0.2212102E+02  0.7546771E-02  0.1503841E+00
         21   -1    0    0  503  501  0.00000000000E+00  0.00000000000E+00  0.12418021890E+02  0.12418021890E+02  0.00000000000E+00 0.  1.
         21   -1    0    0  504  502 -0.00000000000E+00 -0.00000000000E+00 -0.12421373959E+03  0.12421373959E+03  0.00000000000E+00 0.  1.
         21    1    1    2  503  502 -0.52377224894E+00 -0.22114813387E+02  0.55106699390E+00  0.22127877968E+02  0.00000000000E+00 0.  1.
         21    1    1    2  504  501  0.52377224894E+00  0.22114813387E+02 -0.11234678470E+03  0.11450388351E+03  0.00000000000E+00 0.  1.
</event>
<event>
 4    1  0.1725802E+006  0.2651409E+02  0.7546771E-02  0.1452551E+00
         21   -1    0    0  502  501  0.00000000000E+00  0.00000000000E+00  0.36391274066E+03  0.36391274066E+03  0.00000000000E+00 0.  1.
         21   -1    0    0  503  502 -0.00000000000E+00 -0.00000000000E+00 -0.89702777956E+02  0.89702777956E+02  0.00000000000E+00 0.  1.
         21    1    1    2  503  504  0.26281175126E+02  0.35067093632E+01 -0.87247302405E+02  0.91187109580E+02  0.00000000000E+00 0.  1.
         21    1    1    2  504  501 -0.26281175126E+02 -0.35067093632E+01  0.36145726511E+03  0.36242840904E+03  0.00000000000E+00 0.  1.
</event>
<event>
 4    1  0.1725802E+006  0.2089233E+02  0.7546771E-02  0.1520808E+00
         21   -1    0    0  502  501  0.00000000000E+00  0.00000000000E+00  0.90755744097E+01  0.90755744097E+01  0.00000000000E+00 0. -1.
         21   -1    0    0  503  502 -0.00000000000E+00 -0.00000000000E+00 -0.79557291955E+03  0.79557291955E+03  0.00000000000E+00 0.  1.
         21    1    1    2  503  504 -0.20883750549E+02 -0.59864209705E+00 -0.78322245090E+03  0.78350105105E+03  0.00000000000E+00 0.  1.
         21    1    1    2  504  501  0.20883750549E+02  0.59864209705E+00 -0.32748942460E+01  0.21147442911E+02  0.00000000000E+00 0. -1.
</event>
<event>
 4    1  0.1725802E+006  0.2781797E+02  0.7546771E-02  0.1439560E+00
         21   -1    0    0  504  501  0.00000000000E+00  0.00000000000E+00  0.42647015355E+02  0.42647015355E+02  0.00000000000E+00 0.  1.
         21   -1    0    0  503  502 -0.00000000000E+00 -0.00000000000E+00 -0.30401853834E+02  0.30401853834E+02  0.00000000000E+00 0.  1.
         21    1    1    2  503  501 -0.21122192574E+02  0.18102274447E+02  0.29313561900E+02  0.40411932279E+02  0.00000000000E+00 0.  1.
         21    1    1    2  504  502  0.21122192574E+02 -0.18102274447E+02 -0.17068400379E+02  0.32636936909E+02  0.00000000000E+00 0.  1.
</event>
<event>
 4    1  0.1725802E+006  0.2963936E+02  0.7546771E-02  0.1422757E+00
         21   -1    0    0  503  501  0.00000000000E+00  0.00000000000E+00  0.40888606590E+02  0.40888606590E+02  0.00000000000E+00 0. -1.
         21   -1    0    0  504  502 -0.00000000000E+00 -0.00000000000E+00 -0.46255286709E+02  0.46255286709E+02  0.00000000000E+00 0. -1.
         21    1    1    2  503  502 -0.17857256904E+02  0.23656076414E+02 -0.34568736474E+02  0.45535580779E+02  0.00000000000E+00 0. -1.
         21    1    1    2  504  501  0.17857256904E+02 -0.23656076414E+02  0.29202056356E+02  0.41608312521E+02  0.00000000000E+00 0. -1.
</event>
<event>
 4    1  0.1725802E+006  0.2200946E+02  0.7546771E-02  0.1505326E+00
         21   -1    0    0  504  501  0.00000000000E+00  0.00000000000E+00  0.12155239248E+03  0.12155239248E+03  0.00000000000E+00 0.  1.
         21   -1    0    0  503  502 -0.00000000000E+00 -0.00000000000E+00 -0.10718824619E+02  0.10718824619E+02  0.00000000000E+00 0.  1.
         21    1    1    2  503  501  0.61344346215E+01  0.21137287327E+02  0.10783530147E+03  0.11005847740E+03  0.00000000000E+00 0.  1.
         21    1    1    2  504  502 -0.61344346215E+01 -0.21137287327E+02  0.29982663881E+01  0.22212739701E+02  0.00000000000E+00 0.  1.
</event>
<event>
 4    1  0.1725802E+006  0.2228880E+02  0.7546771E-02  0.1501627E+00
         21   -1    0    0  503  501  0.00000000000E+00  0.00000000000E+00  0.24186723268E+03  0.24186723268E+03  0.00000000000E+00 0.  1.
         21   -1    0    0  504  502 -0.00000000000E+00 -0.00000000000E+00 -0.20714821905E+01  0.20714821905E+01  0.00000000000E+00 0.  1.
         21    1    1    2  503  502 -0.16376803224E+02 -0.15119226495E+02  0.10868687714E+03  0.11094876275E+03  0.00000000000E+00 0.  1.
         21    1    1    2  504  501  0.16376803224E+02  0.15119226495E+02  0.13110887336E+03  0.13298995212E+03  0.00000000000E+00 0.  1.
</event>
<event>
 4    1  0.1725802E+006  0.2273316E+02  0.7546771E-02  0.1495876E+00
         21   -1    0    0  502  501  0.00000000000E+00  0.00000000000E+00  0.22118064891E+03  0.22118064891E+03  0.00000000000E+00 0.  1.
         21   -1    0    0  503  502 -0.00000000000E+00 -0.00000000000E+00 -0.63292546470E+01  0.63292546470E+01  0.00000000000E+00 0. -1.
         21    1    1    2  503  504 -0.77193261222E+01  0.21382437512E+02  0.17075654837E+02  0.28431929548E+02  0.00000000000E+00 0. -1.
         21    1    1    2  504  501  0.77193261222E+01 -0.21382437512E+02  0.19777573942E+03  0.19907797401E+03  0.00000000000E+00 0.  1.
</event>
<event>
 4    1  0.1725802E+006  0.2320417E+02  0.7546771E-02  0.1489950E+00
         21   -1    0    0  503  501  0.00000000000E+00  0.00000000000E+00  0.46229945094E+02  0.46229945094E+02  0.00000000000E+00 0.  1.
         21   -1    0    0  504  502 -0.00000000000E+00 -0.00000000000E+00 -0.21473789820E+02  0.21473789820E+02  0.00000000000E+00 0.  1.
         21    1    1    2  503  502  0.22955102284E+02  0.33907215047E+01 -0.10522013088E+02  0.25478353020E+02  0.00000000000E+00 0.  1.
         21    1    1    2  504  501 -0.22955102284E+02 -0.33907215047E+01  0.35278168362E+02  0.42225381894E+02  0.00000000000E+00 0.  1.
</event>
<event>
 4    1  0.1725802E+006  0.2840303E+02  0.7546771E-02  0.1434002E+00
         21   -1    0    0  503  501  0.00000000000E+00  0.00000000000E+00  0.43703122889E+03  0.43703122889E+03  0.00000000000E+00 0. -1.
         21   -1    0    0  504  502 -0.00000000000E+00 -0.00000000000E+00 -0.18913614261E+01  0.18913614261E+01  0.00000000000E+00 0. -1.
         21    1    1    2  503  502 -0.21257881533E+01 -0.28323370262E+02  0.18355938655E+03  0.18574385769E+03  0.00000000000E+00 0. -1.
         21    1    1    2  504  501  0.21257881533E+01  0.28323370262E+02  0.25158048092E+03  0.25317873263E+03  0.00000000000E+00 0. -1.
</event>
<event>
 4    1  0.1725802E+006  0.2196504E+02  0.7546771E-02  0.1505920E+00
         21   -1    0    0  504  501  0.00000000000E+00  0.00000000000E+00  0.16730149842E+02  0.16730149842E+02  0.00000000000E+00 0. -1.
         21   -1    0    0  503  502 -0.00000000000E+00 -0.00000000000E+00 -0.30253497730E+02  0.30253497730E+02  0.00000000000E+00 0.  1.
         21    1    1    2  503  501 -0.15354681199E+02 -0.15706581329E+02 -0.16801510955E+01  0.22029204240E+02  0.00000000000E+00 0. -1.
         21    1    1    2  504  502  0.15354681199E+02  0.15706581329E+02 -0.11843196793E+02  0.24954443332E+02  0.00000000000E+00 0.  1.
</event>
<event>
 4    1  0.1725802E+006  0.2460088E+02  0.7546771E-02  0.1473318E+00
         21   -1    0    0  502  501  0.00000000000E+00  0.00000000000E+00  0.21124952632E+03  0.21124952632E+03  0.00000000000E+00 0.  1.
         21   -1    0    0  503  502 -0.00000000000E+00 -0.00000000000E+00 -0.14771159680E+02  0.14771159680E+02  0.00000000000E+00 0.  1.
         21    1    1    2  503  504  0.24304981708E+02  0.38040760672E+01 -0.32217980078E+01  0.24810947441E+02  0.00000000000E+00 0.  1.
         21    1    1    2  504  501 -0.24304981708E+02 -0.38040760672E+01  0.19970016464E+03  0.20120973855E+03  0.00000000000E+00 0.  1.
</event>
<event>
 4    1  0.1725802E+006  0.2303456E+02  0.7546771E-02  0.1492065E+00
         21   -1    0    0  504  501  0.00000000000E+00  0.00000000000E+00  0.13968126586E+03  0.13968126586E+03  0.00000000000E+00 0.  1.
         21   -1    0    0  503  502 -0.00000000000E+00 -0.00000000000E+00 -0.12763211673E+02  0.12763211673E+02  0.00000000000E+00 0. -1.
         21    1    1    2  503  501 -0.19448533659E+02  0.12342840126E+02  0.12733945525E+03  0.12940605869E+03  0.00000000000E+00 0.  1.
         21    1    1    2  504  502  0.19448533659E+02 -0.12342840126E+02 -0.42140105825E+00  0.23038418842E+02  0.00000000000E+00 0. -1.
</event>
<event>
 4    1  0.1725802E+006  0.2084562E+02  0.7546771E-02  0.1521480E+00
         21   -1    0    0  504  501  0.00000000000E+00  0.00000000000E+00  0.35109755065E+01  0.35109755065E+01  0.00000000000E+00 0. -1.
         21   -1    0    0  503  502 -0.00000000000E+00 -0.00000000000E+00 -0.13491711554E+03  0.13491711554E+03  0.00000000000E+00 0. -1.
         21    1    1    2  503  501 -0.19476698934E+02  0.74295451264E+01 -0.45804730760E+02  0.50325076275E+02  0.00000000000E+00 0. -1.
         21    1    1    2  504  502  0.19476698934E+02 -0.74295451264E+01 -0.85601409278E+02  0.88103014776E+02  0.00000000000E+00 0. -1.
</event>
<event>
 4    1  0.1725802E+006  0.2219316E+02  0.7546771E-02  0.1502886E+00
         21   -1    0    0  502  501  0.00000000000E+00  0.00000000000E+00  0.61530381334E+03  0.61530381334E+03  0.00000000000E+00 0.  1.
         21   -1    0    0  504  502 -0.00000000000E+00 -0.00000000000E+00 -0.12761752765E+02  0.12761752765E+02  0.00000000000E+00 0.  1.
         21    1    1    2  503  501  0.19150705550E+02  0.11215472371E+02  0.60529552989E+03  0.60570224934E+03  0.00000000000E+00 0.  1.
         21    1    1    2  504  503 -0.19150705550E+02 -0.11215472371E+02 -0.27534693171E+01  0.22363316768E+02  0.00000000000E+00 0.  1.
</event>
<event>
 4    1  0.1725802E+006  0.2010739E+02  0.7546771E-02  0.1532400E+00
         21   -1    0    0  503  501  0.00000000000E+00  0.00000000000E+00  0.12443179275E+01  0.12443179275E+01  0.00000000000E+00 0. -1.
         21   -1    0    0  504  502 -0.00000000000E+00 -0.00000000000E+00 -0.47800461454E+03  0.47800461454E+03  0.00000000000E+00 0. -1.
         21    1    1    2  503  502  0.12805514597E+02 -0.15502443339E+02 -0.10277465911E+03  0.10472314696E+03  0.00000000000E+00 0. -1.
         21    1    1    2  504  501 -0.12805514597E+02  0.15502443339E+02 -0.37398563750E+03  0.37452578551E+03  0.00000000000E+00 0. -1.
</event>
<event>
 4    1  0.1725802E+006  0.2200869E+02  0.7546771E-02  0.1505336E+00
         21   -1    0    0  503  501  0.00000000000E+00  0.00000000000E+00  0.14114652974E+02  0.14114652974E+02  0.00000000000E+00 0.  1.
         21   -1    0    0  501  502 -0.00000000000E+00 -0.00000000000E+00 -0.45713582721E+03  0.45713582721E+03  0.00000000000E+00 0. -1.
         21    1    1    2  503  504  0.15608763482E+02 -0.15516086681E+02  0.50977994948E+01  0.22591370101E+02  0.00000000000E+00 0.  1.
         21    1    1    2  504  502 -0.15608763482E+02  0.15516086681E+02 -0.44811897373E+03  0.44865911008E+03  0.00000000000E+00 0. -1.
</event>
<event>
 4    1  0.1725802E+006  0.2224106E+02  0.7546771E-02  0.1502255E+00
         21   -1    0    0  504  501  0.00000000000E+00  0.00000000000E+00  0.29029693163E+01  0.29029693163E+01  0.00000000000E+00 0.  1.
         21   -1    0    0  503  502 -0.00000000000E+00 -0.00000000000E+00 -0.17102204718E+03  0.17102204718E+03  0.00000000000E+00 0.  1.
         21    1    1    2  503  501  0.14756873568E+02  0.16640291142E+02 -0.89306184368E+02  0.92034010959E+02  0.00000000000E+00 0.  1.
         21    1    1    2  504  502 -0.14756873568E+02 -0.16640291142E+02 -0.78812893496E+02  0.81891005538E+02  0.00000000000E+00 0.  1.
</event>
<event>
 4    1  0.1725802E+006  0.2186892E+02  0.7546771E-02  0.1507211E+00
         21   -1    0    0  504  501  0.00000000000E+00  0.00000000000E+00  0.57322330084E+03  0.57322330084E+03  0.00000000000E+00 0.  1.
         21   -1    0    0  503  502 -0.00000000000E+00 -0.00000000000E+00 -0.13572024500E+01  0.13572024500E+01  0.00000000000E+00 0. -1.
         21    1    1    2  503  501  0.10654489314E+02 -0.19097944111E+02  0.46425388539E+03  0.46476867333E+03  0.00000000000E+00 0.  1.
         21    1    1    2  504  502 -0.10654489314E+02  0.19097944111E+02  0.10761221300E+03  0.10981182995E+03  0.00000000000E+00 0. -1.
</event>
<event>
 4    1  0.1725802E+006  0.2874071E+02  0.7546771E-02  0.1430865E+00
         21   -1    0    0  504  501  0.00000000000E+00  0.00000000000E+00  0.19932505846E+02  0.19932505846E+02  0.00000000000E+00 0.  1.
         21   -1    0    0  503  502 -0.00000000000E+00 -0.00000000000E+00 -0.38271157340E+03  0.38271157340E+03  0.00000000000E+00 0.  1.
         21    1    1    2  503  501  0.28261531138E+02 -0.52262932317E+01  0.87203846127E+01  0.30034536637E+02  0.00000000000E+00 0.  1.
         21    1    1    2  504  502 -0.28261531138E+02  0.52262932317E+01 -0.37149945217E+03  0.37260954261E+03  0.00000000000E+00 0.  1.
</event>
<event>
 4    1  0.1725802E+006  0.2441521E+02  0.7546771E-02  0.1475453E+00
         21   -1    0    0  502  501  0.00000000000E+00  0.00000000000E+00  0.78076776244E+02  0.78076776244E+02  0.00000000000E+00 0.  1.
         21   -1    0    0  503  502 -0.00000000000E+00 -0.00000000000E+00 -0.11390151353E+02  0.11390151353E+02  0.00000000000E+00 0.  1.
         21    1    1    2  503  504  0.72903176788E+01  0.23301373146E+02  0.76576083456E+01  0.25587920743E+02  0.00000000000E+00 0.  1.
         21    1    1    2  504  501 -0.72903176788E+01 -0.23301373146E+02  0.59029016546E+02  0.63879006855E+02  0.00000000000E+00 0.  1.
</event>
<event>
 4    1  0.1725802E+006  0.3883101E+02  0.7546771E-02  0.1355476E+00
         21   -1    0    0  504  501  0.00000000000E+00  0.00000000000E+00  0.76158459003E+01  0.76158459003E+01  0.00000000000E+00 0.  1.
         21   -1    0    0  503  502 -0.00000000000E+00 -0.00000000000E+00 -0.22286579769E+03  0.22286579769E+03  0.00000000000E+00 0.  1.
         21    1    1    2  503  501 -0.36111512206E+02  0.14276055092E+02 -0.69122425778E+02  0.79282764887E+02  0.00000000000E+00 0.  1.
         21    1    1    2  504  502  0.36111512206E+02 -0.14276055092E+02 -0.14612752601E+03  0.15119887870E+03  0.00000000000E+00 0.  1.
</event>
<event>
 4    1  0.1725802E+006  0.2411700E+02  0.7546771E-02  0.1478929E+00
         21   -1    0    0  503  501  0.00000000000E+00  0.00000000000E+00  0.29842288811E+01  0.29842288811E+01  0.00000000000E+00 0.  1.
         21   -1    0    0  504  502 -0.00000000000E+00 -0.00000000000E+00 -0.43263240267E+03  0.43263240267E+03  0.00000000000E+00 0.  1.
         21    1    1    2  503  502 -0.14520455463E+02  0.19255804065E+02 -0.53366639637E+02  0.58563024540E+02  0.00000000000E+00 0.  1.
         21    1    1    2  504  501  0.14520455463E+02 -0.19255804065E+02 -0.37628153415E+03  0.37705360701E+03  0.00000000000E+00 0.  1.
</event>
<event>
 4    1  0.1725802E+006  0.2174934E+02  0.7546771E-02  0.1508830E+00
         21   -1    0    0  504  501  0.00000000000E+00  0.00000000000E+00  0.77102938613E+02  0.77102938613E+02  0.00000000000E+00 0.  1.
         21   -1    0    0  503  502 -0.00000000000E+00 -0.00000000000E+00 -0.36137117425E+02  0.36137117425E+02  0.00000000000E+00 0. -1.
         21    1    1    2  503  501  0.21786985099E+01  0.21639937369E+02 -0.31107456052E+02  0.37956652099E+02  0.00000000000E+00 0. -1.
         21    1    1    2  504  502 -0.21786985099E+01 -0.21639937369E+02  0.72073277240E+02  0.75283403939E+02  0.00000000000E+00 0.  1.
</event>
<event>
 4    1  0.1725802E+006  0.3205593E+02  0.7546771E-02  0.1402533E+00
         21   -1    0    0  503  501  0.00000000000E+00  0.00000000000E+00  0.19496640578E+01  0.19496640578E+01  0.00000000000E+00 0.  1.
         21   -1    0    0  504  502 -0.00000000000E+00 -0.00000000000E+00 -0.53483472441E+03  0.53483472441E+03  0.00000000000E+00 0.  1.
         21    1    1    2  503  502 -0.32034941558E+02 -0.11597229287E+01 -0.23407496698E+03  0.23625975663E+03  0.00000000000E+00 0.  1.
         21    1    1    2  504  501  0.32034941558E+02  0.11597229287E+01 -0.29881009338E+03  0.30052463184E+03  0.00000000000E+00 0.  1.
</event>
<event>
 4    1  0.1725802E+006  0.2179385E+02  0.7546771E-02  0.1508226E+00
         21   -1    0    0  504  501  0.00000000000E+00  0.00000000000E+00  0.64863189110E+01  0.64863189110E+01  0.00000000000E+00 0.  1.
         21   -1    0    0  503  502 -0.00000000000E+00 -0.00000000000E+00 -0.98970385469E+02  0.98970385469E+02  0.00000000000E+00 0.  1.
         21    1    1    2  503  501 -0.18874673726E+02 -0.10895807821E+02 -0.73134253514E+02  0.76312456214E+02  0.00000000000E+00 0.  1.
         21    1    1    2  504  502  0.18874673726E+02  0.10895807821E+02 -0.19349813043E+02  0.29144248166E+02  0.00000000000E+00 0.  1.
</event>
<event>
 4    1  0.1725802E+006  0.2498652E+02  0.7546771E-02  0.1468954E+00
         21   -1    0    0  502  501  0.00000000000E+00  0.00000000000E+00  0.31586067155E+03  0.31586067155E+03  0.00000000000E+00 0.  1.
         21   -1    0    0  503  502 -0.00000000000E+00 -0.00000000000E+00 -0.24229253593E+01  0.24229253593E+01  0.00000000000E+00 0. -1.
         21    1    1    2  503  504 -0.15937686612E+02  0.19243610415E+02  0.88414912087E+02  0.91877761595E+02  0.00000000000E+00 0. -1.
         21    1    1    2  504  501  0.15937686612E+02 -0.19243610415E+02  0.22502283410E+03  0.22640583531E+03  0.00000000000E+00 0.  1.
</event>
<event>
 4    1  0.1725802E+006  0.2028304E+02  0.7546771E-02  0.1529752E+00
         21   -1    0    0  503  501  0.00000000000E+00  0.00000000000E+00  0.13774080066E+01  0.13774080066E+01  0.00000000000E+00 0.  1.
         21   -1    0    0  501  502 -0.00000000000E+00 -0.00000000000E+00 -0.42129493591E+03  0.42129493591E+03  0.00000000000E+00 0.  1.
         21    1    1    2  503  504  0.16374894673E+02  0.11969321565E+02 -0.95945474305E+02  0.98065977147E+02  0.00000000000E+00 0.  1.
         21    1    1    2  504  502 -0.16374894673E+02 -0.11969321565E+02 -0.32397205360E+03  0.32460636677E+03  0.00000000000E+00 0.  1.
</event>
<event>
 4    1  0.1725802E+006  0.2300597E+02  0.7546771E-02  0.1492423E+00
         21   -1    0    0  504  501  0.00000000000E+00  0.00000000000E+00  0.71484819985E+03  0.71484819985E+03  0.00000000000E+00 0. -1.
         21   -1    0    0  503  502 -0.00000000000E+00 -0.00000000000E+00 -0.19199706865E+01  0.19199706865E+01  0.00000000000E+00 0.  1.
         21    1    1    2  503  501  0.20761269665E+02  0.99118355961E+01  0.63737145919E+03  0.63778652526E+03  0.00000000000E+00 0. -1.
         21    1    1    2  504  502 -0.20761269665E+02 -0.99118355961E+01  0.75556769966E+02  0.78981645277E+02  0.00000000000E+00 0.  1.
</event>
<event>
 4    1  0.1725802E+006  0.2093738E+02  0.7546771E-02  0.1520161E+00
         21   -1    0    0  503  501  0.00000000000E+00  0.00000000000E+00  0.51434852520E+00  0.51434852520E+00  0.00000000000E+00 0. -1.
         21   -1    0    0  504  502 -0.00000000000E+00 -0.00000000000E+00 -0.86848309466E+03  0.86848309466E+03  0.00000000000E+00 0.  1.
         21    1    1    2  503  502  0.18553291740E+02  0.97030451309E+01 -0.37465321960E+03  0.37523780283E+03  0.00000000000E+00 0. -1.
         21    1    1    2  504  501 -0.18553291740E+02 -0.97030451309E+01 -0.49331552654E+03  0.49375964035E+03  0.00000000000E+00 0.  1.
</event>
<event>
 4    1  0.1725802E+006  0.2010581E+02  0.7546771E-02  0.1532424E+00
         21   -1    0    0  503  501  0.00000000000E+00  0.00000000000E+00  0.20017391754E+02  0.20017391754E+02  0.00000000000E+00 0.  1.
         21   -1    0    0  504  502 -0.00000000000E+00 -0.00000000000E+00 -0.20194761779E+02  0.20194761779E+02  0.00000000000E+00 0.  1.
         21    1    1    2  503  502 -0.36633086327E+01 -0.19769260867E+02 -0.34346931426E-01  0.20105837089E+02  0.00000000000E+00 0.  1.
         21    1    1    2  504  501  0.36633086327E+01  0.19769260867E+02 -0.14302309342E+00  0.20106316444E+02  0.00000000000E+00 0.  1.
</event>
<event>
 4    1  0.1725802E+006  0.2864180E+02  0.7546771E-02  0.1431778E+00
         21   -1    0    0  503  501  0.00000000000E+00  0.00000000000E+00  0.30837139568E+02  0.30837139568E+02  0.00000000000E+00 0. -1.
         21   -1    0    0  501  502 -0.00000000000E+00 -0.00000000000E+00 -0.94022448392E+02  0.94022448392E+02  0.00000000000E+00 0. -1.
         21    1    1    2  503  504 -0.98504726853E+01 -0.26894626751E+02  0.21272502005E+02  0.35677333165E+02  0.00000000000E+00 0. -1.
         21    1    1    2  504  502  0.98504726853E+01  0.26894626751E+02 -0.84457810829E+02  0.89182254794E+02  0.00000000000E+00 0. -1.
</event>
<event>
 4    1  0.1725802E+006  0.2502320E+02  0.7546771E-02  0.1468544E+00
         21   -1    0    0  504  501  0.00000000000E+00  0.00000000000E+00  0.19786358322E+02  0.19786358322E+02  0.00000000000E+00 0.  1.
         21   -1    0    0  501  502 -0.00000000000E+00 -0.00000000000E+00 -0.50307046673E+02  0.50307046673E+02  0.00000000000E+00 0. -1.
         21    1    1    2  503  502 -0.15808413501E+02 -0.19397280612E+02 -0.36605531180E+02  0.44341012003E+02  0.00000000000E+00 0. -1.
         21    1    1    2  504  503  0.15808413501E+02  0.19397280612E+02  0.60848428286E+01  0.25752392992E+02  0.00000000000E+00 0.  1.
</event>
<event>
 4    1  0.1725802E+006  0.2032917E+02  0.7546771E-02  0.1529062E+00
         21   -1    0    0  503  501  0.00000000000E+00  0.00000000000E+00  0.44369788740E+03  0.44369788740E+03  0.00000000000E+00 0. -1.
         21   -1    0    0  504  502 -0.00000000000E+00 -0.00000000000E+00 -0.12331145650E+02  0.12331145650E+02  0.00000000000E+00 0. -1.
         21    1    1    2  503  502 -0.20183975554E+02  0.24253022460E+01  0.43491728167E+03  0.43539214147E+03  0.00000000000E+00 0. -1.
         21    1    1    2  504  501  0.20183975554E+02 -0.24253022460E+01 -0.35505399229E+01  0.20636891575E+02  0.00000000000E+00 0. -1.
</event>
<event>
 4    1  0.1725802E+006  0.2395230E+02  0.7546771E-02  0.1480874E+00
         21   -1    0    0  504  501  0.00000000000E+00  0.00000000000E+00  0.10323468809E+03  0.10323468809E+03  0.00000000000E+00 0. -1.
         21   -1    0    0  503  502 -0.00000000000E+00 -0.00000000000E+00 -0.94311390551E+01  0.94311390551E+01  0.00000000000E+00 0. -1.
         21    1    1    2  503  501 -0.21809190752E+01 -0.23852803097E+02  0.83005116198E+02  0.86391908988E+02  0.00000000000E+00 0. -1.
         21    1    1    2  504  502  0.21809190752E+01  0.23852803097E+02  0.10798432837E+02  0.26273918157E+02  0.00000000000E+00 0. -1.
</event>
<event>
 4    1  0.1725802E+006  0.2062544E+02  0.7546771E-02  0.1524680E+00
         21   -1    0    0  504  501  0.00000000000E+00  0.00000000000E+00  0.20996774723E+03  0.20996774723E+03  0.00000000000E+00 0. -1.
         21   -1    0    0  503  502 -0.00000000000E+00 -0.00000000000E+00 -0.23957310020E+01  0.23957310020E+01  0.00000000000E+00 0. -1.
         21    1    1    2  503  501  0.25566347588E+01  0.20466372233E+02  0.14549543751E+03  0.14695009734E+03  0.00000000000E+00 0. -1.
         21    1    1    2  504  502 -0.25566347588E+01 -0.20466372233E+02  0.62076578719E+02  0.65413380888E+02  0.00000000000E+00 0. -1.
</event>
<event>
 4    1  0.1725802E+006  0.2027592E+02  0.7546771E-02  0.1529859E+00
         21   -1    0    0  503  501  0.00000000000E+00  0.00000000000E+00  0.24300986517E+00  0.24300986517E+00  0.00000000000E+00 0. -1.
         21   -1    0    0  504  502 -0.00000000000E+00 -0.00000000000E+00 -0.20431885662E+04  0.20431885662E+04  0.00000000000E+00 0. -1.
         21    1    1    2  503  502 -0.13509503592E+02  0.15119725625E+02 -0.14452117665E+04  0.14453539922E+04  0.00000000000E+00 0. -1.
         21    1    1    2  504  501  0.13509503592E+02 -0.15119725625E+02 -0.59773378987E+03  0.59807758389E+03  0.00000000000E+00 0. -1.
</event>
<event>
 4    1  0.1725802E+006  0.2431058E+02  0.7546771E-02  0.1476666E+00
         21   -1    0    0  503  501  0.00000000000E+00  0.00000000000E+00  0.81739065377E+02  0.81739065377E+02  0.00000000000E+00 0. -1.
         21   -1    0    0  504  502 -0.00000000000E+00 -0.00000000000E+00 -0.12455695867E+02  0.12455695867E+02  0.00000000000E+00 0.  1.
         21    1    1    2  503  502  0.58679305580E+01 -0.23591769183E+02  0.41368136816E+01  0.24660036692E+02  0.00000000000E+00 0.  1.
         21    1    1    2  504  501 -0.58679305580E+01  0.23591769183E+02  0.65146555829E+02  0.69534724552E+02  0.00000000000E+00 0. -1.
</event>
<event>
 4    1  0.1725802E+006  0.2041933E+02  0.7546771E-02  0.1527719E+00
         21   -1    0    0  504  501  0.00000000000E+00  0.00000000000E+00  0.48784151336E+02  0.48784151336E+02  0.00000000000E+00 0.  1.
         21   -1    0    0  503  502 -0.00000000000E+00 -0.00000000000E+00 -0.20707665198E+02  0.20707665198E+02  0.00000000000E+00 0.  1.
         21    1    1    2  503  501 -0.93380409731E+01 -0.18159025986E+02 -0.12588621398E+02  0.23987968290E+02  0.00000000000E+00 0.  1.
         21    1    1    2  504  502  0.93380409731E+01  0.18159025986E+02  0.40665107537E+02  0.45503848243E+02  0.00000000000E+00 0.  1.
</event>
<event>
 4    1  0.1725802E+006  0.3430163E+02  0.7546771E-02  0.1385540E+00
         21   -1    0    0  503  501  0.00000000000E+00  0.00000000000E+00  0.33347939984E+03  0.33347939984E+03  0.00000000000E+00 0.  1.
         21   -1    0    0  504  502 -0.00000000000E+00 -0.00000000000E+00 -0.43684110383E+01  0.43684110383E+01  0.00000000000E+00 0.  1.
         21    1    1    2  503  502  0.77805846981E+01 -0.33407552450E+02  0.90474291557E+02  0.96758459535E+02  0.00000000000E+00 0.  1.
         21    1    1    2  504  501 -0.77805846981E+01  0.33407552450E+02  0.23863669725E+03  0.24108935134E+03  0.00000000000E+00 0.  1.
</event>
<event>
 4    1  0.1725802E+006  0.2768984E+02  0.7546771E-02  0.1440799E+00
         21   -1    0    0  504  501  0.00000000000E+00  0.00000000000E+00  0.66363381748E+02  0.66363381748E+02  0.00000000000E+00 0.  1.
         21   -1    0    0  503  502 -0.00000000000E+00 -0.00000000000E+00 -0.19535144459E+02  0.19535144459E+02  0.00000000000E+00 0.  1.
         21    1    1    2  503  501 -0.61309063117E+01 -0.27002580371E+02 -0.40391715600E+01  0.27982892377E+02  0.00000000000E+00 0.  1.
         21    1    1    2  504  502  0.61309063117E+01  0.27002580371E+02  0.50867408849E+02  0.57915633830E+02  0.00000000000E+00 0.  1.
</event>
<event>
 4    1  0.1725802E+006  0.2016127E+02  0.7546771E-02  0.1531585E+00
         21   -1    0    0  503  501  0.00000000000E+00  0.00000000000E+00  0.15799923540E+02  0.15799923540E+02  0.00000000000E+00 0. -1.
         21   -1    0    0  504  502 -0.00000000000E+00 -0.00000000000E+00 -0.51172493209E+02  0.51172493209E+02  0.00000000000E+00 0. -1.
         21    1    1    2  503  502 -0.19746887790E+02 -0.40666040292E+01  0.59270502189E+01  0.21014441939E+02  0.00000000000E+00 0. -1.
         21    1    1    2  504  501  0.19746887790E+02  0.40666040292E+01 -0.41299619888E+02  0.45957974810E+02  0.00000000000E+00 0. -1.
</event>
<event>
 4    1  0.1725802E+006  0.2220813E+02  0.7546771E-02  0.1502689E+00
         21   -1    0    0  503  501  0.00000000000E+00  0.00000000000E+00  0.94189811411E+01  0.94189811411E+01  0.00000000000E+00 0. -1.
         21   -1    0    0  501  502 -0.00000000000E+00 -0.00000000000E+00 -0.10107830297E+03  0.10107830297E+03  0.00000000000E+00 0. -1.
         21    1    1    2  503  504 -0.22141889867E+02 -0.17139407342E+01 -0.74741461241E+01  0.23432109166E+02  0.00000000000E+00 0. -1.
         21    1    1    2  504  502  0.22141889867E+02  0.17139407342E+01 -0.84185175707E+02  0.87065174947E+02  0.00000000000E+00 0. -1.
</event>
<event>
 4    1  0.1725802E+006  0.2024337E+02  0.7546771E-02  0.1530347E+00
         21   -1    0    0  503  501  0.00000000000E+00  0.00000000000E+00  0.18439811367E+03  0.18439811367E+03  0.00000000000E+00 0. -1.
         21   -1    0    0  504  502 -0.00000000000E+00 -0.00000000000E+00 -0.28263952977E+01  0.28263952977E+01  0.00000000000E+00 0. -1.
         21    1    1    2  503  502 -0.17175616450E+02  0.10714119915E+02  0.47508891738E+02  0.51641930252E+02  0.00000000000E+00 0. -1.
         21    1    1    2  504  501  0.17175616450E+02 -0.10714119915E+02  0.13406282663E+03  0.13558257871E+03  0.00000000000E+00 0. -1.
</event>
<event>
 4    1  0.1725802E+006  0.2536947E+02  0.7546771E-02  0.1464712E+00
         21   -1    0    0  504  501  0.00000000000E+00  0.00000000000E+00  0.21781851869E+03  0.21781851869E+03  0.00000000000E+00 0. -1.
         21   -1    0    0  503  502 -0.00000000000E+00 -0.00000000000E+00 -0.59918532835E+01  0.59918532835E+01  0.00000000000E+00 0. -1.
         21    1    1    2  503  501  0.11200355373E+02  0.22763169364E+02  0.26243127002E+02  0.36500843207E+02  0.00000000000E+00 0. -1.
         21    1    1    2  504  502 -0.11200355373E+02 -0.22763169364E+02  0.18558353840E+03  0.18730952877E+03  0.00000000000E+00 0. -1.
</event>
<event>
 4    1  0.1725802E+006  0.3505569E+02  0.7546771E-02  0.1380172E+00
         21   -1    0    0  503  501  0.00000000000E+00  0.00000000000E+00  0.55277917787E+03  0.55277917787E+03  0.00000000000E+00 0. -1.
         21   -1    0    0  501  502 -0.00000000000E+00 -0.00000000000E+00 -0.24974397960E+01  0.24974397960E+01  0.00000000000E+00 0.  1.
         21    1    1    2  503  504  0.34084600966E+02  0.81939894609E+01  0.36715411866E+03  0.36882387169E+03  0.00000000000E+00 0. -1.
         21    1    1    2  504  502 -0.34084600966E+02 -0.81939894609E+01  0.18312761942E+03  0.18645274597E+03  0.00000000000E+00 0.  1.
</event>
<event>
 4    1  0.1725802E+006  0.2625553E+02  0.7546771E-02  0.1455233E+00
         21   -1    0    0  502  501  0.00000000000E+00  0.00000000000E+00  0.45407411872E+03  0.45407411872E+03  0.00000000000E+00 0.  1.
         21   -1    0    0  504  502 -0.00000000000E+00 -0.00000000000E+00 -0.13458382120E+03  0.13458382120E+03  0.00000000000E+00 0.  1.
         21    1    1    2  503  501 -0.26069797163E+02  0.31174842867E+01  0.45240934557E+03  0.45317057384E+03  0.00000000000E+00 0.  1.
         21    1    1    2  504  503  0.26069797163E+02 -0.31174842867E+01 -0.13291904805E+03  0.13548736608E+03  0.00000000000E+00 0.  1.
</event>
<event>
 4    1  0.1725802E+006  0.4662984E+02  0.7546771E-02  0.1313485E+00
         21   -1    0    0  502  501  0.00000000000E+00  0.00000000000E+00  0.47501480626E+01  0.47501480626E+01  0.00000000000E+00 0.  1.
         21   -1    0    0  503  502 -0.00000000000E+00 -0.00000000000E+00 -0.46524494425E+03  0.46524494425E+03  0.00000000000E+00 0.  1.
         21    1    1    2  503  504 -0.43664038632E+02 -0.16364392273E+02 -0.26009039545E+03  0.26423730889E+03  0.00000000000E+00 0.  1.
         21    1    1    2  504  501  0.43664038632E+02  0.16364392273E+02 -0.20040440074E+03  0.20575778343E+03  0.00000000000E+00 0.  1.
</event>
<event>
 4    1  0.1725802E+006  0.2259945E+02  0.7546771E-02  0.1497590E+00
         21   -1    0    0  503  501  0.00000000000E+00  0.00000000000E+00  0.58034432585E+00  0.58034432585E+00  0.00000000000E+00 0.  1.
         21   -1    0    0  504  502 -0.00000000000E+00 -0.00000000000E+00 -0.88102251393E+03  0.88102251393E+03  0.00000000000E+00 0. -1.
         21    1    1    2  503  502 -0.16642445133E+02 -0.15289344846E+02 -0.45482709607E+03  0.45538821062E+03  0.00000000000E+00 0. -1.
         21    1    1    2  504  501  0.16642445133E+02  0.15289344846E+02 -0.42561507353E+03  0.42621464764E+03  0.00000000000E+00 0.  1.
</event>
<event>
 4    1  0.1725802E+006  0.2070687E+02  0.7546771E-02  0.1523491E+00
         21   -1    0    0  503  501  0.00000000000E+00  0.00000000000E+00  0.24383859870E+02  0.24383859870E+02  0.00000000000E+00 0. -1.
         21   -1    0    0  501  502 -0.00000000000E+00 -0.00000000000E+00 -0.40853303664E+02  0.40853303664E+02  0.00000000000E+00 0. -1.
         21    1    1    2  503  504  0.31269923192E+01  0.20469400841E+02  0.16382546607E+02  0.26403830879E+02  0.00000000000E+00 0. -1.
         21    1    1    2  504  502 -0.31269923192E+01 -0.20469400841E+02 -0.32851990401E+02  0.38833332655E+02  0.00000000000E+00 0. -1.
</event>
<event>
 4    1  0.1725802E+006  0.2261448E+02  0.7546771E-02  0.1497397E+00
         21   -1    0    0  504  501  0.00000000000E+00  0.00000000000E+00  0.15686797583E+03  0.15686797583E+03  0.00000000000E+00 0.  1.
         21   -1    0    0  503  502 -0.00000000000E+00 -0.00000000000E+00 -0.12303055441E+02  0.12303055441E+02  0.00000000000E+00 0.  1.
         21    1    1    2  503  501 -0.13717400082E+01  0.22572835850E+02  0.14480003677E+03  0.14655533166E+03  0.00000000000E+00 0.  1.
         21    1    1    2  504  502  0.13717400082E+01 -0.22572835850E+02 -0.23511638855E+00  0.22615699606E+02  0.00000000000E+00 0.  1.
</event>
<event>
 4    1  0.1725802E+006  0.2561925E+02  0.7546771E-02  0.1461994E+00
         21   -1    0    0  504  501  0.00000000000E+00  0.00000000000E+00  0.73422212348E+01  0.73422212348E+01  0.00000000000E+00 0.  1.
         21   -1    0    0  501  502 -0.00000000000E+00 -0.00000000000E+00 -0.15437632261E+03  0.15437632261E+03  0.00000000000E+00 0.  1.
         21    1    1    2  503  502 -0.19672065048E+02 -0.16412059080E+02 -0.12597837314E+03  0.12855697696E+03  0.00000000000E+00 0.  1.
         21    1    1    2  504  503  0.19672065048E+02  0.16412059080E+02 -0.21055728230E+02  0.33161566878E+02  0.00000000000E+00 0.  1.
</event>
<event>
 4    1  0.1725802E+006  0.2298847E+02  0.7546771E-02  0.1492643E+00
         21   -1    0    0  503  501  0.00000000000E+00  0.00000000000E+00  0.14790606546E+02  0.14790606546E+02  0.00000000000E+00 0. -1.
         21   -1    0    0  504  502 -0.00000000000E+00 -0.00000000000E+00 -0.40242622933E+02  0.40242622933E+02  0.00000000000E+00 0. -1.
         21    1    1    2  503  502  0.33153508933E+01  0.22748143422E+02 -0.35117059433E+01  0.23255142642E+02  0.00000000000E+00 0. -1.
         21    1    1    2  504  501 -0.33153508933E+01 -0.22748143422E+02 -0.21940310444E+02  0.31778086837E+02  0.00000000000E+00 0. -1.
</event>
<event>
 4    1  0.1725802E+006  0.2176611E+02  0.7546771E-02  0.1508602E+00
         21   -1    0    0  504  501  0.00000000000E+00  0.00000000000E+00  0.35226444088E+02  0.35226444088E+02  0.00000000000E+00 0. -1.
         21   -1    0    0  501  502 -0.00000000000E+00 -0.00000000000E+00 -0.13451294124E+02  0.13451294124E+02  0.00000000000E+00 0. -1.
         21    1    1    2  503  502 -0.13569774542E+02  0.17018367096E+02  0.11199165682E+02  0.24478253853E+02  0.00000000000E+00 0. -1.
         21    1    1    2  504  503  0.13569774542E+02 -0.17018367096E+02  0.10575984282E+02  0.24199484359E+02  0.00000000000E+00 0. -1.
</event>
<event>
 4    1  0.1725802E+006  0.2377191E+02  0.7546771E-02  0.1483026E+00
         21   -1    0    0  504  501  0.00000000000E+00  0.00000000000E+00  0.96361311354E+00  0.96361311354E+00  0.00000000000E+00 0.  1.
         21   -1    0    0  503  502 -0.00000000000E+00 -0.00000000000E+00 -0.59853154238E+03  0.59853154238E+03  0.00000000000E+00 0.  1.
         21    1    1    2  503  501  0.16207004934E+02 -0.17390701558E+02 -0.25618379299E+03  0.25728435495E+03  0.00000000000E+00 0.  1.
         21    1    1    2  504  502 -0.16207004934E+02  0.17390701558E+02 -0.34138413627E+03  0.34221080054E+03  0.00000000000E+00 0.  1.
</event>
<event>
 4    1  0.1725802E+006  0.2043257E+02  0.7546771E-02  0.1527523E+00
         21   -1    0    0  503  501  0.00000000000E+00  0.00000000000E+00  0.62746574920E+01  0.62746574920E+01  0.00000000000E+00 0. -1.
         21   -1    0    0  504  502 -0.00000000000E+00 -0.00000000000E+00 -0.12448270309E+03  0.12448270309E+03  0.00000000000E+00 0.  1.
         21    1    1    2  503  502 -0.18497791452E+02 -0.86788101297E+01 -0.14497706963E+02  0.25053413761E+02  0.00000000000E+00 0. -1.
         21    1    1    2  504  501  0.18497791452E+02  0.86788101297E+01 -0.10371033864E+03  0.10570394683E+03  0.00000000000E+00 0.  1.
</event>
<event>
 4    1  0.1725802E+006  0.2372236E+02  0.7546771E-02  0.1483621E+00
         21   -1    0    0  504  501  0.00000000000E+00  0.00000000000E+00  0.15798898376E+02  0.15798898376E+02  0.00000000000E+00 0. -1.
         21   -1    0    0  503  502 -0.00000000000E+00 -0.00000000000E+00 -0.86425518124E+03  0.86425518124E+03  0.00000000000E+00 0. -1.
         21    1    1    2  503  501  0.23608674768E+02  0.23196862986E+01  0.66358073468E+01  0.24632994296E+02  0.00000000000E+00 0. -1.
         21    1    1    2  504  502 -0.23608674768E+02 -0.23196862986E+01 -0.85509209021E+03  0.85542108532E+03  0.00000000000E+00 0. -1.
</event>
<event>
 4    1  0.1725802E+006  0.2443162E+02  0.7546771E-02  0.1475263E+00
         21   -1    0    0  504  501  0.00000000000E+00  0.00000000000E+00  0.59941349822E+02  0.59941349822E+02  0.00000000000E+00 0.  1.
         21   -1    0    0  501  502 -0.00000000000E+00 -0.00000000000E+00 -0.18767567380E+03  0.18767567380E+03  0.00000000000E+00 0. -1.
         21    1    1    2  503  502  0.21132644213E+02  0.12260316979E+02 -0.18434624605E+03  0.18595817394E+03  0.00000000000E+00 0. -1.
         21    1    1    2  504  503 -0.21132644213E+02 -0.12260316979E+02  0.56611922068E+02  0.61658849682E+02  0.00000000000E+00 0.  1.
</event>
<event>
 4    1  0.1725802E+006  0.2586641E+02  0.7546771E-02  0.1459340E+00
         21   -1    0    0  504  501  0.00000000000E+00  0.00000000000E+00  0.13269633073E+03  0.13269633073E+03  0.00000000000E+00 0. -1.
         21   -1    0    0  503  502 -0.00000000000E+00 -0.00000000000E+00 -0.18212551768E+02  0.18212551768E+02  0.00000000000E+00 0.  1.
         21    1    1    2  503  501 -0.14847677307E+02  0.21180600304E+02  0.12140705939E+03  0.12413196777E+03  0.00000000000E+00 0. -1.
         21    1    1    2  504  502  0.14847677307E+02 -0.21180600304E+02 -0.69232804313E+01  0.26776914732E+02  0.00000000000E+00 0.  1.
</event>
<event>
 4    1  0.1725802E+006  0.4279695E+02  0.7546771E-02  0.1332832E+00
         21   -1    0    0  502  501  0.00000000000E+00  0.00000000000E+00  0.56844844488E+02  0.56844844488E+02  0.00000000000E+00 0.  1.
         21   -1    0    0  504  502 -0.00000000000E+00 -0.00000000000E+00 -0.12352966566E+04  0.12352966566E+04  0.00000000000E+00 0. -1.
         21    1    1    2  503  501  0.32403351273E+02  0.27957147820E+02  0.48363327593E+02  0.64580111055E+02  0.00000000000E+00 0.  1.
         21    1    1    2  504  503 -0.32403351273E+02 -0.27957147820E+02 -0.12268151397E+04  0.12275613900E+04  0.00000000000E+00 0. -1.
</event>
<event>
 4    1  0.1725802E+006  0.2480197E+02  0.7546771E-02  0.1471031E+00
         21   -1    0    0  503  501  0.00000000000E+00  0.00000000000E+00  0.37750726627E+02  0.37750726627E+02  0.00000000000E+00 0. -1.
         21   -1    0    0  501  502 -0.00000000000E+00 -0.00000000000E+00 -0.15901714338E+03  0.15901714338E+03  0.00000000000E+00 0. -1.
         21    1    1    2  503  504 -0.22545865585E+02  0.10335464257E+02  0.32573743665E+02  0.40941258564E+02  0.00000000000E+00 0. -1.
         21    1    1    2  504  502  0.22545865585E+02 -0.10335464257E+02 -0.15384016042E+03  0.15582661145E+03  0.00000000000E+00 0. -1.
</event>
<event>
 4    1  0.1725802E+006  0.2167418E+02  0.7546771E-02  0.1509853E+00
         21   -1    0    0  504  501  0.00000000000E+00  0.00000000000E+00  0.10889026669E+02  0.10889026669E+02  0.00000000000E+00 0. -1.
         21   -1    0    0  501  502 -0.00000000000E+00 -0.00000000000E+00 -0.43765833577E+02  0.43765833577E+02  0.00000000000E+00 0. -1.
         21    1    1    2  503  502  0.69121091043E+01 -0.20542460261E+02 -0.13174718914E+02  0.25364209909E+02  0.00000000000E+00 0. -1.
         21    1    1    2  504  503 -0.69121091043E+01  0.20542460261E+02 -0.19702087994E+02  0.29290650337E+02  0.00000000000E+00 0. -1.
</event>
<event>
 4    1  0.1725802E+006  0.2318236E+02  0.7546771E-02  0.1490221E+00
         21   -1    0    0  502  501  0.00000000000E+00  0.00000000000E+00  0.23281365461E+03  0.23281365461E+03  0.00000000000E+00 0.  1.
         21   -1    0    0  503  502 -0.00000000000E+00 -0.00000000000E+00 -0.41987052611E+02  0.41987052611E+02  0.00000000000E+00 0. -1.
         21    1    1    2  503  504  0.20946086954E+02  0.99339390819E+01 -0.38156641582E+02  0.44646959597E+02  0.00000000000E+00 0. -1.
         21    1    1    2  504  501 -0.20946086954E+02 -0.99339390819E+01  0.22898324358E+03  0.23015374762E+03  0.00000000000E+00 0.  1.
</event>
<event>
 4    1  0.1725802E+006  0.2055632E+02  0.7546771E-02  0.1525695E+00
         21   -1    0    0  503  501  0.00000000000E+00  0.00000000000E+00  0.15455718309E+02  0.15455718309E+02  0.00000000000E+00 0. -1.
         21   -1    0    0  501  502 -0.00000000000E+00 -0.00000000000E+00 -0.96906062679E+02  0.96906062679E+02  0.00000000000E+00 0. -1.
         21    1    1    2  503  504  0.26685533924E+00  0.20554584718E+02  0.68753027110E+01  0.21675607306E+02  0.00000000000E+00 0. -1.
         21    1    1    2  504  502 -0.26685533924E+00 -0.20554584718E+02 -0.88325647082E+02  0.90686173682E+02  0.00000000000E+00 0. -1.
</event>
<event>
 4    1  0.1725802E+006  0.3209356E+02  0.7546771E-02  0.1402235E+00
         21   -1    0    0  503  501  0.00000000000E+00  0.00000000000E+00  0.42979072114E+02  0.42979072114E+02  0.00000000000E+00 0. -1.
         21   -1    0    0  504  502 -0.00000000000E+00 -0.00000000000E+00 -0.35032499586E+02  0.35032499586E+02  0.00000000000E+00 0. -1.
         21    1    1    2  503  502 -0.12274699930E+02  0.29653472738E+02  0.25897132483E+02  0.41239037024E+02  0.00000000000E+00 0. -1.
         21    1    1    2  504  501  0.12274699930E+02 -0.29653472738E+02 -0.17950559955E+02  0.36772534676E+02  0.00000000000E+00 0. -1.
</event>
<event>
 4    1  0.1725802E+006  0.2969214E+02  0.7546771E-02  0.1422291E+00
         21   -1    0    0  503  501  0.00000000000E+00  0.00000000000E+00  0.27380750370E+01  0.27380750370E+01  0.00000000000E+00 0.  1.
         21   -1    0    0  504  502 -0.00000000000E+00 -0.00000000000E+00 -0.32236690481E+03  0.32236690481E+03  0.00000000000E+00 0.  1.
         21    1    1    2  503  502  0.13272714875E+02 -0.26560459475E+02 -0.15422984933E+03  0.15706199219E+03  0.00000000000E+00 0.  1.
         21    1    1    2  504  501 -0.13272714875E+02  0.26560459475E+02 -0.16539898045E+03  0.16804298766E+03  0.00000000000E+00 0.  1.
</event>
<event>
 4    1  0.1725802E+006  0.2341446E+02  0.7546771E-02  0.1487358E+00
         21   -1    0    0  504  501  0.00000000000E+00  0.00000000000E+00  0.16996563041E+02  0.16996563041E+02  0.00000000000E+00 0. -1.
         21   -1    0    0  503  502 -0.00000000000E+00 -0.00000000000E+00 -0.83706325165E+02  0.83706325165E+02  0.00000000000E+00 0.  1.
         21    1    1    2  503  501  0.22869538182E+02 -0.50220634694E+01  0.61206432822E+01  0.24201222538E+02  0.00000000000E+00 0. -1.
         21    1    1    2  504  502 -0.22869538182E+02  0.50220634694E+01 -0.72830405406E+02  0.76501665667E+02  0.00000000000E+00 0.  1.
</event>
<event>
 4    1  0.1725802E+006  0.2159122E+02  0.7546771E-02  0.1510989E+00
         21   -1    0    0  504  501  0.00000000000E+00  0.00000000000E+00  0.58971606035E+01  0.58971606035E+01  0.00000000000E+00 0. -1.
         21   -1    0    0  503  502 -0.00000000000E+00 -0.00000000000E+00 -0.98794311549E+02  0.98794311549E+02  0.00000000000E+00 0. -1.
         21    1    1    2  503  501  0.12395918712E+02  0.17678294876E+02 -0.69848637496E+02  0.73109596295E+02  0.00000000000E+00 0. -1.
         21    1    1    2  504  502 -0.12395918712E+02 -0.17678294876E+02 -0.23048513450E+02  0.31581875857E+02  0.00000000000E+00 0. -1.
</event>
<event>
 4    1  0.1725802E+006  0.2010221E+02  0.7546771E-02  0.1532479E+00
         21   -1    0    0  504  501  0.00000000000E+00  0.00000000000E+00  0.63612804734E+01  0.63612804734E+01  0.00000000000E+00 0.  1.
         21   -1    0    0  501  502 -0.00000000000E+00 -0.00000000000E+00 -0.18625562686E+03  0.18625562686E+03  0.00000000000E+00 0. -1.
         21    1    1    2  503  502  0.16354951327E+02  0.11688224642E+02 -0.16812553227E+03  0.16932304518E+03  0.00000000000E+00 0. -1.
         21    1    1    2  504  503 -0.16354951327E+02 -0.11688224642E+02 -0.11768814113E+02  0.23293862149E+02  0.00000000000E+00 0.  1.
</event>
<event>
 4    1  0.1725802E+006  0.2178067E+02  0.7546771E-02  0.1508404E+00
         21   -1    0    0  504  501  0.00000000000E+00  0.00000000000E+00  0.21543505096E+01  0.21543505096E+01  0.00000000000E+00 0.  1.
         21   -1    0    0  503  502 -0.00000000000E+00 -0.00000000000E+00 -0.29119546123E+03  0.29119546123E+03  0.00000000000E+00 0.  1.
         21    1    1    2  503  501  0.92930044803E+01 -0.19698666242E+02 -0.72099397916E+02  0.75317465198E+02  0.00000000000E+00 0.  1.
         21    1    1    2  504  502 -0.92930044803E+01  0.19698666242E+02 -0.21694171281E+03  0.21803234655E+03  0.00000000000E+00 0.  1.
</event>
<event>
 4    1  0.1725802E+006  0.5540084E+02  0.7546771E-02  0.1276314E+00
         21   -1    0    0  503  501  0.00000000000E+00  0.00000000000E+00  0.22613652379E+03  0.22613652379E+03  0.00000000000E+00 0.  1.
         21   -1    0    0  504  502 -0.00000000000E+00 -0.00000000000E+00 -0.15010907365E+03  0.15010907365E+03  0.00000000000E+00 0.  1.
         21    1    1    2  503  502 -0.15352901736E+01  0.55379564393E+02  0.21743021304E+03  0.22437725110E+03  0.00000000000E+00 0.  1.
         21    1    1    2  504  501  0.15352901736E+01 -0.55379564393E+02 -0.14140276289E+03  0.15186834635E+03  0.00000000000E+00 0.  1.
</event>
<event>
 4    1  0.1725802E+006  0.2522458E+02  0.7546771E-02  0.1466307E+00
         21   -1    0    0  504  501  0.00000000000E+00  0.00000000000E+00  0.11367913259E+04  0.11367913259E+04  0.00000000000E+00 0. -1.
         21   -1    0    0  503  502 -0.00000000000E+00 -0.00000000000E+00 -0.93554533371E+00  0.93554533371E+00  0.00000000000E+00 0. -1.
         21    1    1    2  503  501  0.24929545257E+02  0.38467183249E+01  0.20737302703E+03  0.20890153615E+03  0.00000000000E+00 0. -1.
         21    1    1    2  504  502 -0.24929545257E+02 -0.38467183249E+01  0.92848275357E+03  0.92882533511E+03  0.00000000000E+00 0. -1.
</event>
<event>
 4    1  0.1725802E+006  0.2883092E+02  0.7546771E-02  0.1430035E+00
         21   -1    0    0  504  501  0.00000000000E+00  0.00000000000E+00  0.47402493705E+03  0.47402493705E+03  0.00000000000E+00 0.  1.
         21   -1    0    0  503  502 -0.00000000000E+00 -0.00000000000E+00 -0.15890796673E+02  0.15890796673E+02  0.00000000000E+00 0.  1.
         21    1    1    2  503  501 -0.26459985669E+02  0.11449509890E+02  0.46011448505E+03  0.46101687764E+03  0.00000000000E+00 0.  1.
         21    1    1    2  504  502  0.26459985669E+02 -0.11449509890E+02 -0.19803446645E+01  0.28898856090E+02  0.00000000000E+00 0.  1.
</event>
<event>
 4    1  0.1725802E+006  0.2708854E+02  0.7546771E-02  0.1446721E+00
         21   -1    0    0  503  501  0.00000000000E+00  0.00000000000E+00  0.95427829246E+02  0.95427829246E+02  0.00000000000E+00 0. -1.
         21   -1    0    0  504  502 -0.00000000000E+00 -0.00000000000E+00 -0.24828067799E+03  0.24828067799E+03  0.00000000000E+00 0.  1.
         21    1    1    2  503  502  0.19980517359E+02  0.18291195339E+02 -0.24559851097E+03  0.24708787402E+03  0.00000000000E+00 0.  1.
         21    1    1    2  504  501 -0.19980517359E+02 -0.18291195339E+02  0.92745662223E+02  0.96620633211E+02  0.00000000000E+00 0. -1.
</event>
<event>
 4    1  0.1725802E+006  0.2848559E+02  0.7546771E-02  0.1433230E+00
         21   -1    0    0  504  501  0.00000000000E+00  0.00000000000E+00  0.31928766202E+01  0.31928766202E+01  0.00000000000E+00 0.  1.
         21   -1    0    0  503  502 -0.00000000000E+00 -0.00000000000E+00 -0.13726377303E+04  0.13726377303E+04  0.00000000000E+00 0.  1.
         21    1    1    2  503  501 -0.27206283754E+02  0.84407844203E+01 -0.13056988369E+04  0.13060095258E+04  0.00000000000E+00 0.  1.
         21    1    1    2  504  502  0.27206283754E+02 -0.84407844203E+01 -0.63746016738E+02  0.69821081110E+02  0.00000000000E+00 0.  1.
</event>
<event>
 4    1  0.1725802E+006  0.2220342E+02  0.7546771E-02  0.1502751E+00
         21   -1    0    0  504  501  0.00000000000E+00  0.00000000000E+00  0.14727553722E+03  0.14727553722E+03  0.00000000000E+00 0. -1.
         21   -1    0    0  503  502 -0.00000000000E+00 -0.00000000000E+00 -0.33623072687E+01  0.33623072687E+01  0.00000000000E+00 0. -1.
         21    1    1    2  503  501  0.54874977868E+01 -0.21514630719E+02  0.76969676083E+02  0.80108195606E+02  0.00000000000E+00 0. -1.
         21    1    1    2  504  502 -0.54874977868E+01  0.21514630719E+02  0.66943553865E+02  0.70529648879E+02  0.00000000000E+00 0. -1.
</event>
<event>
 4    1  0.1725802E+006  0.3368477E+02  0.7546771E-02  0.1390053E+00
         21   -1    0    0  503  501  0.00000000000E+00  0.00000000000E+00  0.28222745244E+03  0.28222745244E+03  0.00000000000E+00 0.  1.
         21   -1    0    0  504  502 -0.00000000000E+00 -0.00000000000E+00 -0.42949271889E+01  0.42949271889E+01  0.00000000000E+00 0.  1.
         21    1    1    2  503  502 -0.34119751259E+01  0.33511519859E+02  0.10274582141E+03  0.10812662649E+03  0.00000000000E+00 0.  1.
         21    1    1    2  504  501  0.34119751259E+01 -0.33511519859E+02  0.17518670384E+03  0.17839575315E+03  0.00000000000E+00 0.  1.
</event>
<event>
 4    1  0.1725802E+006  0.2309864E+02  0.7546771E-02  0.1491263E+00
         21   -1    0    0  504  501  0.00000000000E+00  0.00000000000E+00  0.48275582389E+02  0.48275582389E+02  0.00000000000E+00 0. -1.
         21   -1    0    0  503  502 -0.00000000000E+00 -0.00000000000E+00 -0.35279338546E+02  0.35279338546E+02  0.00000000000E+00 0. -1.
         21    1    1    2  503  501 -0.10944962286E+02  0.20340970766E+02  0.41118646387E+02  0.47162383018E+02  0.00000000000E+00 0. -1.
         21    1    1    2  504  502  0.10944962286E+02 -0.20340970766E+02 -0.28122402545E+02  0.36392537917E+02  0.00000000000E+00 0. -1.
</event>
<event>
 4    1  0.1725802E+006  0.2704505E+02  0.7546771E-02  0.1447156E+00
         21   -1    0    0  503  501  0.00000000000E+00  0.00000000000E+00  0.15328854772E+02  0.15328854772E+02  0.00000000000E+00 0.  1.
         21   -1    0    0  504  502 -0.00000000000E+00 -0.00000000000E+00 -0.61260879746E+02  0.61260879746E+02  0.00000000000E+00 0. -1.
         21    1    1    2  503  502 -0.14324408459E+02  0.22940054959E+02 -0.40972674819E+02  0.49093735660E+02  0.00000000000E+00 0. -1.
         21    1    1    2  504  501  0.14324408459E+02 -0.22940054959E+02 -0.49593501548E+01  0.27495998858E+02  0.00000000000E+00 0.  1.
</event>
<event>
 4    1  0.1725802E+006  0.2151298E+02  0.7546771E-02  0.1512065E+00
         21   -1    0    0  504  501  0.00000000000E+00  0.00000000000E+00  0.16069731235E+02  0.16069731235E+02  0.00000000000E+00 0.  1.
         21   -1    0    0  503  502 -0.00000000000E+00 -0.00000000000E+00 -0.45314268644E+02  0.45314268644E+02  0.00000000000E+00 0. -1.
         21    1    1    2  503  501  0.20917072124E+02 -0.50283412001E+01 -0.33150650310E+02  0.39519283108E+02  0.00000000000E+00 0. -1.
         21    1    1    2  504  502 -0.20917072124E+02  0.50283412001E+01  0.39061129006E+01  0.21864716770E+02  0.00000000000E+00 0.  1.
</event>
<event>
 4    1  0.1725802E+006  0.2095394E+02  0.7546771E-02  0.1519923E+00
         21   -1    0    0  503  501  0.00000000000E+00  0.00000000000E+00  0.22032756219E+02  0.22032756219E+02  0.00000000000E+00 0.  1.
         21   -1    0    0  504  502 -0.00000000000E+00 -0.00000000000E+00 -0.30110214250E+03  0.30110214250E+03  0.00000000000E+00 0.  1.
         21    1    1    2  503  502  0.20940450002E+02 -0.75168021901E+00 -0.29566408969E+03  0.29640567032E+03  0.00000000000E+00 0.  1.
         21    1    1    2  504  501 -0.20940450002E+02  0.75168021901E+00  0.16594703407E+02  0.26729228395E+02  0.00000000000E+00 0.  1.
</event>
<event>
 4    1  0.1725802E+006  0.2609926E+02  0.7546771E-02  0.1456872E+00
         21   -1    0    0  502  501  0.00000000000E+00  0.00000000000E+00  0.31270181874E+01  0.31270181874E+01  0.00000000000E+00 0.  1.
         21   -1    0    0  503  502 -0.00000000000E+00 -0.00000000000E+00 -0.11571869396E+04  0.11571869396E+04  0.00000000000E+00 0.  1.
         21    1    1    2  503  504 -0.25570431240E+02  0.52272717998E+01 -0.10997367315E+04  0.11000463854E+04  0.00000000000E+00 0.  1.
         21    1    1    2  504  501  0.25570431240E+02 -0.52272717998E+01 -0.54323189894E+02  0.60267572413E+02  0.00000000000E+00 0.  1.
</event>
<event>
 4    1  0.1725802E+006  0.2616748E+02  0.7546771E-02  0.1456155E+00
         21   -1    0    0  502  501  0.00000000000E+00  0.00000000000E+00  0.79553956991E+01  0.79553956991E+01  0.00000000000E+00 0.  1.
         21   -1    0    0  504  502 -0.00000000000E+00 -0.00000000000E+00 -0.12922721688E+03  0.12922721688E+03  0.00000000000E+00 0. -1.
         21    1    1    2  503  501 -0.17724821202E+02 -0.19250130314E+02 -0.20998183839E+02  0.33550864792E+02  0.00000000000E+00 0.  1.
         21    1    1    2  504  503  0.17724821202E+02  0.19250130314E+02 -0.10027363734E+03  0.10363174779E+03  0.00000000000E+00 0. -1.
</event>
<event>
 4    1  0.1725802E+006  0.2073495E+02  0.7546771E-02  0.1523083E+00
         21   -1    0    0  503  501  0.00000000000E+00  0.00000000000E+00  0.14542560702E+01  0.14542560702E+01  0.00000000000E+00 0.  1.
         21   -1    0    0  504  502 -0.00000000000E+00 -0.00000000000E+00 -0.29678677784E+03  0.29678677784E+03  0.00000000000E+00 0.  1.
         21    1    1    2  503  502  0.19681919931E+02  0.65238193531E+01 -0.15693037252E+03  0.15829428294E+03  0.00000000000E+00 0.  1.
         21    1    1    2  504  501 -0.19681919931E+02 -0.65238193531E+01 -0.13840214924E+03  0.13994675097E+03  0.00000000000E+00 0.  1.
</event>
<event>
 4    1  0.1725802E+006  0.2457567E+02  0.7546771E-02  0.1473607E+00
         21   -1    0    0  504  501  0.00000000000E+00  0.00000000000E+00  0.27030598226E+02  0.27030598226E+02  0.00000000000E+00 0.  1.
         21   -1    0    0  503  502 -0.00000000000E+00 -0.00000000000E+00 -0.57464825702E+02  0.57464825702E+02  0.00000000000E+00 0.  1.
         21    1    1    2  503  501  0.23961702283E+02 -0.54589770831E+01 -0.48245423849E+02  0.54144108909E+02  0.00000000000E+00 0.  1.
         21    1    1    2  504  502 -0.23961702283E+02  0.54589770831E+01  0.17811196374E+02  0.30351315019E+02  0.00000000000E+00 0.  1.
</event>
<event>
 4    1  0.1725802E+006  0.2151477E+02  0.7546771E-02  0.1512041E+00
         21   -1    0    0  503  501  0.00000000000E+00  0.00000000000E+00  0.81128121793E+02  0.81128121793E+02  0.00000000000E+00 0. -1.
         21   -1    0    0  504  502 -0.00000000000E+00 -0.00000000000E+00 -0.11939751468E+02  0.11939751468E+02  0.00000000000E+00 0.  1.
         21    1    1    2  503  502 -0.37455436082E+01 -0.21186226693E+02  0.96932160062E+00  0.21536594039E+02  0.00000000000E+00 0.  1.
         21    1    1    2  504  501  0.37455436082E+01  0.21186226693E+02  0.68219048724E+02  0.71531279223E+02  0.00000000000E+00 0. -1.
</event>
<event>
 4    1  0.1725802E+006  0.2548613E+02  0.7546771E-02  0.1463438E+00
         21   -1    0    0  504  501  0.00000000000E+00  0.00000000000E+00  0.13877216985E+02  0.13877216985E+02  0.00000000000E+00 0. -1.
         21   -1    0    0  503  502 -0.00000000000E+00 -0.00000000000E+00 -0.44537919577E+03  0.44537919577E+03  0.00000000000E+00 0.  1.
         21    1    1    2  503  501  0.11511302392E+02 -0.22738351812E+02  0.14761537075E+01  0.25528841643E+02  0.00000000000E+00 0. -1.
         21    1    1    2  504  502 -0.11511302392E+02  0.22738351812E+02 -0.43297813249E+03  0.43372757111E+03  0.00000000000E+00 0.  1.
</event>
<event>
 4    1  0.1725802E+006  0.2611252E+02  0.7546771E-02  0.1456733E+00
         21   -1    0    0  504  501  0.00000000000E+00  0.00000000000E+00  0.31069927030E+02  0.31069927030E+02  0.00000000000E+00 0.  1.
         21   -1    0    0  503  502 -0.00000000000E+00 -0.00000000000E+00 -0.31871439752E+02  0.31871439752E+02  0.00000000000E+00 0.  1.
         21    1    1    2  503  501 -0.14520688732E+02 -0.21702846241E+02  0.17161401441E+02  0.31247042030E+02  0.00000000000E+00 0.  1.
         21    1    1    2  504  502  0.14520688732E+02  0.21702846241E+02 -0.17962914163E+02  0.31694324752E+02  0.00000000000E+00 0.  1.
</event>
<event>
 4    1  0.1725802E+006  0.2311492E+02  0.7546771E-02  0.1491060E+00
         21   -1    0    0  503  501  0.00000000000E+00  0.00000000000E+00  0.37991783168E+02  0.37991783168E+02  0.00000000000E+00 0.  1.
         21   -1    0    0  501  502 -0.00000000000E+00 -0.00000000000E+00 -0.37831750474E+02  0.37831750474E+02  0.00000000000E+00 0. -1.
         21    1    1    2  503  504 -0.21814594681E+02  0.76435043393E+01  0.30129974478E+02  0.37975190081E+02  0.00000000000E+00 0.  1.
         21    1    1    2  504  502  0.21814594681E+02 -0.76435043393E+01 -0.29969941784E+02  0.37848343560E+02  0.00000000000E+00 0. -1.
</event>
<event>
 4    1  0.1725802E+006  0.2103462E+02  0.7546771E-02  0.1518771E+00
         21   -1    0    0  503  501  0.00000000000E+00  0.00000000000E+00  0.21851595308E+02  0.21851595308E+02  0.00000000000E+00 0.  1.
         21   -1    0    0  504  502 -0.00000000000E+00 -0.00000000000E+00 -0.23626083785E+02  0.23626083785E+02  0.00000000000E+00 0.  1.
         21    1    1    2  503  502 -0.12004202779E+02  0.17272931466E+02 -0.94852163739E+01  0.23074322860E+02  0.00000000000E+00 0.  1.
         21    1    1    2  504  501  0.12004202779E+02 -0.17272931466E+02  0.77107278973E+01  0.22403356233E+02  0.00000000000E+00 0.  1.
</event>
<event>
 4    1  0.1725802E+006  0.3014419E+02  0.7546771E-02  0.1418347E+00
         21   -1    0    0  503  501  0.00000000000E+00  0.00000000000E+00  0.13393707451E+03  0.13393707451E+03  0.00000000000E+00 0. -1.
         21   -1    0    0  504  502 -0.00000000000E+00 -0.00000000000E+00 -0.73062413316E+01  0.73062413316E+01  0.00000000000E+00 0. -1.
         21    1    1    2  503  502 -0.95835384404E+01 -0.28580207471E+02  0.44440202380E+02  0.53699199768E+02  0.00000000000E+00 0. -1.
         21    1    1    2  504  501  0.95835384404E+01  0.28580207471E+02  0.82190630797E+02  0.87544116073E+02  0.00000000000E+00 0. -1.
</event>
<event>
 4    1  0.1725802E+006  0.2855466E+02  0.7546771E-02  0.1432587E+00
         21   -1    0    0  504  501  0.00000000000E+00  0.00000000000E+00  0.73147874742E+02  0.73147874742E+02  0.00000000000E+00 0. -1.
         21   -1    0    0  503  502 -0.00000000000E+00 -0.00000000000E+00 -0.10710529024E+03  0.10710529024E+03  0.00000000000E+00 0.  1.
         21    1    1    2  503  501  0.12124406999E+02  0.25852806893E+02 -0.10228656181E+03  0.10619750277E+03  0.00000000000E+00 0.  1.
         21    1    1    2  504  502 -0.12124406999E+02 -0.25852806893E+02  0.68329146311E+02  0.74055662206E+02  0.00000000000E+00 0. -1.
</event>
<event>
 4    1  0.1725802E+006  0.3555270E+02  0.7546771E-02  0.1376719E+00
         21   -1    0    0  503  501  0.00000000000E+00  0.00000000000E+00  0.14280726776E+02  0.14280726776E+02  0.00000000000E+00 0.  1.
         21   -1    0    0  501  502 -0.00000000000E+00 -0.00000000000E+00 -0.90638848230E+02  0.90638848230E+02  0.00000000000E+00 0.  1.
         21    1    1    2  503  504  0.24240716602E+02 -0.26007351860E+02 -0.30140326946E+02  0.46609376745E+02  0.00000000000E+00 0.  1.
         21    1    1    2  504  502 -0.24240716602E+02  0.26007351860E+02 -0.46217794508E+02  0.58310198261E+02  0.00000000000E+00 0.  1.
</event>
<event>
 4    1  0.1725802E+006  0.2147821E+02  0.7546771E-02  0.1512546E+00
         21   -1    0    0  504  501  0.00000000000E+00  0.00000000000E+00  0.63044490909E+03  0.63044490909E+03  0.00000000000E+00 0. -1.
         21   -1    0    0  501  502 -0.00000000000E+00 -0.00000000000E+00 -0.12612847045E+02  0.12612847045E+02  0.00000000000E+00 0. -1.
         21    1    1    2  503  502 -0.19181751257E+02  0.96630222980E+01 -0.31468487801E+01  0.21707515713E+02  0.00000000000E+00 0. -1.
         21    1    1    2  504  503  0.19181751257E+02 -0.96630222980E+01  0.62097891082E+03  0.62135024042E+03  0.00000000000E+00 0. -1.
</event>
<event>
 4    1  0.1725802E+006  0.2859490E+02  0.7546771E-02  0.1432213E+00
         21   -1    0    0  503  501  0.00000000000E+00  0.00000000000E+00  0.19055434755E+03  0.19055434755E+03  0.00000000000E+00 0. -1.
         21   -1    0    0  504  502 -0.00000000000E+00 -0.00000000000E+00 -0.54640353147E+01  0.54640353147E+01  0.00000000000E+00 0. -1.
         21    1    1    2  503  502 -0.32411948120E+01  0.28410616427E+02  0.13795665430E+03  0.14088898798E+03  0.00000000000E+00 0. -1.
         21    1    1    2  504  501  0.32411948120E+01 -0.28410616427E+02  0.47133657938E+02  0.55129394884E+02  0.00000000000E+00 0. -1.
</event>
<event>
 4    1  0.1725802E+006  0.5836313E+02  0.7546771E-02  0.1265498E+00
         21   -1    0    0  504  501  0.00000000000E+00  0.00000000000E+00  0.10304255164E+02  0.10304255164E+02  0.00000000000E+00 0. -1.
         21   -1    0    0  503  502 -0.00000000000E+00 -0.00000000000E+00 -0.69142072900E+03  0.69142072900E+03  0.00000000000E+00 0. -1.
         21    1    1    2  503  501  0.15813363999E+02  0.56179997788E+02 -0.59403075683E+03  0.59689094037E+03  0.00000000000E+00 0. -1.
         21    1    1    2  504  502 -0.15813363999E+02 -0.56179997788E+02 -0.87085717009E+02  0.10483404380E+03  0.00000000000E+00 0. -1.
</event>
<event>
 4    1  0.1725802E+006  0.2043563E+02  0.7546771E-02  0.1527477E+00
         21   -1    0    0  502  501  0.00000000000E+00  0.00000000000E+00  0.11007838384E+02  0.11007838384E+02  0.00000000000E+00 0. -1.
         21   -1    0    0  503  502 -0.00000000000E+00 -0.00000000000E+00 -0.10525151563E+03  0.10525151563E+03  0.00000000000E+00 0.  1.
         21    1    1    2  503  504 -0.20378676735E+02  0.15246996374E+01 -0.93609203110E+02  0.95813872071E+02  0.00000000000E+00 0.  1.
         21    1    1    2  504  501  0.20378676735E+02 -0.15246996374E+01 -0.63447413642E+00  0.20445481943E+02  0.00000000000E+00 0. -1.
</event>
<event>
 4    1  0.1725802E+006  0.3464975E+02  0.7546771E-02  0.1383042E+00
         21   -1    0    0  503  501  0.00000000000E+00  0.00000000000E+00  0.26501758555E+03  0.26501758555E+03  0.00000000000E+00 0. -1.
         21   -1    0    0  501  502 -0.00000000000E+00 -0.00000000000E+00 -0.15686331782E+02  0.15686331782E+02  0.00000000000E+00 0.  1.
         21    1    1    2  503  504 -0.34095101619E+02  0.61748703689E+01  0.24302780775E+03  0.24548547883E+03  0.00000000000E+00 0. -1.
         21    1    1    2  504  502  0.34095101619E+02 -0.61748703689E+01  0.63034460168E+01  0.35218438497E+02  0.00000000000E+00 0.  1.
</event>
<event>
 4    1  0.1725802E+006  0.2071319E+02  0.7546771E-02  0.1523399E+00
         21   -1    0    0  503  501  0.00000000000E+00  0.00000000000E+00  0.89820362622E+02  0.89820362622E+02  0.00000000000E+00 0. -1.
         21   -1    0    0  504  502 -0.00000000000E+00 -0.00000000000E+00 -0.24411732237E+03  0.24411732237E+03  0.00000000000E+00 0.  1.
         21    1    1    2  503  502 -0.20454210363E+02 -0.32652224859E+01 -0.24247572601E+03  0.24335881760E+03  0.00000000000E+00 0.  1.
         21    1    1    2  504  501  0.20454210363E+02  0.32652224859E+01  0.88178766260E+02  0.90578867395E+02  0.00000000000E+00 0. -1.
</event>
<event>
 4    1  0.1725802E+006  0.2599315E+02  0.7546771E-02  0.1457993E+00
         21   -1    0    0  503  501  0.00000000000E+00  0.00000000000E+00  0.42094160971E+02  0.42094160971E+02  0.00000000000E+00 0.  1.
         21   -1    0    0  504  502 -0.00000000000E+00 -0.00000000000E+00 -0.19877085850E+02  0.19877085850E+02  0.00000000000E+00 0.  1.
         21    1    1    2  503  502 -0.25402794686E+02  0.55083439487E+01 -0.24863026730E+01  0.26111789137E+02  0.00000000000E+00 0.  1.
         21    1    1    2  504  501  0.25402794686E+02 -0.55083439487E+01  0.24703377795E+02  0.35859457684E+02  0.00000000000E+00 0.  1.
</event>
<event>
 4    1  0.1725802E+006  0.3001295E+02  0.7546771E-02  0.1419484E+00
         21   -1    0    0  504  501  0.00000000000E+00  0.00000000000E+00  0.10767201352E+03  0.10767201352E+03  0.00000000000E+00 0.  1.
         21   -1    0    0  503  502 -0.00000000000E+00 -0.00000000000E+00 -0.92178935350E+01  0.92178935350E+01  0.00000000000E+00 0.  1.
         21    1    1    2  503  501  0.41263722195E+01  0.29727937069E+02  0.66995124006E+02  0.73410652024E+02  0.00000000000E+00 0.  1.
         21    1    1    2  504  502 -0.41263722195E+01 -0.29727937069E+02  0.31458995981E+02  0.43479255032E+02  0.00000000000E+00 0.  1.
</event>
<event>
 4    1  0.1725802E+006  0.2622305E+02  0.7546771E-02  0.1455573E+00
         21   -1    0    0  503  501  0.00000000000E+00  0.00000000000E+00  0.20205588247E+03  0.20205588247E+03  0.00000000000E+00 0.  1.
         21   -1    0    0  501  502 -0.00000000000E+00 -0.00000000000E+00 -0.11431288829E+02  0.11431288829E+02  0.00000000000E+00 0.  1.
         21    1    1    2  503  504 -0.26202246562E+02 -0.10443444419E+01  0.18476607600E+03  0.18661766053E+03  0.00000000000E+00 0.  1.
         21    1    1    2  504  502  0.26202246562E+02  0.10443444419E+01  0.58585176434E+01  0.26869510773E+02  0.00000000000E+00 0.  1.
</event>
<event>
 4    1  0.1725802E+006  0.2396701E+02  0.7546771E-02  0.1480700E+00
         21   -1    0    0  503  501  0.00000000000E+00  0.00000000000E+00  0.54339091615E+01  0.54339091615E+01  0.00000000000E+00 0. -1.
         21   -1    0    0  504  502 -0.00000000000E+00 -0.00000000000E+00 -0.31323495526E+03  0.31323495526E+03  0.00000000000E+00 0. -1.
         21    1    1    2  503  502  0.23197745039E+02  0.60234627660E+01 -0.24209506318E+02  0.34066371611E+02  0.00000000000E+00 0. -1.
         21    1    1    2  504  501 -0.23197745039E+02 -0.60234627660E+01 -0.28359153978E+03  0.28460249281E+03  0.00000000000E+00 0. -1.
</event>
<event>
 4    1  0.1725802E+006  0.2254096E+02  0.7546771E-02  0.1498344E+00
         21   -1    0    0  502  501  0.00000000000E+00  0.00000000000E+00  0.41594534927E+02  0.41594534927E+02  0.00000000000E+00 0.  1.
         21   -1    0    0  503  502 -0.00000000000E+00 -0.00000000000E+00 -0.10000722168E+03  0.10000722168E+03  0.00000000000E+00 0.  1.
         21    1    1    2  503  504  0.32386272947E+01 -0.22307087895E+02 -0.95542443414E+02  0.98165438779E+02  0.00000000000E+00 0.  1.
         21    1    1    2  504  501 -0.32386272947E+01  0.22307087895E+02  0.37129756659E+02  0.43436317830E+02  0.00000000000E+00 0.  1.
</event>
<event>
 4    1  0.1725802E+006  0.2322573E+02  0.7546771E-02  0.1489683E+00
         21   -1    0    0  503  501  0.00000000000E+00  0.00000000000E+00  0.48038653067E+01  0.48038653067E+01  0.00000000000E+00 0. -1.
         21   -1    0    0  501  502 -0.00000000000E+00 -0.00000000000E+00 -0.18557856748E+03  0.18557856748E+03  0.00000000000E+00 0. -1.
         21    1    1    2  503  504 -0.32730021859E+01 -0.22993958877E+02 -0.30567442229E+02  0.38390144732E+02  0.00000000000E+00 0. -1.
         21    1    1    2  504  502  0.32730021859E+01  0.22993958877E+02 -0.15020725994E+03  0.15199228805E+03  0.00000000000E+00 0. -1.
</event>
<event>
 4    1  0.1725802E+006  0.4602199E+02  0.7546771E-02  0.1316407E+00
         21   -1    0    0  504  501  0.00000000000E+00  0.00000000000E+00  0.43883590300E+03  0.43883590300E+03  0.00000000000E+00 0.  1.
         21   -1    0    0  503  502 -0.00000000000E+00 -0.00000000000E+00 -0.11217035717E+02  0.11217035717E+02  0.00000000000E+00 0. -1.
         21    1    1    2  503  501  0.45176990933E+02 -0.87785690863E+01  0.38365904547E+03  0.38640948093E+03  0.00000000000E+00 0.  1.
         21    1    1    2  504  502 -0.45176990933E+02  0.87785690863E+01  0.43959821819E+02  0.63643457789E+02  0.00000000000E+00 0. -1.
</event>
<event>
 4    1  0.1725802E+006  0.2125491E+02  0.7546771E-02  0.1515656E+00
         21   -1    0    0  503  501  0.00000000000E+00  0.00000000000E+00  0.67918946763E+03  0.67918946763E+03  0.00000000000E+00 0. -1.
         21   -1    0    0  504  502 -0.00000000000E+00 -0.00000000000E+00 -0.93870424928E+00  0.93870424928E+00  0.00000000000E+00 0. -1.
         21    1    1    2  503  502 -0.93743935147E+01 -0.19075953336E+02  0.52269817690E+03  0.52313015148E+03  0.00000000000E+00 0. -1.
         21    1    1    2  504  501  0.93743935147E+01  0.19075953336E+02  0.15555258647E+03  0.15699802040E+03  0.00000000000E+00 0. -1.
</event>
<event>
 4    1  0.1725802E+006  0.2300380E+02  0.7546771E-02  0.1492450E+00
         21   -1    0    0  502  501  0.00000000000E+00  0.00000000000E+00  0.48372295932E+01  0.48372295932E+01  0.00000000000E+00 0.  1.
         21   -1    0    0  503  502 -0.00000000000E+00 -0.00000000000E+00 -0.46079030461E+03  0.46079030461E+03  0.00000000000E+00 0. -1.
         21    1    1    2  503  504 -0.19362671435E+02 -0.12420215354E+02 -0.43128440932E+03  0.43189746065E+03  0.00000000000E+00 0. -1.
         21    1    1    2  504  501  0.19362671435E+02  0.12420215354E+02 -0.24668665697E+02  0.33730073552E+02  0.00000000000E+00 0.  1.
</event>
<event>
 4    1  0.1725802E+006  0.2036814E+02  0.7546771E-02  0.1528480E+00
         21   -1    0    0  503  501  0.00000000000E+00  0.00000000000E+00  0.43221358175E+02  0.43221358175E+02  0.00000000000E+00 0. -1.
         21   -1    0    0  504  502 -0.00000000000E+00 -0.00000000000E+00 -0.34990471846E+02  0.34990471846E+02  0.00000000000E+00 0. -1.
         21    1    1    2  503  502  0.19405574892E+02 -0.61874709035E+01  0.37428584179E+02  0.42611736021E+02  0.00000000000E+00 0. -1.
         21    1    1    2  504  501 -0.19405574892E+02  0.61874709035E+01 -0.29197697850E+02  0.35600094000E+02  0.00000000000E+00 0. -1.
</event>
<event>
 4    1  0.1725802E+006  0.3426659E+02  0.7546771E-02  0.1385794E+00
         21   -1    0    0  504  501  0.00000000000E+00  0.00000000000E+00  0.53815431364E+02  0.53815431364E+02  0.00000000000E+00 0. -1.
         21   -1    0    0  503  502 -0.00000000000E+00 -0.00000000000E+00 -0.21874200130E+02  0.21874200130E+02  0.00000000000E+00 0.  1.
         21    1    1    2  503  501  0.33515308714E+02 -0.71360744774E+01  0.14069677677E+02  0.37042614744E+02  0.00000000000E+00 0.  1.
         21    1    1    2  504  502 -0.33515308714E+02  0.71360744774E+01  0.17871553556E+02  0.38647016750E+02  0.00000000000E+00 0. -1.
</event>
<event>
 4    1  0.1725802E+006  0.2363861E+02  0.7546771E-02  0.1484631E+00
         21   -1    0    0  504  501  0.00000000000E+00  0.00000000000E+00  0.83177012832E+01  0.83177012832E+01  0.00000000000E+00 0. -1.
         21   -1    0    0  501  502 -0.00000000000E+00 -0.00000000000E+00 -0.10944694848E+03  0.10944694848E+03  0.00000000000E+00 0. -1.
         21    1    1    2  503  502 -0.11003237062E+02  0.20921585471E+02 -0.87156365026E+02  0.90305126815E+02  0.00000000000E+00 0. -1.
         21    1    1    2  504  503  0.11003237062E+02 -0.20921585471E+02 -0.13972882172E+02  0.27459522950E+02  0.00000000000E+00 0. -1.
</event>
<event>
 4    1  0.1725802E+006  0.2150710E+02  0.7546771E-02  0.1512147E+00
         21   -1    0    0  503  501  0.00000000000E+00  0.00000000000E+00  0.21214161272E+01  0.21214161272E+01  0.00000000000E+00 0. -1.
         21   -1    0    0  504  502 -0.00000000000E+00 -0.00000000000E+00 -0.23829497927E+03  0.23829497927E+03  0.00000000000E+00 0. -1.
         21    1    1    2  503  502 -0.69808266038E+00  0.21495763866E+02 -0.15313245413E+03  0.15463538952E+03  0.00000000000E+00 0. -1.
         21    1    1    2  504  501  0.69808266038E+00 -0.21495763866E+02 -0.83041109013E+02  0.85781005879E+02  0.00000000000E+00 0. -1.
</event>
<event>
 4    1  0.1725802E+006  0.2685198E+02  0.7546771E-02  0.1449101E+00
         21   -1    0    0  504  501  0.00000000000E+00  0.00000000000E+00  0.10050431941E+03  0.10050431941E+03  0.00000000000E+00 0.  1.
         21   -1    0    0  503  502 -0.00000000000E+00 -0.00000000000E+00 -0.93216661765E+01  0.93216661765E+01  0.00000000000E+00 0. -1.
         21    1    1    2  503  501  0.21424372338E+02  0.16187187111E+02  0.19234028109E+02  0.33029934816E+02  0.00000000000E+00 0. -1.
         21    1    1    2  504  502 -0.21424372338E+02 -0.16187187111E+02  0.71948625123E+02  0.76796050769E+02  0.00000000000E+00 0.  1.
</event>
<event>
 4    1  0.1725802E+006  0.2431595E+02  0.7546771E-02  0.1476603E+00
         21   -1    0    0  504  501  0.00000000000E+00  0.00000000000E+00  0.20807978897E+03  0.20807978897E+03  0.00000000000E+00 0. -1.
         21   -1    0    0  501  502 -0.00000000000E+00 -0.00000000000E+00 -0.21209937885E+02  0.21209937885E+02  0.00000000000E+00 0.  1.
         21    1    1    2  503  502  0.23425784951E+02  0.65190396170E+01 -0.13254319599E+02  0.27693722504E+02  0.00000000000E+00 0.  1.
         21    1    1    2  504  503 -0.23425784951E+02 -0.65190396170E+01  0.20012417069E+03  0.20159600435E+03  0.00000000000E+00 0. -1.
</event>
<event>
 4    1  0.1725802E+006  0.3468997E+02  0.7546771E-02  0.1382756E+00
         21   -1    0    0  502  501  0.00000000000E+00  0.00000000000E+00  0.58384528064E+03  0.58384528064E+03  0.00000000000E+00 0.  1.
         21   -1    0    0  504  502 -0.00000000000E+00 -0.00000000000E+00 -0.66554260147E+01  0.66554260147E+01  0.00000000000E+00 0. -1.
         21    1    1    2  503  501 -0.34644389101E+02 -0.17777652794E+01  0.53390248048E+03  0.53502827291E+03  0.00000000000E+00 0.  1.
         21    1    1    2  504  503  0.34644389101E+02  0.17777652794E+01  0.43287374142E+02  0.55472433746E+02  0.00000000000E+00 0. -1.
</event>
<event>
 4    1  0.1725802E+006  0.4296234E+02  0.7546771E-02  0.1331949E+00
         21   -1    0    0  503  501  0.00000000000E+00  0.00000000000E+00  0.32200695452E+03  0.32200695452E+03  0.00000000000E+00 0. -1.
         21   -1    0    0  504  502 -0.00000000000E+00 -0.00000000000E+00 -0.84562386828E+01  0.84562386828E+01  0.00000000000E+00 0. -1.
         21    1    1    2  503  502  0.13924862540E+02 -0.40643089467E+02  0.25055799551E+03  0.25421461726E+03  0.00000000000E+00 0. -1.
         21    1    1    2  504  501 -0.13924862540E+02  0.40643089467E+02  0.62992720334E+02  0.76248575942E+02  0.00000000000E+00 0. -1.
</event>
<event>
 4    1  0.1725802E+006  0.5227946E+02  0.7546771E-02  0.1288581E+00
         21   -1    0    0  503  501  0.00000000000E+00  0.00000000000E+00  0.31229523532E+03  0.31229523532E+03  0.00000000000E+00 0.  1.
         21   -1    0    0  504  502 -0.00000000000E+00 -0.00000000000E+00 -0.46897907312E+02  0.46897907312E+02  0.00000000000E+00 0. -1.
         21    1    1    2  503  502  0.27986254972E+02  0.44157807467E+02 -0.29275772338E+02  0.59918388443E+02  0.00000000000E+00 0. -1.
         21    1    1    2  504  501 -0.27986254972E+02 -0.44157807467E+02  0.29467310034E+03  0.29927475419E+03  0.00000000000E+00 0.  1.
</event>
<event>
 4    1  0.1725802E+006  0.2656398E+02  0.7546771E-02  0.1452038E+00
         21   -1    0    0  504  501  0.00000000000E+00  0.00000000000E+00  0.21692457359E+03  0.21692457359E+03  0.00000000000E+00 0.  1.
         21   -1    0    0  501  502 -0.00000000000E+00 -0.00000000000E+00 -0.56180516719E+01  0.56180516719E+01  0.00000000000E+00 0.  1.
         21    1    1    2  503  502 -0.26446396730E+02 -0.24966175252E+01  0.33456923472E+02  0.42720144280E+02  0.00000000000E+00 0.  1.
         21    1    1    2  504  503  0.26446396730E+02  0.24966175252E+01  0.17784959844E+03  0.17982248098E+03  0.00000000000E+00 0.  1.
</event>
<event>
 4    1  0.1725802E+006  0.2366809E+02  0.7546771E-02  0.1484275E+00
         21   -1    0    0  504  501  0.00000000000E+00  0.00000000000E+00  0.16782586217E+03  0.16782586217E+03  0.00000000000E+00 0. -1.
         21   -1    0    0  501  502 -0.00000000000E+00 -0.00000000000E+00 -0.78333498590E+01  0.78333498590E+01  0.00000000000E+00 0.  1.
         21    1    1    2  503  502 -0.22422602134E+02 -0.75766331336E+01  0.13460375837E+02  0.27227930031E+02  0.00000000000E+00 0.  1.
         21    1    1    2  504  503  0.22422602134E+02  0.75766331336E+01  0.14653213647E+03  0.14843128200E+03  0.00000000000E+00 0. -1.
</event>
<event>
 4    1  0.1725802E+006  0.3762580E+02  0.7546771E-02  0.1362990E+00
         21   -1    0    0  502  501  0.00000000000E+00  0.00000000000E+00  0.10439651559E+04  0.10439651559E+04  0.00000000000E+00 0.  1.
         21   -1    0    0  504  502 -0.00000000000E+00 -0.00000000000E+00 -0.98829510996E+01  0.98829510996E+01  0.00000000000E+00 0. -1.
         21    1    1    2  503  501  0.17572517132E+02  0.33270214072E+02  0.10064811975E+04  0.10071842440E+04  0.00000000000E+00 0.  1.
         21    1    1    2  504  503 -0.17572517132E+02 -0.33270214072E+02  0.27601007289E+02  0.46663862957E+02  0.00000000000E+00 0. -1.
</event>
<event>
 4    1  0.1725802E+006  0.2058261E+02  0.7546771E-02  0.1525308E+00
         21   -1    0    0  504  501  0.00000000000E+00  0.00000000000E+00  0.15651569575E+03  0.15651569575E+03  0.00000000000E+00 0.  1.
         21   -1    0    0  503  502 -0.00000000000E+00 -0.00000000000E+00 -0.33127631415E+02  0.33127631415E+02  0.00000000000E+00 0.  1.
         21    1    1    2  503  501 -0.20477515994E+02  0.20773171521E+01 -0.29171358916E+02  0.35701709887E+02  0.00000000000E+00 0.  1.
         21    1    1    2  504  502  0.20477515994E+02 -0.20773171521E+01  0.15255942325E+03  0.15394161728E+03  0.00000000000E+00 0.  1.
</event>
<event>
 4    1  0.1725802E+006  0.2011949E+02  0.7546771E-02  0.1532217E+00
         21   -1    0    0  504  501  0.00000000000E+00  0.00000000000E+00  0.49856252148E+01  0.49856252148E+01  0.00000000000E+00 0. -1.
         21   -1    0    0  503  502 -0.00000000000E+00 -0.00000000000E+00 -0.13872631082E+03  0.13872631082E+03  0.00000000000E+00 0. -1.
         21    1    1    2  503  501  0.19180093161E+02  0.60760014874E+01 -0.11314531999E+03  0.11492022104E+03  0.00000000000E+00 0. -1.
         21    1    1    2  504  502 -0.19180093161E+02 -0.60760014874E+01 -0.20595365621E+02  0.28791715003E+02  0.00000000000E+00 0. -1.
</event>
<event>
 4    1  0.1725802E+006  0.2162757E+02  0.7546771E-02  0.1510490E+00
         21   -1    0    0  504  501  0.00000000000E+00  0.00000000000E+00  0.25657975222E+03  0.25657975222E+03  0.00000000000E+00 0. -1.
         21   -1    0    0  501  502 -0.00000000000E+00 -0.00000000000E+00 -0.36673940404E+02  0.36673940404E+02  0.00000000000E+00 0. -1.
         21    1    1    2  503  502  0.21605573274E+02  0.97512541747E+00 -0.32983149392E+02  0.39441599991E+02  0.00000000000E+00 0. -1.
         21    1    1    2  504  503 -0.21605573274E+02 -0.97512541747E+00  0.25288896121E+03  0.25381209263E+03  0.00000000000E+00 0. -1.
</event>
<event>
 4    1  0.1725802E+006  0.2117046E+02  0.7546771E-02  0.1516845E+00
         21   -1    0    0  504  501  0.00000000000E+00  0.00000000000E+00  0.75463841494E+02  0.75463841494E+02  0.00000000000E+00 0. -1.
         21   -1    0    0  501  502 -0.00000000000E+00 -0.00000000000E+00 -0.12671052944E+02  0.12671052944E+02  0.00000000000E+00 0. -1.
         21    1    1    2  503  502  0.16891886851E+02 -0.12761364586E+02 -0.72405882589E+00  0.21182835709E+02  0.00000000000E+00 0. -1.
         21    1    1    2  504  503 -0.16891886851E+02  0.12761364586E+02  0.63516847376E+02  0.66952058729E+02  0.00000000000E+00 0. -1.
</event>
<event>
 4    1  0.1725802E+006  0.2205778E+02  0.7546771E-02  0.1504681E+00
         21   -1    0    0  504  501  0.00000000000E+00  0.00000000000E+00  0.11594464488E+02  0.11594464488E+02  0.00000000000E+00 0. -1.
         21   -1    0    0  503  502 -0.00000000000E+00 -0.00000000000E+00 -0.11694436614E+03  0.11694436614E+03  0.00000000000E+00 0. -1.
         21    1    1    2  503  501  0.21434324678E+02  0.52072304614E+01 -0.12126000969E+01  0.22091082420E+02  0.00000000000E+00 0. -1.
         21    1    1    2  504  502 -0.21434324678E+02 -0.52072304614E+01 -0.10413730155E+03  0.10644774820E+03  0.00000000000E+00 0. -1.
</event>
<event>
 4    1  0.1725802E+006  0.8560455E+02  0.7546771E-02  0.1191402E+00
         21   -1    0    0  504  501  0.00000000000E+00  0.00000000000E+00  0.13414078813E+03  0.13414078813E+03  0.00000000000E+00 0. -1.
         21   -1    0    0  503  502 -0.00000000000E+00 -0.00000000000E+00 -0.56703978016E+02  0.56703978016E+02  0.00000000000E+00 0. -1.
         21    1    1    2  503  501 -0.37660057668E+02 -0.76875608776E+02  0.20470047533E+02  0.88017964156E+02  0.00000000000E+00 0. -1.
         21    1    1    2  504  502  0.37660057668E+02  0.76875608776E+02  0.56966762580E+02  0.10282680199E+03  0.00000000000E+00 0. -1.
</event>
<event>
 4    1  0.1725802E+006  0.2358154E+02  0.7546771E-02  0.1485322E+00
         21   -1    0    0  504  501  0.00000000000E+00  0.00000000000E+00  0.18208521974E+04  0.18208521974E+04  0.00000000000E+00 0.  1.
         21   -1    0    0  503  502 -0.00000000000E+00 -0.00000000000E+00 -0.31404650774E+00  0.31404650774E+00  0.00000000000E+00 0.  1.
         21    1    1    2  503  501 -0.20472968986E+02  0.11702417777E+02  0.10613578585E+04  0.10616197968E+04  0.00000000000E+00 0.  1.
         21    1    1    2  504  502  0.20472968986E+02 -0.11702417777E+02  0.75918029238E+03  0.75954644715E+03  0.00000000000E+00 0.  1.
</event>
<event>
 4    1  0.1725802E+006  0.2358540E+02  0.7546771E-02  0.1485275E+00
         21   -1    0    0  502  501  0.00000000000E+00  0.00000000000E+00  0.16289458623E+01  0.16289458623E+01  0.00000000000E+00 0.  1.
         21   -1    0    0  503  502 -0.00000000000E+00 -0.00000000000E+00 -0.59179816375E+03  0.59179816375E+03  0.00000000000E+00 0. -1.
         21    1    1    2  503  504 -0.12783800495E+02 -0.19820336822E+02 -0.48805323776E+03  0.48862279337E+03  0.00000000000E+00 0. -1.
         21    1    1    2  504  501  0.12783800495E+02  0.19820336822E+02 -0.10211598012E+03  0.10480431624E+03  0.00000000000E+00 0.  1.
</event>
<event>
 4    1  0.1725802E+006  0.2810123E+02  0.7546771E-02  0.1436849E+00
         21   -1    0    0  503  501  0.00000000000E+00  0.00000000000E+00  0.82054573934E+01  0.82054573934E+01  0.00000000000E+00 0. -1.
         21   -1    0    0  504  502 -0.00000000000E+00 -0.00000000000E+00 -0.35645851381E+03  0.35645851381E+03  0.00000000000E+00 0. -1.
         21    1    1    2  503  502  0.15746894283E+02 -0.23274755800E+02 -0.18340353296E+02  0.33556631180E+02  0.00000000000E+00 0. -1.
         21    1    1    2  504  501 -0.15746894283E+02  0.23274755800E+02 -0.32991270312E+03  0.33110734002E+03  0.00000000000E+00 0. -1.
</event>
<event>
 4    1  0.1725802E+006  0.5990047E+02  0.7546771E-02  0.1260171E+00
         21   -1    0    0  504  501  0.00000000000E+00  0.00000000000E+00  0.18705549259E+03  0.18705549259E+03  0.00000000000E+00 0. -1.
         21   -1    0    0  503  502 -0.00000000000E+00 -0.00000000000E+00 -0.57808278767E+02  0.57808278767E+02  0.00000000000E+00 0.  1.
         21    1    1    2  503  501  0.41294510593E+02  0.43391589531E+02 -0.35455151897E+02  0.69606999958E+02  0.00000000000E+00 0.  1.
         21    1    1    2  504  502 -0.41294510593E+02 -0.43391589531E+02  0.16470236572E+03  0.17525677140E+03  0.00000000000E+00 0. -1.
</event>
<event>
 4    1  0.1725802E+006  0.3370247E+02  0.7546771E-02  0.1389922E+00
         21   -1    0    0  503  501  0.00000000000E+00  0.00000000000E+00  0.12651945303E+02  0.12651945303E+02  0.00000000000E+00 0.  1.
         21   -1    0    0  504  502 -0.00000000000E+00 -0.00000000000E+00 -0.15720576721E+03  0.15720576721E+03  0.00000000000E+00 0. -1.
         21    1    1    2  503  502  0.27390722112E+02  0.19636822595E+02 -0.16655379286E+02  0.37593325453E+02  0.00000000000E+00 0.  1.
         21    1    1    2  504  501 -0.27390722112E+02 -0.19636822595E+02 -0.12789844263E+03  0.13226438706E+03  0.00000000000E+00 0. -1.
</event>
<event>
 4    1  0.1725802E+006  0.2333837E+02  0.7546771E-02  0.1488292E+00
         21   -1    0    0  503  501  0.00000000000E+00  0.00000000000E+00  0.66085984683E+03  0.66085984683E+03  0.00000000000E+00 0.  1.
         21   -1    0    0  504  502 -0.00000000000E+00 -0.00000000000E+00 -0.97438601663E+00  0.97438601663E+00  0.00000000000E+00 0.  1.
         21    1    1    2  503  502 -0.23338169828E+02 -0.96014283240E-01  0.20002414152E+03  0.20138107305E+03  0.00000000000E+00 0.  1.
         21    1    1    2  504  501  0.23338169828E+02  0.96014283240E-01  0.45986131929E+03  0.46045315980E+03  0.00000000000E+00 0.  1.
</event>
<event>
 4    1  0.1725802E+006  0.2380633E+02  0.7546771E-02  0.1482614E+00
         21   -1    0    0  504  501  0.00000000000E+00  0.00000000000E+00  0.31500219849E+02  0.31500219849E+02  0.00000000000E+00 0.  1.
         21   -1    0    0  503  502 -0.00000000000E+00 -0.00000000000E+00 -0.28682063206E+02  0.28682063206E+02  0.00000000000E+00 0.  1.
         21    1    1    2  503  501  0.15934708396E+02 -0.17686904020E+02  0.19779974559E+02  0.30951395752E+02  0.00000000000E+00 0.  1.
         21    1    1    2  504  502 -0.15934708396E+02  0.17686904020E+02 -0.16961817916E+02  0.29230887302E+02  0.00000000000E+00 0.  1.
</event>
<event>
 4    1  0.1725802E+006  0.3171884E+02  0.7546771E-02  0.1405225E+00
         21   -1    0    0  503  501  0.00000000000E+00  0.00000000000E+00  0.23282210187E+02  0.23282210187E+02  0.00000000000E+00 0.  1.
         21   -1    0    0  504  502 -0.00000000000E+00 -0.00000000000E+00 -0.43229290431E+02  0.43229290431E+02  0.00000000000E+00 0.  1.
         21    1    1    2  503  502 -0.25121104824E+02 -0.19365307818E+02 -0.93202752231E+01  0.33059833404E+02  0.00000000000E+00 0.  1.
         21    1    1    2  504  501  0.25121104824E+02  0.19365307818E+02 -0.10626805021E+02  0.33451667214E+02  0.00000000000E+00 0.  1.
</event>
<event>
 4    1  0.1725802E+006  0.7030062E+02  0.7546771E-02  0.1228354E+00
         21   -1    0    0  504  501  0.00000000000E+00  0.00000000000E+00  0.98195712228E+02  0.98195712228E+02  0.00000000000E+00 0.  1.
         21   -1    0    0  501  502 -0.00000000000E+00 -0.00000000000E+00 -0.54097935685E+02  0.54097935685E+02  0.00000000000E+00 0.  1.
         21    1    1    2  503  502 -0.31091480039E+02  0.63051539497E+02  0.19523584866E+01  0.70327721900E+02  0.00000000000E+00 0.  1.
         21    1    1    2  504  503  0.31091480039E+02 -0.63051539497E+02  0.42145418057E+02  0.81965926013E+02  0.00000000000E+00 0.  1.
</event>
<event>
 4    1  0.1725802E+006  0.2035206E+02  0.7546771E-02  0.1528720E+00
         21   -1    0    0  502  501  0.00000000000E+00  0.00000000000E+00  0.11811946545E+04  0.11811946545E+04  0.00000000000E+00 0.  1.
         21   -1    0    0  504  502 -0.00000000000E+00 -0.00000000000E+00 -0.38624434019E+03  0.38624434019E+03  0.00000000000E+00 0. -1.
         21    1    1    2  503  501 -0.13195263189E+02 -0.15494885136E+02  0.11808388081E+04  0.11810141816E+04  0.00000000000E+00 0.  1.
         21    1    1    2  504  503  0.13195263189E+02  0.15494885136E+02 -0.38588849385E+03  0.38642481302E+03  0.00000000000E+00 0. -1.
</event>
<event>
 4    1  0.1725802E+006  0.2166232E+02  0.7546771E-02  0.1510015E+00
         21   -1    0    0  502  501  0.00000000000E+00  0.00000000000E+00  0.17022766420E+03  0.17022766420E+03  0.00000000000E+00 0. -1.
         21   -1    0    0  503  502 -0.00000000000E+00 -0.00000000000E+00 -0.44088960501E+01  0.44088960501E+01  0.00000000000E+00 0.  1.
         21    1    1    2  503  504 -0.19757609366E+02 -0.88821691560E+01  0.29455511435E+02  0.36563413554E+02  0.00000000000E+00 0.  1.
         21    1    1    2  504  501  0.19757609366E+02  0.88821691560E+01  0.13636325672E+03  0.13807314670E+03  0.00000000000E+00 0. -1.
</event>
<event>
 4    1  0.1725802E+006  0.2443331E+02  0.7546771E-02  0.1475244E+00
         21   -1    0    0  502  501  0.00000000000E+00  0.00000000000E+00  0.42071139216E+03  0.42071139216E+03  0.00000000000E+00 0.  1.
         21   -1    0    0  504  502 -0.00000000000E+00 -0.00000000000E+00 -0.19384049111E+01  0.19384049111E+01  0.00000000000E+00 0.  1.
         21    1    1    2  503  501 -0.40148744414E+01  0.24101186744E+02  0.31877821876E+03  0.31971321396E+03  0.00000000000E+00 0.  1.
         21    1    1    2  504  503  0.40148744414E+01 -0.24101186744E+02  0.99994768489E+02  0.10293658312E+03  0.00000000000E+00 0.  1.
</event>
<event>
 4    1  0.1725802E+006  0.3731179E+02  0.7546771E-02  0.1365002E+00
         21   -1    0    0  503  501  0.00000000000E+00  0.00000000000E+00  0.76783283041E+02  0.76783283041E+02  0.00000000000E+00 0. -1.
         21   -1    0    0  501  502 -0.00000000000E+00 -0.00000000000E+00 -0.18305578106E+02  0.18305578106E+02  0.00000000000E+00 0. -1.
         21    1    1    2  503  504  0.19886138247E+02 -0.31570736599E+02  0.33879783443E+02  0.50398508211E+02  0.00000000000E+00 0. -1.
         21    1    1    2  504  502 -0.19886138247E+02  0.31570736599E+02  0.24597921492E+02  0.44690352936E+02  0.00000000000E+00 0. -1.
</event>
<event>
 4    1  0.1725802E+006  0.3264465E+02  0.7546771E-02  0.1397924E+00
         21   -1    0    0  504  501  0.00000000000E+00  0.00000000000E+00  0.51415466953E+02  0.51415466953E+02  0.00000000000E+00 0. -1.
         21   -1    0    0  503  502 -0.00000000000E+00 -0.00000000000E+00 -0.50396473185E+02  0.50396473185E+02  0.00000000000E+00 0.  1.
         21    1    1    2  503  501  0.25932390802E+02 -0.19828876322E+02  0.39568910585E+02  0.51296899650E+02  0.00000000000E+00 0. -1.
         21    1    1    2  504  502 -0.25932390802E+02  0.19828876322E+02 -0.38549916817E+02  0.50515040488E+02  0.00000000000E+00 0.  1.
</event>
<event>
 4    1  0.1725802E+006  0.2356000E+02  0.7546771E-02  0.1485583E+00
         21   -1    0    0  503  501  0.00000000000E+00  0.00000000000E+00  0.11949005577E+03  0.11949005577E+03  0.00000000000E+00 0.  1.
         21   -1    0    0  504  502 -0.00000000000E+00 -0.00000000000E+00 -0.75966780300E+01  0.75966780300E+01  0.00000000000E+00 0.  1.
         21    1    1    2  503  502  0.15424681074E+02  0.17808785359E+02  0.16340158293E+02  0.28671839760E+02  0.00000000000E+00 0.  1.
         21    1    1    2  504  501 -0.15424681074E+02 -0.17808785359E+02  0.95553219447E+02  0.98414894040E+02  0.00000000000E+00 0.  1.
</event>
<event>
 4    1  0.1725802E+006  0.2319453E+02  0.7546771E-02  0.1490070E+00
         21   -1    0    0  502  501  0.00000000000E+00  0.00000000000E+00  0.60759347262E+01  0.60759347262E+01  0.00000000000E+00 0. -1.
         21   -1    0    0  504  502 -0.00000000000E+00 -0.00000000000E+00 -0.26434939164E+03  0.26434939164E+03  0.00000000000E+00 0.  1.
         21    1    1    2  503  501 -0.16093126416E+02  0.16703218078E+02 -0.18869977252E+02  0.29900873792E+02  0.00000000000E+00 0. -1.
         21    1    1    2  504  503  0.16093126416E+02 -0.16703218078E+02 -0.23940347966E+03  0.24052445257E+03  0.00000000000E+00 0.  1.
</event>
<event>
 4    1  0.1725802E+006  0.2075317E+02  0.7546771E-02  0.1522818E+00
         21   -1    0    0  503  501  0.00000000000E+00  0.00000000000E+00  0.28320537715E+01  0.28320537715E+01  0.00000000000E+00 0.  1.
         21   -1    0    0  504  502 -0.00000000000E+00 -0.00000000000E+00 -0.32041335281E+03  0.32041335281E+03  0.00000000000E+00 0.  1.
         21    1    1    2  503  502 -0.63074001681E+01  0.19771459263E+02 -0.27593850812E+03  0.27671782408E+03  0.00000000000E+00 0.  1.
         21    1    1    2  504  501  0.63074001681E+01 -0.19771459263E+02 -0.41642790919E+02  0.46527582505E+02  0.00000000000E+00 0.  1.
</event>
<event>
 4    1  0.1725802E+006  0.2091116E+02  0.7546771E-02  0.1520537E+00
         21   -1    0    0  503  501  0.00000000000E+00  0.00000000000E+00  0.33773617944E+03  0.33773617944E+03  0.00000000000E+00 0. -1.
         21   -1    0    0  504  502 -0.00000000000E+00 -0.00000000000E+00 -0.13883921896E+01  0.13883921896E+01  0.00000000000E+00 0. -1.
         21    1    1    2  503  502 -0.82610811180E+01  0.19210188522E+02  0.21221495747E+03  0.21324273722E+03  0.00000000000E+00 0. -1.
         21    1    1    2  504  501  0.82610811180E+01 -0.19210188522E+02  0.12413282978E+03  0.12588183441E+03  0.00000000000E+00 0. -1.
</event>
<event>
 4    1  0.1725802E+006  0.4135754E+02  0.7546771E-02  0.1340709E+00
         21   -1    0    0  502  501  0.00000000000E+00  0.00000000000E+00  0.54722667598E+02  0.54722667598E+02  0.00000000000E+00 0.  1.
         21   -1    0    0  503  502 -0.00000000000E+00 -0.00000000000E+00 -0.14477153021E+03  0.14477153021E+03  0.00000000000E+00 0. -1.
         21    1    1    2  503  504 -0.33006338556E+02  0.24920424833E+02 -0.13334973396E+03  0.13961589274E+03  0.00000000000E+00 0. -1.
         21    1    1    2  504  501  0.33006338556E+02 -0.24920424833E+02  0.43300871345E+02  0.59878305069E+02  0.00000000000E+00 0.  1.
</event>
<event>
 4    1  0.1725802E+006  0.2822173E+02  0.7546771E-02  0.1435707E+00
         21   -1    0    0  502  501  0.00000000000E+00  0.00000000000E+00  0.73574193583E+01  0.73574193583E+01  0.00000000000E+00 0. -1.
         21   -1    0    0  503  502 -0.00000000000E+00 -0.00000000000E+00 -0.47217287635E+03  0.47217287635E+03  0.00000000000E+00 0.  1.
         21    1    1    2  503  504  0.26581351507E+02 -0.94814311451E+01 -0.44290097968E+03  0.44379921539E+03  0.00000000000E+00 0.  1.
         21    1    1    2  504  501 -0.26581351507E+02  0.94814311451E+01 -0.21914477314E+02  0.35731080315E+02  0.00000000000E+00 0. -1.
</event>
<event>
 4    1  0.1725802E+006  0.2199823E+02  0.7546771E-02  0.1505476E+00
         21   -1    0    0  504  501  0.00000000000E+00  0.00000000000E+00  0.43537668320E+01  0.43537668320E+01  0.00000000000E+00 0. -1.
         21   -1    0    0  503  502 -0.00000000000E+00 -0.00000000000E+00 -0.11170645848E+03  0.11170645848E+03  0.00000000000E+00 0. -1.
         21    1    1    2  503  501  0.18251237458E+02 -0.12280646275E+02 -0.49581263133E+02  0.54242267611E+02  0.00000000000E+00 0. -1.
         21    1    1    2  504  502 -0.18251237458E+02  0.12280646275E+02 -0.57771428515E+02  0.61817957702E+02  0.00000000000E+00 0. -1.
</event>
<event>
 4    1  0.1725802E+006  0.2082280E+02  0.7546771E-02  0.1521810E+00
         21   -1    0    0  503  501  0.00000000000E+00  0.00000000000E+00  0.77642777715E+02  0.77642777715E+02  0.00000000000E+00 0. -1.
         21   -1    0    0  504  502 -0.00000000000E+00 -0.00000000000E+00 -0.87014092127E+01  0.87014092127E+01  0.00000000000E+00 0. -1.
         21    1    1    2  503  502  0.53392968498E+01  0.20126626562E+02  0.86316318017E+01  0.22540946191E+02  0.00000000000E+00 0. -1.
         21    1    1    2  504  501 -0.53392968498E+01 -0.20126626562E+02  0.60309736700E+02  0.63803240737E+02  0.00000000000E+00 0. -1.
</event>
<event>
 4    1  0.1725802E+006  0.2300809E+02  0.7546771E-02  0.1492397E+00
         21   -1    0    0  503  501  0.00000000000E+00  0.00000000000E+00  0.11352754749E+02  0.11352754749E+02  0.00000000000E+00 0. -1.
         21   -1    0    0  501  502 -0.00000000000E+00 -0.00000000000E+00 -0.14167171626E+03  0.14167171626E+03  0.00000000000E+00 0.  1.
         21    1    1    2  503  504  0.22782194659E+02  0.32161563994E+01 -0.24911918263E+01  0.23142560190E+02  0.00000000000E+00 0. -1.
         21    1    1    2  504  502 -0.22782194659E+02 -0.32161563994E+01 -0.12782776969E+03  0.12988191082E+03  0.00000000000E+00 0.  1.
</event>
<event>
 4    1  0.1725802E+006  0.2283759E+02  0.7546771E-02  0.1494548E+00
         21   -1    0    0  504  501  0.00000000000E+00  0.00000000000E+00  0.44215394257E+01  0.44215394257E+01  0.00000000000E+00 0. -1.
         21   -1    0    0  501  502 -0.00000000000E+00 -0.00000000000E+00 -0.12436346400E+03  0.12436346400E+03  0.00000000000E+00 0. -1.
         21    1    1    2  503  502  0.83604988280E+01  0.21252238857E+02 -0.45357037170E+02  0.50782048186E+02  0.00000000000E+00 0. -1.
         21    1    1    2  504  503 -0.83604988280E+01 -0.21252238857E+02 -0.74584887403E+02  0.78002955239E+02  0.00000000000E+00 0. -1.
</event>
<event>
 4    1  0.1725802E+006  0.5718698E+02  0.7546771E-02  0.1269702E+00
         21   -1    0    0  502  501  0.00000000000E+00  0.00000000000E+00  0.47328096332E+02  0.47328096332E+02  0.00000000000E+00 0.  1.
         21   -1    0    0  504  502 -0.00000000000E+00 -0.00000000000E+00 -0.74622018726E+02  0.74622018726E+02  0.00000000000E+00 0.  1.
         21    1    1    2  503  501 -0.11836892273E+02  0.55948535986E+02  0.29406904713E+01  0.57262538872E+02  0.00000000000E+00 0.  1.
         21    1    1    2  504  503  0.11836892273E+02 -0.55948535986E+02 -0.30234612866E+02  0.64687576186E+02  0.00000000000E+00 0.  1.
</event>
<event>
 4    1  0.1725802E+006  0.2396498E+02  0.7546771E-02  0.1480724E+00
         21   -1    0    0  504  501  0.00000000000E+00  0.00000000000E+00  0.33708971851E+02  0.33708971851E+02  0.00000000000E+00 0.  1.
         21   -1    0    0  503  502 -0.00000000000E+00 -0.00000000000E+00 -0.41423541954E+02  0.41423541954E+02  0.00000000000E+00 0.  1.
         21    1    1    2  503  501  0.15961361114E+01  0.23911764169E+02 -0.32680607504E+02  0.40525821682E+02  0.00000000000E+00 0.  1.
         21    1    1    2  504  502 -0.15961361114E+01 -0.23911764169E+02  0.24966037401E+02  0.34606692123E+02  0.00000000000E+00 0.  1.
</event>
<event>
 4    1  0.1725802E+006  0.2256632E+02  0.7546771E-02  0.1498017E+00
         21   -1    0    0  504  501  0.00000000000E+00  0.00000000000E+00  0.91177763635E+02  0.91177763635E+02  0.00000000000E+00 0. -1.
         21   -1    0    0  503  502 -0.00000000000E+00 -0.00000000000E+00 -0.55868811405E+01  0.55868811405E+01  0.00000000000E+00 0. -1.
         21    1    1    2  503  501 -0.47008858225E+01  0.22071255533E+02  0.41936154482E+02  0.47622260562E+02  0.00000000000E+00 0. -1.
         21    1    1    2  504  502  0.47008858225E+01 -0.22071255533E+02  0.43654728013E+02  0.49142384213E+02  0.00000000000E+00 0. -1.
</event>
<event>
 4    1  0.1725802E+006  0.3065394E+02  0.7546771E-02  0.1413997E+00
         21   -1    0    0  503  501  0.00000000000E+00  0.00000000000E+00  0.35193395009E+03  0.35193395009E+03  0.00000000000E+00 0. -1.
         21   -1    0    0  504  502 -0.00000000000E+00 -0.00000000000E+00 -0.23939781212E+02  0.23939781212E+02  0.00000000000E+00 0. -1.
         21    1    1    2  503  502  0.29467411261E+02 -0.84460337503E+01 -0.13149750622E+02  0.33355355701E+02  0.00000000000E+00 0. -1.
         21    1    1    2  504  501 -0.29467411261E+02  0.84460337503E+01  0.34114391950E+03  0.34251837560E+03  0.00000000000E+00 0. -1.
</event>
<event>
 4    1  0.1725802E+006  0.2180243E+02  0.7546771E-02  0.1508110E+00
         21   -1    0    0  502  501  0.00000000000E+00  0.00000000000E+00  0.73323722983E+02  0.73323722983E+02  0.00000000000E+00 0. -1.
         21   -1    0    0  504  502 -0.00000000000E+00 -0.00000000000E+00 -0.84279563528E+01  0.84279563528E+01  0.00000000000E+00 0. -1.
         21    1    1    2  503  501  0.14601732417E+02  0.16190593786E+02  0.52085031303E+02  0.56464116061E+02  0.00000000000E+00 0. -1.
         21    1    1    2  504  503 -0.14601732417E+02 -0.16190593786E+02  0.12810735327E+02  0.25287563274E+02  0.00000000000E+00 0. -1.
</event>
<event>
 4    1  0.1725802E+006  0.2086323E+02  0.7546771E-02  0.1521227E+00
         21   -1    0    0  502  501  0.00000000000E+00  0.00000000000E+00  0.14747495779E+02  0.14747495779E+02  0.00000000000E+00 0. -1.
         21   -1    0    0  504  502 -0.00000000000E+00 -0.00000000000E+00 -0.31235810123E+02  0.31235810123E+02  0.00000000000E+00 0. -1.
         21    1    1    2  503  501 -0.11503681434E+02  0.17405160524E+02 -0.28478893001E+01  0.21056703751E+02  0.00000000000E+00 0. -1.
         21    1    1    2  504  503  0.11503681434E+02 -0.17405160524E+02 -0.13640425044E+02  0.24926602151E+02  0.00000000000E+00 0. -1.
</event>
<event>
 4    1  0.1725802E+006  0.2386781E+02  0.7546771E-02  0.1481879E+00
         21   -1    0    0  504  501  0.00000000000E+00  0.00000000000E+00  0.21666067991E+02  0.21666067991E+02  0.00000000000E+00 0.  1.
         21   -1    0    0  503  502 -0.00000000000E+00 -0.00000000000E+00 -0.28354172687E+02  0.28354172687E+02  0.00000000000E+00 0.  1.
         21    1    1    2  503  501 -0.38272003659E+01  0.23558970841E+02  0.33986217952E+01  0.24108571086E+02  0.00000000000E+00 0.  1.
         21    1    1    2  504  502  0.38272003659E+01 -0.23558970841E+02 -0.10086726491E+02  0.25911669592E+02  0.00000000000E+00 0.  1.
</event>
<event>
 4    1  0.1725802E+006  0.2281790E+02  0.7546771E-02  0.1494798E+00
         21   -1    0    0  504  501  0.00000000000E+00  0.00000000000E+00  0.10726637186E+03  0.10726637186E+03  0.00000000000E+00 0.  1.
         21   -1    0    0  503  502 -0.00000000000E+00 -0.00000000000E+00 -0.59444899356E+02  0.59444899356E+02  0.00000000000E+00 0.  1.
         21    1    1    2  503  501 -0.18212445353E+02 -0.13746394812E+02 -0.55969313958E+02  0.60441878206E+02  0.00000000000E+00 0.  1.
         21    1    1    2  504  502  0.18212445353E+02  0.13746394812E+02  0.10379078646E+03  0.10626939301E+03  0.00000000000E+00 0.  1.
</event>
<event>
 4    1  0.1725802E+006  0.2546202E+02  0.7546771E-02  0.1463701E+00
         21   -1    0    0  503  501  0.00000000000E+00  0.00000000000E+00  0.25796645265E+03  0.25796645265E+03  0.00000000000E+00 0. -1.
         21   -1    0    0  504  502 -0.00000000000E+00 -0.00000000000E+00 -0.43271892685E+01  0.43271892685E+01  0.00000000000E+00 0. -1.
         21    1    1    2  503  502  0.25446102237E+02 -0.90028414818E+00  0.41906419861E+02  0.49035320496E+02  0.00000000000E+00 0. -1.
         21    1    1    2  504  501 -0.25446102237E+02  0.90028414818E+00  0.21173284352E+03  0.21325832142E+03  0.00000000000E+00 0. -1.
</event>
<event>
 4    1  0.1725802E+006  0.2612174E+02  0.7546771E-02  0.1456636E+00
         21   -1    0    0  502  501  0.00000000000E+00  0.00000000000E+00  0.94665727058E+01  0.94665727058E+01  0.00000000000E+00 0. -1.
         21   -1    0    0  504  502 -0.00000000000E+00 -0.00000000000E+00 -0.10105063214E+04  0.10105063214E+04  0.00000000000E+00 0. -1.
         21    1    1    2  503  501  0.10180626784E+01  0.26101894982E+02 -0.90585636300E+01  0.27647838041E+02  0.00000000000E+00 0. -1.
         21    1    1    2  504  503 -0.10180626784E+01 -0.26101894982E+02 -0.99198118509E+03  0.99232505609E+03  0.00000000000E+00 0. -1.
</event>
<event>
 4    1  0.1725802E+006  0.2975663E+02  0.7546771E-02  0.1421723E+00
         21   -1    0    0  502  501  0.00000000000E+00  0.00000000000E+00  0.14236865255E+03  0.14236865255E+03  0.00000000000E+00 0.  1.
         21   -1    0    0  503  502 -0.00000000000E+00 -0.00000000000E+00 -0.13302142799E+03  0.13302142799E+03  0.00000000000E+00 0.  1.
         21    1    1    2  503  504 -0.19037009817E+02  0.22870270912E+02 -0.12976390413E+03  0.13313199409E+03  0.00000000000E+00 0.  1.
         21    1    1    2  504  501  0.19037009817E+02 -0.22870270912E+02  0.13911112870E+03  0.14225808645E+03  0.00000000000E+00 0.  1.
</event>
<event>
 4    1  0.1725802E+006  0.3561846E+02  0.7546771E-02  0.1376267E+00
         21   -1    0    0  503  501  0.00000000000E+00  0.00000000000E+00  0.96165588250E+02  0.96165588250E+02  0.00000000000E+00 0.  1.
         21   -1    0    0  504  502 -0.00000000000E+00 -0.00000000000E+00 -0.61866872502E+02  0.61866872502E+02  0.00000000000E+00 0.  1.
         21    1    1    2  503  502  0.46023035449E+01  0.35319878053E+02 -0.52937553445E+02  0.63804855210E+02  0.00000000000E+00 0.  1.
         21    1    1    2  504  501 -0.46023035449E+01 -0.35319878053E+02  0.87236269193E+02  0.94227605542E+02  0.00000000000E+00 0.  1.
</event>
<event>
 4    1  0.1725802E+006  0.2580004E+02  0.7546771E-02  0.1460049E+00
         21   -1    0    0  503  501  0.00000000000E+00  0.00000000000E+00  0.18234073906E+04  0.18234073906E+04  0.00000000000E+00 0. -1.
         21   -1    0    0  501  502 -0.00000000000E+00 -0.00000000000E+00 -0.23550015715E+01  0.23550015715E+01  0.00000000000E+00 0.  1.
         21    1    1    2  503  504  0.25164613711E+02 -0.56907079409E+01  0.17496759864E+04  0.17498661946E+04  0.00000000000E+00 0. -1.
         21    1    1    2  504  502 -0.25164613711E+02  0.56907079409E+01  0.71376402672E+02  0.75896197523E+02  0.00000000000E+00 0.  1.
</event>
<event>
 4    1  0.1725802E+006  0.2477581E+02  0.7546771E-02  0.1471327E+00
         21   -1    0    0  504  501  0.00000000000E+00  0.00000000000E+00  0.16852463603E+02  0.16852463603E+02  0.00000000000E+00 0. -1.
         21   -1    0    0  503  502 -0.00000000000E+00 -0.00000000000E+00 -0.15079384884E+03  0.15079384884E+03  0.00000000000E+00 0.  1.
         21    1    1    2  503  501 -0.16790117045E+01 -0.24718847813E+02 -0.13997143063E+03  0.14214725432E+03  0.00000000000E+00 0.  1.
         21    1    1    2  504  502  0.16790117045E+01  0.24718847813E+02  0.60300453974E+01  0.25499058120E+02  0.00000000000E+00 0. -1.
</event>
<event>
 4    1  0.1725802E+006  0.3249428E+02  0.7546771E-02  0.1399090E+00
         21   -1    0    0  504  501  0.00000000000E+00  0.00000000000E+00  0.11513722690E+03  0.11513722690E+03  0.00000000000E+00 0. -1.
         21   -1    0    0  503  502 -0.00000000000E+00 -0.00000000000E+00 -0.13314623176E+03  0.13314623176E+03  0.00000000000E+00 0.  1.
         21    1    1    2  503  501 -0.32258716903E+02 -0.39055569913E+01  0.11078575683E+03  0.11545285665E+03  0.00000000000E+00 0. -1.
         21    1    1    2  504  502  0.32258716903E+02  0.39055569913E+01 -0.12879476169E+03  0.13283060201E+03  0.00000000000E+00 0.  1.
</event>
<event>
 4    1  0.1725802E+006  0.2220865E+02  0.7546771E-02  0.1502682E+00
         21   -1    0    0  503  501  0.00000000000E+00  0.00000000000E+00  0.15820656884E+02  0.15820656884E+02  0.00000000000E+00 0.  1.
         21   -1    0    0  504  502 -0.00000000000E+00 -0.00000000000E+00 -0.47659031712E+02  0.47659031712E+02  0.00000000000E+00 0. -1.
         21    1    1    2  503  502  0.19461363868E+02 -0.10699508882E+02  0.27468121908E+01  0.22377871908E+02  0.00000000000E+00 0.  1.
         21    1    1    2  504  501 -0.19461363868E+02  0.10699508882E+02 -0.34585187019E+02  0.41101816688E+02  0.00000000000E+00 0. -1.
</event>
<event>
 4    1  0.1725802E+006  0.3613736E+02  0.7546771E-02  0.1372739E+00
         21   -1    0    0  503  501  0.00000000000E+00  0.00000000000E+00  0.28621497369E+03  0.28621497369E+03  0.00000000000E+00 0. -1.
         21   -1    0    0  504  502 -0.00000000000E+00 -0.00000000000E+00 -0.87078439292E+01  0.87078439292E+01  0.00000000000E+00 0. -1.
         21    1    1    2  503  502  0.14934448299E+02 -0.32907009887E+02  0.24049400282E+03  0.24319390296E+03  0.00000000000E+00 0. -1.
         21    1    1    2  504  501 -0.14934448299E+02  0.32907009887E+02  0.37013126942E+02  0.51728914658E+02  0.00000000000E+00 0. -1.
</event>
<event>
 4    1  0.1725802E+006  0.3178742E+02  0.7546771E-02  0.1404674E+00
         21   -1    0    0  503  501  0.00000000000E+00  0.00000000000E+00  0.25835772830E+02  0.25835772830E+02  0.00000000000E+00 0.  1.
         21   -1    0    0  504  502 -0.00000000000E+00 -0.00000000000E+00 -0.66255014369E+02  0.66255014369E+02  0.00000000000E+00 0.  1.
         21    1    1    2  503  502  0.25045659618E+02  0.19574339015E+02 -0.49682394069E+02  0.58981184236E+02  0.00000000000E+00 0.  1.
         21    1    1    2  504  501 -0.25045659618E+02 -0.19574339015E+02  0.92631525301E+01  0.33109602962E+02  0.00000000000E+00 0.  1.
</event>
<event>
 4    1  0.1725802E+006  0.2476361E+02  0.7546771E-02  0.1471465E+00
         21   -1    0    0  504  501  0.00000000000E+00  0.00000000000E+00  0.81663871474E+01  0.81663871474E+01  0.00000000000E+00 0. -1.
         21   -1    0    0  503  502 -0.00000000000E+00 -0.00000000000E+00 -0.10544115888E+03  0.10544115888E+03  0.00000000000E+00 0. -1.
         21    1    1    2  503  501 -0.17947506432E+02 -0.17062339279E+02 -0.18162638526E+02  0.30710223819E+02  0.00000000000E+00 0. -1.
         21    1    1    2  504  502  0.17947506432E+02  0.17062339279E+02 -0.79112133206E+02  0.82897322207E+02  0.00000000000E+00 0. -1.
</event>
<event>
 4    1  0.1725802E+006  0.7073445E+02  0.7546771E-02  0.1227164E+00
         21   -1    0    0  504  501  0.00000000000E+00  0.00000000000E+00  0.12557858693E+03  0.12557858693E+03  0.00000000000E+00 0. -1.
         21   -1    0    0  501  502 -0.00000000000E+00 -0.00000000000E+00 -0.14881956042E+04  0.14881956042E+04  0.00000000000E+00 0.  1.
         21    1    1    2  503  502 -0.68272672067E+02 -0.18498771517E+02 -0.14773211990E+04  0.14790136198E+04  0.00000000000E+00 0.  1.
         21    1    1    2  504  503  0.68272672067E+02  0.18498771517E+02  0.11470418173E+03  0.13476057141E+03  0.00000000000E+00 0. -1.
</event>
<event>
 4    1  0.1725802E+006  0.3390763E+02  0.7546771E-02  0.1388410E+00
         21   -1    0    0  503  501  0.00000000000E+00  0.00000000000E+00  0.80503657340E+01  0.80503657340E+01  0.00000000000E+00 0.  1.
         21   -1    0    0  501  502 -0.00000000000E+00 -0.00000000000E+00 -0.44296233033E+03  0.44296233033E+03  0.00000000000E+00 0.  1.
         21    1    1    2  503  504  0.22259481413E+02  0.25578173753E+02 -0.31828910756E+02  0.46505989347E+02  0.00000000000E+00 0.  1.
         21    1    1    2  504  502 -0.22259481413E+02 -0.25578173753E+02 -0.40308305384E+03  0.40450670671E+03  0.00000000000E+00 0.  1.
</event>
<event>
 4    1  0.1725802E+006  0.2571830E+02  0.7546771E-02  0.1460926E+00
         21   -1    0    0  503  501  0.00000000000E+00  0.00000000000E+00  0.54399978698E+02  0.54399978698E+02  0.00000000000E+00 0.  1.
         21   -1    0    0  504  502 -0.00000000000E+00 -0.00000000000E+00 -0.13197287452E+02  0.13197287452E+02  0.00000000000E+00 0.  1.
         21    1    1    2  503  502 -0.23373847165E+02 -0.10728188838E+02  0.11119628459E+02  0.28019223832E+02  0.00000000000E+00 0.  1.
         21    1    1    2  504  501  0.23373847165E+02  0.10728188838E+02  0.30083062787E+02  0.39578042318E+02  0.00000000000E+00 0.  1.
</event>
<event>
 4    1  0.1725802E+006  0.2441132E+02  0.7546771E-02  0.1475498E+00
         21   -1    0    0  504  501  0.00000000000E+00  0.00000000000E+00  0.21474319342E+03  0.21474319342E+03  0.00000000000E+00 0.  1.
         21   -1    0    0  501  502 -0.00000000000E+00 -0.00000000000E+00 -0.15089012297E+02  0.15089012297E+02  0.00000000000E+00 0. -1.
         21    1    1    2  503  502  0.99629677581E+01 -0.22285684633E+02 -0.39855567445E+01  0.24734533120E+02  0.00000000000E+00 0. -1.
         21    1    1    2  504  503 -0.99629677581E+01  0.22285684633E+02  0.20363973787E+03  0.20509767260E+03  0.00000000000E+00 0.  1.
</event>
<event>
 4    1  0.1725802E+006  0.2210608E+02  0.7546771E-02  0.1504039E+00
         21   -1    0    0  503  501  0.00000000000E+00  0.00000000000E+00  0.22662250482E+02  0.22662250482E+02  0.00000000000E+00 0. -1.
         21   -1    0    0  501  502 -0.00000000000E+00 -0.00000000000E+00 -0.25854779240E+02  0.25854779240E+02  0.00000000000E+00 0. -1.
         21    1    1    2  503  504 -0.22026068943E+02 -0.18791113989E+01  0.82866310569E+01  0.23608198300E+02  0.00000000000E+00 0. -1.
         21    1    1    2  504  502  0.22026068943E+02  0.18791113989E+01 -0.11479159815E+02  0.24908831421E+02  0.00000000000E+00 0. -1.
</event>
<event>
 4    1  0.1725802E+006  0.2209737E+02  0.7546771E-02  0.1504154E+00
         21   -1    0    0  504  501  0.00000000000E+00  0.00000000000E+00  0.72835394460E+02  0.72835394460E+02  0.00000000000E+00 0. -1.
         21   -1    0    0  501  502 -0.00000000000E+00 -0.00000000000E+00 -0.23282609065E+03  0.23282609065E+03  0.00000000000E+00 0.  1.
         21    1    1    2  503  502  0.10254795551E+02 -0.19573787227E+02 -0.23060968837E+03  0.23166597149E+03  0.00000000000E+00 0.  1.
         21    1    1    2  504  503 -0.10254795551E+02  0.19573787227E+02  0.70618992182E+02  0.73995513614E+02  0.00000000000E+00 0. -1.
</event>
<event>
 4    1  0.1725802E+006  0.2590675E+02  0.7546771E-02  0.1458910E+00
         21   -1    0    0  504  501  0.00000000000E+00  0.00000000000E+00  0.74035079681E+02  0.74035079681E+02  0.00000000000E+00 0.  1.
         21   -1    0    0  501  502 -0.00000000000E+00 -0.00000000000E+00 -0.39071358001E+02  0.39071358001E+02  0.00000000000E+00 0. -1.
         21    1    1    2  503  502 -0.25496772328E+02 -0.45906551466E+01 -0.32078178011E+02  0.41233105854E+02  0.00000000000E+00 0. -1.
         21    1    1    2  504  503  0.25496772328E+02  0.45906551466E+01  0.67041899691E+02  0.71873331828E+02  0.00000000000E+00 0.  1.
</event>
<event>
 4    1  0.1725802E+006  0.3830109E+02  0.7546771E-02  0.1358740E+00
         21   -1    0    0  503  501  0.00000000000E+00  0.00000000000E+00  0.50785088772E+02  0.50785088772E+02  0.00000000000E+00 0.  1.
         21   -1    0    0  504  502 -0.00000000000E+00 -0.00000000000E+00 -0.28921089028E+02  0.28921089028E+02  0.00000000000E+00 0.  1.
         21    1    1    2  503  502  0.22927544432E+02 -0.30680631210E+02  0.95420276612E+01  0.39471809143E+02  0.00000000000E+00 0.  1.
         21    1    1    2  504  501 -0.22927544432E+02  0.30680631210E+02  0.12321972083E+02  0.40234368656E+02  0.00000000000E+00 0.  1.
</event>
<event>
 4    1  0.1725802E+006  0.2263428E+02  0.7546771E-02  0.1497142E+00
         21   -1    0    0  502  501  0.00000000000E+00  0.00000000000E+00  0.50403110047E+03  0.50403110047E+03  0.00000000000E+00 0. -1.
         21   -1    0    0  503  502 -0.00000000000E+00 -0.00000000000E+00 -0.11009218030E+02  0.11009218030E+02  0.00000000000E+00 0.  1.
         21    1    1    2  503  504  0.22153534463E+02  0.46401910774E+01  0.11663918551E+01  0.22664309661E+02  0.00000000000E+00 0.  1.
         21    1    1    2  504  501 -0.22153534463E+02 -0.46401910774E+01  0.49185549059E+03  0.49237600884E+03  0.00000000000E+00 0. -1.
</event>
<event>
 4    1  0.1725802E+006  0.2699222E+02  0.7546771E-02  0.1447686E+00
         21   -1    0    0  503  501  0.00000000000E+00  0.00000000000E+00  0.16059295177E+02  0.16059295177E+02  0.00000000000E+00 0.  1.
         21   -1    0    0  504  502 -0.00000000000E+00 -0.00000000000E+00 -0.77172326449E+02  0.77172326449E+02  0.00000000000E+00 0. -1.
         21    1    1    2  503  502 -0.26421698286E+02 -0.55202861203E+01 -0.60482253615E+02  0.66232036821E+02  0.00000000000E+00 0. -1.
         21    1    1    2  504  501  0.26421698286E+02  0.55202861203E+01 -0.63077765644E+00  0.26999584804E+02  0.00000000000E+00 0.  1.
</event>
<event>
 4    1  0.1725802E+006  0.2016471E+02  0.7546771E-02  0.1531533E+00
         21   -1    0    0  502  501  0.00000000000E+00  0.00000000000E+00  0.45552747199E+01  0.45552747199E+01  0.00000000000E+00 0. -1.
         21   -1    0    0  504  502 -0.00000000000E+00 -0.00000000000E+00 -0.34578179226E+03  0.34578179226E+03  0.00000000000E+00 0. -1.
         21    1    1    2  503  501 -0.19293393854E+02 -0.58634935502E+01 -0.19739059920E+02  0.28217832829E+02  0.00000000000E+00 0. -1.
         21    1    1    2  504  503  0.19293393854E+02  0.58634935502E+01 -0.32148745762E+03  0.32211923415E+03  0.00000000000E+00 0. -1.
</event>
<event>
 4    1  0.1725802E+006  0.2110455E+02  0.7546771E-02  0.1517777E+00
         21   -1    0    0  504  501  0.00000000000E+00  0.00000000000E+00  0.29087517776E+03  0.29087517776E+03  0.00000000000E+00 0. -1.
         21   -1    0    0  503  502 -0.00000000000E+00 -0.00000000000E+00 -0.35623098793E+01  0.35623098793E+01  0.00000000000E+00 0. -1.
         21    1    1    2  503  501 -0.20129418999E+02  0.63410089850E+01  0.32493785481E+02  0.38745941711E+02  0.00000000000E+00 0. -1.
         21    1    1    2  504  502  0.20129418999E+02 -0.63410089850E+01  0.25481908240E+03  0.25569154593E+03  0.00000000000E+00 0. -1.
</event>
<event>
 4    1  0.1725802E+006  0.2027643E+02  0.7546771E-02  0.1529851E+00
         21   -1    0    0  502  501  0.00000000000E+00  0.00000000000E+00  0.46541346524E+03  0.46541346524E+03  0.00000000000E+00 0.  1.
         21   -1    0    0  503  502 -0.00000000000E+00 -0.00000000000E+00 -0.61876298134E+01  0.61876298134E+01  0.00000000000E+00 0.  1.
         21    1    1    2  503  504 -0.19194184500E+02 -0.65358104489E+01  0.11292209050E+02  0.23208781141E+02  0.00000000000E+00 0.  1.
         21    1    1    2  504  501  0.19194184500E+02  0.65358104489E+01  0.44793362638E+03  0.44839231391E+03  0.00000000000E+00 0.  1.
</event>
<event>
 4    1  0.1725802E+006  0.3748361E+02  0.7546771E-02  0.1363898E+00
         21   -1    0    0  503  501  0.00000000000E+00  0.00000000000E+00  0.23045962356E+03  0.23045962356E+03  0.00000000000E+00 0. -1.
         21   -1    0    0  504  502 -0.00000000000E+00 -0.00000000000E+00 -0.54698128659E+02  0.54698128659E+02  0.00000000000E+00 0.  1.
         21    1    1    2  503  502 -0.14952397626E+02 -0.34372184956E+02  0.22227908451E+03  0.22541741881E+03  0.00000000000E+00 0. -1.
         21    1    1    2  504  501  0.14952397626E+02  0.34372184956E+02 -0.46517589605E+02  0.59740333411E+02  0.00000000000E+00 0.  1.
</event>
<event>
 4    1  0.1725802E+006  0.2309746E+02  0.7546771E-02  0.1491278E+00
         21   -1    0    0  503  501  0.00000000000E+00  0.00000000000E+00  0.24991864710E+03  0.24991864710E+03  0.00000000000E+00 0.  1.
         21   -1    0    0  504  502 -0.00000000000E+00 -0.00000000000E+00 -0.91984831607E+01  0.91984831607E+01  0.00000000000E+00 0. -1.
         21    1    1    2  503  502 -0.71521112745E+01 -0.21962240606E+02  0.23389455839E+03  0.23503224705E+03  0.00000000000E+00 0.  1.
         21    1    1    2  504  501  0.71521112745E+01  0.21962240606E+02  0.68256055456E+01  0.24084883209E+02  0.00000000000E+00 0. -1.
</event>
<event>
 4    1  0.1725802E+006  0.2040462E+02  0.7546771E-02  0.1527938E+00
         21   -1    0    0  504  501  0.00000000000E+00  0.00000000000E+00  0.12263355169E+03  0.12263355169E+03  0.00000000000E+00 0.  1.
         21   -1    0    0  501  502 -0.00000000000E+00 -0.00000000000E+00 -0.34065242403E+01  0.34065242403E+01  0.00000000000E+00 0.  1.
         21    1    1    2  503  502  0.20337659502E+02 -0.16516675931E+01  0.55957777267E+02  0.59561910954E+02  0.00000000000E+00 0.  1.
         21    1    1    2  504  503 -0.20337659502E+02  0.16516675931E+01  0.63269250180E+02  0.66478164973E+02  0.00000000000E+00 0.  1.
</event>
<event>
 4    1  0.1725802E+006  0.2166616E+02  0.7546771E-02  0.1509963E+00
         21   -1    0    0  503  501  0.00000000000E+00  0.00000000000E+00  0.35103420026E+03  0.35103420026E+03  0.00000000000E+00 0. -1.
         21   -1    0    0  504  502 -0.00000000000E+00 -0.00000000000E+00 -0.15475376382E+01  0.15475376382E+01  0.00000000000E+00 0.  1.
         21    1    1    2  503  502 -0.29822641780E+01 -0.21459934878E+02  0.10975886623E+03  0.11187685829E+03  0.00000000000E+00 0.  1.
         21    1    1    2  504  501  0.29822641780E+01  0.21459934878E+02  0.23972779640E+03  0.24070487962E+03  0.00000000000E+00 0. -1.
</event>
<event>
 4    1  0.1725802E+006  0.2285515E+02  0.7546771E-02  0.1494325E+00
         21   -1    0    0  503  501  0.00000000000E+00  0.00000000000E+00  0.52838230715E+02  0.52838230715E+02  0.00000000000E+00 0.  1.
         21   -1    0    0  504  502 -0.00000000000E+00 -0.00000000000E+00 -0.10544946654E+02  0.10544946654E+02  0.00000000000E+00 0.  1.
         21    1    1    2  503  502 -0.12839745248E+02 -0.18907634531E+02  0.29068982032E+02  0.36977877413E+02  0.00000000000E+00 0.  1.
         21    1    1    2  504  501  0.12839745248E+02  0.18907634531E+02  0.13224302030E+02  0.26405299956E+02  0.00000000000E+00 0.  1.
</event>
<event>
 4    1  0.1725802E+006  0.5026932E+02  0.7546771E-02  0.1297009E+00
         21   -1    0    0  504  501  0.00000000000E+00  0.00000000000E+00  0.49742175277E+03  0.49742175277E+03  0.00000000000E+00 0.  1.
         21   -1    0    0  503  502 -0.00000000000E+00 -0.00000000000E+00 -0.10746985054E+02  0.10746985054E+02  0.00000000000E+00 0. -1.
         21    1    1    2  503  501 -0.41411568885E+01  0.50098461320E+02  0.58834668006E+02  0.77385548822E+02  0.00000000000E+00 0. -1.
         21    1    1    2  504  502  0.41411568885E+01 -0.50098461320E+02  0.42784009971E+03  0.43078318900E+03  0.00000000000E+00 0.  1.
</event>
<event>
 4    1  0.1725802E+006  0.3769158E+02  0.7546771E-02  0.1362571E+00
         21   -1    0    0  504  501  0.00000000000E+00  0.00000000000E+00  0.20508986608E+02  0.20508986608E+02  0.00000000000E+00 0.  1.
         21   -1    0    0  503  502 -0.00000000000E+00 -0.00000000000E+00 -0.19012905672E+03  0.19012905672E+03  0.00000000000E+00 0.  1.
         21    1    1    2  503  501  0.24090741250E+02  0.28987779161E+02 -0.84037881660E+00  0.37700946821E+02  0.00000000000E+00 0.  1.
         21    1    1    2  504  502 -0.24090741250E+02 -0.28987779161E+02 -0.16877969130E+03  0.17293709651E+03  0.00000000000E+00 0.  1.
</event>
<event>
 4    1  0.1725802E+006  0.2007476E+02  0.7546771E-02  0.1532896E+00
         21   -1    0    0  503  501  0.00000000000E+00  0.00000000000E+00  0.45072586492E+03  0.45072586492E+03  0.00000000000E+00 0.  1.
         21   -1    0    0  501  502 -0.00000000000E+00 -0.00000000000E+00 -0.13144153468E+02  0.13144153468E+02  0.00000000000E+00 0.  1.
         21    1    1    2  503  504 -0.10105141679E+02 -0.17345957941E+02  0.44269849174E+03  0.44315341670E+03  0.00000000000E+00 0.  1.
         21    1    1    2  504  502  0.10105141679E+02  0.17345957941E+02 -0.51167802823E+01  0.20716601692E+02  0.00000000000E+00 0.  1.
</event>
<event>
 4    1  0.1725802E+006  0.2523298E+02  0.7546771E-02  0.1466214E+00
         21   -1    0    0  503  501  0.00000000000E+00  0.00000000000E+00  0.35991138699E+02  0.35991138699E+02  0.00000000000E+00 0. -1.
         21   -1    0    0  504  502 -0.00000000000E+00 -0.00000000000E+00 -0.36532864224E+02  0.36532864224E+02  0.00000000000E+00 0. -1.
         21    1    1    2  503  502  0.13969284275E+02  0.21013382426E+02  0.25771296884E+02  0.36067476863E+02  0.00000000000E+00 0. -1.
         21    1    1    2  504  501 -0.13969284275E+02 -0.21013382426E+02 -0.26313022409E+02  0.36456526061E+02  0.00000000000E+00 0. -1.
</event>
<event>
 4    1  0.1725802E+006  0.3945233E+02  0.7546771E-02  0.1351725E+00
         21   -1    0    0  504  501  0.00000000000E+00  0.00000000000E+00  0.55406857675E+03  0.55406857675E+03  0.00000000000E+00 0. -1.
         21   -1    0    0  503  502 -0.00000000000E+00 -0.00000000000E+00 -0.46978575041E+01  0.46978575041E+01  0.00000000000E+00 0. -1.
         21    1    1    2  503  501  0.16343698485E+02  0.35907796668E+02  0.97540871964E+02  0.10521743223E+03  0.00000000000E+00 0. -1.
         21    1    1    2  504  502 -0.16343698485E+02 -0.35907796668E+02  0.45182984728E+03  0.45354900202E+03  0.00000000000E+00 0. -1.
</event>
<event>
 4    1  0.1725802E+006  0.2071343E+02  0.7546771E-02  0.1523396E+00
         21   -1    0    0  504  501  0.00000000000E+00  0.00000000000E+00  0.26215950657E+01  0.26215950657E+01  0.00000000000E+00 0. -1.
         21   -1    0    0  503  502 -0.00000000000E+00 -0.00000000000E+00 -0.24969258221E+03  0.24969258221E+03  0.00000000000E+00 0.  1.
         21    1    1    2  503  501  0.56342923685E+01  0.19932410190E+02 -0.49482232359E+02  0.53642683990E+02  0.00000000000E+00 0. -1.
         21    1    1    2  504  502 -0.56342923685E+01 -0.19932410190E+02 -0.19758875478E+03  0.19867149328E+03  0.00000000000E+00 0.  1.
</event>
<event>
 4    1  0.1725802E+006  0.2272046E+02  0.7546771E-02  0.1496038E+00
         21   -1    0    0  504  501  0.00000000000E+00  0.00000000000E+00  0.18851933368E+01  0.18851933368E+01  0.00000000000E+00 0.  1.
         21   -1    0    0  503  502 -0.00000000000E+00 -0.00000000000E+00 -0.37110957084E+03  0.37110957084E+03  0.00000000000E+00 0. -1.
         21    1    1    2  503  501  0.14889445396E+02  0.17161696728E+02 -0.89126975225E+02  0.91977372932E+02  0.00000000000E+00 0.  1.
         21    1    1    2  504  502 -0.14889445396E+02 -0.17161696728E+02 -0.28009740227E+03  0.28101739124E+03  0.00000000000E+00 0. -1.
</event>
<event>
 4    1  0.1725802E+006  0.2189356E+02  0.7546771E-02  0.1506879E+00
         21   -1    0    0  502  501  0.00000000000E+00  0.00000000000E+00  0.22557602417E+03  0.22557602417E+03  0.00000000000E+00 0.  1.
         21   -1    0    0  504  502 -0.00000000000E+00 -0.00000000000E+00 -0.44988634843E+02  0.44988634843E+02  0.00000000000E+00 0.  1.
         21    1    1    2  503  501 -0.16545206799E+02  0.14338211387E+02  0.22234254751E+03  0.22341785203E+03  0.00000000000E+00 0.  1.
         21    1    1    2  504  503  0.16545206799E+02 -0.14338211387E+02 -0.41755158181E+02  0.47146806981E+02  0.00000000000E+00 0.  1.
</event>
<event>
 4    1  0.1725802E+006  0.2453652E+02  0.7546771E-02  0.1474056E+00
         21   -1    0    0  504  501  0.00000000000E+00  0.00000000000E+00  0.60760096793E+03  0.60760096793E+03  0.00000000000E+00 0. -1.
         21   -1    0    0  501  502 -0.00000000000E+00 -0.00000000000E+00 -0.27184304856E+02  0.27184304856E+02  0.00000000000E+00 0.  1.
         21    1    1    2  503  502  0.41060816559E+01  0.24190511182E+02 -0.21346243052E+02  0.32522343554E+02  0.00000000000E+00 0.  1.
         21    1    1    2  504  503 -0.41060816559E+01 -0.24190511182E+02  0.60176290613E+03  0.60226292923E+03  0.00000000000E+00 0. -1.
</event>
<event>
 4    1  0.1725802E+006  0.2010066E+02  0.7546771E-02  0.1532502E+00
         21   -1    0    0  503  501  0.00000000000E+00  0.00000000000E+00  0.15622683771E+02  0.15622683771E+02  0.00000000000E+00 0.  1.
         21   -1    0    0  504  502 -0.00000000000E+00 -0.00000000000E+00 -0.32939390517E+02  0.32939390517E+02  0.00000000000E+00 0. -1.
         21    1    1    2  503  502 -0.12775115977E+00 -0.20100255753E+02  0.25965203055E+01  0.20267671780E+02  0.00000000000E+00 0.  1.
         21    1    1    2  504  501  0.12775115977E+00  0.20100255753E+02 -0.19913227051E+02  0.28294402508E+02  0.00000000000E+00 0. -1.
</event>
<event>
 4    1  0.1725802E+006  0.2037655E+02  0.7546771E-02  0.1528355E+00
         21   -1    0    0  503  501  0.00000000000E+00  0.00000000000E+00  0.32254155302E+03  0.32254155302E+03  0.00000000000E+00 0.  1.
         21   -1    0    0  504  502 -0.00000000000E+00 -0.00000000000E+00 -0.33223702689E+01  0.33223702689E+01  0.00000000000E+00 0.  1.
         21    1    1    2  503  502 -0.16328491786E+02  0.12189511115E+02  0.32091069290E+02  0.38013689027E+02  0.00000000000E+00 0.  1.
         21    1    1    2  504  501  0.16328491786E+02 -0.12189511115E+02  0.28712811346E+03  0.28785023426E+03  0.00000000000E+00 0.  1.
</event>
<event>
 4    1  0.1725802E+006  0.2025036E+02  0.7546771E-02  0.1530242E+00
         21   -1    0    0  502  501  0.00000000000E+00  0.00000000000E+00  0.12807877871E+02  0.12807877871E+02  0.00000000000E+00 0.  1.
         21   -1    0    0  504  502 -0.00000000000E+00 -0.00000000000E+00 -0.35282311279E+02  0.35282311279E+02  0.00000000000E+00 0.  1.
         21    1    1    2  503  501 -0.13422396068E+02 -0.15162999320E+02 -0.39229356708E+01  0.20626843890E+02  0.00000000000E+00 0.  1.
         21    1    1    2  504  503  0.13422396068E+02  0.15162999320E+02 -0.18551497738E+02  0.27463345260E+02  0.00000000000E+00 0.  1.
</event>
<event>
 4    1  0.1725802E+006  0.2349704E+02  0.7546771E-02  0.1486349E+00
         21   -1    0    0  504  501  0.00000000000E+00  0.00000000000E+00  0.23914090116E+03  0.23914090116E+03  0.00000000000E+00 0.  1.
         21   -1    0    0  503  502 -0.00000000000E+00 -0.00000000000E+00 -0.24070574577E+02  0.24070574577E+02  0.00000000000E+00 0.  1.
         21    1    1    2  503  501  0.13332993173E+02 -0.19347920015E+02  0.23267036329E+03  0.23385381902E+03  0.00000000000E+00 0.  1.
         21    1    1    2  504  502 -0.13332993173E+02  0.19347920015E+02 -0.17600036707E+02  0.29357656718E+02  0.00000000000E+00 0.  1.
</event>
<event>
 4    1  0.1725802E+006  0.3148633E+02  0.7546771E-02  0.1407105E+00
         21   -1    0    0  504  501  0.00000000000E+00  0.00000000000E+00  0.29820276616E+03  0.29820276616E+03  0.00000000000E+00 0.  1.
         21   -1    0    0  501  502 -0.00000000000E+00 -0.00000000000E+00 -0.46032374662E+02  0.46032374662E+02  0.00000000000E+00 0.  1.
         21    1    1    2  503  502  0.26153092576E+02  0.17532956066E+02 -0.39700579106E+02  0.50670748771E+02  0.00000000000E+00 0.  1.
         21    1    1    2  504  503 -0.26153092576E+02 -0.17532956066E+02  0.29187097061E+03  0.29356439205E+03  0.00000000000E+00 0.  1.
</event>
<event>
 4    1  0.1725802E+006  0.2281446E+02  0.7546771E-02  0.1494841E+00
         21   -1    0    0  503  501  0.00000000000E+00  0.00000000000E+00  0.90030610881E+03  0.90030610881E+03  0.00000000000E+00 0. -1.
         21   -1    0    0  504  502 -0.00000000000E+00 -0.00000000000E+00 -0.12991971872E+02  0.12991971872E+02  0.00000000000E+00 0.  1.
         21    1    1    2  503  502 -0.20125963381E+02 -0.10744538272E+02  0.89003016421E+03  0.89032252174E+03  0.00000000000E+00 0. -1.
         21    1    1    2  504  501  0.20125963381E+02  0.10744538272E+02 -0.27160272745E+01  0.22975558945E+02  0.00000000000E+00 0.  1.
</event>
<event>
 4    1  0.1725802E+006  0.2657528E+02  0.7546771E-02  0.1451922E+00
         21   -1    0    0  503  501  0.00000000000E+00  0.00000000000E+00  0.68604366161E+01  0.68604366161E+01  0.00000000000E+00 0. -1.
         21   -1    0    0  504  502 -0.00000000000E+00 -0.00000000000E+00 -0.11959352843E+03  0.11959352843E+03  0.00000000000E+00 0.  1.
         21    1    1    2  503  502  0.16339528236E+02  0.20958663229E+02 -0.79957209343E+02  0.84257943680E+02  0.00000000000E+00 0.  1.
         21    1    1    2  504  501 -0.16339528236E+02 -0.20958663229E+02 -0.32775882468E+02  0.42196021363E+02  0.00000000000E+00 0. -1.
</event>
<event>
 4    1  0.1725802E+006  0.2246786E+02  0.7546771E-02  0.1499291E+00
         21   -1    0    0  504  501  0.00000000000E+00  0.00000000000E+00  0.11846328346E+03  0.11846328346E+03  0.00000000000E+00 0.  1.
         21   -1    0    0  501  502 -0.00000000000E+00 -0.00000000000E+00 -0.74281146635E+01  0.74281146635E+01  0.00000000000E+00 0. -1.
         21    1    1    2  503  502 -0.22176225293E+02 -0.36083188194E+01  0.14417792489E+02  0.26696023547E+02  0.00000000000E+00 0. -1.
         21    1    1    2  504  503  0.22176225293E+02  0.36083188194E+01  0.96617376312E+02  0.99195374582E+02  0.00000000000E+00 0.  1.
</event>
<event>
 4    1  0.1725802E+006  0.4424143E+02  0.7546771E-02  0.1325276E+00
         21   -1    0    0  504  501  0.00000000000E+00  0.00000000000E+00  0.27015195331E+02  0.27015195331E+02  0.00000000000E+00 0.  1.
         21   -1    0    0  501  502 -0.00000000000E+00 -0.00000000000E+00 -0.16411590801E+04  0.16411590801E+04  0.00000000000E+00 0. -1.
         21    1    1    2  503  502  0.17801661966E+02  0.40501914104E+02 -0.16225401165E+04  0.16231431649E+04  0.00000000000E+00 0. -1.
         21    1    1    2  504  503 -0.17801661966E+02 -0.40501914104E+02  0.83962316427E+01  0.45031110586E+02  0.00000000000E+00 0.  1.
</event>
<event>
 4    1  0.1725802E+006  0.2075969E+02  0.7546771E-02  0.1522724E+00
         21   -1    0    0  503  501  0.00000000000E+00  0.00000000000E+00  0.22444661466E+03  0.22444661466E+03  0.00000000000E+00 0.  1.
         21   -1    0    0  504  502 -0.00000000000E+00 -0.00000000000E+00 -0.60695942534E+01  0.60695942534E+01  0.00000000000E+00 0. -1.
         21    1    1    2  503  502  0.55729920784E+01  0.19997658108E+02  0.20448746734E+03  0.20553853378E+03  0.00000000000E+00 0.  1.
         21    1    1    2  504  501 -0.55729920784E+01 -0.19997658108E+02  0.13889553065E+02  0.24977675129E+02  0.00000000000E+00 0. -1.
</event>
<event>
 4    1  0.1725802E+006  0.4339420E+02  0.7546771E-02  0.1329667E+00
         21   -1    0    0  503  501  0.00000000000E+00  0.00000000000E+00  0.14653818656E+04  0.14653818656E+04  0.00000000000E+00 0.  1.
         21   -1    0    0  504  502 -0.00000000000E+00 -0.00000000000E+00 -0.15717389601E+01  0.15717389601E+01  0.00000000000E+00 0. -1.
         21    1    1    2  503  502  0.33063998571E+02 -0.28103888581E+02  0.10451747774E+04  0.10460752229E+04  0.00000000000E+00 0.  1.
         21    1    1    2  504  501 -0.33063998571E+02  0.28103888581E+02  0.41863534927E+03  0.42087838174E+03  0.00000000000E+00 0. -1.
</event>
<event>
 4    1  0.1725802E+006  0.2232585E+02  0.7546771E-02  0.1501142E+00
         21   -1    0    0  502  501  0.00000000000E+00  0.00000000000E+00  0.17704541258E+03  0.17704541258E+03  0.00000000000E+00 0.  1.
         21   -1    0    0  503  502 -0.00000000000E+00 -0.00000000000E+00 -0.12290972386E+02  0.12290972386E+02  0.00000000000E+00 0. -1.
         21    1    1    2  503  504 -0.11402450205E+01 -0.22296708481E+02 -0.74459572968E+00  0.22338258451E+02  0.00000000000E+00 0. -1.
         21    1    1    2  504  501  0.11402450205E+01  0.22296708481E+02  0.16549903593E+03  0.16699812652E+03  0.00000000000E+00 0.  1.
</event>
<event>
 4    1  0.1725802E+006  0.2603983E+02  0.7546771E-02  0.1457499E+00
         21   -1    0    0  504  501  0.00000000000E+00  0.00000000000E+00  0.15732297120E+04  0.15732297120E+04  0.00000000000E+00 0.  1.
         21   -1    0    0  503  502 -0.00000000000E+00 -0.00000000000E+00 -0.84000564891E+00  0.84000564891E+00  0.00000000000E+00 0.  1.
         21    1    1    2  503  501 -0.17866702601E+02  0.18943439163E+02  0.13353737307E+04  0.13356275954E+04  0.00000000000E+00 0.  1.
         21    1    1    2  504  502  0.17866702601E+02 -0.18943439163E+02  0.23701597573E+03  0.23844212233E+03  0.00000000000E+00 0.  1.
</event>
<event>
 4    1  0.1725802E+006  0.2770219E+02  0.7546771E-02  0.1440679E+00
         21   -1    0    0  502  501  0.00000000000E+00  0.00000000000E+00  0.20513984001E+02  0.20513984001E+02  0.00000000000E+00 0. -1.
         21   -1    0    0  504  502 -0.00000000000E+00 -0.00000000000E+00 -0.50088749756E+02  0.50088749756E+02  0.00000000000E+00 0. -1.
         21    1    1    2  503  501  0.88286353880E+00  0.27688121885E+02  0.29738659932E+01  0.27861360707E+02  0.00000000000E+00 0. -1.
         21    1    1    2  504  503 -0.88286353880E+00 -0.27688121885E+02 -0.32548631748E+02  0.42741373050E+02  0.00000000000E+00 0. -1.
</event>
<event>
 4    1  0.1725802E+006  0.4013435E+02  0.7546771E-02  0.1347700E+00
         21   -1    0    0  503  501  0.00000000000E+00  0.00000000000E+00  0.23502622166E+03  0.23502622166E+03  0.00000000000E+00 0.  1.
         21   -1    0    0  504  502 -0.00000000000E+00 -0.00000000000E+00 -0.34586402278E+03  0.34586402278E+03  0.00000000000E+00 0. -1.
         21    1    1    2  503  502 -0.37082201092E+02 -0.15351743971E+02 -0.34297192890E+03  0.34531219164E+03  0.00000000000E+00 0. -1.
         21    1    1    2  504  501  0.37082201092E+02  0.15351743971E+02  0.23213412778E+03  0.23557805280E+03  0.00000000000E+00 0.  1.
</event>
<event>
 4    1  0.1725802E+006  0.2164718E+02  0.7546771E-02  0.1510222E+00
         21   -1    0    0  503  501  0.00000000000E+00  0.00000000000E+00  0.13636203248E+02  0.13636203248E+02  0.00000000000E+00 0. -1.
         21   -1    0    0  504  502 -0.00000000000E+00 -0.00000000000E+00 -0.37810908888E+02  0.37810908888E+02  0.00000000000E+00 0.  1.
         21    1    1    2  503  502 -0.21646806755E+02 -0.12687323567E+00 -0.19853584042E+02  0.29372863987E+02  0.00000000000E+00 0.  1.
         21    1    1    2  504  501  0.21646806755E+02  0.12687323567E+00 -0.43211215982E+01  0.22074248149E+02  0.00000000000E+00 0. -1.
</event>
<event>
 4    1  0.1725802E+006  0.2187847E+02  0.7546771E-02  0.1507083E+00
         21   -1    0    0  504  501  0.00000000000E+00  0.00000000000E+00  0.89732450683E+01  0.89732450683E+01  0.00000000000E+00 0. -1.
         21   -1    0    0  503  502 -0.00000000000E+00 -0.00000000000E+00 -0.79360757907E+03  0.79360757907E+03  0.00000000000E+00 0. -1.
         21    1    1    2  503  501 -0.20543128550E+02 -0.75264310772E+01 -0.77988624519E+03  0.78019306760E+03  0.00000000000E+00 0. -1.
         21    1    1    2  504  502  0.20543128550E+02  0.75264310772E+01 -0.47480888104E+01  0.22387756537E+02  0.00000000000E+00 0. -1.
</event>
<event>
 4    1  0.1725802E+006  0.3667305E+02  0.7546771E-02  0.1369168E+00
         21   -1    0    0  504  501  0.00000000000E+00  0.00000000000E+00  0.63255631289E+01  0.63255631289E+01  0.00000000000E+00 0. -1.
         21   -1    0    0  503  502 -0.00000000000E+00 -0.00000000000E+00 -0.46154337216E+03  0.46154337216E+03  0.00000000000E+00 0.  1.
         21    1    1    2  503  501 -0.36625479076E+02 -0.18674157368E+01 -0.55808298064E+02  0.66779331322E+02  0.00000000000E+00 0. -1.
         21    1    1    2  504  502  0.36625479076E+02  0.18674157368E+01 -0.39940951096E+03  0.40108960396E+03  0.00000000000E+00 0.  1.
</event>
<event>
 4    1  0.1725802E+006  0.3832230E+02  0.7546771E-02  0.1358608E+00
         21   -1    0    0  504  501  0.00000000000E+00  0.00000000000E+00  0.15451667341E+03  0.15451667341E+03  0.00000000000E+00 0.  1.
         21   -1    0    0  503  502 -0.00000000000E+00 -0.00000000000E+00 -0.13576823067E+02  0.13576823067E+02  0.00000000000E+00 0. -1.
         21    1    1    2  503  501  0.16421743515E+02 -0.34625500689E+02  0.24439541756E+02  0.45452064412E+02  0.00000000000E+00 0. -1.
         21    1    1    2  504  502 -0.16421743515E+02  0.34625500689E+02  0.11650030859E+03  0.12264143207E+03  0.00000000000E+00 0.  1.
</event>
<event>
 4    1  0.1725802E+006  0.2424901E+02  0.7546771E-02  0.1477383E+00
         21   -1    0    0  503  501  0.00000000000E+00  0.00000000000E+00  0.87668919714E+01  0.87668919714E+01  0.00000000000E+00 0. -1.
         21   -1    0    0  501  502 -0.00000000000E+00 -0.00000000000E+00 -0.72355618513E+03  0.72355618513E+03  0.00000000000E+00 0.  1.
         21    1    1    2  503  504 -0.20563892825E+02  0.12850715921E+02 -0.86169802287E+01  0.25734547520E+02  0.00000000000E+00 0. -1.
         21    1    1    2  504  502  0.20563892825E+02 -0.12850715921E+02 -0.70617231293E+03  0.70658852959E+03  0.00000000000E+00 0.  1.
</event>
<event>
 4    1  0.1725802E+006  0.2004704E+02  0.7546771E-02  0.1533318E+00
         21   -1    0    0  504  501  0.00000000000E+00  0.00000000000E+00  0.37242080073E+03  0.37242080073E+03  0.00000000000E+00 0.  1.
         21   -1    0    0  501  502 -0.00000000000E+00 -0.00000000000E+00 -0.47588296298E+01  0.47588296298E+01  0.00000000000E+00 0.  1.
         21    1    1    2  503  502  0.15941932638E+02 -0.12154782550E+02  0.17996300045E+02  0.26939761884E+02  0.00000000000E+00 0.  1.
         21    1    1    2  504  503 -0.15941932638E+02  0.12154782550E+02  0.34966567105E+03  0.35023986847E+03  0.00000000000E+00 0.  1.
</event>
<event>
 4    1  0.1725802E+006  0.2236292E+02  0.7546771E-02  0.1500657E+00
         21   -1    0    0  502  501  0.00000000000E+00  0.00000000000E+00  0.59236715276E+01  0.59236715276E+01  0.00000000000E+00 0. -1.
         21   -1    0    0  503  502 -0.00000000000E+00 -0.00000000000E+00 -0.24850525503E+03  0.24850525503E+03  0.00000000000E+00 0.  1.
         21    1    1    2  503  504  0.93778690563E+01 -0.20301623694E+02 -0.22466164888E+03  0.22577191329E+03  0.00000000000E+00 0.  1.
         21    1    1    2  504  501 -0.93778690563E+01  0.20301623694E+02 -0.17919934623E+02  0.28657013270E+02  0.00000000000E+00 0. -1.
</event>
<event>
 4    1  0.1725802E+006  0.2932175E+02  0.7546771E-02  0.1425583E+00
         21   -1    0    0  504  501  0.00000000000E+00  0.00000000000E+00  0.58902805055E+01  0.58902805055E+01  0.00000000000E+00 0. -1.
         21   -1    0    0  503  502 -0.00000000000E+00 -0.00000000000E+00 -0.80451662435E+03  0.80451662435E+03  0.00000000000E+00 0. -1.
         21    1    1    2  503  501 -0.62129615007E+01  0.28655956922E+02 -0.76592046483E+03  0.76648152176E+03  0.00000000000E+00 0. -1.
         21    1    1    2  504  502  0.62129615007E+01 -0.28655956922E+02 -0.32705879011E+02  0.43925383090E+02  0.00000000000E+00 0. -1.
</event>
<event>
 4    1  0.1725802E+006  0.2190344E+02  0.7546771E-02  0.1506747E+00
         21   -1    0    0  504  501  0.00000000000E+00  0.00000000000E+00  0.10985656928E+02  0.10985656928E+02  0.00000000000E+00 0. -1.
         21   -1    0    0  503  502 -0.00000000000E+00 -0.00000000000E+00 -0.76896939388E+02  0.76896939388E+02  0.00000000000E+00 0. -1.
         21    1    1    2  503  501  0.10474872798E+02 -0.19236367786E+02 -0.61839373603E+02  0.65603878950E+02  0.00000000000E+00 0. -1.
         21    1    1    2  504  502 -0.10474872798E+02  0.19236367786E+02 -0.40719088559E+01  0.22278717365E+02  0.00000000000E+00 0. -1.
</event>
<event>
 4    1  0.1725802E+006  0.2044545E+02  0.7546771E-02  0.1527332E+00
         21   -1    0    0  502  501  0.00000000000E+00  0.00000000000E+00  0.90900783123E+02  0.90900783123E+02  0.00000000000E+00 0. -1.
         21   -1    0    0  504  502 -0.00000000000E+00 -0.00000000000E+00 -0.76176842760E+01  0.76176842760E+01  0.00000000000E+00 0. -1.
         21    1    1    2  503  501  0.71332915449E+01  0.19160704260E+02  0.72652402273E+02  0.75474419455E+02  0.00000000000E+00 0. -1.
         21    1    1    2  504  503 -0.71332915449E+01 -0.19160704260E+02  0.10630696575E+02  0.23044047945E+02  0.00000000000E+00 0. -1.
</event>
<event>
 4    1  0.1725802E+006  0.2052002E+02  0.7546771E-02  0.1526229E+00
         21   -1    0    0  503  501  0.00000000000E+00  0.00000000000E+00  0.17857047444E+03  0.17857047444E+03  0.00000000000E+00 0. -1.
         21   -1    0    0  504  502 -0.00000000000E+00 -0.00000000000E+00 -0.16180627659E+02  0.16180627659E+02  0.00000000000E+00 0. -1.
         21    1    1    2  503  502 -0.39389089727E+01 -0.20138430598E+02 -0.88060810693E+01  0.22329766112E+02  0.00000000000E+00 0. -1.
         21    1    1    2  504  501  0.39389089727E+01  0.20138430598E+02  0.17119592785E+03  0.17242133598E+03  0.00000000000E+00 0. -1.
</event>
<event>
 4    1  0.1725802E+006  0.2152041E+02  0.7546771E-02  0.1511963E+00
         21   -1    0    0  503  501  0.00000000000E+00  0.00000000000E+00  0.23982984712E+03  0.23982984712E+03  0.00000000000E+00 0. -1.
         21   -1    0    0  504  502 -0.00000000000E+00 -0.00000000000E+00 -0.77200496528E+01  0.77200496528E+01  0.00000000000E+00 0.  1.
         21    1    1    2  503  502  0.61076349005E+01 -0.20635523369E+02  0.88724317039E+01  0.23277630316E+02  0.00000000000E+00 0.  1.
         21    1    1    2  504  501 -0.61076349005E+01  0.20635523369E+02  0.22323736577E+03  0.22427226646E+03  0.00000000000E+00 0. -1.
</event>
<event>
 4    1  0.1725802E+006  0.2066778E+02  0.7546771E-02  0.1524061E+00
         21   -1    0    0  503  501  0.00000000000E+00  0.00000000000E+00  0.66431205233E+01  0.66431205233E+01  0.00000000000E+00 0.  1.
         21   -1    0    0  504  502 -0.00000000000E+00 -0.00000000000E+00 -0.45810496168E+03  0.45810496168E+03  0.00000000000E+00 0.  1.
         21    1    1    2  503  502 -0.15944770032E+02  0.13149963296E+02 -0.10281502792E+02  0.23083901874E+02  0.00000000000E+00 0.  1.
         21    1    1    2  504  501  0.15944770032E+02 -0.13149963296E+02 -0.44118033837E+03  0.44166418033E+03  0.00000000000E+00 0.  1.
</event>
<event>
 4    1  0.1725802E+006  0.2212979E+02  0.7546771E-02  0.1503724E+00
         21   -1    0    0  502  501  0.00000000000E+00  0.00000000000E+00  0.89427623560E+02  0.89427623560E+02  0.00000000000E+00 0.  1.
         21   -1    0    0  504  502 -0.00000000000E+00 -0.00000000000E+00 -0.19782455667E+03  0.19782455667E+03  0.00000000000E+00 0. -1.
         21    1    1    2  503  501  0.16147679395E+02  0.15132081413E+02  0.87425720022E+02  0.90183058049E+02  0.00000000000E+00 0.  1.
         21    1    1    2  504  503 -0.16147679395E+02 -0.15132081413E+02 -0.19582265313E+03  0.19706912218E+03  0.00000000000E+00 0. -1.
</event>
<event>
 4    1  0.1725802E+006  0.2597726E+02  0.7546771E-02  0.1458161E+00
         21   -1    0    0  504  501  0.00000000000E+00  0.00000000000E+00  0.37006510186E+03  0.37006510186E+03  0.00000000000E+00 0.  1.
         21   -1    0    0  501  502 -0.00000000000E+00 -0.00000000000E+00 -0.39251757454E+02  0.39251757454E+02  0.00000000000E+00 0.  1.
         21    1    1    2  503  502  0.17881822653E+02 -0.18842990963E+02 -0.34441335347E+02  0.43139581248E+02  0.00000000000E+00 0.  1.
         21    1    1    2  504  503 -0.17881822653E+02  0.18842990963E+02  0.36525467975E+03  0.36617727806E+03  0.00000000000E+00 0.  1.
</event>
<event>
 4    1  0.1725802E+006  0.3895542E+02  0.7546771E-02  0.1354718E+00
         21   -1    0    0  503  501  0.00000000000E+00  0.00000000000E+00  0.16991578565E+02  0.16991578565E+02  0.00000000000E+00 0. -1.
         21   -1    0    0  504  502 -0.00000000000E+00 -0.00000000000E+00 -0.27624518419E+03  0.27624518419E+03  0.00000000000E+00 0. -1.
         21    1    1    2  503  502  0.16897070245E+02 -0.35100058732E+02 -0.25023757394E+03  0.25325159134E+03  0.00000000000E+00 0. -1.
         21    1    1    2  504  501 -0.16897070245E+02  0.35100058732E+02 -0.90160316891E+01  0.39985171417E+02  0.00000000000E+00 0. -1.
</event>
<event>
 4    1  0.1725802E+006  0.2180152E+02  0.7546771E-02  0.1508122E+00
         21   -1    0    0  504  501  0.00000000000E+00  0.00000000000E+00  0.51822314998E+03  0.51822314998E+03  0.00000000000E+00 0.  1.
         21   -1    0    0  503  502 -0.00000000000E+00 -0.00000000000E+00 -0.84271323108E+03  0.84271323108E+03  0.00000000000E+00 0.  1.
         21    1    1    2  503  501  0.15471899406E+02  0.15359904602E+02 -0.84234282933E+03  0.84262491564E+03  0.00000000000E+00 0.  1.
         21    1    1    2  504  502 -0.15471899406E+02 -0.15359904602E+02  0.51785274822E+03  0.51831146542E+03  0.00000000000E+00 0.  1.
</event>
<event>
 4    1  0.1725802E+006  0.2296701E+02  0.7546771E-02  0.1492913E+00
         21   -1    0    0  504  501  0.00000000000E+00  0.00000000000E+00  0.23713590208E+02  0.23713590208E+02  0.00000000000E+00 0. -1.
         21   -1    0    0  501  502 -0.00000000000E+00 -0.00000000000E+00 -0.25126687982E+02  0.25126687982E+02  0.00000000000E+00 0. -1.
         21    1    1    2  503  502 -0.62562986840E+01 -0.22098470619E+02  0.75649430561E+01  0.24180819679E+02  0.00000000000E+00 0. -1.
         21    1    1    2  504  503  0.62562986840E+01  0.22098470619E+02 -0.89780408301E+01  0.24659458511E+02  0.00000000000E+00 0. -1.
</event>
<event>
 4    1  0.1725802E+006  0.2472819E+02  0.7546771E-02  0.1471867E+00
         21   -1    0    0  504  501  0.00000000000E+00  0.00000000000E+00  0.23842635979E+02  0.23842635979E+02  0.00000000000E+00 0.  1.
         21   -1    0    0  503  502 -0.00000000000E+00 -0.00000000000E+00 -0.81045785845E+02  0.81045785845E+02  0.00000000000E+00 0. -1.
         21    1    1    2  503  501 -0.17810655071E+02  0.17154124035E+02  0.14757887242E+02  0.28797198498E+02  0.00000000000E+00 0.  1.
         21    1    1    2  504  502  0.17810655071E+02 -0.17154124035E+02 -0.71961037109E+02  0.76091223326E+02  0.00000000000E+00 0. -1.
</event>
<event>
 4    1  0.1725802E+006  0.3194032E+02  0.7546771E-02  0.1403452E+00
         21   -1    0    0  504  501  0.00000000000E+00  0.00000000000E+00  0.22822161898E+03  0.22822161898E+03  0.00000000000E+00 0.  1.
         21   -1    0    0  503  502 -0.00000000000E+00 -0.00000000000E+00 -0.59859810793E+01  0.59859810793E+01  0.00000000000E+00 0.  1.
         21    1    1    2  503  501 -0.26902733789E+02  0.17217049536E+02  0.52188782042E+02  0.61187031723E+02  0.00000000000E+00 0.  1.
         21    1    1    2  504  502  0.26902733789E+02 -0.17217049536E+02  0.17004685586E+03  0.17302056834E+03  0.00000000000E+00 0.  1.
</event>
<event>
 4    1  0.1725802E+006  0.2844517E+02  0.7546771E-02  0.1433607E+00
         21   -1    0    0  503  501  0.00000000000E+00  0.00000000000E+00  0.61342968472E+02  0.61342968472E+02  0.00000000000E+00 0. -1.
         21   -1    0    0  504  502 -0.00000000000E+00 -0.00000000000E+00 -0.19269584582E+02  0.19269584582E+02  0.00000000000E+00 0. -1.
         21    1    1    2  503  502  0.11615655931E+02  0.25965438470E+02 -0.16027374864E+01  0.28490282994E+02  0.00000000000E+00 0. -1.
         21    1    1    2  504  501 -0.11615655931E+02 -0.25965438470E+02  0.43676121376E+02  0.52122270059E+02  0.00000000000E+00 0. -1.
</event>
<event>
 4    1  0.1725802E+006  0.8017705E+02  0.7546771E-02  0.1203437E+00
         21   -1    0    0  504  501  0.00000000000E+00  0.00000000000E+00  0.14151433044E+04  0.14151433044E+04  0.00000000000E+00 0. -1.
         21   -1    0    0  503  502 -0.00000000000E+00 -0.00000000000E+00 -0.97390403809E+01  0.97390403809E+01  0.00000000000E+00 0. -1.
         21    1    1    2  503  501  0.60064420190E+02  0.53109552693E+02  0.12231125619E+04  0.12257376139E+04  0.00000000000E+00 0. -1.
         21    1    1    2  504  502 -0.60064420190E+02 -0.53109552693E+02  0.18229170216E+03  0.19914473088E+03  0.00000000000E+00 0. -1.
</event>
<event>
 4    1  0.1725802E+006  0.2068232E+02  0.7546771E-02  0.1523849E+00
         21   -1    0    0  504  501  0.00000000000E+00  0.00000000000E+00  0.35869329080E+02  0.35869329080E+02  0.00000000000E+00 0.  1.
         21   -1    0    0  503  502 -0.00000000000E+00 -0.00000000000E+00 -0.16930301633E+02  0.16930301633E+02  0.00000000000E+00 0. -1.
         21    1    1    2  503  501 -0.18456729744E+02  0.93331346305E+01 -0.48841801736E+01  0.21251199751E+02  0.00000000000E+00 0. -1.
         21    1    1    2  504  502  0.18456729744E+02 -0.93331346305E+01  0.23823207621E+02  0.31548430963E+02  0.00000000000E+00 0.  1.
</event>
<event>
 4    1  0.1725802E+006  0.2396244E+02  0.7546771E-02  0.1480754E+00
         21   -1    0    0  504  501  0.00000000000E+00  0.00000000000E+00  0.96510536995E+01  0.96510536995E+01  0.00000000000E+00 0. -1.
         21   -1    0    0  503  502 -0.00000000000E+00 -0.00000000000E+00 -0.62177126101E+02  0.62177126101E+02  0.00000000000E+00 0. -1.
         21    1    1    2  503  501 -0.23851738694E+02  0.23006975087E+01 -0.33720855947E+02  0.41367798751E+02  0.00000000000E+00 0. -1.
         21    1    1    2  504  502  0.23851738694E+02 -0.23006975087E+01 -0.18805216455E+02  0.30460381049E+02  0.00000000000E+00 0. -1.
</event>
<event>
 4    1  0.1725802E+006  0.5071745E+02  0.7546771E-02  0.1295091E+00
         21   -1    0    0  503  501  0.00000000000E+00  0.00000000000E+00  0.14957133248E+03  0.14957133248E+03  0.00000000000E+00 0.  1.
         21   -1    0    0  504  502 -0.00000000000E+00 -0.00000000000E+00 -0.21811547740E+02  0.21811547740E+02  0.00000000000E+00 0.  1.
         21    1    1    2  503  502  0.12253799350E+01 -0.50702646223E+02  0.10329230949E+03  0.11507198221E+03  0.00000000000E+00 0.  1.
         21    1    1    2  504  501 -0.12253799350E+01  0.50702646223E+02  0.24467475258E+02  0.56310898017E+02  0.00000000000E+00 0.  1.
</event>
<event>
 4    1  0.1725802E+006  0.2520683E+02  0.7546771E-02  0.1466503E+00
         21   -1    0    0  503  501  0.00000000000E+00  0.00000000000E+00  0.83816993636E+02  0.83816993636E+02  0.00000000000E+00 0.  1.
         21   -1    0    0  504  502 -0.00000000000E+00 -0.00000000000E+00 -0.16073359101E+02  0.16073359101E+02  0.00000000000E+00 0. -1.
         21    1    1    2  503  502  0.20981534462E+02 -0.13969941590E+02 -0.24330069928E+01  0.25323972426E+02  0.00000000000E+00 0. -1.
         21    1    1    2  504  501 -0.20981534462E+02  0.13969941590E+02  0.70176641528E+02  0.74566380311E+02  0.00000000000E+00 0.  1.
</event>
<event>
 4    1  0.1725802E+006  0.2351172E+02  0.7546771E-02  0.1486170E+00
         21   -1    0    0  503  501  0.00000000000E+00  0.00000000000E+00  0.15580528090E+01  0.15580528090E+01  0.00000000000E+00 0.  1.
         21   -1    0    0  504  502 -0.00000000000E+00 -0.00000000000E+00 -0.38581183526E+03  0.38581183526E+03  0.00000000000E+00 0.  1.
         21    1    1    2  503  502  0.57239230941E+01  0.22804338864E+02 -0.13721660448E+03  0.13921637012E+03  0.00000000000E+00 0.  1.
         21    1    1    2  504  501 -0.57239230941E+01 -0.22804338864E+02 -0.24703717797E+03  0.24815351794E+03  0.00000000000E+00 0.  1.
</event>
<event>
 4    1  0.1725802E+006  0.5307299E+02  0.7546771E-02  0.1285372E+00
         21   -1    0    0  503  501  0.00000000000E+00  0.00000000000E+00  0.26491008570E+02  0.26491008570E+02  0.00000000000E+00 0. -1.
         21   -1    0    0  504  502 -0.00000000000E+00 -0.00000000000E+00 -0.10792124793E+03  0.10792124793E+03  0.00000000000E+00 0. -1.
         21    1    1    2  503  502 -0.47873078517E+02 -0.22910918347E+02 -0.48880320917E+02  0.72152807285E+02  0.00000000000E+00 0. -1.
         21    1    1    2  504  501  0.47873078517E+02  0.22910918347E+02 -0.32549918447E+02  0.62259449220E+02  0.00000000000E+00 0. -1.
</event>
<event>
 4    1  0.1725802E+006  0.4113098E+02  0.7546771E-02  0.1341983E+00
         21   -1    0    0  503  501  0.00000000000E+00  0.00000000000E+00  0.20948851650E+03  0.20948851650E+03  0.00000000000E+00 0.  1.
         21   -1    0    0  504  502 -0.00000000000E+00 -0.00000000000E+00 -0.46960504261E+02  0.46960504261E+02  0.00000000000E+00 0. -1.
         21    1    1    2  503  502 -0.39839357204E+02  0.10226584396E+02  0.19794359013E+03  0.20217176431E+03  0.00000000000E+00 0.  1.
         21    1    1    2  504  501  0.39839357204E+02 -0.10226584396E+02 -0.35415577889E+02  0.54277256452E+02  0.00000000000E+00 0. -1.
</event>
<event>
 4    1  0.1725802E+006  0.2151963E+02  0.7546771E-02  0.1511974E+00
         21   -1    0    0  502  501  0.00000000000E+00  0.00000000000E+00  0.95393277169E+00  0.95393277169E+00  0.00000000000E+00 0. -1.
         21   -1    0    0  503  502 -0.00000000000E+00 -0.00000000000E+00 -0.57691329880E+03  0.57691329880E+03  0.00000000000E+00 0. -1.
         21    1    1    2  503  504  0.15642743734E+02 -0.14778324686E+02 -0.40301923788E+03  0.40359336022E+03  0.00000000000E+00 0. -1.
         21    1    1    2  504  501 -0.15642743734E+02  0.14778324686E+02 -0.17294012814E+03  0.17427387135E+03  0.00000000000E+00 0. -1.
</event>
<event>
 4    1  0.1725802E+006  0.3027467E+02  0.7546771E-02  0.1417224E+00
         21   -1    0    0  503  501  0.00000000000E+00  0.00000000000E+00  0.44040390879E+03  0.44040390879E+03  0.00000000000E+00 0. -1.
         21   -1    0    0  504  502 -0.00000000000E+00 -0.00000000000E+00 -0.20858623906E+01  0.20858623906E+01  0.00000000000E+00 0. -1.
         21    1    1    2  503  502  0.13211867133E+01 -0.30245829553E+02  0.22965184011E+03  0.23163877786E+03  0.00000000000E+00 0. -1.
         21    1    1    2  504  501 -0.13211867133E+01  0.30245829553E+02  0.20866620629E+03  0.21085099333E+03  0.00000000000E+00 0. -1.
</event>
<event>
 4    1  0.1725802E+006  0.3971530E+02  0.7546771E-02  0.1350162E+00
         21   -1    0    0  504  501  0.00000000000E+00  0.00000000000E+00  0.10774008268E+03  0.10774008268E+03  0.00000000000E+00 0.  1.
         21   -1    0    0  503  502 -0.00000000000E+00 -0.00000000000E+00 -0.41253660022E+02  0.41253660022E+02  0.00000000000E+00 0.  1.
         21    1    1    2  503  501  0.80948736499E+01  0.38881593711E+02  0.93078833795E+02  0.10119770061E+03  0.00000000000E+00 0.  1.
         21    1    1    2  504  502 -0.80948736499E+01 -0.38881593711E+02 -0.26592411138E+02  0.47796042086E+02  0.00000000000E+00 0.  1.
</event>
<event>
 4    1  0.1725802E+006  0.3132830E+02  0.7546771E-02  0.1408394E+00
         21   -1    0    0  503  501  0.00000000000E+00  0.00000000000E+00  0.58215977737E+03  0.58215977737E+03  0.00000000000E+00 0.  1.
         21   -1    0    0  504  502 -0.00000000000E+00 -0.00000000000E+00 -0.38538718927E+01  0.38538718927E+01  0.00000000000E+00 0.  1.
         21    1    1    2  503  502  0.98716764774E+01 -0.29732345960E+02  0.50891670218E+03  0.50988005663E+03  0.00000000000E+00 0.  1.
         21    1    1    2  504  501 -0.98716764774E+01  0.29732345960E+02  0.69389203300E+02  0.76133592634E+02  0.00000000000E+00 0.  1.
</event>
<event>
 4    1  0.1725802E+006  0.2152233E+02  0.7546771E-02  0.1511936E+00
         21   -1    0    0  502  501  0.00000000000E+00  0.00000000000E+00  0.57854959960E+01  0.57854959960E+01  0.00000000000E+00 0.  1.
         21   -1    0    0  504  502 -0.00000000000E+00 -0.00000000000E+00 -0.18634286078E+03  0.18634286078E+03  0.00000000000E+00 0.  1.
         21    1    1    2  503  501 -0.76800257962E+01  0.20105420027E+02 -0.17730210282E+02  0.27884961311E+02  0.00000000000E+00 0.  1.
         21    1    1    2  504  503  0.76800257962E+01 -0.20105420027E+02 -0.16282715451E+03  0.16424339547E+03  0.00000000000E+00 0.  1.
</event>
<event>
 4    1  0.1725802E+006  0.6332693E+02  0.7546771E-02  0.1248929E+00
         21   -1    0    0  503  501  0.00000000000E+00  0.00000000000E+00  0.32170646486E+02  0.32170646486E+02  0.00000000000E+00 0.  1.
         21   -1    0    0  504  502 -0.00000000000E+00 -0.00000000000E+00 -0.83805467940E+03  0.83805467940E+03  0.00000000000E+00 0.  1.
         21    1    1    2  503  502 -0.42239763200E+02 -0.47181591277E+02 -0.80439191680E+03  0.80688081894E+03  0.00000000000E+00 0.  1.
         21    1    1    2  504  501  0.42239763200E+02  0.47181591277E+02 -0.14921161146E+01  0.63344506953E+02  0.00000000000E+00 0.  1.
</event>
<event>
 4    1  0.1725802E+006  0.2754541E+02  0.7546771E-02  0.1442205E+00
         21   -1    0    0  504  501  0.00000000000E+00  0.00000000000E+00  0.37254131043E+02  0.37254131043E+02  0.00000000000E+00 0.  1.
         21   -1    0    0  503  502 -0.00000000000E+00 -0.00000000000E+00 -0.33824421489E+02  0.33824421489E+02  0.00000000000E+00 0. -1.
         21    1    1    2  503  501  0.23706268276E+02  0.14027207545E+02 -0.20702097212E+02  0.34457604909E+02  0.00000000000E+00 0. -1.
         21    1    1    2  504  502 -0.23706268276E+02 -0.14027207545E+02  0.24131806766E+02  0.36620947624E+02  0.00000000000E+00 0.  1.
</event>
<event>
 4    1  0.1725802E+006  0.7169119E+02  0.7546771E-02  0.1224573E+00
         21   -1    0    0  502  501  0.00000000000E+00  0.00000000000E+00  0.31161108291E+02  0.31161108291E+02  0.00000000000E+00 0. -1.
         21   -1    0    0  504  502 -0.00000000000E+00 -0.00000000000E+00 -0.17274171153E+03  0.17274171153E+03  0.00000000000E+00 0. -1.
         21    1    1    2  503  501 -0.69065092097E+02 -0.19226032962E+02 -0.49119933225E+02  0.86904517316E+02  0.00000000000E+00 0. -1.
         21    1    1    2  504  503  0.69065092097E+02  0.19226032962E+02 -0.92460670018E+02  0.11699830251E+03  0.00000000000E+00 0. -1.
</event>
<event>
 4    1  0.1725802E+006  0.2113538E+02  0.7546771E-02  0.1517341E+00
         21   -1    0    0  504  501  0.00000000000E+00  0.00000000000E+00  0.56474452937E+01  0.56474452937E+01  0.00000000000E+00 0.  1.
         21   -1    0    0  503  502 -0.00000000000E+00 -0.00000000000E+00 -0.80021845906E+02  0.80021845906E+02  0.00000000000E+00 0.  1.
         21    1    1    2  503  501  0.13606843054E+02  0.16172764244E+02 -0.41788408405E+02  0.46829216929E+02  0.00000000000E+00 0.  1.
         21    1    1    2  504  502 -0.13606843054E+02 -0.16172764244E+02 -0.32585992207E+02  0.38840074270E+02  0.00000000000E+00 0.  1.
</event>
<event>
 4    1  0.1725802E+006  0.2189252E+02  0.7546771E-02  0.1506894E+00
         21   -1    0    0  504  501  0.00000000000E+00  0.00000000000E+00  0.24235539288E+02  0.24235539288E+02  0.00000000000E+00 0.  1.
         21   -1    0    0  503  502 -0.00000000000E+00 -0.00000000000E+00 -0.36350250103E+02  0.36350250103E+02  0.00000000000E+00 0. -1.
         21    1    1    2  503  501  0.40471411138E+01 -0.21515178652E+02 -0.26512562865E+02  0.34383110000E+02  0.00000000000E+00 0. -1.
         21    1    1    2  504  502 -0.40471411138E+01  0.21515178652E+02  0.14397852049E+02  0.26202679391E+02  0.00000000000E+00 0.  1.
</event>
<event>
 4    1  0.1725802E+006  0.2181018E+02  0.7546771E-02  0.1508005E+00
         21   -1    0    0  502  501  0.00000000000E+00  0.00000000000E+00  0.37415573920E+02  0.37415573920E+02  0.00000000000E+00 0.  1.
         21   -1    0    0  503  502 -0.00000000000E+00 -0.00000000000E+00 -0.59260886615E+02  0.59260886615E+02  0.00000000000E+00 0.  1.
         21    1    1    2  503  504 -0.17941071490E+02 -0.12401683697E+02 -0.53763124913E+02  0.58018595339E+02  0.00000000000E+00 0.  1.
         21    1    1    2  504  501  0.17941071490E+02  0.12401683697E+02  0.31917812218E+02  0.38657865196E+02  0.00000000000E+00 0.  1.
</event>
<event>
 4    1  0.1725802E+006  0.2565957E+02  0.7546771E-02  0.1461558E+00
         21   -1    0    0  503  501  0.00000000000E+00  0.00000000000E+00  0.38071821953E+02  0.38071821953E+02  0.00000000000E+00 0.  1.
         21   -1    0    0  504  502 -0.00000000000E+00 -0.00000000000E+00 -0.17464551555E+02  0.17464551555E+02  0.00000000000E+00 0.  1.
         21    1    1    2  503  502  0.12212818788E+02  0.22566797702E+02  0.75593895777E+01  0.26749909758E+02  0.00000000000E+00 0.  1.
         21    1    1    2  504  501 -0.12212818788E+02 -0.22566797702E+02  0.13047880820E+02  0.28786463749E+02  0.00000000000E+00 0.  1.
</event>
<event>
 4    1  0.1725802E+006  0.2186456E+02  0.7546771E-02  0.1507270E+00
         21   -1    0    0  502  501  0.00000000000E+00  0.00000000000E+00  0.14859166362E+03  0.14859166362E+03  0.00000000000E+00 0.  1.
         21   -1    0    0  503  502 -0.00000000000E+00 -0.00000000000E+00 -0.17558415391E+02  0.17558415391E+02  0.00000000000E+00 0. -1.
         21    1    1    2  503  504  0.86418675464E+01 -0.20084254737E+02 -0.95626129413E+01  0.23864256311E+02  0.00000000000E+00 0. -1.
         21    1    1    2  504  501 -0.86418675464E+01  0.20084254737E+02  0.14059586117E+03  0.14228582270E+03  0.00000000000E+00 0.  1.
</event>
<event>
 4    1  0.1725802E+006  0.2473223E+02  0.7546771E-02  0.1471821E+00
         21   -1    0    0  503  501  0.00000000000E+00  0.00000000000E+00  0.38974555411E+01  0.38974555411E+01  0.00000000000E+00 0.  1.
         21   -1    0    0  504  502 -0.00000000000E+00 -0.00000000000E+00 -0.19693284193E+03  0.19693284193E+03  0.00000000000E+00 0.  1.
         21    1    1    2  503  502  0.18280832915E+02  0.16658167745E+02 -0.51268797575E+02  0.56922517596E+02  0.00000000000E+00 0.  1.
         21    1    1    2  504  501 -0.18280832915E+02 -0.16658167745E+02 -0.14176658882E+03  0.14390777988E+03  0.00000000000E+00 0.  1.
</event>
<event>
 4    1  0.1725802E+006  0.3041743E+02  0.7546771E-02  0.1416003E+00
         21   -1    0    0  502  501  0.00000000000E+00  0.00000000000E+00  0.36215721513E+03  0.36215721513E+03  0.00000000000E+00 0. -1.
         21   -1    0    0  503  502 -0.00000000000E+00 -0.00000000000E+00 -0.11082888092E+02  0.11082888092E+02  0.00000000000E+00 0. -1.
         21    1    1    2  503  504 -0.98545555979E+01  0.28776861426E+02  0.11833264870E+02  0.32638109275E+02  0.00000000000E+00 0. -1.
         21    1    1    2  504  501  0.98545555979E+01 -0.28776861426E+02  0.33924106217E+03  0.34060199395E+03  0.00000000000E+00 0. -1.
</event>
<event>
 4    1  0.1725802E+006  0.2054396E+02  0.7546771E-02  0.1525877E+00
         21   -1    0    0  504  501  0.00000000000E+00  0.00000000000E+00  0.10536617974E+04  0.10536617974E+04  0.00000000000E+00 0. -1.
         21   -1    0    0  501  502 -0.00000000000E+00 -0.00000000000E+00 -0.75553278214E+01  0.75553278214E+01  0.00000000000E+00 0. -1.
         21    1    1    2  503  502 -0.82326525151E+01 -0.18822265104E+02  0.67018029269E+01  0.21609451487E+02  0.00000000000E+00 0. -1.
         21    1    1    2  504  503  0.82326525151E+01  0.18822265104E+02  0.10394046666E+04  0.10396076737E+04  0.00000000000E+00 0. -1.
</event>
<event>
 4    1  0.1725802E+006  0.4677467E+02  0.7546771E-02  0.1312797E+00
         21   -1    0    0  504  501  0.00000000000E+00  0.00000000000E+00  0.76684045799E+01  0.76684045799E+01  0.00000000000E+00 0.  1.
         21   -1    0    0  503  502 -0.00000000000E+00 -0.00000000000E+00 -0.32561636820E+03  0.32561636820E+03  0.00000000000E+00 0.  1.
         21    1    1    2  503  501 -0.38120133480E+02  0.27105810043E+02 -0.10034379188E+03  0.11071018961E+03  0.00000000000E+00 0.  1.
         21    1    1    2  504  502  0.38120133480E+02 -0.27105810043E+02 -0.21760417174E+03  0.22257458317E+03  0.00000000000E+00 0.  1.
</event>
<event>
 4    1  0.1725802E+006  0.2188420E+02  0.7546771E-02  0.1507006E+00
         21   -1    0    0  504  501  0.00000000000E+00  0.00000000000E+00  0.28048172570E+03  0.28048172570E+03  0.00000000000E+00 0.  1.
         21   -1    0    0  503  502 -0.00000000000E+00 -0.00000000000E+00 -0.93345262734E+01  0.93345262734E+01  0.00000000000E+00 0. -1.
         21    1    1    2  503  501 -0.52668328899E+01  0.21240969184E+02  0.26655953064E+03  0.26745635471E+03  0.00000000000E+00 0.  1.
         21    1    1    2  504  502  0.52668328899E+01 -0.21240969184E+02  0.45876687833E+01  0.22359897259E+02  0.00000000000E+00 0. -1.
</event>
<event>
 4    1  0.1725802E+006  0.4054918E+02  0.7546771E-02  0.1345297E+00
         21   -1    0    0  503  501  0.00000000000E+00  0.00000000000E+00  0.52954866646E+03  0.52954866646E+03  0.00000000000E+00 0.  1.
         21   -1    0    0  504  502 -0.00000000000E+00 -0.00000000000E+00 -0.18351035941E+02  0.18351035941E+02  0.00000000000E+00 0.  1.
         21    1    1    2  503  502 -0.32130949159E+02  0.24735368881E+02  0.58982216116E+01  0.40975912262E+02  0.00000000000E+00 0.  1.
         21    1    1    2  504  501  0.32130949159E+02 -0.24735368881E+02  0.50529940891E+03  0.50692379014E+03  0.00000000000E+00 0.  1.
</event>
<event>
 4    1  0.1725802E+006  0.2513757E+02  0.7546771E-02  0.1467270E+00
         21   -1    0    0  504  501  0.00000000000E+00  0.00000000000E+00  0.20697430695E+02  0.20697430695E+02  0.00000000000E+00 0. -1.
         21   -1    0    0  501  502 -0.00000000000E+00 -0.00000000000E+00 -0.47863321317E+02  0.47863321317E+02  0.00000000000E+00 0.  1.
         21    1    1    2  503  502  0.17878773028E+02 -0.17670504765E+02 -0.34212136808E+02  0.42454299766E+02  0.00000000000E+00 0.  1.
         21    1    1    2  504  503 -0.17878773028E+02  0.17670504765E+02  0.70462461860E+01  0.26106452247E+02  0.00000000000E+00 0. -1.
</event>
<event>
 4    1  0.1725802E+006  0.3780025E+02  0.7546771E-02  0.1361882E+00
         21   -1    0    0  504  501  0.00000000000E+00  0.00000000000E+00  0.14098138712E+03  0.14098138712E+03  0.00000000000E+00 0. -1.
         21   -1    0    0  503  502 -0.00000000000E+00 -0.00000000000E+00 -0.41288071734E+03  0.41288071734E+03  0.00000000000E+00 0.  1.
         21    1    1    2  503  501 -0.35393099552E+02  0.13273564037E+02  0.13756131934E+03  0.14266035040E+03  0.00000000000E+00 0. -1.
         21    1    1    2  504  502  0.35393099552E+02 -0.13273564037E+02 -0.40946064956E+03  0.41120175406E+03  0.00000000000E+00 0.  1.
</event>
<event>
 4    1  0.1725802E+006  0.2031513E+02  0.7546771E-02  0.1529272E+00
         21   -1    0    0  503  501  0.00000000000E+00  0.00000000000E+00  0.83694373647E+02  0.83694373647E+02  0.00000000000E+00 0.  1.
         21   -1    0    0  504  502 -0.00000000000E+00 -0.00000000000E+00 -0.73817458680E+02  0.73817458680E+02  0.00000000000E+00 0. -1.
         21    1    1    2  503  502  0.62171583690E+01  0.19340408852E+02  0.81018419942E+02  0.83526575667E+02  0.00000000000E+00 0.  1.
         21    1    1    2  504  501 -0.62171583690E+01 -0.19340408852E+02 -0.71141504975E+02  0.73985256659E+02  0.00000000000E+00 0. -1.
</event>
<event>
 4    1  0.1725802E+006  0.2850384E+02  0.7546771E-02  0.1433060E+00
         21   -1    0    0  504  501  0.00000000000E+00  0.00000000000E+00  0.11000062805E+03  0.11000062805E+03  0.00000000000E+00 0.  1.
         21   -1    0    0  503  502 -0.00000000000E+00 -0.00000000000E+00 -0.16048128888E+02  0.16048128888E+02  0.00000000000E+00 0.  1.
         21    1    1    2  503  501  0.26419723119E+02 -0.10698940664E+02  0.67340488613E+00  0.28511797122E+02  0.00000000000E+00 0.  1.
         21    1    1    2  504  502 -0.26419723119E+02  0.10698940664E+02  0.93279094272E+02  0.97536959811E+02  0.00000000000E+00 0.  1.
</event>
<event>
 4    1  0.1725802E+006  0.3223685E+02  0.7546771E-02  0.1401104E+00
         21   -1    0    0  504  501  0.00000000000E+00  0.00000000000E+00  0.79119625523E+02  0.79119625523E+02  0.00000000000E+00 0.  1.
         21   -1    0    0  503  502 -0.00000000000E+00 -0.00000000000E+00 -0.74536301594E+02  0.74536301594E+02  0.00000000000E+00 0. -1.
         21    1    1    2  503  501 -0.44099103981E+01 -0.31933795852E+02  0.72022543965E+02  0.78907930314E+02  0.00000000000E+00 0.  1.
         21    1    1    2  504  502  0.44099103981E+01  0.31933795852E+02 -0.67439220036E+02  0.74747996804E+02  0.00000000000E+00 0. -1.
</event>
<event>
 4    1  0.1725802E+006  0.3546895E+02  0.7546771E-02  0.1377296E+00
         21   -1    0    0  503  501  0.00000000000E+00  0.00000000000E+00  0.20141368871E+03  0.20141368871E+03  0.00000000000E+00 0.  1.
         21   -1    0    0  504  502 -0.00000000000E+00 -0.00000000000E+00 -0.62660470961E+01  0.62660470961E+01  0.00000000000E+00 0.  1.
         21    1    1    2  503  502  0.23706828850E+02 -0.26382437866E+02  0.91712650996E+02  0.98332380804E+02  0.00000000000E+00 0.  1.
         21    1    1    2  504  501 -0.23706828850E+02  0.26382437866E+02  0.10343499062E+03  0.10934735500E+03  0.00000000000E+00 0.  1.
</event>
<event>
 4    1  0.1725802E+006  0.2123160E+02  0.7546771E-02  0.1515984E+00
         21   -1    0    0  504  501  0.00000000000E+00  0.00000000000E+00  0.19124652647E+03  0.19124652647E+03  0.00000000000E+00 0. -1.
         21   -1    0    0  503  502 -0.00000000000E+00 -0.00000000000E+00 -0.49554688852E+01  0.49554688852E+01  0.00000000000E+00 0.  1.
         21    1    1    2  503  501 -0.36987358851E+01  0.20906946028E+02  0.22108606453E+02  0.30652430876E+02  0.00000000000E+00 0.  1.
         21    1    1    2  504  502  0.36987358851E+01 -0.20906946028E+02  0.16418245113E+03  0.16554956447E+03  0.00000000000E+00 0. -1.
</event>
<event>
 4    1  0.1725802E+006  0.3165069E+02  0.7546771E-02  0.1405774E+00
         21   -1    0    0  504  501  0.00000000000E+00  0.00000000000E+00  0.34339999702E+03  0.34339999702E+03  0.00000000000E+00 0.  1.
         21   -1    0    0  503  502 -0.00000000000E+00 -0.00000000000E+00 -0.41108793504E+01  0.41108793504E+01  0.00000000000E+00 0.  1.
         21    1    1    2  503  501  0.13129944397E+02  0.28798801653E+02  0.76014583268E+02  0.82340653908E+02  0.00000000000E+00 0.  1.
         21    1    1    2  504  502 -0.13129944397E+02 -0.28798801653E+02  0.26327453440E+03  0.26517022246E+03  0.00000000000E+00 0.  1.
</event>
<event>
 4    1  0.1725802E+006  0.2096193E+02  0.7546771E-02  0.1519809E+00
         21   -1    0    0  503  501  0.00000000000E+00  0.00000000000E+00  0.26047134589E+02  0.26047134589E+02  0.00000000000E+00 0. -1.
         21   -1    0    0  501  502 -0.00000000000E+00 -0.00000000000E+00 -0.17932479017E+03  0.17932479017E+03  0.00000000000E+00 0.  1.
         21    1    1    2  503  504  0.12507510406E+02  0.16821560402E+02  0.21097903793E+02  0.29740952496E+02  0.00000000000E+00 0. -1.
         21    1    1    2  504  502 -0.12507510406E+02 -0.16821560402E+02 -0.17437555938E+03  0.17563097226E+03  0.00000000000E+00 0.  1.
</event>
<event>
 4    1  0.1725802E+006  0.2595752E+02  0.7546771E-02  0.1458371E+00
         21   -1    0    0  503  501  0.00000000000E+00  0.00000000000E+00  0.62504266564E+03  0.62504266564E+03  0.00000000000E+00 0. -1.
         21   -1    0    0  501  502 -0.00000000000E+00 -0.00000000000E+00 -0.39563112846E+01  0.39563112846E+01  0.00000000000E+00 0.  1.
         21    1    1    2  503  504 -0.12654887514E+02  0.22663779192E+02  0.57879578313E+03  0.57937755535E+03  0.00000000000E+00 0. -1.
         21    1    1    2  504  502  0.12654887514E+02 -0.22663779192E+02  0.42290571224E+02  0.49621421581E+02  0.00000000000E+00 0.  1.
</event>
<event>
 4    1  0.1725802E+006  0.2011691E+02  0.7546771E-02  0.1532256E+00
         21   -1    0    0  504  501  0.00000000000E+00  0.00000000000E+00  0.14531699603E+02  0.14531699603E+02  0.00000000000E+00 0.  1.
         21   -1    0    0  501  502 -0.00000000000E+00 -0.00000000000E+00 -0.35484598816E+02  0.35484598816E+02  0.00000000000E+00 0.  1.
         21    1    1    2  503  502 -0.77148185947E+01 -0.18578798309E+02 -0.22077285356E+02  0.29867987901E+02  0.00000000000E+00 0.  1.
         21    1    1    2  504  503  0.77148185947E+01  0.18578798309E+02  0.11243861424E+01  0.20148310518E+02  0.00000000000E+00 0.  1.
</event>
<event>
 4    1  0.1725802E+006  0.2337994E+02  0.7546771E-02  0.1487782E+00
         21   -1    0    0  503  501  0.00000000000E+00  0.00000000000E+00  0.20245290664E+03  0.20245290664E+03  0.00000000000E+00 0. -1.
         21   -1    0    0  504  502 -0.00000000000E+00 -0.00000000000E+00 -0.35498965759E+01  0.35498965759E+01  0.00000000000E+00 0.  1.
         21    1    1    2  503  502 -0.22778022572E+02  0.52709874294E+01  0.14985026752E+03  0.15166319361E+03  0.00000000000E+00 0. -1.
         21    1    1    2  504  501  0.22778022572E+02 -0.52709874294E+01  0.49052742544E+02  0.54339609603E+02  0.00000000000E+00 0.  1.
</event>
<event>
 4    1  0.1725802E+006  0.2026750E+02  0.7546771E-02  0.1529985E+00
         21   -1    0    0  504  501  0.00000000000E+00  0.00000000000E+00  0.18320827906E+02  0.18320827906E+02  0.00000000000E+00 0.  1.
         21   -1    0    0  503  502 -0.00000000000E+00 -0.00000000000E+00 -0.31302922929E+02  0.31302922929E+02  0.00000000000E+00 0.  1.
         21    1    1    2  503  501  0.10214047860E+02  0.17505559482E+02 -0.19707670672E+02  0.28269483012E+02  0.00000000000E+00 0.  1.
         21    1    1    2  504  502 -0.10214047860E+02 -0.17505559482E+02  0.67255756488E+01  0.21354267823E+02  0.00000000000E+00 0.  1.
</event>
<event>
 4    1  0.1725802E+006  0.2832679E+02  0.7546771E-02  0.1434717E+00
         21   -1    0    0  504  501  0.00000000000E+00  0.00000000000E+00  0.18759674090E+03  0.18759674090E+03  0.00000000000E+00 0.  1.
         21   -1    0    0  503  502 -0.00000000000E+00 -0.00000000000E+00 -0.43526576256E+01  0.43526576256E+01  0.00000000000E+00 0.  1.
         21    1    1    2  503  501 -0.18135420679E+02  0.21760366167E+02  0.78993560762E+02  0.83918946971E+02  0.00000000000E+00 0.  1.
         21    1    1    2  504  502  0.18135420679E+02 -0.21760366167E+02  0.10425052251E+03  0.10803045155E+03  0.00000000000E+00 0.  1.
</event>
<event>
 4    1  0.1725802E+006  0.2603385E+02  0.7546771E-02  0.1457562E+00
         21   -1    0    0  502  501  0.00000000000E+00  0.00000000000E+00  0.32053624346E+02  0.32053624346E+02  0.00000000000E+00 0.  1.
         21   -1    0    0  504  502 -0.00000000000E+00 -0.00000000000E+00 -0.55899791879E+02  0.55899791879E+02  0.00000000000E+00 0. -1.
         21    1    1    2  503  501 -0.25643997511E+02  0.44885245698E+01  0.22752788113E+02  0.34575292162E+02  0.00000000000E+00 0.  1.
         21    1    1    2  504  503  0.25643997511E+02 -0.44885245698E+01 -0.46598955646E+02  0.53378124063E+02  0.00000000000E+00 0. -1.
</event>
<event>
 4    1  0.1725802E+006  0.2946594E+02  0.7546771E-02  0.1424295E+00
         21   -1    0    0  503  501  0.00000000000E+00  0.00000000000E+00  0.14732589891E+03  0.14732589891E+03  0.00000000000E+00 0.  1.
         21   -1    0    0  504  502 -0.00000000000E+00 -0.00000000000E+00 -0.96380755366E+01  0.96380755366E+01  0.00000000000E+00 0.  1.
         21    1    1    2  503  502  0.26242345879E+01 -0.29348849571E+02  0.11776379563E+03  0.12139420554E+03  0.00000000000E+00 0.  1.
         21    1    1    2  504  501 -0.26242345879E+01  0.29348849571E+02  0.19924027743E+02  0.35569768903E+02  0.00000000000E+00 0.  1.
</event>
<event>
 4    1  0.1725802E+006  0.2304067E+02  0.7546771E-02  0.1491988E+00
         21   -1    0    0  504  501  0.00000000000E+00  0.00000000000E+00  0.17880521255E+03  0.17880521255E+03  0.00000000000E+00 0. -1.
         21   -1    0    0  503  502 -0.00000000000E+00 -0.00000000000E+00 -0.29878839895E+01  0.29878839895E+01  0.00000000000E+00 0. -1.
         21    1    1    2  503  501  0.22950508961E+02 -0.20363643454E+01  0.95134941766E+02  0.97885288916E+02  0.00000000000E+00 0. -1.
         21    1    1    2  504  502 -0.22950508961E+02  0.20363643454E+01  0.80682386792E+02  0.83907807621E+02  0.00000000000E+00 0. -1.
</event>
<event>
 4    1  0.1725802E+006  0.2091108E+02  0.7546771E-02  0.1520538E+00
         21   -1    0    0  504  501  0.00000000000E+00  0.00000000000E+00  0.14745048930E+03  0.14745048930E+03  0.00000000000E+00 0.  1.
         21   -1    0    0  503  502 -0.00000000000E+00 -0.00000000000E+00 -0.69411902115E+02  0.69411902115E+02  0.00000000000E+00 0.  1.
         21    1    1    2  503  501 -0.13440006367E+02 -0.16019967475E+02  0.14510889464E+03  0.14660785938E+03  0.00000000000E+00 0.  1.
         21    1    1    2  504  502  0.13440006367E+02  0.16019967475E+02 -0.67070307455E+02  0.70254532033E+02  0.00000000000E+00 0.  1.
</event>
<event>
 4    1  0.1725802E+006  0.2232600E+02  0.7546771E-02  0.1501140E+00
         21   -1    0    0  504  501  0.00000000000E+00  0.00000000000E+00  0.49596591629E+01  0.49596591629E+01  0.00000000000E+00 0.  1.
         21   -1    0    0  501  502 -0.00000000000E+00 -0.00000000000E+00 -0.47690189486E+03  0.47690189486E+03  0.00000000000E+00 0.  1.
         21    1    1    2  503  502 -0.71756370228E+01  0.21141442337E+02 -0.45001514928E+03  0.45056862399E+03  0.00000000000E+00 0.  1.
         21    1    1    2  504  503  0.71756370228E+01 -0.21141442337E+02 -0.21927086419E+02  0.31292930026E+02  0.00000000000E+00 0.  1.
</event>
<event>
 4    1  0.1725802E+006  0.2768046E+02  0.7546771E-02  0.1440890E+00
         21   -1    0    0  503  501  0.00000000000E+00  0.00000000000E+00  0.52822643036E+03  0.52822643036E+03  0.00000000000E+00 0.  1.
         21   -1    0    0  504  502 -0.00000000000E+00 -0.00000000000E+00 -0.89787504607E+01  0.89787504607E+01  0.00000000000E+00 0. -1.
         21    1    1    2  503  502  0.20905446925E+02 -0.18143048817E+02  0.50557474751E+03  0.50633193979E+03  0.00000000000E+00 0.  1.
         21    1    1    2  504  501 -0.20905446925E+02  0.18143048817E+02  0.13672932387E+02  0.30873241028E+02  0.00000000000E+00 0. -1.
</event>
<event>
 4    1  0.1725802E+006  0.4056080E+02  0.7546771E-02  0.1345231E+00
         21   -1    0    0  504  501  0.00000000000E+00  0.00000000000E+00  0.10257403531E+03  0.10257403531E+03  0.00000000000E+00 0.  1.
         21   -1    0    0  503  502 -0.00000000000E+00 -0.00000000000E+00 -0.86523827854E+02  0.86523827854E+02  0.00000000000E+00 0.  1.
         21    1    1    2  503  501 -0.30112450264E+02  0.27173856813E+02 -0.77311781891E+02  0.87305725896E+02  0.00000000000E+00 0.  1.
         21    1    1    2  504  502  0.30112450264E+02 -0.27173856813E+02  0.93361989346E+02  0.10179213727E+03  0.00000000000E+00 0.  1.
</event>
<event>
 4    1  0.1725802E+006  0.2331901E+02  0.7546771E-02  0.1488531E+00
         21   -1    0    0  504  501  0.00000000000E+00  0.00000000000E+00  0.35373825898E+02  0.35373825898E+02  0.00000000000E+00 0. -1.
         21   -1    0    0  503  502 -0.00000000000E+00 -0.00000000000E+00 -0.21842006587E+02  0.21842006587E+02  0.00000000000E+00 0. -1.
         21    1    1    2  503  501  0.10161555687E+02 -0.20988543665E+02 -0.88038923794E+01  0.24925583247E+02  0.00000000000E+00 0. -1.
         21    1    1    2  504  502 -0.10161555687E+02  0.20988543665E+02  0.22335711691E+02  0.32290249239E+02  0.00000000000E+00 0. -1.
</event>
<event>
 4    1  0.1725802E+006  0.2414126E+02  0.7546771E-02  0.1478644E+00
         21   -1    0    0  502  501  0.00000000000E+00  0.00000000000E+00  0.25280540919E+01  0.25280540919E+01  0.00000000000E+00 0. -1.
         21   -1    0    0  503  502 -0.00000000000E+00 -0.00000000000E+00 -0.29965445201E+03  0.29965445201E+03  0.00000000000E+00 0. -1.
         21    1    1    2  503  504  0.84127218526E+01 -0.22627999242E+02 -0.22112949459E+03  0.22244337170E+03  0.00000000000E+00 0. -1.
         21    1    1    2  504  501 -0.84127218526E+01  0.22627999242E+02 -0.75996903335E+02  0.79739134402E+02  0.00000000000E+00 0. -1.
</event>
<event>
 4    1  0.1725802E+006  0.2464706E+02  0.7546771E-02  0.1472791E+00
         21   -1    0    0  503  501  0.00000000000E+00  0.00000000000E+00  0.11869746027E+03  0.11869746027E+03  0.00000000000E+00 0. -1.
         21   -1    0    0  504  502 -0.00000000000E+00 -0.00000000000E+00 -0.91918567147E+01  0.91918567147E+01  0.00000000000E+00 0. -1.
         21    1    1    2  503  502 -0.38896136053E+01 -0.24338212318E+02  0.12181916922E+02  0.27493213212E+02  0.00000000000E+00 0. -1.
         21    1    1    2  504  501  0.38896136053E+01  0.24338212318E+02  0.97323686634E+02  0.10039610377E+03  0.00000000000E+00 0. -1.
</event>
<event>
 4    1  0.1725802E+006  0.2113254E+02  0.7546771E-02  0.1517381E+00
         21   -1    0    0  503  501  0.00000000000E+00  0.00000000000E+00  0.53273181094E+02  0.53273181094E+02  0.00000000000E+00 0. -1.
         21   -1    0    0  504  502 -0.00000000000E+00 -0.00000000000E+00 -0.16324280201E+02  0.16324280201E+02  0.00000000000E+00 0. -1.
         21    1    1    2  503  502  0.16392272488E-01  0.21132529178E+02 -0.57969154970E+01  0.21913198932E+02  0.00000000000E+00 0. -1.
         21    1    1    2  504  501 -0.16392272488E-01 -0.21132529178E+02  0.42745816391E+02  0.47684262363E+02  0.00000000000E+00 0. -1.
</event>
<event>
 4    1  0.1725802E+006  0.2221471E+02  0.7546771E-02  0.1502602E+00
         21   -1    0    0  504  501  0.00000000000E+00  0.00000000000E+00  0.31579173325E+03  0.31579173325E+03  0.00000000000E+00 0. -1.
         21   -1    0    0  501  502 -0.00000000000E+00 -0.00000000000E+00 -0.69167273450E+01  0.69167273450E+01  0.00000000000E+00 0.  1.
         21    1    1    2  503  502  0.22207328280E+02 -0.57254359221E+00  0.12476318335E+02  0.25478456678E+02  0.00000000000E+00 0.  1.
         21    1    1    2  504  503 -0.22207328280E+02  0.57254359221E+00  0.29639868757E+03  0.29723000391E+03  0.00000000000E+00 0. -1.
</event>
<event>
 4    1  0.1725802E+006  0.2306735E+02  0.7546771E-02  0.1491654E+00
         21   -1    0    0  502  501  0.00000000000E+00  0.00000000000E+00  0.54178832867E+03  0.54178832867E+03  0.00000000000E+00 0.  1.
         21   -1    0    0  504  502 -0.00000000000E+00 -0.00000000000E+00 -0.98385488046E+00  0.98385488046E+00  0.00000000000E+00 0.  1.
         21    1    1    2  503  501  0.89471542473E+00  0.23049990741E+02  0.28178964677E+03  0.28273221892E+03  0.00000000000E+00 0.  1.
         21    1    1    2  504  503 -0.89471542473E+00 -0.23049990741E+02  0.25901482702E+03  0.26003996463E+03  0.00000000000E+00 0.  1.
</event>
<event>
 4    1  0.1725802E+006  0.2924861E+02  0.7546771E-02  0.1426240E+00
         21   -1    0    0  504  501  0.00000000000E+00  0.00000000000E+00  0.20106920468E+02  0.20106920468E+02  0.00000000000E+00 0.  1.
         21   -1    0    0  503  502 -0.00000000000E+00 -0.00000000000E+00 -0.10388537828E+03  0.10388537828E+03  0.00000000000E+00 0. -1.
         21    1    1    2  503  501 -0.46595307059E+01 -0.28875077910E+02  0.57489356566E+01  0.29808247380E+02  0.00000000000E+00 0.  1.
         21    1    1    2  504  502  0.46595307059E+01  0.28875077910E+02 -0.89527393466E+02  0.94184051365E+02  0.00000000000E+00 0. -1.
</event>
<event>
 4    1  0.1725802E+006  0.2605433E+02  0.7546771E-02  0.1457346E+00
         21   -1    0    0  504  501  0.00000000000E+00  0.00000000000E+00  0.49147614482E+02  0.49147614482E+02  0.00000000000E+00 0. -1.
         21   -1    0    0  503  502 -0.00000000000E+00 -0.00000000000E+00 -0.55118750137E+02  0.55118750137E+02  0.00000000000E+00 0. -1.
         21    1    1    2  503  501  0.25289244992E+02  0.62675704011E+01 -0.48116562858E+02  0.54717748239E+02  0.00000000000E+00 0. -1.
         21    1    1    2  504  502 -0.25289244992E+02 -0.62675704011E+01  0.42145427204E+02  0.49548616380E+02  0.00000000000E+00 0. -1.
</event>
<event>
 4    1  0.1725802E+006  0.2644928E+02  0.7546771E-02  0.1453220E+00
         21   -1    0    0  504  501  0.00000000000E+00  0.00000000000E+00  0.43037405832E+03  0.43037405832E+03  0.00000000000E+00 0.  1.
         21   -1    0    0  503  502 -0.00000000000E+00 -0.00000000000E+00 -0.20606216613E+01  0.20606216613E+01  0.00000000000E+00 0. -1.
         21    1    1    2  503  501  0.26381812118E+02  0.18879471975E+01  0.31351562468E+03  0.31462932361E+03  0.00000000000E+00 0.  1.
         21    1    1    2  504  502 -0.26381812118E+02 -0.18879471975E+01  0.11479781198E+03  0.11780535637E+03  0.00000000000E+00 0. -1.
</event>
<event>
 4    1  0.1725802E+006  0.2136598E+02  0.7546771E-02  0.1514103E+00
         21   -1    0    0  504  501  0.00000000000E+00  0.00000000000E+00  0.67207158482E+01  0.67207158482E+01  0.00000000000E+00 0.  1.
         21   -1    0    0  503  502 -0.00000000000E+00 -0.00000000000E+00 -0.92481704949E+02  0.92481704949E+02  0.00000000000E+00 0.  1.
         21    1    1    2  503  501  0.17820199396E+02 -0.11787526353E+02 -0.17321219101E+02  0.27505088896E+02  0.00000000000E+00 0.  1.
         21    1    1    2  504  502 -0.17820199396E+02  0.11787526353E+02 -0.68439770000E+02  0.71697331901E+02  0.00000000000E+00 0.  1.
</event>
<event>
 4    1  0.1725802E+006  0.2081321E+02  0.7546771E-02  0.1521948E+00
         21   -1    0    0  504  501  0.00000000000E+00  0.00000000000E+00  0.10825121436E+03  0.10825121436E+03  0.00000000000E+00 0.  1.
         21   -1    0    0  503  502 -0.00000000000E+00 -0.00000000000E+00 -0.21706084926E+02  0.21706084926E+02  0.00000000000E+00 0.  1.
         21    1    1    2  503  501 -0.18716687111E+02  0.91035959494E+01  0.10195663746E+03  0.10405933768E+03  0.00000000000E+00 0.  1.
         21    1    1    2  504  502  0.18716687111E+02 -0.91035959494E+01 -0.15411508029E+02  0.25897961606E+02  0.00000000000E+00 0.  1.
</event>
<event>
 4    1  0.1725802E+006  0.2002092E+02  0.7546771E-02  0.1533716E+00
         21   -1    0    0  502  501  0.00000000000E+00  0.00000000000E+00  0.13029574216E+02  0.13029574216E+02  0.00000000000E+00 0. -1.
         21   -1    0    0  504  502 -0.00000000000E+00 -0.00000000000E+00 -0.41667752789E+02  0.41667752789E+02  0.00000000000E+00 0. -1.
         21    1    1    2  503  501 -0.48218106979E+01  0.19431606854E+02 -0.32865730000E+00  0.20023616531E+02  0.00000000000E+00 0. -1.
         21    1    1    2  504  503  0.48218106979E+01 -0.19431606854E+02 -0.28309521273E+02  0.34673710474E+02  0.00000000000E+00 0. -1.
</event>
<event>
 4    1  0.1725802E+006  0.2279719E+02  0.7546771E-02  0.1495061E+00
         21   -1    0    0  503  501  0.00000000000E+00  0.00000000000E+00  0.71292423271E+02  0.71292423271E+02  0.00000000000E+00 0. -1.
         21   -1    0    0  504  502 -0.00000000000E+00 -0.00000000000E+00 -0.10420277176E+02  0.10420277176E+02  0.00000000000E+00 0. -1.
         21    1    1    2  503  502  0.14106762588E+02 -0.17908404686E+02  0.80426175252E+01  0.24174271566E+02  0.00000000000E+00 0. -1.
         21    1    1    2  504  501 -0.14106762588E+02  0.17908404686E+02  0.52829528570E+02  0.57538428881E+02  0.00000000000E+00 0. -1.
</event>
<event>
 4    1  0.1725802E+006  0.3799332E+02  0.7546771E-02  0.1360664E+00
         21   -1    0    0  504  501  0.00000000000E+00  0.00000000000E+00  0.11859423300E+02  0.11859423300E+02  0.00000000000E+00 0. -1.
         21   -1    0    0  503  502 -0.00000000000E+00 -0.00000000000E+00 -0.31491646814E+03  0.31491646814E+03  0.00000000000E+00 0. -1.
         21    1    1    2  503  501 -0.25003733254E+02 -0.28606040021E+02 -0.27950360121E+03  0.28207402449E+03  0.00000000000E+00 0. -1.
         21    1    1    2  504  502  0.25003733254E+02  0.28606040021E+02 -0.23553443636E+02  0.44701866957E+02  0.00000000000E+00 0. -1.
</event>
<event>
 4    1  0.1725802E+006  0.2478384E+02  0.7546771E-02  0.1471236E+00
         21   -1    0    0  503  501  0.00000000000E+00  0.00000000000E+00  0.12781699725E+02  0.12781699725E+02  0.00000000000E+00 0.  1.
         21   -1    0    0  504  502 -0.00000000000E+00 -0.00000000000E+00 -0.52951830228E+02  0.52951830228E+02  0.00000000000E+00 0.  1.
         21    1    1    2  503  502 -0.19746583914E+02 -0.14977013537E+02 -0.10091380174E+02  0.26759567720E+02  0.00000000000E+00 0.  1.
         21    1    1    2  504  501  0.19746583914E+02  0.14977013537E+02 -0.30078750330E+02  0.38973962233E+02  0.00000000000E+00 0.  1.
</event>
<event>
 4    1  0.1725802E+006  0.2782706E+02  0.7546771E-02  0.1439472E+00
         21   -1    0    0  504  501  0.00000000000E+00  0.00000000000E+00  0.45959811432E+02  0.45959811432E+02  0.00000000000E+00 0. -1.
         21   -1    0    0  503  502 -0.00000000000E+00 -0.00000000000E+00 -0.26327331579E+02  0.26327331579E+02  0.00000000000E+00 0.  1.
         21    1    1    2  503  501  0.62981692892E+01  0.27104948776E+02 -0.11871254590E+02  0.30253460465E+02  0.00000000000E+00 0.  1.
         21    1    1    2  504  502 -0.62981692892E+01 -0.27104948776E+02  0.31503734443E+02  0.42033682546E+02  0.00000000000E+00 0. -1.
</event>
<event>
 4    1  0.1725802E+006  0.2614009E+02  0.7546771E-02  0.1456443E+00
         21   -1    0    0  502  501  0.00000000000E+00  0.00000000000E+00  0.41537928938E+01  0.41537928938E+01  0.00000000000E+00 0. -1.
         21   -1    0    0  503  502 -0.00000000000E+00 -0.00000000000E+00 -0.19451066017E+03  0.19451066017E+03  0.00000000000E+00 0. -1.
         21    1    1    2  503  504  0.24904216972E+02 -0.79425719079E+01 -0.13419477924E+03  0.13671701886E+03  0.00000000000E+00 0. -1.
         21    1    1    2  504  501 -0.24904216972E+02  0.79425719079E+01 -0.56162088041E+02  0.61947434206E+02  0.00000000000E+00 0. -1.
</event>
<event>
 4    1  0.1725802E+006  0.2442703E+02  0.7546771E-02  0.1475316E+00
         21   -1    0    0  503  501  0.00000000000E+00  0.00000000000E+00  0.47382139875E+03  0.47382139875E+03  0.00000000000E+00 0.  1.
         21   -1    0    0  504  502 -0.00000000000E+00 -0.00000000000E+00 -0.48141395379E+02  0.48141395379E+02  0.00000000000E+00 0. -1.
         21    1    1    2  503  502 -0.24416604574E+02  0.71373624557E+00 -0.44705372437E+02  0.50943599432E+02  0.00000000000E+00 0. -1.
         21    1    1    2  504  501  0.24416604574E+02 -0.71373624557E+00  0.47038537580E+03  0.47101919469E+03  0.00000000000E+00 0.  1.
</event>
<event>
 4    1  0.1725802E+006  0.2171853E+02  0.7546771E-02  0.1509248E+00
         21   -1    0    0  503  501  0.00000000000E+00  0.00000000000E+00  0.12245551716E+03  0.12245551716E+03  0.00000000000E+00 0.  1.
         21   -1    0    0  501  502 -0.00000000000E+00 -0.00000000000E+00 -0.42977330636E+02  0.42977330636E+02  0.00000000000E+00 0.  1.
         21    1    1    2  503  504  0.14203484581E+02  0.16430330168E+02  0.11866166341E+03  0.12063285244E+03  0.00000000000E+00 0.  1.
         21    1    1    2  504  502 -0.14203484581E+02 -0.16430330168E+02 -0.39183476884E+02  0.44799995361E+02  0.00000000000E+00 0.  1.
</event>
<event>
 4    1  0.1725802E+006  0.2588207E+02  0.7546771E-02  0.1459173E+00
         21   -1    0    0  504  501  0.00000000000E+00  0.00000000000E+00  0.78034906375E+03  0.78034906375E+03  0.00000000000E+00 0.  1.
         21   -1    0    0  503  502 -0.00000000000E+00 -0.00000000000E+00 -0.12824099507E+01  0.12824099507E+01  0.00000000000E+00 0.  1.
         21    1    1    2  503  501  0.25768429195E+02  0.24226937501E+01  0.16482089420E+03  0.16684066816E+03  0.00000000000E+00 0.  1.
         21    1    1    2  504  502 -0.25768429195E+02 -0.24226937501E+01  0.61424575961E+03  0.61479080554E+03  0.00000000000E+00 0.  1.
</event>
<event>
 4    1  0.1725802E+006  0.2010137E+02  0.7546771E-02  0.1532492E+00
         21   -1    0    0  503  501  0.00000000000E+00  0.00000000000E+00  0.36774898678E+02  0.36774898678E+02  0.00000000000E+00 0.  1.
         21   -1    0    0  504  502 -0.00000000000E+00 -0.00000000000E+00 -0.11898735466E+02  0.11898735466E+02  0.00000000000E+00 0.  1.
         21    1    1    2  503  502  0.11655572868E+02 -0.16377198651E+02  0.57033018623E+01  0.20894799991E+02  0.00000000000E+00 0.  1.
         21    1    1    2  504  501 -0.11655572868E+02  0.16377198651E+02  0.19172861350E+02  0.27778834153E+02  0.00000000000E+00 0.  1.
</event>
<event>
 4    1  0.1725802E+006  0.2023411E+02  0.7546771E-02  0.1530487E+00
         21   -1    0    0  503  501  0.00000000000E+00  0.00000000000E+00  0.63316048520E+01  0.63316048520E+01  0.00000000000E+00 0.  1.
         21   -1    0    0  501  502 -0.00000000000E+00 -0.00000000000E+00 -0.72710532092E+02  0.72710532092E+02  0.00000000000E+00 0.  1.
         21    1    1    2  503  504  0.33413881473E+01  0.19956312274E+02 -0.20041246319E+02  0.28479305264E+02  0.00000000000E+00 0.  1.
         21    1    1    2  504  502 -0.33413881473E+01 -0.19956312274E+02 -0.46337680922E+02  0.50562831680E+02  0.00000000000E+00 0.  1.
</event>
<event>
 4    1  0.1725802E+006  0.2388384E+02  0.7546771E-02  0.1481688E+00
         21   -1    0    0  504  501  0.00000000000E+00  0.00000000000E+00  0.21825516349E+01  0.21825516349E+01  0.00000000000E+00 0.  1.
         21   -1    0    0  503  502 -0.00000000000E+00 -0.00000000000E+00 -0.17243186919E+04  0.17243186919E+04  0.00000000000E+00 0.  1.
         21    1    1    2  503  501  0.82038603114E+01  0.22430657169E+02 -0.16562083510E+04  0.16563805540E+04  0.00000000000E+00 0.  1.
         21    1    1    2  504  502 -0.82038603114E+01 -0.22430657169E+02 -0.65927789242E+02  0.70120689524E+02  0.00000000000E+00 0.  1.
</event>
<event>
 4    1  0.1725802E+006  0.2611393E+02  0.7546771E-02  0.1456718E+00
         21   -1    0    0  503  501  0.00000000000E+00  0.00000000000E+00  0.10212143295E+03  0.10212143295E+03  0.00000000000E+00 0.  1.
         21   -1    0    0  504  502 -0.00000000000E+00 -0.00000000000E+00 -0.24406223374E+02  0.24406223374E+02  0.00000000000E+00 0. -1.
         21    1    1    2  503  502  0.12739281351E+02 -0.22795792674E+02  0.92776541603E+02  0.96381658654E+02  0.00000000000E+00 0.  1.
         21    1    1    2  504  501 -0.12739281351E+02  0.22795792674E+02 -0.15061332028E+02  0.30145997669E+02  0.00000000000E+00 0. -1.
</event>
<event>
 4    1  0.1725802E+006  0.2032405E+02  0.7546771E-02  0.1529138E+00
         21   -1    0    0  503  501  0.00000000000E+00  0.00000000000E+00  0.17262011941E+02  0.17262011941E+02  0.00000000000E+00 0.  1.
         21   -1    0    0  504  502 -0.00000000000E+00 -0.00000000000E+00 -0.25393880226E+02  0.25393880226E+02  0.00000000000E+00 0.  1.
         21    1    1    2  503  502 -0.12537328391E+02 -0.15996325157E+02  0.10561688160E+01  0.20351474499E+02  0.00000000000E+00 0.  1.
         21    1    1    2  504  501  0.12537328391E+02  0.15996325157E+02 -0.91880371012E+01  0.22304417668E+02  0.00000000000E+00 0.  1.
</event>
<event>
 4    1  0.1725802E+006  0.2879277E+02  0.7546771E-02  0.1430385E+00
         21   -1    0    0  504  501  0.00000000000E+00  0.00000000000E+00  0.47450082404E+02  0.47450082404E+02  0.00000000000E+00 0.  1.
         21   -1    0    0  503  502 -0.00000000000E+00 -0.00000000000E+00 -0.31921852291E+02  0.31921852291E+02  0.00000000000E+00 0.  1.
         21    1    1    2  503  501  0.28787340019E+02  0.55916435474E+00 -0.18937178790E+02  0.34462158242E+02  0.00000000000E+00 0.  1.
         21    1    1    2  504  502 -0.28787340019E+02 -0.55916435474E+00  0.34465408904E+02  0.44909776453E+02  0.00000000000E+00 0.  1.
</event>
<event>
 4    1  0.1725802E+006  0.3854828E+02  0.7546771E-02  0.1357209E+00
         21   -1    0    0  503  501  0.00000000000E+00  0.00000000000E+00  0.28264429533E+03  0.28264429533E+03  0.00000000000E+00 0. -1.
         21   -1    0    0  504  502 -0.00000000000E+00 -0.00000000000E+00 -0.72565793259E+01  0.72565793259E+01  0.00000000000E+00 0. -1.
         21    1    1    2  503  502  0.16060250953E+01  0.38514804929E+02  0.61611984008E+02  0.72677411131E+02  0.00000000000E+00 0. -1.
         21    1    1    2  504  501 -0.16060250953E+01 -0.38514804929E+02  0.21377573200E+03  0.21722346353E+03  0.00000000000E+00 0. -1.
</event>
<event>
 4    1  0.1725802E+006  0.2294497E+02  0.7546771E-02  0.1493190E+00
         21   -1    0    0  502  501  0.00000000000E+00  0.00000000000E+00  0.72175305828E+01  0.72175305828E+01  0.00000000000E+00 0.  1.
         21   -1    0    0  504  502 -0.00000000000E+00 -0.00000000000E+00 -0.12544491551E+03  0.12544491551E+03  0.00000000000E+00 0.  1.
         21    1    1    2  503  501 -0.35855000877E+01  0.22663094091E+02 -0.16201851145E+02  0.28088638721E+02  0.00000000000E+00 0.  1.
         21    1    1    2  504  503  0.35855000877E+01 -0.22663094091E+02 -0.10202553378E+03  0.10457380737E+03  0.00000000000E+00 0.  1.
</event>
<event>
 4    1  0.1725802E+006  0.2340394E+02  0.7546771E-02  0.1487487E+00
         21   -1    0    0  502  501  0.00000000000E+00  0.00000000000E+00  0.13837530454E+01  0.13837530454E+01  0.00000000000E+00 0.  1.
         21   -1    0    0  504  502 -0.00000000000E+00 -0.00000000000E+00 -0.12554551396E+04  0.12554551396E+04  0.00000000000E+00 0.  1.
         21    1    1    2  503  501  0.10518496447E+02 -0.20907075474E+02 -0.10703839563E+03  0.10956716073E+03  0.00000000000E+00 0.  1.
         21    1    1    2  504  503 -0.10518496447E+02  0.20907075474E+02 -0.11470329909E+04  0.11472717319E+04  0.00000000000E+00 0.  1.
</event>
<event>
 4    1  0.1725802E+006  0.2695798E+02  0.7546771E-02  0.1448031E+00
         21   -1    0    0  504  501  0.00000000000E+00  0.00000000000E+00  0.46824450482E+02  0.46824450482E+02  0.00000000000E+00 0.  1.
         21   -1    0    0  501  502 -0.00000000000E+00 -0.00000000000E+00 -0.84674971771E+02  0.84674971771E+02  0.00000000000E+00 0. -1.
         21    1    1    2  503  502  0.16471970974E+02  0.21340264002E+02 -0.78344469902E+02  0.82852813228E+02  0.00000000000E+00 0. -1.
         21    1    1    2  504  503 -0.16471970974E+02 -0.21340264002E+02  0.40493948613E+02  0.48646609026E+02  0.00000000000E+00 0.  1.
</event>
<event>
 4    1  0.1725802E+006  0.3803591E+02  0.7546771E-02  0.1360396E+00
         21   -1    0    0  504  501  0.00000000000E+00  0.00000000000E+00  0.97118752493E+01  0.97118752493E+01  0.00000000000E+00 0.  1.
         21   -1    0    0  503  502 -0.00000000000E+00 -0.00000000000E+00 -0.38610664834E+03  0.38610664834E+03  0.00000000000E+00 0.  1.
         21    1    1    2  503  501  0.38034643296E+02  0.30997325587E+00 -0.34329900594E+03  0.34539967813E+03  0.00000000000E+00 0.  1.
         21    1    1    2  504  502 -0.38034643296E+02 -0.30997325587E+00 -0.33095767153E+02  0.50418845460E+02  0.00000000000E+00 0.  1.
</event>
<event>
 4    1  0.1725802E+006  0.2531163E+02  0.7546771E-02  0.1465347E+00
         21   -1    0    0  503  501  0.00000000000E+00  0.00000000000E+00  0.33916931207E+01  0.33916931207E+01  0.00000000000E+00 0. -1.
         21   -1    0    0  501  502 -0.00000000000E+00 -0.00000000000E+00 -0.25378847764E+03  0.25378847764E+03  0.00000000000E+00 0. -1.
         21    1    1    2  503  504 -0.16191133053E+02  0.19455743485E+02 -0.60175354979E+02  0.65282096251E+02  0.00000000000E+00 0. -1.
         21    1    1    2  504  502  0.16191133053E+02 -0.19455743485E+02 -0.19022142954E+03  0.19189807451E+03  0.00000000000E+00 0. -1.
</event>
<event>
 4    1  0.1725802E+006  0.3613516E+02  0.7546771E-02  0.1372754E+00
         21   -1    0    0  503  501  0.00000000000E+00  0.00000000000E+00  0.28980558583E+03  0.28980558583E+03  0.00000000000E+00 0. -1.
         21   -1    0    0  504  502 -0.00000000000E+00 -0.00000000000E+00 -0.25613050374E+02  0.25613050374E+02  0.00000000000E+00 0.  1.
         21    1    1    2  503  502 -0.57310638823E+00 -0.36130612818E+02  0.27526379836E+03  0.27762548212E+03  0.00000000000E+00 0. -1.
         21    1    1    2  504  501  0.57310638823E+00  0.36130612818E+02 -0.11071262904E+02  0.37793154087E+02  0.00000000000E+00 0.  1.
</event>
<event>
 4    1  0.1725802E+006  0.2525567E+02  0.7546771E-02  0.1465963E+00
         21   -1    0    0  503  501  0.00000000000E+00  0.00000000000E+00  0.48882008626E+01  0.48882008626E+01  0.00000000000E+00 0.  1.
         21   -1    0    0  504  502 -0.00000000000E+00 -0.00000000000E+00 -0.48543298177E+03  0.48543298177E+03  0.00000000000E+00 0. -1.
         21    1    1    2  503  502  0.12836614042E+02 -0.21750174774E+02 -0.44990888531E+03  0.45061719213E+03  0.00000000000E+00 0. -1.
         21    1    1    2  504  501 -0.12836614042E+02  0.21750174774E+02 -0.30635895600E+02  0.39703990505E+02  0.00000000000E+00 0.  1.
</event>
<event>
 4    1  0.1725802E+006  0.2189534E+02  0.7546771E-02  0.1506856E+00
         21   -1    0    0  503  501  0.00000000000E+00  0.00000000000E+00  0.25624871678E+02  0.25624871678E+02  0.00000000000E+00 0. -1.
         21   -1    0    0  501  502 -0.00000000000E+00 -0.00000000000E+00 -0.32899091977E+02  0.32899091977E+02  0.00000000000E+00 0.  1.
         21    1    1    2  503  504 -0.12899337160E+02  0.17692172702E+02  0.15580981848E+02  0.26873274259E+02  0.00000000000E+00 0. -1.
         21    1    1    2  504  502  0.12899337160E+02 -0.17692172702E+02 -0.22855202147E+02  0.31650689396E+02  0.00000000000E+00 0.  1.
</event>
<event>
 4    1  0.1725802E+006  0.2032712E+02  0.7546771E-02  0.1529092E+00
         21   -1    0    0  503  501  0.00000000000E+00  0.00000000000E+00  0.15287244419E+02  0.15287244419E+02  0.00000000000E+00 0. -1.
         21   -1    0    0  501  502 -0.00000000000E+00 -0.00000000000E+00 -0.72717746676E+02  0.72717746676E+02  0.00000000000E+00 0. -1.
         21    1    1    2  503  504 -0.20204614681E+02  0.22283339057E+01  0.61637388994E+01  0.21241082920E+02  0.00000000000E+00 0. -1.
         21    1    1    2  504  502  0.20204614681E+02 -0.22283339057E+01 -0.63594241157E+02  0.66763908174E+02  0.00000000000E+00 0. -1.
</event>
<event>
 4    1  0.1725802E+006  0.2022017E+02  0.7546771E-02  0.1530696E+00
         21   -1    0    0  503  501  0.00000000000E+00  0.00000000000E+00  0.13367020953E+02  0.13367020953E+02  0.00000000000E+00 0. -1.
         21   -1    0    0  504  502 -0.00000000000E+00 -0.00000000000E+00 -0.34058277374E+02  0.34058277374E+02  0.00000000000E+00 0.  1.
         21    1    1    2  503  502  0.76554825452E+01  0.18714936420E+02 -0.17916081319E+02  0.27015573805E+02  0.00000000000E+00 0.  1.
         21    1    1    2  504  501 -0.76554825452E+01 -0.18714936420E+02 -0.27751751021E+01  0.20409724521E+02  0.00000000000E+00 0. -1.
</event>
<event>
 4    1  0.1725802E+006  0.3683487E+02  0.7546771E-02  0.1368103E+00
         21   -1    0    0  503  501  0.00000000000E+00  0.00000000000E+00  0.20984611758E+03  0.20984611758E+03  0.00000000000E+00 0. -1.
         21   -1    0    0  501  502 -0.00000000000E+00 -0.00000000000E+00 -0.12354925813E+02  0.12354925813E+02  0.00000000000E+00 0. -1.
         21    1    1    2  503  504  0.35041290209E+02 -0.11354109508E+02  0.17545067376E+03  0.17927561671E+03  0.00000000000E+00 0. -1.
         21    1    1    2  504  502 -0.35041290209E+02  0.11354109508E+02  0.22040518006E+02  0.42925426687E+02  0.00000000000E+00 0. -1.
</event>
<event>
 4    1  0.1725802E+006  0.2081237E+02  0.7546771E-02  0.1521961E+00
         21   -1    0    0  502  501  0.00000000000E+00  0.00000000000E+00  0.26711482228E+02  0.26711482228E+02  0.00000000000E+00 0.  1.
         21   -1    0    0  504  502 -0.00000000000E+00 -0.00000000000E+00 -0.91680210061E+02  0.91680210061E+02  0.00000000000E+00 0.  1.
         21    1    1    2  503  501  0.20804592798E+02 -0.56905529567E+00  0.21221757016E+02  0.29724028600E+02  0.00000000000E+00 0.  1.
         21    1    1    2  504  503 -0.20804592798E+02  0.56905529567E+00 -0.86190484849E+02  0.88667663688E+02  0.00000000000E+00 0.  1.
</event>
<event>
 4    1  0.1725802E+006  0.2447839E+02  0.7546771E-02  0.1474724E+00
         21   -1    0    0  504  501  0.00000000000E+00  0.00000000000E+00  0.11744090700E+02  0.11744090700E+02  0.00000000000E+00 0.  1.
         21   -1    0    0  501  502 -0.00000000000E+00 -0.00000000000E+00 -0.78757406624E+02  0.78757406624E+02  0.00000000000E+00 0.  1.
         21    1    1    2  503  502  0.17699651028E+02  0.16908989342E+02 -0.60360573549E+02  0.65135170271E+02  0.00000000000E+00 0.  1.
         21    1    1    2  504  503 -0.17699651028E+02 -0.16908989342E+02 -0.66527423754E+01  0.25366327053E+02  0.00000000000E+00 0.  1.
</event>
<event>
 4    1  0.1725802E+006  0.4921563E+02  0.7546771E-02  0.1301609E+00
         21   -1    0    0  504  501  0.00000000000E+00  0.00000000000E+00  0.97051310562E+03  0.97051310562E+03  0.00000000000E+00 0. -1.
         21   -1    0    0  503  502 -0.00000000000E+00 -0.00000000000E+00 -0.59776144798E+01  0.59776144798E+01  0.00000000000E+00 0. -1.
         21    1    1    2  503  501 -0.49130543044E+02 -0.28927422608E+01  0.85489859938E+03  0.85631407406E+03  0.00000000000E+00 0. -1.
         21    1    1    2  504  502  0.49130543044E+02  0.28927422608E+01  0.10963689176E+03  0.12017664603E+03  0.00000000000E+00 0. -1.
</event>
<event>
 4    1  0.1725802E+006  0.2259962E+02  0.7546771E-02  0.1497588E+00
         21   -1    0    0  504  501  0.00000000000E+00  0.00000000000E+00  0.23636502697E+02  0.23636502697E+02  0.00000000000E+00 0.  1.
         21   -1    0    0  503  502 -0.00000000000E+00 -0.00000000000E+00 -0.24930320748E+02  0.24930320748E+02  0.00000000000E+00 0.  1.
         21    1    1    2  503  501 -0.83230345245E+01 -0.21011186394E+02 -0.95113606381E+01  0.24519560325E+02  0.00000000000E+00 0.  1.
         21    1    1    2  504  502  0.83230345245E+01  0.21011186394E+02  0.82175425874E+01  0.24047263120E+02  0.00000000000E+00 0.  1.
</event>
<event>
 4    1  0.1725802E+006  0.3075236E+02  0.7546771E-02  0.1413169E+00
         21   -1    0    0  502  501  0.00000000000E+00  0.00000000000E+00  0.70795702963E+02  0.70795702963E+02  0.00000000000E+00 0. -1.
         21   -1    0    0  503  502 -0.00000000000E+00 -0.00000000000E+00 -0.55992409743E+02  0.55992409743E+02  0.00000000000E+00 0.  1.
         21    1    1    2  503  504  0.30750667714E+02  0.32220100501E+00 -0.47915881784E+02  0.56935394137E+02  0.00000000000E+00 0.  1.
         21    1    1    2  504  501 -0.30750667714E+02 -0.32220100501E+00  0.62719175004E+02  0.69852718570E+02  0.00000000000E+00 0. -1.
</event>
<event>
 4    1  0.1725802E+006  0.3536602E+02  0.7546771E-02  0.1378008E+00
         21   -1    0    0  504  501  0.00000000000E+00  0.00000000000E+00  0.16184554807E+03  0.16184554807E+03  0.00000000000E+00 0. -1.
         21   -1    0    0  501  502 -0.00000000000E+00 -0.00000000000E+00 -0.71807117580E+03  0.71807117580E+03  0.00000000000E+00 0.  1.
         21    1    1    2  503  502  0.24819968135E+02 -0.25193742051E+02 -0.71569729461E+03  0.71657056384E+03  0.00000000000E+00 0.  1.
         21    1    1    2  504  503 -0.24819968135E+02  0.25193742051E+02  0.15947166688E+03  0.16334616002E+03  0.00000000000E+00 0. -1.
</event>
<event>
 4    1  0.1725802E+006  0.3116686E+02  0.7546771E-02  0.1409720E+00
         21   -1    0    0  502  501  0.00000000000E+00  0.00000000000E+00  0.54509601974E+02  0.54509601974E+02  0.00000000000E+00 0.  1.
         21   -1    0    0  504  502 -0.00000000000E+00 -0.00000000000E+00 -0.91602512832E+03  0.91602512832E+03  0.00000000000E+00 0. -1.
         21    1    1    2  503  501 -0.42609204275E+01  0.30874221452E+02  0.49766259645E+02  0.58720129362E+02  0.00000000000E+00 0.  1.
         21    1    1    2  504  503  0.42609204275E+01 -0.30874221452E+02 -0.91128178600E+03  0.91181460094E+03  0.00000000000E+00 0. -1.
</event>
<event>
 4    1  0.1725802E+006  0.2174805E+02  0.7546771E-02  0.1508847E+00
         21   -1    0    0  503  501  0.00000000000E+00  0.00000000000E+00  0.24512791753E+03  0.24512791753E+03  0.00000000000E+00 0. -1.
         21   -1    0    0  501  502 -0.00000000000E+00 -0.00000000000E+00 -0.12986156166E+03  0.12986156166E+03  0.00000000000E+00 0. -1.
         21    1    1    2  503  504 -0.35370647067E+01 -0.21458488542E+02  0.24372978447E+03  0.24469815160E+03  0.00000000000E+00 0. -1.
         21    1    1    2  504  502  0.35370647067E+01  0.21458488542E+02 -0.12846342861E+03  0.13029132760E+03  0.00000000000E+00 0. -1.
</event>
<event>
 4    1  0.1725802E+006  0.3578724E+02  0.7546771E-02  0.1375112E+00
         21   -1    0    0  504  501  0.00000000000E+00  0.00000000000E+00  0.21822189509E+03  0.21822189509E+03  0.00000000000E+00 0.  1.
         21   -1    0    0  503  502 -0.00000000000E+00 -0.00000000000E+00 -0.70552220151E+01  0.70552220151E+01  0.00000000000E+00 0.  1.
         21    1    1    2  503  501 -0.14299154046E+02  0.32806414276E+02  0.15177137946E+03  0.15593356998E+03  0.00000000000E+00 0.  1.
         21    1    1    2  504  502  0.14299154046E+02 -0.32806414276E+02  0.59395293617E+02  0.69343547125E+02  0.00000000000E+00 0.  1.
</event>
<event>
 4    1  0.1725802E+006  0.2019168E+02  0.7546771E-02  0.1531125E+00
         21   -1    0    0  503  501  0.00000000000E+00  0.00000000000E+00  0.45202168451E+01  0.45202168451E+01  0.00000000000E+00 0. -1.
         21   -1    0    0  504  502 -0.00000000000E+00 -0.00000000000E+00 -0.10015210311E+03  0.10015210311E+03  0.00000000000E+00 0. -1.
         21    1    1    2  503  502 -0.32077374011E+01 -0.19935256849E+02 -0.31314442967E+02  0.37259876317E+02  0.00000000000E+00 0. -1.
         21    1    1    2  504  501  0.32077374011E+01  0.19935256849E+02 -0.64317443301E+02  0.67412443641E+02  0.00000000000E+00 0. -1.
</event>
<event>
 4    1  0.1725802E+006  0.2065183E+02  0.7546771E-02  0.1524294E+00
         21   -1    0    0  503  501  0.00000000000E+00  0.00000000000E+00  0.45717388106E+01  0.45717388106E+01  0.00000000000E+00 0. -1.
         21   -1    0    0  504  502 -0.00000000000E+00 -0.00000000000E+00 -0.93467955793E+02  0.93467955793E+02  0.00000000000E+00 0. -1.
         21    1    1    2  503  502 -0.47341227978E+01 -0.20101889471E+02 -0.46586558598E+02  0.50958859102E+02  0.00000000000E+00 0. -1.
         21    1    1    2  504  501  0.47341227978E+01  0.20101889471E+02 -0.42309658384E+02  0.47080835502E+02  0.00000000000E+00 0. -1.
</event>
<event>
 4    1  0.1725802E+006  0.2615552E+02  0.7546771E-02  0.1456281E+00
         21   -1    0    0  503  501  0.00000000000E+00  0.00000000000E+00  0.17507700001E+02  0.17507700001E+02  0.00000000000E+00 0. -1.
         21   -1    0    0  504  502 -0.00000000000E+00 -0.00000000000E+00 -0.64607819628E+03  0.64607819628E+03  0.00000000000E+00 0. -1.
         21    1    1    2  503  502  0.83848932447E+01  0.24775084721E+02 -0.63588828513E+03  0.63642597560E+03  0.00000000000E+00 0. -1.
         21    1    1    2  504  501 -0.83848932447E+01 -0.24775084721E+02  0.73177888482E+01  0.27159920679E+02  0.00000000000E+00 0. -1.
</event>
<event>
 4    1  0.1725802E+006  0.2472561E+02  0.7546771E-02  0.1471896E+00
         21   -1    0    0  502  501  0.00000000000E+00  0.00000000000E+00  0.30275037708E+02  0.30275037708E+02  0.00000000000E+00 0.  1.
         21   -1    0    0  503  502 -0.00000000000E+00 -0.00000000000E+00 -0.34093364972E+02  0.34093364972E+02  0.00000000000E+00 0.  1.
         21    1    1    2  503  504  0.20876524818E+02  0.13248643610E+02 -0.22459299964E+02  0.33403233389E+02  0.00000000000E+00 0.  1.
         21    1    1    2  504  501 -0.20876524818E+02 -0.13248643610E+02  0.18640972700E+02  0.30965169290E+02  0.00000000000E+00 0.  1.
</event>
<event>
 4    1  0.1725802E+006  0.2370851E+02  0.7546771E-02  0.1483788E+00
         21   -1    0    0  504  501  0.00000000000E+00  0.00000000000E+00  0.11510587178E+04  0.11510587178E+04  0.00000000000E+00 0. -1.
         21   -1    0    0  503  502 -0.00000000000E+00 -0.00000000000E+00 -0.75596365007E+00  0.75596365007E+00  0.00000000000E+00 0.  1.
         21    1    1    2  503  501  0.90610692480E+01 -0.21908687132E+02  0.91782020545E+03  0.91812636553E+03  0.00000000000E+00 0. -1.
         21    1    1    2  504  502 -0.90610692480E+01  0.21908687132E+02  0.23248254865E+03  0.23368831587E+03  0.00000000000E+00 0.  1.
</event>
<event>
 4    1  0.1725802E+006  0.2111030E+02  0.7546771E-02  0.1517696E+00
         21   -1    0    0  503  501  0.00000000000E+00  0.00000000000E+00  0.15751579431E+03  0.15751579431E+03  0.00000000000E+00 0.  1.
         21   -1    0    0  504  502 -0.00000000000E+00 -0.00000000000E+00 -0.85452203313E+02  0.85452203313E+02  0.00000000000E+00 0. -1.
         21    1    1    2  503  502 -0.20710600302E+02 -0.40884844037E+01 -0.83424190838E+02  0.86053705827E+02  0.00000000000E+00 0. -1.
         21    1    1    2  504  501  0.20710600302E+02  0.40884844037E+01  0.15548778184E+03  0.15691429180E+03  0.00000000000E+00 0.  1.
</event>
<event>
 4    1  0.1725802E+006  0.2262290E+02  0.7546771E-02  0.1497288E+00
         21   -1    0    0  503  501  0.00000000000E+00  0.00000000000E+00  0.25119708856E+02  0.25119708856E+02  0.00000000000E+00 0. -1.
         21   -1    0    0  504  502 -0.00000000000E+00 -0.00000000000E+00 -0.46813621009E+02  0.46813621009E+02  0.00000000000E+00 0. -1.
         21    1    1    2  503  502 -0.62385245513E+01 -0.21745726287E+02  0.16182631804E+02  0.27814984674E+02  0.00000000000E+00 0. -1.
         21    1    1    2  504  501  0.62385245513E+01  0.21745726287E+02 -0.37876543956E+02  0.44118345191E+02  0.00000000000E+00 0. -1.
</event>
<event>
 4    1  0.1725802E+006  0.2186667E+02  0.7546771E-02  0.1507242E+00
         21   -1    0    0  504  501  0.00000000000E+00  0.00000000000E+00  0.22624878247E+02  0.22624878247E+02  0.00000000000E+00 0.  1.
         21   -1    0    0  503  502 -0.00000000000E+00 -0.00000000000E+00 -0.11447480783E+03  0.11447480783E+03  0.00000000000E+00 0. -1.
         21    1    1    2  503  501  0.10452312158E+01 -0.21841678483E+02  0.15974595427E+02  0.27080234975E+02  0.00000000000E+00 0.  1.
         21    1    1    2  504  502 -0.10452312158E+01  0.21841678483E+02 -0.10782452501E+03  0.11001945110E+03  0.00000000000E+00 0. -1.
</event>
<event>
 4    1  0.1725802E+006  0.2457961E+02  0.7546771E-02  0.1473562E+00
         21   -1    0    0  503  501  0.00000000000E+00  0.00000000000E+00  0.52205150049E+02  0.52205150049E+02  0.00000000000E+00 0.  1.
         21   -1    0    0  504  502 -0.00000000000E+00 -0.00000000000E+00 -0.31537604348E+03  0.31537604348E+03  0.00000000000E+00 0. -1.
         21    1    1    2  503  502 -0.13171255529E+02  0.20752711286E+02 -0.31197242291E+03  0.31293921080E+03  0.00000000000E+00 0. -1.
         21    1    1    2  504  501  0.13171255529E+02 -0.20752711286E+02  0.48801529476E+02  0.54641982734E+02  0.00000000000E+00 0.  1.
</event>
<event>
 4    1  0.1725802E+006  0.2153969E+02  0.7546771E-02  0.1511697E+00
         21   -1    0    0  503  501  0.00000000000E+00  0.00000000000E+00  0.20799393318E+02  0.20799393318E+02  0.00000000000E+00 0.  1.
         21   -1    0    0  504  502 -0.00000000000E+00 -0.00000000000E+00 -0.25910997097E+03  0.25910997097E+03  0.00000000000E+00 0.  1.
         21    1    1    2  503  502  0.19009210860E+02  0.10129575489E+02  0.14639606920E+02  0.26043741818E+02  0.00000000000E+00 0.  1.
         21    1    1    2  504  501 -0.19009210860E+02 -0.10129575489E+02 -0.25295018457E+03  0.25386562247E+03  0.00000000000E+00 0.  1.
</event>
<event>
 4    1  0.1725802E+006  0.4322860E+02  0.7546771E-02  0.1330539E+00
         21   -1    0    0  504  501  0.00000000000E+00  0.00000000000E+00  0.15445544342E+03  0.15445544342E+03  0.00000000000E+00 0. -1.
         21   -1    0    0  503  502 -0.00000000000E+00 -0.00000000000E+00 -0.12560275312E+02  0.12560275312E+02  0.00000000000E+00 0. -1.
         21    1    1    2  503  501 -0.12978927322E+01 -0.43209112924E+02  0.86955813292E+02  0.97108318029E+02  0.00000000000E+00 0. -1.
         21    1    1    2  504  502  0.12978927322E+01  0.43209112924E+02  0.54939354813E+02  0.69907400699E+02  0.00000000000E+00 0. -1.
</event>
<event>
 4    1  0.1725802E+006  0.2327261E+02  0.7546771E-02  0.1489103E+00
         21   -1    0    0  504  501  0.00000000000E+00  0.00000000000E+00  0.27953963823E+02  0.27953963823E+02  0.00000000000E+00 0.  1.
         21   -1    0    0  501  502 -0.00000000000E+00 -0.00000000000E+00 -0.11905927748E+03  0.11905927748E+03  0.00000000000E+00 0.  1.
         21    1    1    2  503  502 -0.78724601265E+01 -0.21900652831E+02 -0.11281278452E+03  0.11518827447E+03  0.00000000000E+00 0.  1.
         21    1    1    2  504  503  0.78724601265E+01  0.21900652831E+02  0.21707470865E+02  0.31824966837E+02  0.00000000000E+00 0.  1.
</event>
<event>
 4    1  0.1725802E+006  0.2852212E+02  0.7546771E-02  0.1432889E+00
         21   -1    0    0  504  501  0.00000000000E+00  0.00000000000E+00  0.11653746553E+02  0.11653746553E+02  0.00000000000E+00 0. -1.
         21   -1    0    0  503  502 -0.00000000000E+00 -0.00000000000E+00 -0.18828081885E+03  0.18828081885E+03  0.00000000000E+00 0. -1.
         21    1    1    2  503  501  0.28337098710E+02  0.32434537270E+01 -0.90147854202E+01  0.29912831888E+02  0.00000000000E+00 0. -1.
         21    1    1    2  504  502 -0.28337098710E+02 -0.32434537270E+01 -0.16761228687E+03  0.17002173351E+03  0.00000000000E+00 0. -1.
</event>
<event>
 4    1  0.1725802E+006  0.2285800E+02  0.7546771E-02  0.1494289E+00
         21   -1    0    0  503  501  0.00000000000E+00  0.00000000000E+00  0.20982297101E+03  0.20982297101E+03  0.00000000000E+00 0.  1.
         21   -1    0    0  504  502 -0.00000000000E+00 -0.00000000000E+00 -0.26923431685E+01  0.26923431685E+01  0.00000000000E+00 0. -1.
         21    1    1    2  503  502 -0.59707878726E+00  0.22850200707E+02  0.13268529186E+03  0.13463979668E+03  0.00000000000E+00 0.  1.
         21    1    1    2  504  501  0.59707878726E+00 -0.22850200707E+02  0.74445335977E+02  0.77875517489E+02  0.00000000000E+00 0. -1.
</event>
<event>
 4    1  0.1725802E+006  0.5611049E+02  0.7546771E-02  0.1273653E+00
         21   -1    0    0  503  501  0.00000000000E+00  0.00000000000E+00  0.93869276734E+01  0.93869276734E+01  0.00000000000E+00 0.  1.
         21   -1    0    0  501  502 -0.00000000000E+00 -0.00000000000E+00 -0.36367851447E+03  0.36367851447E+03  0.00000000000E+00 0.  1.
         21    1    1    2  503  504  0.11043042819E+01  0.56099620173E+02 -0.12513239495E+03  0.13713680446E+03  0.00000000000E+00 0.  1.
         21    1    1    2  504  502 -0.11043042819E+01 -0.56099620173E+02 -0.22915919185E+03  0.23592863768E+03  0.00000000000E+00 0.  1.
</event>
<event>
 4    1  0.1725802E+006  0.2271509E+02  0.7546771E-02  0.1496107E+00
         21   -1    0    0  504  501  0.00000000000E+00  0.00000000000E+00  0.74532650425E+02  0.74532650425E+02  0.00000000000E+00 0. -1.
         21   -1    0    0  503  502 -0.00000000000E+00 -0.00000000000E+00 -0.11784602805E+02  0.11784602805E+02  0.00000000000E+00 0. -1.
         21    1    1    2  503  501  0.19026785896E+02  0.12407927227E+02  0.59094995385E+02  0.63310297103E+02  0.00000000000E+00 0. -1.
         21    1    1    2  504  502 -0.19026785896E+02 -0.12407927227E+02  0.36530522337E+01  0.23006956127E+02  0.00000000000E+00 0. -1.
</event>
<event>
 4    1  0.1725802E+006  0.3888654E+02  0.7546771E-02  0.1355137E+00
         21   -1    0    0  504  501  0.00000000000E+00  0.00000000000E+00  0.85783163637E+01  0.85783163637E+01  0.00000000000E+00 0.  1.
         21   -1    0    0  503  502 -0.00000000000E+00 -0.00000000000E+00 -0.34419163031E+03  0.34419163031E+03  0.00000000000E+00 0.  1.
         21    1    1    2  503  501  0.80355510710E+01  0.38047247606E+02 -0.44608216927E+02  0.59178172909E+02  0.00000000000E+00 0.  1.
         21    1    1    2  504  502 -0.80355510710E+01 -0.38047247606E+02 -0.29100509702E+03  0.29359177376E+03  0.00000000000E+00 0.  1.
</event>
<event>
 4    1  0.1725802E+006  0.2052678E+02  0.7546771E-02  0.1526130E+00
         21   -1    0    0  503  501  0.00000000000E+00  0.00000000000E+00  0.12566379869E+02  0.12566379869E+02  0.00000000000E+00 0. -1.
         21   -1    0    0  504  502 -0.00000000000E+00 -0.00000000000E+00 -0.39583845343E+02  0.39583845343E+02  0.00000000000E+00 0. -1.
         21    1    1    2  503  502  0.14022864145E+02 -0.14990265334E+02 -0.23706108200E+02  0.31358066580E+02  0.00000000000E+00 0. -1.
         21    1    1    2  504  501 -0.14022864145E+02  0.14990265334E+02 -0.33113572739E+01  0.20792158633E+02  0.00000000000E+00 0. -1.
</event>
<event>
 4    1  0.1725802E+006  0.2054937E+02  0.7546771E-02  0.1525797E+00
         21   -1    0    0  502  501  0.00000000000E+00  0.00000000000E+00  0.67891347429E+01  0.67891347429E+01  0.00000000000E+00 0.  1.
         21   -1    0    0  504  502 -0.00000000000E+00 -0.00000000000E+00 -0.38003616737E+03  0.38003616737E+03  0.00000000000E+00 0.  1.
         21    1    1    2  503  501  0.38191509665E+01 -0.20191355696E+02 -0.97451096664E+01  0.22742997194E+02  0.00000000000E+00 0.  1.
         21    1    1    2  504  503 -0.38191509665E+01  0.20191355696E+02 -0.36350192296E+03  0.36408230492E+03  0.00000000000E+00 0.  1.
</event>
<event>
 4    1  0.1725802E+006  0.2313494E+02  0.7546771E-02  0.1490811E+00
         21   -1    0    0  503  501  0.00000000000E+00  0.00000000000E+00  0.94278822773E+02  0.94278822773E+02  0.00000000000E+00 0.  1.
         21   -1    0    0  504  502 -0.00000000000E+00 -0.00000000000E+00 -0.16300557099E+02  0.16300557099E+02  0.00000000000E+00 0.  1.
         21    1    1    2  503  502  0.10723723992E+02 -0.20499446880E+02  0.83624271634E+02  0.86765456173E+02  0.00000000000E+00 0.  1.
         21    1    1    2  504  501 -0.10723723992E+02  0.20499446880E+02 -0.56460059591E+01  0.23813923699E+02  0.00000000000E+00 0.  1.
</event>
<event>
 4    1  0.1725802E+006  0.2011568E+02  0.7546771E-02  0.1532275E+00
         21   -1    0    0  504  501  0.00000000000E+00  0.00000000000E+00  0.79818781805E+00  0.79818781805E+00  0.00000000000E+00 0.  1.
         21   -1    0    0  503  502 -0.00000000000E+00 -0.00000000000E+00 -0.69430480742E+03  0.69430480742E+03  0.00000000000E+00 0.  1.
         21    1    1    2  503  501  0.55872485229E+01  0.19324158887E+02 -0.16621152340E+03  0.16742434403E+03  0.00000000000E+00 0.  1.
         21    1    1    2  504  502 -0.55872485229E+01 -0.19324158887E+02 -0.52729509620E+03  0.52767865121E+03  0.00000000000E+00 0.  1.
</event>
<event>
 4    1  0.1725802E+006  0.3914319E+02  0.7546771E-02  0.1353581E+00
         21   -1    0    0  502  501  0.00000000000E+00  0.00000000000E+00  0.25007626746E+02  0.25007626746E+02  0.00000000000E+00 0.  1.
         21   -1    0    0  503  502 -0.00000000000E+00 -0.00000000000E+00 -0.29521241036E+03  0.29521241036E+03  0.00000000000E+00 0. -1.
         21    1    1    2  503  504  0.92561434551E+01 -0.38033052352E+02 -0.27763253547E+03  0.28037834085E+03  0.00000000000E+00 0. -1.
         21    1    1    2  504  501 -0.92561434551E+01  0.38033052352E+02  0.74277518610E+01  0.39841696257E+02  0.00000000000E+00 0.  1.
</event>
<event>
 4    1  0.1725802E+006  0.2883174E+02  0.7546771E-02  0.1430028E+00
         21   -1    0    0  504  501  0.00000000000E+00  0.00000000000E+00  0.25977855436E+03  0.25977855436E+03  0.00000000000E+00 0.  1.
         21   -1    0    0  503  502 -0.00000000000E+00 -0.00000000000E+00 -0.63267841716E+01  0.63267841716E+01  0.00000000000E+00 0. -1.
         21    1    1    2  503  501 -0.14496650197E+02  0.24922204577E+02  0.22026364738E+03  0.22214261974E+03  0.00000000000E+00 0.  1.
         21    1    1    2  504  502  0.14496650197E+02 -0.24922204577E+02  0.33188122805E+02  0.43962718788E+02  0.00000000000E+00 0. -1.
</event>
<event>
 4    1  0.1725802E+006  0.3269360E+02  0.7546771E-02  0.1397546E+00
         21   -1    0    0  502  501  0.00000000000E+00  0.00000000000E+00  0.32353348163E+02  0.32353348163E+02  0.00000000000E+00 0. -1.
         21   -1    0    0  503  502 -0.00000000000E+00 -0.00000000000E+00 -0.28911585921E+03  0.28911585921E+03  0.00000000000E+00 0.  1.
         21    1    1    2  503  504 -0.28192581324E+02  0.16554444997E+02 -0.27965373646E+03  0.28155831297E+03  0.00000000000E+00 0.  1.
         21    1    1    2  504  501  0.28192581324E+02 -0.16554444997E+02  0.22891225410E+02  0.39910894398E+02  0.00000000000E+00 0. -1.
</event>
<event>
 4    1  0.1725802E+006  0.2031588E+02  0.7546771E-02  0.1529260E+00
         21   -1    0    0  502  501  0.00000000000E+00  0.00000000000E+00  0.17037127597E+01  0.17037127597E+01  0.00000000000E+00 0. -1.
         21   -1    0    0  503  502 -0.00000000000E+00 -0.00000000000E+00 -0.44944565572E+03  0.44944565572E+03  0.00000000000E+00 0. -1.
         21    1    1    2  503  504  0.14226817963E+02  0.14502845403E+02 -0.37702754936E+03  0.37757450636E+03  0.00000000000E+00 0. -1.
         21    1    1    2  504  501 -0.14226817963E+02 -0.14502845403E+02 -0.70714393596E+02  0.73574862119E+02  0.00000000000E+00 0. -1.
</event>
<event>
 4    1  0.1725802E+006  0.2793360E+02  0.7546771E-02  0.1438449E+00
         21   -1    0    0  503  501  0.00000000000E+00  0.00000000000E+00  0.23747165122E+01  0.23747165122E+01  0.00000000000E+00 0.  1.
         21   -1    0    0  504  502 -0.00000000000E+00 -0.00000000000E+00 -0.17586018126E+04  0.17586018126E+04  0.00000000000E+00 0. -1.
         21    1    1    2  503  502 -0.28884666777E+01  0.27783856813E+02 -0.84130841794E+02  0.88646965431E+02  0.00000000000E+00 0.  1.
         21    1    1    2  504  501  0.28884666777E+01 -0.27783856813E+02 -0.16720962543E+04  0.16723295637E+04  0.00000000000E+00 0. -1.
</event>
<event>
 4    1  0.1725802E+006  0.2091355E+02  0.7546771E-02  0.1520503E+00
         21   -1    0    0  503  501  0.00000000000E+00  0.00000000000E+00  0.12695248079E+02  0.12695248079E+02  0.00000000000E+00 0. -1.
         21   -1    0    0  504  502 -0.00000000000E+00 -0.00000000000E+00 -0.80487436611E+02  0.80487436611E+02  0.00000000000E+00 0. -1.
         21    1    1    2  503  502 -0.12572338284E+02  0.16712655295E+02 -0.69132156145E+02  0.72226252500E+02  0.00000000000E+00 0. -1.
         21    1    1    2  504  501  0.12572338284E+02 -0.16712655295E+02  0.13399676123E+01  0.20956432190E+02  0.00000000000E+00 0. -1.
</event>
<event>
 4    1  0.1725802E+006  0.2547729E+02  0.7546771E-02  0.1463534E+00
         21   -1    0    0  503  501  0.00000000000E+00  0.00000000000E+00  0.74362864573E+03  0.74362864573E+03  0.00000000000E+00 0.  1.
         21   -1    0    0  504  502 -0.00000000000E+00 -0.00000000000E+00 -0.43993433283E+01  0.43993433283E+01  0.00000000000E+00 0.  1.
         21    1    1    2  503  502  0.24895015603E+02  0.54157500677E+01  0.34753980862E+02  0.43092126153E+02  0.00000000000E+00 0.  1.
         21    1    1    2  504  501 -0.24895015603E+02 -0.54157500677E+01  0.70447532154E+03  0.70493586291E+03  0.00000000000E+00 0.  1.
</event>
<event>
 4    1  0.1725802E+006  0.2442903E+02  0.7546771E-02  0.1475293E+00
         21   -1    0    0  504  501  0.00000000000E+00  0.00000000000E+00  0.19038767319E+01  0.19038767319E+01  0.00000000000E+00 0. -1.
         21   -1    0    0  503  502 -0.00000000000E+00 -0.00000000000E+00 -0.10119238845E+04  0.10119238845E+04  0.00000000000E+00 0. -1.
         21    1    1    2  503  501  0.71003750104E+01 -0.23374390834E+02 -0.83862575869E+02  0.87348206069E+02  0.00000000000E+00 0. -1.
         21    1    1    2  504  502 -0.71003750104E+01  0.23374390834E+02 -0.92615743194E+03  0.92647955521E+03  0.00000000000E+00 0. -1.
</event>
<event>
 4    1  0.1725802E+006  0.2523392E+02  0.7546771E-02  0.1466203E+00
         21   -1    0    0  503  501  0.00000000000E+00  0.00000000000E+00  0.12936972520E+02  0.12936972520E+02  0.00000000000E+00 0.  1.
         21   -1    0    0  504  502 -0.00000000000E+00 -0.00000000000E+00 -0.23804272520E+03  0.23804272520E+03  0.00000000000E+00 0.  1.
         21    1    1    2  503  502 -0.29043480506E+01 -0.25066220743E+02 -0.22431866930E+03  0.22573350672E+03  0.00000000000E+00 0.  1.
         21    1    1    2  504  501  0.29043480506E+01  0.25066220743E+02 -0.78708338313E+00  0.25246191003E+02  0.00000000000E+00 0.  1.
</event>
<event>
 4    1  0.1725802E+006  0.2018386E+02  0.7546771E-02  0.1531243E+00
         21   -1    0    0  503  501  0.00000000000E+00  0.00000000000E+00  0.29372470473E+03  0.29372470473E+03  0.00000000000E+00 0.  1.
         21   -1    0    0  504  502 -0.00000000000E+00 -0.00000000000E+00 -0.37523501889E+01  0.37523501889E+01  0.00000000000E+00 0.  1.
         21    1    1    2  503  502  0.10078210608E+02 -0.17487649097E+02  0.26893760791E+02  0.33625326310E+02  0.00000000000E+00 0.  1.
         21    1    1    2  504  501 -0.10078210608E+02  0.17487649097E+02  0.26307859375E+03  0.26385172861E+03  0.00000000000E+00 0.  1.
</event>
<event>
 4    1  0.1725802E+006  0.2326196E+02  0.7546771E-02  0.1489235E+00
         21   -1    0    0  504  501  0.00000000000E+00  0.00000000000E+00  0.40646681500E+02  0.40646681500E+02  0.00000000000E+00 0.  1.
         21   -1    0    0  503  502 -0.00000000000E+00 -0.00000000000E+00 -0.53027003897E+02  0.53027003897E+02  0.00000000000E+00 0.  1.
         21    1    1    2  503  501  0.11233165673E+02  0.20369947818E+02  0.34343171565E+02  0.41479780837E+02  0.00000000000E+00 0.  1.
         21    1    1    2  504  502 -0.11233165673E+02 -0.20369947818E+02 -0.46723493962E+02  0.52193904560E+02  0.00000000000E+00 0.  1.
</event>
<event>
 4    1  0.1725802E+006  0.2047355E+02  0.7546771E-02  0.1526916E+00
         21   -1    0    0  503  501  0.00000000000E+00  0.00000000000E+00  0.23313930175E+02  0.23313930175E+02  0.00000000000E+00 0. -1.
         21   -1    0    0  501  502 -0.00000000000E+00 -0.00000000000E+00 -0.35776869322E+02  0.35776869322E+02  0.00000000000E+00 0. -1.
         21    1    1    2  503  504 -0.15876567926E+02 -0.12926755603E+02  0.14607198280E+02  0.25150281531E+02  0.00000000000E+00 0. -1.
         21    1    1    2  504  502  0.15876567926E+02  0.12926755603E+02 -0.27070137426E+02  0.33940517966E+02  0.00000000000E+00 0. -1.
</event>
<event>
 4    1  0.1725802E+006  0.2458674E+02  0.7546771E-02  0.1473480E+00
         21   -1    0    0  502  501  0.00000000000E+00  0.00000000000E+00  0.10930670759E+02  0.10930670759E+02  0.00000000000E+00 0.  1.
         21   -1    0    0  504  502 -0.00000000000E+00 -0.00000000000E+00 -0.12778554493E+03  0.12778554493E+03  0.00000000000E+00 0. -1.
         21    1    1    2  503  501  0.10591988485E+02 -0.22188235289E+02 -0.61913557991E+01  0.25354307167E+02  0.00000000000E+00 0.  1.
         21    1    1    2  504  503 -0.10591988485E+02  0.22188235289E+02 -0.11066351838E+03  0.11336190853E+03  0.00000000000E+00 0. -1.
</event>
<event>
 4    1  0.1725802E+006  0.2204444E+02  0.7546771E-02  0.1504859E+00
         21   -1    0    0  504  501  0.00000000000E+00  0.00000000000E+00  0.13391233131E+03  0.13391233131E+03  0.00000000000E+00 0. -1.
         21   -1    0    0  503  502 -0.00000000000E+00 -0.00000000000E+00 -0.22431971870E+02  0.22431971870E+02  0.00000000000E+00 0.  1.
         21    1    1    2  503  501 -0.52282532031E+01  0.21415477187E+02 -0.15830064335E+02  0.27139422093E+02  0.00000000000E+00 0.  1.
         21    1    1    2  504  502  0.52282532031E+01 -0.21415477187E+02  0.12731042377E+03  0.12920488108E+03  0.00000000000E+00 0. -1.
</event>
<event>
 4    1  0.1725802E+006  0.5065741E+02  0.7546771E-02  0.1295347E+00
         21   -1    0    0  502  501  0.00000000000E+00  0.00000000000E+00  0.11746462376E+02  0.11746462376E+02  0.00000000000E+00 0. -1.
         21   -1    0    0  504  502 -0.00000000000E+00 -0.00000000000E+00 -0.24422405099E+03  0.24422405099E+03  0.00000000000E+00 0. -1.
         21    1    1    2  503  501  0.90333183508E+01 -0.49845489104E+02 -0.74672332570E+02  0.90233756853E+02  0.00000000000E+00 0. -1.
         21    1    1    2  504  503 -0.90333183508E+01  0.49845489104E+02 -0.15780525604E+03  0.16573675651E+03  0.00000000000E+00 0. -1.
</event>
<event>
 4    1  0.1725802E+006  0.2096478E+02  0.7546771E-02  0.1519768E+00
         21   -1    0    0  503  501  0.00000000000E+00  0.00000000000E+00  0.16392453322E+02  0.16392453322E+02  0.00000000000E+00 0.  1.
         21   -1    0    0  504  502 -0.00000000000E+00 -0.00000000000E+00 -0.32075931369E+02  0.32075931369E+02  0.00000000000E+00 0. -1.
         21    1    1    2  503  502  0.11242394431E+02  0.17695498990E+02 -0.17658647635E+02  0.27410763458E+02  0.00000000000E+00 0. -1.
         21    1    1    2  504  501 -0.11242394431E+02 -0.17695498990E+02  0.19751695882E+01  0.21057621232E+02  0.00000000000E+00 0.  1.
</event>
<event>
 4    1  0.1725802E+006  0.4356645E+02  0.7546771E-02  0.1328765E+00
         21   -1    0    0  504  501  0.00000000000E+00  0.00000000000E+00  0.53844332349E+01  0.53844332349E+01  0.00000000000E+00 0. -1.
         21   -1    0    0  503  502 -0.00000000000E+00 -0.00000000000E+00 -0.92826177978E+03  0.92826177978E+03  0.00000000000E+00 0. -1.
         21    1    1    2  503  501 -0.41603224201E+02 -0.12930853872E+02 -0.93786660712E+02  0.10341166749E+03  0.00000000000E+00 0. -1.
         21    1    1    2  504  502  0.41603224201E+02  0.12930853872E+02 -0.82909068584E+03  0.83023454553E+03  0.00000000000E+00 0. -1.
</event>
<event>
 4    1  0.1725802E+006  0.2949139E+02  0.7546771E-02  0.1424068E+00
         21   -1    0    0  503  501  0.00000000000E+00  0.00000000000E+00  0.30049679690E+03  0.30049679690E+03  0.00000000000E+00 0.  1.
         21   -1    0    0  501  502 -0.00000000000E+00 -0.00000000000E+00 -0.46291749419E+02  0.46291749419E+02  0.00000000000E+00 0.  1.
         21    1    1    2  503  504  0.18364130498E+02 -0.23075975732E+02  0.29498865499E+03  0.29645918524E+03  0.00000000000E+00 0.  1.
         21    1    1    2  504  502 -0.18364130498E+02  0.23075975732E+02 -0.40783607506E+02  0.50329361074E+02  0.00000000000E+00 0.  1.
</event>
<event>
 4    1  0.1725802E+006  0.2285804E+02  0.7546771E-02  0.1494288E+00
         21   -1    0    0  504  501  0.00000000000E+00  0.00000000000E+00  0.10480462385E+02  0.10480462385E+02  0.00000000000E+00 0.  1.
         21   -1    0    0  503  502 -0.00000000000E+00 -0.00000000000E+00 -0.22431327417E+03  0.22431327417E+03  0.00000000000E+00 0.  1.
         21    1    1    2  503  501 -0.13761583997E+02 -0.18251269017E+02 -0.21044883561E+03  0.21168656647E+03  0.00000000000E+00 0.  1.
         21    1    1    2  504  502  0.13761583997E+02  0.18251269017E+02 -0.33839761834E+01  0.23107170092E+02  0.00000000000E+00 0.  1.
</event>
<event>
 4    1  0.1725802E+006  0.4389469E+02  0.7546771E-02  0.1327060E+00
         21   -1    0    0  503  501  0.00000000000E+00  0.00000000000E+00  0.58648522226E+03  0.58648522226E+03  0.00000000000E+00 0.  1.
         21   -1    0    0  504  502 -0.00000000000E+00 -0.00000000000E+00 -0.48021564209E+01  0.48021564209E+01  0.00000000000E+00 0. -1.
         21    1    1    2  503  502  0.14974183954E+02  0.41261579894E+02  0.45700342274E+03  0.45910660261E+03  0.00000000000E+00 0.  1.
         21    1    1    2  504  501 -0.14974183954E+02 -0.41261579894E+02  0.12467964310E+03  0.13218077608E+03  0.00000000000E+00 0. -1.
</event>
<event>
 4    1  0.1725802E+006  0.2300806E+02  0.7546771E-02  0.1492397E+00
         21   -1    0    0  503  501  0.00000000000E+00  0.00000000000E+00  0.97367558583E+02  0.97367558583E+02  0.00000000000E+00 0. -1.
         21   -1    0    0  504  502 -0.00000000000E+00 -0.00000000000E+00 -0.73974813571E+01  0.73974813571E+01  0.00000000000E+00 0. -1.
         21    1    1    2  503  502  0.12221296599E+02  0.19493868628E+02  0.18017303469E+02  0.29223179651E+02  0.00000000000E+00 0. -1.
         21    1    1    2  504  501 -0.12221296599E+02 -0.19493868628E+02  0.71952773757E+02  0.75541860289E+02  0.00000000000E+00 0. -1.
</event>
<event>
 4    1  0.1725802E+006  0.2436601E+02  0.7546771E-02  0.1476022E+00
         21   -1    0    0  503  501  0.00000000000E+00  0.00000000000E+00  0.13113775253E+02  0.13113775253E+02  0.00000000000E+00 0. -1.
         21   -1    0    0  504  502 -0.00000000000E+00 -0.00000000000E+00 -0.57708042749E+02  0.57708042749E+02  0.00000000000E+00 0. -1.
         21    1    1    2  503  502 -0.24355900265E+02  0.70185745970E+00 -0.58595049406E+01  0.25060652022E+02  0.00000000000E+00 0. -1.
         21    1    1    2  504  501  0.24355900265E+02 -0.70185745970E+00 -0.38734762555E+02  0.45761165980E+02  0.00000000000E+00 0. -1.
</event>
<event>
 4    1  0.1725802E+006  0.5090567E+02  0.7546771E-02  0.1294293E+00
         21   -1    0    0  503  501  0.00000000000E+00  0.00000000000E+00  0.60735059486E+01  0.60735059486E+01  0.00000000000E+00 0.  1.
         21   -1    0    0  504  502 -0.00000000000E+00 -0.00000000000E+00 -0.11520192836E+04  0.11520192836E+04  0.00000000000E+00 0.  1.
         21    1    1    2  503  502 -0.37328691136E+02  0.34611499868E+02 -0.10324425792E+04  0.10336967962E+04  0.00000000000E+00 0.  1.
         21    1    1    2  504  501  0.37328691136E+02 -0.34611499868E+02 -0.11350319844E+03  0.12439599334E+03  0.00000000000E+00 0.  1.
</event>
<event>
 4    1  0.1725802E+006  0.2170147E+02  0.7546771E-02  0.1509481E+00
         21   -1    0    0  504  501  0.00000000000E+00  0.00000000000E+00  0.31053452267E+03  0.31053452267E+03  0.00000000000E+00 0.  1.
         21   -1    0    0  503  502 -0.00000000000E+00 -0.00000000000E+00 -0.15623561150E+01  0.15623561150E+01  0.00000000000E+00 0.  1.
         21    1    1    2  503  501 -0.16247204034E+02 -0.14386867947E+02  0.18119403449E+03  0.18248899075E+03  0.00000000000E+00 0.  1.
         21    1    1    2  504  502  0.16247204034E+02  0.14386867947E+02  0.12777813207E+03  0.12960788804E+03  0.00000000000E+00 0.  1.
</event>
<event>
 4    1  0.1725802E+006  0.2090716E+02  0.7546771E-02  0.1520595E+00
         21   -1    0    0  504  501  0.00000000000E+00  0.00000000000E+00  0.56110007411E+01  0.56110007411E+01  0.00000000000E+00 0. -1.
         21   -1    0    0  501  502 -0.00000000000E+00 -0.00000000000E+00 -0.31103925150E+03  0.31103925150E+03  0.00000000000E+00 0.  1.
         21    1    1    2  503  502 -0.48036364202E+01 -0.20347830672E+02 -0.28978586385E+03  0.29053907831E+03  0.00000000000E+00 0.  1.
         21    1    1    2  504  503  0.48036364202E+01  0.20347830672E+02 -0.15642386904E+02  0.26111173929E+02  0.00000000000E+00 0. -1.
</event>
<event>
 4    1  0.1725802E+006  0.2145114E+02  0.7546771E-02  0.1512920E+00
         21   -1    0    0  503  501  0.00000000000E+00  0.00000000000E+00  0.39951753812E+03  0.39951753812E+03  0.00000000000E+00 0. -1.
         21   -1    0    0  504  502 -0.00000000000E+00 -0.00000000000E+00 -0.41894373766E+01  0.41894373766E+01  0.00000000000E+00 0.  1.
         21    1    1    2  503  502 -0.18441983802E+02  0.10956480513E+02  0.25782719149E+02  0.33539526509E+02  0.00000000000E+00 0.  1.
         21    1    1    2  504  501  0.18441983802E+02 -0.10956480513E+02  0.36954538160E+03  0.37016744899E+03  0.00000000000E+00 0. -1.
</event>
<event>
 4    1  0.1725802E+006  0.2315968E+02  0.7546771E-02  0.1490503E+00
         21   -1    0    0  504  501  0.00000000000E+00  0.00000000000E+00  0.32898977698E+01  0.32898977698E+01  0.00000000000E+00 0.  1.
         21   -1    0    0  503  502 -0.00000000000E+00 -0.00000000000E+00 -0.21355580360E+03  0.21355580360E+03  0.00000000000E+00 0. -1.
         21    1    1    2  503  501 -0.11793060162E+02  0.19932246077E+02 -0.52398146177E+02  0.57288187477E+02  0.00000000000E+00 0.  1.
         21    1    1    2  504  502  0.11793060162E+02 -0.19932246077E+02 -0.15786775966E+03  0.15955751390E+03  0.00000000000E+00 0. -1.
</event>
<event>
 4    1  0.1725802E+006  0.2827516E+02  0.7546771E-02  0.1435203E+00
         21   -1    0    0  503  501  0.00000000000E+00  0.00000000000E+00  0.13786531929E+04  0.13786531929E+04  0.00000000000E+00 0. -1.
         21   -1    0    0  504  502 -0.00000000000E+00 -0.00000000000E+00 -0.19784696652E+01  0.19784696652E+01  0.00000000000E+00 0. -1.
         21    1    1    2  503  502  0.83992441856E+00 -0.28262682226E+02  0.12687338440E+04  0.12690488767E+04  0.00000000000E+00 0. -1.
         21    1    1    2  504  501 -0.83992441856E+00  0.28262682226E+02  0.10794087926E+03  0.11158278584E+03  0.00000000000E+00 0. -1.
</event>
<event>
 4    1  0.1725802E+006  0.2011023E+02  0.7546771E-02  0.1532357E+00
         21   -1    0    0  504  501  0.00000000000E+00  0.00000000000E+00  0.17764257645E+03  0.17764257645E+03  0.00000000000E+00 0. -1.
         21   -1    0    0  503  502 -0.00000000000E+00 -0.00000000000E+00 -0.97191884838E+02  0.97191884838E+02  0.00000000000E+00 0.  1.
         21    1    1    2  503  501 -0.19488273776E+02  0.49626992490E+01 -0.95572933188E+02  0.97665791128E+02  0.00000000000E+00 0.  1.
         21    1    1    2  504  502  0.19488273776E+02 -0.49626992490E+01  0.17602362480E+03  0.17716867016E+03  0.00000000000E+00 0. -1.
</event>
<event>
 4    1  0.1725802E+006  0.3180944E+02  0.7546771E-02  0.1404498E+00
         21   -1    0    0  502  501  0.00000000000E+00  0.00000000000E+00  0.12291590157E+03  0.12291590157E+03  0.00000000000E+00 0.  1.
         21   -1    0    0  504  502 -0.00000000000E+00 -0.00000000000E+00 -0.46967133720E+02  0.46967133720E+02  0.00000000000E+00 0.  1.
         21    1    1    2  503  501  0.10977244622E+01 -0.31790492359E+02  0.11511367937E+03  0.11942780070E+03  0.00000000000E+00 0.  1.
         21    1    1    2  504  503 -0.10977244622E+01  0.31790492359E+02 -0.39164911515E+02  0.50455234589E+02  0.00000000000E+00 0.  1.
</event>
<event>
 4    1  0.1725802E+006  0.2457028E+02  0.7546771E-02  0.1473668E+00
         21   -1    0    0  503  501  0.00000000000E+00  0.00000000000E+00  0.33902586010E+01  0.33902586010E+01  0.00000000000E+00 0.  1.
         21   -1    0    0  501  502 -0.00000000000E+00 -0.00000000000E+00 -0.17810829841E+03  0.17810829841E+03  0.00000000000E+00 0.  1.
         21    1    1    2  503  504  0.15301698066E+02  0.19223862841E+02 -0.86005507882E+02  0.89446331687E+02  0.00000000000E+00 0.  1.
         21    1    1    2  504  502 -0.15301698066E+02 -0.19223862841E+02 -0.88712531932E+02  0.92052225329E+02  0.00000000000E+00 0.  1.
</event>
<event>
 4    1  0.1725802E+006  0.2009390E+02  0.7546771E-02  0.1532605E+00
         21   -1    0    0  504  501  0.00000000000E+00  0.00000000000E+00  0.50684053272E+03  0.50684053272E+03  0.00000000000E+00 0.  1.
         21   -1    0    0  503  502 -0.00000000000E+00 -0.00000000000E+00 -0.76399269985E+01  0.76399269985E+01  0.00000000000E+00 0.  1.
         21    1    1    2  503  501  0.17941036393E+02  0.90489858696E+01  0.61406805260E+01  0.21011256256E+02  0.00000000000E+00 0.  1.
         21    1    1    2  504  502 -0.17941036393E+02 -0.90489858696E+01  0.49305992520E+03  0.49346920346E+03  0.00000000000E+00 0.  1.
</event>
<event>
 4    1  0.1725802E+006  0.2184556E+02  0.7546771E-02  0.1507527E+00
         21   -1    0    0  503  501  0.00000000000E+00  0.00000000000E+00  0.32778384884E+02  0.32778384884E+02  0.00000000000E+00 0. -1.
         21   -1    0    0  501  502 -0.00000000000E+00 -0.00000000000E+00 -0.41958054839E+02  0.41958054839E+02  0.00000000000E+00 0.  1.
         21    1    1    2  503  504 -0.11205359643E+02 -0.18752818209E+02  0.25606945969E+02  0.33659232870E+02  0.00000000000E+00 0. -1.
         21    1    1    2  504  502  0.11205359643E+02  0.18752818209E+02 -0.34786615923E+02  0.41077206854E+02  0.00000000000E+00 0.  1.
</event>
<event>
 4    1  0.1725802E+006  0.2261722E+02  0.7546771E-02  0.1497361E+00
         21   -1    0    0  504  501  0.00000000000E+00  0.00000000000E+00  0.14232256388E+02  0.14232256388E+02  0.00000000000E+00 0. -1.
         21   -1    0    0  501  502 -0.00000000000E+00 -0.00000000000E+00 -0.41106604629E+02  0.41106604629E+02  0.00000000000E+00 0. -1.
         21    1    1    2  503  502  0.29025575448E+01 -0.22430200860E+02 -0.23244579325E+02  0.32432225007E+02  0.00000000000E+00 0. -1.
         21    1    1    2  504  503 -0.29025575448E+01  0.22430200860E+02 -0.36297689160E+01  0.22906636010E+02  0.00000000000E+00 0. -1.
</event>
<event>
 4    1  0.1725802E+006  0.2217269E+02  0.7546771E-02  0.1503156E+00
         21   -1    0    0  502  501  0.00000000000E+00  0.00000000000E+00  0.42056762692E+02  0.42056762692E+02  0.00000000000E+00 0.  1.
         21   -1    0    0  504  502 -0.00000000000E+00 -0.00000000000E+00 -0.51830469590E+03  0.51830469590E+03  0.00000000000E+00 0.  1.
         21    1    1    2  503  501 -0.21943676597E+02  0.31785935647E+01  0.38879201336E+02  0.44757353543E+02  0.00000000000E+00 0.  1.
         21    1    1    2  504  503  0.21943676597E+02 -0.31785935647E+01 -0.51512713455E+03  0.51560410505E+03  0.00000000000E+00 0.  1.
</event>
<event>
 4    1  0.1725802E+006  0.2008193E+02  0.7546771E-02  0.1532787E+00
         21   -1    0    0  504  501  0.00000000000E+00  0.00000000000E+00  0.44497205645E+02  0.44497205645E+02  0.00000000000E+00 0.  1.
         21   -1    0    0  503  502 -0.00000000000E+00 -0.00000000000E+00 -0.36885748514E+02  0.36885748514E+02  0.00000000000E+00 0.  1.
         21    1    1    2  503  501  0.17716117908E+02 -0.94563831782E+01  0.39146265606E+02  0.43996751328E+02  0.00000000000E+00 0.  1.
         21    1    1    2  504  502 -0.17716117908E+02  0.94563831782E+01 -0.31534808475E+02  0.37386202830E+02  0.00000000000E+00 0.  1.
</event>
<event>
 4    1  0.1725802E+006  0.2068756E+02  0.7546771E-02  0.1523773E+00
         21   -1    0    0  503  501  0.00000000000E+00  0.00000000000E+00  0.38884869733E+01  0.38884869733E+01  0.00000000000E+00 0. -1.
         21   -1    0    0  504  502 -0.00000000000E+00 -0.00000000000E+00 -0.18595866878E+03  0.18595866878E+03  0.00000000000E+00 0. -1.
         21    1    1    2  503  502  0.60158119781E+01 -0.19793561366E+02 -0.15167756888E+03  0.15308187341E+03  0.00000000000E+00 0. -1.
         21    1    1    2  504  501 -0.60158119781E+01  0.19793561366E+02 -0.30392612928E+02  0.36765282345E+02  0.00000000000E+00 0. -1.
</event>
<event>
 4    1  0.1725802E+006  0.4279974E+02  0.7546771E-02  0.1332817E+00
         21   -1    0    0  503  501  0.00000000000E+00  0.00000000000E+00  0.68043730390E+03  0.68043730390E+03  0.00000000000E+00 0. -1.
         21   -1    0    0  504  502 -0.00000000000E+00 -0.00000000000E+00 -0.21941463598E+03  0.21941463598E+03  0.00000000000E+00 0.  1.
         21    1    1    2  503  502 -0.12398252923E+02 -0.40964628817E+02 -0.21664592337E+03  0.22083313520E+03  0.00000000000E+00 0.  1.
         21    1    1    2  504  501  0.12398252923E+02  0.40964628817E+02  0.67766859128E+03  0.67901880468E+03  0.00000000000E+00 0. -1.
</event>
<event>
 4    1  0.1725802E+006  0.2305649E+02  0.7546771E-02  0.1491790E+00
         21   -1    0    0  502  501  0.00000000000E+00  0.00000000000E+00  0.10477434121E+03  0.10477434121E+03  0.00000000000E+00 0.  1.
         21   -1    0    0  504  502 -0.00000000000E+00 -0.00000000000E+00 -0.12294827978E+02  0.12294827978E+02  0.00000000000E+00 0. -1.
         21    1    1    2  503  501  0.17382266929E+02  0.15147892528E+02  0.91098949743E+02  0.93971381260E+02  0.00000000000E+00 0.  1.
         21    1    1    2  504  503 -0.17382266929E+02 -0.15147892528E+02  0.13805634896E+01  0.23097787928E+02  0.00000000000E+00 0. -1.
</event>
<event>
 4    1  0.1725802E+006  0.2312285E+02  0.7546771E-02  0.1490961E+00
         21   -1    0    0  503  501  0.00000000000E+00  0.00000000000E+00  0.11338962407E+03  0.11338962407E+03  0.00000000000E+00 0.  1.
         21   -1    0    0  504  502 -0.00000000000E+00 -0.00000000000E+00 -0.84814303680E+01  0.84814303680E+01  0.00000000000E+00 0.  1.
         21    1    1    2  503  502  0.23122806682E+02 -0.43597470100E-01  0.93059488121E+02  0.95889177799E+02  0.00000000000E+00 0.  1.
         21    1    1    2  504  501 -0.23122806682E+02  0.43597470100E-01  0.11848705576E+02  0.25981876635E+02  0.00000000000E+00 0.  1.
</event>
<event>
 4    1  0.1725802E+006  0.2783217E+02  0.7546771E-02  0.1439423E+00
         21   -1    0    0  504  501  0.00000000000E+00  0.00000000000E+00  0.12407478635E+03  0.12407478635E+03  0.00000000000E+00 0.  1.
         21   -1    0    0  503  502 -0.00000000000E+00 -0.00000000000E+00 -0.32680311912E+02  0.32680311912E+02  0.00000000000E+00 0.  1.
         21    1    1    2  503  501  0.26521938045E+02 -0.84390012611E+01 -0.24797253041E+02  0.37276449648E+02  0.00000000000E+00 0.  1.
         21    1    1    2  504  502 -0.26521938045E+02  0.84390012611E+01  0.11619172748E+03  0.11947864862E+03  0.00000000000E+00 0.  1.
</event>
<event>
 4    1  0.1725802E+006  0.2595930E+02  0.7546771E-02  0.1458352E+00
         21   -1    0    0  504  501  0.00000000000E+00  0.00000000000E+00  0.91697168171E+01  0.91697168171E+01  0.00000000000E+00 0. -1.
         21   -1    0    0  503  502 -0.00000000000E+00 -0.00000000000E+00 -0.76394057775E+02  0.76394057775E+02  0.00000000000E+00 0. -1.
         21    1    1    2  503  501 -0.14337859119E+02 -0.21640493012E+02 -0.25271304540E+02  0.36228772751E+02  0.00000000000E+00 0. -1.
         21    1    1    2  504  502  0.14337859119E+02  0.21640493012E+02 -0.41953036418E+02  0.49335001841E+02  0.00000000000E+00 0. -1.
</event>
<event>
 4    1  0.1725802E+006  0.2367750E+02  0.7546771E-02  0.1484162E+00
         21   -1    0    0  503  501  0.00000000000E+00  0.00000000000E+00  0.59039800759E+02  0.59039800759E+02  0.00000000000E+00 0. -1.
         21   -1    0    0  504  502 -0.00000000000E+00 -0.00000000000E+00 -0.38963253209E+02  0.38963253209E+02  0.00000000000E+00 0.  1.
         21    1    1    2  503  502 -0.40325508533E+01  0.23331581284E+02 -0.32575898479E+02  0.40271743360E+02  0.00000000000E+00 0.  1.
         21    1    1    2  504  501  0.40325508533E+01 -0.23331581284E+02  0.52652446030E+02  0.57731310608E+02  0.00000000000E+00 0. -1.
</event>
<event>
 4    1  0.1725802E+006  0.2530624E+02  0.7546771E-02  0.1465406E+00
         21   -1    0    0  504  501  0.00000000000E+00  0.00000000000E+00  0.28328696983E+03  0.28328696983E+03  0.00000000000E+00 0.  1.
         21   -1    0    0  503  502 -0.00000000000E+00 -0.00000000000E+00 -0.57448184698E+02  0.57448184698E+02  0.00000000000E+00 0.  1.
         21    1    1    2  503  501 -0.24899764755E+02  0.45174704046E+01  0.27990128737E+03  0.28104294422E+03  0.00000000000E+00 0.  1.
         21    1    1    2  504  502  0.24899764755E+02 -0.45174704046E+01 -0.54062502236E+02  0.59692210311E+02  0.00000000000E+00 0.  1.
</event>
<event>
 4    1  0.1725802E+006  0.2079204E+02  0.7546771E-02  0.1522255E+00
         21   -1    0    0  504  501  0.00000000000E+00  0.00000000000E+00  0.11428630521E+03  0.11428630521E+03  0.00000000000E+00 0. -1.
         21   -1    0    0  503  502 -0.00000000000E+00 -0.00000000000E+00 -0.83519924546E+01  0.83519924546E+01  0.00000000000E+00 0. -1.
         21    1    1    2  503  501  0.50587164170E+01 -0.20167260057E+02  0.76120380388E+01  0.22141637544E+02  0.00000000000E+00 0. -1.
         21    1    1    2  504  502 -0.50587164170E+01  0.20167260057E+02  0.98322274717E+02  0.10049666012E+03  0.00000000000E+00 0. -1.
</event>
<event>
 4    1  0.1725802E+006  0.2095942E+02  0.7546771E-02  0.1519845E+00
         21   -1    0    0  503  501  0.00000000000E+00  0.00000000000E+00  0.40647745340E+01  0.40647745340E+01  0.00000000000E+00 0.  1.
         21   -1    0    0  504  502 -0.00000000000E+00 -0.00000000000E+00 -0.36834665264E+03  0.36834665264E+03  0.00000000000E+00 0.  1.
         21    1    1    2  503  502 -0.20679795727E+02 -0.34122043557E+01 -0.33866415971E+03  0.33931211320E+03  0.00000000000E+00 0.  1.
         21    1    1    2  504  501  0.20679795727E+02  0.34122043557E+01 -0.25617718392E+02  0.33099313973E+02  0.00000000000E+00 0.  1.
</event>
<event>
 4    1  0.1725802E+006  0.2190484E+02  0.7546771E-02  0.1506728E+00
         21   -1    0    0  504  501  0.00000000000E+00  0.00000000000E+00  0.11951801559E+02  0.11951801559E+02  0.00000000000E+00 0.  1.
         21   -1    0    0  503  502 -0.00000000000E+00 -0.00000000000E+00 -0.45198568821E+02  0.45198568821E+02  0.00000000000E+00 0. -1.
         21    1    1    2  503  501 -0.19003817948E+02 -0.10893900798E+02 -0.70698436332E+01  0.23017490310E+02  0.00000000000E+00 0.  1.
         21    1    1    2  504  502  0.19003817948E+02  0.10893900798E+02 -0.26176923629E+02  0.34132880070E+02  0.00000000000E+00 0. -1.
</event>
<event>
 4    1  0.1725802E+006  0.2203105E+02  0.7546771E-02  0.1505037E+00
         21   -1    0    0  503  501  0.00000000000E+00  0.00000000000E+00  0.22413345688E+03  0.22413345688E+03  0.00000000000E+00 0.  1.
         21   -1    0    0  504  502 -0.00000000000E+00 -0.00000000000E+00 -0.55324081897E+01  0.55324081897E+01  0.00000000000E+00 0. -1.
         21    1    1    2  503  502 -0.13867450297E+02  0.17119024315E+02  0.19718017912E+02  0.29566322085E+02  0.00000000000E+00 0. -1.
         21    1    1    2  504  501  0.13867450297E+02 -0.17119024315E+02  0.19888303078E+03  0.20009954299E+03  0.00000000000E+00 0.  1.
</event>
<event>
 4    1  0.1725802E+006  0.2165751E+02  0.7546771E-02  0.1510081E+00
         21   -1    0    0  503  501  0.00000000000E+00  0.00000000000E+00  0.87936683118E+01  0.87936683118E+01  0.00000000000E+00 0. -1.
         21   -1    0    0  504  502 -0.00000000000E+00 -0.00000000000E+00 -0.35606524042E+03  0.35606524042E+03  0.00000000000E+00 0.  1.
         21    1    1    2  503  502 -0.56521512984E+01  0.20906961314E+02 -0.34184702508E+03  0.34253238737E+03  0.00000000000E+00 0.  1.
         21    1    1    2  504  501  0.56521512984E+01 -0.20906961314E+02 -0.54245470378E+01  0.22326521365E+02  0.00000000000E+00 0. -1.
</event>
<event>
 4    1  0.1725802E+006  0.2009438E+02  0.7546771E-02  0.1532598E+00
         21   -1    0    0  504  501  0.00000000000E+00  0.00000000000E+00  0.16811130237E+03  0.16811130237E+03  0.00000000000E+00 0. -1.
         21   -1    0    0  503  502 -0.00000000000E+00 -0.00000000000E+00 -0.32198417194E+02  0.32198417194E+02  0.00000000000E+00 0.  1.
         21    1    1    2  503  501  0.13932631982E+02 -0.14479848249E+02 -0.28390428934E+02  0.34782189326E+02  0.00000000000E+00 0.  1.
         21    1    1    2  504  502 -0.13932631982E+02  0.14479848249E+02  0.16430331411E+03  0.16552753024E+03  0.00000000000E+00 0. -1.
</event>
<event>
 4    1  0.1725802E+006  0.2556836E+02  0.7546771E-02  0.1462545E+00
         21   -1    0    0  503  501  0.00000000000E+00  0.00000000000E+00  0.11506212854E+04  0.11506212854E+04  0.00000000000E+00 0. -1.
         21   -1    0    0  504  502 -0.00000000000E+00 -0.00000000000E+00 -0.16268324133E+01  0.16268324133E+01  0.00000000000E+00 0.  1.
         21    1    1    2  503  502 -0.25270146494E+02 -0.38936590143E+01  0.10392529076E+04  0.10395673845E+04  0.00000000000E+00 0. -1.
         21    1    1    2  504  501  0.25270146494E+02  0.38936590143E+01  0.10974154536E+03  0.11268073332E+03  0.00000000000E+00 0.  1.
</event>
<event>
 4    1  0.1725802E+006  0.2257980E+02  0.7546771E-02  0.1497843E+00
         21   -1    0    0  503  501  0.00000000000E+00  0.00000000000E+00  0.33105473290E+03  0.33105473290E+03  0.00000000000E+00 0.  1.
         21   -1    0    0  501  502 -0.00000000000E+00 -0.00000000000E+00 -0.19550497258E+02  0.19550497258E+02  0.00000000000E+00 0.  1.
         21    1    1    2  503  504  0.21099922220E+02  0.80399413257E+01  0.32400848266E+03  0.32479431062E+03  0.00000000000E+00 0.  1.
         21    1    1    2  504  502 -0.21099922220E+02 -0.80399413257E+01 -0.12504247016E+02  0.25810919543E+02  0.00000000000E+00 0.  1.
</event>
<event>
 4    1  0.1725802E+006  0.3003208E+02  0.7546771E-02  0.1419318E+00
         21   -1    0    0  503  501  0.00000000000E+00  0.00000000000E+00  0.10218075417E+03  0.10218075417E+03  0.00000000000E+00 0.  1.
         21   -1    0    0  504  502 -0.00000000000E+00 -0.00000000000E+00 -0.10640709084E+02  0.10640709084E+02  0.00000000000E+00 0.  1.
         21    1    1    2  503  502 -0.18573680153E+02  0.23599661649E+02  0.22479016128E+02  0.37513088255E+02  0.00000000000E+00 0.  1.
         21    1    1    2  504  501  0.18573680153E+02 -0.23599661649E+02  0.69061028961E+02  0.75308375002E+02  0.00000000000E+00 0.  1.
</event>
<event>
 4    1  0.1725802E+006  0.3394277E+02  0.7546771E-02  0.1388152E+00
         21   -1    0    0  504  501  0.00000000000E+00  0.00000000000E+00  0.12283521698E+02  0.12283521698E+02  0.00000000000E+00 0. -1.
         21   -1    0    0  501  502 -0.00000000000E+00 -0.00000000000E+00 -0.18325577049E+03  0.18325577049E+03  0.00000000000E+00 0.  1.
         21    1    1    2  503  502 -0.19622262461E+02 -0.27696181368E+02 -0.15379792519E+03  0.15749893155E+03  0.00000000000E+00 0.  1.
         21    1    1    2  504  503  0.19622262461E+02  0.27696181368E+02 -0.17174323605E+02  0.38040360642E+02  0.00000000000E+00 0. -1.
</event>
<event>
 4    1  0.1725802E+006  0.2185970E+02  0.7546771E-02  0.1507336E+00
         21   -1    0    0  503  501  0.00000000000E+00  0.00000000000E+00  0.79844372419E+03  0.79844372419E+03  0.00000000000E+00 0. -1.
         21   -1    0    0  501  502 -0.00000000000E+00 -0.00000000000E+00 -0.61805196571E+00  0.61805196571E+00  0.00000000000E+00 0. -1.
         21    1    1    2  503  504  0.14952413391E+02 -0.15945899185E+02  0.47002463775E+03  0.47053268373E+03  0.00000000000E+00 0. -1.
         21    1    1    2  504  502 -0.14952413391E+02  0.15945899185E+02  0.32780103447E+03  0.32852909242E+03  0.00000000000E+00 0. -1.
</event>
<event>
 4    1  0.1725802E+006  0.2700249E+02  0.7546771E-02  0.1447583E+00
         21   -1    0    0  503  501  0.00000000000E+00  0.00000000000E+00  0.12995855485E+02  0.12995855485E+02  0.00000000000E+00 0.  1.
         21   -1    0    0  504  502 -0.00000000000E+00 -0.00000000000E+00 -0.56896040945E+02  0.56896040945E+02  0.00000000000E+00 0.  1.
         21    1    1    2  503  502  0.17266416602E+02 -0.20760663748E+02 -0.17829908463E+02  0.32357996497E+02  0.00000000000E+00 0.  1.
         21    1    1    2  504  501 -0.17266416602E+02  0.20760663748E+02 -0.26070276996E+02  0.37533899933E+02  0.00000000000E+00 0.  1.
</event>
<event>
 4    1  0.1725802E+006  0.2624611E+02  0.7546771E-02  0.1455332E+00
         21   -1    0    0  504  501  0.00000000000E+00  0.00000000000E+00  0.33310453121E+02  0.33310453121E+02  0.00000000000E+00 0.  1.
         21   -1    0    0  503  502 -0.00000000000E+00 -0.00000000000E+00 -0.21682038533E+02  0.21682038533E+02  0.00000000000E+00 0.  1.
         21    1    1    2  503  501 -0.26009077732E+02  0.35193906327E+01  0.11725441262E+02  0.28746203362E+02  0.00000000000E+00 0.  1.
         21    1    1    2  504  502  0.26009077732E+02 -0.35193906327E+01 -0.97026674224E-01  0.26246288292E+02  0.00000000000E+00 0.  1.
</event>
<event>
 4    1  0.1725802E+006  0.2172523E+02  0.7546771E-02  0.1509157E+00
         21   -1    0    0  504  501  0.00000000000E+00  0.00000000000E+00  0.15298304436E+01  0.15298304436E+01  0.00000000000E+00 0.  1.
         21   -1    0    0  501  502 -0.00000000000E+00 -0.00000000000E+00 -0.99343620081E+03  0.99343620081E+03  0.00000000000E+00 0. -1.
         21    1    1    2  503  502 -0.20863520406E+02 -0.60579647085E+01 -0.90902593445E+03  0.90928550792E+03  0.00000000000E+00 0. -1.
         21    1    1    2  504  503  0.20863520406E+02  0.60579647085E+01 -0.82880435916E+02  0.85680523328E+02  0.00000000000E+00 0.  1.
</event>
<event>
 4    1  0.1725802E+006  0.2045389E+02  0.7546771E-02  0.1527207E+00
         21   -1    0    0  503  501  0.00000000000E+00  0.00000000000E+00  0.10014908183E+03  0.10014908183E+03  0.00000000000E+00 0.  1.
         21   -1    0    0  504  502 -0.00000000000E+00 -0.00000000000E+00 -0.42388036111E+01  0.42388036111E+01  0.00000000000E+00 0.  1.
         21    1    1    2  503  502  0.17582601214E+02  0.10450538199E+02  0.54237695297E+02  0.57966276448E+02  0.00000000000E+00 0.  1.
         21    1    1    2  504  501 -0.17582601214E+02 -0.10450538199E+02  0.41672582918E+02  0.46421608989E+02  0.00000000000E+00 0.  1.
</event>
<event>
 4    1  0.1725802E+006  0.2063281E+02  0.7546771E-02  0.1524572E+00
         21   -1    0    0  503  501  0.00000000000E+00  0.00000000000E+00  0.27298592283E+02  0.27298592283E+02  0.00000000000E+00 0.  1.
         21   -1    0    0  504  502 -0.00000000000E+00 -0.00000000000E+00 -0.16399112374E+02  0.16399112374E+02  0.00000000000E+00 0.  1.
         21    1    1    2  503  502 -0.17927728637E+02  0.10213197462E+02  0.61066020257E+00  0.20641844936E+02  0.00000000000E+00 0.  1.
         21    1    1    2  504  501  0.17927728637E+02 -0.10213197462E+02  0.10288819707E+02  0.23055859720E+02  0.00000000000E+00 0.  1.
</event>
<event>
 4    1  0.1725802E+006  0.2263937E+02  0.7546771E-02  0.1497077E+00
         21   -1    0    0  504  501  0.00000000000E+00  0.00000000000E+00  0.46024376138E+03  0.46024376138E+03  0.00000000000E+00 0.  1.
         21   -1    0    0  501  502 -0.00000000000E+00 -0.00000000000E+00 -0.17291056581E+02  0.17291056581E+02  0.00000000000E+00 0. -1.
         21    1    1    2  503  502  0.34325052977E+01 -0.22377643756E+02 -0.94742003766E+01  0.24541831746E+02  0.00000000000E+00 0. -1.
         21    1    1    2  504  503 -0.34325052977E+01  0.22377643756E+02  0.45242690518E+03  0.45299298622E+03  0.00000000000E+00 0.  1.
</event>
<event>
 4    1  0.1725802E+006  0.4799054E+02  0.7546771E-02  0.1307128E+00
         21   -1    0    0  504  501  0.00000000000E+00  0.00000000000E+00  0.76622224690E+03  0.76622224690E+03  0.00000000000E+00 0. -1.
         21   -1    0    0  503  502 -0.00000000000E+00 -0.00000000000E+00 -0.28229904362E+02  0.28229904362E+02  0.00000000000E+00 0.  1.
         21    1    1    2  503  501 -0.27281107236E+02 -0.39482060418E+02 -0.64875697702E+01  0.48427063388E+02  0.00000000000E+00 0.  1.
         21    1    1    2  504  502  0.27281107236E+02  0.39482060418E+02  0.74447991230E+03  0.74602508787E+03  0.00000000000E+00 0. -1.
</event>
<event>
 4    1  0.1725802E+006  0.2078421E+02  0.7546771E-02  0.1522368E+00
         21   -1    0    0  503  501  0.00000000000E+00  0.00000000000E+00  0.64338917235E+00  0.64338917235E+00  0.00000000000E+00 0.  1.
         21   -1    0    0  504  502 -0.00000000000E+00 -0.00000000000E+00 -0.74903897357E+03  0.74903897357E+03  0.00000000000E+00 0.  1.
         21    1    1    2  503  502  0.15701509944E+02  0.13617856546E+02 -0.49486327847E+03  0.49529955361E+03  0.00000000000E+00 0.  1.
         21    1    1    2  504  501 -0.15701509944E+02 -0.13617856546E+02 -0.25353230593E+03  0.25438280913E+03  0.00000000000E+00 0.  1.
</event>
<event>
 4    1  0.1725802E+006  0.2958085E+02  0.7546771E-02  0.1423274E+00
         21   -1    0    0  503  501  0.00000000000E+00  0.00000000000E+00  0.29308068835E+02  0.29308068835E+02  0.00000000000E+00 0. -1.
         21   -1    0    0  504  502 -0.00000000000E+00 -0.00000000000E+00 -0.31365421907E+02  0.31365421907E+02  0.00000000000E+00 0. -1.
         21    1    1    2  503  502 -0.29419920276E+02  0.30813749916E+01 -0.76833201132E+01  0.30562395012E+02  0.00000000000E+00 0. -1.
         21    1    1    2  504  501  0.29419920276E+02 -0.30813749916E+01  0.56259670419E+01  0.30111095730E+02  0.00000000000E+00 0. -1.
</event>
<event>
 4    1  0.1725802E+006  0.2168329E+02  0.7546771E-02  0.1509729E+00
         21   -1    0    0  504  501  0.00000000000E+00  0.00000000000E+00  0.20597672156E+03  0.20597672156E+03  0.00000000000E+00 0.  1.
         21   -1    0    0  503  502 -0.00000000000E+00 -0.00000000000E+00 -0.18512468504E+03  0.18512468504E+03  0.00000000000E+00 0.  1.
         21    1    1    2  503  501  0.19506606839E+02  0.94687476997E+01  0.20476739924E+03  0.20591224511E+03  0.00000000000E+00 0.  1.
         21    1    1    2  504  502 -0.19506606839E+02 -0.94687476997E+01 -0.18391536272E+03  0.18518916150E+03  0.00000000000E+00 0.  1.
</event>
<event>
 4    1  0.1725802E+006  0.2332212E+02  0.7546771E-02  0.1488492E+00
         21   -1    0    0  503  501  0.00000000000E+00  0.00000000000E+00  0.82970936956E+02  0.82970936956E+02  0.00000000000E+00 0.  1.
         21   -1    0    0  504  502 -0.00000000000E+00 -0.00000000000E+00 -0.12593195506E+03  0.12593195506E+03  0.00000000000E+00 0.  1.
         21    1    1    2  503  502  0.37675760774E+01 -0.23015786615E+02  0.80215921855E+02  0.83537507636E+02  0.00000000000E+00 0.  1.
         21    1    1    2  504  501 -0.37675760774E+01  0.23015786615E+02 -0.12317693996E+03  0.12536538438E+03  0.00000000000E+00 0.  1.
</event>
<event>
 4    1  0.1725802E+006  0.2765708E+02  0.7546771E-02  0.1441117E+00
         21   -1    0    0  503  501  0.00000000000E+00  0.00000000000E+00  0.81600407130E+02  0.81600407130E+02  0.00000000000E+00 0.  1.
         21   -1    0    0  504  502 -0.00000000000E+00 -0.00000000000E+00 -0.34344827287E+02  0.34344827287E+02  0.00000000000E+00 0.  1.
         21    1    1    2  503  502 -0.57724018284E+01  0.27047983716E+02 -0.25804368614E+02  0.37825645871E+02  0.00000000000E+00 0.  1.
         21    1    1    2  504  501  0.57724018284E+01 -0.27047983716E+02  0.73059948458E+02  0.78119588546E+02  0.00000000000E+00 0.  1.
</event>
<event>
 4    1  0.1725802E+006  0.2926207E+02  0.7546771E-02  0.1426119E+00
         21   -1    0    0  503  501  0.00000000000E+00  0.00000000000E+00  0.52117258979E+01  0.52117258979E+01  0.00000000000E+00 0.  1.
         21   -1    0    0  501  502 -0.00000000000E+00 -0.00000000000E+00 -0.18217947870E+03  0.18217947870E+03  0.00000000000E+00 0.  1.
         21    1    1    2  503  504 -0.10144993981E+02 -0.27447177590E+02 -0.59128402801E+02  0.65972998100E+02  0.00000000000E+00 0.  1.
         21    1    1    2  504  502  0.10144993981E+02  0.27447177590E+02 -0.11783935000E+03  0.12141820650E+03  0.00000000000E+00 0.  1.
</event>
<event>
 4    1  0.1725802E+006  0.5716494E+02  0.7546771E-02  0.1269782E+00
         21   -1    0    0  502  501  0.00000000000E+00  0.00000000000E+00  0.12012748703E+04  0.12012748703E+04  0.00000000000E+00 0. -1.
         21   -1    0    0  504  502 -0.00000000000E+00 -0.00000000000E+00 -0.31758450399E+01  0.31758450399E+01  0.00000000000E+00 0.  1.
         21    1    1    2  503  501 -0.53149710153E+02 -0.21046101782E+02  0.82713320253E+03  0.82910624459E+03  0.00000000000E+00 0. -1.
         21    1    1    2  504  503  0.53149710153E+02  0.21046101782E+02  0.37096582278E+03  0.37534447080E+03  0.00000000000E+00 0.  1.
</event>
<event>
 4    1  0.1725802E+006  0.2767514E+02  0.7546771E-02  0.1440942E+00
         21   -1    0    0  502  501  0.00000000000E+00  0.00000000000E+00  0.12003798650E+03  0.12003798650E+03  0.00000000000E+00 0. -1.
         21   -1    0    0  504  502 -0.00000000000E+00 -0.00000000000E+00 -0.96646698548E+01  0.96646698548E+01  0.00000000000E+00 0. -1.
         21    1    1    2  503  501  0.92855187820E+01 -0.26070916277E+02  0.92990159191E+02  0.97021045351E+02  0.00000000000E+00 0. -1.
         21    1    1    2  504  503 -0.92855187820E+01  0.26070916277E+02  0.17383157449E+02  0.32681610999E+02  0.00000000000E+00 0. -1.
</event>
<event>
 4    1  0.1725802E+006  0.2107960E+02  0.7546771E-02  0.1518131E+00
         21   -1    0    0  502  501  0.00000000000E+00  0.00000000000E+00  0.17467891536E+03  0.17467891536E+03  0.00000000000E+00 0. -1.
         21   -1    0    0  504  502 -0.00000000000E+00 -0.00000000000E+00 -0.11597341827E+03  0.11597341827E+03  0.00000000000E+00 0. -1.
         21    1    1    2  503  501 -0.15988338759E+02 -0.13737635370E+02  0.17307625682E+03  0.17435521293E+03  0.00000000000E+00 0. -1.
         21    1    1    2  504  503  0.15988338759E+02  0.13737635370E+02 -0.11437075973E+03  0.11629712070E+03  0.00000000000E+00 0. -1.
</event>
<event>
 4    1  0.1725802E+006  0.2066509E+02  0.7546771E-02  0.1524101E+00
         21   -1    0    0  504  501  0.00000000000E+00  0.00000000000E+00  0.32286630013E+02  0.32286630013E+02  0.00000000000E+00 0. -1.
         21   -1    0    0  503  502 -0.00000000000E+00 -0.00000000000E+00 -0.18861846660E+02  0.18861846660E+02  0.00000000000E+00 0.  1.
         21    1    1    2  503  501  0.19127459564E+02  0.78221618664E+01  0.20690963094E+02  0.29243150982E+02  0.00000000000E+00 0. -1.
         21    1    1    2  504  502 -0.19127459564E+02 -0.78221618664E+01 -0.72661797409E+01  0.21905325692E+02  0.00000000000E+00 0.  1.
</event>
<event>
 4    1  0.1725802E+006  0.3890625E+02  0.7546771E-02  0.1355017E+00
         21   -1    0    0  503  501  0.00000000000E+00  0.00000000000E+00  0.23463445830E+02  0.23463445830E+02  0.00000000000E+00 0.  1.
         21   -1    0    0  504  502 -0.00000000000E+00 -0.00000000000E+00 -0.70907486242E+02  0.70907486242E+02  0.00000000000E+00 0.  1.
         21    1    1    2  503  502  0.34546742219E+02 -0.17894671788E+02 -0.95521488459E+01  0.40061705205E+02  0.00000000000E+00 0.  1.
         21    1    1    2  504  501 -0.34546742219E+02  0.17894671788E+02 -0.37891891566E+02  0.54309226866E+02  0.00000000000E+00 0.  1.
</event>
<event>
 4    1  0.1725802E+006  0.4173927E+02  0.7546771E-02  0.1338584E+00
         21   -1    0    0  502  501  0.00000000000E+00  0.00000000000E+00  0.17129284926E+03  0.17129284926E+03  0.00000000000E+00 0.  1.
         21   -1    0    0  504  502 -0.00000000000E+00 -0.00000000000E+00 -0.20223996137E+03  0.20223996137E+03  0.00000000000E+00 0. -1.
         21    1    1    2  503  501  0.36878311908E+02 -0.19548822648E+02  0.16653601173E+03  0.17168695221E+03  0.00000000000E+00 0.  1.
         21    1    1    2  504  503 -0.36878311908E+02  0.19548822648E+02 -0.19748312385E+03  0.20184585842E+03  0.00000000000E+00 0. -1.
</event>
<event>
 4    1  0.1725802E+006  0.2006350E+02  0.7546771E-02  0.1533067E+00
         21   -1    0    0  504  501  0.00000000000E+00  0.00000000000E+00  0.33029047768E+02  0.33029047768E+02  0.00000000000E+00 0. -1.
         21   -1    0    0  503  502 -0.00000000000E+00 -0.00000000000E+00 -0.15562735761E+03  0.15562735761E+03  0.00000000000E+00 0. -1.
         21    1    1    2  503  501 -0.19169054932E+02  0.59238031716E+01  0.29260214893E+02  0.35478222709E+02  0.00000000000E+00 0. -1.
         21    1    1    2  504  502  0.19169054932E+02 -0.59238031716E+01 -0.15185852473E+03  0.15317818267E+03  0.00000000000E+00 0. -1.
</event>
<event>
 4    1  0.1725802E+006  0.2389035E+02  0.7546771E-02  0.1481611E+00
         21   -1    0    0  504  501  0.00000000000E+00  0.00000000000E+00  0.29718143938E+03  0.29718143938E+03  0.00000000000E+00 0. -1.
         21   -1    0    0  503  502 -0.00000000000E+00 -0.00000000000E+00 -0.27721994270E+02  0.27721994270E+02  0.00000000000E+00 0. -1.
         21    1    1    2  503  501  0.84161987288E+01  0.22358815213E+02  0.29145323568E+03  0.29243073985E+03  0.00000000000E+00 0. -1.
         21    1    1    2  504  502 -0.84161987288E+01 -0.22358815213E+02 -0.21993790574E+02  0.32472693799E+02  0.00000000000E+00 0. -1.
</event>
<event>
 4    1  0.1725802E+006  0.3311945E+02  0.7546771E-02  0.1394289E+00
         21   -1    0    0  503  501  0.00000000000E+00  0.00000000000E+00  0.34640646330E+02  0.34640646330E+02  0.00000000000E+00 0. -1.
         21   -1    0    0  501  502 -0.00000000000E+00 -0.00000000000E+00 -0.71454220712E+02  0.71454220712E+02  0.00000000000E+00 0.  1.
         21    1    1    2  503  504  0.26432311669E+02  0.19955726367E+02  0.21178411355E+02  0.39311871267E+02  0.00000000000E+00 0. -1.
         21    1    1    2  504  502 -0.26432311669E+02 -0.19955726367E+02 -0.57991985737E+02  0.66782995776E+02  0.00000000000E+00 0.  1.
</event>
<event>
 4    1  0.1725802E+006  0.2022728E+02  0.7546771E-02  0.1530589E+00
         21   -1    0    0  503  501  0.00000000000E+00  0.00000000000E+00  0.13356643156E+02  0.13356643156E+02  0.00000000000E+00 0.  1.
         21   -1    0    0  504  502 -0.00000000000E+00 -0.00000000000E+00 -0.41000218185E+02  0.41000218185E+02  0.00000000000E+00 0. -1.
         21    1    1    2  503  502  0.18098845840E+02 -0.90318656062E+01 -0.15457253342E+00  0.20227869630E+02  0.00000000000E+00 0.  1.
         21    1    1    2  504  501 -0.18098845840E+02  0.90318656062E+01 -0.27489002495E+02  0.34128991712E+02  0.00000000000E+00 0. -1.
</event>
<event>
 4    1  0.1725802E+006  0.2034309E+02  0.7546771E-02  0.1528854E+00
         21   -1    0    0  503  501  0.00000000000E+00  0.00000000000E+00  0.36819389535E+02  0.36819389535E+02  0.00000000000E+00 0. -1.
         21   -1    0    0  501  502 -0.00000000000E+00 -0.00000000000E+00 -0.29599666137E+02  0.29599666137E+02  0.00000000000E+00 0. -1.
         21    1    1    2  503  504  0.17204545683E+00 -0.20342359250E+02  0.29764848066E+02  0.36052563846E+02  0.00000000000E+00 0. -1.
         21    1    1    2  504  502 -0.17204545683E+00  0.20342359250E+02 -0.22545124669E+02  0.30366491826E+02  0.00000000000E+00 0. -1.
</event>
<event>
 4    1  0.1725802E+006  0.4814885E+02  0.7546771E-02  0.1306404E+00
         21   -1    0    0  504  501  0.00000000000E+00  0.00000000000E+00  0.44556817855E+01  0.44556817855E+01  0.00000000000E+00 0. -1.
         21   -1    0    0  503  502 -0.00000000000E+00 -0.00000000000E+00 -0.86277569052E+03  0.86277569052E+03  0.00000000000E+00 0.  1.
         21    1    1    2  503  501  0.45353664314E+02  0.16166548540E+02 -0.70235197558E+03  0.70400043306E+03  0.00000000000E+00 0.  1.
         21    1    1    2  504  502 -0.45353664314E+02 -0.16166548540E+02 -0.15596803316E+03  0.16323093924E+03  0.00000000000E+00 0. -1.
</event>
<event>
 4    1  0.1725802E+006  0.2854027E+02  0.7546771E-02  0.1432721E+00
         21   -1    0    0  503  501  0.00000000000E+00  0.00000000000E+00  0.11476992380E+03  0.11476992380E+03  0.00000000000E+00 0. -1.
         21   -1    0    0  501  502 -0.00000000000E+00 -0.00000000000E+00 -0.14567579851E+02  0.14567579851E+02  0.00000000000E+00 0.  1.
         21    1    1    2  503  504  0.14615457767E+02 -0.24513983332E+02  0.96410837171E+02  0.10054648929E+03  0.00000000000E+00 0. -1.
         21    1    1    2  504  502 -0.14615457767E+02  0.24513983332E+02  0.37915067827E+01  0.28791014366E+02  0.00000000000E+00 0.  1.
</event>
<event>
 4    1  0.1725802E+006  0.2188911E+02  0.7546771E-02  0.1506939E+00
         21   -1    0    0  504  501  0.00000000000E+00  0.00000000000E+00  0.77049818616E+00  0.77049818616E+00  0.00000000000E+00 0.  1.
         21   -1    0    0  503  502 -0.00000000000E+00 -0.00000000000E+00 -0.86755029966E+03  0.86755029966E+03  0.00000000000E+00 0.  1.
         21    1    1    2  503  501  0.10375247822E+02  0.19274012779E+02 -0.20233944949E+03  0.20351998958E+03  0.00000000000E+00 0.  1.
         21    1    1    2  504  502 -0.10375247822E+02 -0.19274012779E+02 -0.66444035198E+03  0.66480080827E+03  0.00000000000E+00 0.  1.
</event>
<event>
 4    1  0.1725802E+006  0.2102224E+02  0.7546771E-02  0.1518948E+00
         21   -1    0    0  503  501  0.00000000000E+00  0.00000000000E+00  0.76052084344E+03  0.76052084344E+03  0.00000000000E+00 0. -1.
         21   -1    0    0  501  502 -0.00000000000E+00 -0.00000000000E+00 -0.28944509892E+01  0.28944509892E+01  0.00000000000E+00 0. -1.
         21    1    1    2  503  504  0.15653928450E+02 -0.14031712741E+02  0.72006035740E+03  0.72036716523E+03  0.00000000000E+00 0. -1.
         21    1    1    2  504  502 -0.15653928450E+02  0.14031712741E+02  0.37566035053E+02  0.43048129204E+02  0.00000000000E+00 0. -1.
</event>
<event>
 4    1  0.1725802E+006  0.2204636E+02  0.7546771E-02  0.1504833E+00
         21   -1    0    0  503  501  0.00000000000E+00  0.00000000000E+00  0.31020782123E+02  0.31020782123E+02  0.00000000000E+00 0. -1.
         21   -1    0    0  504  502 -0.00000000000E+00 -0.00000000000E+00 -0.15753480416E+02  0.15753480416E+02  0.00000000000E+00 0.  1.
         21    1    1    2  503  502  0.60323981638E+01 -0.21205007356E+02  0.59136815774E+01  0.22825726590E+02  0.00000000000E+00 0. -1.
         21    1    1    2  504  501 -0.60323981638E+01  0.21205007356E+02  0.93536201295E+01  0.23948535949E+02  0.00000000000E+00 0.  1.
</event>
<event>
 4    1  0.1725802E+006  0.2188430E+02  0.7546771E-02  0.1507004E+00
         21   -1    0    0  503  501  0.00000000000E+00  0.00000000000E+00  0.57692305130E+02  0.57692305130E+02  0.00000000000E+00 0. -1.
         21   -1    0    0  504  502 -0.00000000000E+00 -0.00000000000E+00 -0.77567390954E+02  0.77567390954E+02  0.00000000000E+00 0. -1.
         21    1    1    2  503  502  0.71197216726E+01  0.20693770776E+02 -0.73846109991E+02  0.77020585212E+02  0.00000000000E+00 0. -1.
         21    1    1    2  504  501 -0.71197216726E+01 -0.20693770776E+02  0.53971024167E+02  0.58239110873E+02  0.00000000000E+00 0. -1.
</event>
<event>
 4    1  0.1725802E+006  0.3141069E+02  0.7546771E-02  0.1407721E+00
         21   -1    0    0  502  501  0.00000000000E+00  0.00000000000E+00  0.49023117393E+03  0.49023117393E+03  0.00000000000E+00 0. -1.
         21   -1    0    0  503  502 -0.00000000000E+00 -0.00000000000E+00 -0.28909397281E+01  0.28909397281E+01  0.00000000000E+00 0. -1.
         21    1    1    2  503  504 -0.12352236384E+02 -0.28879984317E+02  0.10776360294E+03  0.11224805280E+03  0.00000000000E+00 0. -1.
         21    1    1    2  504  501  0.12352236384E+02  0.28879984317E+02  0.37957663125E+03  0.38087406085E+03  0.00000000000E+00 0. -1.
</event>
<event>
 4    1  0.1725802E+006  0.2148126E+02  0.7546771E-02  0.1512503E+00
         21   -1    0    0  503  501  0.00000000000E+00  0.00000000000E+00  0.24826384957E+02  0.24826384957E+02  0.00000000000E+00 0.  1.
         21   -1    0    0  504  502 -0.00000000000E+00 -0.00000000000E+00 -0.35740202495E+02  0.35740202495E+02  0.00000000000E+00 0.  1.
         21    1    1    2  503  502 -0.20162852892E+02  0.74097244871E+01  0.15522774476E+02  0.26502852322E+02  0.00000000000E+00 0.  1.
         21    1    1    2  504  501  0.20162852892E+02 -0.74097244871E+01 -0.26436592014E+02  0.34063735130E+02  0.00000000000E+00 0.  1.
</event>
<event>
 4    1  0.1725802E+006  0.3037075E+02  0.7546771E-02  0.1416401E+00
         21   -1    0    0  504  501  0.00000000000E+00  0.00000000000E+00  0.61343947448E+02  0.61343947448E+02  0.00000000000E+00 0.  1.
         21   -1    0    0  503  502 -0.00000000000E+00 -0.00000000000E+00 -0.15036445196E+02  0.15036445196E+02  0.00000000000E+00 0.  1.
         21    1    1    2  503  501 -0.29919883813E+02  0.52137454232E+01  0.23293296056E+02  0.38274798887E+02  0.00000000000E+00 0.  1.
         21    1    1    2  504  502  0.29919883813E+02 -0.52137454232E+01  0.23014206195E+02  0.38105593756E+02  0.00000000000E+00 0.  1.
</event>
<event>
 4    1  0.1725802E+006  0.2411825E+02  0.7546771E-02  0.1478914E+00
         21   -1    0    0  504  501  0.00000000000E+00  0.00000000000E+00  0.11116471974E+03  0.11116471974E+03  0.00000000000E+00 0.  1.
         21   -1    0    0  503  502 -0.00000000000E+00 -0.00000000000E+00 -0.68585673742E+01  0.68585673742E+01  0.00000000000E+00 0.  1.
         21    1    1    2  503  501 -0.80967406834E+01  0.22718558209E+02  0.80885046225E+02  0.84404270032E+02  0.00000000000E+00 0.  1.
         21    1    1    2  504  502  0.80967406834E+01 -0.22718558209E+02  0.23421106143E+02  0.33619017085E+02  0.00000000000E+00 0.  1.
</event>
<event>
 4    1  0.1725802E+006  0.2008527E+02  0.7546771E-02  0.1532736E+00
         21   -1    0    0  504  501  0.00000000000E+00  0.00000000000E+00  0.29202746222E+01  0.29202746222E+01  0.00000000000E+00 0.  1.
         21   -1    0    0  503  502 -0.00000000000E+00 -0.00000000000E+00 -0.23354948589E+03  0.23354948589E+03  0.00000000000E+00 0. -1.
         21    1    1    2  503  501 -0.18078674348E+02  0.87509723445E+01 -0.39745693486E+02  0.44532439118E+02  0.00000000000E+00 0.  1.
         21    1    1    2  504  502  0.18078674348E+02 -0.87509723445E+01 -0.19088351778E+03  0.19193732139E+03  0.00000000000E+00 0. -1.
</event>
<event>
 4    1  0.1725802E+006  0.2753383E+02  0.7546771E-02  0.1442318E+00
         21   -1    0    0  504  501  0.00000000000E+00  0.00000000000E+00  0.45760650074E+03  0.45760650074E+03  0.00000000000E+00 0.  1.
         21   -1    0    0  503  502 -0.00000000000E+00 -0.00000000000E+00 -0.47292624614E+01  0.47292624614E+01  0.00000000000E+00 0. -1.
         21    1    1    2  503  501 -0.22198847249E+02  0.16288738352E+02  0.41276823885E+03  0.41368554582E+03  0.00000000000E+00 0.  1.
         21    1    1    2  504  502  0.22198847249E+02 -0.16288738352E+02  0.40108999434E+02  0.48650217388E+02  0.00000000000E+00 0. -1.
</event>
<event>
 4    1  0.1725802E+006  0.4680274E+02  0.7546771E-02  0.1312663E+00
         21   -1    0    0  504  501  0.00000000000E+00  0.00000000000E+00  0.18587386980E+03  0.18587386980E+03  0.00000000000E+00 0. -1.
         21   -1    0    0  503  502 -0.00000000000E+00 -0.00000000000E+00 -0.65486243158E+02  0.65486243158E+02  0.00000000000E+00 0. -1.
         21    1    1    2  503  501  0.45413995180E+02  0.11316591114E+02 -0.53617148619E+02  0.71170884628E+02  0.00000000000E+00 0. -1.
         21    1    1    2  504  502 -0.45413995180E+02 -0.11316591114E+02  0.17400477526E+03  0.18018922833E+03  0.00000000000E+00 0. -1.
</event>
<event>
 4    1  0.1725802E+006  0.2796736E+02  0.7546771E-02  0.1438126E+00
         21   -1    0    0  504  501  0.00000000000E+00  0.00000000000E+00  0.37154673079E+01  0.37154673079E+01  0.00000000000E+00 0.  1.
         21   -1    0    0  503  502 -0.00000000000E+00 -0.00000000000E+00 -0.24357066681E+03  0.24357066681E+03  0.00000000000E+00 0. -1.
         21    1    1    2  503  501  0.23667723177E+02  0.14900064876E+02 -0.74380577727E+02  0.79464730520E+02  0.00000000000E+00 0.  1.
         21    1    1    2  504  502 -0.23667723177E+02 -0.14900064876E+02 -0.16547462177E+03  0.16782140359E+03  0.00000000000E+00 0. -1.
</event>
<event>
 4    1  0.1725802E+006  0.2305118E+02  0.7546771E-02  0.1491856E+00
         21   -1    0    0  504  501  0.00000000000E+00  0.00000000000E+00  0.20189636774E+02  0.20189636774E+02  0.00000000000E+00 0.  1.
         21   -1    0    0  501  502 -0.00000000000E+00 -0.00000000000E+00 -0.10951371130E+04  0.10951371130E+04  0.00000000000E+00 0. -1.
         21    1    1    2  503  502  0.19700452626E+02  0.11968678212E+02 -0.10883954867E+04  0.10886395604E+04  0.00000000000E+00 0. -1.
         21    1    1    2  504  503 -0.19700452626E+02 -0.11968678212E+02  0.13448010435E+02  0.26687189370E+02  0.00000000000E+00 0.  1.
</event>
<event>
 4    1  0.1725802E+006  0.2210572E+02  0.7546771E-02  0.1504044E+00
         21   -1    0    0  502  501  0.00000000000E+00  0.00000000000E+00  0.25908337099E+03  0.25908337099E+03  0.00000000000E+00 0. -1.
         21   -1    0    0  504  502 -0.00000000000E+00 -0.00000000000E+00 -0.20400554602E+02  0.20400554602E+02  0.00000000000E+00 0. -1.
         21    1    1    2  503  501  0.32680543945E+01 -0.21862811273E+02  0.25246685004E+03  0.25343277820E+03  0.00000000000E+00 0. -1.
         21    1    1    2  504  503 -0.32680543945E+01  0.21862811273E+02 -0.13784033659E+02  0.26051147387E+02  0.00000000000E+00 0. -1.
</event>
<event>
 4    1  0.1725802E+006  0.2003041E+02  0.7546771E-02  0.1533571E+00
         21   -1    0    0  504  501  0.00000000000E+00  0.00000000000E+00  0.14037314514E+02  0.14037314514E+02  0.00000000000E+00 0. -1.
         21   -1    0    0  503  502 -0.00000000000E+00 -0.00000000000E+00 -0.29152497985E+02  0.29152497985E+02  0.00000000000E+00 0. -1.
         21    1    1    2  503  501  0.80094987880E+01  0.18359341721E+02 -0.10577959233E+02  0.22651947395E+02  0.00000000000E+00 0. -1.
         21    1    1    2  504  502 -0.80094987880E+01 -0.18359341721E+02 -0.45372242378E+01  0.20537865104E+02  0.00000000000E+00 0. -1.
</event>
<event>
 4    1  0.1725802E+006  0.2039789E+02  0.7546771E-02  0.1528038E+00
         21   -1    0    0  504  501  0.00000000000E+00  0.00000000000E+00  0.14554687499E+02  0.14554687499E+02  0.00000000000E+00 0. -1.
         21   -1    0    0  501  502 -0.00000000000E+00 -0.00000000000E+00 -0.16872057112E+03  0.16872057112E+03  0.00000000000E+00 0. -1.
         21    1    1    2  503  502  0.20133037689E+02 -0.32763992855E+01 -0.16059727396E+03  0.16188748686E+03  0.00000000000E+00 0. -1.
         21    1    1    2  504  503 -0.20133037689E+02  0.32763992855E+01  0.64313903418E+01  0.21387771754E+02  0.00000000000E+00 0. -1.
</event>
<event>
 4    1  0.1725802E+006  0.2020091E+02  0.7546771E-02  0.1530986E+00
         21   -1    0    0  504  501  0.00000000000E+00  0.00000000000E+00  0.71011246152E+02  0.71011246152E+02  0.00000000000E+00 0. -1.
         21   -1    0    0  503  502 -0.00000000000E+00 -0.00000000000E+00 -0.57497103337E+01  0.57497103337E+01  0.00000000000E+00 0. -1.
         21    1    1    2  503  501  0.19347417543E+02 -0.58098368713E+01  0.33516249282E+02  0.39133307246E+02  0.00000000000E+00 0. -1.
         21    1    1    2  504  502 -0.19347417543E+02  0.58098368713E+01  0.31745286536E+02  0.37627649240E+02  0.00000000000E+00 0. -1.
</event>
<event>
 4    1  0.1725802E+006  0.3382342E+02  0.7546771E-02  0.1389029E+00
         21   -1    0    0  504  501  0.00000000000E+00  0.00000000000E+00  0.94306222346E+03  0.94306222346E+03  0.00000000000E+00 0.  1.
         21   -1    0    0  503  502 -0.00000000000E+00 -0.00000000000E+00 -0.15127343240E+01  0.15127343240E+01  0.00000000000E+00 0.  1.
         21    1    1    2  503  501 -0.13402886357E+02 -0.31054575597E+02  0.26057870153E+03  0.26276469268E+03  0.00000000000E+00 0.  1.
         21    1    1    2  504  502  0.13402886357E+02  0.31054575597E+02  0.68097078760E+03  0.68181026510E+03  0.00000000000E+00 0.  1.
</event>
<event>
 4    1  0.1725802E+006  0.2690475E+02  0.7546771E-02  0.1448567E+00
         21   -1    0    0  502  501  0.00000000000E+00  0.00000000000E+00  0.32190310104E+02  0.32190310104E+02  0.00000000000E+00 0. -1.
         21   -1    0    0  504  502 -0.00000000000E+00 -0.00000000000E+00 -0.40674597180E+02  0.40674597180E+02  0.00000000000E+00 0. -1.
         21    1    1    2  503  501  0.12190266911E+02 -0.23984643143E+02  0.20119895464E+02  0.33595772167E+02  0.00000000000E+00 0. -1.
         21    1    1    2  504  503 -0.12190266911E+02  0.23984643143E+02 -0.28604182540E+02  0.39269135117E+02  0.00000000000E+00 0. -1.
</event>
<event>
 4    1  0.1725802E+006  0.3677702E+02  0.7546771E-02  0.1368483E+00
         21   -1    0    0  504  501  0.00000000000E+00  0.00000000000E+00  0.13428391460E+03  0.13428391460E+03  0.00000000000E+00 0. -1.
         21   -1    0    0  503  502 -0.00000000000E+00 -0.00000000000E+00 -0.19907288969E+02  0.19907288969E+02  0.00000000000E+00 0. -1.
         21    1    1    2  503  501 -0.28910281874E+02 -0.22732029109E+02  0.29994289304E+01  0.36899134399E+02  0.00000000000E+00 0. -1.
         21    1    1    2  504  502  0.28910281874E+02  0.22732029109E+02  0.11137719670E+03  0.11729206917E+03  0.00000000000E+00 0. -1.
</event>
<event>
 4    1  0.1725802E+006  0.2359479E+02  0.7546771E-02  0.1485161E+00
         21   -1    0    0  503  501  0.00000000000E+00  0.00000000000E+00  0.42386464460E+02  0.42386464460E+02  0.00000000000E+00 0.  1.
         21   -1    0    0  504  502 -0.00000000000E+00 -0.00000000000E+00 -0.40615738816E+02  0.40615738816E+02  0.00000000000E+00 0. -1.
         21    1    1    2  503  502 -0.17117934971E+02 -0.16238542540E+02  0.35022937285E+02  0.42229374818E+02  0.00000000000E+00 0.  1.
         21    1    1    2  504  501  0.17117934971E+02  0.16238542540E+02 -0.33252211641E+02  0.40772828458E+02  0.00000000000E+00 0. -1.
</event>
<event>
 4    1  0.1725802E+006  0.2647322E+02  0.7546771E-02  0.1452973E+00
         21   -1    0    0  504  501  0.00000000000E+00  0.00000000000E+00  0.42145969400E+03  0.42145969400E+03  0.00000000000E+00 0.  1.
         21   -1    0    0  503  502 -0.00000000000E+00 -0.00000000000E+00 -0.89340739904E+01  0.89340739904E+01  0.00000000000E+00 0.  1.
         21    1    1    2  503  501 -0.23686412235E+02 -0.11823081288E+02  0.40040255865E+03  0.40127676278E+03  0.00000000000E+00 0.  1.
         21    1    1    2  504  502  0.23686412235E+02  0.11823081288E+02  0.12123061365E+02  0.29117005213E+02  0.00000000000E+00 0.  1.
</event>
<event>
 4    1  0.1725802E+006  0.2049538E+02  0.7546771E-02  0.1526593E+00
         21   -1    0    0  504  501  0.00000000000E+00  0.00000000000E+00  0.49663595762E+02  0.49663595762E+02  0.00000000000E+00 0. -1.
         21   -1    0    0  503  502 -0.00000000000E+00 -0.00000000000E+00 -0.17573423887E+02  0.17573423887E+02  0.00000000000E+00 0. -1.
         21    1    1    2  503  501 -0.27767911164E+00 -0.20493503760E+02 -0.81671987003E+01  0.22062727317E+02  0.00000000000E+00 0. -1.
         21    1    1    2  504  502  0.27767911164E+00  0.20493503760E+02  0.40257370576E+02  0.45174292332E+02  0.00000000000E+00 0. -1.
</event>
<event>
 4    1  0.1725802E+006  0.9599711E+02  0.7546771E-02  0.1170931E+00
         21   -1    0    0  504  501  0.00000000000E+00  0.00000000000E+00  0.63809123366E+02  0.63809123366E+02  0.00000000000E+00 0.  1.
         21   -1    0    0  503  502 -0.00000000000E+00 -0.00000000000E+00 -0.14552676989E+03  0.14552676989E+03  0.00000000000E+00 0.  1.
         21    1    1    2  503  501 -0.78601270203E+02  0.55111573312E+02 -0.31739430371E+02  0.10110804434E+03  0.00000000000E+00 0.  1.
         21    1    1    2  504  502  0.78601270203E+02 -0.55111573312E+02 -0.49978216150E+02  0.10822784891E+03  0.00000000000E+00 0.  1.
</event>
<event>
 4    1  0.1725802E+006  0.2196352E+02  0.7546771E-02  0.1505940E+00
         21   -1    0    0  504  501  0.00000000000E+00  0.00000000000E+00  0.45139951789E+02  0.45139951789E+02  0.00000000000E+00 0. -1.
         21   -1    0    0  501  502 -0.00000000000E+00 -0.00000000000E+00 -0.30785798925E+02  0.30785798925E+02  0.00000000000E+00 0. -1.
         21    1    1    2  503  502  0.43899760292E+01  0.21520320976E+02 -0.23497065472E+02  0.32163771393E+02  0.00000000000E+00 0. -1.
         21    1    1    2  504  503 -0.43899760292E+01 -0.21520320976E+02  0.37851218337E+02  0.43761979320E+02  0.00000000000E+00 0. -1.
</event>
<event>
 4    1  0.1725802E+006  0.3741481E+02  0.7546771E-02  0.1364339E+00
         21   -1    0    0  502  501  0.00000000000E+00  0.00000000000E+00  0.14794715681E+03  0.14794715681E+03  0.00000000000E+00 0.  1.
         21   -1    0    0  504  502 -0.00000000000E+00 -0.00000000000E+00 -0.45678922962E+02  0.45678922962E+02  0.00000000000E+00 0.  1.
         21    1    1    2  503  501 -0.29661793113E+02  0.22804524419E+02  0.13733902949E+03  0.14234422126E+03  0.00000000000E+00 0.  1.
         21    1    1    2  504  503  0.29661793113E+02 -0.22804524419E+02 -0.35070795647E+02  0.51281858507E+02  0.00000000000E+00 0.  1.
</event>
<event>
 4    1  0.1725802E+006  0.2078869E+02  0.7546771E-02  0.1522303E+00
         21   -1    0    0  503  501  0.00000000000E+00  0.00000000000E+00  0.84510025072E+01  0.84510025072E+01  0.00000000000E+00 0.  1.
         21   -1    0    0  504  502 -0.00000000000E+00 -0.00000000000E+00 -0.51149131053E+02  0.51149131053E+02  0.00000000000E+00 0.  1.
         21    1    1    2  503  502  0.19555422149E+02 -0.70537243943E+01 -0.21783508875E+02  0.30111307215E+02  0.00000000000E+00 0.  1.
         21    1    1    2  504  501 -0.19555422149E+02  0.70537243943E+01 -0.20914619670E+02  0.29488826345E+02  0.00000000000E+00 0.  1.
</event>
<event>
 4    1  0.1725802E+006  0.2336593E+02  0.7546771E-02  0.1487954E+00
         21   -1    0    0  503  501  0.00000000000E+00  0.00000000000E+00  0.72329720248E+03  0.72329720248E+03  0.00000000000E+00 0. -1.
         21   -1    0    0  504  502 -0.00000000000E+00 -0.00000000000E+00 -0.14648752520E+03  0.14648752520E+03  0.00000000000E+00 0. -1.
         21    1    1    2  503  502  0.22434199968E+02 -0.65324680517E+01  0.72217528510E+03  0.72255318757E+03  0.00000000000E+00 0. -1.
         21    1    1    2  504  501 -0.22434199968E+02  0.65324680517E+01 -0.14536560782E+03  0.14723154011E+03  0.00000000000E+00 0. -1.
</event>
<event>
 4    1  0.1725802E+006  0.2425460E+02  0.7546771E-02  0.1477318E+00
         21   -1    0    0  504  501  0.00000000000E+00  0.00000000000E+00  0.16909348107E+03  0.16909348107E+03  0.00000000000E+00 0. -1.
         21   -1    0    0  503  502 -0.00000000000E+00 -0.00000000000E+00 -0.40920767605E+02  0.40920767605E+02  0.00000000000E+00 0.  1.
         21    1    1    2  503  501 -0.85576823607E+01 -0.22694745356E+02  0.16453052721E+03  0.16630868822E+03  0.00000000000E+00 0. -1.
         21    1    1    2  504  502  0.85576823607E+01  0.22694745356E+02 -0.36357813745E+02  0.43705560452E+02  0.00000000000E+00 0.  1.
</event>
<event>
 4    1  0.1725802E+006  0.3233010E+02  0.7546771E-02  0.1400372E+00
         21   -1    0    0  503  501  0.00000000000E+00  0.00000000000E+00  0.15274958775E+02  0.15274958775E+02  0.00000000000E+00 0. -1.
         21   -1    0    0  504  502 -0.00000000000E+00 -0.00000000000E+00 -0.75451151329E+03  0.75451151329E+03  0.00000000000E+00 0. -1.
         21    1    1    2  503  502 -0.31351988360E+02  0.78922914891E+01 -0.25931283957E+01  0.32433929055E+02  0.00000000000E+00 0. -1.
         21    1    1    2  504  501  0.31351988360E+02 -0.78922914891E+01 -0.73664342612E+03  0.73735254301E+03  0.00000000000E+00 0. -1.
</event>
<event>
 4    1  0.1725802E+006  0.2093166E+02  0.7546771E-02  0.1520243E+00
         21   -1    0    0  504  501  0.00000000000E+00  0.00000000000E+00  0.24654590430E+03  0.24654590430E+03  0.00000000000E+00 0.  1.
         21   -1    0    0  503  502 -0.00000000000E+00 -0.00000000000E+00 -0.18136996519E+01  0.18136996519E+01  0.00000000000E+00 0.  1.
         21    1    1    2  503  501 -0.20275224645E+02 -0.52009189590E+01  0.10472339118E+03  0.10679477025E+03  0.00000000000E+00 0.  1.
         21    1    1    2  504  502  0.20275224645E+02  0.52009189590E+01  0.14000881347E+03  0.14156483370E+03  0.00000000000E+00 0.  1.
</event>
<event>
 4    1  0.1725802E+006  0.2451768E+02  0.7546771E-02  0.1474272E+00
         21   -1    0    0  504  501  0.00000000000E+00  0.00000000000E+00  0.14334087771E+03  0.14334087771E+03  0.00000000000E+00 0.  1.
         21   -1    0    0  503  502 -0.00000000000E+00 -0.00000000000E+00 -0.44827300277E+01  0.44827300277E+01  0.00000000000E+00 0.  1.
         21    1    1    2  503  501 -0.17271213634E+02 -0.17401770915E+02  0.88199661133E+02  0.91543960344E+02  0.00000000000E+00 0.  1.
         21    1    1    2  504  502  0.17271213634E+02  0.17401770915E+02  0.50658486552E+02  0.56279647397E+02  0.00000000000E+00 0.  1.
</event>
<event>
 4    1  0.1725802E+006  0.2024707E+02  0.7546771E-02  0.1530292E+00
         21   -1    0    0  503  501  0.00000000000E+00  0.00000000000E+00  0.22868183806E+01  0.22868183806E+01  0.00000000000E+00 0. -1.
         21   -1    0    0  501  502 -0.00000000000E+00 -0.00000000000E+00 -0.30144113911E+03  0.30144113911E+03  0.00000000000E+00 0. -1.
         21    1    1    2  503  504 -0.18669029222E+02  0.78365182961E+01 -0.52894429785E+02  0.56637128929E+02  0.00000000000E+00 0. -1.
         21    1    1    2  504  502  0.18669029222E+02 -0.78365182961E+01 -0.24625989094E+03  0.24709082856E+03  0.00000000000E+00 0. -1.
</event>
<event>
 4    1  0.1725802E+006  0.2623698E+02  0.7546771E-02  0.1455427E+00
         21   -1    0    0  502  501  0.00000000000E+00  0.00000000000E+00  0.17244900785E+03  0.17244900785E+03  0.00000000000E+00 0. -1.
         21   -1    0    0  503  502 -0.00000000000E+00 -0.00000000000E+00 -0.31241263529E+03  0.31241263529E+03  0.00000000000E+00 0.  1.
         21    1    1    2  503  504 -0.15971073553E+02  0.20815948441E+02 -0.31085885336E+03  0.31196410949E+03  0.00000000000E+00 0.  1.
         21    1    1    2  504  501  0.15971073553E+02 -0.20815948441E+02  0.17089522591E+03  0.17289753364E+03  0.00000000000E+00 0. -1.
</event>
<event>
 4    1  0.1725802E+006  0.2267153E+02  0.7546771E-02  0.1496664E+00
         21   -1    0    0  503  501  0.00000000000E+00  0.00000000000E+00  0.14404515869E+02  0.14404515869E+02  0.00000000000E+00 0. -1.
         21   -1    0    0  504  502 -0.00000000000E+00 -0.00000000000E+00 -0.40104443640E+02  0.40104443640E+02  0.00000000000E+00 0.  1.
         21    1    1    2  503  502  0.20339910275E+02 -0.10014306809E+02 -0.38006210287E+01  0.22987888356E+02  0.00000000000E+00 0. -1.
         21    1    1    2  504  501 -0.20339910275E+02  0.10014306809E+02 -0.21899306743E+02  0.31521071154E+02  0.00000000000E+00 0.  1.
</event>
<event>
 4    1  0.1725802E+006  0.2132113E+02  0.7546771E-02  0.1514729E+00
         21   -1    0    0  503  501  0.00000000000E+00  0.00000000000E+00  0.13644816617E+03  0.13644816617E+03  0.00000000000E+00 0.  1.
         21   -1    0    0  504  502 -0.00000000000E+00 -0.00000000000E+00 -0.36856019491E+03  0.36856019491E+03  0.00000000000E+00 0.  1.
         21    1    1    2  503  502 -0.12656976242E+02  0.17157845553E+02 -0.36741634828E+03  0.36803445993E+03  0.00000000000E+00 0.  1.
         21    1    1    2  504  501  0.12656976242E+02 -0.17157845553E+02  0.13530431954E+03  0.13697390116E+03  0.00000000000E+00 0.  1.
</event>
<event>
 4    1  0.1725802E+006  0.2127407E+02  0.7546771E-02  0.1515388E+00
         21   -1    0    0  502  501  0.00000000000E+00  0.00000000000E+00  0.37862758342E+03  0.37862758342E+03  0.00000000000E+00 0. -1.
         21   -1    0    0  503  502 -0.00000000000E+00 -0.00000000000E+00 -0.10208314258E+02  0.10208314258E+02  0.00000000000E+00 0. -1.
         21    1    1    2  503  504 -0.18402246663E+02  0.10674417577E+02  0.15285479268E+01  0.21328908355E+02  0.00000000000E+00 0. -1.
         21    1    1    2  504  501  0.18402246663E+02 -0.10674417577E+02  0.36689072123E+03  0.36750698932E+03  0.00000000000E+00 0. -1.
</event>
<event>
 4    1  0.1725802E+006  0.2038751E+02  0.7546771E-02  0.1528192E+00
         21   -1    0    0  504  501  0.00000000000E+00  0.00000000000E+00  0.30220131910E+02  0.30220131910E+02  0.00000000000E+00 0. -1.
         21   -1    0    0  501  502 -0.00000000000E+00 -0.00000000000E+00 -0.47413896173E+02  0.47413896173E+02  0.00000000000E+00 0. -1.
         21    1    1    2  503  502 -0.16589442401E+02 -0.11850785498E+02 -0.41302702223E+02  0.46060437764E+02  0.00000000000E+00 0. -1.
         21    1    1    2  504  503  0.16589442401E+02  0.11850785498E+02  0.24108937960E+02  0.31573590319E+02  0.00000000000E+00 0. -1.
</event>
<event>
 4    1  0.1725802E+006  0.2258049E+02  0.7546771E-02  0.1497834E+00
         21   -1    0    0  504  501  0.00000000000E+00  0.00000000000E+00  0.92913969077E+02  0.92913969077E+02  0.00000000000E+00 0. -1.
         21   -1    0    0  501  502 -0.00000000000E+00 -0.00000000000E+00 -0.14878142981E+02  0.14878142981E+02  0.00000000000E+00 0. -1.
         21    1    1    2  503  502 -0.33378916198E+01  0.22332416616E+02 -0.38001546437E+01  0.22898024537E+02  0.00000000000E+00 0. -1.
         21    1    1    2  504  503  0.33378916198E+01 -0.22332416616E+02  0.81835980740E+02  0.84894087521E+02  0.00000000000E+00 0. -1.
</event>
<event>
 4    1  0.1725802E+006  0.2954030E+02  0.7546771E-02  0.1423634E+00
         21   -1    0    0  503  501  0.00000000000E+00  0.00000000000E+00  0.33330364873E+03  0.33330364873E+03  0.00000000000E+00 0. -1.
         21   -1    0    0  504  502 -0.00000000000E+00 -0.00000000000E+00 -0.10816703776E+02  0.10816703776E+02  0.00000000000E+00 0. -1.
         21    1    1    2  503  502  0.19177752080E+02 -0.22468715928E+02  0.31104018460E+03  0.31243979549E+03  0.00000000000E+00 0. -1.
         21    1    1    2  504  501 -0.19177752080E+02  0.22468715928E+02  0.11446760358E+02  0.31680557018E+02  0.00000000000E+00 0. -1.
</event>
<event>
 4    1  0.1725802E+006  0.2456922E+02  0.7546771E-02  0.1473681E+00
         21   -1    0    0  503  501  0.00000000000E+00  0.00000000000E+00  0.21151834240E+02  0.21151834240E+02  0.00000000000E+00 0. -1.
         21   -1    0    0  501  502 -0.00000000000E+00 -0.00000000000E+00 -0.83100433560E+02  0.83100433560E+02  0.00000000000E+00 0. -1.
         21    1    1    2  503  504 -0.16064726116E+02  0.18589542498E+02  0.11263163486E+02  0.27027862793E+02  0.00000000000E+00 0. -1.
         21    1    1    2  504  502  0.16064726116E+02 -0.18589542498E+02 -0.73211762806E+02  0.77224405007E+02  0.00000000000E+00 0. -1.
</event>
<event>
 4    1  0.1725802E+006  0.3236489E+02  0.7546771E-02  0.1400100E+00
         21   -1    0    0  504  501  0.00000000000E+00  0.00000000000E+00  0.17311601830E+03  0.17311601830E+03  0.00000000000E+00 0.  1.
         21   -1    0    0  501  502 -0.00000000000E+00 -0.00000000000E+00 -0.14864634221E+04  0.14864634221E+04  0.00000000000E+00 0. -1.
         21    1    1    2  503  502 -0.24365813278E+02  0.21302423996E+02 -0.14847728352E+04  0.14851255362E+04  0.00000000000E+00 0. -1.
         21    1    1    2  504  503  0.24365813278E+02 -0.21302423996E+02  0.17142543145E+03  0.17445390415E+03  0.00000000000E+00 0.  1.
</event>
<event>
 4    1  0.1725802E+006  0.2864611E+02  0.7546771E-02  0.1431738E+00
         21   -1    0    0  503  501  0.00000000000E+00  0.00000000000E+00  0.66049375371E+01  0.66049375371E+01  0.00000000000E+00 0.  1.
         21   -1    0    0  504  502 -0.00000000000E+00 -0.00000000000E+00 -0.14399845596E+03  0.14399845596E+03  0.00000000000E+00 0.  1.
         21    1    1    2  503  502  0.21147579405E+02  0.19323034463E+02 -0.40803551606E+02  0.49855085992E+02  0.00000000000E+00 0.  1.
         21    1    1    2  504  501 -0.21147579405E+02 -0.19323034463E+02 -0.96589966815E+02  0.10074830750E+03  0.00000000000E+00 0.  1.
</event>
<event>
 4    1  0.1725802E+006  0.2666876E+02  0.7546771E-02  0.1450964E+00
         21   -1    0    0  504  501  0.00000000000E+00  0.00000000000E+00  0.97724337101E+02  0.97724337101E+02  0.00000000000E+00 0. -1.
         21   -1    0    0  503  502 -0.00000000000E+00 -0.00000000000E+00 -0.58318748576E+02  0.58318748576E+02  0.00000000000E+00 0. -1.
         21    1    1    2  503  501  0.53936741835E+01 -0.26117643424E+02 -0.53288252817E+02  0.59589100576E+02  0.00000000000E+00 0. -1.
         21    1    1    2  504  502 -0.53936741835E+01  0.26117643424E+02  0.92693841342E+02  0.96453985102E+02  0.00000000000E+00 0. -1.
</event>
<event>
 4    1  0.1725802E+006  0.2263450E+02  0.7546771E-02  0.1497139E+00
         21   -1    0    0  504  501  0.00000000000E+00  0.00000000000E+00  0.30910150365E+02  0.30910150365E+02  0.00000000000E+00 0. -1.
         21   -1    0    0  501  502 -0.00000000000E+00 -0.00000000000E+00 -0.30094080838E+02  0.30094080838E+02  0.00000000000E+00 0.  1.
         21    1    1    2  503  502 -0.16161959530E+02  0.15846506827E+02 -0.20036197795E+02  0.30228627765E+02  0.00000000000E+00 0.  1.
         21    1    1    2  504  503  0.16161959530E+02 -0.15846506827E+02  0.20852267322E+02  0.30775603438E+02  0.00000000000E+00 0. -1.
</event>
<event>
 4    1  0.1725802E+006  0.2142761E+02  0.7546771E-02  0.1513246E+00
         21   -1    0    0  504  501  0.00000000000E+00  0.00000000000E+00  0.81783617405E+01  0.81783617405E+01  0.00000000000E+00 0. -1.
         21   -1    0    0  503  502 -0.00000000000E+00 -0.00000000000E+00 -0.22714281550E+03  0.22714281550E+03  0.00000000000E+00 0. -1.
         21    1    1    2  503  501 -0.13877671234E+02 -0.16326442572E+02 -0.21157187511E+03  0.21265418130E+03  0.00000000000E+00 0. -1.
         21    1    1    2  504  502  0.13877671234E+02  0.16326442572E+02 -0.73925786482E+01  0.22666995941E+02  0.00000000000E+00 0. -1.
</event>
<event>
 4    1  0.1725802E+006  0.2098423E+02  0.7546771E-02  0.1519490E+00
         21   -1    0    0  504  501  0.00000000000E+00  0.00000000000E+00  0.22514459480E+02  0.22514459480E+02  0.00000000000E+00 0. -1.
         21   -1    0    0  503  502 -0.00000000000E+00 -0.00000000000E+00 -0.23279473552E+02  0.23279473552E+02  0.00000000000E+00 0. -1.
         21    1    1    2  503  501  0.19357517107E+02 -0.81008836571E+01 -0.95373073566E+01  0.23049902737E+02  0.00000000000E+00 0. -1.
         21    1    1    2  504  502 -0.19357517107E+02  0.81008836571E+01  0.87722932842E+01  0.22744030295E+02  0.00000000000E+00 0. -1.
</event>
<event>
 4    1  0.1725802E+006  0.2338590E+02  0.7546771E-02  0.1487708E+00
         21   -1    0    0  503  501  0.00000000000E+00  0.00000000000E+00  0.16763866089E+03  0.16763866089E+03  0.00000000000E+00 0.  1.
         21   -1    0    0  504  502 -0.00000000000E+00 -0.00000000000E+00 -0.32721366264E+01  0.32721366264E+01  0.00000000000E+00 0.  1.
         21    1    1    2  503  502  0.21593108660E+01  0.23285997210E+02  0.77515917490E+02  0.80966769442E+02  0.00000000000E+00 0.  1.
         21    1    1    2  504  501 -0.21593108660E+01 -0.23285997210E+02  0.86850606778E+02  0.89944028080E+02  0.00000000000E+00 0.  1.
</event>
<event>
 4    1  0.1725802E+006  0.2425339E+02  0.7546771E-02  0.1477332E+00
         21   -1    0    0  504  501  0.00000000000E+00  0.00000000000E+00  0.19714070723E+01  0.19714070723E+01  0.00000000000E+00 0. -1.
         21   -1    0    0  503  502 -0.00000000000E+00 -0.00000000000E+00 -0.36465489458E+03  0.36465489458E+03  0.00000000000E+00 0. -1.
         21    1    1    2  503  501  0.23285605080E+01 -0.24141353713E+02 -0.25949179441E+03  0.26062275134E+03  0.00000000000E+00 0. -1.
         21    1    1    2  504  502 -0.23285605080E+01  0.24141353713E+02 -0.10319169310E+03  0.10600355031E+03  0.00000000000E+00 0. -1.
</event>
<event>
 4    1  0.1725802E+006  0.2069906E+02  0.7546771E-02  0.1523605E+00
         21   -1    0    0  504  501  0.00000000000E+00  0.00000000000E+00  0.19668812797E+03  0.19668812797E+03  0.00000000000E+00 0.  1.
         21   -1    0    0  501  502 -0.00000000000E+00 -0.00000000000E+00 -0.79154389293E+01  0.79154389293E+01  0.00000000000E+00 0.  1.
         21    1    1    2  503  502  0.20695696622E+02 -0.37294556849E+00  0.72915123101E+01  0.21945776333E+02  0.00000000000E+00 0.  1.
         21    1    1    2  504  503 -0.20695696622E+02  0.37294556849E+00  0.18148117673E+03  0.18265779057E+03  0.00000000000E+00 0.  1.
</event>
<event>
 4    1  0.1725802E+006  0.3459566E+02  0.7546771E-02  0.1383428E+00
         21   -1    0    0  504  501  0.00000000000E+00  0.00000000000E+00  0.33189857463E+01  0.33189857463E+01  0.00000000000E+00 0. -1.
         21   -1    0    0  503  502 -0.00000000000E+00 -0.00000000000E+00 -0.36497193090E+03  0.36497193090E+03  0.00000000000E+00 0. -1.
         21    1    1    2  503  501  0.25972901746E+02  0.22853190824E+02 -0.20095736745E+03  0.20391351963E+03  0.00000000000E+00 0. -1.
         21    1    1    2  504  502 -0.25972901746E+02 -0.22853190824E+02 -0.16069557771E+03  0.16437739702E+03  0.00000000000E+00 0. -1.
</event>
<event>
 4    1  0.1725802E+006  0.2521924E+02  0.7546771E-02  0.1466366E+00
         21   -1    0    0  504  501  0.00000000000E+00  0.00000000000E+00  0.71267515603E+01  0.71267515603E+01  0.00000000000E+00 0.  1.
         21   -1    0    0  503  502 -0.00000000000E+00 -0.00000000000E+00 -0.13603468816E+03  0.13603468816E+03  0.00000000000E+00 0. -1.
         21    1    1    2  503  501 -0.10353428990E+02 -0.22996010043E+02 -0.10643541079E+03  0.10938238725E+03  0.00000000000E+00 0. -1.
         21    1    1    2  504  502  0.10353428990E+02  0.22996010043E+02 -0.22472525810E+02  0.33779052474E+02  0.00000000000E+00 0.  1.
</event>
<event>
 4    1  0.1725802E+006  0.2542075E+02  0.7546771E-02  0.1464151E+00
         21   -1    0    0  502  501  0.00000000000E+00  0.00000000000E+00  0.26316788634E+02  0.26316788634E+02  0.00000000000E+00 0. -1.
         21   -1    0    0  504  502 -0.00000000000E+00 -0.00000000000E+00 -0.24577973079E+02  0.24577973079E+02  0.00000000000E+00 0. -1.
         21    1    1    2  503  501 -0.41625240369E+01  0.25077634352E+02  0.95023175869E-01  0.25420924067E+02  0.00000000000E+00 0. -1.
         21    1    1    2  504  503  0.41625240369E+01 -0.25077634352E+02  0.16437923793E+01  0.25473837646E+02  0.00000000000E+00 0. -1.
</event>
<event>
 4    1  0.1725802E+006  0.2078985E+02  0.7546771E-02  0.1522287E+00
         21   -1    0    0  504  501  0.00000000000E+00  0.00000000000E+00  0.13721697604E+02  0.13721697604E+02  0.00000000000E+00 0.  1.
         21   -1    0    0  503  502 -0.00000000000E+00 -0.00000000000E+00 -0.36488614840E+02  0.36488614840E+02  0.00000000000E+00 0.  1.
         21    1    1    2  503  501  0.15058608472E+02  0.14333739811E+02 -0.20996968242E+01  0.20895609894E+02  0.00000000000E+00 0.  1.
         21    1    1    2  504  502 -0.15058608472E+02 -0.14333739811E+02 -0.20667220411E+02  0.29314702550E+02  0.00000000000E+00 0.  1.
</event>
<event>
 4    1  0.1725802E+006  0.2084181E+02  0.7546771E-02  0.1521535E+00
         21   -1    0    0  503  501  0.00000000000E+00  0.00000000000E+00  0.12477668977E+02  0.12477668977E+02  0.00000000000E+00 0. -1.
         21   -1    0    0  501  502 -0.00000000000E+00 -0.00000000000E+00 -0.26427378801E+03  0.26427378801E+03  0.00000000000E+00 0.  1.
         21    1    1    2  503  504  0.12788674497E+02  0.16456943213E+02  0.30418653026E+01  0.21062623764E+02  0.00000000000E+00 0. -1.
         21    1    1    2  504  502 -0.12788674497E+02 -0.16456943213E+02 -0.25483798433E+03  0.25568883322E+03  0.00000000000E+00 0.  1.
</event>
<event>
 4    1  0.1725802E+006  0.2213393E+02  0.7546771E-02  0.1503670E+00
         21   -1    0    0  504  501  0.00000000000E+00  0.00000000000E+00  0.70659393816E+02  0.70659393816E+02  0.00000000000E+00 0.  1.
         21   -1    0    0  503  502 -0.00000000000E+00 -0.00000000000E+00 -0.12100661406E+02  0.12100661406E+02  0.00000000000E+00 0. -1.
         21    1    1    2  503  501  0.12476619534E+02  0.18282358682E+02  0.56319942466E+02  0.60513193547E+02  0.00000000000E+00 0.  1.
         21    1    1    2  504  502 -0.12476619534E+02 -0.18282358682E+02  0.22387899440E+01  0.22246861674E+02  0.00000000000E+00 0. -1.
</event>
<event>
 4    1  0.1725802E+006  0.3016715E+02  0.7546771E-02  0.1418149E+00
         21   -1    0    0  503  501  0.00000000000E+00  0.00000000000E+00  0.15666825807E+03  0.15666825807E+03  0.00000000000E+00 0. -1.
         21   -1    0    0  504  502 -0.00000000000E+00 -0.00000000000E+00 -0.24423976702E+02  0.24423976702E+02  0.00000000000E+00 0. -1.
         21    1    1    2  503  502  0.23063161901E+02 -0.19446014185E+02  0.14517089895E+03  0.14827220511E+03  0.00000000000E+00 0. -1.
         21    1    1    2  504  501 -0.23063161901E+02  0.19446014185E+02 -0.12926617591E+02  0.32820029660E+02  0.00000000000E+00 0. -1.
</event>
<event>
 4    1  0.1725802E+006  0.2163689E+02  0.7546771E-02  0.1510363E+00
         21   -1    0    0  503  501  0.00000000000E+00  0.00000000000E+00  0.12027285917E+03  0.12027285917E+03  0.00000000000E+00 0. -1.
         21   -1    0    0  501  502 -0.00000000000E+00 -0.00000000000E+00 -0.40934036295E+01  0.40934036295E+01  0.00000000000E+00 0.  1.
         21    1    1    2  503  504 -0.56162627278E+01  0.20895273189E+02  0.71867829565E+02  0.75054245550E+02  0.00000000000E+00 0. -1.
         21    1    1    2  504  502  0.56162627278E+01 -0.20895273189E+02  0.44311625976E+02  0.49312017250E+02  0.00000000000E+00 0.  1.
</event>
<event>
 4    1  0.1725802E+006  0.3050210E+02  0.7546771E-02  0.1415282E+00
         21   -1    0    0  503  501  0.00000000000E+00  0.00000000000E+00  0.29335755170E+02  0.29335755170E+02  0.00000000000E+00 0. -1.
         21   -1    0    0  504  502 -0.00000000000E+00 -0.00000000000E+00 -0.32953324773E+02  0.32953324773E+02  0.00000000000E+00 0. -1.
         21    1    1    2  503  502 -0.25116049533E+02 -0.17307862797E+02  0.42290601534E+01  0.30793879400E+02  0.00000000000E+00 0. -1.
         21    1    1    2  504  501  0.25116049533E+02  0.17307862797E+02 -0.78466297563E+01  0.31495200543E+02  0.00000000000E+00 0. -1.
</event>
<event>
 4    1  0.1725802E+006  0.3088168E+02  0.7546771E-02  0.1412086E+00
         21   -1    0    0  504  501  0.00000000000E+00  0.00000000000E+00  0.95196516176E+03  0.95196516176E+03  0.00000000000E+00 0.  1.
         21   -1    0    0  501  502 -0.00000000000E+00 -0.00000000000E+00 -0.48740573831E+01  0.48740573831E+01  0.00000000000E+00 0.  1.
         21    1    1    2  503  502  0.21704412496E+02 -0.21968078120E+02  0.47117463238E+02  0.56335897260E+02  0.00000000000E+00 0.  1.
         21    1    1    2  504  503 -0.21704412496E+02  0.21968078120E+02  0.89997364114E+03  0.90050332189E+03  0.00000000000E+00 0.  1.
</event>
<event>
 4    1  0.1725802E+006  0.3087363E+02  0.7546771E-02  0.1412153E+00
         21   -1    0    0  502  501  0.00000000000E+00  0.00000000000E+00  0.72212716361E+01  0.72212716361E+01  0.00000000000E+00 0.  1.
         21   -1    0    0  504  502 -0.00000000000E+00 -0.00000000000E+00 -0.13213979235E+03  0.13213979235E+03  0.00000000000E+00 0.  1.
         21    1    1    2  503  501  0.15705843717E+02  0.26580212847E+02 -0.60163179860E+02  0.67622403482E+02  0.00000000000E+00 0.  1.
         21    1    1    2  504  503 -0.15705843717E+02 -0.26580212847E+02 -0.64755340859E+02  0.71738660508E+02  0.00000000000E+00 0.  1.
</event>
<event>
 4    1  0.1725802E+006  0.2381088E+02  0.7546771E-02  0.1482559E+00
         21   -1    0    0  502  501  0.00000000000E+00  0.00000000000E+00  0.12930417935E+02  0.12930417935E+02  0.00000000000E+00 0.  1.
         21   -1    0    0  503  502 -0.00000000000E+00 -0.00000000000E+00 -0.11585716633E+03  0.11585716633E+03  0.00000000000E+00 0. -1.
         21    1    1    2  503  504  0.14465860247E+02  0.18912882084E+02 -0.10223018484E+03  0.10496651329E+03  0.00000000000E+00 0. -1.
         21    1    1    2  504  501 -0.14465860247E+02 -0.18912882084E+02 -0.69656355956E+00  0.23821070971E+02  0.00000000000E+00 0.  1.
</event>
<event>
 4    1  0.1725802E+006  0.2664088E+02  0.7546771E-02  0.1451249E+00
         21   -1    0    0  504  501  0.00000000000E+00  0.00000000000E+00  0.80785195111E+01  0.80785195111E+01  0.00000000000E+00 0.  1.
         21   -1    0    0  503  502 -0.00000000000E+00 -0.00000000000E+00 -0.34760420456E+03  0.34760420456E+03  0.00000000000E+00 0. -1.
         21    1    1    2  503  501  0.19315303049E+02  0.18348175760E+02 -0.32349600794E+03  0.32459113303E+03  0.00000000000E+00 0. -1.
         21    1    1    2  504  502 -0.19315303049E+02 -0.18348175760E+02 -0.16029677111E+02  0.31091591048E+02  0.00000000000E+00 0.  1.
</event>
<event>
 4    1  0.1725802E+006  0.3924640E+02  0.7546771E-02  0.1352959E+00
         21   -1    0    0  502  501  0.00000000000E+00  0.00000000000E+00  0.23189154857E+02  0.23189154857E+02  0.00000000000E+00 0.  1.
         21   -1    0    0  503  502 -0.00000000000E+00 -0.00000000000E+00 -0.14254395360E+03  0.14254395360E+03  0.00000000000E+00 0. -1.
         21    1    1    2  503  504  0.27410555952E+02  0.28088101850E+02 -0.12023359913E+03  0.12647686904E+03  0.00000000000E+00 0. -1.
         21    1    1    2  504  501 -0.27410555952E+02 -0.28088101850E+02  0.87880038314E+00  0.39256239418E+02  0.00000000000E+00 0.  1.
</event>
<event>
 4    1  0.1725802E+006  0.2190667E+02  0.7546771E-02  0.1506703E+00
         21   -1    0    0  502  501  0.00000000000E+00  0.00000000000E+00  0.19184360631E+03  0.19184360631E+03  0.00000000000E+00 0. -1.
         21   -1    0    0  503  502 -0.00000000000E+00 -0.00000000000E+00 -0.60197008474E+01  0.60197008474E+01  0.00000000000E+00 0.  1.
         21    1    1    2  503  504 -0.21816994626E+02  0.19801219949E+01  0.17279809995E+02  0.27901504817E+02  0.00000000000E+00 0.  1.
         21    1    1    2  504  501  0.21816994626E+02 -0.19801219949E+01  0.16854409547E+03  0.16996180234E+03  0.00000000000E+00 0. -1.
</event>
<event>
 4    1  0.1725802E+006  0.2386950E+02  0.7546771E-02  0.1481859E+00
         21   -1    0    0  503  501  0.00000000000E+00  0.00000000000E+00  0.11852073397E+02  0.11852073397E+02  0.00000000000E+00 0. -1.
         21   -1    0    0  504  502 -0.00000000000E+00 -0.00000000000E+00 -0.15506172469E+03  0.15506172469E+03  0.00000000000E+00 0. -1.
         21    1    1    2  503  502  0.17419940310E+02 -0.16318654619E+02 -0.14092840601E+03  0.14293553942E+03  0.00000000000E+00 0. -1.
         21    1    1    2  504  501 -0.17419940310E+02  0.16318654619E+02 -0.22812452911E+01  0.23978258674E+02  0.00000000000E+00 0. -1.
</event>
<event>
 4    1  0.1725802E+006  0.2244773E+02  0.7546771E-02  0.1499552E+00
         21   -1    0    0  504  501  0.00000000000E+00  0.00000000000E+00  0.49169899788E+02  0.49169899788E+02  0.00000000000E+00 0.  1.
         21   -1    0    0  503  502 -0.00000000000E+00 -0.00000000000E+00 -0.34088501964E+03  0.34088501964E+03  0.00000000000E+00 0. -1.
         21    1    1    2  503  501 -0.11229623980E+02 -0.19436982782E+02  0.46215936778E+02  0.51379116056E+02  0.00000000000E+00 0.  1.
         21    1    1    2  504  502  0.11229623980E+02  0.19436982782E+02 -0.33793105663E+03  0.33867580337E+03  0.00000000000E+00 0. -1.
</event>
<event>
 4    1  0.1725802E+006  0.2035319E+02  0.7546771E-02  0.1528703E+00
         21   -1    0    0  504  501  0.00000000000E+00  0.00000000000E+00  0.13437729787E+03  0.13437729787E+03  0.00000000000E+00 0. -1.
         21   -1    0    0  503  502 -0.00000000000E+00 -0.00000000000E+00 -0.42907142600E+01  0.42907142600E+01  0.00000000000E+00 0. -1.
         21    1    1    2  503  501  0.20054030023E+02  0.34767938036E+01  0.10183142386E+03  0.10384551555E+03  0.00000000000E+00 0. -1.
         21    1    1    2  504  502 -0.20054030023E+02 -0.34767938036E+01  0.28255159751E+02  0.34822496578E+02  0.00000000000E+00 0. -1.
</event>
<event>
 4    1  0.1725802E+006  0.2272212E+02  0.7546771E-02  0.1496017E+00
         21   -1    0    0  503  501  0.00000000000E+00  0.00000000000E+00  0.10362468102E+03  0.10362468102E+03  0.00000000000E+00 0.  1.
         21   -1    0    0  504  502 -0.00000000000E+00 -0.00000000000E+00 -0.99257549232E+01  0.99257549232E+01  0.00000000000E+00 0. -1.
         21    1    1    2  503  502 -0.12610112293E+02 -0.18901846391E+02  0.67821700188E+01  0.23712708812E+02  0.00000000000E+00 0. -1.
         21    1    1    2  504  501  0.12610112293E+02  0.18901846391E+02  0.86916756079E+02  0.89837727133E+02  0.00000000000E+00 0.  1.
</event>
<event>
 4    1  0.1725802E+006  0.3027610E+02  0.7546771E-02  0.1417212E+00
         21   -1    0    0  504  501  0.00000000000E+00  0.00000000000E+00  0.74060302182E+03  0.74060302182E+03  0.00000000000E+00 0. -1.
         21   -1    0    0  501  502 -0.00000000000E+00 -0.00000000000E+00 -0.64205883139E+01  0.64205883139E+01  0.00000000000E+00 0.  1.
         21    1    1    2  503  502  0.95606368738E+01  0.28726928994E+02  0.31505887662E+02  0.43695116251E+02  0.00000000000E+00 0.  1.
         21    1    1    2  504  503 -0.95606368738E+01 -0.28726928994E+02  0.70267654585E+03  0.70332849388E+03  0.00000000000E+00 0. -1.
</event>
<event>
 4    1  0.1725802E+006  0.2457212E+02  0.7546771E-02  0.1473647E+00
         21   -1    0    0  504  501  0.00000000000E+00  0.00000000000E+00  0.41479800381E+01  0.41479800381E+01  0.00000000000E+00 0. -1.
         21   -1    0    0  503  502 -0.00000000000E+00 -0.00000000000E+00 -0.18932921016E+03  0.18932921016E+03  0.00000000000E+00 0. -1.
         21    1    1    2  503  501 -0.97814186653E+01 -0.22541360664E+02 -0.46078679348E+02  0.52221009011E+02  0.00000000000E+00 0. -1.
         21    1    1    2  504  502  0.97814186653E+01  0.22541360664E+02 -0.13910255078E+03  0.14125618119E+03  0.00000000000E+00 0. -1.
</event>
<event>
 4    1  0.1725802E+006  0.2146180E+02  0.7546771E-02  0.1512773E+00
         21   -1    0    0  504  501  0.00000000000E+00  0.00000000000E+00  0.12610686164E+04  0.12610686164E+04  0.00000000000E+00 0. -1.
         21   -1    0    0  503  502 -0.00000000000E+00 -0.00000000000E+00 -0.14088918690E+01  0.14088918690E+01  0.00000000000E+00 0.  1.
         21    1    1    2  503  501 -0.21424673745E+02  0.12618454304E+01  0.86542030885E+02  0.89163512765E+02  0.00000000000E+00 0.  1.
         21    1    1    2  504  502  0.21424673745E+02 -0.12618454304E+01  0.11731176937E+04  0.11733139955E+04  0.00000000000E+00 0. -1.
</event>
<event>
 4    1  0.1725802E+006  0.2391480E+02  0.7546771E-02  0.1481320E+00
         21   -1    0    0  502  501  0.00000000000E+00  0.00000000000E+00  0.31966278094E+01  0.31966278094E+01  0.00000000000E+00 0.  1.
         21   -1    0    0  504  502 -0.00000000000E+00 -0.00000000000E+00 -0.57954435072E+03  0.57954435072E+03  0.00000000000E+00 0. -1.
         21    1    1    2  503  501 -0.92556650525E+01 -0.22051082933E+02 -0.45917714650E+02  0.51772136452E+02  0.00000000000E+00 0.  1.
         21    1    1    2  504  503  0.92556650525E+01  0.22051082933E+02 -0.53043000826E+03  0.53096884208E+03  0.00000000000E+00 0. -1.
</event>
<event>
 4    1  0.1725802E+006  0.2648522E+02  0.7546771E-02  0.1452849E+00
         21   -1    0    0  504  501  0.00000000000E+00  0.00000000000E+00  0.66222094209E+02  0.66222094209E+02  0.00000000000E+00 0. -1.
         21   -1    0    0  503  502 -0.00000000000E+00 -0.00000000000E+00 -0.12575979798E+02  0.12575979798E+02  0.00000000000E+00 0. -1.
         21    1    1    2  503  501 -0.19200718238E+02  0.18242782999E+02  0.42469420360E+02  0.50051157610E+02  0.00000000000E+00 0. -1.
         21    1    1    2  504  502  0.19200718238E+02 -0.18242782999E+02  0.11176694051E+02  0.28746916397E+02  0.00000000000E+00 0. -1.
</event>
<event>
 4    1  0.1725802E+006  0.2408872E+02  0.7546771E-02  0.1479262E+00
         21   -1    0    0  502  501  0.00000000000E+00  0.00000000000E+00  0.23059988712E+03  0.23059988712E+03  0.00000000000E+00 0. -1.
         21   -1    0    0  503  502 -0.00000000000E+00 -0.00000000000E+00 -0.53525939689E+02  0.53525939689E+02  0.00000000000E+00 0. -1.
         21    1    1    2  503  504 -0.22935738072E+02  0.73633022238E+01 -0.50146448678E+02  0.55632118561E+02  0.00000000000E+00 0. -1.
         21    1    1    2  504  501  0.22935738072E+02 -0.73633022238E+01  0.22722039611E+03  0.22849370825E+03  0.00000000000E+00 0. -1.
</event>
<event>
 4    1  0.1725802E+006  0.2236633E+02  0.7546771E-02  0.1500612E+00
         21   -1    0    0  503  501  0.00000000000E+00  0.00000000000E+00  0.41419643479E+02  0.41419643479E+02  0.00000000000E+00 0. -1.
         21   -1    0    0  504  502 -0.00000000000E+00 -0.00000000000E+00 -0.12088730686E+02  0.12088730686E+02  0.00000000000E+00 0. -1.
         21    1    1    2  503  502  0.21696444468E+02  0.54329371218E+01  0.15474969292E+02  0.27197926077E+02  0.00000000000E+00 0. -1.
         21    1    1    2  504  501 -0.21696444468E+02 -0.54329371218E+01  0.13855943501E+02  0.26310448089E+02  0.00000000000E+00 0. -1.
</event>
<event>
 4    1  0.1725802E+006  0.2244141E+02  0.7546771E-02  0.1499634E+00
         21   -1    0    0  504  501  0.00000000000E+00  0.00000000000E+00  0.37068882134E+01  0.37068882134E+01  0.00000000000E+00 0. -1.
         21   -1    0    0  503  502 -0.00000000000E+00 -0.00000000000E+00 -0.15480023431E+03  0.15480023431E+03  0.00000000000E+00 0. -1.
         21    1    1    2  503  501 -0.75800416285E+01 -0.21122501531E+02 -0.10326888713E+03  0.10567913773E+03  0.00000000000E+00 0. -1.
         21    1    1    2  504  502  0.75800416285E+01  0.21122501531E+02 -0.47824458970E+02  0.52827984798E+02  0.00000000000E+00 0. -1.
</event>
<event>
 4    1  0.1725802E+006  0.3788500E+02  0.7546771E-02  0.1361346E+00
         21   -1    0    0  503  501  0.00000000000E+00  0.00000000000E+00  0.35961286382E+02  0.35961286382E+02  0.00000000000E+00 0. -1.
         21   -1    0    0  504  502 -0.00000000000E+00 -0.00000000000E+00 -0.67326734597E+02  0.67326734597E+02  0.00000000000E+00 0.  1.
         21    1    1    2  503  502  0.25974881507E+02 -0.27578591355E+02  0.17272268883E+02  0.41636575781E+02  0.00000000000E+00 0. -1.
         21    1    1    2  504  501 -0.25974881507E+02  0.27578591355E+02 -0.48637717099E+02  0.61651445198E+02  0.00000000000E+00 0.  1.
</event>
<event>
 4    1  0.1725802E+006  0.2413229E+02  0.7546771E-02  0.1478749E+00
         21   -1    0    0  503  501  0.00000000000E+00  0.00000000000E+00  0.24592362806E+03  0.24592362806E+03  0.00000000000E+00 0.  1.
         21   -1    0    0  501  502 -0.00000000000E+00 -0.00000000000E+00 -0.20193992657E+02  0.20193992657E+02  0.00000000000E+00 0. -1.
         21    1    1    2  503  504 -0.15462505800E+02  0.18527767774E+02  0.23787874669E+03  0.23909969760E+03  0.00000000000E+00 0.  1.
         21    1    1    2  504  502  0.15462505800E+02 -0.18527767774E+02 -0.12149111292E+02  0.27017923115E+02  0.00000000000E+00 0. -1.
</event>
<event>
 4    1  0.1725802E+006  0.2068101E+02  0.7546771E-02  0.1523868E+00
         21   -1    0    0  502  501  0.00000000000E+00  0.00000000000E+00  0.18384983655E+01  0.18384983655E+01  0.00000000000E+00 0.  1.
         21   -1    0    0  504  502 -0.00000000000E+00 -0.00000000000E+00 -0.28470288741E+03  0.28470288741E+03  0.00000000000E+00 0. -1.
         21    1    1    2  503  501  0.11075262587E+02 -0.17465475869E+02 -0.80164073830E+02  0.82788785603E+02  0.00000000000E+00 0.  1.
         21    1    1    2  504  503 -0.11075262587E+02  0.17465475869E+02 -0.20270031521E+03  0.20375260017E+03  0.00000000000E+00 0. -1.
</event>
<event>
 4    1  0.1725802E+006  0.2884791E+02  0.7546771E-02  0.1429879E+00
         21   -1    0    0  502  501  0.00000000000E+00  0.00000000000E+00  0.17045728775E+02  0.17045728775E+02  0.00000000000E+00 0. -1.
         21   -1    0    0  504  502 -0.00000000000E+00 -0.00000000000E+00 -0.82427449060E+03  0.82427449060E+03  0.00000000000E+00 0.  1.
         21    1    1    2  503  501 -0.34039078529E+01 -0.28646382373E+02  0.43977510052E+01  0.29181193013E+02  0.00000000000E+00 0. -1.
         21    1    1    2  504  503  0.34039078529E+01  0.28646382373E+02 -0.81162651283E+03  0.81213902636E+03  0.00000000000E+00 0.  1.
</event>
<event>
 4    1  0.1725802E+006  0.2189562E+02  0.7546771E-02  0.1506852E+00
         21   -1    0    0  504  501  0.00000000000E+00  0.00000000000E+00  0.45631530887E+02  0.45631530887E+02  0.00000000000E+00 0.  1.
         21   -1    0    0  503  502 -0.00000000000E+00 -0.00000000000E+00 -0.17329206713E+02  0.17329206713E+02  0.00000000000E+00 0.  1.
         21    1    1    2  503  501 -0.89530197592E+01  0.19981536603E+02 -0.56019403644E+01  0.22600887232E+02  0.00000000000E+00 0.  1.
         21    1    1    2  504  502  0.89530197592E+01 -0.19981536603E+02  0.33904264539E+02  0.40359850368E+02  0.00000000000E+00 0.  1.
</event>
<event>
 4    1  0.1725802E+006  0.2160260E+02  0.7546771E-02  0.1510832E+00
         21   -1    0    0  502  501  0.00000000000E+00  0.00000000000E+00  0.13400165892E+01  0.13400165892E+01  0.00000000000E+00 0. -1.
         21   -1    0    0  504  502 -0.00000000000E+00 -0.00000000000E+00 -0.10432694707E+04  0.10432694707E+04  0.00000000000E+00 0.  1.
         21    1    1    2  503  501 -0.21590670944E+02  0.71788295993E+00 -0.94658682959E+02  0.97092423429E+02  0.00000000000E+00 0. -1.
         21    1    1    2  504  503  0.21590670944E+02 -0.71788295993E+00 -0.94727077116E+03  0.94751706387E+03  0.00000000000E+00 0.  1.
</event>
<event>
 4    1  0.1725802E+006  0.3264086E+02  0.7546771E-02  0.1397953E+00
         21   -1    0    0  504  501  0.00000000000E+00  0.00000000000E+00  0.54333130433E+02  0.54333130433E+02  0.00000000000E+00 0. -1.
         21   -1    0    0  503  502 -0.00000000000E+00 -0.00000000000E+00 -0.73653626598E+02  0.73653626598E+02  0.00000000000E+00 0.  1.
         21    1    1    2  503  501  0.25661726384E+02 -0.20171803180E+02 -0.64477047874E+02  0.72268357855E+02  0.00000000000E+00 0.  1.
         21    1    1    2  504  502 -0.25661726384E+02  0.20171803180E+02  0.45156551709E+02  0.55718399176E+02  0.00000000000E+00 0. -1.
</event>
<event>
 4    1  0.1725802E+006  0.2985974E+02  0.7546771E-02  0.1420819E+00
         21   -1    0    0  503  501  0.00000000000E+00  0.00000000000E+00  0.12195559706E+04  0.12195559706E+04  0.00000000000E+00 0.  1.
         21   -1    0    0  504  502 -0.00000000000E+00 -0.00000000000E+00 -0.81337280454E+00  0.81337280454E+00  0.00000000000E+00 0.  1.
         21    1    1    2  503  502  0.30173185324E+01  0.29706896079E+02  0.80344817884E+03  0.80400284823E+03  0.00000000000E+00 0.  1.
         21    1    1    2  504  501 -0.30173185324E+01 -0.29706896079E+02  0.41529441899E+03  0.41636649520E+03  0.00000000000E+00 0.  1.
</event>
<event>
 4    1  0.1725802E+006  0.2297542E+02  0.7546771E-02  0.1492807E+00
         21   -1    0    0  503  501  0.00000000000E+00  0.00000000000E+00  0.35258761495E+01  0.35258761495E+01  0.00000000000E+00 0.  1.
         21   -1    0    0  501  502 -0.00000000000E+00 -0.00000000000E+00 -0.50057588571E+03  0.50057588571E+03  0.00000000000E+00 0. -1.
         21    1    1    2  503  504  0.80528805558E+00 -0.22961298838E+02 -0.37505824687E+02  0.43983594880E+02  0.00000000000E+00 0.  1.
         21    1    1    2  504  502 -0.80528805558E+00  0.22961298838E+02 -0.45954418487E+03  0.46011816698E+03  0.00000000000E+00 0. -1.
</event>
<event>
 4    1  0.1725802E+006  0.2614040E+02  0.7546771E-02  0.1456439E+00
         21   -1    0    0  504  501  0.00000000000E+00  0.00000000000E+00  0.64981204648E+01  0.64981204648E+01  0.00000000000E+00 0. -1.
         21   -1    0    0  501  502 -0.00000000000E+00 -0.00000000000E+00 -0.10548282227E+03  0.10548282227E+03  0.00000000000E+00 0. -1.
         21    1    1    2  503  502 -0.21927591441E+02  0.14230297529E+02 -0.52605795637E+02  0.58742577138E+02  0.00000000000E+00 0. -1.
         21    1    1    2  504  503  0.21927591441E+02 -0.14230297529E+02 -0.46378906171E+02  0.53238365600E+02  0.00000000000E+00 0. -1.
</event>
<event>
 4    1  0.1725802E+006  0.4335201E+02  0.7546771E-02  0.1329889E+00
         21   -1    0    0  504  501  0.00000000000E+00  0.00000000000E+00  0.41505253298E+03  0.41505253298E+03  0.00000000000E+00 0. -1.
         21   -1    0    0  503  502 -0.00000000000E+00 -0.00000000000E+00 -0.49901634020E+01  0.49901634020E+01  0.00000000000E+00 0. -1.
         21    1    1    2  503  501 -0.37926849415E+02 -0.20998820825E+02  0.14112244820E+03  0.14763110028E+03  0.00000000000E+00 0. -1.
         21    1    1    2  504  502  0.37926849415E+02  0.20998820825E+02  0.26893992137E+03  0.27241159610E+03  0.00000000000E+00 0. -1.
</event>
<event>
 4    1  0.1725802E+006  0.4343357E+02  0.7546771E-02  0.1329460E+00
         21   -1    0    0  502  501  0.00000000000E+00  0.00000000000E+00  0.33954086129E+02  0.33954086129E+02  0.00000000000E+00 0. -1.
         21   -1    0    0  503  502 -0.00000000000E+00 -0.00000000000E+00 -0.31872386084E+03  0.31872386084E+03  0.00000000000E+00 0. -1.
         21    1    1    2  503  504  0.40664085378E+02 -0.15261307585E+02 -0.30261881437E+03  0.30571984260E+03  0.00000000000E+00 0. -1.
         21    1    1    2  504  501 -0.40664085378E+02  0.15261307585E+02  0.17849039661E+02  0.46958104366E+02  0.00000000000E+00 0. -1.
</event>
<event>
 4    1  0.1725802E+006  0.2149416E+02  0.7546771E-02  0.1512325E+00
         21   -1    0    0  504  501  0.00000000000E+00  0.00000000000E+00  0.14418090846E+03  0.14418090846E+03  0.00000000000E+00 0. -1.
         21   -1    0    0  501  502 -0.00000000000E+00 -0.00000000000E+00 -0.11360449676E+03  0.11360449676E+03  0.00000000000E+00 0.  1.
         21    1    1    2  503  502  0.17869463556E+02 -0.11944928953E+02 -0.11177373660E+03  0.11382164666E+03  0.00000000000E+00 0.  1.
         21    1    1    2  504  503 -0.17869463556E+02  0.11944928953E+02  0.14235014830E+03  0.14396375855E+03  0.00000000000E+00 0. -1.
</event>
<event>
 4    1  0.1725802E+006  0.2197217E+02  0.7546771E-02  0.1505824E+00
         21   -1    0    0  502  501  0.00000000000E+00  0.00000000000E+00  0.21664489272E+03  0.21664489272E+03  0.00000000000E+00 0. -1.
         21   -1    0    0  503  502 -0.00000000000E+00 -0.00000000000E+00 -0.21089960703E+02  0.21089960703E+02  0.00000000000E+00 0.  1.
         21    1    1    2  503  504 -0.21648484282E+02 -0.37576058246E+01 -0.14634753611E+02  0.26399857698E+02  0.00000000000E+00 0.  1.
         21    1    1    2  504  501  0.21648484282E+02  0.37576058246E+01  0.21018968563E+03  0.21133499572E+03  0.00000000000E+00 0. -1.
</event>
<event>
 4    1  0.1725802E+006  0.2695630E+02  0.7546771E-02  0.1448048E+00
         21   -1    0    0  503  501  0.00000000000E+00  0.00000000000E+00  0.18765092829E+02  0.18765092829E+02  0.00000000000E+00 0. -1.
         21   -1    0    0  504  502 -0.00000000000E+00 -0.00000000000E+00 -0.20354319605E+03  0.20354319605E+03  0.00000000000E+00 0. -1.
         21    1    1    2  503  502  0.25665049498E+02  0.82430193827E+01  0.76345474257E+01  0.28016574535E+02  0.00000000000E+00 0. -1.
         21    1    1    2  504  501 -0.25665049498E+02 -0.82430193827E+01 -0.19241265064E+03  0.19429171434E+03  0.00000000000E+00 0. -1.
</event>
<event>
 4    1  0.1725802E+006  0.2420299E+02  0.7546771E-02  0.1477920E+00
         21   -1    0    0  502  501  0.00000000000E+00  0.00000000000E+00  0.36057673560E+03  0.36057673560E+03  0.00000000000E+00 0.  1.
         21   -1    0    0  503  502 -0.00000000000E+00 -0.00000000000E+00 -0.14308077295E+02  0.14308077295E+02  0.00000000000E+00 0.  1.
         21    1    1    2  503  504 -0.12055464922E+02  0.20986912767E+02 -0.33461892226E+01  0.24433209455E+02  0.00000000000E+00 0.  1.
         21    1    1    2  504  501  0.12055464922E+02 -0.20986912767E+02  0.34961484753E+03  0.35045160344E+03  0.00000000000E+00 0.  1.
</event>
<event>
 4    1  0.1725802E+006  0.2135812E+02  0.7546771E-02  0.1514213E+00
         21   -1    0    0  504  501  0.00000000000E+00  0.00000000000E+00  0.92629739988E+02  0.92629739988E+02  0.00000000000E+00 0. -1.
         21   -1    0    0  503  502 -0.00000000000E+00 -0.00000000000E+00 -0.39769964519E+02  0.39769964519E+02  0.00000000000E+00 0. -1.
         21    1    1    2  503  501 -0.18021552773E+02 -0.11462668569E+02 -0.35535847502E+02  0.41460409945E+02  0.00000000000E+00 0. -1.
         21    1    1    2  504  502  0.18021552773E+02  0.11462668569E+02  0.88395622972E+02  0.90939294563E+02  0.00000000000E+00 0. -1.
</event>
<event>
 4    1  0.1725802E+006  0.3263114E+02  0.7546771E-02  0.1398028E+00
         21   -1    0    0  503  501  0.00000000000E+00  0.00000000000E+00  0.82149636523E+01  0.82149636523E+01  0.00000000000E+00 0.  1.
         21   -1    0    0  504  502 -0.00000000000E+00 -0.00000000000E+00 -0.13542365012E+03  0.13542365012E+03  0.00000000000E+00 0.  1.
         21    1    1    2  503  502 -0.26024927731E+02  0.19684877479E+02 -0.78477108872E+02  0.84990869401E+02  0.00000000000E+00 0.  1.
         21    1    1    2  504  501  0.26024927731E+02 -0.19684877479E+02 -0.48731577593E+02  0.58647744368E+02  0.00000000000E+00 0.  1.
</event>
<event>
 4    1  0.1725802E+006  0.2781944E+02  0.7546771E-02  0.1439546E+00
         21   -1    0    0  502  501  0.00000000000E+00  0.00000000000E+00  0.13442460720E+03  0.13442460720E+03  0.00000000000E+00 0. -1.
         21   -1    0    0  504  502 -0.00000000000E+00 -0.00000000000E+00 -0.88990620411E+01  0.88990620411E+01  0.00000000000E+00 0. -1.
         21    1    1    2  503  501  0.27600135162E+02  0.34861925632E+01  0.10534254838E+03  0.10895399717E+03  0.00000000000E+00 0. -1.
         21    1    1    2  504  503 -0.27600135162E+02 -0.34861925632E+01  0.20182996781E+02  0.34369672076E+02  0.00000000000E+00 0. -1.
</event>
<event>
 4    1  0.1725802E+006  0.2844819E+02  0.7546771E-02  0.1433579E+00
         21   -1    0    0  503  501  0.00000000000E+00  0.00000000000E+00  0.12969056863E+02  0.12969056863E+02  0.00000000000E+00 0.  1.
         21   -1    0    0  504  502 -0.00000000000E+00 -0.00000000000E+00 -0.64583659323E+02  0.64583659323E+02  0.00000000000E+00 0. -1.
         21    1    1    2  503  502  0.46184117553E+01  0.28070795015E+02 -0.32933650881E+02  0.43519244252E+02  0.00000000000E+00 0. -1.
         21    1    1    2  504  501 -0.46184117553E+01 -0.28070795015E+02 -0.18680951580E+02  0.34033471934E+02  0.00000000000E+00 0.  1.
</event>
<event>
 4    1  0.1725802E+006  0.2815142E+02  0.7546771E-02  0.1436373E+00
         21   -1    0    0  503  501  0.00000000000E+00  0.00000000000E+00  0.32413085124E+03  0.32413085124E+03  0.00000000000E+00 0. -1.
         21   -1    0    0  504  502 -0.00000000000E+00 -0.00000000000E+00 -0.32572539156E+02  0.32572539156E+02  0.00000000000E+00 0.  1.
         21    1    1    2  503  502  0.27299751005E+02 -0.68721174635E+01  0.31730643926E+03  0.31855278809E+03  0.00000000000E+00 0. -1.
         21    1    1    2  504  501 -0.27299751005E+02  0.68721174635E+01 -0.25748127176E+02  0.38150602308E+02  0.00000000000E+00 0.  1.
</event>
<event>
 4    1  0.1725802E+006  0.2051076E+02  0.7546771E-02  0.1526366E+00
         21   -1    0    0  503  501  0.00000000000E+00  0.00000000000E+00  0.17336495695E+01  0.17336495695E+01  0.00000000000E+00 0.  1.
         21   -1    0    0  504  502 -0.00000000000E+00 -0.00000000000E+00 -0.46650607544E+03  0.46650607544E+03  0.00000000000E+00 0.  1.
         21    1    1    2  503  502 -0.33978986123E+01 -0.20227351053E+02 -0.39456053436E+03  0.39509328863E+03  0.00000000000E+00 0.  1.
         21    1    1    2  504  501  0.33978986123E+01  0.20227351053E+02 -0.70211891512E+02  0.73146436382E+02  0.00000000000E+00 0.  1.
</event>
<event>
 4    1  0.1725802E+006  0.3589341E+02  0.7546771E-02  0.1374389E+00
         21   -1    0    0  504  501  0.00000000000E+00  0.00000000000E+00  0.50629851950E+03  0.50629851950E+03  0.00000000000E+00 0.  1.
         21   -1    0    0  501  502 -0.00000000000E+00 -0.00000000000E+00 -0.76829772345E+01  0.76829772345E+01  0.00000000000E+00 0.  1.
         21    1    1    2  503  502  0.30610444727E+02  0.18743995123E+02  0.39140580871E+02  0.53106701559E+02  0.00000000000E+00 0.  1.
         21    1    1    2  504  503 -0.30610444727E+02 -0.18743995123E+02  0.45947496140E+03  0.46087479518E+03  0.00000000000E+00 0.  1.
</event>
<event>
 4    1  0.1725802E+006  0.2086784E+02  0.7546771E-02  0.1521160E+00
         21   -1    0    0  504  501  0.00000000000E+00  0.00000000000E+00  0.10021214322E+02  0.10021214322E+02  0.00000000000E+00 0. -1.
         21   -1    0    0  501  502 -0.00000000000E+00 -0.00000000000E+00 -0.77602141296E+02  0.77602141296E+02  0.00000000000E+00 0.  1.
         21    1    1    2  503  502  0.20840800663E+02  0.10618990030E+01 -0.62853002318E+02  0.66226629856E+02  0.00000000000E+00 0.  1.
         21    1    1    2  504  503 -0.20840800663E+02 -0.10618990030E+01 -0.47279246567E+01  0.21396725762E+02  0.00000000000E+00 0. -1.
</event>
<event>
 4    1  0.1725802E+006  0.2891862E+02  0.7546771E-02  0.1429232E+00
         21   -1    0    0  503  501  0.00000000000E+00  0.00000000000E+00  0.50604202388E+01  0.50604202388E+01  0.00000000000E+00 0. -1.
         21   -1    0    0  504  502 -0.00000000000E+00 -0.00000000000E+00 -0.17617617458E+03  0.17617617458E+03  0.00000000000E+00 0. -1.
         21    1    1    2  503  502 -0.16150230692E+02 -0.23988679190E+02 -0.10811434696E+03  0.11191514061E+03  0.00000000000E+00 0. -1.
         21    1    1    2  504  501  0.16150230692E+02  0.23988679190E+02 -0.63001407385E+02  0.69321454205E+02  0.00000000000E+00 0. -1.
</event>
<event>
 4    1  0.1725802E+006  0.2293444E+02  0.7546771E-02  0.1493323E+00
         21   -1    0    0  502  501  0.00000000000E+00  0.00000000000E+00  0.22964578917E+02  0.22964578917E+02  0.00000000000E+00 0.  1.
         21   -1    0    0  503  502 -0.00000000000E+00 -0.00000000000E+00 -0.22930279038E+02  0.22930279038E+02  0.00000000000E+00 0. -1.
         21    1    1    2  503  504  0.22700590167E+02 -0.32667921862E+01  0.78882197942E+00  0.22948005692E+02  0.00000000000E+00 0. -1.
         21    1    1    2  504  501 -0.22700590167E+02  0.32667921862E+01 -0.75452210042E+00  0.22946852262E+02  0.00000000000E+00 0.  1.
</event>
<event>
 4    1  0.1725802E+006  0.2008140E+02  0.7546771E-02  0.1532795E+00
         21   -1    0    0  502  501  0.00000000000E+00  0.00000000000E+00  0.15947102852E+02  0.15947102852E+02  0.00000000000E+00 0. -1.
         21   -1    0    0  503  502 -0.00000000000E+00 -0.00000000000E+00 -0.65474636098E+02  0.65474636098E+02  0.00000000000E+00 0. -1.
         21    1    1    2  503  504  0.17945780159E+02 -0.90117391254E+01 -0.56658378726E+02  0.60111848644E+02  0.00000000000E+00 0. -1.
         21    1    1    2  504  501 -0.17945780159E+02  0.90117391254E+01  0.71308454797E+01  0.21309890306E+02  0.00000000000E+00 0. -1.
</event>
<event>
 4    1  0.1725802E+006  0.3294037E+02  0.7546771E-02  0.1395651E+00
         21   -1    0    0  503  501  0.00000000000E+00  0.00000000000E+00  0.55968650691E+02  0.55968650691E+02  0.00000000000E+00 0. -1.
         21   -1    0    0  504  502 -0.00000000000E+00 -0.00000000000E+00 -0.12750768376E+03  0.12750768376E+03  0.00000000000E+00 0. -1.
         21    1    1    2  503  502  0.17885741890E+02 -0.27661668403E+02 -0.12024606278E+03  0.12467631401E+03  0.00000000000E+00 0. -1.
         21    1    1    2  504  501 -0.17885741890E+02  0.27661668403E+02  0.48707029703E+02  0.58800020445E+02  0.00000000000E+00 0. -1.
</event>
<event>
 4    1  0.1725802E+006  0.2189288E+02  0.7546771E-02  0.1506889E+00
         21   -1    0    0  502  501  0.00000000000E+00  0.00000000000E+00  0.44222770468E+01  0.44222770468E+01  0.00000000000E+00 0. -1.
         21   -1    0    0  503  502 -0.00000000000E+00 -0.00000000000E+00 -0.10838265958E+03  0.10838265958E+03  0.00000000000E+00 0. -1.
         21    1    1    2  503  504  0.12230634198E+02 -0.18157907235E+02 -0.51949743449E+02  0.56374407780E+02  0.00000000000E+00 0. -1.
         21    1    1    2  504  501 -0.12230634198E+02  0.18157907235E+02 -0.52010639085E+02  0.56430528848E+02  0.00000000000E+00 0. -1.
</event>
<event>
 4    1  0.1725802E+006  0.2182335E+02  0.7546771E-02  0.1507827E+00
         21   -1    0    0  503  501  0.00000000000E+00  0.00000000000E+00  0.13191214066E+01  0.13191214066E+01  0.00000000000E+00 0. -1.
         21   -1    0    0  504  502 -0.00000000000E+00 -0.00000000000E+00 -0.39082782451E+03  0.39082782451E+03  0.00000000000E+00 0. -1.
         21    1    1    2  503  502 -0.21103110518E+02 -0.55603334346E+01 -0.14062547922E+03  0.14230876286E+03  0.00000000000E+00 0. -1.
         21    1    1    2  504  501  0.21103110518E+02  0.55603334346E+01 -0.24888322389E+03  0.24983818306E+03  0.00000000000E+00 0. -1.
</event>
<event>
 4    1  0.1725802E+006  0.2151706E+02  0.7546771E-02  0.1512009E+00
         21   -1    0    0  503  501  0.00000000000E+00  0.00000000000E+00  0.51192166724E+02  0.51192166724E+02  0.00000000000E+00 0. -1.
         21   -1    0    0  504  502 -0.00000000000E+00 -0.00000000000E+00 -0.24093712049E+02  0.24093712049E+02  0.00000000000E+00 0. -1.
         21    1    1    2  503  502 -0.25089910821E+01  0.21370280919E+02 -0.16201336832E+02  0.26934499400E+02  0.00000000000E+00 0. -1.
         21    1    1    2  504  501  0.25089910821E+01 -0.21370280919E+02  0.43299791506E+02  0.48351379373E+02  0.00000000000E+00 0. -1.
</event>
<event>
 4    1  0.1725802E+006  0.2442604E+02  0.7546771E-02  0.1475328E+00
         21   -1    0    0  504  501  0.00000000000E+00  0.00000000000E+00  0.52893551989E+02  0.52893551989E+02  0.00000000000E+00 0.  1.
         21   -1    0    0  503  502 -0.00000000000E+00 -0.00000000000E+00 -0.12781664375E+02  0.12781664375E+02  0.00000000000E+00 0.  1.
         21    1    1    2  503  501 -0.85253973957E+01  0.22889927632E+02  0.87998854574E+01  0.25962842136E+02  0.00000000000E+00 0.  1.
         21    1    1    2  504  502  0.85253973957E+01 -0.22889927632E+02  0.31312002157E+02  0.39712374228E+02  0.00000000000E+00 0.  1.
</event>
<event>
 4    1  0.1725802E+006  0.3713500E+02  0.7546771E-02  0.1366145E+00
         21   -1    0    0  503  501  0.00000000000E+00  0.00000000000E+00  0.15677083901E+03  0.15677083901E+03  0.00000000000E+00 0.  1.
         21   -1    0    0  504  502 -0.00000000000E+00 -0.00000000000E+00 -0.88378704687E+01  0.88378704687E+01  0.00000000000E+00 0.  1.
         21    1    1    2  503  502  0.33083074916E+02 -0.16867675704E+02  0.79643305411E+02  0.87875277675E+02  0.00000000000E+00 0.  1.
         21    1    1    2  504  501 -0.33083074916E+02  0.16867675704E+02  0.68289663130E+02  0.77733431803E+02  0.00000000000E+00 0.  1.
</event>
<event>
 4    1  0.1725802E+006  0.2368885E+02  0.7546771E-02  0.1484025E+00
         21   -1    0    0  503  501  0.00000000000E+00  0.00000000000E+00  0.19640989916E+03  0.19640989916E+03  0.00000000000E+00 0.  1.
         21   -1    0    0  504  502 -0.00000000000E+00 -0.00000000000E+00 -0.14176109401E+02  0.14176109401E+02  0.00000000000E+00 0. -1.
         21    1    1    2  503  502 -0.13275557613E+02  0.19619404848E+02 -0.29691736202E+01  0.23874200898E+02  0.00000000000E+00 0. -1.
         21    1    1    2  504  501  0.13275557613E+02 -0.19619404848E+02  0.18520296338E+03  0.18671180766E+03  0.00000000000E+00 0.  1.
</event>
<event>
 4    1  0.1725802E+006  0.2173923E+02  0.7546771E-02  0.1508967E+00
         21   -1    0    0  504  501  0.00000000000E+00  0.00000000000E+00  0.37187807431E+03  0.37187807431E+03  0.00000000000E+00 0.  1.
         21   -1    0    0  501  502 -0.00000000000E+00 -0.00000000000E+00 -0.24759041700E+01  0.24759041700E+01  0.00000000000E+00 0.  1.
         21    1    1    2  503  502 -0.15252275300E+01  0.21685660936E+02  0.54116402219E+02  0.58319629614E+02  0.00000000000E+00 0.  1.
         21    1    1    2  504  503  0.15252275300E+01 -0.21685660936E+02  0.31528576792E+03  0.31603434886E+03  0.00000000000E+00 0.  1.
</event>
<event>
 4    1  0.1725802E+006  0.2490527E+02  0.7546771E-02  0.1469866E+00
         21   -1    0    0  504  501  0.00000000000E+00  0.00000000000E+00  0.15190009807E+02  0.15190009807E+02  0.00000000000E+00 0. -1.
         21   -1    0    0  501  502 -0.00000000000E+00 -0.00000000000E+00 -0.17384355848E+03  0.17384355848E+03  0.00000000000E+00 0.  1.
         21    1    1    2  503  502 -0.20051601028E+02  0.14771789447E+02 -0.16200110231E+03  0.16390433068E+03  0.00000000000E+00 0.  1.
         21    1    1    2  504  503  0.20051601028E+02 -0.14771789447E+02  0.33475536353E+01  0.25129237605E+02  0.00000000000E+00 0. -1.
</event>
<event>
 4    1  0.1725802E+006  0.2889778E+02  0.7546771E-02  0.1429423E+00
         21   -1    0    0  503  501  0.00000000000E+00  0.00000000000E+00  0.95433020183E+02  0.95433020183E+02  0.00000000000E+00 0.  1.
         21   -1    0    0  504  502 -0.00000000000E+00 -0.00000000000E+00 -0.22941283165E+02  0.22941283165E+02  0.00000000000E+00 0. -1.
         21    1    1    2  503  502  0.12422969377E+01 -0.28871064773E+02 -0.10304440165E+02  0.30680012548E+02  0.00000000000E+00 0. -1.
         21    1    1    2  504  501 -0.12422969377E+01  0.28871064773E+02  0.82796177183E+02  0.87694290800E+02  0.00000000000E+00 0.  1.
</event>
<event>
 4    1  0.1725802E+006  0.2001435E+02  0.7546771E-02  0.1533816E+00
         21   -1    0    0  502  501  0.00000000000E+00  0.00000000000E+00  0.76904847377E+02  0.76904847377E+02  0.00000000000E+00 0. -1.
         21   -1    0    0  503  502 -0.00000000000E+00 -0.00000000000E+00 -0.31973410236E+02  0.31973410236E+02  0.00000000000E+00 0.  1.
         21    1    1    2  503  504  0.12252716445E+02  0.15825454961E+02 -0.27342152591E+02  0.33884618831E+02  0.00000000000E+00 0.  1.
         21    1    1    2  504  501 -0.12252716445E+02 -0.15825454961E+02  0.72273589732E+02  0.74993638782E+02  0.00000000000E+00 0. -1.
</event>
<event>
 4    1  0.1725802E+006  0.2116777E+02  0.7546771E-02  0.1516883E+00
         21   -1    0    0  503  501  0.00000000000E+00  0.00000000000E+00  0.31047936952E+02  0.31047936952E+02  0.00000000000E+00 0. -1.
         21   -1    0    0  501  502 -0.00000000000E+00 -0.00000000000E+00 -0.54890368226E+03  0.54890368226E+03  0.00000000000E+00 0.  1.
         21    1    1    2  503  504 -0.18108398239E+02  0.10961764161E+02  0.27210545179E+02  0.34474456185E+02  0.00000000000E+00 0. -1.
         21    1    1    2  504  502  0.18108398239E+02 -0.10961764161E+02 -0.54506629049E+03  0.54547716303E+03  0.00000000000E+00 0.  1.
</event>
<event>
 4    1  0.1725802E+006  0.2263773E+02  0.7546771E-02  0.1497098E+00
         21   -1    0    0  503  501  0.00000000000E+00  0.00000000000E+00  0.50567600907E+01  0.50567600907E+01  0.00000000000E+00 0. -1.
         21   -1    0    0  501  502 -0.00000000000E+00 -0.00000000000E+00 -0.50554694595E+03  0.50554694595E+03  0.00000000000E+00 0.  1.
         21    1    1    2  503  504  0.17567055218E+02  0.14278139132E+02 -0.21962101724E+02  0.31540459702E+02  0.00000000000E+00 0. -1.
         21    1    1    2  504  502 -0.17567055218E+02 -0.14278139132E+02 -0.47852808414E+03  0.47906324634E+03  0.00000000000E+00 0.  1.
</event>
<event>
 4    1  0.1725802E+006  0.3210133E+02  0.7546771E-02  0.1402174E+00
         21   -1    0    0  502  501  0.00000000000E+00  0.00000000000E+00  0.39359963655E+02  0.39359963655E+02  0.00000000000E+00 0.  1.
         21   -1    0    0  503  502 -0.00000000000E+00 -0.00000000000E+00 -0.39705257309E+03  0.39705257309E+03  0.00000000000E+00 0.  1.
         21    1    1    2  503  504  0.28400876784E+02  0.14962797889E+02 -0.38973573370E+03  0.39105554241E+03  0.00000000000E+00 0.  1.
         21    1    1    2  504  501 -0.28400876784E+02 -0.14962797889E+02  0.32043124266E+02  0.45356994340E+02  0.00000000000E+00 0.  1.
</event>
<event>
 4    1  0.1725802E+006  0.3541872E+02  0.7546771E-02  0.1377643E+00
         21   -1    0    0  504  501  0.00000000000E+00  0.00000000000E+00  0.12145313269E+03  0.12145313269E+03  0.00000000000E+00 0.  1.
         21   -1    0    0  501  502 -0.00000000000E+00 -0.00000000000E+00 -0.42355963909E+03  0.42355963909E+03  0.00000000000E+00 0. -1.
         21    1    1    2  503  502 -0.32336277694E+02 -0.14451668956E+02 -0.42021644717E+03  0.42170647145E+03  0.00000000000E+00 0. -1.
         21    1    1    2  504  503  0.32336277694E+02  0.14451668956E+02  0.11810994078E+03  0.12330630033E+03  0.00000000000E+00 0.  1.
</event>
<event>
 4    1  0.1725802E+006  0.2658957E+02  0.7546771E-02  0.1451775E+00
         21   -1    0    0  503  501  0.00000000000E+00  0.00000000000E+00  0.46036302936E+02  0.46036302936E+02  0.00000000000E+00 0.  1.
         21   -1    0    0  501  502 -0.00000000000E+00 -0.00000000000E+00 -0.91784178967E+02  0.91784178967E+02  0.00000000000E+00 0.  1.
         21    1    1    2  503  504  0.25766942847E+02 -0.65627652367E+01  0.40007458998E+02  0.48037506250E+02  0.00000000000E+00 0.  1.
         21    1    1    2  504  502 -0.25766942847E+02  0.65627652367E+01 -0.85755335029E+02  0.89782975653E+02  0.00000000000E+00 0.  1.
</event>
<event>
 4    1  0.1725802E+006  0.3212826E+02  0.7546771E-02  0.1401961E+00
         21   -1    0    0  503  501  0.00000000000E+00  0.00000000000E+00  0.18310726751E+02  0.18310726751E+02  0.00000000000E+00 0. -1.
         21   -1    0    0  504  502 -0.00000000000E+00 -0.00000000000E+00 -0.24684336311E+03  0.24684336311E+03  0.00000000000E+00 0. -1.
         21    1    1    2  503  502 -0.88523113407E+01 -0.30884653747E+02 -0.23072493961E+03  0.23295111722E+03  0.00000000000E+00 0. -1.
         21    1    1    2  504  501  0.88523113407E+01  0.30884653747E+02  0.21923032599E+01  0.32202972638E+02  0.00000000000E+00 0. -1.
</event>
<event>
 4    1  0.1725802E+006  0.2601349E+02  0.7546771E-02  0.1457778E+00
         21   -1    0    0  504  501  0.00000000000E+00  0.00000000000E+00  0.11034045061E+03  0.11034045061E+03  0.00000000000E+00 0. -1.
         21   -1    0    0  503  502 -0.00000000000E+00 -0.00000000000E+00 -0.61878368490E+01  0.61878368490E+01  0.00000000000E+00 0. -1.
         21    1    1    2  503  501 -0.13037860066E+02  0.22510345738E+02  0.57568684158E+02  0.63173213121E+02  0.00000000000E+00 0. -1.
         21    1    1    2  504  502  0.13037860066E+02 -0.22510345738E+02  0.46583929600E+02  0.53355074335E+02  0.00000000000E+00 0. -1.
</event>
<event>
 4    1  0.1725802E+006  0.2885120E+02  0.7546771E-02  0.1429849E+00
         21   -1    0    0  503  501  0.00000000000E+00  0.00000000000E+00  0.34145178742E+02  0.34145178742E+02  0.00000000000E+00 0. -1.
         21   -1    0    0  501  502 -0.00000000000E+00 -0.00000000000E+00 -0.10071659516E+03  0.10071659516E+03  0.00000000000E+00 0.  1.
         21    1    1    2  503  504  0.26704878200E+02 -0.10919763740E+02  0.25420007461E+02  0.38452159096E+02  0.00000000000E+00 0. -1.
         21    1    1    2  504  502 -0.26704878200E+02  0.10919763740E+02 -0.91991423882E+02  0.96409614809E+02  0.00000000000E+00 0.  1.
</event>
<event>
 4    1  0.1725802E+006  0.3430160E+02  0.7546771E-02  0.1385541E+00
         21   -1    0    0  503  501  0.00000000000E+00  0.00000000000E+00  0.18421686522E+03  0.18421686522E+03  0.00000000000E+00 0. -1.
         21   -1    0    0  501  502 -0.00000000000E+00 -0.00000000000E+00 -0.23670267953E+02  0.23670267953E+02  0.00000000000E+00 0.  1.
         21    1    1    2  503  504 -0.14018872975E+02  0.31306082592E+02  0.16909283799E+03  0.17253691624E+03  0.00000000000E+00 0. -1.
         21    1    1    2  504  502  0.14018872975E+02 -0.31306082592E+02 -0.85462407212E+01  0.35350216933E+02  0.00000000000E+00 0.  1.
</event>
<event>
 4    1  0.1725802E+006  0.2063746E+02  0.7546771E-02  0.1524504E+00
         21   -1    0    0  504  501  0.00000000000E+00  0.00000000000E+00  0.22722833990E+03  0.22722833990E+03  0.00000000000E+00 0. -1.
         21   -1    0    0  503  502 -0.00000000000E+00 -0.00000000000E+00 -0.18754411315E+01  0.18754411315E+01  0.00000000000E+00 0. -1.
         21    1    1    2  503  501 -0.19966691365E+02  0.52188197173E+01  0.11544281820E+03  0.11727296840E+03  0.00000000000E+00 0. -1.
         21    1    1    2  504  502  0.19966691365E+02 -0.52188197173E+01  0.10991008056E+03  0.11183081263E+03  0.00000000000E+00 0. -1.
</event>
<event>
 4    1  0.1725802E+006  0.3349049E+02  0.7546771E-02  0.1391498E+00
         21   -1    0    0  504  501  0.00000000000E+00  0.00000000000E+00  0.21073001942E+02  0.21073001942E+02  0.00000000000E+00 0.  1.
         21   -1    0    0  501  502 -0.00000000000E+00 -0.00000000000E+00 -0.48985828521E+03  0.48985828521E+03  0.00000000000E+00 0. -1.
         21    1    1    2  503  502 -0.18776348606E+02  0.27731965025E+02 -0.47558060541E+03  0.47675835116E+03  0.00000000000E+00 0. -1.
         21    1    1    2  504  503  0.18776348606E+02 -0.27731965025E+02  0.67953221504E+01  0.34172935992E+02  0.00000000000E+00 0.  1.
</event>
<event>
 4    1  0.1725802E+006  0.2008017E+02  0.7546771E-02  0.1532814E+00
         21   -1    0    0  503  501  0.00000000000E+00  0.00000000000E+00  0.34426719394E+01  0.34426719394E+01  0.00000000000E+00 0.  1.
         21   -1    0    0  504  502 -0.00000000000E+00 -0.00000000000E+00 -0.15883110603E+03  0.15883110603E+03  0.00000000000E+00 0.  1.
         21    1    1    2  503  502 -0.17875850278E+02  0.91469777430E+01 -0.36116072784E+02  0.41322922674E+02  0.00000000000E+00 0.  1.
         21    1    1    2  504  501  0.17875850278E+02 -0.91469777430E+01 -0.11927236131E+03  0.12095085530E+03  0.00000000000E+00 0.  1.
</event>
<event>
 4    1  0.1725802E+006  0.6163137E+02  0.7546771E-02  0.1254388E+00
         21   -1    0    0  502  501  0.00000000000E+00  0.00000000000E+00  0.49994863849E+02  0.49994863849E+02  0.00000000000E+00 0. -1.
         21   -1    0    0  504  502 -0.00000000000E+00 -0.00000000000E+00 -0.76243722369E+02  0.76243722369E+02  0.00000000000E+00 0. -1.
         21    1    1    2  503  501 -0.41284821026E+02 -0.45760132489E+02 -0.93864556180E+01  0.62342054198E+02  0.00000000000E+00 0. -1.
         21    1    1    2  504  503  0.41284821026E+02  0.45760132489E+02 -0.16862402902E+02  0.63896532020E+02  0.00000000000E+00 0. -1.
</event>
<event>
 4    1  0.1725802E+006  0.2205150E+02  0.7546771E-02  0.1504765E+00
         21   -1    0    0  503  501  0.00000000000E+00  0.00000000000E+00  0.32906745433E+01  0.32906745433E+01  0.00000000000E+00 0. -1.
         21   -1    0    0  501  502 -0.00000000000E+00 -0.00000000000E+00 -0.15330893660E+03  0.15330893660E+03  0.00000000000E+00 0. -1.
         21    1    1    2  503  504  0.32784582277E+01  0.21806429811E+02 -0.60128466714E+02  0.64044524972E+02  0.00000000000E+00 0. -1.
         21    1    1    2  504  502 -0.32784582277E+01 -0.21806429811E+02 -0.89889795344E+02  0.92555086173E+02  0.00000000000E+00 0. -1.
</event>
<event>
 4    1  0.1725802E+006  0.2138896E+02  0.7546771E-02  0.1513783E+00
         21   -1    0    0  503  501  0.00000000000E+00  0.00000000000E+00  0.12760493339E+04  0.12760493339E+04  0.00000000000E+00 0.  1.
         21   -1    0    0  504  502 -0.00000000000E+00 -0.00000000000E+00 -0.21193080009E+01  0.21193080009E+01  0.00000000000E+00 0. -1.
         21    1    1    2  503  502 -0.68962883923E+01  0.20246701689E+02  0.54439699185E+02  0.58490756280E+02  0.00000000000E+00 0. -1.
         21    1    1    2  504  501  0.68962883923E+01 -0.20246701689E+02  0.12194903268E+04  0.12196778857E+04  0.00000000000E+00 0.  1.
</event>
<event>
 4    1  0.1725802E+006  0.3633889E+02  0.7546771E-02  0.1371387E+00
         21   -1    0    0  504  501  0.00000000000E+00  0.00000000000E+00  0.41538443153E+02  0.41538443153E+02  0.00000000000E+00 0. -1.
         21   -1    0    0  503  502 -0.00000000000E+00 -0.00000000000E+00 -0.32316932211E+02  0.32316932211E+02  0.00000000000E+00 0. -1.
         21    1    1    2  503  501  0.29742929121E+02 -0.20877581231E+02  0.93252357454E+01  0.37516333142E+02  0.00000000000E+00 0. -1.
         21    1    1    2  504  502 -0.29742929121E+02  0.20877581231E+02 -0.10372480373E+00  0.36339042222E+02  0.00000000000E+00 0. -1.
</event>
<event>
 4    1  0.1725802E+006  0.2100039E+02  0.7546771E-02  0.1519259E+00
         21   -1    0    0  502  501  0.00000000000E+00  0.00000000000E+00  0.89188062854E+02  0.89188062854E+02  0.00000000000E+00 0.  1.
         21   -1    0    0  504  502 -0.00000000000E+00 -0.00000000000E+00 -0.76800837035E+01  0.76800837035E+01  0.00000000000E+00 0.  1.
         21    1    1    2  503  501  0.16408161366E+02  0.13106822959E+02  0.69658772382E+02  0.72755488709E+02  0.00000000000E+00 0.  1.
         21    1    1    2  504  503 -0.16408161366E+02 -0.13106822959E+02  0.11849206769E+02  0.24112657849E+02  0.00000000000E+00 0.  1.
</event>
<event>
 4    1  0.1725802E+006  0.3346575E+02  0.7546771E-02  0.1391682E+00
         21   -1    0    0  503  501  0.00000000000E+00  0.00000000000E+00  0.30239116460E+02  0.30239116460E+02  0.00000000000E+00 0.  1.
         21   -1    0    0  504  502 -0.00000000000E+00 -0.00000000000E+00 -0.71481603182E+02  0.71481603182E+02  0.00000000000E+00 0.  1.
         21    1    1    2  503  502  0.18699184826E+02  0.27754224820E+02 -0.55926948557E+02  0.65174995845E+02  0.00000000000E+00 0.  1.
         21    1    1    2  504  501 -0.18699184826E+02 -0.27754224820E+02  0.14684461834E+02  0.36545723797E+02  0.00000000000E+00 0.  1.
</event>
<event>
 4    1  0.1725802E+006  0.5732777E+02  0.7546771E-02  0.1269192E+00
         21   -1    0    0  504  501  0.00000000000E+00  0.00000000000E+00  0.17152290462E+03  0.17152290462E+03  0.00000000000E+00 0.  1.
         21   -1    0    0  503  502 -0.00000000000E+00 -0.00000000000E+00 -0.19439008113E+02  0.19439008113E+02  0.00000000000E+00 0.  1.
         21    1    1    2  503  501  0.56589846346E+02 -0.91685691553E+01  0.64614248267E+02  0.86379826632E+02  0.00000000000E+00 0.  1.
         21    1    1    2  504  502 -0.56589846346E+02  0.91685691553E+01  0.87469648242E+02  0.10458208610E+03  0.00000000000E+00 0.  1.
</event>
<event>
 4    1  0.1725802E+006  0.3923096E+02  0.7546771E-02  0.1353052E+00
         21   -1    0    0  502  501  0.00000000000E+00  0.00000000000E+00  0.13577205954E+04  0.13577205954E+04  0.00000000000E+00 0. -1.
         21   -1    0    0  504  502 -0.00000000000E+00 -0.00000000000E+00 -0.13091979706E+01  0.13091979706E+01  0.00000000000E+00 0. -1.
         21    1    1    2  503  501  0.14612698408E+02 -0.36407930834E+02  0.92708905277E+03  0.92791873575E+03  0.00000000000E+00 0. -1.
         21    1    1    2  504  503 -0.14612698408E+02  0.36407930834E+02  0.42932234463E+03  0.43111105760E+03  0.00000000000E+00 0. -1.
</event>
<event>
 4    1  0.1725802E+006  0.3521831E+02  0.7546771E-02  0.1379035E+00
         21   -1    0    0  502  501  0.00000000000E+00  0.00000000000E+00  0.18310849224E+02  0.18310849224E+02  0.00000000000E+00 0. -1.
         21   -1    0    0  503  502 -0.00000000000E+00 -0.00000000000E+00 -0.67954691460E+02  0.67954691460E+02  0.00000000000E+00 0. -1.
         21    1    1    2  503  504 -0.22280500585E+02  0.27274688694E+02 -0.27260951685E+02  0.44536376552E+02  0.00000000000E+00 0. -1.
         21    1    1    2  504  501  0.22280500585E+02 -0.27274688694E+02 -0.22382890552E+02  0.41729164132E+02  0.00000000000E+00 0. -1.
</event>
<event>
 4    1  0.1725802E+006  0.2080753E+02  0.7546771E-02  0.1522031E+00
         21   -1    0    0  502  501  0.00000000000E+00  0.00000000000E+00  0.21224773766E+03  0.21224773766E+03  0.00000000000E+00 0.  1.
         21   -1    0    0  503  502 -0.00000000000E+00 -0.00000000000E+00 -0.23165134485E+01  0.23165134485E+01  0.00000000000E+00 0.  1.
         21    1    1    2  503  504  0.20794685510E+02  0.73096270070E+00  0.67890118379E+02  0.71007192773E+02  0.00000000000E+00 0.  1.
         21    1    1    2  504  501 -0.20794685510E+02 -0.73096270070E+00  0.14204110583E+03  0.14355705834E+03  0.00000000000E+00 0.  1.
</event>
<event>
 4    1  0.1725802E+006  0.2066587E+02  0.7546771E-02  0.1524089E+00
         21   -1    0    0  503  501  0.00000000000E+00  0.00000000000E+00  0.16832821303E+03  0.16832821303E+03  0.00000000000E+00 0. -1.
         21   -1    0    0  501  502 -0.00000000000E+00 -0.00000000000E+00 -0.18108303692E+02  0.18108303692E+02  0.00000000000E+00 0.  1.
         21    1    1    2  503  504 -0.74783134089E+01  0.19265330836E+02  0.16155142513E+03  0.16286786394E+03  0.00000000000E+00 0. -1.
         21    1    1    2  504  502  0.74783134089E+01 -0.19265330836E+02 -0.11331515793E+02  0.23568652779E+02  0.00000000000E+00 0.  1.
</event>
<event>
 4    1  0.1725802E+006  0.2005527E+02  0.7546771E-02  0.1533192E+00
         21   -1    0    0  503  501  0.00000000000E+00  0.00000000000E+00  0.13735281228E+03  0.13735281228E+03  0.00000000000E+00 0.  1.
         21   -1    0    0  501  502 -0.00000000000E+00 -0.00000000000E+00 -0.73358096324E+01  0.73358096324E+01  0.00000000000E+00 0.  1.
         21    1    1    2  503  504 -0.11283759690E+02 -0.16579828452E+02  0.12108432541E+03  0.12273397168E+03  0.00000000000E+00 0.  1.
         21    1    1    2  504  502  0.11283759690E+02  0.16579828452E+02  0.89326772381E+01  0.21954650233E+02  0.00000000000E+00 0.  1.
</event>
<event>
 4    1  0.1725802E+006  0.4217178E+02  0.7546771E-02  0.1336209E+00
         21   -1    0    0  504  501  0.00000000000E+00  0.00000000000E+00  0.56543236815E+01  0.56543236815E+01  0.00000000000E+00 0. -1.
         21   -1    0    0  503  502 -0.00000000000E+00 -0.00000000000E+00 -0.35967802820E+03  0.35967802820E+03  0.00000000000E+00 0. -1.
         21    1    1    2  503  501 -0.20760660977E+02 -0.36707684151E+02 -0.11229511929E+03  0.11995271125E+03  0.00000000000E+00 0. -1.
         21    1    1    2  504  502  0.20760660977E+02  0.36707684151E+02 -0.24172858522E+03  0.24537964063E+03  0.00000000000E+00 0. -1.
</event>
<event>
 4    1  0.1725802E+006  0.2266269E+02  0.7546771E-02  0.1496778E+00
         21   -1    0    0  503  501  0.00000000000E+00  0.00000000000E+00  0.21312933091E+01  0.21312933091E+01  0.00000000000E+00 0.  1.
         21   -1    0    0  504  502 -0.00000000000E+00 -0.00000000000E+00 -0.75168619436E+03  0.75168619436E+03  0.00000000000E+00 0.  1.
         21    1    1    2  503  502  0.89973095012E+01  0.20800139135E+02 -0.68545067619E+03  0.68582521597E+03  0.00000000000E+00 0.  1.
         21    1    1    2  504  501 -0.89973095012E+01 -0.20800139135E+02 -0.64104224864E+02  0.67992271706E+02  0.00000000000E+00 0.  1.
</event>
<event>
 4    1  0.1725802E+006  0.2359926E+02  0.7546771E-02  0.1485107E+00
         21   -1    0    0  504  501  0.00000000000E+00  0.00000000000E+00  0.19734317072E+02  0.19734317072E+02  0.00000000000E+00 0.  1.
         21   -1    0    0  503  502 -0.00000000000E+00 -0.00000000000E+00 -0.48840282051E+03  0.48840282051E+03  0.00000000000E+00 0.  1.
         21    1    1    2  503  501 -0.14498185328E+02  0.18620628387E+02  0.12284739105E+02  0.26605262528E+02  0.00000000000E+00 0.  1.
         21    1    1    2  504  502  0.14498185328E+02 -0.18620628387E+02 -0.48095324254E+03  0.48153187505E+03  0.00000000000E+00 0.  1.
</event>
<event>
 4    1  0.1725802E+006  0.4978214E+02  0.7546771E-02  0.1299120E+00
         21   -1    0    0  504  501  0.00000000000E+00  0.00000000000E+00  0.11755250183E+03  0.11755250183E+03  0.00000000000E+00 0.  1.
         21   -1    0    0  503  502 -0.00000000000E+00 -0.00000000000E+00 -0.26145276139E+02  0.26145276139E+02  0.00000000000E+00 0.  1.
         21    1    1    2  503  501  0.20365638256E+02 -0.45425788303E+02  0.77321444934E+02  0.91961227217E+02  0.00000000000E+00 0.  1.
         21    1    1    2  504  502 -0.20365638256E+02  0.45425788303E+02  0.14085780762E+02  0.51736550756E+02  0.00000000000E+00 0.  1.
</event>
<event>
 4    1  0.1725802E+006  0.2832269E+02  0.7546771E-02  0.1434755E+00
         21   -1    0    0  504  501  0.00000000000E+00  0.00000000000E+00  0.72531072203E+02  0.72531072203E+02  0.00000000000E+00 0. -1.
         21   -1    0    0  503  502 -0.00000000000E+00 -0.00000000000E+00 -0.12338668157E+02  0.12338668157E+02  0.00000000000E+00 0. -1.
         21    1    1    2  503  501 -0.70142547633E+01  0.27440394899E+02  0.16434297542E+02  0.32745399338E+02  0.00000000000E+00 0. -1.
         21    1    1    2  504  502  0.70142547633E+01 -0.27440394899E+02  0.43758106504E+02  0.52124341022E+02  0.00000000000E+00 0. -1.
</event>
<event>
 4    1  0.1725802E+006  0.3755460E+02  0.7546771E-02  0.1363444E+00
         21   -1    0    0  504  501  0.00000000000E+00  0.00000000000E+00  0.58007527222E+02  0.58007527222E+02  0.00000000000E+00 0.  1.
         21   -1    0    0  503  502 -0.00000000000E+00 -0.00000000000E+00 -0.74778978068E+02  0.74778978068E+02  0.00000000000E+00 0. -1.
         21    1    1    2  503  501  0.34470768246E+02  0.14903496164E+02  0.46156481933E+02  0.59504360225E+02  0.00000000000E+00 0.  1.
         21    1    1    2  504  502 -0.34470768246E+02 -0.14903496164E+02 -0.62927932779E+02  0.73282145064E+02  0.00000000000E+00 0. -1.
</event>
<event>
 4    1  0.1725802E+006  0.2540268E+02  0.7546771E-02  0.1464349E+00
         21   -1    0    0  502  501  0.00000000000E+00  0.00000000000E+00  0.23615453330E+02  0.23615453330E+02  0.00000000000E+00 0. -1.
         21   -1    0    0  503  502 -0.00000000000E+00 -0.00000000000E+00 -0.52873014239E+02  0.52873014239E+02  0.00000000000E+00 0. -1.
         21    1    1    2  503  504  0.18123437362E+02 -0.17799914436E+02 -0.41213138777E+02  0.48413001803E+02  0.00000000000E+00 0. -1.
         21    1    1    2  504  501 -0.18123437362E+02  0.17799914436E+02  0.11955577868E+02  0.28075465765E+02  0.00000000000E+00 0. -1.
</event>
<event>
 4    1  0.1725802E+006  0.4225999E+02  0.7546771E-02  0.1335728E+00
         21   -1    0    0  503  501  0.00000000000E+00  0.00000000000E+00  0.11591407288E+02  0.11591407288E+02  0.00000000000E+00 0. -1.
         21   -1    0    0  504  502 -0.00000000000E+00 -0.00000000000E+00 -0.17506945404E+04  0.17506945404E+04  0.00000000000E+00 0.  1.
         21    1    1    2  503  502 -0.17847769542E+02  0.38306184951E+02 -0.17110288111E+04  0.17115506125E+04  0.00000000000E+00 0.  1.
         21    1    1    2  504  501  0.17847769542E+02 -0.38306184951E+02 -0.28074322041E+02  0.50735335233E+02  0.00000000000E+00 0. -1.
</event>
<event>
 4    1  0.1725802E+006  0.2487857E+02  0.7546771E-02  0.1470166E+00
         21   -1    0    0  504  501  0.00000000000E+00  0.00000000000E+00  0.47430940995E+02  0.47430940995E+02  0.00000000000E+00 0.  1.
         21   -1    0    0  503  502 -0.00000000000E+00 -0.00000000000E+00 -0.20676336347E+02  0.20676336347E+02  0.00000000000E+00 0.  1.
         21    1    1    2  503  501 -0.16497476430E+02 -0.18621942851E+02  0.34059795668E+02  0.42178349482E+02  0.00000000000E+00 0.  1.
         21    1    1    2  504  502  0.16497476430E+02  0.18621942851E+02 -0.73051910203E+01  0.25928927859E+02  0.00000000000E+00 0.  1.
</event>
<event>
 4    1  0.1725802E+006  0.5272533E+02  0.7546771E-02  0.1286770E+00
         21   -1    0    0  503  501  0.00000000000E+00  0.00000000000E+00  0.13398729861E+03  0.13398729861E+03  0.00000000000E+00 0. -1.
         21   -1    0    0  504  502 -0.00000000000E+00 -0.00000000000E+00 -0.35312615523E+03  0.35312615523E+03  0.00000000000E+00 0. -1.
         21    1    1    2  503  502 -0.52617789589E+02  0.33658182933E+01 -0.34586275762E+03  0.34985855374E+03  0.00000000000E+00 0. -1.
         21    1    1    2  504  501  0.52617789589E+02 -0.33658182933E+01  0.12672390101E+03  0.13725490010E+03  0.00000000000E+00 0. -1.
</event>
<event>
 4    1  0.1725802E+006  0.2895945E+02  0.7546771E-02  0.1428859E+00
         21   -1    0    0  504  501  0.00000000000E+00  0.00000000000E+00  0.36265961327E+03  0.36265961327E+03  0.00000000000E+00 0.  1.
         21   -1    0    0  503  502 -0.00000000000E+00 -0.00000000000E+00 -0.41148466532E+01  0.41148466532E+01  0.00000000000E+00 0.  1.
         21    1    1    2  503  501  0.28912581984E+02 -0.16468873769E+01  0.30064247071E+03  0.30203401270E+03  0.00000000000E+00 0.  1.
         21    1    1    2  504  502 -0.28912581984E+02  0.16468873769E+01  0.57902295912E+02  0.64740447225E+02  0.00000000000E+00 0.  1.
</event>
<event>
 4    1  0.1725802E+006  0.2203940E+02  0.7546771E-02  0.1504926E+00
         21   -1    0    0  502  501  0.00000000000E+00  0.00000000000E+00  0.25764152753E+02  0.25764152753E+02  0.00000000000E+00 0. -1.
         21   -1    0    0  503  502 -0.00000000000E+00 -0.00000000000E+00 -0.28524984434E+02  0.28524984434E+02  0.00000000000E+00 0. -1.
         21    1    1    2  503  504 -0.79860435214E-01 -0.22039254216E+02 -0.17186524100E+02  0.27948375887E+02  0.00000000000E+00 0. -1.
         21    1    1    2  504  501  0.79860435214E-01  0.22039254216E+02  0.14425692419E+02  0.26340761300E+02  0.00000000000E+00 0. -1.
</event>
<event>
 4    1  0.1725802E+006  0.2863284E+02  0.7546771E-02  0.1431861E+00
         21   -1    0    0  504  501  0.00000000000E+00  0.00000000000E+00  0.12902669684E+03  0.12902669684E+03  0.00000000000E+00 0.  1.
         21   -1    0    0  503  502 -0.00000000000E+00 -0.00000000000E+00 -0.12680655073E+03  0.12680655073E+03  0.00000000000E+00 0.  1.
         21    1    1    2  503  501 -0.23368549114E+02  0.16545407907E+02  0.12578068420E+03  0.12899852763E+03  0.00000000000E+00 0.  1.
         21    1    1    2  504  502  0.23368549114E+02 -0.16545407907E+02 -0.12356053809E+03  0.12683471995E+03  0.00000000000E+00 0.  1.
</event>
<event>
 4    1  0.1725802E+006  0.7300534E+02  0.7546771E-02  0.1221089E+00
         21   -1    0    0  504  501  0.00000000000E+00  0.00000000000E+00  0.22598174012E+02  0.22598174012E+02  0.00000000000E+00 0.  1.
         21   -1    0    0  503  502 -0.00000000000E+00 -0.00000000000E+00 -0.44875168484E+03  0.44875168484E+03  0.00000000000E+00 0.  1.
         21    1    1    2  503  501 -0.45472263077E+02 -0.57114387101E+02 -0.50746354035E+02  0.88909911546E+02  0.00000000000E+00 0.  1.
         21    1    1    2  504  502  0.45472263077E+02  0.57114387101E+02 -0.37540715679E+03  0.38243994731E+03  0.00000000000E+00 0.  1.
</event>
<event>
 4    1  0.1725802E+006  0.2506637E+02  0.7546771E-02  0.1468062E+00
         21   -1    0    0  503  501  0.00000000000E+00  0.00000000000E+00  0.38564417370E+01  0.38564417370E+01  0.00000000000E+00 0.  1.
         21   -1    0    0  504  502 -0.00000000000E+00 -0.00000000000E+00 -0.31734432034E+03  0.31734432034E+03  0.00000000000E+00 0. -1.
         21    1    1    2  503  502  0.24991663598E+02 -0.19338412164E+01 -0.44715685076E+02  0.51262222767E+02  0.00000000000E+00 0.  1.
         21    1    1    2  504  501 -0.24991663598E+02  0.19338412164E+01 -0.26877219353E+03  0.26993853931E+03  0.00000000000E+00 0. -1.
</event>
<event>
 4    1  0.1725802E+006  0.4145920E+02  0.7546771E-02  0.1340141E+00
         21   -1    0    0  504  501  0.00000000000E+00  0.00000000000E+00  0.49416940859E+02  0.49416940859E+02  0.00000000000E+00 0.  1.
         21   -1    0    0  503  502 -0.00000000000E+00 -0.00000000000E+00 -0.26986961386E+03  0.26986961386E+03  0.00000000000E+00 0.  1.
         21    1    1    2  503  501 -0.97088585511E+01 -0.40306372804E+02 -0.25922681496E+03  0.26252125098E+03  0.00000000000E+00 0.  1.
         21    1    1    2  504  502  0.97088585511E+01  0.40306372804E+02  0.38774141963E+02  0.56765303733E+02  0.00000000000E+00 0.  1.
</event>
<event>
 4    1  0.1725802E+006  0.2402340E+02  0.7546771E-02  0.1480032E+00
         21   -1    0    0  502  501  0.00000000000E+00  0.00000000000E+00  0.44188137568E+03  0.44188137568E+03  0.00000000000E+00 0. -1.
         21   -1    0    0  503  502 -0.00000000000E+00 -0.00000000000E+00 -0.28237259453E+02  0.28237259453E+02  0.00000000000E+00 0.  1.
         21    1    1    2  503  504 -0.19705332371E+02 -0.13741310652E+02 -0.22736793867E+02  0.33076963851E+02  0.00000000000E+00 0.  1.
         21    1    1    2  504  501  0.19705332371E+02  0.13741310652E+02  0.43638091010E+03  0.43704167129E+03  0.00000000000E+00 0. -1.
</event>
<event>
 4    1  0.1725802E+006  0.2201617E+02  0.7546771E-02  0.1505236E+00
         21   -1    0    0  503  501  0.00000000000E+00  0.00000000000E+00  0.24747526771E+03  0.24747526771E+03  0.00000000000E+00 0.  1.
         21   -1    0    0  504  502 -0.00000000000E+00 -0.00000000000E+00 -0.13377735852E+02  0.13377735852E+02  0.00000000000E+00 0. -1.
         21    1    1    2  503  502 -0.13971738251E+02  0.17014767171E+02  0.23754976342E+03  0.23856781399E+03  0.00000000000E+00 0.  1.
         21    1    1    2  504  501  0.13971738251E+02 -0.17014767171E+02 -0.34522315589E+01  0.22285189575E+02  0.00000000000E+00 0. -1.
</event>
<event>
 4    1  0.1725802E+006  0.2658359E+02  0.7546771E-02  0.1451836E+00
         21   -1    0    0  504  501  0.00000000000E+00  0.00000000000E+00  0.28875932769E+02  0.28875932769E+02  0.00000000000E+00 0.  1.
         21   -1    0    0  501  502 -0.00000000000E+00 -0.00000000000E+00 -0.24943393555E+02  0.24943393555E+02  0.00000000000E+00 0.  1.
         21    1    1    2  503  502 -0.14414015782E+02  0.22336591388E+02  0.56607879321E+01  0.27179618942E+02  0.00000000000E+00 0.  1.
         21    1    1    2  504  503  0.14414015782E+02 -0.22336591388E+02 -0.17282487178E+01  0.26639707383E+02  0.00000000000E+00 0.  1.
</event>
<event>
 4    1  0.1725802E+006  0.2041806E+02  0.7546771E-02  0.1527738E+00
         21   -1    0    0  503  501  0.00000000000E+00  0.00000000000E+00  0.44347884650E+03  0.44347884650E+03  0.00000000000E+00 0.  1.
         21   -1    0    0  504  502 -0.00000000000E+00 -0.00000000000E+00 -0.21785359356E+03  0.21785359356E+03  0.00000000000E+00 0.  1.
         21    1    1    2  503  502  0.14800100268E+02  0.14066061434E+02 -0.21713939283E+03  0.21809725576E+03  0.00000000000E+00 0.  1.
         21    1    1    2  504  501 -0.14800100268E+02 -0.14066061434E+02  0.44276464577E+03  0.44323518429E+03  0.00000000000E+00 0.  1.
</event>
<event>
 4    1  0.1725802E+006  0.2109690E+02  0.7546771E-02  0.1517886E+00
         21   -1    0    0  504  501  0.00000000000E+00  0.00000000000E+00  0.61736184897E+03  0.61736184897E+03  0.00000000000E+00 0.  1.
         21   -1    0    0  503  502 -0.00000000000E+00 -0.00000000000E+00 -0.82325849314E+00  0.82325849314E+00  0.00000000000E+00 0.  1.
         21    1    1    2  503  501 -0.16321193247E+02 -0.13367793118E+02  0.19930027813E+03  0.20041377224E+03  0.00000000000E+00 0.  1.
         21    1    1    2  504  502  0.16321193247E+02  0.13367793118E+02  0.41723831235E+03  0.41777133522E+03  0.00000000000E+00 0.  1.
</event>
<event>
 4    1  0.1725802E+006  0.2697402E+02  0.7546771E-02  0.1447869E+00
         21   -1    0    0  503  501  0.00000000000E+00  0.00000000000E+00  0.56062340065E+02  0.56062340065E+02  0.00000000000E+00 0.  1.
         21   -1    0    0  504  502 -0.00000000000E+00 -0.00000000000E+00 -0.13091364701E+02  0.13091364701E+02  0.00000000000E+00 0. -1.
         21    1    1    2  503  502 -0.54343991996E+01  0.26420916327E+02  0.24697902132E+02  0.36572993915E+02  0.00000000000E+00 0.  1.
         21    1    1    2  504  501  0.54343991996E+01 -0.26420916327E+02  0.18273073231E+02  0.32580710851E+02  0.00000000000E+00 0. -1.
</event>
<event>
 4    1  0.1725802E+006  0.2390285E+02  0.7546771E-02  0.1481462E+00
         21   -1    0    0  502  501  0.00000000000E+00  0.00000000000E+00  0.10327958663E+01  0.10327958663E+01  0.00000000000E+00 0.  1.
         21   -1    0    0  503  502 -0.00000000000E+00 -0.00000000000E+00 -0.67277602742E+03  0.67277602742E+03  0.00000000000E+00 0.  1.
         21    1    1    2  503  504 -0.72913822076E+01  0.22763609962E+02 -0.47790397975E+03  0.47850136892E+03  0.00000000000E+00 0.  1.
         21    1    1    2  504  501  0.72913822076E+01 -0.22763609962E+02 -0.19383925181E+03  0.19530745437E+03  0.00000000000E+00 0.  1.
</event>
<event>
 4    1  0.1725802E+006  0.4172540E+02  0.7546771E-02  0.1338661E+00
         21   -1    0    0  503  501  0.00000000000E+00  0.00000000000E+00  0.11318749951E+03  0.11318749951E+03  0.00000000000E+00 0.  1.
         21   -1    0    0  504  502 -0.00000000000E+00 -0.00000000000E+00 -0.25437343591E+02  0.25437343591E+02  0.00000000000E+00 0. -1.
         21    1    1    2  503  502  0.12764749932E+02 -0.39724926167E+02  0.29564526426E+00  0.41726442527E+02  0.00000000000E+00 0. -1.
         21    1    1    2  504  501 -0.12764749932E+02  0.39724926167E+02  0.87454510652E+02  0.96898400571E+02  0.00000000000E+00 0.  1.
</event>
<event>
 4    1  0.1725802E+006  0.3454673E+02  0.7546771E-02  0.1383778E+00
         21   -1    0    0  503  501  0.00000000000E+00  0.00000000000E+00  0.32126699742E+02  0.32126699742E+02  0.00000000000E+00 0.  1.
         21   -1    0    0  504  502 -0.00000000000E+00 -0.00000000000E+00 -0.88970039038E+02  0.88970039038E+02  0.00000000000E+00 0. -1.
         21    1    1    2  503  502 -0.33436197867E+02  0.86888997557E+01  0.17788059066E+02  0.38857320444E+02  0.00000000000E+00 0.  1.
         21    1    1    2  504  501  0.33436197867E+02 -0.86888997557E+01 -0.74631398363E+02  0.82239418336E+02  0.00000000000E+00 0. -1.
</event>
<event>
 4    1  0.1725802E+006  0.2411308E+02  0.7546771E-02  0.1478975E+00
         21   -1    0    0  502  501  0.00000000000E+00  0.00000000000E+00  0.13393312247E+01  0.13393312247E+01  0.00000000000E+00 0.  1.
         21   -1    0    0  503  502 -0.00000000000E+00 -0.00000000000E+00 -0.62764705563E+03  0.62764705563E+03  0.00000000000E+00 0.  1.
         21    1    1    2  503  504  0.10434029223E+02 -0.21738711065E+02 -0.48778268429E+03  0.48837832427E+03  0.00000000000E+00 0.  1.
         21    1    1    2  504  501 -0.10434029223E+02  0.21738711065E+02 -0.13852504012E+03  0.14060806259E+03  0.00000000000E+00 0.  1.
</event>
<event>
 4    1  0.1725802E+006  0.2513649E+02  0.7546771E-02  0.1467282E+00
         21   -1    0    0  503  501  0.00000000000E+00  0.00000000000E+00  0.40026644103E+02  0.40026644103E+02  0.00000000000E+00 0. -1.
         21   -1    0    0  501  502 -0.00000000000E+00 -0.00000000000E+00 -0.81186385005E+02  0.81186385005E+02  0.00000000000E+00 0. -1.
         21    1    1    2  503  504 -0.14446420451E+02  0.20570464559E+02  0.33816423647E+02  0.42135419594E+02  0.00000000000E+00 0. -1.
         21    1    1    2  504  502  0.14446420451E+02 -0.20570464559E+02 -0.74976164549E+02  0.79077609514E+02  0.00000000000E+00 0. -1.
</event>
<event>
 4    1  0.1725802E+006  0.2236504E+02  0.7546771E-02  0.1500629E+00
         21   -1    0    0  502  501  0.00000000000E+00  0.00000000000E+00  0.40319468967E+03  0.40319468967E+03  0.00000000000E+00 0. -1.
         21   -1    0    0  503  502 -0.00000000000E+00 -0.00000000000E+00 -0.35217107408E+02  0.35217107408E+02  0.00000000000E+00 0.  1.
         21    1    1    2  503  504  0.22306266836E+02 -0.16202966854E+01 -0.31321553381E+02  0.38486810829E+02  0.00000000000E+00 0.  1.
         21    1    1    2  504  501 -0.22306266836E+02  0.16202966854E+01  0.39929913564E+03  0.39992498625E+03  0.00000000000E+00 0. -1.
</event>
<event>
 4    1  0.1725802E+006  0.2580654E+02  0.7546771E-02  0.1459979E+00
         21   -1    0    0  504  501  0.00000000000E+00  0.00000000000E+00  0.29936517056E+02  0.29936517056E+02  0.00000000000E+00 0. -1.
         21   -1    0    0  503  502 -0.00000000000E+00 -0.00000000000E+00 -0.24586120713E+02  0.24586120713E+02  0.00000000000E+00 0. -1.
         21    1    1    2  503  501 -0.21636768080E+02 -0.14065126524E+02 -0.57347000081E+01  0.26436041710E+02  0.00000000000E+00 0. -1.
         21    1    1    2  504  502  0.21636768080E+02  0.14065126524E+02  0.11085096351E+02  0.28086596059E+02  0.00000000000E+00 0. -1.
</event>
<event>
 4    1  0.1725802E+006  0.2045202E+02  0.7546771E-02  0.1527234E+00
         21   -1    0    0  504  501  0.00000000000E+00  0.00000000000E+00  0.10988563985E+01  0.10988563985E+01  0.00000000000E+00 0.  1.
         21   -1    0    0  503  502 -0.00000000000E+00 -0.00000000000E+00 -0.53598331037E+03  0.53598331037E+03  0.00000000000E+00 0. -1.
         21    1    1    2  503  501 -0.19650330342E+02 -0.56700810041E+01 -0.41200626190E+03  0.41251356965E+03  0.00000000000E+00 0. -1.
         21    1    1    2  504  502  0.19650330342E+02  0.56700810041E+01 -0.12287819207E+03  0.12456859712E+03  0.00000000000E+00 0.  1.
</event>
<event>
 4    1  0.1725802E+006  0.2270243E+02  0.7546771E-02  0.1496269E+00
         21   -1    0    0  503  501  0.00000000000E+00  0.00000000000E+00  0.54437852901E+01  0.54437852901E+01  0.00000000000E+00 0. -1.
         21   -1    0    0  501  502 -0.00000000000E+00 -0.00000000000E+00 -0.11689792269E+04  0.11689792269E+04  0.00000000000E+00 0. -1.
         21    1    1    2  503  504 -0.41765233165E+00 -0.22698585971E+02 -0.18837666537E+02  0.29500134222E+02  0.00000000000E+00 0. -1.
         21    1    1    2  504  502  0.41765233165E+00  0.22698585971E+02 -0.11446977751E+04  0.11449228780E+04  0.00000000000E+00 0. -1.
</event>
<event>
 4    1  0.1725802E+006  0.2027135E+02  0.7546771E-02  0.1529927E+00
         21   -1    0    0  503  501  0.00000000000E+00  0.00000000000E+00  0.13458373337E+01  0.13458373337E+01  0.00000000000E+00 0. -1.
         21   -1    0    0  504  502 -0.00000000000E+00 -0.00000000000E+00 -0.30548672867E+03  0.30548672867E+03  0.00000000000E+00 0. -1.
         21    1    1    2  503  502 -0.15967863720E+02 -0.12488187772E+02 -0.15552066537E+03  0.15683623581E+03  0.00000000000E+00 0. -1.
         21    1    1    2  504  501  0.15967863720E+02  0.12488187772E+02 -0.14862022597E+03  0.14999633020E+03  0.00000000000E+00 0. -1.
</event>
<event>
 4    1  0.1725802E+006  0.3931076E+02  0.7546771E-02  0.1352573E+00
         21   -1    0    0  503  501  0.00000000000E+00  0.00000000000E+00  0.34654945545E+03  0.34654945545E+03  0.00000000000E+00 0. -1.
         21   -1    0    0  504  502 -0.00000000000E+00 -0.00000000000E+00 -0.13951702801E+03  0.13951702801E+03  0.00000000000E+00 0.  1.
         21    1    1    2  503  502  0.26787697039E+02 -0.28770731296E+02 -0.13560160552E+03  0.14118474107E+03  0.00000000000E+00 0.  1.
         21    1    1    2  504  501 -0.26787697039E+02  0.28770731296E+02  0.34263403296E+03  0.34488174239E+03  0.00000000000E+00 0. -1.
</event>
<event>
 4    1  0.1725802E+006  0.2525047E+02  0.7546771E-02  0.1466021E+00
         21   -1    0    0  503  501  0.00000000000E+00  0.00000000000E+00  0.44287693407E+01  0.44287693407E+01  0.00000000000E+00 0. -1.
         21   -1    0    0  504  502 -0.00000000000E+00 -0.00000000000E+00 -0.16759872932E+03  0.16759872932E+03  0.00000000000E+00 0. -1.
         21    1    1    2  503  502 -0.19883618496E+02 -0.15563670450E+02 -0.49285012757E+02  0.55376877890E+02  0.00000000000E+00 0. -1.
         21    1    1    2  504  501  0.19883618496E+02  0.15563670450E+02 -0.11388494723E+03  0.11665062077E+03  0.00000000000E+00 0. -1.
</event>
<event>
 4    1  0.1725802E+006  0.2604213E+02  0.7546771E-02  0.1457475E+00
         21   -1    0    0  503  501  0.00000000000E+00  0.00000000000E+00  0.54343619994E+02  0.54343619994E+02  0.00000000000E+00 0. -1.
         21   -1    0    0  504  502 -0.00000000000E+00 -0.00000000000E+00 -0.15980489260E+03  0.15980489260E+03  0.00000000000E+00 0. -1.
         21    1    1    2  503  502  0.23823429099E+02  0.10518404327E+02  0.50077745924E+02  0.56444426124E+02  0.00000000000E+00 0. -1.
         21    1    1    2  504  501 -0.23823429099E+02 -0.10518404327E+02 -0.15553901853E+03  0.15770408647E+03  0.00000000000E+00 0. -1.
</event>
<event>
 4    1  0.1725802E+006  0.2162473E+02  0.7546771E-02  0.1510529E+00
         21   -1    0    0  502  501  0.00000000000E+00  0.00000000000E+00  0.12687922755E+04  0.12687922755E+04  0.00000000000E+00 0.  1.
         21   -1    0    0  504  502 -0.00000000000E+00 -0.00000000000E+00 -0.38201922194E+00  0.38201922194E+00  0.00000000000E+00 0. -1.
         21    1    1    2  503  501  0.15216154737E+02 -0.15365468128E+02  0.75330788923E+03  0.75361820901E+03  0.00000000000E+00 0.  1.
         21    1    1    2  504  503 -0.15216154737E+02  0.15365468128E+02  0.51510236708E+03  0.51555608574E+03  0.00000000000E+00 0. -1.
</event>
<event>
 4    1  0.1725802E+006  0.8198310E+02  0.7546771E-02  0.1199317E+00
         21   -1    0    0  504  501  0.00000000000E+00  0.00000000000E+00  0.18685162745E+02  0.18685162745E+02  0.00000000000E+00 0. -1.
         21   -1    0    0  501  502 -0.00000000000E+00 -0.00000000000E+00 -0.68515021417E+03  0.68515021417E+03  0.00000000000E+00 0. -1.
         21    1    1    2  503  502 -0.79922039330E+02  0.18267340589E+02 -0.57577300247E+03  0.58158041445E+03  0.00000000000E+00 0. -1.
         21    1    1    2  504  503  0.79922039330E+02 -0.18267340589E+02 -0.90692048956E+02  0.12225496246E+03  0.00000000000E+00 0. -1.
</event>
<event>
 4    1  0.1725802E+006  0.3145805E+02  0.7546771E-02  0.1407335E+00
         21   -1    0    0  502  501  0.00000000000E+00  0.00000000000E+00  0.71711290159E+01  0.71711290159E+01  0.00000000000E+00 0. -1.
         21   -1    0    0  503  502 -0.00000000000E+00 -0.00000000000E+00 -0.15526972230E+03  0.15526972230E+03  0.00000000000E+00 0.  1.
         21    1    1    2  503  504  0.27968546379E+02 -0.14400330404E+02 -0.10113725673E+03  0.10591673051E+03  0.00000000000E+00 0.  1.
         21    1    1    2  504  501 -0.27968546379E+02  0.14400330404E+02 -0.46961336553E+02  0.56524120809E+02  0.00000000000E+00 0. -1.
</event>
<event>
 4    1  0.1725802E+006  0.2112978E+02  0.7546771E-02  0.1517420E+00
         21   -1    0    0  503  501  0.00000000000E+00  0.00000000000E+00  0.66519486711E+02  0.66519486711E+02  0.00000000000E+00 0. -1.
         21   -1    0    0  501  502 -0.00000000000E+00 -0.00000000000E+00 -0.16842630222E+02  0.16842630222E+02  0.00000000000E+00 0.  1.
         21    1    1    2  503  504  0.14006971042E+02 -0.15820000781E+02  0.57164698622E+02  0.60944814636E+02  0.00000000000E+00 0. -1.
         21    1    1    2  504  502 -0.14006971042E+02  0.15820000781E+02 -0.74878421323E+01  0.22417302297E+02  0.00000000000E+00 0.  1.
</event>
<event>
 4    1  0.1725802E+006  0.3238544E+02  0.7546771E-02  0.1399939E+00
         21   -1    0    0  502  501  0.00000000000E+00  0.00000000000E+00  0.33081742669E+01  0.33081742669E+01  0.00000000000E+00 0. -1.
         21   -1    0    0  503  502 -0.00000000000E+00 -0.00000000000E+00 -0.39984609003E+03  0.39984609003E+03  0.00000000000E+00 0.  1.
         21    1    1    2  503  504  0.30112453193E+02  0.11918774263E+02 -0.29000313478E+03  0.29180581763E+03  0.00000000000E+00 0.  1.
         21    1    1    2  504  501 -0.30112453193E+02 -0.11918774263E+02 -0.10653478098E+03  0.11134844667E+03  0.00000000000E+00 0. -1.
</event>
<event>
 4    1  0.1725802E+006  0.2182803E+02  0.7546771E-02  0.1507763E+00
         21   -1    0    0  503  501  0.00000000000E+00  0.00000000000E+00  0.20622370179E+02  0.20622370179E+02  0.00000000000E+00 0.  1.
         21   -1    0    0  504  502 -0.00000000000E+00 -0.00000000000E+00 -0.23946765261E+02  0.23946765261E+02  0.00000000000E+00 0.  1.
         21    1    1    2  503  502  0.19021909592E+02  0.10706531042E+02  0.25179246626E+01  0.21972773974E+02  0.00000000000E+00 0.  1.
         21    1    1    2  504  501 -0.19021909592E+02 -0.10706531042E+02 -0.58423197451E+01  0.22596361466E+02  0.00000000000E+00 0.  1.
</event>
<event>
 4    1  0.1725802E+006  0.2586225E+02  0.7546771E-02  0.1459384E+00
         21   -1    0    0  502  501  0.00000000000E+00  0.00000000000E+00  0.32881926048E+02  0.32881926048E+02  0.00000000000E+00 0. -1.
         21   -1    0    0  503  502 -0.00000000000E+00 -0.00000000000E+00 -0.22002797645E+02  0.22002797645E+02  0.00000000000E+00 0. -1.
         21    1    1    2  503  504 -0.42576498209E+01 -0.25509373728E+02 -0.21018679933E+01  0.25947515855E+02  0.00000000000E+00 0. -1.
         21    1    1    2  504  501  0.42576498209E+01  0.25509373728E+02  0.12980996397E+02  0.28937207838E+02  0.00000000000E+00 0. -1.
</event>
<event>
 4    1  0.1725802E+006  0.3478388E+02  0.7546771E-02  0.1382089E+00
         21   -1    0    0  504  501  0.00000000000E+00  0.00000000000E+00  0.41853976454E+02  0.41853976454E+02  0.00000000000E+00 0. -1.
         21   -1    0    0  503  502 -0.00000000000E+00 -0.00000000000E+00 -0.10529646422E+03  0.10529646422E+03  0.00000000000E+00 0. -1.
         21    1    1    2  503  501 -0.33916312548E+02  0.77202143479E+01  0.30945675839E+02  0.46556984648E+02  0.00000000000E+00 0. -1.
         21    1    1    2  504  502  0.33916312548E+02 -0.77202143479E+01 -0.94388163607E+02  0.10059345603E+03  0.00000000000E+00 0. -1.
</event>
<event>
 4    1  0.1725802E+006  0.2329429E+02  0.7546771E-02  0.1488835E+00
         21   -1    0    0  504  501  0.00000000000E+00  0.00000000000E+00  0.83763974266E+01  0.83763974266E+01  0.00000000000E+00 0.  1.
         21   -1    0    0  503  502 -0.00000000000E+00 -0.00000000000E+00 -0.22243542231E+03  0.22243542231E+03  0.00000000000E+00 0. -1.
         21    1    1    2  503  501  0.22985099290E+02 -0.37827248601E+01 -0.20418792362E+03  0.20551236447E+03  0.00000000000E+00 0. -1.
         21    1    1    2  504  502 -0.22985099290E+02  0.37827248601E+01 -0.98711012631E+01  0.25299455269E+02  0.00000000000E+00 0.  1.
</event>
<event>
 4    1  0.1725802E+006  0.2367353E+02  0.7546771E-02  0.1484209E+00
         21   -1    0    0  503  501  0.00000000000E+00  0.00000000000E+00  0.94296822015E+03  0.94296822015E+03  0.00000000000E+00 0.  1.
         21   -1    0    0  504  502 -0.00000000000E+00 -0.00000000000E+00 -0.95553955224E+00  0.95553955224E+00  0.00000000000E+00 0.  1.
         21    1    1    2  503  502  0.23672210157E+02  0.25016297034E+00  0.76118204359E+03  0.76155009001E+03  0.00000000000E+00 0.  1.
         21    1    1    2  504  501 -0.23672210157E+02 -0.25016297034E+00  0.18083063701E+03  0.18237366969E+03  0.00000000000E+00 0.  1.
</event>
<event>
 4    1  0.1725802E+006  0.2140627E+02  0.7546771E-02  0.1513543E+00
         21   -1    0    0  504  501  0.00000000000E+00  0.00000000000E+00  0.21409141239E+02  0.21409141239E+02  0.00000000000E+00 0.  1.
         21   -1    0    0  503  502 -0.00000000000E+00 -0.00000000000E+00 -0.72982996572E+02  0.72982996572E+02  0.00000000000E+00 0. -1.
         21    1    1    2  503  501 -0.18686380963E+02 -0.10442578689E+02  0.13889629219E+02  0.25517642583E+02  0.00000000000E+00 0.  1.
         21    1    1    2  504  502  0.18686380963E+02  0.10442578689E+02 -0.65463484553E+02  0.68874495228E+02  0.00000000000E+00 0. -1.
</event>
<event>
 4    1  0.1725802E+006  0.2331015E+02  0.7546771E-02  0.1488640E+00
         21   -1    0    0  502  501  0.00000000000E+00  0.00000000000E+00  0.56885295489E+02  0.56885295489E+02  0.00000000000E+00 0.  1.
         21   -1    0    0  504  502 -0.00000000000E+00 -0.00000000000E+00 -0.84096262846E+02  0.84096262846E+02  0.00000000000E+00 0.  1.
         21    1    1    2  503  501 -0.20645846719E+02 -0.10821836760E+02  0.52761387179E+02  0.57681254448E+02  0.00000000000E+00 0.  1.
         21    1    1    2  504  503  0.20645846719E+02  0.10821836760E+02 -0.79972354536E+02  0.83300303887E+02  0.00000000000E+00 0.  1.
</event>
<event>
 4    1  0.1725802E+006  0.2503952E+02  0.7546771E-02  0.1468362E+00
         21   -1    0    0  504  501  0.00000000000E+00  0.00000000000E+00  0.26845091820E+02  0.26845091820E+02  0.00000000000E+00 0. -1.
         21   -1    0    0  501  502 -0.00000000000E+00 -0.00000000000E+00 -0.24719015135E+02  0.24719015135E+02  0.00000000000E+00 0. -1.
         21    1    1    2  503  502 -0.24755468083E+02 -0.37609301622E+01 -0.49924363879E+01  0.25532375855E+02  0.00000000000E+00 0. -1.
         21    1    1    2  504  503  0.24755468083E+02  0.37609301622E+01  0.71185130725E+01  0.26031731100E+02  0.00000000000E+00 0. -1.
</event>
<event>
 4    1  0.1725802E+006  0.2052861E+02  0.7546771E-02  0.1526103E+00
         21   -1    0    0  502  501  0.00000000000E+00  0.00000000000E+00  0.10621279974E+03  0.10621279974E+03  0.00000000000E+00 0.  1.
         21   -1    0    0  503  502 -0.00000000000E+00 -0.00000000000E+00 -0.10930630064E+03  0.10930630064E+03  0.00000000000E+00 0.  1.
         21    1    1    2  503  504  0.17413024280E+01 -0.20454630272E+02 -0.10733242897E+03  0.10927796824E+03  0.00000000000E+00 0.  1.
         21    1    1    2  504  501 -0.17413024280E+01  0.20454630272E+02  0.10423892807E+03  0.10624113214E+03  0.00000000000E+00 0.  1.
</event>
<event>
 4    1  0.1725802E+006  0.3479256E+02  0.7546771E-02  0.1382027E+00
         21   -1    0    0  504  501  0.00000000000E+00  0.00000000000E+00  0.15657623218E+03  0.15657623218E+03  0.00000000000E+00 0.  1.
         21   -1    0    0  501  502 -0.00000000000E+00 -0.00000000000E+00 -0.20587862286E+02  0.20587862286E+02  0.00000000000E+00 0.  1.
         21    1    1    2  503  502 -0.19288782021E+02 -0.28956257302E+02 -0.20068123442E+01  0.34850383708E+02  0.00000000000E+00 0.  1.
         21    1    1    2  504  503  0.19288782021E+02  0.28956257302E+02  0.13799518224E+03  0.14231371076E+03  0.00000000000E+00 0.  1.
</event>
<event>
 4    1  0.1725802E+006  0.2955305E+02  0.7546771E-02  0.1423521E+00
         21   -1    0    0  503  501  0.00000000000E+00  0.00000000000E+00  0.91594768957E+01  0.91594768957E+01  0.00000000000E+00 0. -1.
         21   -1    0    0  504  502 -0.00000000000E+00 -0.00000000000E+00 -0.21887014039E+03  0.21887014039E+03  0.00000000000E+00 0. -1.
         21    1    1    2  503  502  0.24410340971E+01 -0.29452065874E+02 -0.19204464198E+02  0.35244776590E+02  0.00000000000E+00 0. -1.
         21    1    1    2  504  501 -0.24410340971E+01  0.29452065874E+02 -0.19050619930E+03  0.19278484069E+03  0.00000000000E+00 0. -1.
</event>
<event>
 4    1  0.1725802E+006  0.2239047E+02  0.7546771E-02  0.1500297E+00
         21   -1    0    0  504  501  0.00000000000E+00  0.00000000000E+00  0.16381516711E+02  0.16381516711E+02  0.00000000000E+00 0.  1.
         21   -1    0    0  503  502 -0.00000000000E+00 -0.00000000000E+00 -0.31002856554E+02  0.31002856554E+02  0.00000000000E+00 0.  1.
         21    1    1    2  503  501 -0.15136069391E+02 -0.16499471552E+02 -0.99993420376E+01  0.24521826997E+02  0.00000000000E+00 0.  1.
         21    1    1    2  504  502  0.15136069391E+02  0.16499471552E+02 -0.46219978061E+01  0.22862546267E+02  0.00000000000E+00 0.  1.
</event>
<event>
 4    1  0.1725802E+006  0.2020388E+02  0.7546771E-02  0.1530942E+00
         21   -1    0    0  504  501  0.00000000000E+00  0.00000000000E+00  0.11289243859E+03  0.11289243859E+03  0.00000000000E+00 0.  1.
         21   -1    0    0  503  502 -0.00000000000E+00 -0.00000000000E+00 -0.45041831086E+01  0.45041831086E+01  0.00000000000E+00 0.  1.
         21    1    1    2  503  501  0.10699982861E+02  0.17137889545E+02  0.28125579883E+02  0.34630118900E+02  0.00000000000E+00 0.  1.
         21    1    1    2  504  502 -0.10699982861E+02 -0.17137889545E+02  0.80262675597E+02  0.82766502797E+02  0.00000000000E+00 0.  1.
</event>
<event>
 4    1  0.1725802E+006  0.2582018E+02  0.7546771E-02  0.1459834E+00
         21   -1    0    0  503  501  0.00000000000E+00  0.00000000000E+00  0.10632658860E+04  0.10632658860E+04  0.00000000000E+00 0.  1.
         21   -1    0    0  504  502 -0.00000000000E+00 -0.00000000000E+00 -0.12775030075E+01  0.12775030075E+01  0.00000000000E+00 0. -1.
         21    1    1    2  503  502  0.10309958290E+02  0.23672484592E+02  0.15117872354E+03  0.15336782002E+03  0.00000000000E+00 0. -1.
         21    1    1    2  504  501 -0.10309958290E+02 -0.23672484592E+02  0.91080965950E+03  0.91117556903E+03  0.00000000000E+00 0.  1.
</event>
<event>
 4    1  0.1725802E+006  0.4042194E+02  0.7546771E-02  0.1346031E+00
         21   -1    0    0  504  501  0.00000000000E+00  0.00000000000E+00  0.20554668403E+02  0.20554668403E+02  0.00000000000E+00 0.  1.
         21   -1    0    0  501  502 -0.00000000000E+00 -0.00000000000E+00 -0.22997442129E+03  0.22997442129E+03  0.00000000000E+00 0.  1.
         21    1    1    2  503  502  0.30453796210E+02  0.26580052563E+02 -0.20603827959E+03  0.20996596285E+03  0.00000000000E+00 0.  1.
         21    1    1    2  504  503 -0.30453796210E+02 -0.26580052563E+02 -0.33814732965E+01  0.40563126846E+02  0.00000000000E+00 0.  1.
</event>
<event>
 4    1  0.1725802E+006  0.2314059E+02  0.7546771E-02  0.1490740E+00
         21   -1    0    0  503  501  0.00000000000E+00  0.00000000000E+00  0.37069360105E+03  0.37069360105E+03  0.00000000000E+00 0. -1.
         21   -1    0    0  504  502 -0.00000000000E+00 -0.00000000000E+00 -0.28188252796E+02  0.28188252796E+02  0.00000000000E+00 0.  1.
         21    1    1    2  503  502  0.51967612297E+01  0.22549514874E+02 -0.23010705853E+02  0.32634024149E+02  0.00000000000E+00 0.  1.
         21    1    1    2  504  501 -0.51967612297E+01 -0.22549514874E+02  0.36551605411E+03  0.36624782970E+03  0.00000000000E+00 0. -1.
</event>
<event>
 4    1  0.1725802E+006  0.2709593E+02  0.7546771E-02  0.1446647E+00
         21   -1    0    0  503  501  0.00000000000E+00  0.00000000000E+00  0.15052450365E+03  0.15052450365E+03  0.00000000000E+00 0. -1.
         21   -1    0    0  504  502 -0.00000000000E+00 -0.00000000000E+00 -0.16730703098E+03  0.16730703098E+03  0.00000000000E+00 0. -1.
         21    1    1    2  503  502 -0.22210047176E+02  0.15521054414E+02  0.14819091604E+03  0.15064772458E+03  0.00000000000E+00 0. -1.
         21    1    1    2  504  501  0.22210047176E+02 -0.15521054414E+02 -0.16497344336E+03  0.16718381004E+03  0.00000000000E+00 0. -1.
</event>
<event>
 4    1  0.1725802E+006  0.2815219E+02  0.7546771E-02  0.1436365E+00
         21   -1    0    0  503  501  0.00000000000E+00  0.00000000000E+00  0.20141672088E+03  0.20141672088E+03  0.00000000000E+00 0.  1.
         21   -1    0    0  504  502 -0.00000000000E+00 -0.00000000000E+00 -0.62976581150E+02  0.62976581150E+02  0.00000000000E+00 0. -1.
         21    1    1    2  503  502 -0.25121894453E+02 -0.12705756568E+02 -0.58780066333E+02  0.65173936731E+02  0.00000000000E+00 0. -1.
         21    1    1    2  504  501  0.25121894453E+02  0.12705756568E+02  0.19722020607E+03  0.19921936530E+03  0.00000000000E+00 0.  1.
</event>
<event>
 4    1  0.1725802E+006  0.2093455E+02  0.7546771E-02  0.1520201E+00
         21   -1    0    0  504  501  0.00000000000E+00  0.00000000000E+00  0.10169173981E+03  0.10169173981E+03  0.00000000000E+00 0. -1.
         21   -1    0    0  503  502 -0.00000000000E+00 -0.00000000000E+00 -0.43681673256E+01  0.43681673256E+01  0.00000000000E+00 0. -1.
         21    1    1    2  503  501 -0.90483447220E+01  0.18878108442E+02  0.54799749466E+02  0.58662322338E+02  0.00000000000E+00 0. -1.
         21    1    1    2  504  502  0.90483447220E+01 -0.18878108442E+02  0.42523823016E+02  0.47397584796E+02  0.00000000000E+00 0. -1.
</event>
<event>
 4    1  0.1725802E+006  0.3354516E+02  0.7546771E-02  0.1391090E+00
         21   -1    0    0  503  501  0.00000000000E+00  0.00000000000E+00  0.12564382181E+02  0.12564382181E+02  0.00000000000E+00 0. -1.
         21   -1    0    0  504  502 -0.00000000000E+00 -0.00000000000E+00 -0.95720917376E+02  0.95720917376E+02  0.00000000000E+00 0.  1.
         21    1    1    2  503  502 -0.28004152885E+02 -0.18467403701E+02 -0.27843336604E+02  0.43595056732E+02  0.00000000000E+00 0. -1.
         21    1    1    2  504  501  0.28004152885E+02  0.18467403701E+02 -0.55313198592E+02  0.64690242825E+02  0.00000000000E+00 0.  1.
</event>
<event>
 4    1  0.1725802E+006  0.3129807E+02  0.7546771E-02  0.1408642E+00
         21   -1    0    0  503  501  0.00000000000E+00  0.00000000000E+00  0.71702278906E+02  0.71702278906E+02  0.00000000000E+00 0.  1.
         21   -1    0    0  504  502 -0.00000000000E+00 -0.00000000000E+00 -0.90476320180E+02  0.90476320180E+02  0.00000000000E+00 0.  1.
         21    1    1    2  503  502  0.18045406615E+02  0.25572109311E+02  0.65329776538E+02  0.72439969472E+02  0.00000000000E+00 0.  1.
         21    1    1    2  504  501 -0.18045406615E+02 -0.25572109311E+02 -0.84103817812E+02  0.89738629614E+02  0.00000000000E+00 0.  1.
</event>
<event>
 4    1  0.1725802E+006  0.2096034E+02  0.7546771E-02  0.1519832E+00
         21   -1    0    0  502  501  0.00000000000E+00  0.00000000000E+00  0.38523178674E+03  0.38523178674E+03  0.00000000000E+00 0.  1.
         21   -1    0    0  504  502 -0.00000000000E+00 -0.00000000000E+00 -0.20309078375E+01  0.20309078375E+01  0.00000000000E+00 0. -1.
         21    1    1    2  503  501  0.17740689785E+02  0.11162608043E+02  0.31981528551E+03  0.32050140832E+03  0.00000000000E+00 0.  1.
         21    1    1    2  504  503 -0.17740689785E+02 -0.11162608043E+02  0.63385593390E+02  0.66761286250E+02  0.00000000000E+00 0. -1.
</event>
<event>
 4    1  0.1725802E+006  0.2424364E+02  0.7546771E-02  0.1477446E+00
         21   -1    0    0  503  501  0.00000000000E+00  0.00000000000E+00  0.12359746747E+02  0.12359746747E+02  0.00000000000E+00 0.  1.
         21   -1    0    0  504  502 -0.00000000000E+00 -0.00000000000E+00 -0.75299923581E+02  0.75299923581E+02  0.00000000000E+00 0.  1.
         21    1    1    2  503  502 -0.13092730691E+02 -0.20404273538E+02 -0.48644881072E+01  0.24726852208E+02  0.00000000000E+00 0.  1.
         21    1    1    2  504  501  0.13092730691E+02  0.20404273538E+02 -0.58075688727E+02  0.62932818121E+02  0.00000000000E+00 0.  1.
</event>
<event>
 4    1  0.1725802E+006  0.2004886E+02  0.7546771E-02  0.1533290E+00
         21   -1    0    0  504  501  0.00000000000E+00  0.00000000000E+00  0.52579943163E+00  0.52579943163E+00  0.00000000000E+00 0. -1.
         21   -1    0    0  501  502 -0.00000000000E+00 -0.00000000000E+00 -0.92660134697E+03  0.92660134697E+03  0.00000000000E+00 0. -1.
         21    1    1    2  503  502 -0.12243940912E+02 -0.15875850902E+02 -0.65694736453E+03  0.65725322099E+03  0.00000000000E+00 0. -1.
         21    1    1    2  504  503  0.12243940912E+02  0.15875850902E+02 -0.26912818301E+03  0.26987392542E+03  0.00000000000E+00 0. -1.
</event>
<event>
 4    1  0.1725802E+006  0.2185420E+02  0.7546771E-02  0.1507410E+00
         21   -1    0    0  503  501  0.00000000000E+00  0.00000000000E+00  0.32519703997E+03  0.32519703997E+03  0.00000000000E+00 0.  1.
         21   -1    0    0  504  502 -0.00000000000E+00 -0.00000000000E+00 -0.17614658652E+01  0.17614658652E+01  0.00000000000E+00 0. -1.
         21    1    1    2  503  502  0.21228171158E+02  0.51933577392E+01  0.22836931343E+03  0.22941261851E+03  0.00000000000E+00 0.  1.
         21    1    1    2  504  501 -0.21228171158E+02 -0.51933577392E+01  0.95066260681E+02  0.97545887331E+02  0.00000000000E+00 0. -1.
</event>
<event>
 4    1  0.1725802E+006  0.3176701E+02  0.7546771E-02  0.1404838E+00
         21   -1    0    0  504  501  0.00000000000E+00  0.00000000000E+00  0.42190022313E+01  0.42190022313E+01  0.00000000000E+00 0. -1.
         21   -1    0    0  503  502 -0.00000000000E+00 -0.00000000000E+00 -0.10597038644E+04  0.10597038644E+04  0.00000000000E+00 0. -1.
         21    1    1    2  503  501 -0.20736915083E+02  0.24064983657E+02 -0.59650824254E+02  0.67582275189E+02  0.00000000000E+00 0. -1.
         21    1    1    2  504  502  0.20736915083E+02 -0.24064983657E+02 -0.99583403793E+03  0.99634059146E+03  0.00000000000E+00 0. -1.
</event>
<event>
 4    1  0.1725802E+006  0.4542330E+02  0.7546771E-02  0.1319336E+00
         21   -1    0    0  503  501  0.00000000000E+00  0.00000000000E+00  0.99197612268E+01  0.99197612268E+01  0.00000000000E+00 0. -1.
         21   -1    0    0  504  502 -0.00000000000E+00 -0.00000000000E+00 -0.20822251858E+03  0.20822251858E+03  0.00000000000E+00 0. -1.
         21    1    1    2  503  502 -0.41868942565E+02  0.17614411353E+02 -0.10274470372E+03  0.11233766057E+03  0.00000000000E+00 0. -1.
         21    1    1    2  504  501  0.41868942565E+02 -0.17614411353E+02 -0.95558053633E+02  0.10580461924E+03  0.00000000000E+00 0. -1.
</event>
<event>
 4    1  0.1725802E+006  0.2558954E+02  0.7546771E-02  0.1462315E+00
         21   -1    0    0  502  501  0.00000000000E+00  0.00000000000E+00  0.13593104322E+03  0.13593104322E+03  0.00000000000E+00 0. -1.
         21   -1    0    0  503  502 -0.00000000000E+00 -0.00000000000E+00 -0.37883550588E+02  0.37883550588E+02  0.00000000000E+00 0.  1.
         21    1    1    2  503  504  0.19198301897E+02  0.16918912737E+02 -0.32170115362E+02  0.41106456018E+02  0.00000000000E+00 0.  1.
         21    1    1    2  504  501 -0.19198301897E+02 -0.16918912737E+02  0.13021760800E+03  0.13270813779E+03  0.00000000000E+00 0. -1.
</event>
<event>
 4    1  0.1725802E+006  0.3085858E+02  0.7546771E-02  0.1412279E+00
         21   -1    0    0  502  501  0.00000000000E+00  0.00000000000E+00  0.26466134853E+03  0.26466134853E+03  0.00000000000E+00 0.  1.
         21   -1    0    0  504  502 -0.00000000000E+00 -0.00000000000E+00 -0.37320837391E+01  0.37320837391E+01  0.00000000000E+00 0.  1.
         21    1    1    2  503  501 -0.22850894889E+02 -0.20738581724E+02  0.10502854221E+03  0.10946801746E+03  0.00000000000E+00 0.  1.
         21    1    1    2  504  503  0.22850894889E+02  0.20738581724E+02  0.15590072259E+03  0.15892541481E+03  0.00000000000E+00 0.  1.
</event>
<event>
 4    1  0.1725802E+006  0.2348359E+02  0.7546771E-02  0.1486513E+00
         21   -1    0    0  503  501  0.00000000000E+00  0.00000000000E+00  0.34783205196E+01  0.34783205196E+01  0.00000000000E+00 0. -1.
         21   -1    0    0  501  502 -0.00000000000E+00 -0.00000000000E+00 -0.25348507506E+03  0.25348507506E+03  0.00000000000E+00 0. -1.
         21    1    1    2  503  504  0.22222029392E+02 -0.75934390788E+01 -0.46374112804E+02  0.51981123936E+02  0.00000000000E+00 0. -1.
         21    1    1    2  504  502 -0.22222029392E+02  0.75934390788E+01 -0.20363264173E+03  0.20498227164E+03  0.00000000000E+00 0. -1.
</event>
<event>
 4    1  0.1725802E+006  0.2717684E+02  0.7546771E-02  0.1445840E+00
         21   -1    0    0  503  501  0.00000000000E+00  0.00000000000E+00  0.27279462683E+02  0.27279462683E+02  0.00000000000E+00 0. -1.
         21   -1    0    0  501  502 -0.00000000000E+00 -0.00000000000E+00 -0.28036558867E+02  0.28036558867E+02  0.00000000000E+00 0. -1.
         21    1    1    2  503  504  0.11813725051E+02 -0.24474814370E+02  0.47445896190E+01  0.27587891704E+02  0.00000000000E+00 0. -1.
         21    1    1    2  504  502 -0.11813725051E+02  0.24474814370E+02 -0.55016858030E+01  0.27728129845E+02  0.00000000000E+00 0. -1.
</event>
<event>
 4    1  0.1725802E+006  0.2131477E+02  0.7546771E-02  0.1514818E+00
         21   -1    0    0  503  501  0.00000000000E+00  0.00000000000E+00  0.15882422354E+02  0.15882422354E+02  0.00000000000E+00 0.  1.
         21   -1    0    0  504  502 -0.00000000000E+00 -0.00000000000E+00 -0.13110584365E+03  0.13110584365E+03  0.00000000000E+00 0. -1.
         21    1    1    2  503  502 -0.30292420506E+01 -0.21098418313E+02 -0.12259549263E+03  0.12443461888E+03  0.00000000000E+00 0. -1.
         21    1    1    2  504  501  0.30292420506E+01  0.21098418313E+02  0.73720713357E+01  0.22553647122E+02  0.00000000000E+00 0.  1.
</event>
<event>
 4    1  0.1725802E+006  0.2482908E+02  0.7546771E-02  0.1470725E+00
         21   -1    0    0  504  501  0.00000000000E+00  0.00000000000E+00  0.46764298713E+01  0.46764298713E+01  0.00000000000E+00 0. -1.
         21   -1    0    0  503  502 -0.00000000000E+00 -0.00000000000E+00 -0.14701253856E+03  0.14701253856E+03  0.00000000000E+00 0. -1.
         21    1    1    2  503  501 -0.88229146943E+01  0.23208602063E+02 -0.95543456137E+02  0.98716944057E+02  0.00000000000E+00 0. -1.
         21    1    1    2  504  502  0.88229146943E+01 -0.23208602063E+02 -0.46792652552E+02  0.52972024374E+02  0.00000000000E+00 0. -1.
</event>
<event>
 4    1  0.1725802E+006  0.3028159E+02  0.7546771E-02  0.1417165E+00
         21   -1    0    0  504  501  0.00000000000E+00  0.00000000000E+00  0.54506981781E+02  0.54506981781E+02  0.00000000000E+00 0.  1.
         21   -1    0    0  501  502 -0.00000000000E+00 -0.00000000000E+00 -0.16957647369E+02  0.16957647369E+02  0.00000000000E+00 0.  1.
         21    1    1    2  503  502 -0.18601523848E+02 -0.23894722389E+02  0.15591394009E+02  0.34059741846E+02  0.00000000000E+00 0.  1.
         21    1    1    2  504  503  0.18601523848E+02  0.23894722389E+02  0.21957940403E+02  0.37404887304E+02  0.00000000000E+00 0.  1.
</event>
<event>
 4    1  0.1725802E+006  0.2497875E+02  0.7546771E-02  0.1469041E+00
         21   -1    0    0  502  501  0.00000000000E+00  0.00000000000E+00  0.65358931352E+02  0.65358931352E+02  0.00000000000E+00 0. -1.
         21   -1    0    0  503  502 -0.00000000000E+00 -0.00000000000E+00 -0.16370152931E+02  0.16370152931E+02  0.00000000000E+00 0. -1.
         21    1    1    2  503  504  0.11123199319E+02  0.22365423068E+02 -0.18892225827E+01  0.25050087307E+02  0.00000000000E+00 0. -1.
         21    1    1    2  504  501 -0.11123199319E+02 -0.22365423068E+02  0.50878001004E+02  0.56678996976E+02  0.00000000000E+00 0. -1.
</event>
<event>
 4    1  0.1725802E+006  0.2124324E+02  0.7546771E-02  0.1515820E+00
         21   -1    0    0  504  501  0.00000000000E+00  0.00000000000E+00  0.54642147015E+02  0.54642147015E+02  0.00000000000E+00 0. -1.
         21   -1    0    0  501  502 -0.00000000000E+00 -0.00000000000E+00 -0.63707614142E+02  0.63707614142E+02  0.00000000000E+00 0. -1.
         21    1    1    2  503  502  0.20254211594E+02  0.64064206885E+01 -0.59738962728E+02  0.63403619621E+02  0.00000000000E+00 0. -1.
         21    1    1    2  504  503 -0.20254211594E+02 -0.64064206885E+01  0.50673495600E+02  0.54946141536E+02  0.00000000000E+00 0. -1.
</event>
<event>
 4    1  0.1725802E+006  0.2753344E+02  0.7546771E-02  0.1442322E+00
         21   -1    0    0  502  501  0.00000000000E+00  0.00000000000E+00  0.92603910961E+02  0.92603910961E+02  0.00000000000E+00 0. -1.
         21   -1    0    0  503  502 -0.00000000000E+00 -0.00000000000E+00 -0.95469559025E+01  0.95469559025E+01  0.00000000000E+00 0.  1.
         21    1    1    2  503  504  0.23671025339E+02  0.14063173808E+02  0.22246931088E+02  0.35397969447E+02  0.00000000000E+00 0.  1.
         21    1    1    2  504  501 -0.23671025339E+02 -0.14063173808E+02  0.60810023971E+02  0.66752897416E+02  0.00000000000E+00 0. -1.
</event>
<event>
 4    1  0.1725802E+006  0.2811897E+02  0.7546771E-02  0.1436680E+00
         21   -1    0    0  503  501  0.00000000000E+00  0.00000000000E+00  0.36087702318E+02  0.36087702318E+02  0.00000000000E+00 0.  1.
         21   -1    0    0  504  502 -0.00000000000E+00 -0.00000000000E+00 -0.38742404055E+03  0.38742404055E+03  0.00000000000E+00 0.  1.
         21    1    1    2  503  502 -0.10357348858E+02 -0.26141952401E+02  0.30012888012E+02  0.41127239118E+02  0.00000000000E+00 0.  1.
         21    1    1    2  504  501  0.10357348858E+02  0.26141952401E+02 -0.38134922624E+03  0.38238450375E+03  0.00000000000E+00 0.  1.
</event>
<event>
 4    1  0.1725802E+006  0.2198075E+02  0.7546771E-02  0.1505709E+00
         21   -1    0    0  504  501  0.00000000000E+00  0.00000000000E+00  0.21334420730E+03  0.21334420730E+03  0.00000000000E+00 0.  1.
         21   -1    0    0  503  502 -0.00000000000E+00 -0.00000000000E+00 -0.59451719157E+01  0.59451719157E+01  0.00000000000E+00 0.  1.
         21    1    1    2  503  501  0.20034465370E+02 -0.90428731946E+01  0.17429644896E+02  0.28052555667E+02  0.00000000000E+00 0.  1.
         21    1    1    2  504  502 -0.20034465370E+02  0.90428731946E+01  0.18996939049E+03  0.19123682355E+03  0.00000000000E+00 0.  1.
</event>
<event>
 4    1  0.1725802E+006  0.2289505E+02  0.7546771E-02  0.1493820E+00
         21   -1    0    0  503  501  0.00000000000E+00  0.00000000000E+00  0.12551252353E+03  0.12551252353E+03  0.00000000000E+00 0.  1.
         21   -1    0    0  501  502 -0.00000000000E+00 -0.00000000000E+00 -0.71079846304E+01  0.71079846304E+01  0.00000000000E+00 0.  1.
         21    1    1    2  503  504 -0.22133437492E+01  0.22787808071E+02  0.10178789652E+03  0.10433100673E+03  0.00000000000E+00 0.  1.
         21    1    1    2  504  502  0.22133437492E+01 -0.22787808071E+02  0.16616642379E+02  0.28289501430E+02  0.00000000000E+00 0.  1.
</event>
<event>
 4    1  0.1725802E+006  0.2027052E+02  0.7546771E-02  0.1529940E+00
         21   -1    0    0  504  501  0.00000000000E+00  0.00000000000E+00  0.66318538058E+03  0.66318538058E+03  0.00000000000E+00 0. -1.
         21   -1    0    0  503  502 -0.00000000000E+00 -0.00000000000E+00 -0.11651899499E+01  0.11651899499E+01  0.00000000000E+00 0. -1.
         21    1    1    2  503  501 -0.20048401439E+02 -0.29926158426E+01  0.10370381159E+03  0.10566633659E+03  0.00000000000E+00 0. -1.
         21    1    1    2  504  502  0.20048401439E+02  0.29926158426E+01  0.55831637903E+03  0.55868423394E+03  0.00000000000E+00 0. -1.
</event>
<event>
 4    1  0.1725802E+006  0.2152301E+02  0.7546771E-02  0.1511927E+00
         21   -1    0    0  502  501  0.00000000000E+00  0.00000000000E+00  0.51752112793E+03  0.51752112793E+03  0.00000000000E+00 0.  1.
         21   -1    0    0  503  502 -0.00000000000E+00 -0.00000000000E+00 -0.39826488454E+03  0.39826488454E+03  0.00000000000E+00 0.  1.
         21    1    1    2  503  504 -0.26672720827E+01 -0.21357098526E+02 -0.39775003042E+03  0.39833193030E+03  0.00000000000E+00 0.  1.
         21    1    1    2  504  501  0.26672720827E+01  0.21357098526E+02  0.51700627380E+03  0.51745408217E+03  0.00000000000E+00 0.  1.
</event>
<event>
 4    1  0.1725802E+006  0.2800025E+02  0.7546771E-02  0.1437811E+00
         21   -1    0    0  504  501  0.00000000000E+00  0.00000000000E+00  0.49956706395E+02  0.49956706395E+02  0.00000000000E+00 0. -1.
         21   -1    0    0  503  502 -0.00000000000E+00 -0.00000000000E+00 -0.49273214720E+02  0.49273214720E+02  0.00000000000E+00 0.  1.
         21    1    1    2  503  501 -0.26076046947E+02  0.10200678612E+02 -0.40616684847E+02  0.49332840547E+02  0.00000000000E+00 0.  1.
         21    1    1    2  504  502  0.26076046947E+02 -0.10200678612E+02  0.41300176521E+02  0.49897080568E+02  0.00000000000E+00 0. -1.
</event>
<event>
 4    1  0.1725802E+006  0.2534709E+02  0.7546771E-02  0.1464958E+00
         21   -1    0    0  504  501  0.00000000000E+00  0.00000000000E+00  0.71039867942E+03  0.71039867942E+03  0.00000000000E+00 0. -1.
         21   -1    0    0  503  502 -0.00000000000E+00 -0.00000000000E+00 -0.14437239596E+01  0.14437239596E+01  0.00000000000E+00 0. -1.
         21    1    1    2  503  501  0.94132886887E+00 -0.25329609402E+02  0.57201888580E+03  0.57258019606E+03  0.00000000000E+00 0. -1.
         21    1    1    2  504  502 -0.94132886887E+00  0.25329609402E+02  0.13693606966E+03  0.13926220732E+03  0.00000000000E+00 0. -1.
</event>
<event>
 4    1  0.1725802E+006  0.2824311E+02  0.7546771E-02  0.1435505E+00
         21   -1    0    0  503  501  0.00000000000E+00  0.00000000000E+00  0.14919929012E+03  0.14919929012E+03  0.00000000000E+00 0.  1.
         21   -1    0    0  504  502 -0.00000000000E+00 -0.00000000000E+00 -0.82508152473E+01  0.82508152473E+01  0.00000000000E+00 0.  1.
         21    1    1    2  503  502 -0.28149549966E+02  0.22969525383E+01  0.23765636994E+02  0.36911768530E+02  0.00000000000E+00 0.  1.
         21    1    1    2  504  501  0.28149549966E+02 -0.22969525383E+01  0.11718283788E+03  0.12053833684E+03  0.00000000000E+00 0.  1.
</event>
<event>
 4    1  0.1725802E+006  0.3030131E+02  0.7546771E-02  0.1416996E+00
         21   -1    0    0  504  501  0.00000000000E+00  0.00000000000E+00  0.70287452786E+02  0.70287452786E+02  0.00000000000E+00 0. -1.
         21   -1    0    0  503  502 -0.00000000000E+00 -0.00000000000E+00 -0.14819545351E+02  0.14819545351E+02  0.00000000000E+00 0. -1.
         21    1    1    2  503  501 -0.16107221723E+01  0.30258464600E+02  0.42384043667E+02  0.52101595594E+02  0.00000000000E+00 0. -1.
         21    1    1    2  504  502  0.16107221723E+01 -0.30258464600E+02  0.13083863769E+02  0.33005402543E+02  0.00000000000E+00 0. -1.
</event>
<event>
 4    1  0.1725802E+006  0.2179264E+02  0.7546771E-02  0.1508242E+00
         21   -1    0    0  503  501  0.00000000000E+00  0.00000000000E+00  0.26946199284E+03  0.26946199284E+03  0.00000000000E+00 0.  1.
         21   -1    0    0  504  502 -0.00000000000E+00 -0.00000000000E+00 -0.15599264638E+02  0.15599264638E+02  0.00000000000E+00 0. -1.
         21    1    1    2  503  502 -0.10535903665E+02  0.19076522145E+02 -0.73061401307E+01  0.22984748134E+02  0.00000000000E+00 0. -1.
         21    1    1    2  504  501  0.10535903665E+02 -0.19076522145E+02  0.26116886833E+03  0.26207650934E+03  0.00000000000E+00 0.  1.
</event>
<event>
 4    1  0.1725802E+006  0.2227536E+02  0.7546771E-02  0.1501804E+00
         21   -1    0    0  504  501  0.00000000000E+00  0.00000000000E+00  0.56467685277E+03  0.56467685277E+03  0.00000000000E+00 0. -1.
         21   -1    0    0  503  502 -0.00000000000E+00 -0.00000000000E+00 -0.13908726209E+02  0.13908726209E+02  0.00000000000E+00 0.  1.
         21    1    1    2  503  501  0.97523610387E+01  0.20027056611E+02 -0.46212547555E+01  0.22749671159E+02  0.00000000000E+00 0.  1.
         21    1    1    2  504  502 -0.97523610387E+01 -0.20027056611E+02  0.55538938132E+03  0.55583590782E+03  0.00000000000E+00 0. -1.
</event>
<event>
 4    1  0.1725802E+006  0.2359724E+02  0.7546771E-02  0.1485132E+00
         21   -1    0    0  504  501  0.00000000000E+00  0.00000000000E+00  0.61325383015E+01  0.61325383015E+01  0.00000000000E+00 0. -1.
         21   -1    0    0  503  502 -0.00000000000E+00 -0.00000000000E+00 -0.49880075258E+03  0.49880075258E+03  0.00000000000E+00 0.  1.
         21    1    1    2  503  501 -0.54206989246E+01  0.22966190248E+02 -0.47466850493E+03  0.47525468903E+03  0.00000000000E+00 0.  1.
         21    1    1    2  504  502  0.54206989246E+01 -0.22966190248E+02 -0.17999709350E+02  0.29678601855E+02  0.00000000000E+00 0. -1.
</event>
<event>
 4    1  0.1725802E+006  0.2422968E+02  0.7546771E-02  0.1477608E+00
         21   -1    0    0  503  501  0.00000000000E+00  0.00000000000E+00  0.11802450583E+04  0.11802450583E+04  0.00000000000E+00 0.  1.
         21   -1    0    0  504  502 -0.00000000000E+00 -0.00000000000E+00 -0.64493963528E+01  0.64493963528E+01  0.00000000000E+00 0. -1.
         21    1    1    2  503  502  0.24224549439E+02 -0.49859623780E+00  0.16891098599E+02  0.29536191453E+02  0.00000000000E+00 0. -1.
         21    1    1    2  504  501 -0.24224549439E+02  0.49859623780E+00  0.11569045633E+04  0.11571582632E+04  0.00000000000E+00 0.  1.
</event>
<event>
 4    1  0.1725802E+006  0.3274733E+02  0.7546771E-02  0.1397132E+00
         21   -1    0    0  503  501  0.00000000000E+00  0.00000000000E+00  0.14601008298E+02  0.14601008298E+02  0.00000000000E+00 0. -1.
         21   -1    0    0  504  502 -0.00000000000E+00 -0.00000000000E+00 -0.86098715485E+02  0.86098715485E+02  0.00000000000E+00 0. -1.
         21    1    1    2  503  502 -0.67882793723E+01 -0.32036022093E+02 -0.55050293599E+02  0.64054057434E+02  0.00000000000E+00 0. -1.
         21    1    1    2  504  501  0.67882793723E+01  0.32036022093E+02 -0.16447413588E+02  0.36645666348E+02  0.00000000000E+00 0. -1.
</event>
<event>
 4    1  0.1725802E+006  0.2005291E+02  0.7546771E-02  0.1533228E+00
         21   -1    0    0  504  501  0.00000000000E+00  0.00000000000E+00  0.31022847878E+03  0.31022847878E+03  0.00000000000E+00 0.  1.
         21   -1    0    0  501  502 -0.00000000000E+00 -0.00000000000E+00 -0.23612624831E+01  0.23612624831E+01  0.00000000000E+00 0.  1.
         21    1    1    2  503  502 -0.19363143038E+02 -0.52141971999E+01  0.48964991488E+02  0.52912092683E+02  0.00000000000E+00 0.  1.
         21    1    1    2  504  503  0.19363143038E+02  0.52141971999E+01  0.25890222480E+03  0.25967764857E+03  0.00000000000E+00 0.  1.
</event>
<event>
 4    1  0.1725802E+006  0.2217374E+02  0.7546771E-02  0.1503143E+00
         21   -1    0    0  504  501  0.00000000000E+00  0.00000000000E+00  0.15000098626E+02  0.15000098626E+02  0.00000000000E+00 0. -1.
         21   -1    0    0  503  502 -0.00000000000E+00 -0.00000000000E+00 -0.42549340855E+02  0.42549340855E+02  0.00000000000E+00 0. -1.
         21    1    1    2  503  501 -0.18437361248E+02 -0.12318215915E+02  0.14593875785E-01  0.22173744521E+02  0.00000000000E+00 0. -1.
         21    1    1    2  504  502  0.18437361248E+02  0.12318215915E+02 -0.27563836104E+02  0.35375694960E+02  0.00000000000E+00 0. -1.
</event>
<event>
 4    1  0.1725802E+006  0.2033906E+02  0.7546771E-02  0.1528914E+00
         21   -1    0    0  503  501  0.00000000000E+00  0.00000000000E+00  0.28895671513E+02  0.28895671513E+02  0.00000000000E+00 0. -1.
         21   -1    0    0  504  502 -0.00000000000E+00 -0.00000000000E+00 -0.98780768821E+02  0.98780768821E+02  0.00000000000E+00 0.  1.
         21    1    1    2  503  502  0.12105218702E+02 -0.16344446719E+02 -0.93973768923E+02  0.96149604804E+02  0.00000000000E+00 0.  1.
         21    1    1    2  504  501 -0.12105218702E+02  0.16344446719E+02  0.24088671615E+02  0.31526835530E+02  0.00000000000E+00 0. -1.
</event>
<event>
 4    1  0.1725802E+006  0.5388561E+02  0.7546771E-02  0.1282151E+00
         21   -1    0    0  504  501  0.00000000000E+00  0.00000000000E+00  0.41089424109E+02  0.41089424109E+02  0.00000000000E+00 0. -1.
         21   -1    0    0  503  502 -0.00000000000E+00 -0.00000000000E+00 -0.13570087980E+03  0.13570087980E+03  0.00000000000E+00 0. -1.
         21    1    1    2  503  501  0.20242502035E+02  0.49938960714E+02 -0.10849954838E+03  0.12114376040E+03  0.00000000000E+00 0. -1.
         21    1    1    2  504  502 -0.20242502035E+02 -0.49938960714E+02  0.13888092689E+02  0.55646543507E+02  0.00000000000E+00 0. -1.
</event>
<event>
 4    1  0.1725802E+006  0.3245613E+02  0.7546771E-02  0.1399387E+00
         21   -1    0    0  502  501  0.00000000000E+00  0.00000000000E+00  0.51732299762E+02  0.51732299762E+02  0.00000000000E+00 0. -1.
         21   -1    0    0  504  502 -0.00000000000E+00 -0.00000000000E+00 -0.25195424192E+03  0.25195424192E+03  0.00000000000E+00 0.  1.
         21    1    1    2  503  501 -0.54770744521E+01 -0.31990650326E+02  0.45467189526E+02  0.55862915930E+02  0.00000000000E+00 0. -1.
         21    1    1    2  504  503  0.54770744521E+01  0.31990650326E+02 -0.24568913169E+03  0.24782362575E+03  0.00000000000E+00 0.  1.
</event>
<event>
 4    1  0.1725802E+006  0.3241949E+02  0.7546771E-02  0.1399673E+00
         21   -1    0    0  504  501  0.00000000000E+00  0.00000000000E+00  0.35170714054E+01  0.35170714054E+01  0.00000000000E+00 0.  1.
         21   -1    0    0  503  502 -0.00000000000E+00 -0.00000000000E+00 -0.54573439173E+03  0.54573439173E+03  0.00000000000E+00 0.  1.
         21    1    1    2  503  501  0.29277678881E+02  0.13922662386E+02 -0.86389973827E+02  0.92272696863E+02  0.00000000000E+00 0.  1.
         21    1    1    2  504  502 -0.29277678881E+02 -0.13922662386E+02 -0.45582734650E+03  0.45697876627E+03  0.00000000000E+00 0.  1.
</event>
<event>
 4    1  0.1725802E+006  0.3295917E+02  0.7546771E-02  0.1395508E+00
         21   -1    0    0  502  501  0.00000000000E+00  0.00000000000E+00  0.92109096677E+01  0.92109096677E+01  0.00000000000E+00 0.  1.
         21   -1    0    0  503  502 -0.00000000000E+00 -0.00000000000E+00 -0.16935954585E+03  0.16935954585E+03  0.00000000000E+00 0.  1.
         21    1    1    2  503  504 -0.29463937137E+02  0.14771038571E+02 -0.12927277747E+03  0.13340823875E+03  0.00000000000E+00 0.  1.
         21    1    1    2  504  501  0.29463937137E+02 -0.14771038571E+02 -0.30875858717E+02  0.45162216771E+02  0.00000000000E+00 0.  1.
</event>
<event>
 4    1  0.1725802E+006  0.2366012E+02  0.7546771E-02  0.1484371E+00
         21   -1    0    0  504  501  0.00000000000E+00  0.00000000000E+00  0.24405565782E+03  0.24405565782E+03  0.00000000000E+00 0. -1.
         21   -1    0    0  501  502 -0.00000000000E+00 -0.00000000000E+00 -0.25297636242E+01  0.25297636242E+01  0.00000000000E+00 0. -1.
         21    1    1    2  503  502 -0.96559217543E+00  0.23640410076E+02  0.83103763711E+02  0.86406231834E+02  0.00000000000E+00 0. -1.
         21    1    1    2  504  503  0.96559217543E+00 -0.23640410076E+02  0.15842213048E+03  0.16017918961E+03  0.00000000000E+00 0. -1.
</event>
<event>
 4    1  0.1725802E+006  0.2868953E+02  0.7546771E-02  0.1431337E+00
         21   -1    0    0  503  501  0.00000000000E+00  0.00000000000E+00  0.37490646512E+03  0.37490646512E+03  0.00000000000E+00 0.  1.
         21   -1    0    0  504  502 -0.00000000000E+00 -0.00000000000E+00 -0.34250395969E+01  0.34250395969E+01  0.00000000000E+00 0.  1.
         21    1    1    2  503  502 -0.86544219955E+01  0.27353059537E+02  0.29908237411E+03  0.30045524690E+03  0.00000000000E+00 0.  1.
         21    1    1    2  504  501  0.86544219955E+01 -0.27353059537E+02  0.72399051411E+02  0.77876257816E+02  0.00000000000E+00 0.  1.
</event>
<event>
 4    1  0.1725802E+006  0.3780242E+02  0.7546771E-02  0.1361868E+00
         21   -1    0    0  504  501  0.00000000000E+00  0.00000000000E+00  0.20918378654E+03  0.20918378654E+03  0.00000000000E+00 0. -1.
         21   -1    0    0  503  502 -0.00000000000E+00 -0.00000000000E+00 -0.33988489823E+02  0.33988489823E+02  0.00000000000E+00 0.  1.
         21    1    1    2  503  501  0.10845215177E+02  0.36213320207E+02 -0.21084833800E+02  0.43285025922E+02  0.00000000000E+00 0.  1.
         21    1    1    2  504  502 -0.10845215177E+02 -0.36213320207E+02  0.19628013052E+03  0.19988725044E+03  0.00000000000E+00 0. -1.
</event>
<event>
 4    1  0.1725802E+006  0.2283072E+02  0.7546771E-02  0.1494635E+00
         21   -1    0    0  502  501  0.00000000000E+00  0.00000000000E+00  0.54334923981E+01  0.54334923981E+01  0.00000000000E+00 0. -1.
         21   -1    0    0  503  502 -0.00000000000E+00 -0.00000000000E+00 -0.61949841523E+03  0.61949841523E+03  0.00000000000E+00 0. -1.
         21    1    1    2  503  504  0.64233291716E+01  0.21908504065E+02 -0.59428826110E+03  0.59472664224E+03  0.00000000000E+00 0. -1.
         21    1    1    2  504  501 -0.64233291716E+01 -0.21908504065E+02 -0.19776661735E+02  0.30205265392E+02  0.00000000000E+00 0. -1.
</event>
<event>
 4    1  0.1725802E+006  0.3006078E+02  0.7546771E-02  0.1419069E+00
         21   -1    0    0  504  501  0.00000000000E+00  0.00000000000E+00  0.43242593842E+02  0.43242593842E+02  0.00000000000E+00 0. -1.
         21   -1    0    0  503  502 -0.00000000000E+00 -0.00000000000E+00 -0.47052053937E+02  0.47052053937E+02  0.00000000000E+00 0.  1.
         21    1    1    2  503  501  0.73195830890E+01  0.29156035134E+02  0.31755615619E+02  0.43727220409E+02  0.00000000000E+00 0. -1.
         21    1    1    2  504  502 -0.73195830890E+01 -0.29156035134E+02 -0.35565075714E+02  0.46567427370E+02  0.00000000000E+00 0.  1.
</event>
<event>
 4    1  0.1725802E+006  0.2192335E+02  0.7546771E-02  0.1506479E+00
         21   -1    0    0  504  501  0.00000000000E+00  0.00000000000E+00  0.42566792802E+03  0.42566792802E+03  0.00000000000E+00 0. -1.
         21   -1    0    0  501  502 -0.00000000000E+00 -0.00000000000E+00 -0.15818312357E+01  0.15818312357E+01  0.00000000000E+00 0.  1.
         21    1    1    2  503  502 -0.21464984245E+02  0.44595600072E+01  0.97760753304E+02  0.10018881230E+03  0.00000000000E+00 0.  1.
         21    1    1    2  504  503  0.21464984245E+02 -0.44595600072E+01  0.32632534348E+03  0.32706094696E+03  0.00000000000E+00 0. -1.
</event>
<event>
 4    1  0.1725802E+006  0.2908124E+02  0.7546771E-02  0.1427752E+00
         21   -1    0    0  503  501  0.00000000000E+00  0.00000000000E+00  0.24411222663E+02  0.24411222663E+02  0.00000000000E+00 0. -1.
         21   -1    0    0  501  502 -0.00000000000E+00 -0.00000000000E+00 -0.16061905400E+03  0.16061905400E+03  0.00000000000E+00 0.  1.
         21    1    1    2  503  504 -0.28374743707E+02 -0.63712253516E+01  0.13828432851E+02  0.32201617164E+02  0.00000000000E+00 0. -1.
         21    1    1    2  504  502  0.28374743707E+02  0.63712253516E+01 -0.15003626419E+03  0.15282865950E+03  0.00000000000E+00 0.  1.
</event>
<event>
 4    1  0.1725802E+006  0.2018390E+02  0.7546771E-02  0.1531243E+00
         21   -1    0    0  503  501  0.00000000000E+00  0.00000000000E+00  0.72093522690E+03  0.72093522690E+03  0.00000000000E+00 0.  1.
         21   -1    0    0  504  502 -0.00000000000E+00 -0.00000000000E+00 -0.56519180607E+00  0.56519180607E+00  0.00000000000E+00 0. -1.
         21    1    1    2  503  502  0.14649872574E+02 -0.13884198184E+02  0.36514277696E+03  0.36570020139E+03  0.00000000000E+00 0. -1.
         21    1    1    2  504  501 -0.14649872574E+02  0.13884198184E+02  0.35522725813E+03  0.35580021732E+03  0.00000000000E+00 0.  1.
</event>
<event>
 4    1  0.1725802E+006  0.2418931E+02  0.7546771E-02  0.1478081E+00
         21   -1    0    0  504  501  0.00000000000E+00  0.00000000000E+00  0.23477352024E+03  0.23477352024E+03  0.00000000000E+00 0.  1.
         21   -1    0    0  501  502 -0.00000000000E+00 -0.00000000000E+00 -0.25527865314E+01  0.25527865314E+01  0.00000000000E+00 0.  1.
         21    1    1    2  503  502  0.19075878001E+02 -0.14873921972E+02  0.97842431203E+02  0.10078821370E+03  0.00000000000E+00 0.  1.
         21    1    1    2  504  503 -0.19075878001E+02  0.14873921972E+02  0.13437830251E+03  0.13653809307E+03  0.00000000000E+00 0.  1.
</event>
<event>
 4    1  0.1725802E+006  0.2307397E+02  0.7546771E-02  0.1491571E+00
         21   -1    0    0  504  501  0.00000000000E+00  0.00000000000E+00  0.25876430625E+01  0.25876430625E+01  0.00000000000E+00 0. -1.
         21   -1    0    0  503  502 -0.00000000000E+00 -0.00000000000E+00 -0.29527244204E+03  0.29527244204E+03  0.00000000000E+00 0.  1.
         21    1    1    2  503  501  0.17917061802E+02  0.14539150563E+02 -0.64338141920E+02  0.68350599912E+02  0.00000000000E+00 0. -1.
         21    1    1    2  504  502 -0.17917061802E+02 -0.14539150563E+02 -0.22834665706E+03  0.22950948519E+03  0.00000000000E+00 0.  1.
</event>
<event>
 4    1  0.1725802E+006  0.2058160E+02  0.7546771E-02  0.1525323E+00
         21   -1    0    0  504  501  0.00000000000E+00  0.00000000000E+00  0.27703719433E+03  0.27703719433E+03  0.00000000000E+00 0. -1.
         21   -1    0    0  503  502 -0.00000000000E+00 -0.00000000000E+00 -0.31529825849E+02  0.31529825849E+02  0.00000000000E+00 0.  1.
         21    1    1    2  503  501 -0.20520466565E+02  0.15851545062E+01  0.27324970123E+03  0.27402372431E+03  0.00000000000E+00 0. -1.
         21    1    1    2  504  502  0.20520466565E+02 -0.15851545062E+01 -0.27742332751E+02  0.34543295867E+02  0.00000000000E+00 0.  1.
</event>
<event>
 4    1  0.1725802E+006  0.2011128E+02  0.7546771E-02  0.1532341E+00
         21   -1    0    0  504  501  0.00000000000E+00  0.00000000000E+00  0.76268808794E+03  0.76268808794E+03  0.00000000000E+00 0.  1.
         21   -1    0    0  503  502 -0.00000000000E+00 -0.00000000000E+00 -0.14730768427E+01  0.14730768427E+01  0.00000000000E+00 0.  1.
         21    1    1    2  503  501 -0.87724889336E+01 -0.18097152294E+02  0.68627109035E+03  0.68656570911E+03  0.00000000000E+00 0.  1.
         21    1    1    2  504  502  0.87724889336E+01  0.18097152294E+02  0.74943920755E+02  0.77595455675E+02  0.00000000000E+00 0.  1.
</event>
<event>
 4    1  0.1725802E+006  0.2323512E+02  0.7546771E-02  0.1489567E+00
         21   -1    0    0  504  501  0.00000000000E+00  0.00000000000E+00  0.42806857675E+03  0.42806857675E+03  0.00000000000E+00 0. -1.
         21   -1    0    0  503  502 -0.00000000000E+00 -0.00000000000E+00 -0.24708039172E+02  0.24708039172E+02  0.00000000000E+00 0. -1.
         21    1    1    2  503  501  0.87206274208E+00 -0.23218753153E+02  0.42221510531E+03  0.42285395368E+03  0.00000000000E+00 0. -1.
         21    1    1    2  504  502 -0.87206274208E+00  0.23218753153E+02 -0.18854567731E+02  0.29922662243E+02  0.00000000000E+00 0. -1.
</event>
<event>
 4    1  0.1725802E+006  0.3363713E+02  0.7546771E-02  0.1390406E+00
         21   -1    0    0  503  501  0.00000000000E+00  0.00000000000E+00  0.27311132642E+03  0.27311132642E+03  0.00000000000E+00 0.  1.
         21   -1    0    0  504  502 -0.00000000000E+00 -0.00000000000E+00 -0.11059990099E+03  0.11059990099E+03  0.00000000000E+00 0. -1.
         21    1    1    2  503  502 -0.32064661986E+02  0.10164338802E+02 -0.10697235315E+03  0.11213625939E+03  0.00000000000E+00 0. -1.
         21    1    1    2  504  501  0.32064661986E+02 -0.10164338802E+02  0.26948377859E+03  0.27157496802E+03  0.00000000000E+00 0.  1.
</event>
<event>
 4    1  0.1725802E+006  0.3702480E+02  0.7546771E-02  0.1366861E+00
         21   -1    0    0  502  501  0.00000000000E+00  0.00000000000E+00  0.33247305860E+03  0.33247305860E+03  0.00000000000E+00 0.  1.
         21   -1    0    0  503  502 -0.00000000000E+00 -0.00000000000E+00 -0.24441626968E+02  0.24441626968E+02  0.00000000000E+00 0. -1.
         21    1    1    2  503  504  0.35811946572E+02  0.93989377379E+01 -0.86945541753E+01  0.38031971027E+02  0.00000000000E+00 0. -1.
         21    1    1    2  504  501 -0.35811946572E+02 -0.93989377379E+01  0.31672598581E+03  0.31888271454E+03  0.00000000000E+00 0.  1.
</event>
<event>
 4    1  0.1725802E+006  0.4668964E+02  0.7546771E-02  0.1313200E+00
         21   -1    0    0  503  501  0.00000000000E+00  0.00000000000E+00  0.49554842218E+03  0.49554842218E+03  0.00000000000E+00 0. -1.
         21   -1    0    0  501  502 -0.00000000000E+00 -0.00000000000E+00 -0.40432998769E+02  0.40432998769E+02  0.00000000000E+00 0.  1.
         21    1    1    2  503  504 -0.25953917185E+02  0.38811293391E+02  0.48055037972E+03  0.48281320380E+03  0.00000000000E+00 0. -1.
         21    1    1    2  504  502  0.25953917185E+02 -0.38811293391E+02 -0.25434956313E+02  0.53168217147E+02  0.00000000000E+00 0.  1.
</event>
<event>
 4    1  0.1725802E+006  0.3032316E+02  0.7546771E-02  0.1416808E+00
         21   -1    0    0  504  501  0.00000000000E+00  0.00000000000E+00  0.13475676976E+02  0.13475676976E+02  0.00000000000E+00 0.  1.
         21   -1    0    0  503  502 -0.00000000000E+00 -0.00000000000E+00 -0.37754086982E+03  0.37754086982E+03  0.00000000000E+00 0.  1.
         21    1    1    2  503  501 -0.17313549190E+02  0.24894482640E+02 -0.50713361709E+01  0.30744311702E+02  0.00000000000E+00 0.  1.
         21    1    1    2  504  502  0.17313549190E+02 -0.24894482640E+02 -0.35899385667E+03  0.36027223509E+03  0.00000000000E+00 0.  1.
</event>
<event>
 4    1  0.1725802E+006  0.2510400E+02  0.7546771E-02  0.1467643E+00
         21   -1    0    0  503  501  0.00000000000E+00  0.00000000000E+00  0.96432604498E+02  0.96432604498E+02  0.00000000000E+00 0.  1.
         21   -1    0    0  504  502 -0.00000000000E+00 -0.00000000000E+00 -0.11806844915E+02  0.11806844915E+02  0.00000000000E+00 0.  1.
         21    1    1    2  503  502  0.51914617198E+01  0.24561340639E+02  0.61502623772E+01  0.25846401221E+02  0.00000000000E+00 0.  1.
         21    1    1    2  504  501 -0.51914617198E+01 -0.24561340639E+02  0.78475497206E+02  0.82393048193E+02  0.00000000000E+00 0.  1.
</event>
<event>
 4    1  0.1725802E+006  0.2512355E+02  0.7546771E-02  0.1467426E+00
         21   -1    0    0  502  501  0.00000000000E+00  0.00000000000E+00  0.78841958121E+00  0.78841958121E+00  0.00000000000E+00 0.  1.
         21   -1    0    0  504  502 -0.00000000000E+00 -0.00000000000E+00 -0.10615420249E+04  0.10615420249E+04  0.00000000000E+00 0. -1.
         21    1    1    2  503  501 -0.24744576478E+02 -0.43472591075E+01 -0.26701673405E+03  0.26819606446E+03  0.00000000000E+00 0.  1.
         21    1    1    2  504  503  0.24744576478E+02  0.43472591075E+01 -0.79373687125E+03  0.79413438000E+03  0.00000000000E+00 0. -1.
</event>
<event>
 4    1  0.1725802E+006  0.2221063E+02  0.7546771E-02  0.1502655E+00
         21   -1    0    0  504  501  0.00000000000E+00  0.00000000000E+00  0.10729451769E+03  0.10729451769E+03  0.00000000000E+00 0.  1.
         21   -1    0    0  503  502 -0.00000000000E+00 -0.00000000000E+00 -0.47094579541E+01  0.47094579541E+01  0.00000000000E+00 0.  1.
         21    1    1    2  503  501 -0.10046590562E+02  0.19808538047E+02  0.59917982623E+02  0.63902087627E+02  0.00000000000E+00 0.  1.
         21    1    1    2  504  502  0.10046590562E+02 -0.19808538047E+02  0.42667077113E+02  0.48101888018E+02  0.00000000000E+00 0.  1.
</event>
<event>
 4    1  0.1725802E+006  0.4060142E+02  0.7546771E-02  0.1344997E+00
         21   -1    0    0  503  501  0.00000000000E+00  0.00000000000E+00  0.18008809231E+03  0.18008809231E+03  0.00000000000E+00 0. -1.
         21   -1    0    0  501  502 -0.00000000000E+00 -0.00000000000E+00 -0.64690895386E+02  0.64690895386E+02  0.00000000000E+00 0. -1.
         21    1    1    2  503  504  0.25266631366E+01  0.40522722769E+02  0.17109896824E+03  0.17585031140E+03  0.00000000000E+00 0. -1.
         21    1    1    2  504  502 -0.25266631366E+01 -0.40522722769E+02 -0.55701771319E+02  0.68928676291E+02  0.00000000000E+00 0. -1.
</event>
<event>
 4    1  0.1725802E+006  0.3019256E+02  0.7546771E-02  0.1417930E+00
         21   -1    0    0  504  501  0.00000000000E+00  0.00000000000E+00  0.41707612244E+03  0.41707612244E+03  0.00000000000E+00 0.  1.
         21   -1    0    0  501  502 -0.00000000000E+00 -0.00000000000E+00 -0.53039632602E+01  0.53039632602E+01  0.00000000000E+00 0. -1.
         21    1    1    2  503  502  0.40512754143E+01  0.29919526823E+02  0.43954468102E+02  0.53325286534E+02  0.00000000000E+00 0. -1.
         21    1    1    2  504  503 -0.40512754143E+01 -0.29919526823E+02  0.36781769108E+03  0.36905479917E+03  0.00000000000E+00 0.  1.
</event>
<event>
 4    1  0.1725802E+006  0.2872919E+02  0.7546771E-02  0.1430971E+00
         21   -1    0    0  503  501  0.00000000000E+00  0.00000000000E+00  0.19148864524E+04  0.19148864524E+04  0.00000000000E+00 0. -1.
         21   -1    0    0  504  502 -0.00000000000E+00 -0.00000000000E+00 -0.13625121053E+03  0.13625121053E+03  0.00000000000E+00 0. -1.
         21    1    1    2  503  502  0.26085614084E+02  0.12037740714E+02  0.19132629904E+04  0.19134786743E+04  0.00000000000E+00 0. -1.
         21    1    1    2  504  501 -0.26085614084E+02 -0.12037740714E+02 -0.13462774857E+03  0.13765898862E+03  0.00000000000E+00 0. -1.
</event>
<event>
 4    1  0.1725802E+006  0.2838839E+02  0.7546771E-02  0.1434139E+00
         21   -1    0    0  504  501  0.00000000000E+00  0.00000000000E+00  0.25380519603E+02  0.25380519603E+02  0.00000000000E+00 0.  1.
         21   -1    0    0  503  502 -0.00000000000E+00 -0.00000000000E+00 -0.43398060812E+02  0.43398060812E+02  0.00000000000E+00 0.  1.
         21    1    1    2  503  501  0.18069764291E+02  0.21894846422E+02  0.88053358061E+01  0.29722628081E+02  0.00000000000E+00 0.  1.
         21    1    1    2  504  502 -0.18069764291E+02 -0.21894846422E+02 -0.26822877015E+02  0.39055952334E+02  0.00000000000E+00 0.  1.
</event>
<event>
 4    1  0.1725802E+006  0.2161835E+02  0.7546771E-02  0.1510617E+00
         21   -1    0    0  504  501  0.00000000000E+00  0.00000000000E+00  0.46488892873E+02  0.46488892873E+02  0.00000000000E+00 0.  1.
         21   -1    0    0  501  502 -0.00000000000E+00 -0.00000000000E+00 -0.15662745948E+02  0.15662745948E+02  0.00000000000E+00 0.  1.
         21    1    1    2  503  502  0.13408919819E+02  0.16957418267E+02 -0.31846576077E+01  0.21851663760E+02  0.00000000000E+00 0.  1.
         21    1    1    2  504  503 -0.13408919819E+02 -0.16957418267E+02  0.34010804532E+02  0.40299975061E+02  0.00000000000E+00 0.  1.
</event>
<event>
 4    1  0.1725802E+006  0.2115939E+02  0.7546771E-02  0.1517001E+00
         21   -1    0    0  502  501  0.00000000000E+00  0.00000000000E+00  0.55089929476E+03  0.55089929476E+03  0.00000000000E+00 0. -1.
         21   -1    0    0  503  502 -0.00000000000E+00 -0.00000000000E+00 -0.14632040914E+01  0.14632040914E+01  0.00000000000E+00 0. -1.
         21    1    1    2  503  504 -0.76042554436E+01  0.19745763703E+02  0.90571187850E+02  0.93009999213E+02  0.00000000000E+00 0. -1.
         21    1    1    2  504  501  0.76042554436E+01 -0.19745763703E+02  0.45886490281E+03  0.45935249963E+03  0.00000000000E+00 0. -1.
</event>
<event>
 4    1  0.1725802E+006  0.2451596E+02  0.7546771E-02  0.1474292E+00
         21   -1    0    0  504  501  0.00000000000E+00  0.00000000000E+00  0.24332740081E+03  0.24332740081E+03  0.00000000000E+00 0.  1.
         21   -1    0    0  503  502 -0.00000000000E+00 -0.00000000000E+00 -0.11243894491E+02  0.11243894491E+02  0.00000000000E+00 0. -1.
         21    1    1    2  503  501 -0.23999581022E+02  0.50052374515E+01  0.36030377610E+01  0.24779309359E+02  0.00000000000E+00 0. -1.
         21    1    1    2  504  502  0.23999581022E+02 -0.50052374515E+01  0.22848046856E+03  0.22979198594E+03  0.00000000000E+00 0.  1.
</event>
<event>
 4    1  0.1725802E+006  0.2258090E+02  0.7546771E-02  0.1497829E+00
         21   -1    0    0  503  501  0.00000000000E+00  0.00000000000E+00  0.51309683064E+03  0.51309683064E+03  0.00000000000E+00 0.  1.
         21   -1    0    0  504  502 -0.00000000000E+00 -0.00000000000E+00 -0.14466296803E+01  0.14466296803E+01  0.00000000000E+00 0.  1.
         21    1    1    2  503  502  0.80338423921E+01 -0.21103420166E+02  0.39977065805E+03  0.40040788704E+03  0.00000000000E+00 0.  1.
         21    1    1    2  504  501 -0.80338423921E+01  0.21103420166E+02  0.11187954291E+03  0.11413557328E+03  0.00000000000E+00 0.  1.
</event>
<event>
 4    1  0.1725802E+006  0.3003942E+02  0.7546771E-02  0.1419254E+00
         21   -1    0    0  502  501  0.00000000000E+00  0.00000000000E+00  0.65917531203E+03  0.65917531203E+03  0.00000000000E+00 0.  1.
         21   -1    0    0  503  502 -0.00000000000E+00 -0.00000000000E+00 -0.78798767977E+02  0.78798767977E+02  0.00000000000E+00 0. -1.
         21    1    1    2  503  504  0.21995457372E+02  0.20458901539E+02 -0.75579608678E+02  0.81330461975E+02  0.00000000000E+00 0. -1.
         21    1    1    2  504  501 -0.21995457372E+02 -0.20458901539E+02  0.65595615273E+03  0.65664361803E+03  0.00000000000E+00 0.  1.
</event>
<event>
 4    1  0.1725802E+006  0.4886072E+02  0.7546771E-02  0.1303189E+00
         21   -1    0    0  504  501  0.00000000000E+00  0.00000000000E+00  0.42941724157E+03  0.42941724157E+03  0.00000000000E+00 0. -1.
         21   -1    0    0  501  502 -0.00000000000E+00 -0.00000000000E+00 -0.19485113344E+02  0.19485113344E+02  0.00000000000E+00 0. -1.
         21    1    1    2  503  502 -0.34906253986E+02 -0.34189522057E+02  0.15218292462E+02  0.51175838159E+02  0.00000000000E+00 0. -1.
         21    1    1    2  504  503  0.34906253986E+02  0.34189522057E+02  0.39471383576E+03  0.39772651675E+03  0.00000000000E+00 0. -1.
</event>
<event>
 4    1  0.1725802E+006  0.2056447E+02  0.7546771E-02  0.1525575E+00
         21   -1    0    0  502  501  0.00000000000E+00  0.00000000000E+00  0.82182160610E+03  0.82182160610E+03  0.00000000000E+00 0. -1.
         21   -1    0    0  503  502 -0.00000000000E+00 -0.00000000000E+00 -0.19623530261E+02  0.19623530261E+02  0.00000000000E+00 0.  1.
         21    1    1    2  503  504 -0.36372001007E+01  0.20240261425E+02 -0.14070607070E+02  0.24917451524E+02  0.00000000000E+00 0.  1.
         21    1    1    2  504  501  0.36372001007E+01 -0.20240261425E+02  0.81626868291E+03  0.81652768484E+03  0.00000000000E+00 0. -1.
</event>
<event>
 4    1  0.1725802E+006  0.2692656E+02  0.7546771E-02  0.1448347E+00
         21   -1    0    0  503  501  0.00000000000E+00  0.00000000000E+00  0.55334035663E+02  0.55334035663E+02  0.00000000000E+00 0.  1.
         21   -1    0    0  504  502 -0.00000000000E+00 -0.00000000000E+00 -0.28412325219E+02  0.28412325219E+02  0.00000000000E+00 0.  1.
         21    1    1    2  503  502  0.26907828598E+02 -0.10040573176E+01  0.44197837373E+02  0.51754112874E+02  0.00000000000E+00 0.  1.
         21    1    1    2  504  501 -0.26907828598E+02  0.10040573176E+01 -0.17276126928E+02  0.31992248008E+02  0.00000000000E+00 0.  1.
</event>
<event>
 4    1  0.1725802E+006  0.2167619E+02  0.7546771E-02  0.1509826E+00
         21   -1    0    0  504  501  0.00000000000E+00  0.00000000000E+00  0.38548856425E+01  0.38548856425E+01  0.00000000000E+00 0. -1.
         21   -1    0    0  503  502 -0.00000000000E+00 -0.00000000000E+00 -0.51994650924E+03  0.51994650924E+03  0.00000000000E+00 0. -1.
         21    1    1    2  503  501 -0.18528823652E+02 -0.11248994400E+02 -0.28889520343E+02  0.36117330557E+02  0.00000000000E+00 0. -1.
         21    1    1    2  504  502  0.18528823652E+02  0.11248994400E+02 -0.48720210325E+03  0.48768406432E+03  0.00000000000E+00 0. -1.
</event>
<event>
 4    1  0.1725802E+006  0.2323956E+02  0.7546771E-02  0.1489512E+00
         21   -1    0    0  504  501  0.00000000000E+00  0.00000000000E+00  0.94026275455E+03  0.94026275455E+03  0.00000000000E+00 0. -1.
         21   -1    0    0  503  502 -0.00000000000E+00 -0.00000000000E+00 -0.49090445082E+01  0.49090445082E+01  0.00000000000E+00 0.  1.
         21    1    1    2  503  501 -0.38015048655E+01  0.22926531683E+02  0.91175513363E+03  0.91205126007E+03  0.00000000000E+00 0. -1.
         21    1    1    2  504  502  0.38015048655E+01 -0.22926531683E+02  0.23598576414E+02  0.33120538991E+02  0.00000000000E+00 0.  1.
</event>
<event>
 4    1  0.1725802E+006  0.4338200E+02  0.7546771E-02  0.1329731E+00
         21   -1    0    0  504  501  0.00000000000E+00  0.00000000000E+00  0.17751114820E+03  0.17751114820E+03  0.00000000000E+00 0. -1.
         21   -1    0    0  503  502 -0.00000000000E+00 -0.00000000000E+00 -0.11051515313E+02  0.11051515313E+02  0.00000000000E+00 0. -1.
         21    1    1    2  503  501  0.25272971658E+02  0.35260104513E+02  0.10224144581E+03  0.11106444664E+03  0.00000000000E+00 0. -1.
         21    1    1    2  504  502 -0.25272971658E+02 -0.35260104513E+02  0.64218187077E+02  0.77498216871E+02  0.00000000000E+00 0. -1.
</event>
<event>
 4    1  0.1725802E+006  0.3585387E+02  0.7546771E-02  0.1374658E+00
         21   -1    0    0  504  501  0.00000000000E+00  0.00000000000E+00  0.13298248627E+03  0.13298248627E+03  0.00000000000E+00 0.  1.
         21   -1    0    0  503  502 -0.00000000000E+00 -0.00000000000E+00 -0.99567252319E+01  0.99567252319E+01  0.00000000000E+00 0.  1.
         21    1    1    2  503  501  0.44084660745E+01  0.35581817020E+02  0.49314853263E+02  0.60970935928E+02  0.00000000000E+00 0.  1.
         21    1    1    2  504  502 -0.44084660745E+01 -0.35581817020E+02  0.73710907773E+02  0.81968275572E+02  0.00000000000E+00 0.  1.
</event>
<event>
 4    1  0.1725802E+006  0.2491266E+02  0.7546771E-02  0.1469783E+00
         21   -1    0    0  503  501  0.00000000000E+00  0.00000000000E+00  0.40804708168E+03  0.40804708168E+03  0.00000000000E+00 0. -1.
         21   -1    0    0  504  502 -0.00000000000E+00 -0.00000000000E+00 -0.17237872324E+01  0.17237872324E+01  0.00000000000E+00 0.  1.
         21    1    1    2  503  502 -0.19609465107E+02  0.15365852861E+02  0.13288887606E+03  0.13520389764E+03  0.00000000000E+00 0.  1.
         21    1    1    2  504  501  0.19609465107E+02 -0.15365852861E+02  0.27343441839E+03  0.27456697127E+03  0.00000000000E+00 0. -1.
</event>
<event>
 4    1  0.1725802E+006  0.2125457E+02  0.7546771E-02  0.1515661E+00
         21   -1    0    0  503  501  0.00000000000E+00  0.00000000000E+00  0.43817808996E+01  0.43817808996E+01  0.00000000000E+00 0.  1.
         21   -1    0    0  504  502 -0.00000000000E+00 -0.00000000000E+00 -0.10587138346E+03  0.10587138346E+03  0.00000000000E+00 0.  1.
         21    1    1    2  503  502 -0.20251647230E+02  0.64519380891E+01 -0.59665677409E+02  0.63338375265E+02  0.00000000000E+00 0.  1.
         21    1    1    2  504  501  0.20251647230E+02 -0.64519380891E+01 -0.41823925151E+02  0.46914789094E+02  0.00000000000E+00 0.  1.
</event>
<event>
 4    1  0.1725802E+006  0.3733108E+02  0.7546771E-02  0.1364878E+00
         21   -1    0    0  503  501  0.00000000000E+00  0.00000000000E+00  0.46471862115E+03  0.46471862115E+03  0.00000000000E+00 0.  1.
         21   -1    0    0  504  502 -0.00000000000E+00 -0.00000000000E+00 -0.21049800171E+02  0.21049800171E+02  0.00000000000E+00 0. -1.
         21    1    1    2  503  502  0.31082935945E+02 -0.20675115682E+02 -0.30843295643E+01  0.37458275511E+02  0.00000000000E+00 0. -1.
         21    1    1    2  504  501 -0.31082935945E+02  0.20675115682E+02  0.44675315054E+03  0.44831014581E+03  0.00000000000E+00 0.  1.
</event>
<event>
 4    1  0.1725802E+006  0.2895387E+02  0.7546771E-02  0.1428910E+00
         21   -1    0    0  504  501  0.00000000000E+00  0.00000000000E+00  0.17353768778E+03  0.17353768778E+03  0.00000000000E+00 0.  1.
         21   -1    0    0  503  502 -0.00000000000E+00 -0.00000000000E+00 -0.13372299718E+02  0.13372299718E+02  0.00000000000E+00 0.  1.
         21    1    1    2  503  501 -0.27634480224E+02  0.86407083541E+01  0.53920064440E+01  0.29451656517E+02  0.00000000000E+00 0.  1.
         21    1    1    2  504  502  0.27634480224E+02 -0.86407083541E+01  0.15477338161E+03  0.15745833098E+03  0.00000000000E+00 0.  1.
</event>
<event>
 4    1  0.1725802E+006  0.2956195E+02  0.7546771E-02  0.1423442E+00
         21   -1    0    0  503  501  0.00000000000E+00  0.00000000000E+00  0.35207371232E+01  0.35207371232E+01  0.00000000000E+00 0.  1.
         21   -1    0    0  504  502 -0.00000000000E+00 -0.00000000000E+00 -0.55047707522E+03  0.55047707522E+03  0.00000000000E+00 0. -1.
         21    1    1    2  503  502 -0.72674397316E+01 -0.28654721626E+02 -0.47873538385E+03  0.47964724173E+03  0.00000000000E+00 0. -1.
         21    1    1    2  504  501  0.72674397316E+01  0.28654721626E+02 -0.68220954240E+02  0.74350570604E+02  0.00000000000E+00 0.  1.
</event>
<event>
 4    1  0.1725802E+006  0.2323129E+02  0.7546771E-02  0.1489614E+00
         21   -1    0    0  503  501  0.00000000000E+00  0.00000000000E+00  0.78320283114E+01  0.78320283114E+01  0.00000000000E+00 0.  1.
         21   -1    0    0  504  502 -0.00000000000E+00 -0.00000000000E+00 -0.79952298679E+02  0.79952298679E+02  0.00000000000E+00 0.  1.
         21    1    1    2  503  502 -0.88483083457E+01  0.21480234946E+02 -0.19747225682E+02  0.30490096360E+02  0.00000000000E+00 0.  1.
         21    1    1    2  504  501  0.88483083457E+01 -0.21480234946E+02 -0.52373044685E+02  0.57294230630E+02  0.00000000000E+00 0.  1.
</event>
<event>
 4    1  0.1725802E+006  0.2111790E+02  0.7546771E-02  0.1517588E+00
         21   -1    0    0  503  501  0.00000000000E+00  0.00000000000E+00  0.28089023193E+01  0.28089023193E+01  0.00000000000E+00 0. -1.
         21   -1    0    0  504  502 -0.00000000000E+00 -0.00000000000E+00 -0.58909632505E+03  0.58909632505E+03  0.00000000000E+00 0.  1.
         21    1    1    2  503  502  0.86415556512E+01  0.19268861553E+02 -0.40197206362E+02  0.45406837689E+02  0.00000000000E+00 0. -1.
         21    1    1    2  504  501 -0.86415556512E+01 -0.19268861553E+02 -0.54609021637E+03  0.54649838968E+03  0.00000000000E+00 0.  1.
</event>
<event>
 4    1  0.1725802E+006  0.2648195E+02  0.7546771E-02  0.1452883E+00
         21   -1    0    0  504  501  0.00000000000E+00  0.00000000000E+00  0.75973124803E+02  0.75973124803E+02  0.00000000000E+00 0. -1.
         21   -1    0    0  503  502 -0.00000000000E+00 -0.00000000000E+00 -0.25535002044E+02  0.25535002044E+02  0.00000000000E+00 0.  1.
         21    1    1    2  503  501 -0.16206131893E+02 -0.20944085227E+02 -0.15336696511E+02  0.30602412925E+02  0.00000000000E+00 0.  1.
         21    1    1    2  504  502  0.16206131893E+02  0.20944085227E+02  0.65774819269E+02  0.70905713923E+02  0.00000000000E+00 0. -1.
</event>
<event>
 4    1  0.1725802E+006  0.2746704E+02  0.7546771E-02  0.1442972E+00
         21   -1    0    0  503  501  0.00000000000E+00  0.00000000000E+00  0.21003957463E+01  0.21003957463E+01  0.00000000000E+00 0.  1.
         21   -1    0    0  501  502 -0.00000000000E+00 -0.00000000000E+00 -0.51014423612E+03  0.51014423612E+03  0.00000000000E+00 0.  1.
         21    1    1    2  503  504 -0.19924382918E+02  0.18906538797E+02 -0.11469803731E+03  0.11794099375E+03  0.00000000000E+00 0.  1.
         21    1    1    2  504  502  0.19924382918E+02 -0.18906538797E+02 -0.39334580306E+03  0.39430363812E+03  0.00000000000E+00 0.  1.
</event>
<event>
 4    1  0.1725802E+006  0.2355731E+02  0.7546771E-02  0.1485616E+00
         21   -1    0    0  504  501  0.00000000000E+00  0.00000000000E+00  0.28688370837E+03  0.28688370837E+03  0.00000000000E+00 0.  1.
         21   -1    0    0  501  502 -0.00000000000E+00 -0.00000000000E+00 -0.13840731005E+02  0.13840731005E+02  0.00000000000E+00 0.  1.
         21    1    1    2  503  502 -0.20014201508E+02  0.12424918076E+02 -0.29380593592E+01  0.23739819797E+02  0.00000000000E+00 0.  1.
         21    1    1    2  504  503  0.20014201508E+02 -0.12424918076E+02  0.27598103672E+03  0.27698461957E+03  0.00000000000E+00 0.  1.
</event>
<event>
 4    1  0.1725802E+006  0.2122607E+02  0.7546771E-02  0.1516061E+00
         21   -1    0    0  504  501  0.00000000000E+00  0.00000000000E+00  0.33784258984E+01  0.33784258984E+01  0.00000000000E+00 0. -1.
         21   -1    0    0  503  502 -0.00000000000E+00 -0.00000000000E+00 -0.11163895708E+04  0.11163895708E+04  0.00000000000E+00 0. -1.
         21    1    1    2  503  501  0.43832836668E+01  0.20768558112E+02 -0.31125608170E+02  0.37674257335E+02  0.00000000000E+00 0. -1.
         21    1    1    2  504  502 -0.43832836668E+01 -0.20768558112E+02 -0.10818855368E+04  0.10820937394E+04  0.00000000000E+00 0. -1.
</event>
<event>
 4    1  0.1725802E+006  0.4897873E+02  0.7546771E-02  0.1302662E+00
         21   -1    0    0  504  501  0.00000000000E+00  0.00000000000E+00  0.13281762197E+03  0.13281762197E+03  0.00000000000E+00 0. -1.
         21   -1    0    0  503  502 -0.00000000000E+00 -0.00000000000E+00 -0.20089099537E+02  0.20089099537E+02  0.00000000000E+00 0. -1.
         21    1    1    2  503  501 -0.39287208426E+02 -0.29247749331E+02  0.80651780535E+02  0.94359023365E+02  0.00000000000E+00 0. -1.
         21    1    1    2  504  502  0.39287208426E+02  0.29247749331E+02  0.32076741895E+02  0.58547698140E+02  0.00000000000E+00 0. -1.
</event>
<event>
 4    1  0.1725802E+006  0.2176362E+02  0.7546771E-02  0.1508636E+00
         21   -1    0    0  504  501  0.00000000000E+00  0.00000000000E+00  0.17517251176E+03  0.17517251176E+03  0.00000000000E+00 0.  1.
         21   -1    0    0  503  502 -0.00000000000E+00 -0.00000000000E+00 -0.27147450065E+01  0.27147450065E+01  0.00000000000E+00 0. -1.
         21    1    1    2  503  501 -0.21466115448E+02 -0.35862184479E+01  0.91841488514E+02  0.94384925108E+02  0.00000000000E+00 0.  1.
         21    1    1    2  504  502  0.21466115448E+02  0.35862184479E+01  0.80616278236E+02  0.83502331655E+02  0.00000000000E+00 0. -1.
</event>
<event>
 4    1  0.1725802E+006  0.2592957E+02  0.7546771E-02  0.1458668E+00
         21   -1    0    0  503  501  0.00000000000E+00  0.00000000000E+00  0.24403012255E+02  0.24403012255E+02  0.00000000000E+00 0. -1.
         21   -1    0    0  504  502 -0.00000000000E+00 -0.00000000000E+00 -0.60503038087E+02  0.60503038087E+02  0.00000000000E+00 0. -1.
         21    1    1    2  503  502  0.24902467207E+02  0.72256272681E+01  0.13279749049E+02  0.29132358250E+02  0.00000000000E+00 0. -1.
         21    1    1    2  504  501 -0.24902467207E+02 -0.72256272681E+01 -0.49379774881E+02  0.55773692093E+02  0.00000000000E+00 0. -1.
</event>
<event>
 4    1  0.1725802E+006  0.3569543E+02  0.7546771E-02  0.1375739E+00
         21   -1    0    0  504  501  0.00000000000E+00  0.00000000000E+00  0.35323136060E+02  0.35323136060E+02  0.00000000000E+00 0.  1.
         21   -1    0    0  501  502 -0.00000000000E+00 -0.00000000000E+00 -0.52947640829E+02  0.52947640829E+02  0.00000000000E+00 0. -1.
         21    1    1    2  503  502 -0.21779086162E+02 -0.28281360637E+02 -0.33729394597E+02  0.49110447090E+02  0.00000000000E+00 0. -1.
         21    1    1    2  504  503  0.21779086162E+02  0.28281360637E+02  0.16104889828E+02  0.39160329798E+02  0.00000000000E+00 0.  1.
</event>
<event>
 4    1  0.1725802E+006  0.2496999E+02  0.7546771E-02  0.1469139E+00
         21   -1    0    0  504  501  0.00000000000E+00  0.00000000000E+00  0.70348573163E+02  0.70348573163E+02  0.00000000000E+00 0. -1.
         21   -1    0    0  503  502 -0.00000000000E+00 -0.00000000000E+00 -0.10532242543E+04  0.10532242543E+04  0.00000000000E+00 0.  1.
         21    1    1    2  503  501  0.11120113874E+02  0.22357179830E+02 -0.10508555088E+04  0.10511521302E+04  0.00000000000E+00 0.  1.
         21    1    1    2  504  502 -0.11120113874E+02 -0.22357179830E+02  0.67979827671E+02  0.72420697268E+02  0.00000000000E+00 0. -1.
</event>
<event>
 4    1  0.1725802E+006  0.2714599E+02  0.7546771E-02  0.1446147E+00
         21   -1    0    0  503  501  0.00000000000E+00  0.00000000000E+00  0.28108676519E+02  0.28108676519E+02  0.00000000000E+00 0. -1.
         21   -1    0    0  501  502 -0.00000000000E+00 -0.00000000000E+00 -0.40077841827E+02  0.40077841827E+02  0.00000000000E+00 0. -1.
         21    1    1    2  503  504 -0.26665288535E+02  0.50859633416E+01  0.14065797254E+02  0.30573702559E+02  0.00000000000E+00 0. -1.
         21    1    1    2  504  502  0.26665288535E+02 -0.50859633416E+01 -0.26034962563E+02  0.37612815787E+02  0.00000000000E+00 0. -1.
</event>
<event>
 4    1  0.1725802E+006  0.2152855E+02  0.7546771E-02  0.1511851E+00
         21   -1    0    0  503  501  0.00000000000E+00  0.00000000000E+00  0.14558989670E+03  0.14558989670E+03  0.00000000000E+00 0.  1.
         21   -1    0    0  504  502 -0.00000000000E+00 -0.00000000000E+00 -0.32329674621E+01  0.32329674621E+01  0.00000000000E+00 0.  1.
         21    1    1    2  503  502 -0.77934514198E+01  0.20068401423E+02  0.80387289339E+02  0.83220159264E+02  0.00000000000E+00 0.  1.
         21    1    1    2  504  501  0.77934514198E+01 -0.20068401423E+02  0.61969639900E+02  0.65602704899E+02  0.00000000000E+00 0.  1.
</event>
<event>
 4    1  0.1725802E+006  0.3583436E+02  0.7546771E-02  0.1374790E+00
         21   -1    0    0  504  501  0.00000000000E+00  0.00000000000E+00  0.26418502751E+03  0.26418502751E+03  0.00000000000E+00 0. -1.
         21   -1    0    0  503  502 -0.00000000000E+00 -0.00000000000E+00 -0.12027700217E+02  0.12027700217E+02  0.00000000000E+00 0.  1.
         21    1    1    2  503  501  0.22143484392E+02  0.28173882250E+02  0.19469706108E+02  0.40781993551E+02  0.00000000000E+00 0.  1.
         21    1    1    2  504  502 -0.22143484392E+02 -0.28173882250E+02  0.23268762118E+03  0.23543073417E+03  0.00000000000E+00 0. -1.
</event>
<event>
 4    1  0.1725802E+006  0.2234105E+02  0.7546771E-02  0.1500943E+00
         21   -1    0    0  502  501  0.00000000000E+00  0.00000000000E+00  0.66540980936E+03  0.66540980936E+03  0.00000000000E+00 0. -1.
         21   -1    0    0  503  502 -0.00000000000E+00 -0.00000000000E+00 -0.39345412984E+02  0.39345412984E+02  0.00000000000E+00 0.  1.
         21    1    1    2  503  504 -0.53929684550E+01 -0.21680373465E+02 -0.35970308824E+02  0.42343663271E+02  0.00000000000E+00 0.  1.
         21    1    1    2  504  501  0.53929684550E+01  0.21680373465E+02  0.66203470520E+03  0.66241155907E+03  0.00000000000E+00 0. -1.
</event>
<event>
 4    1  0.1725802E+006  0.2006259E+02  0.7546771E-02  0.1533081E+00
         21   -1    0    0  502  501  0.00000000000E+00  0.00000000000E+00  0.26029410899E+01  0.26029410899E+01  0.00000000000E+00 0. -1.
         21   -1    0    0  504  502 -0.00000000000E+00 -0.00000000000E+00 -0.35395571459E+03  0.35395571459E+03  0.00000000000E+00 0. -1.
         21    1    1    2  503  501 -0.15270996418E+02 -0.13011696505E+02 -0.41893058620E+02  0.46449283505E+02  0.00000000000E+00 0. -1.
         21    1    1    2  504  503  0.15270996418E+02  0.13011696505E+02 -0.30945971488E+03  0.31010937217E+03  0.00000000000E+00 0. -1.
</event>
<event>
 4    1  0.1725802E+006  0.2326934E+02  0.7546771E-02  0.1489143E+00
         21   -1    0    0  504  501  0.00000000000E+00  0.00000000000E+00  0.34738599713E+03  0.34738599713E+03  0.00000000000E+00 0.  1.
         21   -1    0    0  503  502 -0.00000000000E+00 -0.00000000000E+00 -0.11788194439E+03  0.11788194439E+03  0.00000000000E+00 0. -1.
         21    1    1    2  503  501  0.16853390416E+02  0.16044481468E+02  0.34584289591E+03  0.34662482716E+03  0.00000000000E+00 0.  1.
         21    1    1    2  504  502 -0.16853390416E+02 -0.16044481468E+02 -0.11633884318E+03  0.11864311436E+03  0.00000000000E+00 0. -1.
</event>
<event>
 4    1  0.1725802E+006  0.2290107E+02  0.7546771E-02  0.1493744E+00
         21   -1    0    0  504  501  0.00000000000E+00  0.00000000000E+00  0.13464453033E+03  0.13464453033E+03  0.00000000000E+00 0. -1.
         21   -1    0    0  503  502 -0.00000000000E+00 -0.00000000000E+00 -0.43861717496E+01  0.43861717496E+01  0.00000000000E+00 0.  1.
         21    1    1    2  503  501 -0.17612784569E+02 -0.14637237849E+02  0.88388335266E+02  0.91306936885E+02  0.00000000000E+00 0. -1.
         21    1    1    2  504  502  0.17612784569E+02  0.14637237849E+02  0.41870023319E+02  0.47723765200E+02  0.00000000000E+00 0.  1.
</event>
<event>
 4    1  0.1725802E+006  0.2223339E+02  0.7546771E-02  0.1502356E+00
         21   -1    0    0  504  501  0.00000000000E+00  0.00000000000E+00  0.35070543369E+02  0.35070543369E+02  0.00000000000E+00 0.  1.
         21   -1    0    0  503  502 -0.00000000000E+00 -0.00000000000E+00 -0.14157566276E+02  0.14157566276E+02  0.00000000000E+00 0. -1.
         21    1    1    2  503  501 -0.21318840764E+02  0.63111380646E+01  0.12091234493E+02  0.25308523994E+02  0.00000000000E+00 0.  1.
         21    1    1    2  504  502  0.21318840764E+02 -0.63111380646E+01  0.88217426000E+01  0.23919585651E+02  0.00000000000E+00 0. -1.
</event>
<event>
 4    1  0.1725802E+006  0.2560154E+02  0.7546771E-02  0.1462185E+00
         21   -1    0    0  502  501  0.00000000000E+00  0.00000000000E+00  0.17340915931E+02  0.17340915931E+02  0.00000000000E+00 0. -1.
         21   -1    0    0  504  502 -0.00000000000E+00 -0.00000000000E+00 -0.42687855941E+02  0.42687855941E+02  0.00000000000E+00 0. -1.
         21    1    1    2  503  501 -0.18256503062E+02 -0.17948233541E+02 -0.25142940556E+01  0.25724709248E+02  0.00000000000E+00 0. -1.
         21    1    1    2  504  503  0.18256503062E+02  0.17948233541E+02 -0.22832645954E+02  0.34304062625E+02  0.00000000000E+00 0. -1.
</event>
<event>
 4    1  0.1725802E+006  0.6127400E+02  0.7546771E-02  0.1255564E+00
         21   -1    0    0  504  501  0.00000000000E+00  0.00000000000E+00  0.36177393166E+02  0.36177393166E+02  0.00000000000E+00 0. -1.
         21   -1    0    0  503  502 -0.00000000000E+00 -0.00000000000E+00 -0.21159372182E+03  0.21159372182E+03  0.00000000000E+00 0. -1.
         21    1    1    2  503  501  0.34188235214E+02  0.50849461120E+02  0.72304653419E+00  0.61278266290E+02  0.00000000000E+00 0. -1.
         21    1    1    2  504  502 -0.34188235214E+02 -0.50849461120E+02 -0.17613937519E+03  0.18649284870E+03  0.00000000000E+00 0. -1.
</event>
<event>
 4    1  0.1725802E+006  0.2677320E+02  0.7546771E-02  0.1449900E+00
         21   -1    0    0  504  501  0.00000000000E+00  0.00000000000E+00  0.68745021543E+02  0.68745021543E+02  0.00000000000E+00 0.  1.
         21   -1    0    0  503  502 -0.00000000000E+00 -0.00000000000E+00 -0.12018288340E+03  0.12018288340E+03  0.00000000000E+00 0.  1.
         21    1    1    2  503  501  0.12487764296E+02  0.23682479307E+02  0.64554243697E+02  0.69886010493E+02  0.00000000000E+00 0.  1.
         21    1    1    2  504  502 -0.12487764296E+02 -0.23682479307E+02 -0.11599210556E+03  0.11904189445E+03  0.00000000000E+00 0.  1.
</event>
<event>
 4    1  0.1725802E+006  0.2339743E+02  0.7546771E-02  0.1487567E+00
         21   -1    0    0  502  501  0.00000000000E+00  0.00000000000E+00  0.96447116200E+02  0.96447116200E+02  0.00000000000E+00 0. -1.
         21   -1    0    0  503  502 -0.00000000000E+00 -0.00000000000E+00 -0.57726821373E+02  0.57726821373E+02  0.00000000000E+00 0. -1.
         21    1    1    2  503  504  0.22438908281E+02  0.66283703940E+01 -0.53838941838E+02  0.58703249971E+02  0.00000000000E+00 0. -1.
         21    1    1    2  504  501 -0.22438908281E+02 -0.66283703940E+01  0.92559236666E+02  0.95470687601E+02  0.00000000000E+00 0. -1.
</event>
<event>
 4    1  0.1725802E+006  0.2414159E+02  0.7546771E-02  0.1478640E+00
         21   -1    0    0  503  501  0.00000000000E+00  0.00000000000E+00  0.49358625740E+02  0.49358625740E+02  0.00000000000E+00 0.  1.
         21   -1    0    0  501  502 -0.00000000000E+00 -0.00000000000E+00 -0.27671793613E+02  0.27671793613E+02  0.00000000000E+00 0.  1.
         21    1    1    2  503  504 -0.17459992974E+02 -0.16672282940E+02  0.40005596170E+02  0.46725411695E+02  0.00000000000E+00 0.  1.
         21    1    1    2  504  502  0.17459992974E+02  0.16672282940E+02 -0.18318764043E+02  0.30305007658E+02  0.00000000000E+00 0.  1.
</event>
<event>
 4    1  0.1725802E+006  0.2985752E+02  0.7546771E-02  0.1420839E+00
         21   -1    0    0  503  501  0.00000000000E+00  0.00000000000E+00  0.11484592662E+04  0.11484592662E+04  0.00000000000E+00 0. -1.
         21   -1    0    0  504  502 -0.00000000000E+00 -0.00000000000E+00 -0.78153268649E+00  0.78153268649E+00  0.00000000000E+00 0. -1.
         21    1    1    2  503  502  0.54342163032E+01 -0.29358824634E+02  0.62116022526E+03  0.62187739686E+03  0.00000000000E+00 0. -1.
         21    1    1    2  504  501 -0.54342163032E+01  0.29358824634E+02  0.52651750829E+03  0.52736340205E+03  0.00000000000E+00 0. -1.
</event>
<event>
 4    1  0.1725802E+006  0.2133669E+02  0.7546771E-02  0.1514512E+00
         21   -1    0    0  504  501  0.00000000000E+00  0.00000000000E+00  0.40601968752E+01  0.40601968752E+01  0.00000000000E+00 0. -1.
         21   -1    0    0  503  502 -0.00000000000E+00 -0.00000000000E+00 -0.10299983959E+04  0.10299983959E+04  0.00000000000E+00 0.  1.
         21    1    1    2  503  501  0.15099437416E+02  0.15075190071E+02 -0.24892495800E+02  0.32785525970E+02  0.00000000000E+00 0. -1.
         21    1    1    2  504  502 -0.15099437416E+02 -0.15075190071E+02 -0.10010457032E+04  0.10012730668E+04  0.00000000000E+00 0.  1.
</event>
<event>
 4    1  0.1725802E+006  0.2218871E+02  0.7546771E-02  0.1502945E+00
         21   -1    0    0  503  501  0.00000000000E+00  0.00000000000E+00  0.27887091324E+01  0.27887091324E+01  0.00000000000E+00 0.  1.
         21   -1    0    0  504  502 -0.00000000000E+00 -0.00000000000E+00 -0.18132397533E+03  0.18132397533E+03  0.00000000000E+00 0.  1.
         21    1    1    2  503  502 -0.20000374546E+02 -0.96085340270E+01 -0.74326223787E+02  0.77567560556E+02  0.00000000000E+00 0.  1.
         21    1    1    2  504  501  0.20000374546E+02  0.96085340270E+01 -0.10420904241E+03  0.10654512391E+03  0.00000000000E+00 0.  1.
</event>
<event>
 4    1  0.1725802E+006  0.3511641E+02  0.7546771E-02  0.1379747E+00
         21   -1    0    0  503  501  0.00000000000E+00  0.00000000000E+00  0.75077495127E+02  0.75077495127E+02  0.00000000000E+00 0.  1.
         21   -1    0    0  504  502 -0.00000000000E+00 -0.00000000000E+00 -0.16640944484E+02  0.16640944484E+02  0.00000000000E+00 0.  1.
         21    1    1    2  503  502  0.23049217995E+02  0.26493318240E+02  0.23996545673E+02  0.42532300264E+02  0.00000000000E+00 0.  1.
         21    1    1    2  504  501 -0.23049217995E+02 -0.26493318240E+02  0.34440004970E+02  0.49186139347E+02  0.00000000000E+00 0.  1.
</event>
<event>
 4    1  0.1725802E+006  0.3649810E+02  0.7546771E-02  0.1370326E+00
         21   -1    0    0  503  501  0.00000000000E+00  0.00000000000E+00  0.33756806631E+01  0.33756806631E+01  0.00000000000E+00 0.  1.
         21   -1    0    0  504  502 -0.00000000000E+00 -0.00000000000E+00 -0.42065255781E+03  0.42065255781E+03  0.00000000000E+00 0.  1.
         21    1    1    2  503  502 -0.33799000431E+02 -0.13774563455E+02 -0.15589582793E+03  0.16011127442E+03  0.00000000000E+00 0.  1.
         21    1    1    2  504  501  0.33799000431E+02  0.13774563455E+02 -0.26138104922E+03  0.26391696406E+03  0.00000000000E+00 0.  1.
</event>
<event>
 4    1  0.1725802E+006  0.2263954E+02  0.7546771E-02  0.1497075E+00
         21   -1    0    0  503  501  0.00000000000E+00  0.00000000000E+00  0.19618148603E+01  0.19618148603E+01  0.00000000000E+00 0.  1.
         21   -1    0    0  504  502 -0.00000000000E+00 -0.00000000000E+00 -0.31900670145E+03  0.31900670145E+03  0.00000000000E+00 0.  1.
         21    1    1    2  503  502 -0.22636486787E+02 -0.37166178403E+00 -0.22680137279E+03  0.22792852250E+03  0.00000000000E+00 0.  1.
         21    1    1    2  504  501  0.22636486787E+02  0.37166178403E+00 -0.90243513800E+02  0.93039993817E+02  0.00000000000E+00 0.  1.
</event>
<event>
 4    1  0.1725802E+006  0.2051372E+02  0.7546771E-02  0.1526322E+00
         21   -1    0    0  503  501  0.00000000000E+00  0.00000000000E+00  0.52883106124E+01  0.52883106124E+01  0.00000000000E+00 0. -1.
         21   -1    0    0  504  502 -0.00000000000E+00 -0.00000000000E+00 -0.97629396586E+02  0.97629396586E+02  0.00000000000E+00 0. -1.
         21    1    1    2  503  502 -0.10547515544E+02  0.17594393959E+02 -0.24041042811E+02  0.31603552369E+02  0.00000000000E+00 0. -1.
         21    1    1    2  504  501  0.10547515544E+02 -0.17594393959E+02 -0.68300043163E+02  0.71314154829E+02  0.00000000000E+00 0. -1.
</event>
<event>
 4    1  0.1725802E+006  0.2306580E+02  0.7546771E-02  0.1491674E+00
         21   -1    0    0  504  501  0.00000000000E+00  0.00000000000E+00  0.17792445977E+03  0.17792445977E+03  0.00000000000E+00 0. -1.
         21   -1    0    0  503  502 -0.00000000000E+00 -0.00000000000E+00 -0.52630665495E+01  0.52630665495E+01  0.00000000000E+00 0. -1.
         21    1    1    2  503  501 -0.12349911083E+02  0.19481034289E+02  0.26139531170E+02  0.34861240519E+02  0.00000000000E+00 0. -1.
         21    1    1    2  504  502  0.12349911083E+02 -0.19481034289E+02  0.14652186205E+03  0.14832628580E+03  0.00000000000E+00 0. -1.
</event>
<event>
 4    1  0.1725802E+006  0.5621013E+02  0.7546771E-02  0.1273283E+00
         21   -1    0    0  503  501  0.00000000000E+00  0.00000000000E+00  0.71486594907E+03  0.71486594907E+03  0.00000000000E+00 0.  1.
         21   -1    0    0  504  502 -0.00000000000E+00 -0.00000000000E+00 -0.85053892007E+01  0.85053892007E+01  0.00000000000E+00 0.  1.
         21    1    1    2  503  502 -0.45791682121E+02 -0.32599090775E+02  0.60385497031E+03  0.60646550111E+03  0.00000000000E+00 0.  1.
         21    1    1    2  504  501  0.45791682121E+02  0.32599090775E+02  0.10250558956E+03  0.11690583715E+03  0.00000000000E+00 0.  1.
</event>
<event>
 4    1  0.1725802E+006  0.2540837E+02  0.7546771E-02  0.1464286E+00
         21   -1    0    0  503  501  0.00000000000E+00  0.00000000000E+00  0.29172730554E+02  0.29172730554E+02  0.00000000000E+00 0.  1.
         21   -1    0    0  504  502 -0.00000000000E+00 -0.00000000000E+00 -0.31775867973E+02  0.31775867973E+02  0.00000000000E+00 0. -1.
         21    1    1    2  503  502  0.22922297873E+02 -0.10961461005E+02  0.15488837329E+02  0.29757174747E+02  0.00000000000E+00 0.  1.
         21    1    1    2  504  501 -0.22922297873E+02  0.10961461005E+02 -0.18091974747E+02  0.31191423780E+02  0.00000000000E+00 0. -1.
</event>
<event>
 4    1  0.1725802E+006  0.2636277E+02  0.7546771E-02  0.1454116E+00
         21   -1    0    0  503  501  0.00000000000E+00  0.00000000000E+00  0.42522754187E+03  0.42522754187E+03  0.00000000000E+00 0. -1.
         21   -1    0    0  504  502 -0.00000000000E+00 -0.00000000000E+00 -0.21997301852E+02  0.21997301852E+02  0.00000000000E+00 0.  1.
         21    1    1    2  503  502 -0.14347890031E+02  0.22116366238E+02 -0.13529732189E+02  0.29631895940E+02  0.00000000000E+00 0.  1.
         21    1    1    2  504  501  0.14347890031E+02 -0.22116366238E+02  0.41675997220E+03  0.41759294778E+03  0.00000000000E+00 0. -1.
</event>
<event>
 4    1  0.1725802E+006  0.2095787E+02  0.7546771E-02  0.1519867E+00
         21   -1    0    0  503  501  0.00000000000E+00  0.00000000000E+00  0.69590931654E+01  0.69590931654E+01  0.00000000000E+00 0. -1.
         21   -1    0    0  504  502 -0.00000000000E+00 -0.00000000000E+00 -0.68430390929E+02  0.68430390929E+02  0.00000000000E+00 0. -1.
         21    1    1    2  503  502  0.18920249105E+02  0.90142418195E+01 -0.20231284980E+02  0.29129663124E+02  0.00000000000E+00 0. -1.
         21    1    1    2  504  501 -0.18920249105E+02 -0.90142418195E+01 -0.41240012783E+02  0.46259820970E+02  0.00000000000E+00 0. -1.
</event>
<event>
 4    1  0.1725802E+006  0.2066427E+02  0.7546771E-02  0.1524113E+00
         21   -1    0    0  504  501  0.00000000000E+00  0.00000000000E+00  0.12224406679E+02  0.12224406679E+02  0.00000000000E+00 0.  1.
         21   -1    0    0  503  502 -0.00000000000E+00 -0.00000000000E+00 -0.40484290780E+02  0.40484290780E+02  0.00000000000E+00 0.  1.
         21    1    1    2  503  501 -0.14388708455E+02 -0.14831621631E+02 -0.43692536509E+01  0.21121134171E+02  0.00000000000E+00 0.  1.
         21    1    1    2  504  502  0.14388708455E+02  0.14831621631E+02 -0.23890630450E+02  0.31587563288E+02  0.00000000000E+00 0.  1.
</event>
<event>
 4    1  0.1725802E+006  0.2918788E+02  0.7546771E-02  0.1426787E+00
         21   -1    0    0  503  501  0.00000000000E+00  0.00000000000E+00  0.12224634027E+02  0.12224634027E+02  0.00000000000E+00 0.  1.
         21   -1    0    0  501  502 -0.00000000000E+00 -0.00000000000E+00 -0.79542471315E+02  0.79542471315E+02  0.00000000000E+00 0.  1.
         21    1    1    2  503  504  0.12774264458E+02  0.26244059229E+02 -0.17510344730E+02  0.34037400751E+02  0.00000000000E+00 0.  1.
         21    1    1    2  504  502 -0.12774264458E+02 -0.26244059229E+02 -0.49807492558E+02  0.57729704591E+02  0.00000000000E+00 0.  1.
</event>
<event>
 4    1  0.1725802E+006  0.2148156E+02  0.7546771E-02  0.1512499E+00
         21   -1    0    0  503  501  0.00000000000E+00  0.00000000000E+00  0.21488437451E+03  0.21488437451E+03  0.00000000000E+00 0.  1.
         21   -1    0    0  504  502 -0.00000000000E+00 -0.00000000000E+00 -0.21475711302E+01  0.21475711302E+01  0.00000000000E+00 0.  1.
         21    1    1    2  503  502 -0.13136714402E+02  0.16996586557E+02  0.10561474807E+03  0.10777723428E+03  0.00000000000E+00 0.  1.
         21    1    1    2  504  501  0.13136714402E+02 -0.16996586557E+02  0.10712205532E+03  0.10925471136E+03  0.00000000000E+00 0.  1.
</event>
<event>
 4    1  0.1725802E+006  0.2435942E+02  0.7546771E-02  0.1476099E+00
         21   -1    0    0  503  501  0.00000000000E+00  0.00000000000E+00  0.47749349372E+02  0.47749349372E+02  0.00000000000E+00 0. -1.
         21   -1    0    0  504  502 -0.00000000000E+00 -0.00000000000E+00 -0.49971948207E+02  0.49971948207E+02  0.00000000000E+00 0.  1.
         21    1    1    2  503  502  0.21971841965E+02 -0.10517578561E+02 -0.43463094965E+02  0.49823909140E+02  0.00000000000E+00 0.  1.
         21    1    1    2  504  501 -0.21971841965E+02  0.10517578561E+02  0.41240496131E+02  0.47897388438E+02  0.00000000000E+00 0. -1.
</event>
<event>
 4    1  0.1725802E+006  0.2227978E+02  0.7546771E-02  0.1501746E+00
         21   -1    0    0  502  501  0.00000000000E+00  0.00000000000E+00  0.35360095252E+02  0.35360095252E+02  0.00000000000E+00 0.  1.
         21   -1    0    0  503  502 -0.00000000000E+00 -0.00000000000E+00 -0.54565139667E+02  0.54565139667E+02  0.00000000000E+00 0.  1.
         21    1    1    2  503  504  0.18794590774E+02 -0.11964608158E+02 -0.48352048705E+02  0.53238229729E+02  0.00000000000E+00 0.  1.
         21    1    1    2  504  501 -0.18794590774E+02  0.11964608158E+02  0.29147004290E+02  0.36687005190E+02  0.00000000000E+00 0.  1.
</event>
<event>
 4    1  0.1725802E+006  0.2142060E+02  0.7546771E-02  0.1513344E+00
         21   -1    0    0  504  501  0.00000000000E+00  0.00000000000E+00  0.16271614222E+02  0.16271614222E+02  0.00000000000E+00 0. -1.
         21   -1    0    0  503  502 -0.00000000000E+00 -0.00000000000E+00 -0.57099550331E+02  0.57099550331E+02  0.00000000000E+00 0.  1.
         21    1    1    2  503  501 -0.20505646792E+02 -0.61935966340E+01  0.56855578407E+01  0.22162304880E+02  0.00000000000E+00 0. -1.
         21    1    1    2  504  502  0.20505646792E+02  0.61935966340E+01 -0.46513493949E+02  0.51208859673E+02  0.00000000000E+00 0.  1.
</event>
<event>
 4    1  0.1725802E+006  0.4294140E+02  0.7546771E-02  0.1332061E+00
         21   -1    0    0  503  501  0.00000000000E+00  0.00000000000E+00  0.85237600565E+02  0.85237600565E+02  0.00000000000E+00 0.  1.
         21   -1    0    0  504  502 -0.00000000000E+00 -0.00000000000E+00 -0.57679005765E+02  0.57679005765E+02  0.00000000000E+00 0.  1.
         21    1    1    2  503  502 -0.41827183064E+02  0.97185623862E+01 -0.42710636925E+02  0.60565354820E+02  0.00000000000E+00 0.  1.
         21    1    1    2  504  501  0.41827183064E+02 -0.97185623862E+01  0.70269231725E+02  0.82351251509E+02  0.00000000000E+00 0.  1.
</event>
<event>
 4    1  0.1725802E+006  0.2351719E+02  0.7546771E-02  0.1486104E+00
         21   -1    0    0  504  501  0.00000000000E+00  0.00000000000E+00  0.16746407801E+01  0.16746407801E+01  0.00000000000E+00 0. -1.
         21   -1    0    0  503  502 -0.00000000000E+00 -0.00000000000E+00 -0.40104872436E+03  0.40104872436E+03  0.00000000000E+00 0. -1.
         21    1    1    2  503  501 -0.34391227713E+01  0.23264367041E+02 -0.28428812424E+03  0.28525917325E+03  0.00000000000E+00 0. -1.
         21    1    1    2  504  502  0.34391227713E+01 -0.23264367041E+02 -0.11508595933E+03  0.11746419188E+03  0.00000000000E+00 0. -1.
</event>
<event>
 4    1  0.1725802E+006  0.2764998E+02  0.7546771E-02  0.1441186E+00
         21   -1    0    0  503  501  0.00000000000E+00  0.00000000000E+00  0.30670633235E+02  0.30670633235E+02  0.00000000000E+00 0. -1.
         21   -1    0    0  501  502 -0.00000000000E+00 -0.00000000000E+00 -0.42730901844E+02  0.42730901844E+02  0.00000000000E+00 0. -1.
         21    1    1    2  503  504 -0.77043728401E+01 -0.26554923794E+02  0.17659803182E+02  0.32808382876E+02  0.00000000000E+00 0. -1.
         21    1    1    2  504  502  0.77043728401E+01  0.26554923794E+02 -0.29720071790E+02  0.40593152203E+02  0.00000000000E+00 0. -1.
</event>
<event>
 4    1  0.1725802E+006  0.2102872E+02  0.7546771E-02  0.1518855E+00
         21   -1    0    0  504  501  0.00000000000E+00  0.00000000000E+00  0.11129832534E+01  0.11129832534E+01  0.00000000000E+00 0.  1.
         21   -1    0    0  501  502 -0.00000000000E+00 -0.00000000000E+00 -0.49936715322E+03  0.49936715322E+03  0.00000000000E+00 0. -1.
         21    1    1    2  503  502  0.16976064291E+02 -0.12410483941E+02 -0.36225095696E+03  0.36286080346E+03  0.00000000000E+00 0. -1.
         21    1    1    2  504  503 -0.16976064291E+02  0.12410483941E+02 -0.13600321300E+03  0.13761933301E+03  0.00000000000E+00 0.  1.
</event>
<event>
 4    1  0.1725802E+006  0.2855867E+02  0.7546771E-02  0.1432549E+00
         21   -1    0    0  504  501  0.00000000000E+00  0.00000000000E+00  0.62451763056E+02  0.62451763056E+02  0.00000000000E+00 0. -1.
         21   -1    0    0  503  502 -0.00000000000E+00 -0.00000000000E+00 -0.76837866745E+02  0.76837866745E+02  0.00000000000E+00 0. -1.
         21    1    1    2  503  501  0.18011838533E+02  0.22162381561E+02  0.56257786163E+02  0.63091489028E+02  0.00000000000E+00 0. -1.
         21    1    1    2  504  502 -0.18011838533E+02 -0.22162381561E+02 -0.70643889852E+02  0.76198140773E+02  0.00000000000E+00 0. -1.
</event>
<event>
 4    1  0.1725802E+006  0.5073212E+02  0.7546771E-02  0.1295029E+00
         21   -1    0    0  503  501  0.00000000000E+00  0.00000000000E+00  0.21181757708E+02  0.21181757708E+02  0.00000000000E+00 0. -1.
         21   -1    0    0  504  502 -0.00000000000E+00 -0.00000000000E+00 -0.12442776973E+03  0.12442776973E+03  0.00000000000E+00 0.  1.
         21    1    1    2  503  502 -0.31046857767E+01  0.50637027205E+02 -0.40469935177E+02  0.64896558084E+02  0.00000000000E+00 0. -1.
         21    1    1    2  504  501  0.31046857767E+01 -0.50637027205E+02 -0.62776076840E+02  0.80712969350E+02  0.00000000000E+00 0.  1.
</event>
<event>
 4    1  0.1725802E+006  0.2702448E+02  0.7546771E-02  0.1447362E+00
         21   -1    0    0  503  501  0.00000000000E+00  0.00000000000E+00  0.27443142305E+03  0.27443142305E+03  0.00000000000E+00 0.  1.
         21   -1    0    0  504  502 -0.00000000000E+00 -0.00000000000E+00 -0.41026310686E+01  0.41026310686E+01  0.00000000000E+00 0.  1.
         21    1    1    2  503  502 -0.12736686870E+02 -0.23834830776E+02  0.52615547132E+02  0.59149963234E+02  0.00000000000E+00 0.  1.
         21    1    1    2  504  501  0.12736686870E+02  0.23834830776E+02  0.21771324485E+03  0.21938409089E+03  0.00000000000E+00 0.  1.
</event>
<event>
 4    1  0.1725802E+006  0.4296351E+02  0.7546771E-02  0.1331943E+00
         21   -1    0    0  503  501  0.00000000000E+00  0.00000000000E+00  0.81898759571E+02  0.81898759571E+02  0.00000000000E+00 0. -1.
         21   -1    0    0  504  502 -0.00000000000E+00 -0.00000000000E+00 -0.53339644700E+02  0.53339644700E+02  0.00000000000E+00 0.  1.
         21    1    1    2  503  502 -0.38710652341E+02 -0.18637285609E+02  0.65663740848E+02  0.78470312104E+02  0.00000000000E+00 0. -1.
         21    1    1    2  504  501  0.38710652341E+02  0.18637285609E+02 -0.37104625976E+02  0.56768092168E+02  0.00000000000E+00 0.  1.
</event>
<event>
 4    1  0.1725802E+006  0.2274159E+02  0.7546771E-02  0.1495769E+00
         21   -1    0    0  503  501  0.00000000000E+00  0.00000000000E+00  0.11431282691E+03  0.11431282691E+03  0.00000000000E+00 0. -1.
         21   -1    0    0  501  502 -0.00000000000E+00 -0.00000000000E+00 -0.21838273740E+02  0.21838273740E+02  0.00000000000E+00 0.  1.
         21    1    1    2  503  504  0.22262614253E+02  0.46428386842E+01  0.10685240051E+03  0.10924566554E+03  0.00000000000E+00 0. -1.
         21    1    1    2  504  502 -0.22262614253E+02 -0.46428386842E+01 -0.14377847340E+02  0.26905435111E+02  0.00000000000E+00 0.  1.
</event>
<event>
 4    1  0.1725802E+006  0.3597016E+02  0.7546771E-02  0.1373868E+00
         21   -1    0    0  504  501  0.00000000000E+00  0.00000000000E+00  0.13819292484E+03  0.13819292484E+03  0.00000000000E+00 0.  1.
         21   -1    0    0  503  502 -0.00000000000E+00 -0.00000000000E+00 -0.66087466687E+02  0.66087466687E+02  0.00000000000E+00 0.  1.
         21    1    1    2  503  501 -0.35850483514E+02  0.29317586119E+01  0.13068160330E+03  0.13554163130E+03  0.00000000000E+00 0.  1.
         21    1    1    2  504  502  0.35850483514E+02 -0.29317586119E+01 -0.58576145145E+02  0.68738760221E+02  0.00000000000E+00 0.  1.
</event>
<event>
 4    1  0.1725802E+006  0.2212042E+02  0.7546771E-02  0.1503849E+00
         21   -1    0    0  504  501  0.00000000000E+00  0.00000000000E+00  0.38156804570E+03  0.38156804570E+03  0.00000000000E+00 0.  1.
         21   -1    0    0  503  502 -0.00000000000E+00 -0.00000000000E+00 -0.37131359673E+01  0.37131359673E+01  0.00000000000E+00 0.  1.
         21    1    1    2  503  501  0.19735028547E+02  0.99920689860E+01  0.34479246279E+03  0.34550130997E+03  0.00000000000E+00 0.  1.
         21    1    1    2  504  502 -0.19735028547E+02 -0.99920689860E+01  0.33062446942E+02  0.39779871696E+02  0.00000000000E+00 0.  1.
</event>
<event>
 4    1  0.1725802E+006  0.2767496E+02  0.7546771E-02  0.1440943E+00
         21   -1    0    0  503  501  0.00000000000E+00  0.00000000000E+00  0.98458181133E+02  0.98458181133E+02  0.00000000000E+00 0. -1.
         21   -1    0    0  501  502 -0.00000000000E+00 -0.00000000000E+00 -0.13136220797E+04  0.13136220797E+04  0.00000000000E+00 0.  1.
         21    1    1    2  503  504 -0.27583203998E+02  0.22517684902E+01  0.96364571842E+02  0.10025983398E+03  0.00000000000E+00 0. -1.
         21    1    1    2  504  502  0.27583203998E+02 -0.22517684902E+01 -0.13115284704E+04  0.13118204268E+04  0.00000000000E+00 0.  1.
</event>
<event>
 4    1  0.1725802E+006  0.2285355E+02  0.7546771E-02  0.1494345E+00
         21   -1    0    0  504  501  0.00000000000E+00  0.00000000000E+00  0.19677363592E+03  0.19677363592E+03  0.00000000000E+00 0.  1.
         21   -1    0    0  503  502 -0.00000000000E+00 -0.00000000000E+00 -0.29375416722E+01  0.29375416722E+01  0.00000000000E+00 0.  1.
         21    1    1    2  503  501 -0.15171755846E+02  0.17091004265E+02  0.65907862222E+02  0.69757658396E+02  0.00000000000E+00 0.  1.
         21    1    1    2  504  502  0.15171755846E+02 -0.17091004265E+02  0.12792823202E+03  0.12995351919E+03  0.00000000000E+00 0.  1.
</event>
<event>
 4    1  0.1725802E+006  0.2300317E+02  0.7546771E-02  0.1492458E+00
         21   -1    0    0  504  501  0.00000000000E+00  0.00000000000E+00  0.93896676198E+02  0.93896676198E+02  0.00000000000E+00 0.  1.
         21   -1    0    0  501  502 -0.00000000000E+00 -0.00000000000E+00 -0.78409274492E+02  0.78409274492E+02  0.00000000000E+00 0. -1.
         21    1    1    2  503  502  0.96414020440E+01  0.20885144623E+02 -0.75255573140E+02  0.78692739106E+02  0.00000000000E+00 0. -1.
         21    1    1    2  504  503 -0.96414020440E+01 -0.20885144623E+02  0.90742974846E+02  0.93613211584E+02  0.00000000000E+00 0.  1.
</event>
<event>
 4    1  0.1725802E+006  0.3702419E+02  0.7546771E-02  0.1366865E+00
         21   -1    0    0  503  501  0.00000000000E+00  0.00000000000E+00  0.25255810277E+02  0.25255810277E+02  0.00000000000E+00 0.  1.
         21   -1    0    0  504  502 -0.00000000000E+00 -0.00000000000E+00 -0.98701426992E+02  0.98701426992E+02  0.00000000000E+00 0.  1.
         21    1    1    2  503  502 -0.37023805361E+02 -0.16912296490E+00 -0.78303790393E+02  0.86615670383E+02  0.00000000000E+00 0.  1.
         21    1    1    2  504  501  0.37023805361E+02  0.16912296490E+00  0.48581736788E+01  0.37341566886E+02  0.00000000000E+00 0.  1.
</event>
<event>
 4    1  0.1725802E+006  0.2338414E+02  0.7546771E-02  0.1487730E+00
         21   -1    0    0  504  501  0.00000000000E+00  0.00000000000E+00  0.97903850013E+02  0.97903850013E+02  0.00000000000E+00 0.  1.
         21   -1    0    0  503  502 -0.00000000000E+00 -0.00000000000E+00 -0.55881974863E+01  0.55881974863E+01  0.00000000000E+00 0.  1.
         21    1    1    2  503  501  0.12982345115E+01  0.23348078169E+02  0.47344819153E+02  0.52804829965E+02  0.00000000000E+00 0.  1.
         21    1    1    2  504  502 -0.12982345115E+01 -0.23348078169E+02  0.44970833374E+02  0.50687217534E+02  0.00000000000E+00 0.  1.
</event>
<event>
 4    1  0.1725802E+006  0.3086430E+02  0.7546771E-02  0.1412231E+00
         21   -1    0    0  503  501  0.00000000000E+00  0.00000000000E+00  0.62224272734E+02  0.62224272734E+02  0.00000000000E+00 0.  1.
         21   -1    0    0  504  502 -0.00000000000E+00 -0.00000000000E+00 -0.15570025260E+02  0.15570025260E+02  0.00000000000E+00 0.  1.
         21    1    1    2  503  502 -0.21150449346E+02 -0.22478069478E+02  0.28361327908E+02  0.41916226401E+02  0.00000000000E+00 0.  1.
         21    1    1    2  504  501  0.21150449346E+02  0.22478069478E+02  0.18292919566E+02  0.35878071593E+02  0.00000000000E+00 0.  1.
</event>
<event>
 4    1  0.1725802E+006  0.5868770E+02  0.7546771E-02  0.1264358E+00
         21   -1    0    0  503  501  0.00000000000E+00  0.00000000000E+00  0.23865299214E+02  0.23865299214E+02  0.00000000000E+00 0.  1.
         21   -1    0    0  501  502 -0.00000000000E+00 -0.00000000000E+00 -0.25020777371E+03  0.25020777371E+03  0.00000000000E+00 0.  1.
         21    1    1    2  503  504 -0.55795639402E+02 -0.18195953837E+02 -0.24023904022E+02  0.63414462678E+02  0.00000000000E+00 0.  1.
         21    1    1    2  504  502  0.55795639402E+02  0.18195953837E+02 -0.20231857047E+03  0.21065861024E+03  0.00000000000E+00 0.  1.
</event>
<event>
 4    1  0.1725802E+006  0.3120557E+02  0.7546771E-02  0.1409401E+00
         21   -1    0    0  504  501  0.00000000000E+00  0.00000000000E+00  0.12393124447E+03  0.12393124447E+03  0.00000000000E+00 0. -1.
         21   -1    0    0  501  502 -0.00000000000E+00 -0.00000000000E+00 -0.66710988257E+02  0.66710988257E+02  0.00000000000E+00 0.  1.
         21    1    1    2  503  502  0.18262337175E+02 -0.25303646856E+02 -0.60921525162E+02  0.68448664935E+02  0.00000000000E+00 0.  1.
         21    1    1    2  504  503 -0.18262337175E+02  0.25303646856E+02  0.11814178137E+03  0.12219356779E+03  0.00000000000E+00 0. -1.
</event>
<event>
 4    1  0.1725802E+006  0.2013114E+02  0.7546771E-02  0.1532040E+00
         21   -1    0    0  503  501  0.00000000000E+00  0.00000000000E+00  0.24680093547E+03  0.24680093547E+03  0.00000000000E+00 0.  1.
         21   -1    0    0  504  502 -0.00000000000E+00 -0.00000000000E+00 -0.96494822796E+02  0.96494822796E+02  0.00000000000E+00 0. -1.
         21    1    1    2  503  502  0.10346480451E+02 -0.17268845128E+02  0.24533419341E+03  0.24615874781E+03  0.00000000000E+00 0.  1.
         21    1    1    2  504  501 -0.10346480451E+02  0.17268845128E+02 -0.95028080739E+02  0.97137010448E+02  0.00000000000E+00 0. -1.
</event>
<event>
 4    1  0.1725802E+006  0.2699505E+02  0.7546771E-02  0.1447658E+00
         21   -1    0    0  504  501  0.00000000000E+00  0.00000000000E+00  0.16014578452E+03  0.16014578452E+03  0.00000000000E+00 0. -1.
         21   -1    0    0  503  502 -0.00000000000E+00 -0.00000000000E+00 -0.13368853676E+04  0.13368853676E+04  0.00000000000E+00 0.  1.
         21    1    1    2  503  501 -0.25550944946E+02 -0.87110362108E+01 -0.13356103987E+04  0.13358831798E+04  0.00000000000E+00 0.  1.
         21    1    1    2  504  502  0.25550944946E+02  0.87110362108E+01  0.15887081560E+03  0.16114797234E+03  0.00000000000E+00 0. -1.
</event>
<event>
 4    1  0.1725802E+006  0.2129209E+02  0.7546771E-02  0.1515135E+00
         21   -1    0    0  504  501  0.00000000000E+00  0.00000000000E+00  0.71706892121E+00  0.71706892121E+00  0.00000000000E+00 0. -1.
         21   -1    0    0  503  502 -0.00000000000E+00 -0.00000000000E+00 -0.66494629576E+03  0.66494629576E+03  0.00000000000E+00 0. -1.
         21    1    1    2  503  501  0.40123679071E+01 -0.20910620121E+02 -0.40594029373E+03  0.40649830898E+03  0.00000000000E+00 0. -1.
         21    1    1    2  504  502 -0.40123679071E+01  0.20910620121E+02 -0.25828893310E+03  0.25916505569E+03  0.00000000000E+00 0. -1.
</event>
<event>
 4    1  0.1725802E+006  0.3005554E+02  0.7546771E-02  0.1419114E+00
         21   -1    0    0  503  501  0.00000000000E+00  0.00000000000E+00  0.85389588598E+02  0.85389588598E+02  0.00000000000E+00 0.  1.
         21   -1    0    0  504  502 -0.00000000000E+00 -0.00000000000E+00 -0.20451156636E+02  0.20451156636E+02  0.00000000000E+00 0. -1.
         21    1    1    2  503  502 -0.55931021750E+01  0.29530539372E+02 -0.42988011295E+01  0.30361410355E+02  0.00000000000E+00 0. -1.
         21    1    1    2  504  501  0.55931021750E+01 -0.29530539372E+02  0.69237233092E+02  0.75479334879E+02  0.00000000000E+00 0.  1.
</event>
<event>
 4    1  0.1725802E+006  0.2011017E+02  0.7546771E-02  0.1532358E+00
         21   -1    0    0  502  501  0.00000000000E+00  0.00000000000E+00  0.75182542394E+03  0.75182542394E+03  0.00000000000E+00 0. -1.
         21   -1    0    0  503  502 -0.00000000000E+00 -0.00000000000E+00 -0.18753766050E+01  0.18753766050E+01  0.00000000000E+00 0. -1.
         21    1    1    2  503  504 -0.72004180285E+00 -0.20097276587E+02  0.56727363021E+02  0.60186482716E+02  0.00000000000E+00 0. -1.
         21    1    1    2  504  501  0.72004180285E+00  0.20097276587E+02  0.69322268431E+03  0.69351431783E+03  0.00000000000E+00 0. -1.
</event>
<event>
 4    1  0.1725802E+006  0.2857754E+02  0.7546771E-02  0.1432374E+00
         21   -1    0    0  502  501  0.00000000000E+00  0.00000000000E+00  0.14490491998E+02  0.14490491998E+02  0.00000000000E+00 0.  1.
         21   -1    0    0  504  502 -0.00000000000E+00 -0.00000000000E+00 -0.13057447401E+03  0.13057447401E+03  0.00000000000E+00 0.  1.
         21    1    1    2  503  501 -0.28469469632E+02  0.24829902690E+01 -0.33593649931E+01  0.28774316238E+02  0.00000000000E+00 0.  1.
         21    1    1    2  504  503  0.28469469632E+02 -0.24829902690E+01 -0.11272461702E+03  0.11629064977E+03  0.00000000000E+00 0.  1.
</event>
<event>
 4    1  0.1725802E+006  0.2176427E+02  0.7546771E-02  0.1508627E+00
         21   -1    0    0  504  501  0.00000000000E+00  0.00000000000E+00  0.20009958501E+03  0.20009958501E+03  0.00000000000E+00 0. -1.
         21   -1    0    0  503  502 -0.00000000000E+00 -0.00000000000E+00 -0.28654987217E+01  0.28654987217E+01  0.00000000000E+00 0. -1.
         21    1    1    2  503  501  0.56523180386E+01 -0.21017487514E+02  0.14093446981E+03  0.14260507797E+03  0.00000000000E+00 0. -1.
         21    1    1    2  504  502 -0.56523180386E+01  0.21017487514E+02  0.56299616481E+02  0.60360005770E+02  0.00000000000E+00 0. -1.
</event>
<event>
 4    1  0.1725802E+006  0.3606490E+02  0.7546771E-02  0.1373227E+00
         21   -1    0    0  502  501  0.00000000000E+00  0.00000000000E+00  0.11720895146E+02  0.11720895146E+02  0.00000000000E+00 0.  1.
         21   -1    0    0  503  502 -0.00000000000E+00 -0.00000000000E+00 -0.47436261732E+03  0.47436261732E+03  0.00000000000E+00 0. -1.
         21    1    1    2  503  504  0.35592463724E+02  0.58183807856E+01 -0.44404327008E+03  0.44550544636E+03  0.00000000000E+00 0. -1.
         21    1    1    2  504  501 -0.35592463724E+02 -0.58183807856E+01 -0.18598452091E+02  0.40578066108E+02  0.00000000000E+00 0.  1.
</event>
<event>
 4    1  0.1725802E+006  0.5037243E+02  0.7546771E-02  0.1296566E+00
         21   -1    0    0  503  501  0.00000000000E+00  0.00000000000E+00  0.15241758934E+03  0.15241758934E+03  0.00000000000E+00 0.  1.
         21   -1    0    0  501  502 -0.00000000000E+00 -0.00000000000E+00 -0.18994225175E+03  0.18994225175E+03  0.00000000000E+00 0. -1.
         21    1    1    2  503  504 -0.49565060262E+02 -0.89825595004E+01  0.14474403028E+03  0.15325865677E+03  0.00000000000E+00 0.  1.
         21    1    1    2  504  502  0.49565060262E+02  0.89825595004E+01 -0.18226869269E+03  0.18910118431E+03  0.00000000000E+00 0. -1.
</event>
<event>
 4    1  0.1725802E+006  0.2853257E+02  0.7546771E-02  0.1432792E+00
         21   -1    0    0  504  501  0.00000000000E+00  0.00000000000E+00  0.69784692952E+01  0.69784692952E+01  0.00000000000E+00 0.  1.
         21   -1    0    0  503  502 -0.00000000000E+00 -0.00000000000E+00 -0.44494541144E+03  0.44494541144E+03  0.00000000000E+00 0.  1.
         21    1    1    2  503  501  0.12652757290E+01  0.28504504062E+02 -0.24891409247E+02  0.37864098152E+02  0.00000000000E+00 0.  1.
         21    1    1    2  504  502 -0.12652757290E+01 -0.28504504062E+02 -0.41307553289E+03  0.41405978258E+03  0.00000000000E+00 0.  1.
</event>
<event>
 4    1  0.1725802E+006  0.2353114E+02  0.7546771E-02  0.1485934E+00
         21   -1    0    0  503  501  0.00000000000E+00  0.00000000000E+00  0.70235454847E+02  0.70235454847E+02  0.00000000000E+00 0.  1.
         21   -1    0    0  504  502 -0.00000000000E+00 -0.00000000000E+00 -0.19525205331E+02  0.19525205331E+02  0.00000000000E+00 0. -1.
         21    1    1    2  503  502  0.14130487612E+01 -0.23488673806E+02 -0.92996442045E+01  0.25302132051E+02  0.00000000000E+00 0. -1.
         21    1    1    2  504  501 -0.14130487612E+01  0.23488673806E+02  0.60009893720E+02  0.64458528127E+02  0.00000000000E+00 0.  1.
</event>
<event>
 4    1  0.1725802E+006  0.2517688E+02  0.7546771E-02  0.1466834E+00
         21   -1    0    0  503  501  0.00000000000E+00  0.00000000000E+00  0.10321049346E+03  0.10321049346E+03  0.00000000000E+00 0.  1.
         21   -1    0    0  501  502 -0.00000000000E+00 -0.00000000000E+00 -0.38210791480E+02  0.38210791480E+02  0.00000000000E+00 0.  1.
         21    1    1    2  503  504 -0.19397159961E+02 -0.16050718903E+02  0.97279100833E+02  0.10048432142E+03  0.00000000000E+00 0.  1.
         21    1    1    2  504  502  0.19397159961E+02  0.16050718903E+02 -0.32279398854E+02  0.40936963520E+02  0.00000000000E+00 0.  1.
</event>
<event>
 4    1  0.1725802E+006  0.5097378E+02  0.7546771E-02  0.1294005E+00
         21   -1    0    0  503  501  0.00000000000E+00  0.00000000000E+00  0.18758373931E+02  0.18758373931E+02  0.00000000000E+00 0. -1.
         21   -1    0    0  504  502 -0.00000000000E+00 -0.00000000000E+00 -0.13887824559E+03  0.13887824559E+03  0.00000000000E+00 0. -1.
         21    1    1    2  503  502  0.49626738115E+02 -0.11641003137E+02 -0.64087974771E+02  0.81887695047E+02  0.00000000000E+00 0. -1.
         21    1    1    2  504  501 -0.49626738115E+02  0.11641003137E+02 -0.56031896891E+02  0.75748924475E+02  0.00000000000E+00 0. -1.
</event>
<event>
 4    1  0.1725802E+006  0.2372431E+02  0.7546771E-02  0.1483598E+00
         21   -1    0    0  502  501  0.00000000000E+00  0.00000000000E+00  0.47264730874E+02  0.47264730874E+02  0.00000000000E+00 0.  1.
         21   -1    0    0  504  502 -0.00000000000E+00 -0.00000000000E+00 -0.27997408457E+02  0.27997408457E+02  0.00000000000E+00 0. -1.
         21    1    1    2  503  501  0.18687691676E+02  0.14615500257E+02  0.38160497866E+02  0.44934021246E+02  0.00000000000E+00 0.  1.
         21    1    1    2  504  503 -0.18687691676E+02 -0.14615500257E+02 -0.18893175450E+02  0.30328118084E+02  0.00000000000E+00 0. -1.
</event>
<event>
 4    1  0.1725802E+006  0.3087419E+02  0.7546771E-02  0.1412149E+00
         21   -1    0    0  503  501  0.00000000000E+00  0.00000000000E+00  0.63911573932E+02  0.63911573932E+02  0.00000000000E+00 0. -1.
         21   -1    0    0  501  502 -0.00000000000E+00 -0.00000000000E+00 -0.24040198049E+03  0.24040198049E+03  0.00000000000E+00 0. -1.
         21    1    1    2  503  504 -0.11534848519E+02  0.28638485966E+02  0.59116081879E+02  0.66692778811E+02  0.00000000000E+00 0. -1.
         21    1    1    2  504  502  0.11534848519E+02 -0.28638485966E+02 -0.23560648844E+03  0.23762077561E+03  0.00000000000E+00 0. -1.
</event>
<event>
 4    1  0.1725802E+006  0.2730985E+02  0.7546771E-02  0.1444520E+00
         21   -1    0    0  503  501  0.00000000000E+00  0.00000000000E+00  0.57619274590E+02  0.57619274590E+02  0.00000000000E+00 0.  1.
         21   -1    0    0  504  502 -0.00000000000E+00 -0.00000000000E+00 -0.17360348356E+02  0.17360348356E+02  0.00000000000E+00 0.  1.
         21    1    1    2  503  502 -0.23421254257E+02  0.14045386321E+02  0.39038184785E+02  0.47642500976E+02  0.00000000000E+00 0.  1.
         21    1    1    2  504  501  0.23421254257E+02 -0.14045386321E+02  0.12207414481E+01  0.27337121970E+02  0.00000000000E+00 0.  1.
</event>
<event>
 4    1  0.1725802E+006  0.2213242E+02  0.7546771E-02  0.1503689E+00
         21   -1    0    0  502  501  0.00000000000E+00  0.00000000000E+00  0.30043145490E+03  0.30043145490E+03  0.00000000000E+00 0.  1.
         21   -1    0    0  504  502 -0.00000000000E+00 -0.00000000000E+00 -0.27987508987E+01  0.27987508987E+01  0.00000000000E+00 0. -1.
         21    1    1    2  503  501  0.21015764810E+02 -0.69413024326E+01  0.24677307376E+03  0.24776358486E+03  0.00000000000E+00 0.  1.
         21    1    1    2  504  503 -0.21015764810E+02  0.69413024326E+01  0.50859630241E+02  0.55466620938E+02  0.00000000000E+00 0. -1.
</event>
<event>
 4    1  0.1725802E+006  0.2006889E+02  0.7546771E-02  0.1532985E+00
         21   -1    0    0  504  501  0.00000000000E+00  0.00000000000E+00  0.12118101298E+01  0.12118101298E+01  0.00000000000E+00 0.  1.
         21   -1    0    0  503  502 -0.00000000000E+00 -0.00000000000E+00 -0.34398271096E+03  0.34398271096E+03  0.00000000000E+00 0.  1.
         21    1    1    2  503  501 -0.10252822596E+02  0.17252243193E+02 -0.13966259614E+03  0.14109713331E+03  0.00000000000E+00 0.  1.
         21    1    1    2  504  502  0.10252822596E+02 -0.17252243193E+02 -0.20310830469E+03  0.20409738778E+03  0.00000000000E+00 0.  1.
</event>
<event>
 4    1  0.1725802E+006  0.2665909E+02  0.7546771E-02  0.1451063E+00
         21   -1    0    0  504  501  0.00000000000E+00  0.00000000000E+00  0.25835119349E+03  0.25835119349E+03  0.00000000000E+00 0. -1.
         21   -1    0    0  503  502 -0.00000000000E+00 -0.00000000000E+00 -0.29294379504E+01  0.29294379504E+01  0.00000000000E+00 0. -1.
         21    1    1    2  503  501  0.21233055015E+02 -0.16120319457E+02  0.95462502175E+02  0.99115067705E+02  0.00000000000E+00 0. -1.
         21    1    1    2  504  502 -0.21233055015E+02  0.16120319457E+02  0.15995925336E+03  0.16216556373E+03  0.00000000000E+00 0. -1.
</event>
<event>
 4    1  0.1725802E+006  0.2165937E+02  0.7546771E-02  0.1510055E+00
         21   -1    0    0  503  501  0.00000000000E+00  0.00000000000E+00  0.18035515666E+02  0.18035515666E+02  0.00000000000E+00 0. -1.
         21   -1    0    0  504  502 -0.00000000000E+00 -0.00000000000E+00 -0.28606181826E+03  0.28606181826E+03  0.00000000000E+00 0. -1.
         21    1    1    2  503  502 -0.74757670529E+01 -0.20328339573E+02 -0.27898426404E+03  0.27982378038E+03  0.00000000000E+00 0. -1.
         21    1    1    2  504  501  0.74757670529E+01  0.20328339573E+02  0.10957961446E+02  0.24273553549E+02  0.00000000000E+00 0. -1.
</event>
<event>
 4    1  0.1725802E+006  0.3857142E+02  0.7546771E-02  0.1357067E+00
         21   -1    0    0  502  501  0.00000000000E+00  0.00000000000E+00  0.73924330590E+01  0.73924330590E+01  0.00000000000E+00 0.  1.
         21   -1    0    0  504  502 -0.00000000000E+00 -0.00000000000E+00 -0.24765061406E+03  0.24765061406E+03  0.00000000000E+00 0.  1.
         21    1    1    2  503  501  0.12097628492E+02 -0.36625155601E+02 -0.64933008387E+02  0.75525162801E+02  0.00000000000E+00 0.  1.
         21    1    1    2  504  503 -0.12097628492E+02  0.36625155601E+02 -0.17532517262E+03  0.17951788432E+03  0.00000000000E+00 0.  1.
</event>
<event>
 4    1  0.1725802E+006  0.2239452E+02  0.7546771E-02  0.1500244E+00
         21   -1    0    0  504  501  0.00000000000E+00  0.00000000000E+00  0.53748818432E+02  0.53748818432E+02  0.00000000000E+00 0.  1.
         21   -1    0    0  501  502 -0.00000000000E+00 -0.00000000000E+00 -0.96045001319E+01  0.96045001319E+01  0.00000000000E+00 0.  1.
         21    1    1    2  503  502  0.19966394201E+02  0.10141876336E+02  0.16723903800E+02  0.27950018091E+02  0.00000000000E+00 0.  1.
         21    1    1    2  504  503 -0.19966394201E+02 -0.10141876336E+02  0.27420414500E+02  0.35403300472E+02  0.00000000000E+00 0.  1.
</event>
<event>
 4    1  0.1725802E+006  0.2671810E+02  0.7546771E-02  0.1450461E+00
         21   -1    0    0  504  501  0.00000000000E+00  0.00000000000E+00  0.35831623469E+03  0.35831623469E+03  0.00000000000E+00 0. -1.
         21   -1    0    0  503  502 -0.00000000000E+00 -0.00000000000E+00 -0.21653433901E+01  0.21653433901E+01  0.00000000000E+00 0.  1.
         21    1    1    2  503  501 -0.24099428076E+02  0.11535787422E+02  0.12711592216E+03  0.12989347363E+03  0.00000000000E+00 0.  1.
         21    1    1    2  504  502  0.24099428076E+02 -0.11535787422E+02  0.22903496914E+03  0.23058810445E+03  0.00000000000E+00 0. -1.
</event>
<event>
 4    1  0.1725802E+006  0.2348191E+02  0.7546771E-02  0.1486534E+00
         21   -1    0    0  503  501  0.00000000000E+00  0.00000000000E+00  0.10697588403E+02  0.10697588403E+02  0.00000000000E+00 0.  1.
         21   -1    0    0  504  502 -0.00000000000E+00 -0.00000000000E+00 -0.24120425890E+03  0.24120425890E+03  0.00000000000E+00 0.  1.
         21    1    1    2  503  502  0.14010444275E+02 -0.18844294193E+02 -0.35678672595E+01  0.23751413625E+02  0.00000000000E+00 0.  1.
         21    1    1    2  504  501 -0.14010444275E+02  0.18844294193E+02 -0.22693880324E+03  0.22815043368E+03  0.00000000000E+00 0.  1.
</event>
<event>
 4    1  0.1725802E+006  0.2373539E+02  0.7546771E-02  0.1483465E+00
         21   -1    0    0  502  501  0.00000000000E+00  0.00000000000E+00  0.12466320654E+01  0.12466320654E+01  0.00000000000E+00 0. -1.
         21   -1    0    0  504  502 -0.00000000000E+00 -0.00000000000E+00 -0.10703820518E+04  0.10703820518E+04  0.00000000000E+00 0. -1.
         21    1    1    2  503  501 -0.23684806862E+02  0.15488073014E+01 -0.12727746198E+03  0.12947170042E+03  0.00000000000E+00 0. -1.
         21    1    1    2  504  503  0.23684806862E+02 -0.15488073014E+01 -0.94185795780E+03  0.94215698350E+03  0.00000000000E+00 0. -1.
</event>
<event>
 4    1  0.1725802E+006  0.3105205E+02  0.7546771E-02  0.1410669E+00
         21   -1    0    0  504  501  0.00000000000E+00  0.00000000000E+00  0.29967760303E+02  0.29967760303E+02  0.00000000000E+00 0. -1.
         21   -1    0    0  503  502 -0.00000000000E+00 -0.00000000000E+00 -0.79252695209E+02  0.79252695209E+02  0.00000000000E+00 0. -1.
         21    1    1    2  503  501  0.29681275438E+02 -0.91242412685E+01 -0.66731788120E+02  0.73602727097E+02  0.00000000000E+00 0. -1.
         21    1    1    2  504  502 -0.29681275438E+02  0.91242412685E+01  0.17446853215E+02  0.35617728415E+02  0.00000000000E+00 0. -1.
</event>
<event>
 4    1  0.1725802E+006  0.2783990E+02  0.7546771E-02  0.1439349E+00
         21   -1    0    0  503  501  0.00000000000E+00  0.00000000000E+00  0.34880388937E+02  0.34880388937E+02  0.00000000000E+00 0. -1.
         21   -1    0    0  501  502 -0.00000000000E+00 -0.00000000000E+00 -0.16442514357E+03  0.16442514357E+03  0.00000000000E+00 0. -1.
         21    1    1    2  503  504  0.59606546796E+01  0.27194310869E+02  0.27902521670E+02  0.39415868167E+02  0.00000000000E+00 0. -1.
         21    1    1    2  504  502 -0.59606546796E+01 -0.27194310869E+02 -0.15744727630E+03  0.15988966434E+03  0.00000000000E+00 0. -1.
</event>
<event>
 4    1  0.1725802E+006  0.2132209E+02  0.7546771E-02  0.1514716E+00
         21   -1    0    0  504  501  0.00000000000E+00  0.00000000000E+00  0.40240901064E+01  0.40240901064E+01  0.00000000000E+00 0. -1.
         21   -1    0    0  503  502 -0.00000000000E+00 -0.00000000000E+00 -0.23512056035E+03  0.23512056035E+03  0.00000000000E+00 0.  1.
         21    1    1    2  503  501 -0.17822908944E+02 -0.11703651894E+02 -0.20173087812E+03  0.20285457534E+03  0.00000000000E+00 0.  1.
         21    1    1    2  504  502  0.17822908944E+02  0.11703651894E+02 -0.29365592122E+02  0.36290075111E+02  0.00000000000E+00 0. -1.
</event>
<event>
 4    1  0.1725802E+006  0.2636478E+02  0.7546771E-02  0.1454096E+00
         21   -1    0    0  504  501  0.00000000000E+00  0.00000000000E+00  0.84649904098E+02  0.84649904098E+02  0.00000000000E+00 0. -1.
         21   -1    0    0  501  502 -0.00000000000E+00 -0.00000000000E+00 -0.13100363484E+03  0.13100363484E+03  0.00000000000E+00 0. -1.
         21    1    1    2  503  502 -0.13287997042E+01  0.26331268134E+02 -0.12756958765E+03  0.13026550228E+03  0.00000000000E+00 0. -1.
         21    1    1    2  504  503  0.13287997042E+01 -0.26331268134E+02  0.81215856912E+02  0.85388036657E+02  0.00000000000E+00 0. -1.
</event>
<event>
 4    1  0.1725802E+006  0.2816829E+02  0.7546771E-02  0.1436213E+00
         21   -1    0    0  504  501  0.00000000000E+00  0.00000000000E+00  0.97211765217E+03  0.97211765217E+03  0.00000000000E+00 0.  1.
         21   -1    0    0  503  502 -0.00000000000E+00 -0.00000000000E+00 -0.52921384535E+01  0.52921384535E+01  0.00000000000E+00 0. -1.
         21    1    1    2  503  501 -0.22000857542E+02  0.17590188682E+02  0.33971804270E+02  0.44130895706E+02  0.00000000000E+00 0. -1.
         21    1    1    2  504  502  0.22000857542E+02 -0.17590188682E+02  0.93285370944E+03  0.93327889491E+03  0.00000000000E+00 0.  1.
</event>
<event>
 4    1  0.1725802E+006  0.9186093E+02  0.7546771E-02  0.1178711E+00
         21   -1    0    0  504  501  0.00000000000E+00  0.00000000000E+00  0.43744400847E+02  0.43744400847E+02  0.00000000000E+00 0.  1.
         21   -1    0    0  503  502 -0.00000000000E+00 -0.00000000000E+00 -0.24406129152E+03  0.24406129152E+03  0.00000000000E+00 0.  1.
         21    1    1    2  503  501  0.91664695917E+02 -0.60012184866E+01 -0.34274823222E+02  0.98046900042E+02  0.00000000000E+00 0.  1.
         21    1    1    2  504  502 -0.91664695917E+02  0.60012184866E+01 -0.16604206745E+03  0.18975879232E+03  0.00000000000E+00 0.  1.
</event>
<event>
 4    1  0.1725802E+006  0.2056012E+02  0.7546771E-02  0.1525639E+00
         21   -1    0    0  502  501  0.00000000000E+00  0.00000000000E+00  0.13621534955E+03  0.13621534955E+03  0.00000000000E+00 0.  1.
         21   -1    0    0  504  502 -0.00000000000E+00 -0.00000000000E+00 -0.31609377706E+01  0.31609377706E+01  0.00000000000E+00 0.  1.
         21    1    1    2  503  501  0.13654781997E+02  0.15370927721E+02  0.75936691722E+02  0.78670830935E+02  0.00000000000E+00 0.  1.
         21    1    1    2  504  503 -0.13654781997E+02 -0.15370927721E+02  0.57117720060E+02  0.60705456388E+02  0.00000000000E+00 0.  1.
</event>
<event>
 4    1  0.1725802E+006  0.4239601E+02  0.7546771E-02  0.1334990E+00
         21   -1    0    0  503  501  0.00000000000E+00  0.00000000000E+00  0.46264066101E+02  0.46264066101E+02  0.00000000000E+00 0. -1.
         21   -1    0    0  504  502 -0.00000000000E+00 -0.00000000000E+00 -0.84234608210E+02  0.84234608210E+02  0.00000000000E+00 0.  1.
         21    1    1    2  503  502 -0.36789853401E+02  0.21069605927E+02  0.28908456705E+02  0.51313940369E+02  0.00000000000E+00 0. -1.
         21    1    1    2  504  501  0.36789853401E+02 -0.21069605927E+02 -0.66878998813E+02  0.79184733942E+02  0.00000000000E+00 0.  1.
</event>
<event>
 4    1  0.1725802E+006  0.2292147E+02  0.7546771E-02  0.1493487E+00
         21   -1    0    0  503  501  0.00000000000E+00  0.00000000000E+00  0.61544799993E+02  0.61544799993E+02  0.00000000000E+00 0.  1.
         21   -1    0    0  504  502 -0.00000000000E+00 -0.00000000000E+00 -0.11255954044E+02  0.11255954044E+02  0.00000000000E+00 0. -1.
         21    1    1    2  503  502  0.98029632926E+01  0.20719447636E+02  0.43035409585E+02  0.48758999967E+02  0.00000000000E+00 0.  1.
         21    1    1    2  504  501 -0.98029632926E+01 -0.20719447636E+02  0.72534363649E+01  0.24041754070E+02  0.00000000000E+00 0. -1.
</event>
<event>
 4    1  0.1725802E+006  0.2366883E+02  0.7546771E-02  0.1484266E+00
         21   -1    0    0  504  501  0.00000000000E+00  0.00000000000E+00  0.39326675787E+02  0.39326675787E+02  0.00000000000E+00 0. -1.
         21   -1    0    0  501  502 -0.00000000000E+00 -0.00000000000E+00 -0.29364999278E+02  0.29364999278E+02  0.00000000000E+00 0. -1.
         21    1    1    2  503  502 -0.23568049382E+02  0.21819107946E+01 -0.19664404706E+02  0.30771780885E+02  0.00000000000E+00 0. -1.
         21    1    1    2  504  503  0.23568049382E+02 -0.21819107946E+01  0.29626081216E+02  0.37919894179E+02  0.00000000000E+00 0. -1.
</event>
<event>
 4    1  0.1725802E+006  0.2519695E+02  0.7546771E-02  0.1466612E+00
         21   -1    0    0  504  501  0.00000000000E+00  0.00000000000E+00  0.11528772548E+03  0.11528772548E+03  0.00000000000E+00 0.  1.
         21   -1    0    0  503  502 -0.00000000000E+00 -0.00000000000E+00 -0.87059387259E+01  0.87059387259E+01  0.00000000000E+00 0.  1.
         21    1    1    2  503  501 -0.24320152601E+02  0.65891130818E+01  0.15710044833E+02  0.29693294570E+02  0.00000000000E+00 0.  1.
         21    1    1    2  504  502  0.24320152601E+02 -0.65891130818E+01  0.90871741918E+02  0.94300369633E+02  0.00000000000E+00 0.  1.
</event>
<event>
 4    1  0.1725802E+006  0.2360266E+02  0.7546771E-02  0.1485066E+00
         21   -1    0    0  502  501  0.00000000000E+00  0.00000000000E+00  0.12176853792E+01  0.12176853792E+01  0.00000000000E+00 0.  1.
         21   -1    0    0  504  502 -0.00000000000E+00 -0.00000000000E+00 -0.14718212255E+04  0.14718212255E+04  0.00000000000E+00 0.  1.
         21    1    1    2  503  501 -0.20850127916E+02  0.11061536002E+02 -0.12387360226E+03  0.12610215997E+03  0.00000000000E+00 0.  1.
         21    1    1    2  504  503  0.20850127916E+02 -0.11061536002E+02 -0.13467299379E+04  0.13469367509E+04  0.00000000000E+00 0.  1.
</event>
<event>
 4    1  0.1725802E+006  0.2464125E+02  0.7546771E-02  0.1472857E+00
         21   -1    0    0  503  501  0.00000000000E+00  0.00000000000E+00  0.75300704917E+01  0.75300704917E+01  0.00000000000E+00 0. -1.
         21   -1    0    0  501  502 -0.00000000000E+00 -0.00000000000E+00 -0.80709562482E+02  0.80709562482E+02  0.00000000000E+00 0. -1.
         21    1    1    2  503  504  0.15454800627E+02 -0.19192192814E+02 -0.37926096480E+02  0.45228087751E+02  0.00000000000E+00 0. -1.
         21    1    1    2  504  502 -0.15454800627E+02  0.19192192814E+02 -0.35253395510E+02  0.43011545222E+02  0.00000000000E+00 0. -1.
</event>
<event>
 4    1  0.1725802E+006  0.2523016E+02  0.7546771E-02  0.1466245E+00
         21   -1    0    0  504  501  0.00000000000E+00  0.00000000000E+00  0.45174485571E+02  0.45174485571E+02  0.00000000000E+00 0.  1.
         21   -1    0    0  503  502 -0.00000000000E+00 -0.00000000000E+00 -0.40903663065E+02  0.40903663065E+02  0.00000000000E+00 0. -1.
         21    1    1    2  503  501  0.76950143568E+01 -0.24028063206E+02 -0.32710391275E+02  0.41310177496E+02  0.00000000000E+00 0. -1.
         21    1    1    2  504  502 -0.76950143568E+01  0.24028063206E+02  0.36981213781E+02  0.44767971141E+02  0.00000000000E+00 0.  1.
</event>
<event>
 4    1  0.1725802E+006  0.2641923E+02  0.7546771E-02  0.1453531E+00
         21   -1    0    0  503  501  0.00000000000E+00  0.00000000000E+00  0.65171826812E+00  0.65171826812E+00  0.00000000000E+00 0.  1.
         21   -1    0    0  504  502 -0.00000000000E+00 -0.00000000000E+00 -0.14465362125E+04  0.14465362125E+04  0.00000000000E+00 0.  1.
         21    1    1    2  503  502  0.19922636298E+02  0.17351197208E+02 -0.35424549803E+03  0.35522928984E+03  0.00000000000E+00 0.  1.
         21    1    1    2  504  501 -0.19922636298E+02 -0.17351197208E+02 -0.10916389962E+04  0.10919586410E+04  0.00000000000E+00 0.  1.
</event>
<event>
 4    1  0.1725802E+006  0.2207897E+02  0.7546771E-02  0.1504399E+00
         21   -1    0    0  504  501  0.00000000000E+00  0.00000000000E+00  0.17061003921E+04  0.17061003921E+04  0.00000000000E+00 0.  1.
         21   -1    0    0  501  502 -0.00000000000E+00 -0.00000000000E+00 -0.79887516152E+00  0.79887516152E+00  0.00000000000E+00 0.  1.
         21    1    1    2  503  502  0.15585101663E+02 -0.15639226234E+02  0.16864561368E+03  0.17008475477E+03  0.00000000000E+00 0.  1.
         21    1    1    2  504  503 -0.15585101663E+02  0.15639226234E+02  0.15366559032E+04  0.15368145125E+04  0.00000000000E+00 0.  1.
</event>
<event>
 4    1  0.1725802E+006  0.2147056E+02  0.7546771E-02  0.1512651E+00
         21   -1    0    0  502  501  0.00000000000E+00  0.00000000000E+00  0.19663518566E+01  0.19663518566E+01  0.00000000000E+00 0.  1.
         21   -1    0    0  504  502 -0.00000000000E+00 -0.00000000000E+00 -0.55185128312E+03  0.55185128312E+03  0.00000000000E+00 0.  1.
         21    1    1    2  503  501  0.84030144955E+01  0.19757887098E+02 -0.64932795001E+02  0.68390442474E+02  0.00000000000E+00 0.  1.
         21    1    1    2  504  503 -0.84030144955E+01 -0.19757887098E+02 -0.48495213626E+03  0.48542719250E+03  0.00000000000E+00 0.  1.
</event>
<event>
 4    1  0.1725802E+006  0.2929858E+02  0.7546771E-02  0.1425791E+00
         21   -1    0    0  504  501  0.00000000000E+00  0.00000000000E+00  0.39906113210E+01  0.39906113210E+01  0.00000000000E+00 0.  1.
         21   -1    0    0  503  502 -0.00000000000E+00 -0.00000000000E+00 -0.48143737245E+03  0.48143737245E+03  0.00000000000E+00 0.  1.
         21    1    1    2  503  501 -0.20146350509E+02 -0.21272784005E+02 -0.58199110092E+02  0.65157832941E+02  0.00000000000E+00 0.  1.
         21    1    1    2  504  502  0.20146350509E+02  0.21272784005E+02 -0.41924765104E+03  0.42027015083E+03  0.00000000000E+00 0.  1.
</event>
<event>
 4    1  0.1725802E+006  0.2026082E+02  0.7546771E-02  0.1530085E+00
         21   -1    0    0  504  501  0.00000000000E+00  0.00000000000E+00  0.16256788951E+02  0.16256788951E+02  0.00000000000E+00 0. -1.
         21   -1    0    0  503  502 -0.00000000000E+00 -0.00000000000E+00 -0.28084496182E+03  0.28084496182E+03  0.00000000000E+00 0.  1.
         21    1    1    2  503  501  0.10860161424E+02 -0.17104320647E+02 -0.27400952148E+03  0.27475756360E+03  0.00000000000E+00 0.  1.
         21    1    1    2  504  502 -0.10860161424E+02  0.17104320647E+02  0.94213486105E+01  0.22344187176E+02  0.00000000000E+00 0. -1.
</event>
<event>
 4    1  0.1725802E+006  0.2277778E+02  0.7546771E-02  0.1495308E+00
         21   -1    0    0  504  501  0.00000000000E+00  0.00000000000E+00  0.46536672879E+01  0.46536672879E+01  0.00000000000E+00 0.  1.
         21   -1    0    0  503  502 -0.00000000000E+00 -0.00000000000E+00 -0.11579300056E+03  0.11579300056E+03  0.00000000000E+00 0.  1.
         21    1    1    2  503  501 -0.20709743257E+02 -0.94833526421E+01 -0.43957402200E+02  0.49508389706E+02  0.00000000000E+00 0.  1.
         21    1    1    2  504  502  0.20709743257E+02  0.94833526421E+01 -0.67181931070E+02  0.70938278140E+02  0.00000000000E+00 0.  1.
</event>
<event>
 4    1  0.1725802E+006  0.2322339E+02  0.7546771E-02  0.1489712E+00
         21   -1    0    0  504  501  0.00000000000E+00  0.00000000000E+00  0.22592087453E+02  0.22592087453E+02  0.00000000000E+00 0.  1.
         21   -1    0    0  503  502 -0.00000000000E+00 -0.00000000000E+00 -0.54753683566E+03  0.54753683566E+03  0.00000000000E+00 0.  1.
         21    1    1    2  503  501  0.22482106403E+01  0.23114308365E+02 -0.54125324945E+03  0.54175123972E+03  0.00000000000E+00 0.  1.
         21    1    1    2  504  502 -0.22482106403E+01 -0.23114308365E+02  0.16308501236E+02  0.28377683395E+02  0.00000000000E+00 0.  1.
</event>
<event>
 4    1  0.1725802E+006  0.2167368E+02  0.7546771E-02  0.1509860E+00
         21   -1    0    0  503  501  0.00000000000E+00  0.00000000000E+00  0.16892413728E+02  0.16892413728E+02  0.00000000000E+00 0. -1.
         21   -1    0    0  504  502 -0.00000000000E+00 -0.00000000000E+00 -0.28411649855E+02  0.28411649855E+02  0.00000000000E+00 0. -1.
         21    1    1    2  503  502  0.12378011826E+02 -0.17791381135E+02 -0.90607469921E+01  0.23491393222E+02  0.00000000000E+00 0. -1.
         21    1    1    2  504  501 -0.12378011826E+02  0.17791381135E+02 -0.24584891347E+01  0.21812670361E+02  0.00000000000E+00 0. -1.
</event>
<event>
 4    1  0.1725802E+006  0.2280089E+02  0.7546771E-02  0.1495014E+00
         21   -1    0    0  504  501  0.00000000000E+00  0.00000000000E+00  0.50488686790E+02  0.50488686790E+02  0.00000000000E+00 0.  1.
         21   -1    0    0  503  502 -0.00000000000E+00 -0.00000000000E+00 -0.17087530474E+02  0.17087530474E+02  0.00000000000E+00 0.  1.
         21    1    1    2  503  501  0.22024129214E+02  0.59006922252E+01  0.38000454268E+02  0.44316080162E+02  0.00000000000E+00 0.  1.
         21    1    1    2  504  502 -0.22024129214E+02 -0.59006922252E+01 -0.45992979517E+01  0.23260137102E+02  0.00000000000E+00 0.  1.
</event>
<event>
 4    1  0.1725802E+006  0.2591325E+02  0.7546771E-02  0.1458841E+00
         21   -1    0    0  502  501  0.00000000000E+00  0.00000000000E+00  0.79257802016E+01  0.79257802016E+01  0.00000000000E+00 0. -1.
         21   -1    0    0  504  502 -0.00000000000E+00 -0.00000000000E+00 -0.38913679202E+03  0.38913679202E+03  0.00000000000E+00 0.  1.
         21    1    1    2  503  501 -0.23888384969E+02 -0.10042002813E+02 -0.15011416964E+02  0.29947276941E+02  0.00000000000E+00 0. -1.
         21    1    1    2  504  503  0.23888384969E+02  0.10042002813E+02 -0.36619959486E+03  0.36711529528E+03  0.00000000000E+00 0.  1.
</event>
<event>
 4    1  0.1725802E+006  0.2727768E+02  0.7546771E-02  0.1444838E+00
         21   -1    0    0  502  501  0.00000000000E+00  0.00000000000E+00  0.48811664220E+02  0.48811664220E+02  0.00000000000E+00 0. -1.
         21   -1    0    0  504  502 -0.00000000000E+00 -0.00000000000E+00 -0.11970872487E+03  0.11970872487E+03  0.00000000000E+00 0. -1.
         21    1    1    2  503  501  0.27008274881E+02 -0.38242827521E+01  0.43264193162E+02  0.51145502838E+02  0.00000000000E+00 0. -1.
         21    1    1    2  504  503 -0.27008274881E+02  0.38242827521E+01 -0.11416125381E+03  0.11737488625E+03  0.00000000000E+00 0. -1.
</event>
<event>
 4    1  0.1725802E+006  0.2529248E+02  0.7546771E-02  0.1465558E+00
         21   -1    0    0  503  501  0.00000000000E+00  0.00000000000E+00  0.60070611996E+02  0.60070611996E+02  0.00000000000E+00 0.  1.
         21   -1    0    0  504  502 -0.00000000000E+00 -0.00000000000E+00 -0.14217220795E+02  0.14217220795E+02  0.00000000000E+00 0.  1.
         21    1    1    2  503  502 -0.23121156715E+02  0.10252875350E+02  0.43191720522E+01  0.25658616253E+02  0.00000000000E+00 0.  1.
         21    1    1    2  504  501  0.23121156715E+02 -0.10252875350E+02  0.41534219149E+02  0.48629216538E+02  0.00000000000E+00 0.  1.
</event>
<event>
 4    1  0.1725802E+006  0.2960316E+02  0.7546771E-02  0.1423077E+00
         21   -1    0    0  502  501  0.00000000000E+00  0.00000000000E+00  0.38969184424E+01  0.38969184424E+01  0.00000000000E+00 0.  1.
         21   -1    0    0  503  502 -0.00000000000E+00 -0.00000000000E+00 -0.51317450029E+03  0.51317450029E+03  0.00000000000E+00 0.  1.
         21    1    1    2  503  504 -0.56992121693E+01  0.29049369395E+02 -0.44841687699E+03  0.44939297108E+03  0.00000000000E+00 0.  1.
         21    1    1    2  504  501  0.56992121693E+01 -0.29049369395E+02 -0.60860704856E+02  0.67678447656E+02  0.00000000000E+00 0.  1.
</event>
<event>
 4    1  0.1725802E+006  0.3618383E+02  0.7546771E-02  0.1372426E+00
         21   -1    0    0  504  501  0.00000000000E+00  0.00000000000E+00  0.41977484641E+02  0.41977484641E+02  0.00000000000E+00 0.  1.
         21   -1    0    0  501  502 -0.00000000000E+00 -0.00000000000E+00 -0.43666113428E+02  0.43666113428E+02  0.00000000000E+00 0.  1.
         21    1    1    2  503  502 -0.46294960460E+01  0.35886455211E+02 -0.23733774524E+02  0.43273108906E+02  0.00000000000E+00 0.  1.
         21    1    1    2  504  503  0.46294960460E+01 -0.35886455211E+02  0.22045145737E+02  0.42370489162E+02  0.00000000000E+00 0.  1.
</event>
<event>
 4    1  0.1725802E+006  0.2673174E+02  0.7546771E-02  0.1450322E+00
         21   -1    0    0  503  501  0.00000000000E+00  0.00000000000E+00  0.40413153321E+02  0.40413153321E+02  0.00000000000E+00 0. -1.
         21   -1    0    0  504  502 -0.00000000000E+00 -0.00000000000E+00 -0.78637412777E+03  0.78637412777E+03  0.00000000000E+00 0. -1.
         21    1    1    2  503  502  0.10368388511E+02 -0.24639045063E+02  0.35739047548E+02  0.44630320876E+02  0.00000000000E+00 0. -1.
         21    1    1    2  504  501 -0.10368388511E+02  0.24639045063E+02 -0.78170002200E+03  0.78215696022E+03  0.00000000000E+00 0. -1.
</event>
<event>
 4    1  0.1725802E+006  0.4078858E+02  0.7546771E-02  0.1343926E+00
         21   -1    0    0  502  501  0.00000000000E+00  0.00000000000E+00  0.69908327876E+02  0.69908327876E+02  0.00000000000E+00 0.  1.
         21   -1    0    0  503  502 -0.00000000000E+00 -0.00000000000E+00 -0.11495841475E+03  0.11495841475E+03  0.00000000000E+00 0. -1.
         21    1    1    2  503  504 -0.33927415586E+02  0.22641524602E+02 -0.10483654829E+03  0.11249182202E+03  0.00000000000E+00 0. -1.
         21    1    1    2  504  501  0.33927415586E+02 -0.22641524602E+02  0.59786461412E+02  0.72374920607E+02  0.00000000000E+00 0.  1.
</event>
<event>
 4    1  0.1725802E+006  0.2015360E+02  0.7546771E-02  0.1531700E+00
         21   -1    0    0  504  501  0.00000000000E+00  0.00000000000E+00  0.15807987800E+02  0.15807987800E+02  0.00000000000E+00 0.  1.
         21   -1    0    0  501  502 -0.00000000000E+00 -0.00000000000E+00 -0.27822272802E+02  0.27822272802E+02  0.00000000000E+00 0.  1.
         21    1    1    2  503  502  0.15423040547E+02 -0.12972956821E+02 -0.12040961257E+02  0.23476638098E+02  0.00000000000E+00 0.  1.
         21    1    1    2  504  503 -0.15423040547E+02  0.12972956821E+02  0.26676255324E-01  0.20153622504E+02  0.00000000000E+00 0.  1.
</event>
<event>
 4    1  0.1725802E+006  0.2576788E+02  0.7546771E-02  0.1460394E+00
         21   -1    0    0  502  501  0.00000000000E+00  0.00000000000E+00  0.18903373585E+02  0.18903373585E+02  0.00000000000E+00 0.  1.
         21   -1    0    0  504  502 -0.00000000000E+00 -0.00000000000E+00 -0.11801758014E+03  0.11801758014E+03  0.00000000000E+00 0.  1.
         21    1    1    2  503  501  0.21452705419E+02 -0.14274626881E+02  0.78180743840E+01  0.26927789168E+02  0.00000000000E+00 0.  1.
         21    1    1    2  504  503 -0.21452705419E+02  0.14274626881E+02 -0.10693228094E+03  0.10999316456E+03  0.00000000000E+00 0.  1.
</event>
<event>
 4    1  0.1725802E+006  0.2068755E+02  0.7546771E-02  0.1523773E+00
         21   -1    0    0  503  501  0.00000000000E+00  0.00000000000E+00  0.27600692855E+03  0.27600692855E+03  0.00000000000E+00 0. -1.
         21   -1    0    0  504  502 -0.00000000000E+00 -0.00000000000E+00 -0.18523902021E+02  0.18523902021E+02  0.00000000000E+00 0. -1.
         21    1    1    2  503  502 -0.13576880327E+02 -0.15609064105E+02 -0.12225591769E+02  0.24029974110E+02  0.00000000000E+00 0. -1.
         21    1    1    2  504  501  0.13576880327E+02  0.15609064105E+02  0.26970861830E+03  0.27050085646E+03  0.00000000000E+00 0. -1.
</event>
<event>
 4    1  0.1725802E+006  0.2409766E+02  0.7546771E-02  0.1479156E+00
         21   -1    0    0  503  501  0.00000000000E+00  0.00000000000E+00  0.13915415200E+02  0.13915415200E+02  0.00000000000E+00 0. -1.
         21   -1    0    0  504  502 -0.00000000000E+00 -0.00000000000E+00 -0.45327243377E+03  0.45327243377E+03  0.00000000000E+00 0. -1.
         21    1    1    2  503  502  0.12829190246E+02 -0.20398751242E+02  0.29029259092E+01  0.24271879891E+02  0.00000000000E+00 0. -1.
         21    1    1    2  504  501 -0.12829190246E+02  0.20398751242E+02 -0.44225994448E+03  0.44291596908E+03  0.00000000000E+00 0. -1.
</event>
<event>
 4    1  0.1725802E+006  0.2026819E+02  0.7546771E-02  0.1529975E+00
         21   -1    0    0  502  501  0.00000000000E+00  0.00000000000E+00  0.14443221114E+01  0.14443221114E+01  0.00000000000E+00 0.  1.
         21   -1    0    0  504  502 -0.00000000000E+00 -0.00000000000E+00 -0.43254585467E+03  0.43254585467E+03  0.00000000000E+00 0. -1.
         21    1    1    2  503  501 -0.12985583799E+02  0.15561947752E+02 -0.88568325908E+02  0.90857844783E+02  0.00000000000E+00 0.  1.
         21    1    1    2  504  503  0.12985583799E+02 -0.15561947752E+02 -0.34253320665E+03  0.34313233199E+03  0.00000000000E+00 0. -1.
</event>
<event>
 4    1  0.1725802E+006  0.2605971E+02  0.7546771E-02  0.1457289E+00
         21   -1    0    0  504  501  0.00000000000E+00  0.00000000000E+00  0.34507142889E+03  0.34507142889E+03  0.00000000000E+00 0.  1.
         21   -1    0    0  503  502 -0.00000000000E+00 -0.00000000000E+00 -0.53629687234E+02  0.53629687234E+02  0.00000000000E+00 0.  1.
         21    1    1    2  503  501  0.10134436440E+02 -0.24008371810E+02  0.34137950492E+03  0.34237271372E+03  0.00000000000E+00 0.  1.
         21    1    1    2  504  502 -0.10134436440E+02  0.24008371810E+02 -0.49937763259E+02  0.56328402412E+02  0.00000000000E+00 0.  1.
</event>
<event>
 4    1  0.1725802E+006  0.2586362E+02  0.7546771E-02  0.1459370E+00
         21   -1    0    0  504  501  0.00000000000E+00  0.00000000000E+00  0.39713308830E+03  0.39713308830E+03  0.00000000000E+00 0.  1.
         21   -1    0    0  501  502 -0.00000000000E+00 -0.00000000000E+00 -0.52134944718E+01  0.52134944718E+01  0.00000000000E+00 0. -1.
         21    1    1    2  503  502  0.14696544325E+02  0.21282344733E+02  0.30444483521E+02  0.39947380256E+02  0.00000000000E+00 0. -1.
         21    1    1    2  504  503 -0.14696544325E+02 -0.21282344733E+02  0.36147511031E+03  0.36239920252E+03  0.00000000000E+00 0.  1.
</event>
<event>
 4    1  0.1725802E+006  0.2375848E+02  0.7546771E-02  0.1483187E+00
         21   -1    0    0  503  501  0.00000000000E+00  0.00000000000E+00  0.52028619398E+01  0.52028619398E+01  0.00000000000E+00 0. -1.
         21   -1    0    0  504  502 -0.00000000000E+00 -0.00000000000E+00 -0.93328465656E+03  0.93328465656E+03  0.00000000000E+00 0. -1.
         21    1    1    2  503  502  0.46995665424E+01  0.23289045394E+02 -0.22913527940E+02  0.33007504051E+02  0.00000000000E+00 0. -1.
         21    1    1    2  504  501 -0.46995665424E+01 -0.23289045394E+02 -0.90516826668E+03  0.90548001445E+03  0.00000000000E+00 0. -1.
</event>
<event>
 4    1  0.1725802E+006  0.2034859E+02  0.7546771E-02  0.1528772E+00
         21   -1    0    0  502  501  0.00000000000E+00  0.00000000000E+00  0.20481466713E+03  0.20481466713E+03  0.00000000000E+00 0.  1.
         21   -1    0    0  503  502 -0.00000000000E+00 -0.00000000000E+00 -0.49481502977E+02  0.49481502977E+02  0.00000000000E+00 0.  1.
         21    1    1    2  503  504 -0.19477010339E+02 -0.58916052486E+01 -0.46856983031E+02  0.51084653302E+02  0.00000000000E+00 0.  1.
         21    1    1    2  504  501  0.19477010339E+02  0.58916052486E+01  0.20219014719E+03  0.20321151681E+03  0.00000000000E+00 0.  1.
</event>
<event>
 4    1  0.1725802E+006  0.2154549E+02  0.7546771E-02  0.1511617E+00
         21   -1    0    0  504  501  0.00000000000E+00  0.00000000000E+00  0.27260612535E+02  0.27260612535E+02  0.00000000000E+00 0. -1.
         21   -1    0    0  503  502 -0.00000000000E+00 -0.00000000000E+00 -0.15154869167E+03  0.15154869167E+03  0.00000000000E+00 0.  1.
         21    1    1    2  503  501 -0.25084531186E+01  0.21398971551E+02 -0.14637615397E+03  0.14795332633E+03  0.00000000000E+00 0.  1.
         21    1    1    2  504  502  0.25084531186E+01 -0.21398971551E+02  0.22088074839E+02  0.30855977874E+02  0.00000000000E+00 0. -1.
</event>
<event>
 4    1  0.1725802E+006  0.2141717E+02  0.7546771E-02  0.1513391E+00
         21   -1    0    0  502  501  0.00000000000E+00  0.00000000000E+00  0.12841808287E+03  0.12841808287E+03  0.00000000000E+00 0. -1.
         21   -1    0    0  503  502 -0.00000000000E+00 -0.00000000000E+00 -0.67863019445E+02  0.67863019445E+02  0.00000000000E+00 0.  1.
         21    1    1    2  503  504  0.15205593721E+02  0.15082615345E+02 -0.65245352765E+02  0.68670600868E+02  0.00000000000E+00 0.  1.
         21    1    1    2  504  501 -0.15205593721E+02 -0.15082615345E+02  0.12580041619E+03  0.12761050145E+03  0.00000000000E+00 0. -1.
</event>
<event>
 4    1  0.1725802E+006  0.2282517E+02  0.7546771E-02  0.1494705E+00
         21   -1    0    0  504  501  0.00000000000E+00  0.00000000000E+00  0.75327566327E+00  0.75327566327E+00  0.00000000000E+00 0.  1.
         21   -1    0    0  503  502 -0.00000000000E+00 -0.00000000000E+00 -0.74709007312E+03  0.74709007312E+03  0.00000000000E+00 0.  1.
         21    1    1    2  503  501 -0.21428274893E+02 -0.78624155920E+01 -0.47504672308E+03  0.47559476201E+03  0.00000000000E+00 0.  1.
         21    1    1    2  504  502  0.21428274893E+02  0.78624155920E+01 -0.27129007437E+03  0.27224858677E+03  0.00000000000E+00 0.  1.
</event>
<event>
 4    1  0.1725802E+006  0.2927606E+02  0.7546771E-02  0.1425994E+00
         21   -1    0    0  503  501  0.00000000000E+00  0.00000000000E+00  0.19688023613E+02  0.19688023613E+02  0.00000000000E+00 0. -1.
         21   -1    0    0  501  502 -0.00000000000E+00 -0.00000000000E+00 -0.27865262139E+03  0.27865262139E+03  0.00000000000E+00 0.  1.
         21    1    1    2  503  504 -0.74442540017E+01  0.28313788510E+02  0.75411472947E+01  0.30231712488E+02  0.00000000000E+00 0. -1.
         21    1    1    2  504  502  0.74442540017E+01 -0.28313788510E+02 -0.26650574507E+03  0.26810893251E+03  0.00000000000E+00 0.  1.
</event>
<event>
 4    1  0.1725802E+006  0.2182852E+02  0.7546771E-02  0.1507757E+00
         21   -1    0    0  503  501  0.00000000000E+00  0.00000000000E+00  0.54331445010E+03  0.54331445010E+03  0.00000000000E+00 0. -1.
         21   -1    0    0  504  502 -0.00000000000E+00 -0.00000000000E+00 -0.10569592531E+01  0.10569592531E+01  0.00000000000E+00 0. -1.
         21    1    1    2  503  502  0.21324999494E+02  0.46613874742E+01  0.38344151453E+03  0.38406233766E+03  0.00000000000E+00 0. -1.
         21    1    1    2  504  501 -0.21324999494E+02 -0.46613874742E+01  0.15881597631E+03  0.16030907170E+03  0.00000000000E+00 0. -1.
</event>
<event>
 4    1  0.1725802E+006  0.3144802E+02  0.7546771E-02  0.1407417E+00
         21   -1    0    0  503  501  0.00000000000E+00  0.00000000000E+00  0.29271143368E+01  0.29271143368E+01  0.00000000000E+00 0. -1.
         21   -1    0    0  504  502 -0.00000000000E+00 -0.00000000000E+00 -0.15889397879E+04  0.15889397879E+04  0.00000000000E+00 0.  1.
         21    1    1    2  503  502  0.17817339717E+02 -0.25913709307E+02 -0.86747047611E+02  0.92271491772E+02  0.00000000000E+00 0. -1.
         21    1    1    2  504  501 -0.17817339717E+02  0.25913709307E+02 -0.14992656259E+04  0.14995954104E+04  0.00000000000E+00 0.  1.
</event>
<event>
 4    1  0.1725802E+006  0.2080358E+02  0.7546771E-02  0.1522088E+00
         21   -1    0    0  504  501  0.00000000000E+00  0.00000000000E+00  0.45763085046E+03  0.45763085046E+03  0.00000000000E+00 0. -1.
         21   -1    0    0  503  502 -0.00000000000E+00 -0.00000000000E+00 -0.11628236112E+01  0.11628236112E+01  0.00000000000E+00 0. -1.
         21    1    1    2  503  501  0.20383047226E+02 -0.41617816542E+01  0.12911258752E+03  0.13077786241E+03  0.00000000000E+00 0. -1.
         21    1    1    2  504  502 -0.20383047226E+02  0.41617816542E+01  0.32735543932E+03  0.32801581165E+03  0.00000000000E+00 0. -1.
</event>
<event>
 4    1  0.1725802E+006  0.4998035E+02  0.7546771E-02  0.1298258E+00
         21   -1    0    0  503  501  0.00000000000E+00  0.00000000000E+00  0.17869128205E+03  0.17869128205E+03  0.00000000000E+00 0.  1.
         21   -1    0    0  504  502 -0.00000000000E+00 -0.00000000000E+00 -0.14268265231E+02  0.14268265231E+02  0.00000000000E+00 0. -1.
         21    1    1    2  503  502  0.49126301439E+02  0.92001163837E+01  0.95934075070E+02  0.10817292819E+03  0.00000000000E+00 0. -1.
         21    1    1    2  504  501 -0.49126301439E+02 -0.92001163837E+01  0.68488941753E+02  0.84786619091E+02  0.00000000000E+00 0.  1.
</event>
<event>
 4    1  0.1725802E+006  0.2646869E+02  0.7546771E-02  0.1453019E+00
         21   -1    0    0  503  501  0.00000000000E+00  0.00000000000E+00  0.12277837399E+02  0.12277837399E+02  0.00000000000E+00 0.  1.
         21   -1    0    0  504  502 -0.00000000000E+00 -0.00000000000E+00 -0.59077070511E+02  0.59077070511E+02  0.00000000000E+00 0. -1.
         21    1    1    2  503  502 -0.11762763775E+02  0.23711366452E+02 -0.16809606458E+02  0.31355292694E+02  0.00000000000E+00 0.  1.
         21    1    1    2  504  501  0.11762763775E+02 -0.23711366452E+02 -0.29989626654E+02  0.39999615217E+02  0.00000000000E+00 0. -1.
</event>
<event>
 4    1  0.1725802E+006  0.2622414E+02  0.7546771E-02  0.1455561E+00
         21   -1    0    0  503  501  0.00000000000E+00  0.00000000000E+00  0.76049238583E+02  0.76049238583E+02  0.00000000000E+00 0. -1.
         21   -1    0    0  504  502 -0.00000000000E+00 -0.00000000000E+00 -0.11076652968E+02  0.11076652968E+02  0.00000000000E+00 0. -1.
         21    1    1    2  503  502  0.17556615835E+02  0.19480005665E+02  0.51152773989E+02  0.57483142460E+02  0.00000000000E+00 0. -1.
         21    1    1    2  504  501 -0.17556615835E+02 -0.19480005665E+02  0.13819811626E+02  0.29642749091E+02  0.00000000000E+00 0. -1.
</event>
<event>
 4    1  0.1725802E+006  0.3410177E+02  0.7546771E-02  0.1386990E+00
         21   -1    0    0  502  501  0.00000000000E+00  0.00000000000E+00  0.43905494689E+01  0.43905494689E+01  0.00000000000E+00 0. -1.
         21   -1    0    0  503  502 -0.00000000000E+00 -0.00000000000E+00 -0.46561780962E+03  0.46561780962E+03  0.00000000000E+00 0. -1.
         21    1    1    2  503  504  0.33491155765E+02 -0.64244200550E+01 -0.38492032207E+03  0.38642798169E+03  0.00000000000E+00 0. -1.
         21    1    1    2  504  501 -0.33491155765E+02  0.64244200550E+01 -0.76306938082E+02  0.83580377403E+02  0.00000000000E+00 0. -1.
</event>
<event>
 4    1  0.1725802E+006  0.3108401E+02  0.7546771E-02  0.1410404E+00
         21   -1    0    0  502  501  0.00000000000E+00  0.00000000000E+00  0.12949623515E+03  0.12949623515E+03  0.00000000000E+00 0. -1.
         21   -1    0    0  503  502 -0.00000000000E+00 -0.00000000000E+00 -0.16221091047E+03  0.16221091047E+03  0.00000000000E+00 0. -1.
         21    1    1    2  503  504 -0.46624396265E+01  0.30732347140E+02 -0.15881695270E+03  0.16183028137E+03  0.00000000000E+00 0. -1.
         21    1    1    2  504  501  0.46624396265E+01 -0.30732347140E+02  0.12610227739E+03  0.12987686425E+03  0.00000000000E+00 0. -1.
</event>
<event>
 4    1  0.1725802E+006  0.3795541E+02  0.7546771E-02  0.1360902E+00
         21   -1    0    0  504  501  0.00000000000E+00  0.00000000000E+00  0.94419061236E+01  0.94419061236E+01  0.00000000000E+00 0.  1.
         21   -1    0    0  503  502 -0.00000000000E+00 -0.00000000000E+00 -0.21035682200E+03  0.21035682200E+03  0.00000000000E+00 0.  1.
         21    1    1    2  503  501 -0.17041826180E+02 -0.33914439798E+02 -0.15805538151E+03  0.16254881326E+03  0.00000000000E+00 0.  1.
         21    1    1    2  504  502  0.17041826180E+02  0.33914439798E+02 -0.42859534367E+02  0.57249914869E+02  0.00000000000E+00 0.  1.
</event>
<event>
 4    1  0.1725802E+006  0.2602100E+02  0.7546771E-02  0.1457698E+00
         21   -1    0    0  504  501  0.00000000000E+00  0.00000000000E+00  0.70289870841E+02  0.70289870841E+02  0.00000000000E+00 0. -1.
         21   -1    0    0  503  502 -0.00000000000E+00 -0.00000000000E+00 -0.10902041145E+03  0.10902041145E+03  0.00000000000E+00 0.  1.
         21    1    1    2  503  501  0.73195820164E+01  0.24970302720E+02  0.66237395925E+02  0.71165194567E+02  0.00000000000E+00 0. -1.
         21    1    1    2  504  502 -0.73195820164E+01 -0.24970302720E+02 -0.10496793654E+03  0.10814508773E+03  0.00000000000E+00 0.  1.
</event>
<event>
 4    1  0.1725802E+006  0.4620565E+02  0.7546771E-02  0.1315518E+00
         21   -1    0    0  503  501  0.00000000000E+00  0.00000000000E+00  0.20957245055E+02  0.20957245055E+02  0.00000000000E+00 0.  1.
         21   -1    0    0  504  502 -0.00000000000E+00 -0.00000000000E+00 -0.10549516578E+03  0.10549516578E+03  0.00000000000E+00 0.  1.
         21    1    1    2  503  502 -0.33590958982E+02 -0.31727110665E+02 -0.30552163444E+02  0.55393111193E+02  0.00000000000E+00 0.  1.
         21    1    1    2  504  501  0.33590958982E+02  0.31727110665E+02 -0.53985757285E+02  0.71059299645E+02  0.00000000000E+00 0.  1.
</event>
<event>
 4    1  0.1725802E+006  0.2166396E+02  0.7546771E-02  0.1509993E+00
         21   -1    0    0  504  501  0.00000000000E+00  0.00000000000E+00  0.49414964071E+01  0.49414964071E+01  0.00000000000E+00 0. -1.
         21   -1    0    0  503  502 -0.00000000000E+00 -0.00000000000E+00 -0.64818037441E+03  0.64818037441E+03  0.00000000000E+00 0.  1.
         21    1    1    2  503  501  0.10196147520E+02 -0.19114537443E+02 -0.62330798726E+03  0.62368435442E+03  0.00000000000E+00 0.  1.
         21    1    1    2  504  502 -0.10196147520E+02  0.19114537443E+02 -0.19930890746E+02  0.29437516400E+02  0.00000000000E+00 0. -1.
</event>
<event>
 4    1  0.1725802E+006  0.2401537E+02  0.7546771E-02  0.1480127E+00
         21   -1    0    0  502  501  0.00000000000E+00  0.00000000000E+00  0.42857451955E+01  0.42857451955E+01  0.00000000000E+00 0. -1.
         21   -1    0    0  504  502 -0.00000000000E+00 -0.00000000000E+00 -0.15994367427E+03  0.15994367427E+03  0.00000000000E+00 0. -1.
         21    1    1    2  503  501 -0.21375525101E+02  0.10946463413E+02 -0.45123650963E+02  0.51116357566E+02  0.00000000000E+00 0. -1.
         21    1    1    2  504  503  0.21375525101E+02 -0.10946463413E+02 -0.11053427811E+03  0.11311306190E+03  0.00000000000E+00 0. -1.
</event>
<event>
 4    1  0.1725802E+006  0.2181390E+02  0.7546771E-02  0.1507954E+00
         21   -1    0    0  503  501  0.00000000000E+00  0.00000000000E+00  0.36022651298E+01  0.36022651298E+01  0.00000000000E+00 0. -1.
         21   -1    0    0  504  502 -0.00000000000E+00 -0.00000000000E+00 -0.16085037089E+03  0.16085037089E+03  0.00000000000E+00 0. -1.
         21    1    1    2  503  502  0.18296832318E+02  0.11877384491E+02 -0.11338955909E+03  0.11546877693E+03  0.00000000000E+00 0. -1.
         21    1    1    2  504  501 -0.18296832318E+02 -0.11877384491E+02 -0.43858546667E+02  0.48983859087E+02  0.00000000000E+00 0. -1.
</event>
<event>
 4    1  0.1725802E+006  0.2210925E+02  0.7546771E-02  0.1503997E+00
         21   -1    0    0  503  501  0.00000000000E+00  0.00000000000E+00  0.12069024454E+02  0.12069024454E+02  0.00000000000E+00 0. -1.
         21   -1    0    0  501  502 -0.00000000000E+00 -0.00000000000E+00 -0.34626877008E+03  0.34626877008E+03  0.00000000000E+00 0. -1.
         21    1    1    2  503  504  0.71261818186E+01  0.20929321458E+02  0.12648658209E+01  0.22145402448E+02  0.00000000000E+00 0. -1.
         21    1    1    2  504  502 -0.71261818186E+01 -0.20929321458E+02 -0.33546461145E+03  0.33619239209E+03  0.00000000000E+00 0. -1.
</event>
<event>
 4    1  0.1725802E+006  0.2497912E+02  0.7546771E-02  0.1469037E+00
         21   -1    0    0  503  501  0.00000000000E+00  0.00000000000E+00  0.78380489877E+02  0.78380489877E+02  0.00000000000E+00 0. -1.
         21   -1    0    0  504  502 -0.00000000000E+00 -0.00000000000E+00 -0.26443611057E+03  0.26443611057E+03  0.00000000000E+00 0.  1.
         21    1    1    2  503  502  0.12389900613E+02  0.21689786710E+02 -0.26183634936E+03  0.26302515151E+03  0.00000000000E+00 0.  1.
         21    1    1    2  504  501 -0.12389900613E+02 -0.21689786710E+02  0.75780728667E+02  0.79791448928E+02  0.00000000000E+00 0. -1.
</event>
<event>
 4    1  0.1725802E+006  0.2001958E+02  0.7546771E-02  0.1533737E+00
         21   -1    0    0  504  501  0.00000000000E+00  0.00000000000E+00  0.22779113799E+03  0.22779113799E+03  0.00000000000E+00 0.  1.
         21   -1    0    0  501  502 -0.00000000000E+00 -0.00000000000E+00 -0.22889349816E+02  0.22889349816E+02  0.00000000000E+00 0.  1.
         21    1    1    2  503  502 -0.10195142157E+02  0.17229122588E+02 -0.17975778090E+02  0.26905616267E+02  0.00000000000E+00 0.  1.
         21    1    1    2  504  503  0.10195142157E+02 -0.17229122588E+02  0.22287756626E+03  0.22377487154E+03  0.00000000000E+00 0.  1.
</event>
<event>
 4    1  0.1725802E+006  0.2103364E+02  0.7546771E-02  0.1518785E+00
         21   -1    0    0  503  501  0.00000000000E+00  0.00000000000E+00  0.20008325603E+01  0.20008325603E+01  0.00000000000E+00 0.  1.
         21   -1    0    0  504  502 -0.00000000000E+00 -0.00000000000E+00 -0.36780521541E+03  0.36780521541E+03  0.00000000000E+00 0. -1.
         21    1    1    2  503  502 -0.16827151495E+02  0.12619869387E+02 -0.66131025524E+02  0.69395436937E+02  0.00000000000E+00 0.  1.
         21    1    1    2  504  501  0.16827151495E+02 -0.12619869387E+02 -0.29967335733E+03  0.30041061104E+03  0.00000000000E+00 0. -1.
</event>
<event>
 4    1  0.1725802E+006  0.2019220E+02  0.7546771E-02  0.1531118E+00
         21   -1    0    0  504  501  0.00000000000E+00  0.00000000000E+00  0.12119946781E+03  0.12119946781E+03  0.00000000000E+00 0. -1.
         21   -1    0    0  501  502 -0.00000000000E+00 -0.00000000000E+00 -0.65689095626E+02  0.65689095626E+02  0.00000000000E+00 0.  1.
         21    1    1    2  503  502  0.19547700965E+02 -0.50608596444E+01 -0.63264908131E+02  0.66409137279E+02  0.00000000000E+00 0.  1.
         21    1    1    2  504  503 -0.19547700965E+02  0.50608596444E+01  0.11877528032E+03  0.12047942616E+03  0.00000000000E+00 0. -1.
</event>
<event>
 4    1  0.1725802E+006  0.2182180E+02  0.7546771E-02  0.1507848E+00
         21   -1    0    0  502  501  0.00000000000E+00  0.00000000000E+00  0.90976714794E+01  0.90976714794E+01  0.00000000000E+00 0. -1.
         21   -1    0    0  504  502 -0.00000000000E+00 -0.00000000000E+00 -0.29072538385E+03  0.29072538385E+03  0.00000000000E+00 0. -1.
         21    1    1    2  503  501  0.21581067430E+02 -0.32323892606E+01 -0.50664642182E+01  0.22402229162E+02  0.00000000000E+00 0. -1.
         21    1    1    2  504  503 -0.21581067430E+02  0.32323892606E+01 -0.27656124815E+03  0.27742082617E+03  0.00000000000E+00 0. -1.
</event>
<event>
 4    1  0.1725802E+006  0.2008066E+02  0.7546771E-02  0.1532806E+00
         21   -1    0    0  502  501  0.00000000000E+00  0.00000000000E+00  0.29721427070E+03  0.29721427070E+03  0.00000000000E+00 0. -1.
         21   -1    0    0  503  502 -0.00000000000E+00 -0.00000000000E+00 -0.97616899698E+01  0.97616899698E+01  0.00000000000E+00 0. -1.
         21    1    1    2  503  504 -0.20056167717E+02 -0.99145863214E+00  0.13032442202E+01  0.20122904840E+02  0.00000000000E+00 0. -1.
         21    1    1    2  504  501  0.20056167717E+02  0.99145863214E+00  0.28614933651E+03  0.28685305583E+03  0.00000000000E+00 0. -1.
</event>
<event>
 4    1  0.1725802E+006  0.3085757E+02  0.7546771E-02  0.1412287E+00
         21   -1    0    0  504  501  0.00000000000E+00  0.00000000000E+00  0.29528622641E+03  0.29528622641E+03  0.00000000000E+00 0. -1.
         21   -1    0    0  501  502 -0.00000000000E+00 -0.00000000000E+00 -0.34893873454E+02  0.34893873454E+02  0.00000000000E+00 0. -1.
         21    1    1    2  503  502  0.30188369877E+02  0.63915537870E+01 -0.27080793443E+02  0.41055560027E+02  0.00000000000E+00 0. -1.
         21    1    1    2  504  503 -0.30188369877E+02 -0.63915537870E+01  0.28747314640E+03  0.28912453983E+03  0.00000000000E+00 0. -1.
</event>
<event>
 4    1  0.1725802E+006  0.4116206E+02  0.7546771E-02  0.1341808E+00
         21   -1    0    0  504  501  0.00000000000E+00  0.00000000000E+00  0.13628828258E+03  0.13628828258E+03  0.00000000000E+00 0.  1.
         21   -1    0    0  503  502 -0.00000000000E+00 -0.00000000000E+00 -0.11079832639E+03  0.11079832639E+03  0.00000000000E+00 0.  1.
         21    1    1    2  503  501  0.31873699391E+02 -0.26045772198E+02  0.12915119602E+03  0.13555200624E+03  0.00000000000E+00 0.  1.
         21    1    1    2  504  502 -0.31873699391E+02  0.26045772198E+02 -0.10366123984E+03  0.11153460273E+03  0.00000000000E+00 0.  1.
</event>
<event>
 4    1  0.1725802E+006  0.2155360E+02  0.7546771E-02  0.1511506E+00
         21   -1    0    0  503  501  0.00000000000E+00  0.00000000000E+00  0.14516945633E+03  0.14516945633E+03  0.00000000000E+00 0. -1.
         21   -1    0    0  504  502 -0.00000000000E+00 -0.00000000000E+00 -0.43429904502E+01  0.43429904502E+01  0.00000000000E+00 0. -1.
         21    1    1    2  503  502 -0.16225488356E+02 -0.14187717181E+02  0.10876221944E+03  0.11087731133E+03  0.00000000000E+00 0. -1.
         21    1    1    2  504  501  0.16225488356E+02  0.14187717181E+02  0.32064246443E+02  0.38635135449E+02  0.00000000000E+00 0. -1.
</event>
<event>
 4    1  0.1725802E+006  0.4097496E+02  0.7546771E-02  0.1342865E+00
         21   -1    0    0  504  501  0.00000000000E+00  0.00000000000E+00  0.22882422892E+01  0.22882422892E+01  0.00000000000E+00 0.  1.
         21   -1    0    0  503  502 -0.00000000000E+00 -0.00000000000E+00 -0.75545684703E+03  0.75545684703E+03  0.00000000000E+00 0.  1.
         21    1    1    2  503  501  0.36316819372E+02  0.18974622913E+02 -0.44083910183E+03  0.44273927021E+03  0.00000000000E+00 0.  1.
         21    1    1    2  504  502 -0.36316819372E+02 -0.18974622913E+02 -0.31232950291E+03  0.31500581911E+03  0.00000000000E+00 0.  1.
</event>
<event>
 4    1  0.1725802E+006  0.2238024E+02  0.7546771E-02  0.1500431E+00
         21   -1    0    0  504  501  0.00000000000E+00  0.00000000000E+00  0.15655521777E+03  0.15655521777E+03  0.00000000000E+00 0. -1.
         21   -1    0    0  503  502 -0.00000000000E+00 -0.00000000000E+00 -0.15518493736E+02  0.15518493736E+02  0.00000000000E+00 0. -1.
         21    1    1    2  503  501  0.22142620333E+02  0.32526133852E+01  0.14717503873E+03  0.14886694446E+03  0.00000000000E+00 0. -1.
         21    1    1    2  504  502 -0.22142620333E+02 -0.32526133852E+01 -0.61383146993E+01  0.23206767039E+02  0.00000000000E+00 0. -1.
</event>
<event>
 4    1  0.1725802E+006  0.2056462E+02  0.7546771E-02  0.1525573E+00
         21   -1    0    0  502  501  0.00000000000E+00  0.00000000000E+00  0.15751593112E+03  0.15751593112E+03  0.00000000000E+00 0.  1.
         21   -1    0    0  504  502 -0.00000000000E+00 -0.00000000000E+00 -0.14694702082E+02  0.14694702082E+02  0.00000000000E+00 0.  1.
         21    1    1    2  503  501 -0.19309172737E+02 -0.70752831711E+01  0.14925346543E+03  0.15066353482E+03  0.00000000000E+00 0.  1.
         21    1    1    2  504  503  0.19309172737E+02  0.70752831711E+01 -0.64322363853E+01  0.21547098382E+02  0.00000000000E+00 0.  1.
</event>
<event>
 4    1  0.1725802E+006  0.2007525E+02  0.7546771E-02  0.1532888E+00
         21   -1    0    0  502  501  0.00000000000E+00  0.00000000000E+00  0.43543750396E+02  0.43543750396E+02  0.00000000000E+00 0. -1.
         21   -1    0    0  503  502 -0.00000000000E+00 -0.00000000000E+00 -0.12905862425E+02  0.12905862425E+02  0.00000000000E+00 0. -1.
         21    1    1    2  503  504 -0.44877516975E+01 -0.19567214189E+02  0.30792800346E+00  0.20077614551E+02  0.00000000000E+00 0. -1.
         21    1    1    2  504  501  0.44877516975E+01  0.19567214189E+02  0.30329959968E+02  0.36371998269E+02  0.00000000000E+00 0. -1.
</event>
<event>
 4    1  0.1725802E+006  0.3050756E+02  0.7546771E-02  0.1415236E+00
         21   -1    0    0  503  501  0.00000000000E+00  0.00000000000E+00  0.21796187382E+02  0.21796187382E+02  0.00000000000E+00 0. -1.
         21   -1    0    0  504  502 -0.00000000000E+00 -0.00000000000E+00 -0.10481873845E+03  0.10481873845E+03  0.00000000000E+00 0. -1.
         21    1    1    2  503  502  0.30500373808E+02  0.66206016319E+00 -0.90246674460E+02  0.95263704406E+02  0.00000000000E+00 0. -1.
         21    1    1    2  504  501 -0.30500373808E+02 -0.66206016319E+00  0.72241233924E+01  0.31351221426E+02  0.00000000000E+00 0. -1.
</event>
<event>
 4    1  0.1725802E+006  0.2592812E+02  0.7546771E-02  0.1458683E+00
         21   -1    0    0  504  501  0.00000000000E+00  0.00000000000E+00  0.14164093995E+03  0.14164093995E+03  0.00000000000E+00 0.  1.
         21   -1    0    0  501  502 -0.00000000000E+00 -0.00000000000E+00 -0.17471326360E+02  0.17471326360E+02  0.00000000000E+00 0.  1.
         21    1    1    2  503  502 -0.17130004348E+02  0.19463567870E+02 -0.58106037832E+01  0.26571237072E+02  0.00000000000E+00 0.  1.
         21    1    1    2  504  503  0.17130004348E+02 -0.19463567870E+02  0.12998021737E+03  0.13254102924E+03  0.00000000000E+00 0.  1.
</event>
<event>
 4    1  0.1725802E+006  0.3108526E+02  0.7546771E-02  0.1410394E+00
         21   -1    0    0  503  501  0.00000000000E+00  0.00000000000E+00  0.96543008164E+02  0.96543008164E+02  0.00000000000E+00 0.  1.
         21   -1    0    0  504  502 -0.00000000000E+00 -0.00000000000E+00 -0.22286797575E+02  0.22286797575E+02  0.00000000000E+00 0. -1.
         21    1    1    2  503  502  0.17748749832E+02  0.25520098289E+02 -0.69713054691E+01  0.31857379636E+02  0.00000000000E+00 0. -1.
         21    1    1    2  504  501 -0.17748749832E+02 -0.25520098289E+02  0.81227516058E+02  0.86972426103E+02  0.00000000000E+00 0.  1.
</event>
<event>
 4    1  0.1725802E+006  0.2928697E+02  0.7546771E-02  0.1425895E+00
         21   -1    0    0  503  501  0.00000000000E+00  0.00000000000E+00  0.22479939658E+03  0.22479939658E+03  0.00000000000E+00 0. -1.
         21   -1    0    0  504  502 -0.00000000000E+00 -0.00000000000E+00 -0.23511470110E+03  0.23511470110E+03  0.00000000000E+00 0.  1.
         21    1    1    2  503  502 -0.26341512965E+01  0.29168268153E+02  0.22292585436E+03  0.22484141781E+03  0.00000000000E+00 0. -1.
         21    1    1    2  504  501  0.26341512965E+01 -0.29168268153E+02 -0.23324115889E+03  0.23507267987E+03  0.00000000000E+00 0.  1.
</event>
<event>
 4    1  0.1725802E+006  0.2407857E+02  0.7546771E-02  0.1479381E+00
         21   -1    0    0  503  501  0.00000000000E+00  0.00000000000E+00  0.14348681915E+02  0.14348681915E+02  0.00000000000E+00 0.  1.
         21   -1    0    0  504  502 -0.00000000000E+00 -0.00000000000E+00 -0.70939015168E+02  0.70939015168E+02  0.00000000000E+00 0. -1.
         21    1    1    2  503  502  0.18307488539E+02 -0.15640124264E+02 -0.56271854087E+02  0.61207019091E+02  0.00000000000E+00 0. -1.
         21    1    1    2  504  501 -0.18307488539E+02  0.15640124264E+02 -0.31847916689E+00  0.24080677993E+02  0.00000000000E+00 0.  1.
</event>
<event>
 4    1  0.1725802E+006  0.2372888E+02  0.7546771E-02  0.1483543E+00
         21   -1    0    0  504  501  0.00000000000E+00  0.00000000000E+00  0.52833556892E+02  0.52833556892E+02  0.00000000000E+00 0. -1.
         21   -1    0    0  503  502 -0.00000000000E+00 -0.00000000000E+00 -0.33539627292E+02  0.33539627292E+02  0.00000000000E+00 0. -1.
         21    1    1    2  503  501  0.38326675549E+01  0.23417307797E+02 -0.26024466009E+02  0.35218354250E+02  0.00000000000E+00 0. -1.
         21    1    1    2  504  502 -0.38326675549E+01 -0.23417307797E+02  0.45318395609E+02  0.51154829934E+02  0.00000000000E+00 0. -1.
</event>
<event>
 4    1  0.1725802E+006  0.2520355E+02  0.7546771E-02  0.1466539E+00
         21   -1    0    0  502  501  0.00000000000E+00  0.00000000000E+00  0.52670519855E+02  0.52670519855E+02  0.00000000000E+00 0.  1.
         21   -1    0    0  503  502 -0.00000000000E+00 -0.00000000000E+00 -0.71785546888E+02  0.71785546888E+02  0.00000000000E+00 0. -1.
         21    1    1    2  503  504  0.11993466067E+01 -0.25174997630E+02 -0.66318087188E+02  0.70945807672E+02  0.00000000000E+00 0. -1.
         21    1    1    2  504  501 -0.11993466067E+01  0.25174997630E+02  0.47203060155E+02  0.53510259072E+02  0.00000000000E+00 0.  1.
</event>
<event>
 4    1  0.1725802E+006  0.2739089E+02  0.7546771E-02  0.1443721E+00
         21   -1    0    0  504  501  0.00000000000E+00  0.00000000000E+00  0.17183776641E+02  0.17183776641E+02  0.00000000000E+00 0.  1.
         21   -1    0    0  503  502 -0.00000000000E+00 -0.00000000000E+00 -0.60713242288E+02  0.60713242288E+02  0.00000000000E+00 0.  1.
         21    1    1    2  503  501 -0.25577361887E+02  0.98009857924E+01 -0.42406171165E+02  0.50483107239E+02  0.00000000000E+00 0.  1.
         21    1    1    2  504  502  0.25577361887E+02 -0.98009857924E+01 -0.11232944815E+01  0.27413911689E+02  0.00000000000E+00 0.  1.
</event>
<event>
 4    1  0.1725802E+006  0.3468691E+02  0.7546771E-02  0.1382778E+00
         21   -1    0    0  504  501  0.00000000000E+00  0.00000000000E+00  0.75280469843E+02  0.75280469843E+02  0.00000000000E+00 0.  1.
         21   -1    0    0  501  502 -0.00000000000E+00 -0.00000000000E+00 -0.36052045121E+02  0.36052045121E+02  0.00000000000E+00 0.  1.
         21    1    1    2  503  502  0.17982824823E+02 -0.29661418339E+02 -0.21918870262E+02  0.41031921720E+02  0.00000000000E+00 0.  1.
         21    1    1    2  504  503 -0.17982824823E+02  0.29661418339E+02  0.61147294985E+02  0.70300593244E+02  0.00000000000E+00 0.  1.
</event>
<event>
 4    1  0.1725802E+006  0.2274465E+02  0.7546771E-02  0.1495730E+00
         21   -1    0    0  504  501  0.00000000000E+00  0.00000000000E+00  0.13414424519E+02  0.13414424519E+02  0.00000000000E+00 0.  1.
         21   -1    0    0  503  502 -0.00000000000E+00 -0.00000000000E+00 -0.27389827872E+03  0.27389827872E+03  0.00000000000E+00 0.  1.
         21    1    1    2  503  501  0.81278227253E+01 -0.21242821611E+02  0.29176555991E+01  0.22931020179E+02  0.00000000000E+00 0.  1.
         21    1    1    2  504  502 -0.81278227253E+01  0.21242821611E+02 -0.26340150980E+03  0.26438168306E+03  0.00000000000E+00 0.  1.
</event>
<event>
 4    1  0.1725802E+006  0.2295906E+02  0.7546771E-02  0.1493013E+00
         21   -1    0    0  504  501  0.00000000000E+00  0.00000000000E+00  0.24742046172E+03  0.24742046172E+03  0.00000000000E+00 0.  1.
         21   -1    0    0  501  502 -0.00000000000E+00 -0.00000000000E+00 -0.21499932185E+01  0.21499932185E+01  0.00000000000E+00 0.  1.
         21    1    1    2  503  502 -0.22510387463E+02  0.45167415938E+01  0.11074003003E+03  0.11309497225E+03  0.00000000000E+00 0.  1.
         21    1    1    2  504  503  0.22510387463E+02 -0.45167415938E+01  0.13453043848E+03  0.13647548269E+03  0.00000000000E+00 0.  1.
</event>
<event>
 4    1  0.1725802E+006  0.2117406E+02  0.7546771E-02  0.1516794E+00
         21   -1    0    0  504  501  0.00000000000E+00  0.00000000000E+00  0.32553815727E+03  0.32553815727E+03  0.00000000000E+00 0. -1.
         21   -1    0    0  503  502 -0.00000000000E+00 -0.00000000000E+00 -0.33141285271E+01  0.33141285271E+01  0.00000000000E+00 0. -1.
         21    1    1    2  503  501 -0.21009890483E+02  0.26315743048E+01  0.35410731185E+02  0.41258460520E+02  0.00000000000E+00 0. -1.
         21    1    1    2  504  502  0.21009890483E+02 -0.26315743048E+01  0.28681329756E+03  0.28759382528E+03  0.00000000000E+00 0. -1.
</event>
<event>
 4    1  0.1725802E+006  0.2833239E+02  0.7546771E-02  0.1434664E+00
         21   -1    0    0  504  501  0.00000000000E+00  0.00000000000E+00  0.97555567202E+02  0.97555567202E+02  0.00000000000E+00 0.  1.
         21   -1    0    0  503  502 -0.00000000000E+00 -0.00000000000E+00 -0.15220422536E+02  0.15220422536E+02  0.00000000000E+00 0. -1.
         21    1    1    2  503  501  0.13933442009E+02 -0.24669491238E+02  0.79386211917E+02  0.84290540671E+02  0.00000000000E+00 0.  1.
         21    1    1    2  504  502 -0.13933442009E+02  0.24669491238E+02  0.29489327491E+01  0.28485449066E+02  0.00000000000E+00 0. -1.
</event>
<event>
 4    1  0.1725802E+006  0.2370686E+02  0.7546771E-02  0.1483808E+00
         21   -1    0    0  502  501  0.00000000000E+00  0.00000000000E+00  0.17613533617E+03  0.17613533617E+03  0.00000000000E+00 0. -1.
         21   -1    0    0  503  502 -0.00000000000E+00 -0.00000000000E+00 -0.11256185570E+02  0.11256185570E+02  0.00000000000E+00 0. -1.
         21    1    1    2  503  504  0.22090882003E+02 -0.86028112130E+01  0.31280212829E+01  0.23912338773E+02  0.00000000000E+00 0. -1.
         21    1    1    2  504  501 -0.22090882003E+02  0.86028112130E+01  0.16175112931E+03  0.16347918296E+03  0.00000000000E+00 0. -1.
</event>
<event>
 4    1  0.1725802E+006  0.2035799E+02  0.7546771E-02  0.1528632E+00
         21   -1    0    0  504  501  0.00000000000E+00  0.00000000000E+00  0.75443067181E+01  0.75443067181E+01  0.00000000000E+00 0. -1.
         21   -1    0    0  503  502 -0.00000000000E+00 -0.00000000000E+00 -0.83504184963E+02  0.83504184963E+02  0.00000000000E+00 0. -1.
         21    1    1    2  503  501 -0.12446825287E+02 -0.16109756844E+02 -0.11352075768E+02  0.23309168787E+02  0.00000000000E+00 0. -1.
         21    1    1    2  504  502  0.12446825287E+02  0.16109756844E+02 -0.64607802477E+02  0.67739322895E+02  0.00000000000E+00 0. -1.
</event>
<event>
 4    1  0.1725802E+006  0.2014710E+02  0.7546771E-02  0.1531799E+00
         21   -1    0    0  503  501  0.00000000000E+00  0.00000000000E+00  0.55206684678E+03  0.55206684678E+03  0.00000000000E+00 0.  1.
         21   -1    0    0  504  502 -0.00000000000E+00 -0.00000000000E+00 -0.19661425637E+01  0.19661425637E+01  0.00000000000E+00 0.  1.
         21    1    1    2  503  502 -0.20069914758E+02 -0.17618910118E+01  0.55866451328E+02  0.59388265864E+02  0.00000000000E+00 0.  1.
         21    1    1    2  504  501  0.20069914758E+02  0.17618910118E+01  0.49423425289E+03  0.49464472348E+03  0.00000000000E+00 0.  1.
</event>
<event>
 4    1  0.1725802E+006  0.2078195E+02  0.7546771E-02  0.1522401E+00
         21   -1    0    0  504  501  0.00000000000E+00  0.00000000000E+00  0.24084527287E+03  0.24084527287E+03  0.00000000000E+00 0.  1.
         21   -1    0    0  503  502 -0.00000000000E+00 -0.00000000000E+00 -0.18118920511E+01  0.18118920511E+01  0.00000000000E+00 0.  1.
         21    1    1    2  503  501  0.12178472829E+02 -0.16839666400E+02  0.13183197521E+03  0.13345995374E+03  0.00000000000E+00 0.  1.
         21    1    1    2  504  502 -0.12178472829E+02  0.16839666400E+02  0.10720140561E+03  0.10919721118E+03  0.00000000000E+00 0.  1.
</event>
<event>
 4    1  0.1725802E+006  0.2937043E+02  0.7546771E-02  0.1425147E+00
         21   -1    0    0  503  501  0.00000000000E+00  0.00000000000E+00  0.88041702471E+02  0.88041702471E+02  0.00000000000E+00 0.  1.
         21   -1    0    0  504  502 -0.00000000000E+00 -0.00000000000E+00 -0.10173234953E+02  0.10173234953E+02  0.00000000000E+00 0.  1.
         21    1    1    2  503  502 -0.15143783324E+02 -0.25165217520E+02  0.48366956014E+02  0.56586082921E+02  0.00000000000E+00 0.  1.
         21    1    1    2  504  501  0.15143783324E+02  0.25165217520E+02  0.29501511504E+02  0.41628854503E+02  0.00000000000E+00 0.  1.
</event>
<event>
 4    1  0.1725802E+006  0.2488579E+02  0.7546771E-02  0.1470085E+00
         21   -1    0    0  504  501  0.00000000000E+00  0.00000000000E+00  0.18268923574E+03  0.18268923574E+03  0.00000000000E+00 0. -1.
         21   -1    0    0  501  502 -0.00000000000E+00 -0.00000000000E+00 -0.78157560984E+02  0.78157560984E+02  0.00000000000E+00 0.  1.
         21    1    1    2  503  502  0.10998145511E+02 -0.22323604599E+02 -0.75297784685E+02  0.79303586965E+02  0.00000000000E+00 0.  1.
         21    1    1    2  504  503 -0.10998145511E+02  0.22323604599E+02  0.17982945944E+03  0.18154320976E+03  0.00000000000E+00 0. -1.
</event>
<event>
 4    1  0.1725802E+006  0.2340020E+02  0.7546771E-02  0.1487533E+00
         21   -1    0    0  503  501  0.00000000000E+00  0.00000000000E+00  0.15648504515E+03  0.15648504515E+03  0.00000000000E+00 0.  1.
         21   -1    0    0  504  502 -0.00000000000E+00 -0.00000000000E+00 -0.11133140486E+02  0.11133140486E+02  0.00000000000E+00 0.  1.
         21    1    1    2  503  502 -0.16425468404E+02 -0.16666535440E+02  0.14207559514E+03  0.14398973626E+03  0.00000000000E+00 0.  1.
         21    1    1    2  504  501  0.16425468404E+02  0.16666535440E+02  0.32763095323E+01  0.23628449378E+02  0.00000000000E+00 0.  1.
</event>
<event>
 4    1  0.1725802E+006  0.2739518E+02  0.7546771E-02  0.1443678E+00
         21   -1    0    0  503  501  0.00000000000E+00  0.00000000000E+00  0.47613082490E+01  0.47613082490E+01  0.00000000000E+00 0.  1.
         21   -1    0    0  501  502 -0.00000000000E+00 -0.00000000000E+00 -0.21062316592E+03  0.21062316592E+03  0.00000000000E+00 0.  1.
         21    1    1    2  503  504 -0.27281561990E+02  0.24924352816E+01 -0.48909463745E+02  0.56059178571E+02  0.00000000000E+00 0.  1.
         21    1    1    2  504  502  0.27281561990E+02 -0.24924352816E+01 -0.15695239392E+03  0.15932529560E+03  0.00000000000E+00 0.  1.
</event>
<event>
 4    1  0.1725802E+006  0.2471593E+02  0.7546771E-02  0.1472006E+00
         21   -1    0    0  503  501  0.00000000000E+00  0.00000000000E+00  0.72574196284E+03  0.72574196284E+03  0.00000000000E+00 0.  1.
         21   -1    0    0  504  502 -0.00000000000E+00 -0.00000000000E+00 -0.99554961859E+00  0.99554961859E+00  0.00000000000E+00 0. -1.
         21    1    1    2  503  502  0.88789842457E+01 -0.23066009865E+02  0.50520507725E+03  0.50580929929E+03  0.00000000000E+00 0.  1.
         21    1    1    2  504  501 -0.88789842457E+01  0.23066009865E+02  0.21954133597E+03  0.22092821317E+03  0.00000000000E+00 0. -1.
</event>
<event>
 4    1  0.1725802E+006  0.2241284E+02  0.7546771E-02  0.1500006E+00
         21   -1    0    0  503  501  0.00000000000E+00  0.00000000000E+00  0.63088468666E+01  0.63088468666E+01  0.00000000000E+00 0. -1.
         21   -1    0    0  504  502 -0.00000000000E+00 -0.00000000000E+00 -0.16798539786E+03  0.16798539786E+03  0.00000000000E+00 0. -1.
         21    1    1    2  503  502  0.36527445475E+01  0.22113177907E+02 -0.14404288411E+03  0.14577615595E+03  0.00000000000E+00 0. -1.
         21    1    1    2  504  501 -0.36527445475E+01 -0.22113177907E+02 -0.17633666882E+02  0.28518088778E+02  0.00000000000E+00 0. -1.
</event>
<event>
 4    1  0.1725802E+006  0.2129829E+02  0.7546771E-02  0.1515048E+00
         21   -1    0    0  502  501  0.00000000000E+00  0.00000000000E+00  0.63092211970E+02  0.63092211970E+02  0.00000000000E+00 0.  1.
         21   -1    0    0  504  502 -0.00000000000E+00 -0.00000000000E+00 -0.17548387004E+02  0.17548387004E+02  0.00000000000E+00 0. -1.
         21    1    1    2  503  501  0.39694444414E+01 -0.20925120688E+02  0.53750133690E+02  0.57816036155E+02  0.00000000000E+00 0.  1.
         21    1    1    2  504  503 -0.39694444414E+01  0.20925120688E+02 -0.82063087239E+01  0.22824562819E+02  0.00000000000E+00 0. -1.
</event>
<event>
 4    1  0.1725802E+006  0.2343646E+02  0.7546771E-02  0.1487089E+00
         21   -1    0    0  502  501  0.00000000000E+00  0.00000000000E+00  0.64964280003E+02  0.64964280003E+02  0.00000000000E+00 0.  1.
         21   -1    0    0  504  502 -0.00000000000E+00 -0.00000000000E+00 -0.10894177793E+02  0.10894177793E+02  0.00000000000E+00 0.  1.
         21    1    1    2  503  501 -0.51197752420E+01  0.22870407714E+02  0.44982628318E+02  0.50721834529E+02  0.00000000000E+00 0.  1.
         21    1    1    2  504  503  0.51197752420E+01 -0.22870407714E+02  0.90874738912E+01  0.25136623267E+02  0.00000000000E+00 0.  1.
</event>
<event>
 4    1  0.1725802E+006  0.3935901E+02  0.7546771E-02  0.1352283E+00
         21   -1    0    0  502  501  0.00000000000E+00  0.00000000000E+00  0.19768915237E+03  0.19768915237E+03  0.00000000000E+00 0. -1.
         21   -1    0    0  503  502 -0.00000000000E+00 -0.00000000000E+00 -0.57156933191E+03  0.57156933191E+03  0.00000000000E+00 0.  1.
         21    1    1    2  503  504  0.39055050683E+02  0.48821070068E+01 -0.56892360381E+03  0.57028343735E+03  0.00000000000E+00 0.  1.
         21    1    1    2  504  501 -0.39055050683E+02 -0.48821070068E+01  0.19504342427E+03  0.19897504693E+03  0.00000000000E+00 0. -1.
</event>
<event>
 4    1  0.1725802E+006  0.2733181E+02  0.7546771E-02  0.1444303E+00
         21   -1    0    0  504  501  0.00000000000E+00  0.00000000000E+00  0.62971346497E+01  0.62971346497E+01  0.00000000000E+00 0. -1.
         21   -1    0    0  503  502 -0.00000000000E+00 -0.00000000000E+00 -0.11924308432E+03  0.11924308432E+03  0.00000000000E+00 0. -1.
         21    1    1    2  503  501  0.27222377489E+02 -0.24433118163E+01 -0.51971246128E+02  0.58719996874E+02  0.00000000000E+00 0. -1.
         21    1    1    2  504  502 -0.27222377489E+02  0.24433118163E+01 -0.60974703541E+02  0.66820222095E+02  0.00000000000E+00 0. -1.
</event>
<event>
 4    1  0.1725802E+006  0.3182856E+02  0.7546771E-02  0.1404345E+00
         21   -1    0    0  504  501  0.00000000000E+00  0.00000000000E+00  0.70235470555E+01  0.70235470555E+01  0.00000000000E+00 0.  1.
         21   -1    0    0  503  502 -0.00000000000E+00 -0.00000000000E+00 -0.14553207936E+03  0.14553207936E+03  0.00000000000E+00 0.  1.
         21    1    1    2  503  501  0.64340172245E-01 -0.31828496652E+02 -0.76449082854E+02  0.82810141939E+02  0.00000000000E+00 0.  1.
         21    1    1    2  504  502 -0.64340172245E-01  0.31828496652E+02 -0.62059449451E+02  0.69745484477E+02  0.00000000000E+00 0.  1.
</event>
<event>
 4    1  0.1725802E+006  0.2073508E+02  0.7546771E-02  0.1523081E+00
         21   -1    0    0  502  501  0.00000000000E+00  0.00000000000E+00  0.24391713393E+03  0.24391713393E+03  0.00000000000E+00 0.  1.
         21   -1    0    0  504  502 -0.00000000000E+00 -0.00000000000E+00 -0.11713573584E+02  0.11713573584E+02  0.00000000000E+00 0. -1.
         21    1    1    2  503  501 -0.74158275389E+01  0.19363596526E+02  0.23390841854E+03  0.23482566221E+03  0.00000000000E+00 0.  1.
         21    1    1    2  504  503  0.74158275389E+01 -0.19363596526E+02 -0.17048581964E+01  0.20805045301E+02  0.00000000000E+00 0. -1.
</event>
<event>
 4    1  0.1725802E+006  0.2186585E+02  0.7546771E-02  0.1507253E+00
         21   -1    0    0  503  501  0.00000000000E+00  0.00000000000E+00  0.15630109385E+03  0.15630109385E+03  0.00000000000E+00 0. -1.
         21   -1    0    0  504  502 -0.00000000000E+00 -0.00000000000E+00 -0.51997041727E+01  0.51997041727E+01  0.00000000000E+00 0.  1.
         21    1    1    2  503  502 -0.24591516412E+01 -0.21727129254E+02  0.12736382561E+03  0.12922716296E+03  0.00000000000E+00 0. -1.
         21    1    1    2  504  501  0.24591516412E+01  0.21727129254E+02  0.23737564070E+02  0.32273635066E+02  0.00000000000E+00 0.  1.
</event>
<event>
 4    1  0.1725802E+006  0.2065859E+02  0.7546771E-02  0.1524196E+00
         21   -1    0    0  504  501  0.00000000000E+00  0.00000000000E+00  0.83883399344E+03  0.83883399344E+03  0.00000000000E+00 0. -1.
         21   -1    0    0  503  502 -0.00000000000E+00 -0.00000000000E+00 -0.38255612450E+01  0.38255612450E+01  0.00000000000E+00 0. -1.
         21    1    1    2  503  501 -0.10057244517E+01 -0.20634092319E+02  0.25190622615E+02  0.32578285947E+02  0.00000000000E+00 0. -1.
         21    1    1    2  504  502  0.10057244517E+01  0.20634092319E+02  0.80981780958E+03  0.81008126874E+03  0.00000000000E+00 0. -1.
</event>
<event>
 4    1  0.1725802E+006  0.2003752E+02  0.7546771E-02  0.1533463E+00
         21   -1    0    0  502  501  0.00000000000E+00  0.00000000000E+00  0.77702264363E+02  0.77702264363E+02  0.00000000000E+00 0. -1.
         21   -1    0    0  503  502 -0.00000000000E+00 -0.00000000000E+00 -0.22957808898E+02  0.22957808898E+02  0.00000000000E+00 0. -1.
         21    1    1    2  503  504 -0.10123079718E+02  0.17292350766E+02 -0.16933267153E+02  0.26234284333E+02  0.00000000000E+00 0. -1.
         21    1    1    2  504  501  0.10123079718E+02 -0.17292350766E+02  0.71677722617E+02  0.74425788928E+02  0.00000000000E+00 0. -1.
</event>
<event>
 4    1  0.1725802E+006  0.3750908E+02  0.7546771E-02  0.1363735E+00
         21   -1    0    0  504  501  0.00000000000E+00  0.00000000000E+00  0.95641471733E+01  0.95641471733E+01  0.00000000000E+00 0.  1.
         21   -1    0    0  503  502 -0.00000000000E+00 -0.00000000000E+00 -0.15203756473E+03  0.15203756473E+03  0.00000000000E+00 0.  1.
         21    1    1    2  503  501 -0.37508873850E+02 -0.12457565624E+00 -0.85790947247E+02  0.93632354270E+02  0.00000000000E+00 0.  1.
         21    1    1    2  504  502  0.37508873850E+02  0.12457565624E+00 -0.56682470307E+02  0.67969357630E+02  0.00000000000E+00 0.  1.
</event>
<event>
 4    1  0.1725802E+006  0.5611394E+02  0.7546771E-02  0.1273640E+00
         21   -1    0    0  503  501  0.00000000000E+00  0.00000000000E+00  0.20507658366E+03  0.20507658366E+03  0.00000000000E+00 0. -1.
         21   -1    0    0  504  502 -0.00000000000E+00 -0.00000000000E+00 -0.10871615087E+03  0.10871615087E+03  0.00000000000E+00 0.  1.
         21    1    1    2  503  502 -0.73554836245E+01  0.55629772787E+02  0.19357571156E+03  0.20154486068E+03  0.00000000000E+00 0. -1.
         21    1    1    2  504  501  0.73554836245E+01 -0.55629772787E+02 -0.97215278771E+02  0.11224787386E+03  0.00000000000E+00 0.  1.
</event>
<event>
 4    1  0.1725802E+006  0.2809253E+02  0.7546771E-02  0.1436932E+00
         21   -1    0    0  504  501  0.00000000000E+00  0.00000000000E+00  0.86540099129E+00  0.86540099129E+00  0.00000000000E+00 0. -1.
         21   -1    0    0  503  502 -0.00000000000E+00 -0.00000000000E+00 -0.17155565206E+04  0.17155565206E+04  0.00000000000E+00 0. -1.
         21    1    1    2  503  501 -0.27873283150E+02 -0.35029043198E+01 -0.26996837812E+03  0.27142607730E+03  0.00000000000E+00 0. -1.
         21    1    1    2  504  502  0.27873283150E+02  0.35029043198E+01 -0.14447227415E+04  0.14449958443E+04  0.00000000000E+00 0. -1.
</event>
<event>
 4    1  0.1725802E+006  0.2109568E+02  0.7546771E-02  0.1517903E+00
         21   -1    0    0  504  501  0.00000000000E+00  0.00000000000E+00  0.49898411516E+03  0.49898411516E+03  0.00000000000E+00 0. -1.
         21   -1    0    0  501  502 -0.00000000000E+00 -0.00000000000E+00 -0.41089089326E+01  0.41089089326E+01  0.00000000000E+00 0. -1.
         21    1    1    2  503  502 -0.15403955532E+01 -0.21039365268E+02  0.24859021910E+02  0.32603660525E+02  0.00000000000E+00 0. -1.
         21    1    1    2  504  503  0.15403955532E+01  0.21039365268E+02  0.47001618432E+03  0.47048936357E+03  0.00000000000E+00 0. -1.
</event>
<event>
 4    1  0.1725802E+006  0.2168569E+02  0.7546771E-02  0.1509696E+00
         21   -1    0    0  504  501  0.00000000000E+00  0.00000000000E+00  0.84314358245E+03  0.84314358245E+03  0.00000000000E+00 0. -1.
         21   -1    0    0  503  502 -0.00000000000E+00 -0.00000000000E+00 -0.60132490281E+01  0.60132490281E+01  0.00000000000E+00 0. -1.
         21    1    1    2  503  501 -0.11974156460E+02  0.18080062773E+02  0.82297367752E+03  0.82325934127E+03  0.00000000000E+00 0. -1.
         21    1    1    2  504  502  0.11974156460E+02 -0.18080062773E+02  0.14156655899E+02  0.25897490208E+02  0.00000000000E+00 0. -1.
</event>
<event>
 4    1  0.1725802E+006  0.2037927E+02  0.7546771E-02  0.1528315E+00
         21   -1    0    0  502  501  0.00000000000E+00  0.00000000000E+00  0.15874569044E+02  0.15874569044E+02  0.00000000000E+00 0. -1.
         21   -1    0    0  504  502 -0.00000000000E+00 -0.00000000000E+00 -0.30609007155E+02  0.30609007155E+02  0.00000000000E+00 0.  1.
         21    1    1    2  503  501  0.87496687207E+01 -0.18405382026E+02  0.14913904259E+01  0.20433771939E+02  0.00000000000E+00 0. -1.
         21    1    1    2  504  503 -0.87496687207E+01  0.18405382026E+02 -0.16225828537E+02  0.26049804260E+02  0.00000000000E+00 0.  1.
</event>
<event>
 4    1  0.1725802E+006  0.2351739E+02  0.7546771E-02  0.1486101E+00
         21   -1    0    0  504  501  0.00000000000E+00  0.00000000000E+00  0.16171196108E+03  0.16171196108E+03  0.00000000000E+00 0.  1.
         21   -1    0    0  503  502 -0.00000000000E+00 -0.00000000000E+00 -0.29534520423E+03  0.29534520423E+03  0.00000000000E+00 0.  1.
         21    1    1    2  503  501 -0.12591815133E+01 -0.23483658099E+02  0.16038493469E+03  0.16209995377E+03  0.00000000000E+00 0.  1.
         21    1    1    2  504  502  0.12591815133E+01  0.23483658099E+02 -0.29401817784E+03  0.29495721153E+03  0.00000000000E+00 0.  1.
</event>
<event>
 4    1  0.1725802E+006  0.2250572E+02  0.7546771E-02  0.1498800E+00
         21   -1    0    0  504  501  0.00000000000E+00  0.00000000000E+00  0.89523886650E+02  0.89523886650E+02  0.00000000000E+00 0.  1.
         21   -1    0    0  503  502 -0.00000000000E+00 -0.00000000000E+00 -0.11761514088E+02  0.11761514088E+02  0.00000000000E+00 0. -1.
         21    1    1    2  503  501  0.32678259632E+01 -0.22267216968E+02  0.75363516590E+02  0.78652191774E+02  0.00000000000E+00 0.  1.
         21    1    1    2  504  502 -0.32678259632E+01  0.22267216968E+02  0.23988559712E+01  0.22633208963E+02  0.00000000000E+00 0. -1.
</event>
<event>
 4    1  0.1725802E+006  0.2092887E+02  0.7546771E-02  0.1520283E+00
         21   -1    0    0  502  501  0.00000000000E+00  0.00000000000E+00  0.14822738853E+03  0.14822738853E+03  0.00000000000E+00 0.  1.
         21   -1    0    0  504  502 -0.00000000000E+00 -0.00000000000E+00 -0.20759716132E+02  0.20759716132E+02  0.00000000000E+00 0. -1.
         21    1    1    2  503  501  0.19494280150E+02 -0.76151561243E+01  0.14198304013E+03  0.14351725069E+03  0.00000000000E+00 0.  1.
         21    1    1    2  504  503 -0.19494280150E+02  0.76151561243E+01 -0.14515367726E+02  0.25469853976E+02  0.00000000000E+00 0. -1.
</event>
<event>
 4    1  0.1725802E+006  0.2629510E+02  0.7546771E-02  0.1454820E+00
         21   -1    0    0  502  501  0.00000000000E+00  0.00000000000E+00  0.14228611652E+04  0.14228611652E+04  0.00000000000E+00 0.  1.
         21   -1    0    0  504  502 -0.00000000000E+00 -0.00000000000E+00 -0.93695257119E+01  0.93695257119E+01  0.00000000000E+00 0.  1.
         21    1    1    2  503  501  0.26294137600E+02 -0.22446187024E+00  0.14040434776E+04  0.14042896848E+04  0.00000000000E+00 0.  1.
         21    1    1    2  504  503 -0.26294137600E+02  0.22446187024E+00  0.94481618868E+01  0.27941006036E+02  0.00000000000E+00 0.  1.
</event>
<event>
 4    1  0.1725802E+006  0.2581697E+02  0.7546771E-02  0.1459868E+00
         21   -1    0    0  504  501  0.00000000000E+00  0.00000000000E+00  0.11833845854E+02  0.11833845854E+02  0.00000000000E+00 0.  1.
         21   -1    0    0  503  502 -0.00000000000E+00 -0.00000000000E+00 -0.60992418873E+02  0.60992418873E+02  0.00000000000E+00 0.  1.
         21    1    1    2  503  501 -0.25816590902E+02  0.14038624689E+00 -0.34654584918E+02  0.43214075600E+02  0.00000000000E+00 0.  1.
         21    1    1    2  504  502  0.25816590902E+02 -0.14038624689E+00 -0.14503988101E+02  0.29612189128E+02  0.00000000000E+00 0.  1.
</event>
<event>
 4    1  0.1725802E+006  0.2280885E+02  0.7546771E-02  0.1494912E+00
         21   -1    0    0  503  501  0.00000000000E+00  0.00000000000E+00  0.46730746183E+03  0.46730746183E+03  0.00000000000E+00 0. -1.
         21   -1    0    0  501  502 -0.00000000000E+00 -0.00000000000E+00 -0.66536441914E+02  0.66536441914E+02  0.00000000000E+00 0. -1.
         21    1    1    2  503  504  0.76184352918E+01  0.21498914122E+02  0.46506498936E+03  0.46562397725E+03  0.00000000000E+00 0. -1.
         21    1    1    2  504  502 -0.76184352918E+01 -0.21498914122E+02 -0.64293969439E+02  0.68219926495E+02  0.00000000000E+00 0. -1.
</event>
<event>
 4    1  0.1725802E+006  0.3047321E+02  0.7546771E-02  0.1415528E+00
         21   -1    0    0  503  501  0.00000000000E+00  0.00000000000E+00  0.42139147745E+02  0.42139147745E+02  0.00000000000E+00 0.  1.
         21   -1    0    0  501  502 -0.00000000000E+00 -0.00000000000E+00 -0.62603564814E+02  0.62603564814E+02  0.00000000000E+00 0.  1.
         21    1    1    2  503  504  0.20165144192E+02  0.22846953392E+02  0.31925687060E+02  0.44134632816E+02  0.00000000000E+00 0.  1.
         21    1    1    2  504  502 -0.20165144192E+02 -0.22846953392E+02 -0.52390104128E+02  0.60608079743E+02  0.00000000000E+00 0.  1.
</event>
<event>
 4    1  0.1725802E+006  0.2202847E+02  0.7546771E-02  0.1505072E+00
         21   -1    0    0  502  501  0.00000000000E+00  0.00000000000E+00  0.21442384756E+03  0.21442384756E+03  0.00000000000E+00 0.  1.
         21   -1    0    0  504  502 -0.00000000000E+00 -0.00000000000E+00 -0.96688559193E+01  0.96688559193E+01  0.00000000000E+00 0.  1.
         21    1    1    2  503  501  0.20967477053E+02  0.67541339680E+01  0.20043845340E+03  0.20164530002E+03  0.00000000000E+00 0.  1.
         21    1    1    2  504  503 -0.20967477053E+02 -0.67541339680E+01  0.43165382424E+01  0.22447403459E+02  0.00000000000E+00 0.  1.
</event>
<event>
 4    1  0.1725802E+006  0.2012853E+02  0.7546771E-02  0.1532080E+00
         21   -1    0    0  504  501  0.00000000000E+00  0.00000000000E+00  0.21075307279E+03  0.21075307279E+03  0.00000000000E+00 0. -1.
         21   -1    0    0  503  502 -0.00000000000E+00 -0.00000000000E+00 -0.52792262555E+02  0.52792262555E+02  0.00000000000E+00 0. -1.
         21    1    1    2  503  501  0.26376605583E+01 -0.19954959557E+02  0.20833157530E+03  0.20930170312E+03  0.00000000000E+00 0. -1.
         21    1    1    2  504  502 -0.26376605583E+01  0.19954959557E+02 -0.50370765060E+02  0.54243632225E+02  0.00000000000E+00 0. -1.
</event>
<event>
 4    1  0.1725802E+006  0.2337353E+02  0.7546771E-02  0.1487860E+00
         21   -1    0    0  502  501  0.00000000000E+00  0.00000000000E+00  0.37721101723E+01  0.37721101723E+01  0.00000000000E+00 0.  1.
         21   -1    0    0  504  502 -0.00000000000E+00 -0.00000000000E+00 -0.27576523838E+03  0.27576523838E+03  0.00000000000E+00 0.  1.
         21    1    1    2  503  501  0.22067500975E+01 -0.23269123701E+02 -0.39687931926E+02  0.46059242334E+02  0.00000000000E+00 0.  1.
         21    1    1    2  504  503 -0.22067500975E+01  0.23269123701E+02 -0.23230519628E+03  0.23347810622E+03  0.00000000000E+00 0.  1.
</event>
<event>
 4    1  0.1725802E+006  0.2108856E+02  0.7546771E-02  0.1518004E+00
         21   -1    0    0  502  501  0.00000000000E+00  0.00000000000E+00  0.62836736456E+01  0.62836736456E+01  0.00000000000E+00 0. -1.
         21   -1    0    0  504  502 -0.00000000000E+00 -0.00000000000E+00 -0.11165535624E+03  0.11165535624E+03  0.00000000000E+00 0. -1.
         21    1    1    2  503  501 -0.88807405485E+01  0.19127461087E+02 -0.17004198466E+02  0.27090036652E+02  0.00000000000E+00 0. -1.
         21    1    1    2  504  503  0.88807405485E+01 -0.19127461087E+02 -0.88367484128E+02  0.90848993233E+02  0.00000000000E+00 0. -1.
</event>
<event>
 4    1  0.1725802E+006  0.2388376E+02  0.7546771E-02  0.1481689E+00
         21   -1    0    0  502  501  0.00000000000E+00  0.00000000000E+00  0.11378507090E+03  0.11378507090E+03  0.00000000000E+00 0.  1.
         21   -1    0    0  504  502 -0.00000000000E+00 -0.00000000000E+00 -0.27500436467E+02  0.27500436467E+02  0.00000000000E+00 0.  1.
         21    1    1    2  503  501  0.16893160013E+02  0.16883579016E+02  0.10702237417E+03  0.10965501662E+03  0.00000000000E+00 0.  1.
         21    1    1    2  504  503 -0.16893160013E+02 -0.16883579016E+02 -0.20737739740E+02  0.31630490751E+02  0.00000000000E+00 0.  1.
</event>
<event>
 4    1  0.1725802E+006  0.2114583E+02  0.7546771E-02  0.1517193E+00
         21   -1    0    0  502  501  0.00000000000E+00  0.00000000000E+00  0.68503777621E+01  0.68503777621E+01  0.00000000000E+00 0.  1.
         21   -1    0    0  503  502 -0.00000000000E+00 -0.00000000000E+00 -0.37519026290E+03  0.37519026290E+03  0.00000000000E+00 0.  1.
         21    1    1    2  503  504 -0.87803863668E+01 -0.19236707110E+02 -0.35778066034E+03  0.35840500414E+03  0.00000000000E+00 0.  1.
         21    1    1    2  504  501  0.87803863668E+01  0.19236707110E+02 -0.10559224802E+02  0.23635636518E+02  0.00000000000E+00 0.  1.
</event>
<event>
 4    1  0.1725802E+006  0.2731344E+02  0.7546771E-02  0.1444485E+00
         21   -1    0    0  503  501  0.00000000000E+00  0.00000000000E+00  0.46699058347E+03  0.46699058347E+03  0.00000000000E+00 0. -1.
         21   -1    0    0  501  502 -0.00000000000E+00 -0.00000000000E+00 -0.16618571997E+01  0.16618571997E+01  0.00000000000E+00 0. -1.
         21    1    1    2  503  504 -0.27094059333E+02 -0.34548579210E+01  0.27877218903E+03  0.28010704645E+03  0.00000000000E+00 0. -1.
         21    1    1    2  504  502  0.27094059333E+02  0.34548579210E+01  0.18655653724E+03  0.18854539422E+03  0.00000000000E+00 0. -1.
</event>
<event>
 4    1  0.1725802E+006  0.2288190E+02  0.7546771E-02  0.1493986E+00
         21   -1    0    0  502  501  0.00000000000E+00  0.00000000000E+00  0.31385305451E+03  0.31385305451E+03  0.00000000000E+00 0.  1.
         21   -1    0    0  504  502 -0.00000000000E+00 -0.00000000000E+00 -0.63077015617E+01  0.63077015617E+01  0.00000000000E+00 0.  1.
         21    1    1    2  503  501 -0.19518501509E+02  0.11941922952E+02  0.29106189773E+03  0.29195994543E+03  0.00000000000E+00 0.  1.
         21    1    1    2  504  503  0.19518501509E+02 -0.11941922952E+02  0.16483455217E+02  0.28200810641E+02  0.00000000000E+00 0.  1.
</event>
<event>
 4    1  0.1725802E+006  0.4479333E+02  0.7546771E-02  0.1322476E+00
         21   -1    0    0  504  501  0.00000000000E+00  0.00000000000E+00  0.63798540749E+01  0.63798540749E+01  0.00000000000E+00 0.  1.
         21   -1    0    0  503  502 -0.00000000000E+00 -0.00000000000E+00 -0.98956534720E+03  0.98956534720E+03  0.00000000000E+00 0. -1.
         21    1    1    2  503  501  0.44724048901E+02  0.24903432270E+01 -0.90289132876E+03  0.90400176654E+03  0.00000000000E+00 0. -1.
         21    1    1    2  504  502 -0.44724048901E+02 -0.24903432270E+01 -0.80294164362E+02  0.91943434731E+02  0.00000000000E+00 0.  1.
</event>
<event>
 4    1  0.1725802E+006  0.2542075E+02  0.7546771E-02  0.1464151E+00
         21   -1    0    0  504  501  0.00000000000E+00  0.00000000000E+00  0.61191212689E+02  0.61191212689E+02  0.00000000000E+00 0.  1.
         21   -1    0    0  501  502 -0.00000000000E+00 -0.00000000000E+00 -0.13582039380E+02  0.13582039380E+02  0.00000000000E+00 0.  1.
         21    1    1    2  503  502  0.95194838360E+01  0.23571040854E+02  0.61709313885E+01  0.26159031588E+02  0.00000000000E+00 0.  1.
         21    1    1    2  504  503 -0.95194838360E+01 -0.23571040854E+02  0.41438241921E+02  0.48614220481E+02  0.00000000000E+00 0.  1.
</event>
<event>
 4    1  0.1725802E+006  0.3214787E+02  0.7546771E-02  0.1401806E+00
         21   -1    0    0  504  501  0.00000000000E+00  0.00000000000E+00  0.91221630963E+02  0.91221630963E+02  0.00000000000E+00 0. -1.
         21   -1    0    0  501  502 -0.00000000000E+00 -0.00000000000E+00 -0.31668993573E+02  0.31668993573E+02  0.00000000000E+00 0. -1.
         21    1    1    2  503  502 -0.29846949344E+02  0.11943415688E+02 -0.19466494021E+02  0.37582309042E+02  0.00000000000E+00 0. -1.
         21    1    1    2  504  503  0.29846949344E+02 -0.11943415688E+02  0.79019131411E+02  0.85308315494E+02  0.00000000000E+00 0. -1.
</event>
<event>
 4    1  0.1725802E+006  0.1538004E+03  0.7546771E-02  0.1093784E+00
         21   -1    0    0  504  501  0.00000000000E+00  0.00000000000E+00  0.56129136193E+02  0.56129136193E+02  0.00000000000E+00 0.  1.
         21   -1    0    0  503  502 -0.00000000000E+00 -0.00000000000E+00 -0.42238748873E+03  0.42238748873E+03  0.00000000000E+00 0.  1.
         21    1    1    2  503  501 -0.12642583992E+03 -0.87584693011E+02 -0.17174512058E+03  0.23054491513E+03  0.00000000000E+00 0.  1.
         21    1    1    2  504  502  0.12642583992E+03  0.87584693011E+02 -0.19451323195E+03  0.24797170979E+03  0.00000000000E+00 0.  1.
</event>
<event>
 4    1  0.1725802E+006  0.2039354E+02  0.7546771E-02  0.1528102E+00
         21   -1    0    0  503  501  0.00000000000E+00  0.00000000000E+00  0.70290949938E+01  0.70290949938E+01  0.00000000000E+00 0. -1.
         21   -1    0    0  501  502 -0.00000000000E+00 -0.00000000000E+00 -0.59177783834E+02  0.59177783834E+02  0.00000000000E+00 0. -1.
         21    1    1    2  503  504 -0.59728549121E-01 -0.20393456094E+02 -0.26502685236E+02  0.33440827497E+02  0.00000000000E+00 0. -1.
         21    1    1    2  504  502  0.59728549121E-01  0.20393456094E+02 -0.25646003604E+02  0.32766051331E+02  0.00000000000E+00 0. -1.
</event>
<event>
 4    1  0.1725802E+006  0.2361468E+02  0.7546771E-02  0.1484921E+00
         21   -1    0    0  502  501  0.00000000000E+00  0.00000000000E+00  0.27187956069E+02  0.27187956069E+02  0.00000000000E+00 0.  1.
         21   -1    0    0  503  502 -0.00000000000E+00 -0.00000000000E+00 -0.20601493950E+02  0.20601493950E+02  0.00000000000E+00 0.  1.
         21    1    1    2  503  504 -0.77989791860E+01 -0.22289659875E+02  0.48766203624E+01  0.24112951703E+02  0.00000000000E+00 0.  1.
         21    1    1    2  504  501  0.77989791860E+01  0.22289659875E+02  0.17098417569E+01  0.23676498316E+02  0.00000000000E+00 0.  1.
</event>
<event>
 4    1  0.1725802E+006  0.2217791E+02  0.7546771E-02  0.1503087E+00
         21   -1    0    0  502  501  0.00000000000E+00  0.00000000000E+00  0.30183132349E+03  0.30183132349E+03  0.00000000000E+00 0. -1.
         21   -1    0    0  504  502 -0.00000000000E+00 -0.00000000000E+00 -0.27958543317E+02  0.27958543317E+02  0.00000000000E+00 0. -1.
         21    1    1    2  503  501 -0.11065393671E+02  0.19220218839E+02  0.29695366911E+03  0.29778069338E+03  0.00000000000E+00 0. -1.
         21    1    1    2  504  503  0.11065393671E+02 -0.19220218839E+02 -0.23080888940E+02  0.32009173429E+02  0.00000000000E+00 0. -1.
</event>
<event>
 4    1  0.1725802E+006  0.2244234E+02  0.7546771E-02  0.1499622E+00
         21   -1    0    0  502  501  0.00000000000E+00  0.00000000000E+00  0.39515633579E+01  0.39515633579E+01  0.00000000000E+00 0. -1.
         21   -1    0    0  504  502 -0.00000000000E+00 -0.00000000000E+00 -0.47478432329E+03  0.47478432329E+03  0.00000000000E+00 0.  1.
         21    1    1    2  503  501 -0.22106841601E+02  0.38660039382E+01 -0.30683949837E+02  0.38015302309E+02  0.00000000000E+00 0. -1.
         21    1    1    2  504  503  0.22106841601E+02 -0.38660039382E+01 -0.44014881009E+03  0.44072058434E+03  0.00000000000E+00 0.  1.
</event>
<event>
 4    1  0.1725802E+006  0.2965329E+02  0.7546771E-02  0.1422634E+00
         21   -1    0    0  502  501  0.00000000000E+00  0.00000000000E+00  0.40399669727E+02  0.40399669727E+02  0.00000000000E+00 0. -1.
         21   -1    0    0  504  502 -0.00000000000E+00 -0.00000000000E+00 -0.22142360350E+02  0.22142360350E+02  0.00000000000E+00 0.  1.
         21    1    1    2  503  501  0.59338942828E+01  0.29053508001E+02  0.50488176117E+01  0.30080026392E+02  0.00000000000E+00 0.  1.
         21    1    1    2  504  503 -0.59338942828E+01 -0.29053508001E+02  0.13208491765E+02  0.32462003684E+02  0.00000000000E+00 0. -1.
</event>
<event>
 4    1  0.1725802E+006  0.3216107E+02  0.7546771E-02  0.1401701E+00
         21   -1    0    0  503  501  0.00000000000E+00  0.00000000000E+00  0.42878049888E+03  0.42878049888E+03  0.00000000000E+00 0. -1.
         21   -1    0    0  504  502 -0.00000000000E+00 -0.00000000000E+00 -0.28156473253E+03  0.28156473253E+03  0.00000000000E+00 0.  1.
         21    1    1    2  503  502 -0.27510261922E+02 -0.16658931783E+02 -0.28004001143E+03  0.28188072393E+03  0.00000000000E+00 0.  1.
         21    1    1    2  504  501  0.27510261922E+02  0.16658931783E+02  0.42725577778E+03  0.42846450747E+03  0.00000000000E+00 0. -1.
</event>
<event>
 4    1  0.1725802E+006  0.3897263E+02  0.7546771E-02  0.1354614E+00
         21   -1    0    0  504  501  0.00000000000E+00  0.00000000000E+00  0.11493714396E+02  0.11493714396E+02  0.00000000000E+00 0.  1.
         21   -1    0    0  503  502 -0.00000000000E+00 -0.00000000000E+00 -0.13373844580E+03  0.13373844580E+03  0.00000000000E+00 0.  1.
         21    1    1    2  503  501 -0.38966318588E+02 -0.70108281701E+00 -0.53202208468E+02  0.65949529849E+02  0.00000000000E+00 0.  1.
         21    1    1    2  504  502  0.38966318588E+02  0.70108281701E+00 -0.69042522941E+02  0.79282630351E+02  0.00000000000E+00 0.  1.
</event>
<event>
 4    1  0.1725802E+006  0.4719193E+02  0.7546771E-02  0.1310829E+00
         21   -1    0    0  502  501  0.00000000000E+00  0.00000000000E+00  0.48631000165E+02  0.48631000165E+02  0.00000000000E+00 0.  1.
         21   -1    0    0  504  502 -0.00000000000E+00 -0.00000000000E+00 -0.47687121778E+02  0.47687121778E+02  0.00000000000E+00 0.  1.
         21    1    1    2  503  501  0.47183630104E+02 -0.88500969579E+00  0.10063762291E+02  0.48253056933E+02  0.00000000000E+00 0.  1.
         21    1    1    2  504  503 -0.47183630104E+02  0.88500969579E+00 -0.91198839038E+01  0.48065065010E+02  0.00000000000E+00 0.  1.
</event>
<event>
 4    1  0.1725802E+006  0.2077543E+02  0.7546771E-02  0.1522495E+00
         21   -1    0    0  502  501  0.00000000000E+00  0.00000000000E+00  0.78534176105E+01  0.78534176105E+01  0.00000000000E+00 0. -1.
         21   -1    0    0  503  502 -0.00000000000E+00 -0.00000000000E+00 -0.59632456430E+02  0.59632456430E+02  0.00000000000E+00 0. -1.
         21    1    1    2  503  504  0.12734039995E+02  0.16415314612E+02 -0.35335492998E+02  0.40990430515E+02  0.00000000000E+00 0. -1.
         21    1    1    2  504  501 -0.12734039995E+02 -0.16415314612E+02 -0.16443545822E+02  0.26495443526E+02  0.00000000000E+00 0. -1.
</event>
<event>
 4    1  0.1725802E+006  0.2246639E+02  0.7546771E-02  0.1499310E+00
         21   -1    0    0  502  501  0.00000000000E+00  0.00000000000E+00  0.69840628926E+02  0.69840628926E+02  0.00000000000E+00 0.  1.
         21   -1    0    0  503  502 -0.00000000000E+00 -0.00000000000E+00 -0.59785286625E+02  0.59785286625E+02  0.00000000000E+00 0.  1.
         21    1    1    2  503  504  0.10888729096E+02 -0.19651320689E+02 -0.55741770669E+02  0.60098950269E+02  0.00000000000E+00 0.  1.
         21    1    1    2  504  501 -0.10888729096E+02  0.19651320689E+02  0.65797112970E+02  0.69526965282E+02  0.00000000000E+00 0.  1.
</event>
<event>
 4    1  0.1725802E+006  0.2662045E+02  0.7546771E-02  0.1451458E+00
         21   -1    0    0  502  501  0.00000000000E+00  0.00000000000E+00  0.12708709631E+03  0.12708709631E+03  0.00000000000E+00 0.  1.
         21   -1    0    0  504  502 -0.00000000000E+00 -0.00000000000E+00 -0.90797744108E+02  0.90797744108E+02  0.00000000000E+00 0. -1.
         21    1    1    2  503  501 -0.26403030029E+02 -0.33953623559E+01  0.12368890266E+03  0.12652111730E+03  0.00000000000E+00 0.  1.
         21    1    1    2  504  503  0.26403030029E+02  0.33953623559E+01 -0.87399550465E+02  0.91363723116E+02  0.00000000000E+00 0. -1.
</event>
<event>
 4    1  0.1725802E+006  0.2362038E+02  0.7546771E-02  0.1484852E+00
         21   -1    0    0  502  501  0.00000000000E+00  0.00000000000E+00  0.18611925775E+03  0.18611925775E+03  0.00000000000E+00 0.  1.
         21   -1    0    0  503  502 -0.00000000000E+00 -0.00000000000E+00 -0.10320486640E+02  0.10320486640E+02  0.00000000000E+00 0. -1.
         21    1    1    2  503  504 -0.21922016386E+02  0.87947488700E+01  0.51645080445E+01  0.24178390216E+02  0.00000000000E+00 0. -1.
         21    1    1    2  504  501  0.21922016386E+02 -0.87947488700E+01  0.17063426306E+03  0.17226135417E+03  0.00000000000E+00 0.  1.
</event>
<event>
 4    1  0.1725802E+006  0.2010025E+02  0.7546771E-02  0.1532509E+00
         21   -1    0    0  503  501  0.00000000000E+00  0.00000000000E+00  0.73159420968E+01  0.73159420968E+01  0.00000000000E+00 0. -1.
         21   -1    0    0  504  502 -0.00000000000E+00 -0.00000000000E+00 -0.55351651081E+02  0.55351651081E+02  0.00000000000E+00 0. -1.
         21    1    1    2  503  502  0.19416382737E+02 -0.51984570094E+01 -0.22516577780E+02  0.30183044062E+02  0.00000000000E+00 0. -1.
         21    1    1    2  504  501 -0.19416382737E+02  0.51984570094E+01 -0.25519131203E+02  0.32484549116E+02  0.00000000000E+00 0. -1.
</event>
<event>
 4    1  0.1725802E+006  0.5791948E+02  0.7546771E-02  0.1267070E+00
         21   -1    0    0  504  501  0.00000000000E+00  0.00000000000E+00  0.33216199503E+03  0.33216199503E+03  0.00000000000E+00 0. -1.
         21   -1    0    0  503  502 -0.00000000000E+00 -0.00000000000E+00 -0.10145757681E+02  0.10145757681E+02  0.00000000000E+00 0. -1.
         21    1    1    2  503  501 -0.21716172874E+01 -0.57878754472E+02  0.14944987280E+03  0.16028078681E+03  0.00000000000E+00 0. -1.
         21    1    1    2  504  502  0.21716172874E+01  0.57878754472E+02  0.17256636455E+03  0.18202696590E+03  0.00000000000E+00 0. -1.
</event>
<event>
 4    1  0.1725802E+006  0.2313165E+02  0.7546771E-02  0.1490852E+00
         21   -1    0    0  504  501  0.00000000000E+00  0.00000000000E+00  0.54866539752E+02  0.54866539752E+02  0.00000000000E+00 0. -1.
         21   -1    0    0  503  502 -0.00000000000E+00 -0.00000000000E+00 -0.65726505289E+02  0.65726505289E+02  0.00000000000E+00 0.  1.
         21    1    1    2  503  501 -0.22950005343E+02  0.28931561642E+01 -0.61073694839E+02  0.65307498031E+02  0.00000000000E+00 0.  1.
         21    1    1    2  504  502  0.22950005343E+02 -0.28931561642E+01  0.50213729301E+02  0.55285547010E+02  0.00000000000E+00 0. -1.
</event>
<event>
 4    1  0.1725802E+006  0.2219126E+02  0.7546771E-02  0.1502911E+00
         21   -1    0    0  504  501  0.00000000000E+00  0.00000000000E+00  0.88571021598E+01  0.88571021598E+01  0.00000000000E+00 0. -1.
         21   -1    0    0  503  502 -0.00000000000E+00 -0.00000000000E+00 -0.58194595639E+02  0.58194595639E+02  0.00000000000E+00 0. -1.
         21    1    1    2  503  501 -0.21247515874E+02 -0.64027275111E+01 -0.31748235943E+02  0.38735027248E+02  0.00000000000E+00 0. -1.
         21    1    1    2  504  502  0.21247515874E+02  0.64027275111E+01 -0.17589257537E+02  0.28316670551E+02  0.00000000000E+00 0. -1.
</event>
<event>
 4    1  0.1725802E+006  0.2684533E+02  0.7546771E-02  0.1449168E+00
         21   -1    0    0  502  501  0.00000000000E+00  0.00000000000E+00  0.29899420732E+02  0.29899420732E+02  0.00000000000E+00 0. -1.
         21   -1    0    0  503  502 -0.00000000000E+00 -0.00000000000E+00 -0.40212938114E+03  0.40212938114E+03  0.00000000000E+00 0. -1.
         21    1    1    2  503  504 -0.12147967266E+02 -0.23939477723E+02 -0.39555551690E+03  0.39646543185E+03  0.00000000000E+00 0. -1.
         21    1    1    2  504  501  0.12147967266E+02  0.23939477723E+02  0.23325556486E+02  0.35563370028E+02  0.00000000000E+00 0. -1.
</event>
<event>
 4    1  0.1725802E+006  0.2160074E+02  0.7546771E-02  0.1510858E+00
         21   -1    0    0  504  501  0.00000000000E+00  0.00000000000E+00  0.64655512856E+01  0.64655512856E+01  0.00000000000E+00 0.  1.
         21   -1    0    0  503  502 -0.00000000000E+00 -0.00000000000E+00 -0.72169271240E+02  0.72169271240E+02  0.00000000000E+00 0.  1.
         21    1    1    2  503  501  0.20864418241E+02 -0.55917694638E+01 -0.32580114173E+02  0.39090352694E+02  0.00000000000E+00 0.  1.
         21    1    1    2  504  502 -0.20864418241E+02  0.55917694638E+01 -0.33123605782E+02  0.39544469832E+02  0.00000000000E+00 0.  1.
</event>
<event>
 4    1  0.1725802E+006  0.2959634E+02  0.7546771E-02  0.1423137E+00
         21   -1    0    0  504  501  0.00000000000E+00  0.00000000000E+00  0.11021276430E+04  0.11021276430E+04  0.00000000000E+00 0.  1.
         21   -1    0    0  503  502 -0.00000000000E+00 -0.00000000000E+00 -0.21091248432E+01  0.21091248432E+01  0.00000000000E+00 0. -1.
         21    1    1    2  503  501 -0.23012457222E+02  0.18611018234E+02  0.98585880698E+03  0.98630296080E+03  0.00000000000E+00 0.  1.
         21    1    1    2  504  502  0.23012457222E+02 -0.18611018234E+02  0.11415971116E+03  0.11793380703E+03  0.00000000000E+00 0. -1.
</event>
<event>
 4    1  0.1725802E+006  0.2008368E+02  0.7546771E-02  0.1532760E+00
         21   -1    0    0  503  501  0.00000000000E+00  0.00000000000E+00  0.25676870759E+02  0.25676870759E+02  0.00000000000E+00 0. -1.
         21   -1    0    0  504  502 -0.00000000000E+00 -0.00000000000E+00 -0.16213435394E+02  0.16213435394E+02  0.00000000000E+00 0. -1.
         21    1    1    2  503  502 -0.16969561256E+02 -0.10741886697E+02  0.10367309132E+01  0.20110418942E+02  0.00000000000E+00 0. -1.
         21    1    1    2  504  501  0.16969561256E+02  0.10741886697E+02  0.84267044518E+01  0.21779887212E+02  0.00000000000E+00 0. -1.
</event>
<event>
 4    1  0.1725802E+006  0.2096669E+02  0.7546771E-02  0.1519741E+00
         21   -1    0    0  503  501  0.00000000000E+00  0.00000000000E+00  0.19861063058E+03  0.19861063058E+03  0.00000000000E+00 0.  1.
         21   -1    0    0  501  502 -0.00000000000E+00 -0.00000000000E+00 -0.27891530670E+01  0.27891530670E+01  0.00000000000E+00 0.  1.
         21    1    1    2  503  504 -0.78955273469E+01  0.19423248189E+02  0.14366340069E+03  0.14518531131E+03  0.00000000000E+00 0.  1.
         21    1    1    2  504  502  0.78955273469E+01 -0.19423248189E+02  0.52158076828E+02  0.56214472342E+02  0.00000000000E+00 0.  1.
</event>
<event>
 4    1  0.1725802E+006  0.4328508E+02  0.7546771E-02  0.1330241E+00
         21   -1    0    0  502  501  0.00000000000E+00  0.00000000000E+00  0.52348725384E+03  0.52348725384E+03  0.00000000000E+00 0. -1.
         21   -1    0    0  503  502 -0.00000000000E+00 -0.00000000000E+00 -0.18243097452E+02  0.18243097452E+02  0.00000000000E+00 0. -1.
         21    1    1    2  503  504  0.41072232342E+02 -0.13662719126E+02  0.97763334059E+01  0.44375385726E+02  0.00000000000E+00 0. -1.
         21    1    1    2  504  501 -0.41072232342E+02  0.13662719126E+02  0.49546782298E+03  0.49735496557E+03  0.00000000000E+00 0. -1.
</event>
<event>
 4    1  0.1725802E+006  0.2099593E+02  0.7546771E-02  0.1519323E+00
         21   -1    0    0  502  501  0.00000000000E+00  0.00000000000E+00  0.12926371616E+01  0.12926371616E+01  0.00000000000E+00 0. -1.
         21   -1    0    0  504  502 -0.00000000000E+00 -0.00000000000E+00 -0.46709723010E+03  0.46709723010E+03  0.00000000000E+00 0. -1.
         21    1    1    2  503  501  0.16594634639E+02 -0.12862631137E+02 -0.11123511344E+03  0.11319929170E+03  0.00000000000E+00 0. -1.
         21    1    1    2  504  503 -0.16594634639E+02  0.12862631137E+02 -0.35456947950E+03  0.35519057556E+03  0.00000000000E+00 0. -1.
</event>
<event>
 4    1  0.1725802E+006  0.2200741E+02  0.7546771E-02  0.1505353E+00
         21   -1    0    0  503  501  0.00000000000E+00  0.00000000000E+00  0.19791266463E+03  0.19791266463E+03  0.00000000000E+00 0. -1.
         21   -1    0    0  504  502 -0.00000000000E+00 -0.00000000000E+00 -0.18742052450E+02  0.18742052450E+02  0.00000000000E+00 0. -1.
         21    1    1    2  503  502 -0.19836423047E+02 -0.95311373995E+01  0.19059316680E+03  0.19185953583E+03  0.00000000000E+00 0. -1.
         21    1    1    2  504  501  0.19836423047E+02  0.95311373995E+01 -0.11422554614E+02  0.24795181253E+02  0.00000000000E+00 0. -1.
</event>
<event>
 4    1  0.1725802E+006  0.2096996E+02  0.7546771E-02  0.1519694E+00
         21   -1    0    0  503  501  0.00000000000E+00  0.00000000000E+00  0.12920087220E+02  0.12920087220E+02  0.00000000000E+00 0.  1.
         21   -1    0    0  504  502 -0.00000000000E+00 -0.00000000000E+00 -0.15239511589E+03  0.15239511589E+03  0.00000000000E+00 0. -1.
         21    1    1    2  503  502 -0.97256038614E+01 -0.18578266174E+02  0.31074228228E+01  0.21198948585E+02  0.00000000000E+00 0.  1.
         21    1    1    2  504  501  0.97256038614E+01  0.18578266174E+02 -0.14258245149E+03  0.14411625452E+03  0.00000000000E+00 0. -1.
</event>
<event>
 4    1  0.1725802E+006  0.2796221E+02  0.7546771E-02  0.1438175E+00
         21   -1    0    0  503  501  0.00000000000E+00  0.00000000000E+00  0.39039831216E+01  0.39039831216E+01  0.00000000000E+00 0. -1.
         21   -1    0    0  504  502 -0.00000000000E+00 -0.00000000000E+00 -0.38131042326E+03  0.38131042326E+03  0.00000000000E+00 0. -1.
         21    1    1    2  503  502  0.65208352761E+01 -0.27191249364E+02 -0.55991180598E+02  0.62585123148E+02  0.00000000000E+00 0. -1.
         21    1    1    2  504  501 -0.65208352761E+01  0.27191249364E+02 -0.32141525954E+03  0.32262928324E+03  0.00000000000E+00 0. -1.
</event>
<event>
 4    1  0.1725802E+006  0.2483545E+02  0.7546771E-02  0.1470653E+00
         21   -1    0    0  504  501  0.00000000000E+00  0.00000000000E+00  0.10436131542E+03  0.10436131542E+03  0.00000000000E+00 0. -1.
         21   -1    0    0  503  502 -0.00000000000E+00 -0.00000000000E+00 -0.10381395531E+02  0.10381395531E+02  0.00000000000E+00 0. -1.
         21    1    1    2  503  501 -0.16467875914E+02 -0.18590555622E+02  0.84641042530E+02  0.88209442670E+02  0.00000000000E+00 0. -1.
         21    1    1    2  504  502  0.16467875914E+02  0.18590555622E+02  0.93388773608E+01  0.26533268284E+02  0.00000000000E+00 0. -1.
</event>
<event>
 4    1  0.1725802E+006  0.2262114E+02  0.7546771E-02  0.1497311E+00
         21   -1    0    0  503  501  0.00000000000E+00  0.00000000000E+00  0.37574923063E+02  0.37574923063E+02  0.00000000000E+00 0. -1.
         21   -1    0    0  501  502 -0.00000000000E+00 -0.00000000000E+00 -0.42754358578E+02  0.42754358578E+02  0.00000000000E+00 0.  1.
         21    1    1    2  503  504 -0.10331625668E+02  0.20123957693E+02  0.30566668403E+02  0.38026798175E+02  0.00000000000E+00 0. -1.
         21    1    1    2  504  502  0.10331625668E+02 -0.20123957693E+02 -0.35746103918E+02  0.42302483467E+02  0.00000000000E+00 0.  1.
</event>
<event>
 4    1  0.1725802E+006  0.2425862E+02  0.7546771E-02  0.1477271E+00
         21   -1    0    0  503  501  0.00000000000E+00  0.00000000000E+00  0.32287950251E+03  0.32287950251E+03  0.00000000000E+00 0. -1.
         21   -1    0    0  501  502 -0.00000000000E+00 -0.00000000000E+00 -0.14224906898E+02  0.14224906898E+02  0.00000000000E+00 0.  1.
         21    1    1    2  503  504 -0.23629266641E+02  0.54898589937E+01  0.31171142321E+03  0.31265394952E+03  0.00000000000E+00 0. -1.
         21    1    1    2  504  502  0.23629266641E+02 -0.54898589937E+01 -0.30568275942E+01  0.24450459887E+02  0.00000000000E+00 0.  1.
</event>
<event>
 4    1  0.1725802E+006  0.3365483E+02  0.7546771E-02  0.1390275E+00
         21   -1    0    0  504  501  0.00000000000E+00  0.00000000000E+00  0.11063575767E+04  0.11063575767E+04  0.00000000000E+00 0. -1.
         21   -1    0    0  503  502 -0.00000000000E+00 -0.00000000000E+00 -0.50857758474E+01  0.50857758474E+01  0.00000000000E+00 0. -1.
         21    1    1    2  503  501  0.24303733062E+02  0.23280384131E+02  0.53987104628E+02  0.63618041405E+02  0.00000000000E+00 0. -1.
         21    1    1    2  504  502 -0.24303733062E+02 -0.23280384131E+02  0.10472846962E+04  0.10478253111E+04  0.00000000000E+00 0. -1.
</event>
<event>
 4    1  0.1725802E+006  0.3151783E+02  0.7546771E-02  0.1406850E+00
         21   -1    0    0  503  501  0.00000000000E+00  0.00000000000E+00  0.59767161154E+00  0.59767161154E+00  0.00000000000E+00 0.  1.
         21   -1    0    0  501  502 -0.00000000000E+00 -0.00000000000E+00 -0.16737189776E+04  0.16737189776E+04  0.00000000000E+00 0.  1.
         21    1    1    2  503  504 -0.61166532909E+01 -0.30918606184E+02 -0.76672771517E+03  0.76737524254E+03  0.00000000000E+00 0.  1.
         21    1    1    2  504  502  0.61166532909E+01  0.30918606184E+02 -0.90639359081E+03  0.90694140666E+03  0.00000000000E+00 0.  1.
</event>
<event>
 4    1  0.1725802E+006  0.2614813E+02  0.7546771E-02  0.1456358E+00
         21   -1    0    0  502  501  0.00000000000E+00  0.00000000000E+00  0.73008831279E+02  0.73008831279E+02  0.00000000000E+00 0. -1.
         21   -1    0    0  503  502 -0.00000000000E+00 -0.00000000000E+00 -0.76428277458E+02  0.76428277458E+02  0.00000000000E+00 0. -1.
         21    1    1    2  503  504 -0.15015456448E+02  0.21407022834E+02 -0.71701005592E+02  0.76320107193E+02  0.00000000000E+00 0. -1.
         21    1    1    2  504  501  0.15015456448E+02 -0.21407022834E+02  0.68281559413E+02  0.73117001544E+02  0.00000000000E+00 0. -1.
</event>
<event>
 4    1  0.1725802E+006  0.3562326E+02  0.7546771E-02  0.1376234E+00
         21   -1    0    0  502  501  0.00000000000E+00  0.00000000000E+00  0.24945680691E+03  0.24945680691E+03  0.00000000000E+00 0. -1.
         21   -1    0    0  504  502 -0.00000000000E+00 -0.00000000000E+00 -0.56660663557E+01  0.56660663557E+01  0.00000000000E+00 0. -1.
         21    1    1    2  503  501  0.30172962089E+02 -0.18936984007E+02  0.16267068252E+03  0.16652557748E+03  0.00000000000E+00 0. -1.
         21    1    1    2  504  503 -0.30172962089E+02  0.18936984007E+02  0.81120058031E+02  0.88597295780E+02  0.00000000000E+00 0. -1.
</event>
<event>
 4    1  0.1725802E+006  0.1408612E+03  0.7546771E-02  0.1107371E+00
         21   -1    0    0  503  501  0.00000000000E+00  0.00000000000E+00  0.29633199473E+03  0.29633199473E+03  0.00000000000E+00 0. -1.
         21   -1    0    0  501  502 -0.00000000000E+00 -0.00000000000E+00 -0.11334234879E+03  0.11334234879E+03  0.00000000000E+00 0. -1.
         21    1    1    2  503  504  0.11888574716E+03  0.75551709882E+02  0.22253276711E+03  0.26336802043E+03  0.00000000000E+00 0. -1.
         21    1    1    2  504  502 -0.11888574716E+03 -0.75551709882E+02 -0.39543121172E+02  0.14630632309E+03  0.00000000000E+00 0. -1.
</event>
<event>
 4    1  0.1725802E+006  0.2532697E+02  0.7546771E-02  0.1465179E+00
         21   -1    0    0  504  501  0.00000000000E+00  0.00000000000E+00  0.37509063189E+02  0.37509063189E+02  0.00000000000E+00 0.  1.
         21   -1    0    0  503  502 -0.00000000000E+00 -0.00000000000E+00 -0.31549291294E+03  0.31549291294E+03  0.00000000000E+00 0.  1.
         21    1    1    2  503  501  0.25313855714E+02  0.81491432238E+00  0.32658787944E+02  0.41328583407E+02  0.00000000000E+00 0.  1.
         21    1    1    2  504  502 -0.25313855714E+02 -0.81491432238E+00 -0.31064263769E+03  0.31167339272E+03  0.00000000000E+00 0.  1.
</event>
<event>
 4    1  0.1725802E+006  0.2934989E+02  0.7546771E-02  0.1425331E+00
         21   -1    0    0  503  501  0.00000000000E+00  0.00000000000E+00  0.47516551819E+02  0.47516551819E+02  0.00000000000E+00 0. -1.
         21   -1    0    0  504  502 -0.00000000000E+00 -0.00000000000E+00 -0.18132902493E+02  0.18132902493E+02  0.00000000000E+00 0. -1.
         21    1    1    2  503  502 -0.25825594510E+01 -0.29236049040E+02  0.14195707537E+02  0.32602673039E+02  0.00000000000E+00 0. -1.
         21    1    1    2  504  501  0.25825594510E+01  0.29236049040E+02  0.15187941788E+02  0.33046781274E+02  0.00000000000E+00 0. -1.
</event>
<event>
 4    1  0.1725802E+006  0.2461902E+02  0.7546771E-02  0.1473111E+00
         21   -1    0    0  502  501  0.00000000000E+00  0.00000000000E+00  0.24617036124E+02  0.24617036124E+02  0.00000000000E+00 0. -1.
         21   -1    0    0  504  502 -0.00000000000E+00 -0.00000000000E+00 -0.47538560168E+02  0.47538560168E+02  0.00000000000E+00 0. -1.
         21    1    1    2  503  501 -0.12496013072E+02 -0.21211923651E+02  0.13588861441E+02  0.28120334332E+02  0.00000000000E+00 0. -1.
         21    1    1    2  504  503  0.12496013072E+02  0.21211923651E+02 -0.36510385485E+02  0.44035261960E+02  0.00000000000E+00 0. -1.
</event>
<event>
 4    1  0.1725802E+006  0.2131701E+02  0.7546771E-02  0.1514787E+00
         21   -1    0    0  504  501  0.00000000000E+00  0.00000000000E+00  0.12645194302E+02  0.12645194302E+02  0.00000000000E+00 0.  1.
         21   -1    0    0  503  502 -0.00000000000E+00 -0.00000000000E+00 -0.42428049107E+02  0.42428049107E+02  0.00000000000E+00 0.  1.
         21    1    1    2  503  501  0.12680382955E+02 -0.17135421536E+02 -0.25663090133E+02  0.33361789195E+02  0.00000000000E+00 0.  1.
         21    1    1    2  504  502 -0.12680382955E+02  0.17135421536E+02 -0.41197646713E+01  0.21711454213E+02  0.00000000000E+00 0.  1.
</event>
<event>
 4    1  0.1725802E+006  0.4480680E+02  0.7546771E-02  0.1322408E+00
         21   -1    0    0  504  501  0.00000000000E+00  0.00000000000E+00  0.42110977554E+02  0.42110977554E+02  0.00000000000E+00 0. -1.
         21   -1    0    0  501  502 -0.00000000000E+00 -0.00000000000E+00 -0.14285042052E+03  0.14285042052E+03  0.00000000000E+00 0.  1.
         21    1    1    2  503  502 -0.44728543234E+02  0.26470974769E+01 -0.12585673868E+03  0.13359479172E+03  0.00000000000E+00 0.  1.
         21    1    1    2  504  503  0.44728543234E+02 -0.26470974769E+01  0.25117295708E+02  0.51366606356E+02  0.00000000000E+00 0. -1.
</event>
<event>
 4    1  0.1725802E+006  0.2191029E+02  0.7546771E-02  0.1506655E+00
         21   -1    0    0  503  501  0.00000000000E+00  0.00000000000E+00  0.29027163327E+02  0.29027163327E+02  0.00000000000E+00 0. -1.
         21   -1    0    0  501  502 -0.00000000000E+00 -0.00000000000E+00 -0.58155552229E+02  0.58155552229E+02  0.00000000000E+00 0.  1.
         21    1    1    2  503  504 -0.20133364181E+02 -0.86434090458E+01  0.22311595905E+02  0.31270883981E+02  0.00000000000E+00 0. -1.
         21    1    1    2  504  502  0.20133364181E+02  0.86434090458E+01 -0.51439984806E+02  0.55911831574E+02  0.00000000000E+00 0.  1.
</event>
<event>
 4    1  0.1725802E+006  0.2281482E+02  0.7546771E-02  0.1494837E+00
         21   -1    0    0  502  501  0.00000000000E+00  0.00000000000E+00  0.81889985568E+02  0.81889985568E+02  0.00000000000E+00 0. -1.
         21   -1    0    0  504  502 -0.00000000000E+00 -0.00000000000E+00 -0.16011405075E+02  0.16011405075E+02  0.00000000000E+00 0.  1.
         21    1    1    2  503  501  0.59999646382E+01 -0.22011730237E+02  0.70951494048E+02  0.74529392533E+02  0.00000000000E+00 0. -1.
         21    1    1    2  504  503 -0.59999646382E+01  0.22011730237E+02 -0.50729135554E+01  0.23371998109E+02  0.00000000000E+00 0.  1.
</event>
<event>
 4    1  0.1725802E+006  0.2545412E+02  0.7546771E-02  0.1463787E+00
         21   -1    0    0  503  501  0.00000000000E+00  0.00000000000E+00  0.43465973945E+02  0.43465973945E+02  0.00000000000E+00 0. -1.
         21   -1    0    0  504  502 -0.00000000000E+00 -0.00000000000E+00 -0.78856970253E+02  0.78856970253E+02  0.00000000000E+00 0. -1.
         21    1    1    2  503  502  0.12802802632E+02 -0.22000010757E+02 -0.72773832428E+02  0.77096970854E+02  0.00000000000E+00 0. -1.
         21    1    1    2  504  501 -0.12802802632E+02  0.22000010757E+02  0.37382836120E+02  0.45225973344E+02  0.00000000000E+00 0. -1.
</event>
<event>
 4    1  0.1725802E+006  0.3214253E+02  0.7546771E-02  0.1401848E+00
         21   -1    0    0  502  501  0.00000000000E+00  0.00000000000E+00  0.67465470444E+02  0.67465470444E+02  0.00000000000E+00 0.  1.
         21   -1    0    0  503  502 -0.00000000000E+00 -0.00000000000E+00 -0.18444022887E+02  0.18444022887E+02  0.00000000000E+00 0.  1.
         21    1    1    2  503  504  0.25111758076E+02 -0.20063445303E+02  0.68144530697E+01  0.32856947542E+02  0.00000000000E+00 0.  1.
         21    1    1    2  504  501 -0.25111758076E+02  0.20063445303E+02  0.42206994487E+02  0.53052545790E+02  0.00000000000E+00 0.  1.
</event>
<event>
 4    1  0.1725802E+006  0.3303267E+02  0.7546771E-02  0.1394948E+00
         21   -1    0    0  503  501  0.00000000000E+00  0.00000000000E+00  0.34950917554E+01  0.34950917554E+01  0.00000000000E+00 0.  1.
         21   -1    0    0  504  502 -0.00000000000E+00 -0.00000000000E+00 -0.37739250878E+03  0.37739250878E+03  0.00000000000E+00 0.  1.
         21    1    1    2  503  502 -0.21775268366E+02 -0.24839379815E+02 -0.26610384407E+03  0.26814625288E+03  0.00000000000E+00 0.  1.
         21    1    1    2  504  501  0.21775268366E+02  0.24839379815E+02 -0.10779357296E+03  0.11274134766E+03  0.00000000000E+00 0.  1.
</event>
<event>
 4    1  0.1725802E+006  0.2076960E+02  0.7546771E-02  0.1522580E+00
         21   -1    0    0  504  501  0.00000000000E+00  0.00000000000E+00  0.12614014092E+03  0.12614014092E+03  0.00000000000E+00 0. -1.
         21   -1    0    0  501  502 -0.00000000000E+00 -0.00000000000E+00 -0.63500717783E+01  0.63500717783E+01  0.00000000000E+00 0. -1.
         21    1    1    2  503  502 -0.57806062878E+01 -0.19948956183E+02  0.14894555370E+02  0.25558248013E+02  0.00000000000E+00 0. -1.
         21    1    1    2  504  503  0.57806062878E+01  0.19948956183E+02  0.10489551377E+03  0.10693196468E+03  0.00000000000E+00 0. -1.
</event>
<event>
 4    1  0.1725802E+006  0.2128012E+02  0.7546771E-02  0.1515303E+00
         21   -1    0    0  504  501  0.00000000000E+00  0.00000000000E+00  0.34680168958E+01  0.34680168958E+01  0.00000000000E+00 0.  1.
         21   -1    0    0  501  502 -0.00000000000E+00 -0.00000000000E+00 -0.13085148256E+03  0.13085148256E+03  0.00000000000E+00 0.  1.
         21    1    1    2  503  502 -0.20752509799E+02  0.47092151029E+01 -0.66767461367E+02  0.70076652797E+02  0.00000000000E+00 0.  1.
         21    1    1    2  504  503  0.20752509799E+02 -0.47092151029E+01 -0.60616004293E+02  0.64242846654E+02  0.00000000000E+00 0.  1.
</event>
<event>
 4    1  0.1725802E+006  0.5285575E+02  0.7546771E-02  0.1286244E+00
         21   -1    0    0  504  501  0.00000000000E+00  0.00000000000E+00  0.13752876763E+03  0.13752876763E+03  0.00000000000E+00 0.  1.
         21   -1    0    0  503  502 -0.00000000000E+00 -0.00000000000E+00 -0.20831815454E+02  0.20831815454E+02  0.00000000000E+00 0.  1.
         21    1    1    2  503  501  0.51509862729E+02  0.11851747887E+02  0.45862256434E+02  0.69979114396E+02  0.00000000000E+00 0.  1.
         21    1    1    2  504  502 -0.51509862729E+02 -0.11851747887E+02  0.70834695738E+02  0.88381468683E+02  0.00000000000E+00 0.  1.
</event>
<event>
 4    1  0.1725802E+006  0.3861433E+02  0.7546771E-02  0.1356803E+00
         21   -1    0    0  503  501  0.00000000000E+00  0.00000000000E+00  0.50476935256E+01  0.50476935256E+01  0.00000000000E+00 0. -1.
         21   -1    0    0  504  502 -0.00000000000E+00 -0.00000000000E+00 -0.59617170010E+03  0.59617170010E+03  0.00000000000E+00 0. -1.
         21    1    1    2  503  502 -0.21857385299E+02 -0.31832709611E+02 -0.82041819013E+02  0.90674840834E+02  0.00000000000E+00 0. -1.
         21    1    1    2  504  501  0.21857385299E+02  0.31832709611E+02 -0.50908218757E+03  0.51054455280E+03  0.00000000000E+00 0. -1.
</event>
<event>
 4    1  0.1725802E+006  0.2262286E+02  0.7546771E-02  0.1497289E+00
         21   -1    0    0  503  501  0.00000000000E+00  0.00000000000E+00  0.22583935098E+02  0.22583935098E+02  0.00000000000E+00 0. -1.
         21   -1    0    0  504  502 -0.00000000000E+00 -0.00000000000E+00 -0.32892405042E+02  0.32892405042E+02  0.00000000000E+00 0. -1.
         21    1    1    2  503  502  0.43859462466E+01  0.22193632940E+02 -0.20623849039E+02  0.30612693719E+02  0.00000000000E+00 0. -1.
         21    1    1    2  504  501 -0.43859462466E+01 -0.22193632940E+02  0.10315379095E+02  0.24863646422E+02  0.00000000000E+00 0. -1.
</event>
<event>
 4    1  0.1725802E+006  0.4805790E+02  0.7546771E-02  0.1306820E+00
         21   -1    0    0  502  501  0.00000000000E+00  0.00000000000E+00  0.69392318384E+01  0.69392318384E+01  0.00000000000E+00 0. -1.
         21   -1    0    0  504  502 -0.00000000000E+00 -0.00000000000E+00 -0.59624600290E+03  0.59624600290E+03  0.00000000000E+00 0. -1.
         21    1    1    2  503  501 -0.31952949184E+02  0.35896671886E+02 -0.94191542542E+02  0.10574312602E+03  0.00000000000E+00 0. -1.
         21    1    1    2  504  503  0.31952949184E+02 -0.35896671886E+02 -0.49511522852E+03  0.49744210871E+03  0.00000000000E+00 0. -1.
</event>
<event>
 4    1  0.1725802E+006  0.5050191E+02  0.7546771E-02  0.1296011E+00
         21   -1    0    0  502  501  0.00000000000E+00  0.00000000000E+00  0.82105475574E+02  0.82105475574E+02  0.00000000000E+00 0.  1.
         21   -1    0    0  503  502 -0.00000000000E+00 -0.00000000000E+00 -0.97461056140E+02  0.97461056140E+02  0.00000000000E+00 0. -1.
         21    1    1    2  503  504 -0.38142786537E+02 -0.33099410793E+02 -0.81784493624E+02  0.96120479383E+02  0.00000000000E+00 0. -1.
         21    1    1    2  504  501  0.38142786537E+02  0.33099410793E+02  0.66428913058E+02  0.83446052331E+02  0.00000000000E+00 0.  1.
</event>
<event>
 4    1  0.1725802E+006  0.4891638E+02  0.7546771E-02  0.1302940E+00
         21   -1    0    0  504  501  0.00000000000E+00  0.00000000000E+00  0.19972731945E+02  0.19972731945E+02  0.00000000000E+00 0.  1.
         21   -1    0    0  503  502 -0.00000000000E+00 -0.00000000000E+00 -0.15409193678E+03  0.15409193678E+03  0.00000000000E+00 0.  1.
         21    1    1    2  503  501 -0.44188092698E+02 -0.20981525693E+02 -0.26005010556E+02  0.55399210560E+02  0.00000000000E+00 0.  1.
         21    1    1    2  504  502  0.44188092698E+02  0.20981525693E+02 -0.10811419428E+03  0.11866545817E+03  0.00000000000E+00 0.  1.
</event>
<event>
 4    1  0.1725802E+006  0.2984704E+02  0.7546771E-02  0.1420930E+00
         21   -1    0    0  504  501  0.00000000000E+00  0.00000000000E+00  0.58931575305E+01  0.58931575305E+01  0.00000000000E+00 0. -1.
         21   -1    0    0  503  502 -0.00000000000E+00 -0.00000000000E+00 -0.29206605190E+03  0.29206605190E+03  0.00000000000E+00 0. -1.
         21    1    1    2  503  501  0.27183876430E+02  0.12324077290E+02 -0.39609978046E+02  0.49596334336E+02  0.00000000000E+00 0. -1.
         21    1    1    2  504  502 -0.27183876430E+02 -0.12324077290E+02 -0.24656291632E+03  0.24836287509E+03  0.00000000000E+00 0. -1.
</event>
<event>
 4    1  0.1725802E+006  0.2276815E+02  0.7546771E-02  0.1495430E+00
         21   -1    0    0  503  501  0.00000000000E+00  0.00000000000E+00  0.15417570352E+04  0.15417570352E+04  0.00000000000E+00 0.  1.
         21   -1    0    0  504  502 -0.00000000000E+00 -0.00000000000E+00 -0.26449433553E+02  0.26449433553E+02  0.00000000000E+00 0. -1.
         21    1    1    2  503  502  0.22658951697E+02  0.22272086690E+01 -0.21449627250E+02  0.31280585986E+02  0.00000000000E+00 0. -1.
         21    1    1    2  504  501 -0.22658951697E+02 -0.22272086690E+01  0.15367572289E+04  0.15369258828E+04  0.00000000000E+00 0.  1.
</event>
<event>
 4    1  0.1725802E+006  0.2278156E+02  0.7546771E-02  0.1495259E+00
         21   -1    0    0  503  501  0.00000000000E+00  0.00000000000E+00  0.10480991074E+03  0.10480991074E+03  0.00000000000E+00 0. -1.
         21   -1    0    0  504  502 -0.00000000000E+00 -0.00000000000E+00 -0.49673039423E+01  0.49673039423E+01  0.00000000000E+00 0.  1.
         21    1    1    2  503  502  0.20227947113E+02 -0.10479966760E+02  0.52986074222E+02  0.57676022827E+02  0.00000000000E+00 0.  1.
         21    1    1    2  504  501 -0.20227947113E+02  0.10479966760E+02  0.46856532574E+02  0.52101191854E+02  0.00000000000E+00 0. -1.
</event>
<event>
 4    1  0.1725802E+006  0.2010229E+02  0.7546771E-02  0.1532478E+00
         21   -1    0    0  504  501  0.00000000000E+00  0.00000000000E+00  0.16213800646E+01  0.16213800646E+01  0.00000000000E+00 0.  1.
         21   -1    0    0  503  502 -0.00000000000E+00 -0.00000000000E+00 -0.54106417887E+03  0.54106417887E+03  0.00000000000E+00 0. -1.
         21    1    1    2  503  501  0.19917224598E+02 -0.27214282374E+01 -0.70443355182E+02  0.73255500112E+02  0.00000000000E+00 0.  1.
         21    1    1    2  504  502 -0.19917224598E+02  0.27214282374E+01 -0.46899944363E+03  0.46943005883E+03  0.00000000000E+00 0. -1.
</event>
<event>
 4    1  0.1725802E+006  0.2236503E+02  0.7546771E-02  0.1500629E+00
         21   -1    0    0  503  501  0.00000000000E+00  0.00000000000E+00  0.16804417314E+01  0.16804417314E+01  0.00000000000E+00 0. -1.
         21   -1    0    0  504  502 -0.00000000000E+00 -0.00000000000E+00 -0.29799752115E+03  0.29799752115E+03  0.00000000000E+00 0. -1.
         21    1    1    2  503  502  0.12761411874E+02  0.18366847642E+02 -0.15322596597E+03  0.15484957660E+03  0.00000000000E+00 0. -1.
         21    1    1    2  504  501 -0.12761411874E+02 -0.18366847642E+02 -0.14309111344E+03  0.14482838627E+03  0.00000000000E+00 0. -1.
</event>
<event>
 4    1  0.1725802E+006  0.2224746E+02  0.7546771E-02  0.1502170E+00
         21   -1    0    0  504  501  0.00000000000E+00  0.00000000000E+00  0.12887821667E+03  0.12887821667E+03  0.00000000000E+00 0. -1.
         21   -1    0    0  501  502 -0.00000000000E+00 -0.00000000000E+00 -0.34399667537E+02  0.34399667537E+02  0.00000000000E+00 0.  1.
         21    1    1    2  503  502 -0.34217943751E+01 -0.21982734675E+02 -0.29707676923E+02  0.37114624727E+02  0.00000000000E+00 0.  1.
         21    1    1    2  504  503  0.34217943751E+01  0.21982734675E+02  0.12418622606E+03  0.12616325948E+03  0.00000000000E+00 0. -1.
</event>
<event>
 4    1  0.1725802E+006  0.2252945E+02  0.7546771E-02  0.1498493E+00
         21   -1    0    0  503  501  0.00000000000E+00  0.00000000000E+00  0.77672128833E+01  0.77672128833E+01  0.00000000000E+00 0.  1.
         21   -1    0    0  504  502 -0.00000000000E+00 -0.00000000000E+00 -0.75114941982E+02  0.75114941982E+02  0.00000000000E+00 0. -1.
         21    1    1    2  503  502 -0.20093795596E+02 -0.10188986593E+02 -0.18730959663E+02  0.29298889385E+02  0.00000000000E+00 0.  1.
         21    1    1    2  504  501  0.20093795596E+02  0.10188986593E+02 -0.48616769435E+02  0.53583265480E+02  0.00000000000E+00 0. -1.
</event>
<event>
 4    1  0.1725802E+006  0.2186571E+02  0.7546771E-02  0.1507255E+00
         21   -1    0    0  504  501  0.00000000000E+00  0.00000000000E+00  0.42943015328E+03  0.42943015328E+03  0.00000000000E+00 0. -1.
         21   -1    0    0  501  502 -0.00000000000E+00 -0.00000000000E+00 -0.11425612676E+01  0.11425612676E+01  0.00000000000E+00 0. -1.
         21    1    1    2  503  502  0.11832724792E+02 -0.18387379123E+02  0.17972469073E+03  0.18104992004E+03  0.00000000000E+00 0. -1.
         21    1    1    2  504  503 -0.11832724792E+02  0.18387379123E+02  0.24856290128E+03  0.24952279451E+03  0.00000000000E+00 0. -1.
</event>
<event>
 4    1  0.1725802E+006  0.2297022E+02  0.7546771E-02  0.1492872E+00
         21   -1    0    0  502  501  0.00000000000E+00  0.00000000000E+00  0.77147263562E+01  0.77147263562E+01  0.00000000000E+00 0. -1.
         21   -1    0    0  503  502 -0.00000000000E+00 -0.00000000000E+00 -0.92164518564E+02  0.92164518564E+02  0.00000000000E+00 0. -1.
         21    1    1    2  503  504 -0.15917748676E+01 -0.22914995829E+02 -0.67587555937E+02  0.71384231442E+02  0.00000000000E+00 0. -1.
         21    1    1    2  504  501  0.15917748676E+01  0.22914995829E+02 -0.16862236271E+02  0.28495013478E+02  0.00000000000E+00 0. -1.
</event>
<event>
 4    1  0.1725802E+006  0.2067707E+02  0.7546771E-02  0.1523926E+00
         21   -1    0    0  503  501  0.00000000000E+00  0.00000000000E+00  0.17510719236E+02  0.17510719236E+02  0.00000000000E+00 0.  1.
         21   -1    0    0  504  502 -0.00000000000E+00 -0.00000000000E+00 -0.50722289986E+02  0.50722289986E+02  0.00000000000E+00 0. -1.
         21    1    1    2  503  502  0.40261202291E+01  0.20281313787E+02  0.79636449837E+01  0.22157639189E+02  0.00000000000E+00 0.  1.
         21    1    1    2  504  501 -0.40261202291E+01 -0.20281313787E+02 -0.41175215733E+02  0.46075370033E+02  0.00000000000E+00 0. -1.
</event>
<event>
 4    1  0.1725802E+006  0.2647582E+02  0.7546771E-02  0.1452946E+00
         21   -1    0    0  504  501  0.00000000000E+00  0.00000000000E+00  0.32084228456E+03  0.32084228456E+03  0.00000000000E+00 0.  1.
         21   -1    0    0  503  502 -0.00000000000E+00 -0.00000000000E+00 -0.14308583789E+03  0.14308583789E+03  0.00000000000E+00 0.  1.
         21    1    1    2  503  501 -0.79431122548E+01 -0.25256210071E+02 -0.14130809576E+03  0.14376698893E+03  0.00000000000E+00 0.  1.
         21    1    1    2  504  502  0.79431122548E+01  0.25256210071E+02  0.31906454243E+03  0.32016113352E+03  0.00000000000E+00 0.  1.
</event>
<event>
 4    1  0.1725802E+006  0.2744488E+02  0.7546771E-02  0.1443190E+00
         21   -1    0    0  502  501  0.00000000000E+00  0.00000000000E+00  0.68883754216E+03  0.68883754216E+03  0.00000000000E+00 0. -1.
         21   -1    0    0  504  502 -0.00000000000E+00 -0.00000000000E+00 -0.83844046204E+01  0.83844046204E+01  0.00000000000E+00 0. -1.
         21    1    1    2  503  501 -0.13324235956E+02  0.23993459244E+02  0.66531133647E+03  0.66587716268E+03  0.00000000000E+00 0. -1.
         21    1    1    2  504  503  0.13324235956E+02 -0.23993459244E+02  0.15141801069E+02  0.31344784095E+02  0.00000000000E+00 0. -1.
</event>
<event>
 4    1  0.1725802E+006  0.2065959E+02  0.7546771E-02  0.1524181E+00
         21   -1    0    0  503  501  0.00000000000E+00  0.00000000000E+00  0.53021016748E+00  0.53021016748E+00  0.00000000000E+00 0. -1.
         21   -1    0    0  504  502 -0.00000000000E+00 -0.00000000000E+00 -0.81203269942E+03  0.81203269942E+03  0.00000000000E+00 0. -1.
         21    1    1    2  503  502  0.10683800764E+02 -0.17682622847E+02 -0.44356298070E+03  0.44404384535E+03  0.00000000000E+00 0. -1.
         21    1    1    2  504  501 -0.10683800764E+02  0.17682622847E+02 -0.36793950855E+03  0.36851906423E+03  0.00000000000E+00 0. -1.
</event>
<event>
 4    1  0.1725802E+006  0.2073583E+02  0.7546771E-02  0.1523070E+00
         21   -1    0    0  504  501  0.00000000000E+00  0.00000000000E+00  0.96817980901E+02  0.96817980901E+02  0.00000000000E+00 0. -1.
         21   -1    0    0  503  502 -0.00000000000E+00 -0.00000000000E+00 -0.51891105580E+01  0.51891105580E+01  0.00000000000E+00 0. -1.
         21    1    1    2  503  501 -0.12736444686E+02 -0.16363306397E+02  0.65179471307E+02  0.68398379362E+02  0.00000000000E+00 0. -1.
         21    1    1    2  504  502  0.12736444686E+02  0.16363306397E+02  0.26449399036E+02  0.33608712097E+02  0.00000000000E+00 0. -1.
</event>
<event>
 4    1  0.1725802E+006  0.2506637E+02  0.7546771E-02  0.1468062E+00
         21   -1    0    0  503  501  0.00000000000E+00  0.00000000000E+00  0.20063891057E+03  0.20063891057E+03  0.00000000000E+00 0.  1.
         21   -1    0    0  504  502 -0.00000000000E+00 -0.00000000000E+00 -0.11331568535E+02  0.11331568535E+02  0.00000000000E+00 0. -1.
         21    1    1    2  503  502  0.92442054728E+01 -0.23299523881E+02  0.44952793896E+01  0.25466265622E+02  0.00000000000E+00 0. -1.
         21    1    1    2  504  501 -0.92442054728E+01  0.23299523881E+02  0.18481206264E+03  0.18650421348E+03  0.00000000000E+00 0.  1.
</event>
<event>
 4    1  0.1725802E+006  0.2263458E+02  0.7546771E-02  0.1497138E+00
         21   -1    0    0  504  501  0.00000000000E+00  0.00000000000E+00  0.21094546854E+02  0.21094546854E+02  0.00000000000E+00 0.  1.
         21   -1    0    0  501  502 -0.00000000000E+00 -0.00000000000E+00 -0.28638653901E+02  0.28638653901E+02  0.00000000000E+00 0.  1.
         21    1    1    2  503  502 -0.89048806680E+01 -0.20809307990E+02 -0.13465206488E+02  0.26336969919E+02  0.00000000000E+00 0.  1.
         21    1    1    2  504  503  0.89048806680E+01  0.20809307990E+02  0.59210994417E+01  0.23396230836E+02  0.00000000000E+00 0.  1.
</event>
<event>
 4    1  0.1725802E+006  0.3055007E+02  0.7546771E-02  0.1414875E+00
         21   -1    0    0  503  501  0.00000000000E+00  0.00000000000E+00  0.48079746615E+02  0.48079746615E+02  0.00000000000E+00 0. -1.
         21   -1    0    0  504  502 -0.00000000000E+00 -0.00000000000E+00 -0.21779644969E+02  0.21779644969E+02  0.00000000000E+00 0.  1.
         21    1    1    2  503  502  0.28386308666E+02  0.11292668321E+02  0.24667609505E+02  0.39265733613E+02  0.00000000000E+00 0.  1.
         21    1    1    2  504  501 -0.28386308666E+02 -0.11292668321E+02  0.16324921415E+01  0.30593657971E+02  0.00000000000E+00 0. -1.
</event>
<event>
 4    1  0.1725802E+006  0.2473806E+02  0.7546771E-02  0.1471755E+00
         21   -1    0    0  503  501  0.00000000000E+00  0.00000000000E+00  0.11145342296E+02  0.11145342296E+02  0.00000000000E+00 0. -1.
         21   -1    0    0  504  502 -0.00000000000E+00 -0.00000000000E+00 -0.90386130843E+02  0.90386130843E+02  0.00000000000E+00 0.  1.
         21    1    1    2  503  502 -0.21653656839E+02  0.11962049185E+02 -0.71425621355E+02  0.75588298441E+02  0.00000000000E+00 0.  1.
         21    1    1    2  504  501  0.21653656839E+02 -0.11962049185E+02 -0.78151671913E+01  0.25943174698E+02  0.00000000000E+00 0. -1.
</event>
<event>
 4    1  0.1725802E+006  0.2733254E+02  0.7546771E-02  0.1444296E+00
         21   -1    0    0  502  501  0.00000000000E+00  0.00000000000E+00  0.34280426426E+01  0.34280426426E+01  0.00000000000E+00 0.  1.
         21   -1    0    0  503  502 -0.00000000000E+00 -0.00000000000E+00 -0.26032987246E+03  0.26032987246E+03  0.00000000000E+00 0.  1.
         21    1    1    2  503  504 -0.14218516001E+02 -0.23343132063E+02 -0.18167445132E+03  0.18371900902E+03  0.00000000000E+00 0.  1.
         21    1    1    2  504  501  0.14218516001E+02  0.23343132063E+02 -0.75227378491E+02  0.80038906079E+02  0.00000000000E+00 0.  1.
</event>
<event>
 4    1  0.1725802E+006  0.2034594E+02  0.7546771E-02  0.1528811E+00
         21   -1    0    0  504  501  0.00000000000E+00  0.00000000000E+00  0.10565904932E+03  0.10565904932E+03  0.00000000000E+00 0. -1.
         21   -1    0    0  503  502 -0.00000000000E+00 -0.00000000000E+00 -0.87448574580E+01  0.87448574580E+01  0.00000000000E+00 0. -1.
         21    1    1    2  503  501 -0.17250796180E+02 -0.10787363792E+02  0.90955547080E+02  0.93203372959E+02  0.00000000000E+00 0. -1.
         21    1    1    2  504  502  0.17250796180E+02  0.10787363792E+02  0.59586447772E+01  0.21200533814E+02  0.00000000000E+00 0. -1.
</event>
<event>
 4    1  0.1725802E+006  0.2518158E+02  0.7546771E-02  0.1466782E+00
         21   -1    0    0  503  501  0.00000000000E+00  0.00000000000E+00  0.14276256804E+02  0.14276256804E+02  0.00000000000E+00 0.  1.
         21   -1    0    0  504  502 -0.00000000000E+00 -0.00000000000E+00 -0.49701461473E+03  0.49701461473E+03  0.00000000000E+00 0.  1.
         21    1    1    2  503  502 -0.24417427848E+02  0.61564063626E+01  0.25856798364E+01  0.25313985507E+02  0.00000000000E+00 0.  1.
         21    1    1    2  504  501  0.24417427848E+02 -0.61564063626E+01 -0.48532403776E+03  0.48597688602E+03  0.00000000000E+00 0.  1.
</event>
<event>
 4    1  0.1725802E+006  0.2053729E+02  0.7546771E-02  0.1525975E+00
         21   -1    0    0  504  501  0.00000000000E+00  0.00000000000E+00  0.56945406759E+01  0.56945406759E+01  0.00000000000E+00 0.  1.
         21   -1    0    0  503  502 -0.00000000000E+00 -0.00000000000E+00 -0.85948962701E+02  0.85948962701E+02  0.00000000000E+00 0.  1.
         21    1    1    2  503  501 -0.18899214737E+02  0.80374133860E+01 -0.57163951749E+02  0.60741235674E+02  0.00000000000E+00 0.  1.
         21    1    1    2  504  502  0.18899214737E+02 -0.80374133860E+01 -0.23090470276E+02  0.30902267703E+02  0.00000000000E+00 0.  1.
</event>
<event>
 4    1  0.1725802E+006  0.2461952E+02  0.7546771E-02  0.1473105E+00
         21   -1    0    0  504  501  0.00000000000E+00  0.00000000000E+00  0.10676812286E+03  0.10676812286E+03  0.00000000000E+00 0.  1.
         21   -1    0    0  503  502 -0.00000000000E+00 -0.00000000000E+00 -0.57437767299E+02  0.57437767299E+02  0.00000000000E+00 0.  1.
         21    1    1    2  503  501  0.23567922956E+02  0.71185385501E+01  0.10260517649E+03  0.10551750009E+03  0.00000000000E+00 0.  1.
         21    1    1    2  504  502 -0.23567922956E+02 -0.71185385501E+01 -0.53274820929E+02  0.58688390066E+02  0.00000000000E+00 0.  1.
</event>
<event>
 4    1  0.1725802E+006  0.2398811E+02  0.7546771E-02  0.1480450E+00
         21   -1    0    0  504  501  0.00000000000E+00  0.00000000000E+00  0.11431010085E+03  0.11431010085E+03  0.00000000000E+00 0. -1.
         21   -1    0    0  501  502 -0.00000000000E+00 -0.00000000000E+00 -0.16253803330E+03  0.16253803330E+03  0.00000000000E+00 0.  1.
         21    1    1    2  503  502 -0.42284389386E+01 -0.23612494207E+02 -0.16037762152E+03  0.16216168186E+03  0.00000000000E+00 0.  1.
         21    1    1    2  504  503  0.42284389386E+01  0.23612494207E+02  0.11214968908E+03  0.11468645229E+03  0.00000000000E+00 0. -1.
</event>
<event>
 4    1  0.1725802E+006  0.2003255E+02  0.7546771E-02  0.1533539E+00
         21   -1    0    0  504  501  0.00000000000E+00  0.00000000000E+00  0.25354148352E+03  0.25354148352E+03  0.00000000000E+00 0.  1.
         21   -1    0    0  503  502 -0.00000000000E+00 -0.00000000000E+00 -0.42150986039E+01  0.42150986039E+01  0.00000000000E+00 0. -1.
         21    1    1    2  503  501 -0.19396173958E+02 -0.50091306528E+01  0.22650926626E+03  0.22739338305E+03  0.00000000000E+00 0.  1.
         21    1    1    2  504  502  0.19396173958E+02  0.50091306528E+01  0.22817118656E+02  0.30363199072E+02  0.00000000000E+00 0. -1.
</event>
<event>
 4    1  0.1725802E+006  0.3472989E+02  0.7546771E-02  0.1382472E+00
         21   -1    0    0  504  501  0.00000000000E+00  0.00000000000E+00  0.10818225692E+01  0.10818225692E+01  0.00000000000E+00 0.  1.
         21   -1    0    0  503  502 -0.00000000000E+00 -0.00000000000E+00 -0.12622014202E+04  0.12622014202E+04  0.00000000000E+00 0. -1.
         21    1    1    2  503  501  0.11302501909E+02 -0.32839289739E+02 -0.84631103474E+03  0.84702333676E+03  0.00000000000E+00 0. -1.
         21    1    1    2  504  502 -0.11302501909E+02  0.32839289739E+02 -0.41480856286E+03  0.41625990598E+03  0.00000000000E+00 0.  1.
</event>
<event>
 4    1  0.1725802E+006  0.2216817E+02  0.7546771E-02  0.1503216E+00
         21   -1    0    0  504  501  0.00000000000E+00  0.00000000000E+00  0.69504903034E+02  0.69504903034E+02  0.00000000000E+00 0.  1.
         21   -1    0    0  501  502 -0.00000000000E+00 -0.00000000000E+00 -0.61314743914E+02  0.61314743914E+02  0.00000000000E+00 0. -1.
         21    1    1    2  503  502  0.21881206564E+02  0.35553754595E+01 -0.57427951450E+02  0.61558082354E+02  0.00000000000E+00 0. -1.
         21    1    1    2  504  503 -0.21881206564E+02 -0.35553754595E+01  0.65618110570E+02  0.69261564595E+02  0.00000000000E+00 0.  1.
</event>
<event>
 4    1  0.1725802E+006  0.2302670E+02  0.7546771E-02  0.1492163E+00
         21   -1    0    0  502  501  0.00000000000E+00  0.00000000000E+00  0.34581711975E+03  0.34581711975E+03  0.00000000000E+00 0. -1.
         21   -1    0    0  504  502 -0.00000000000E+00 -0.00000000000E+00 -0.40810625872E+02  0.40810625872E+02  0.00000000000E+00 0. -1.
         21    1    1    2  503  501  0.15961999864E+02  0.16596484471E+02  0.34215093476E+03  0.34292490562E+03  0.00000000000E+00 0. -1.
         21    1    1    2  504  503 -0.15961999864E+02 -0.16596484471E+02 -0.37144440878E+02  0.43702840007E+02  0.00000000000E+00 0. -1.
</event>
<event>
 4    1  0.1725802E+006  0.2457863E+02  0.7546771E-02  0.1473573E+00
         21   -1    0    0  503  501  0.00000000000E+00  0.00000000000E+00  0.56503319684E+02  0.56503319684E+02  0.00000000000E+00 0.  1.
         21   -1    0    0  501  502 -0.00000000000E+00 -0.00000000000E+00 -0.92450564791E+02  0.92450564791E+02  0.00000000000E+00 0. -1.
         21    1    1    2  503  504  0.24372967809E+02 -0.31729527667E+01  0.52064553154E+02  0.57574533295E+02  0.00000000000E+00 0.  1.
         21    1    1    2  504  502 -0.24372967809E+02  0.31729527667E+01 -0.88011798260E+02  0.91379351180E+02  0.00000000000E+00 0. -1.
</event>
<event>
 4    1  0.1725802E+006  0.2460324E+02  0.7546771E-02  0.1473291E+00
         21   -1    0    0  504  501  0.00000000000E+00  0.00000000000E+00  0.15853644889E+02  0.15853644889E+02  0.00000000000E+00 0. -1.
         21   -1    0    0  501  502 -0.00000000000E+00 -0.00000000000E+00 -0.38547049466E+02  0.38547049466E+02  0.00000000000E+00 0. -1.
         21    1    1    2  503  502 -0.11564360843E+02  0.21716009834E+02 -0.86987041445E+01  0.26095727210E+02  0.00000000000E+00 0. -1.
         21    1    1    2  504  503  0.11564360843E+02 -0.21716009834E+02 -0.13994700433E+02  0.28304967145E+02  0.00000000000E+00 0. -1.
</event>
<event>
 4    1  0.1725802E+006  0.2561752E+02  0.7546771E-02  0.1462012E+00
         21   -1    0    0  503  501  0.00000000000E+00  0.00000000000E+00  0.19299884746E+02  0.19299884746E+02  0.00000000000E+00 0. -1.
         21   -1    0    0  501  502 -0.00000000000E+00 -0.00000000000E+00 -0.41826071526E+03  0.41826071526E+03  0.00000000000E+00 0. -1.
         21    1    1    2  503  504  0.11433127537E+02 -0.22924680516E+02  0.10218350414E+02  0.27580284031E+02  0.00000000000E+00 0. -1.
         21    1    1    2  504  502 -0.11433127537E+02  0.22924680516E+02 -0.40917918093E+03  0.40998031598E+03  0.00000000000E+00 0. -1.
</event>
<event>
 4    1  0.1725802E+006  0.3653489E+02  0.7546771E-02  0.1370082E+00
         21   -1    0    0  504  501  0.00000000000E+00  0.00000000000E+00  0.30700269081E+03  0.30700269081E+03  0.00000000000E+00 0.  1.
         21   -1    0    0  503  502 -0.00000000000E+00 -0.00000000000E+00 -0.59354280860E+01  0.59354280860E+01  0.00000000000E+00 0.  1.
         21    1    1    2  503  501 -0.32125145538E+02  0.17400377069E+02  0.69610705233E+02  0.78615827802E+02  0.00000000000E+00 0.  1.
         21    1    1    2  504  502  0.32125145538E+02 -0.17400377069E+02  0.23145655750E+03  0.23432229110E+03  0.00000000000E+00 0.  1.
</event>
<event>
 4    1  0.1725802E+006  0.2229079E+02  0.7546771E-02  0.1501601E+00
         21   -1    0    0  502  501  0.00000000000E+00  0.00000000000E+00  0.10276918069E+02  0.10276918069E+02  0.00000000000E+00 0. -1.
         21   -1    0    0  503  502 -0.00000000000E+00 -0.00000000000E+00 -0.98661385689E+02  0.98661385689E+02  0.00000000000E+00 0. -1.
         21    1    1    2  503  504  0.48549997739E+01 -0.21755644900E+02 -0.83089071695E+02  0.86027163983E+02  0.00000000000E+00 0. -1.
         21    1    1    2  504  501 -0.48549997739E+01  0.21755644900E+02 -0.52953959243E+01  0.22911139775E+02  0.00000000000E+00 0. -1.
</event>
<event>
 4    1  0.1725802E+006  0.2668174E+02  0.7546771E-02  0.1450832E+00
         21   -1    0    0  502  501  0.00000000000E+00  0.00000000000E+00  0.33953072055E+01  0.33953072055E+01  0.00000000000E+00 0. -1.
         21   -1    0    0  504  502 -0.00000000000E+00 -0.00000000000E+00 -0.61371520774E+03  0.61371520774E+03  0.00000000000E+00 0. -1.
         21    1    1    2  503  501  0.12644848122E+02  0.23495173071E+02 -0.54802154125E+02  0.60952370245E+02  0.00000000000E+00 0. -1.
         21    1    1    2  504  503 -0.12644848122E+02 -0.23495173071E+02 -0.55551774641E+03  0.55615814470E+03  0.00000000000E+00 0. -1.
</event>
<event>
 4    1  0.1725802E+006  0.2181373E+02  0.7546771E-02  0.1507957E+00
         21   -1    0    0  503  501  0.00000000000E+00  0.00000000000E+00  0.18820505950E+01  0.18820505950E+01  0.00000000000E+00 0. -1.
         21   -1    0    0  504  502 -0.00000000000E+00 -0.00000000000E+00 -0.25638145386E+03  0.25638145386E+03  0.00000000000E+00 0.  1.
         21    1    1    2  503  502  0.44236107645E+01 -0.21360492427E+02 -0.14244779224E+03  0.14410833592E+03  0.00000000000E+00 0. -1.
         21    1    1    2  504  501 -0.44236107645E+01  0.21360492427E+02 -0.11205161103E+03  0.11415516854E+03  0.00000000000E+00 0.  1.
</event>
<event>
 4    1  0.1725802E+006  0.2302743E+02  0.7546771E-02  0.1492154E+00
         21   -1    0    0  504  501  0.00000000000E+00  0.00000000000E+00  0.95022079174E+01  0.95022079174E+01  0.00000000000E+00 0. -1.
         21   -1    0    0  503  502 -0.00000000000E+00 -0.00000000000E+00 -0.55804359637E+02  0.55804359637E+02  0.00000000000E+00 0. -1.
         21    1    1    2  503  501  0.22514683408E+02 -0.48323406947E+01 -0.23085441577E+02  0.32606749276E+02  0.00000000000E+00 0. -1.
         21    1    1    2  504  502 -0.22514683408E+02  0.48323406947E+01 -0.23216710143E+02  0.32699818278E+02  0.00000000000E+00 0. -1.
</event>
<event>
 4    1  0.1725802E+006  0.6193142E+02  0.7546771E-02  0.1253408E+00
         21   -1    0    0  502  501  0.00000000000E+00  0.00000000000E+00  0.59446484251E+02  0.59446484251E+02  0.00000000000E+00 0.  1.
         21   -1    0    0  504  502 -0.00000000000E+00 -0.00000000000E+00 -0.57188332477E+03  0.57188332477E+03  0.00000000000E+00 0.  1.
         21    1    1    2  503  501 -0.35506208379E+02 -0.50742585518E+02  0.41106985491E+02  0.74332261332E+02  0.00000000000E+00 0.  1.
         21    1    1    2  504  503  0.35506208379E+02  0.50742585518E+02 -0.55354382601E+03  0.55699754769E+03  0.00000000000E+00 0.  1.
</event>
<event>
 4    1  0.1725802E+006  0.2725590E+02  0.7546771E-02  0.1445054E+00
         21   -1    0    0  504  501  0.00000000000E+00  0.00000000000E+00  0.24438101192E+02  0.24438101192E+02  0.00000000000E+00 0. -1.
         21   -1    0    0  503  502 -0.00000000000E+00 -0.00000000000E+00 -0.36660126394E+03  0.36660126394E+03  0.00000000000E+00 0.  1.
         21    1    1    2  503  501 -0.27210394075E+01 -0.27119739461E+02 -0.35831961553E+03  0.35935474284E+03  0.00000000000E+00 0.  1.
         21    1    1    2  504  502  0.27210394075E+01  0.27119739461E+02  0.16156452780E+02  0.31684622300E+02  0.00000000000E+00 0. -1.
</event>
<event>
 4    1  0.1725802E+006  0.2422648E+02  0.7546771E-02  0.1477646E+00
         21   -1    0    0  504  501  0.00000000000E+00  0.00000000000E+00  0.18762466250E+03  0.18762466250E+03  0.00000000000E+00 0. -1.
         21   -1    0    0  501  502 -0.00000000000E+00 -0.00000000000E+00 -0.12075205096E+02  0.12075205096E+02  0.00000000000E+00 0. -1.
         21    1    1    2  503  502  0.65773523594E+01 -0.23316531434E+02  0.18258832940E+01  0.24295185777E+02  0.00000000000E+00 0. -1.
         21    1    1    2  504  503 -0.65773523594E+01  0.23316531434E+02  0.17372357411E+03  0.17540468182E+03  0.00000000000E+00 0. -1.
</event>
<event>
 4    1  0.1725802E+006  0.2323710E+02  0.7546771E-02  0.1489542E+00
         21   -1    0    0  502  501  0.00000000000E+00  0.00000000000E+00  0.27448446141E+03  0.27448446141E+03  0.00000000000E+00 0.  1.
         21   -1    0    0  503  502 -0.00000000000E+00 -0.00000000000E+00 -0.37202879209E+02  0.37202879209E+02  0.00000000000E+00 0.  1.
         21    1    1    2  503  504  0.23206782201E+02 -0.11865809110E+01 -0.33026624149E+02  0.40382181925E+02  0.00000000000E+00 0.  1.
         21    1    1    2  504  501 -0.23206782201E+02  0.11865809110E+01  0.27030820635E+03  0.27130515870E+03  0.00000000000E+00 0.  1.
</event>
<event>
 4    1  0.1725802E+006  0.2010591E+02  0.7546771E-02  0.1532423E+00
         21   -1    0    0  504  501  0.00000000000E+00  0.00000000000E+00  0.30908746234E+01  0.30908746234E+01  0.00000000000E+00 0.  1.
         21   -1    0    0  503  502 -0.00000000000E+00 -0.00000000000E+00 -0.52813613695E+03  0.52813613695E+03  0.00000000000E+00 0.  1.
         21    1    1    2  503  501  0.19224852256E+02 -0.58866424737E+01 -0.49291236432E+03  0.49332225411E+03  0.00000000000E+00 0.  1.
         21    1    1    2  504  502 -0.19224852256E+02  0.58866424737E+01 -0.32132898012E+02  0.37904757466E+02  0.00000000000E+00 0.  1.
</event>
<event>
 4    1  0.1725802E+006  0.2081421E+02  0.7546771E-02  0.1521934E+00
         21   -1    0    0  504  501  0.00000000000E+00  0.00000000000E+00  0.11221512243E+03  0.11221512243E+03  0.00000000000E+00 0. -1.
         21   -1    0    0  503  502 -0.00000000000E+00 -0.00000000000E+00 -0.22959520098E+02  0.22959520098E+02  0.00000000000E+00 0. -1.
         21    1    1    2  503  501  0.16329479456E+02 -0.12906562581E+02  0.10627124075E+03  0.10829038677E+03  0.00000000000E+00 0. -1.
         21    1    1    2  504  502 -0.16329479456E+02  0.12906562581E+02 -0.17015638415E+02  0.26884255758E+02  0.00000000000E+00 0. -1.
</event>
<event>
 4    1  0.1725802E+006  0.4070223E+02  0.7546771E-02  0.1344419E+00
         21   -1    0    0  504  501  0.00000000000E+00  0.00000000000E+00  0.19084922087E+02  0.19084922087E+02  0.00000000000E+00 0.  1.
         21   -1    0    0  503  502 -0.00000000000E+00 -0.00000000000E+00 -0.12517544599E+04  0.12517544599E+04  0.00000000000E+00 0.  1.
         21    1    1    2  503  501  0.65229342186E+01 -0.40176149367E+02 -0.12293264613E+04  0.12300000895E+04  0.00000000000E+00 0.  1.
         21    1    1    2  504  502 -0.65229342186E+01  0.40176149367E+02 -0.33430764626E+01  0.40839292464E+02  0.00000000000E+00 0.  1.
</event>
<event>
 4    1  0.1725802E+006  0.2117625E+02  0.7546771E-02  0.1516763E+00
         21   -1    0    0  502  501  0.00000000000E+00  0.00000000000E+00  0.91733363351E+02  0.91733363351E+02  0.00000000000E+00 0. -1.
         21   -1    0    0  503  502 -0.00000000000E+00 -0.00000000000E+00 -0.68163446470E+01  0.68163446470E+01  0.00000000000E+00 0.  1.
         21    1    1    2  503  504 -0.15758827112E+02  0.14145426416E+02  0.16253065579E+02  0.26694491213E+02  0.00000000000E+00 0.  1.
         21    1    1    2  504  501  0.15758827112E+02 -0.14145426416E+02  0.68663953125E+02  0.71855216785E+02  0.00000000000E+00 0. -1.
</event>
<event>
 4    1  0.1725802E+006  0.2116400E+02  0.7546771E-02  0.1516936E+00
         21   -1    0    0  503  501  0.00000000000E+00  0.00000000000E+00  0.46641735164E+01  0.46641735164E+01  0.00000000000E+00 0. -1.
         21   -1    0    0  504  502 -0.00000000000E+00 -0.00000000000E+00 -0.11974486759E+03  0.11974486759E+03  0.00000000000E+00 0. -1.
         21    1    1    2  503  502 -0.19900261052E+02 -0.72037954708E+01 -0.29859751877E+02  0.36599451379E+02  0.00000000000E+00 0. -1.
         21    1    1    2  504  501  0.19900261052E+02  0.72037954708E+01 -0.85220942195E+02  0.87809589725E+02  0.00000000000E+00 0. -1.
</event>
<event>
 4    1  0.1725802E+006  0.2876919E+02  0.7546771E-02  0.1430602E+00
         21   -1    0    0  503  501  0.00000000000E+00  0.00000000000E+00  0.48887702528E+02  0.48887702528E+02  0.00000000000E+00 0. -1.
         21   -1    0    0  504  502 -0.00000000000E+00 -0.00000000000E+00 -0.22764045245E+02  0.22764045245E+02  0.00000000000E+00 0.  1.
         21    1    1    2  503  502  0.44014907567E+01  0.28430496449E+02  0.31198555566E+02  0.42438380254E+02  0.00000000000E+00 0. -1.
         21    1    1    2  504  501 -0.44014907567E+01 -0.28430496449E+02 -0.50748982831E+01  0.29213367519E+02  0.00000000000E+00 0.  1.
</event>
<event>
 4    1  0.1725802E+006  0.2690034E+02  0.7546771E-02  0.1448612E+00
         21   -1    0    0  503  501  0.00000000000E+00  0.00000000000E+00  0.44921576656E+03  0.44921576656E+03  0.00000000000E+00 0.  1.
         21   -1    0    0  501  502 -0.00000000000E+00 -0.00000000000E+00 -0.80731018816E+02  0.80731018816E+02  0.00000000000E+00 0. -1.
         21    1    1    2  503  504  0.26355304253E+02 -0.53875939778E+01  0.44655886679E+03  0.44736836024E+03  0.00000000000E+00 0.  1.
         21    1    1    2  504  502 -0.26355304253E+02  0.53875939778E+01 -0.78074119055E+02  0.82578425132E+02  0.00000000000E+00 0. -1.
</event>
<event>
 4    1  0.1725802E+006  0.2111960E+02  0.7546771E-02  0.1517564E+00
         21   -1    0    0  502  501  0.00000000000E+00  0.00000000000E+00  0.40743566603E+01  0.40743566603E+01  0.00000000000E+00 0.  1.
         21   -1    0    0  503  502 -0.00000000000E+00 -0.00000000000E+00 -0.22232927368E+03  0.22232927368E+03  0.00000000000E+00 0.  1.
         21    1    1    2  503  504 -0.41147217553E+01  0.20714887663E+02 -0.18977949561E+03  0.19095102634E+03  0.00000000000E+00 0.  1.
         21    1    1    2  504  501  0.41147217553E+01 -0.20714887663E+02 -0.28475421410E+02  0.35452604002E+02  0.00000000000E+00 0.  1.
</event>
<event>
 4    1  0.1725802E+006  0.2089641E+02  0.7546771E-02  0.1520749E+00
         21   -1    0    0  503  501  0.00000000000E+00  0.00000000000E+00  0.40516833150E+02  0.40516833150E+02  0.00000000000E+00 0.  1.
         21   -1    0    0  504  502 -0.00000000000E+00 -0.00000000000E+00 -0.13154344134E+03  0.13154344134E+03  0.00000000000E+00 0.  1.
         21    1    1    2  503  502 -0.31392208079E+01 -0.20659269169E+02 -0.12794394907E+03  0.12963916928E+03  0.00000000000E+00 0.  1.
         21    1    1    2  504  501  0.31392208079E+01  0.20659269169E+02  0.36917340874E+02  0.42421105209E+02  0.00000000000E+00 0.  1.
</event>
<event>
 4    1  0.1725802E+006  0.2073839E+02  0.7546771E-02  0.1523033E+00
         21   -1    0    0  504  501  0.00000000000E+00  0.00000000000E+00  0.15056298054E+02  0.15056298054E+02  0.00000000000E+00 0. -1.
         21   -1    0    0  503  502 -0.00000000000E+00 -0.00000000000E+00 -0.30672203163E+02  0.30672203163E+02  0.00000000000E+00 0. -1.
         21    1    1    2  503  501  0.92188678230E+01  0.18576686556E+02 -0.13801083273E+02  0.24910855201E+02  0.00000000000E+00 0. -1.
         21    1    1    2  504  502 -0.92188678230E+01 -0.18576686556E+02 -0.18148218371E+01  0.20817646016E+02  0.00000000000E+00 0. -1.
</event>
<event>
 4    1  0.1725802E+006  0.2710821E+02  0.7546771E-02  0.1446524E+00
         21   -1    0    0  503  501  0.00000000000E+00  0.00000000000E+00  0.97544130727E+01  0.97544130727E+01  0.00000000000E+00 0. -1.
         21   -1    0    0  504  502 -0.00000000000E+00 -0.00000000000E+00 -0.13128878181E+03  0.13128878181E+03  0.00000000000E+00 0. -1.
         21    1    1    2  503  502  0.42030340845E+01 -0.26780398119E+02 -0.10680561006E+03  0.11019207576E+03  0.00000000000E+00 0. -1.
         21    1    1    2  504  501 -0.42030340845E+01  0.26780398119E+02 -0.14728758668E+02  0.30851119118E+02  0.00000000000E+00 0. -1.
</event>
<event>
 4    1  0.1725802E+006  0.2457328E+02  0.7546771E-02  0.1473634E+00
         21   -1    0    0  502  501  0.00000000000E+00  0.00000000000E+00  0.74811684946E+02  0.74811684946E+02  0.00000000000E+00 0. -1.
         21   -1    0    0  504  502 -0.00000000000E+00 -0.00000000000E+00 -0.94232750054E+02  0.94232750054E+02  0.00000000000E+00 0. -1.
         21    1    1    2  503  501 -0.22132763928E+02  0.10676463516E+02  0.71110766040E+02  0.75236873666E+02  0.00000000000E+00 0. -1.
         21    1    1    2  504  503  0.22132763928E+02 -0.10676463516E+02 -0.90531831148E+02  0.93807561333E+02  0.00000000000E+00 0. -1.
</event>
<event>
 4    1  0.1725802E+006  0.2391776E+02  0.7546771E-02  0.1481284E+00
         21   -1    0    0  503  501  0.00000000000E+00  0.00000000000E+00  0.82868031915E+02  0.82868031915E+02  0.00000000000E+00 0.  1.
         21   -1    0    0  504  502 -0.00000000000E+00 -0.00000000000E+00 -0.13861703508E+03  0.13861703508E+03  0.00000000000E+00 0. -1.
         21    1    1    2  503  502  0.80555070499E+01  0.22520396131E+02 -0.13582427956E+03  0.13791408323E+03  0.00000000000E+00 0. -1.
         21    1    1    2  504  501 -0.80555070499E+01 -0.22520396131E+02  0.80075276400E+02  0.83570983758E+02  0.00000000000E+00 0.  1.
</event>
<event>
 4    1  0.1725802E+006  0.3069885E+02  0.7546771E-02  0.1413619E+00
         21   -1    0    0  503  501  0.00000000000E+00  0.00000000000E+00  0.65706052376E+02  0.65706052376E+02  0.00000000000E+00 0.  1.
         21   -1    0    0  504  502 -0.00000000000E+00 -0.00000000000E+00 -0.34498486547E+02  0.34498486547E+02  0.00000000000E+00 0.  1.
         21    1    1    2  503  502  0.18775107877E+02  0.24288165463E+02 -0.22692303046E+02  0.38175388340E+02  0.00000000000E+00 0.  1.
         21    1    1    2  504  501 -0.18775107877E+02 -0.24288165463E+02  0.53899868875E+02  0.62029150583E+02  0.00000000000E+00 0.  1.
</event>
<event>
 4    1  0.1725802E+006  0.2565814E+02  0.7546771E-02  0.1461574E+00
         21   -1    0    0  504  501  0.00000000000E+00  0.00000000000E+00  0.13918046419E+03  0.13918046419E+03  0.00000000000E+00 0.  1.
         21   -1    0    0  501  502 -0.00000000000E+00 -0.00000000000E+00 -0.44499581706E+02  0.44499581706E+02  0.00000000000E+00 0. -1.
         21    1    1    2  503  502  0.24509296073E+02  0.75917465792E+01 -0.39481377464E+02  0.47086297121E+02  0.00000000000E+00 0. -1.
         21    1    1    2  504  503 -0.24509296073E+02 -0.75917465792E+01  0.13416225995E+03  0.13659374878E+03  0.00000000000E+00 0.  1.
</event>
<event>
 4    1  0.1725802E+006  0.2002767E+02  0.7546771E-02  0.1533613E+00
         21   -1    0    0  504  501  0.00000000000E+00  0.00000000000E+00  0.69520992823E+01  0.69520992823E+01  0.00000000000E+00 0. -1.
         21   -1    0    0  503  502 -0.00000000000E+00 -0.00000000000E+00 -0.19598437188E+03  0.19598437188E+03  0.00000000000E+00 0.  1.
         21    1    1    2  503  501  0.50003729743E+01  0.19393392789E+02 -0.17975004880E+03  0.18086234395E+03  0.00000000000E+00 0.  1.
         21    1    1    2  504  502 -0.50003729743E+01 -0.19393392789E+02 -0.92822237966E+01  0.22074127216E+02  0.00000000000E+00 0. -1.
</event>
<event>
 4    1  0.1725802E+006  0.3526789E+02  0.7546771E-02  0.1378690E+00
         21   -1    0    0  504  501  0.00000000000E+00  0.00000000000E+00  0.36122590278E+03  0.36122590278E+03  0.00000000000E+00 0.  1.
         21   -1    0    0  501  502 -0.00000000000E+00 -0.00000000000E+00 -0.22020056673E+02  0.22020056673E+02  0.00000000000E+00 0. -1.
         21    1    1    2  503  502 -0.75359676595E+01 -0.34453350468E+02 -0.64011966102E+01  0.35844099725E+02  0.00000000000E+00 0. -1.
         21    1    1    2  504  503  0.75359676595E+01  0.34453350468E+02  0.34560704271E+03  0.34740185973E+03  0.00000000000E+00 0.  1.
</event>
<event>
 4    1  0.1725802E+006  0.3283486E+02  0.7546771E-02  0.1396459E+00
         21   -1    0    0  503  501  0.00000000000E+00  0.00000000000E+00  0.19332572850E+02  0.19332572850E+02  0.00000000000E+00 0. -1.
         21   -1    0    0  504  502 -0.00000000000E+00 -0.00000000000E+00 -0.11720841227E+03  0.11720841227E+03  0.00000000000E+00 0. -1.
         21    1    1    2  503  502 -0.14248781099E+02  0.29582091043E+02 -0.98367022262E+02  0.10370245389E+03  0.00000000000E+00 0. -1.
         21    1    1    2  504  501  0.14248781099E+02 -0.29582091043E+02  0.49118283895E+00  0.32838531238E+02  0.00000000000E+00 0. -1.
</event>
<event>
 4    1  0.1725802E+006  0.2177378E+02  0.7546771E-02  0.1508498E+00
         21   -1    0    0  503  501  0.00000000000E+00  0.00000000000E+00  0.90709329003E+01  0.90709329003E+01  0.00000000000E+00 0.  1.
         21   -1    0    0  504  502 -0.00000000000E+00 -0.00000000000E+00 -0.53397329269E+02  0.53397329269E+02  0.00000000000E+00 0. -1.
         21    1    1    2  503  502 -0.21755701703E+02  0.88702045751E+00 -0.17615944779E+02  0.28007478864E+02  0.00000000000E+00 0.  1.
         21    1    1    2  504  501  0.21755701703E+02 -0.88702045751E+00 -0.26710451590E+02  0.34460783306E+02  0.00000000000E+00 0. -1.
</event>
<event>
 4    1  0.1725802E+006  0.2300453E+02  0.7546771E-02  0.1492441E+00
         21   -1    0    0  502  501  0.00000000000E+00  0.00000000000E+00  0.47435519438E+02  0.47435519438E+02  0.00000000000E+00 0.  1.
         21   -1    0    0  503  502 -0.00000000000E+00 -0.00000000000E+00 -0.40613720932E+02  0.40613720932E+02  0.00000000000E+00 0.  1.
         21    1    1    2  503  504 -0.14550990997E+02  0.17817889227E+02 -0.34082604236E+02  0.41119732818E+02  0.00000000000E+00 0.  1.
         21    1    1    2  504  501  0.14550990997E+02 -0.17817889227E+02  0.40904402741E+02  0.46929507552E+02  0.00000000000E+00 0.  1.
</event>
<event>
 4    1  0.1725802E+006  0.2206365E+02  0.7546771E-02  0.1504603E+00
         21   -1    0    0  502  501  0.00000000000E+00  0.00000000000E+00  0.35393776336E+01  0.35393776336E+01  0.00000000000E+00 0.  1.
         21   -1    0    0  503  502 -0.00000000000E+00 -0.00000000000E+00 -0.16386743262E+03  0.16386743262E+03  0.00000000000E+00 0.  1.
         21    1    1    2  503  504 -0.21192078247E+02 -0.61400758057E+01 -0.11371491852E+03  0.11583560509E+03  0.00000000000E+00 0.  1.
         21    1    1    2  504  501  0.21192078247E+02  0.61400758057E+01 -0.46613136463E+02  0.51571205166E+02  0.00000000000E+00 0.  1.
</event>
<event>
 4    1  0.1725802E+006  0.2506922E+02  0.7546771E-02  0.1468031E+00
         21   -1    0    0  503  501  0.00000000000E+00  0.00000000000E+00  0.78719383101E+02  0.78719383101E+02  0.00000000000E+00 0.  1.
         21   -1    0    0  504  502 -0.00000000000E+00 -0.00000000000E+00 -0.46458061717E+02  0.46458061717E+02  0.00000000000E+00 0. -1.
         21    1    1    2  503  502  0.24617864351E+02 -0.47356546333E+01  0.73088263749E+02  0.77268104466E+02  0.00000000000E+00 0.  1.
         21    1    1    2  504  501 -0.24617864351E+02  0.47356546333E+01 -0.40826942365E+02  0.47909340351E+02  0.00000000000E+00 0. -1.
</event>
<event>
 4    1  0.1725802E+006  0.2576856E+02  0.7546771E-02  0.1460386E+00
         21   -1    0    0  503  501  0.00000000000E+00  0.00000000000E+00  0.37187519230E+02  0.37187519230E+02  0.00000000000E+00 0.  1.
         21   -1    0    0  504  502 -0.00000000000E+00 -0.00000000000E+00 -0.14989591785E+03  0.14989591785E+03  0.00000000000E+00 0.  1.
         21    1    1    2  503  502 -0.25675995269E+02  0.21821832439E+01  0.31439457525E+02  0.40650438450E+02  0.00000000000E+00 0.  1.
         21    1    1    2  504  501  0.25675995269E+02 -0.21821832439E+01 -0.14414785615E+03  0.14643299863E+03  0.00000000000E+00 0.  1.
</event>
<event>
 4    1  0.1725802E+006  0.3192442E+02  0.7546771E-02  0.1403579E+00
         21   -1    0    0  504  501  0.00000000000E+00  0.00000000000E+00  0.66650612126E+03  0.66650612126E+03  0.00000000000E+00 0. -1.
         21   -1    0    0  503  502 -0.00000000000E+00 -0.00000000000E+00 -0.11534870972E+02  0.11534870972E+02  0.00000000000E+00 0.  1.
         21    1    1    2  503  501 -0.31764674313E+02 -0.31896594086E+01  0.64323638857E+03  0.64402812054E+03  0.00000000000E+00 0. -1.
         21    1    1    2  504  502  0.31764674313E+02  0.31896594086E+01  0.11734861717E+02  0.34012871694E+02  0.00000000000E+00 0.  1.
</event>
<event>
 4    1  0.1725802E+006  0.2350967E+02  0.7546771E-02  0.1486196E+00
         21   -1    0    0  504  501  0.00000000000E+00  0.00000000000E+00  0.74021079891E+02  0.74021079891E+02  0.00000000000E+00 0. -1.
         21   -1    0    0  503  502 -0.00000000000E+00 -0.00000000000E+00 -0.80942668328E+01  0.80942668328E+01  0.00000000000E+00 0. -1.
         21    1    1    2  503  501  0.23503684511E+02 -0.53026238389E+00  0.21532429199E+02  0.31880242643E+02  0.00000000000E+00 0. -1.
         21    1    1    2  504  502 -0.23503684511E+02  0.53026238389E+00  0.44394383858E+02  0.50235104080E+02  0.00000000000E+00 0. -1.
</event>
<event>
 4    1  0.1725802E+006  0.2825272E+02  0.7546771E-02  0.1435414E+00
         21   -1    0    0  504  501  0.00000000000E+00  0.00000000000E+00  0.10806217906E+02  0.10806217906E+02  0.00000000000E+00 0. -1.
         21   -1    0    0  503  502 -0.00000000000E+00 -0.00000000000E+00 -0.15268543573E+03  0.15268543573E+03  0.00000000000E+00 0. -1.
         21    1    1    2  503  501  0.26570589191E+02  0.96031293368E+01 -0.12206583626E+02  0.30776890468E+02  0.00000000000E+00 0. -1.
         21    1    1    2  504  502 -0.26570589191E+02 -0.96031293368E+01 -0.12967263419E+03  0.13271476316E+03  0.00000000000E+00 0. -1.
</event>
<event>
 4    1  0.1725802E+006  0.2858156E+02  0.7546771E-02  0.1432337E+00
         21   -1    0    0  502  501  0.00000000000E+00  0.00000000000E+00  0.20776371181E+02  0.20776371181E+02  0.00000000000E+00 0.  1.
         21   -1    0    0  504  502 -0.00000000000E+00 -0.00000000000E+00 -0.54259861985E+02  0.54259861985E+02  0.00000000000E+00 0.  1.
         21    1    1    2  503  501  0.19694940910E+02  0.20712674244E+02  0.29457246097E+01  0.28732957823E+02  0.00000000000E+00 0.  1.
         21    1    1    2  504  503 -0.19694940910E+02 -0.20712674244E+02 -0.36429215414E+02  0.46303275343E+02  0.00000000000E+00 0.  1.
</event>
<event>
 4    1  0.1725802E+006  0.2855884E+02  0.7546771E-02  0.1432548E+00
         21   -1    0    0  504  501  0.00000000000E+00  0.00000000000E+00  0.41642220481E+02  0.41642220481E+02  0.00000000000E+00 0. -1.
         21   -1    0    0  503  502 -0.00000000000E+00 -0.00000000000E+00 -0.20524965011E+02  0.20524965011E+02  0.00000000000E+00 0. -1.
         21    1    1    2  503  501  0.26394618697E+02  0.10905564207E+02  0.39104943141E+01  0.28825322073E+02  0.00000000000E+00 0. -1.
         21    1    1    2  504  502 -0.26394618697E+02 -0.10905564207E+02  0.17206761155E+02  0.33341863419E+02  0.00000000000E+00 0. -1.
</event>
<event>
 4    1  0.1725802E+006  0.2021935E+02  0.7546771E-02  0.1530709E+00
         21   -1    0    0  504  501  0.00000000000E+00  0.00000000000E+00  0.11932683683E+04  0.11932683683E+04  0.00000000000E+00 0. -1.
         21   -1    0    0  503  502 -0.00000000000E+00 -0.00000000000E+00 -0.22995300127E+01  0.22995300127E+01  0.00000000000E+00 0. -1.
         21    1    1    2  503  501 -0.19712655628E+02  0.44981521829E+01  0.44027522497E+02  0.48448373576E+02  0.00000000000E+00 0. -1.
         21    1    1    2  504  502  0.19712655628E+02 -0.44981521829E+01  0.11469413158E+04  0.11471195247E+04  0.00000000000E+00 0. -1.
</event>
<event>
 4    1  0.1725802E+006  0.2035870E+02  0.7546771E-02  0.1528621E+00
         21   -1    0    0  503  501  0.00000000000E+00  0.00000000000E+00  0.45334919505E+02  0.45334919505E+02  0.00000000000E+00 0. -1.
         21   -1    0    0  504  502 -0.00000000000E+00 -0.00000000000E+00 -0.24501176425E+02  0.24501176425E+02  0.00000000000E+00 0. -1.
         21    1    1    2  503  502  0.14129115738E+02  0.14657578384E+02  0.38062900316E+02  0.43165505859E+02  0.00000000000E+00 0. -1.
         21    1    1    2  504  501 -0.14129115738E+02 -0.14657578384E+02 -0.17229157236E+02  0.26670590070E+02  0.00000000000E+00 0. -1.
</event>
<event>
 4    1  0.1725802E+006  0.2070829E+02  0.7546771E-02  0.1523471E+00
         21   -1    0    0  502  501  0.00000000000E+00  0.00000000000E+00  0.85058949340E+02  0.85058949340E+02  0.00000000000E+00 0.  1.
         21   -1    0    0  503  502 -0.00000000000E+00 -0.00000000000E+00 -0.95466501907E+03  0.95466501907E+03  0.00000000000E+00 0.  1.
         21    1    1    2  503  504  0.17453977157E+02 -0.11144150432E+02 -0.95329050190E+03  0.95351539810E+03  0.00000000000E+00 0.  1.
         21    1    1    2  504  501 -0.17453977157E+02  0.11144150432E+02  0.83684432168E+02  0.86208570309E+02  0.00000000000E+00 0.  1.
</event>
<event>
 4    1  0.1725802E+006  0.2125748E+02  0.7546771E-02  0.1515620E+00
         21   -1    0    0  504  501  0.00000000000E+00  0.00000000000E+00  0.20018200815E+03  0.20018200815E+03  0.00000000000E+00 0. -1.
         21   -1    0    0  501  502 -0.00000000000E+00 -0.00000000000E+00 -0.68466763843E+02  0.68466763843E+02  0.00000000000E+00 0. -1.
         21    1    1    2  503  502 -0.18912465695E+02  0.97056180338E+01 -0.66233869015E+02  0.69561525176E+02  0.00000000000E+00 0. -1.
         21    1    1    2  504  503  0.18912465695E+02 -0.97056180338E+01  0.19794911332E+03  0.19908724681E+03  0.00000000000E+00 0. -1.
</event>
<event>
 4    1  0.1725802E+006  0.2891339E+02  0.7546771E-02  0.1429280E+00
         21   -1    0    0  502  501  0.00000000000E+00  0.00000000000E+00  0.48562564019E+01  0.48562564019E+01  0.00000000000E+00 0. -1.
         21   -1    0    0  503  502 -0.00000000000E+00 -0.00000000000E+00 -0.59885138619E+03  0.59885138619E+03  0.00000000000E+00 0. -1.
         21    1    1    2  503  504 -0.79790433821E+01 -0.27790631779E+02 -0.55179866065E+03  0.55255564991E+03  0.00000000000E+00 0. -1.
         21    1    1    2  504  501  0.79790433821E+01  0.27790631779E+02 -0.42196469136E+02  0.51151992684E+02  0.00000000000E+00 0. -1.
</event>
<event>
 4    1  0.1725802E+006  0.2619006E+02  0.7546771E-02  0.1455918E+00
         21   -1    0    0  502  501  0.00000000000E+00  0.00000000000E+00  0.15975776317E+03  0.15975776317E+03  0.00000000000E+00 0.  1.
         21   -1    0    0  503  502 -0.00000000000E+00 -0.00000000000E+00 -0.45428774739E+01  0.45428774739E+01  0.00000000000E+00 0.  1.
         21    1    1    2  503  504  0.16030881027E+01 -0.26140951992E+02  0.58359862515E+02  0.63967122925E+02  0.00000000000E+00 0.  1.
         21    1    1    2  504  501 -0.16030881027E+01  0.26140951992E+02  0.96855023185E+02  0.10033351772E+03  0.00000000000E+00 0.  1.
</event>
<event>
 4    1  0.1725802E+006  0.3144023E+02  0.7546771E-02  0.1407480E+00
         21   -1    0    0  504  501  0.00000000000E+00  0.00000000000E+00  0.21697629267E+03  0.21697629267E+03  0.00000000000E+00 0. -1.
         21   -1    0    0  503  502 -0.00000000000E+00 -0.00000000000E+00 -0.35485133459E+02  0.35485133459E+02  0.00000000000E+00 0. -1.
         21    1    1    2  503  501 -0.49146794507E+01 -0.31053732476E+02 -0.27103851353E+02  0.41510325618E+02  0.00000000000E+00 0. -1.
         21    1    1    2  504  502  0.49146794507E+01  0.31053732476E+02  0.20859501057E+03  0.21095110051E+03  0.00000000000E+00 0. -1.
</event>
<event>
 4    1  0.1725802E+006  0.3110742E+02  0.7546771E-02  0.1410211E+00
         21   -1    0    0  504  501  0.00000000000E+00  0.00000000000E+00  0.82707962427E+01  0.82707962427E+01  0.00000000000E+00 0.  1.
         21   -1    0    0  503  502 -0.00000000000E+00 -0.00000000000E+00 -0.35294535674E+03  0.35294535674E+03  0.00000000000E+00 0. -1.
         21    1    1    2  503  501  0.18074933135E+02  0.25317348391E+02 -0.24667895958E+02  0.39701088504E+02  0.00000000000E+00 0.  1.
         21    1    1    2  504  502 -0.18074933135E+02 -0.25317348391E+02 -0.32000666454E+03  0.32151506448E+03  0.00000000000E+00 0. -1.
</event>
<event>
 4    1  0.1725802E+006  0.2013006E+02  0.7546771E-02  0.1532057E+00
         21   -1    0    0  503  501  0.00000000000E+00  0.00000000000E+00  0.16781450277E+03  0.16781450277E+03  0.00000000000E+00 0. -1.
         21   -1    0    0  504  502 -0.00000000000E+00 -0.00000000000E+00 -0.16983431627E+02  0.16983431627E+02  0.00000000000E+00 0. -1.
         21    1    1    2  503  502 -0.74339054910E+01 -0.18707123937E+02  0.16099419205E+03  0.16224780217E+03  0.00000000000E+00 0. -1.
         21    1    1    2  504  501  0.74339054910E+01  0.18707123937E+02 -0.10163120904E+02  0.22550132225E+02  0.00000000000E+00 0. -1.
</event>
<event>
 4    1  0.1725802E+006  0.2128057E+02  0.7546771E-02  0.1515297E+00
         21   -1    0    0  504  501  0.00000000000E+00  0.00000000000E+00  0.14606008372E+03  0.14606008372E+03  0.00000000000E+00 0. -1.
         21   -1    0    0  503  502 -0.00000000000E+00 -0.00000000000E+00 -0.33963402735E+01  0.33963402735E+01  0.00000000000E+00 0. -1.
         21    1    1    2  503  501  0.10530718921E+02  0.18492337937E+02  0.49277688018E+02  0.53676374130E+02  0.00000000000E+00 0. -1.
         21    1    1    2  504  502 -0.10530718921E+02 -0.18492337937E+02  0.93386055432E+02  0.95780049867E+02  0.00000000000E+00 0. -1.
</event>
<event>
 4    1  0.1725802E+006  0.2728147E+02  0.7546771E-02  0.1444801E+00
         21   -1    0    0  503  501  0.00000000000E+00  0.00000000000E+00  0.86989188542E+02  0.86989188542E+02  0.00000000000E+00 0. -1.
         21   -1    0    0  501  502 -0.00000000000E+00 -0.00000000000E+00 -0.87256637985E+01  0.87256637985E+01  0.00000000000E+00 0.  1.
         21    1    1    2  503  504 -0.25383213017E+02  0.99985415230E+01  0.32458137641E+02  0.42400578236E+02  0.00000000000E+00 0.  1.
         21    1    1    2  504  502  0.25383213017E+02 -0.99985415230E+01  0.45805387102E+02  0.53314274104E+02  0.00000000000E+00 0. -1.
</event>
<event>
 4    1  0.1725802E+006  0.3253005E+02  0.7546771E-02  0.1398812E+00
         21   -1    0    0  503  501  0.00000000000E+00  0.00000000000E+00  0.42395473543E+03  0.42395473543E+03  0.00000000000E+00 0. -1.
         21   -1    0    0  501  502 -0.00000000000E+00 -0.00000000000E+00 -0.64883379908E+01  0.64883379908E+01  0.00000000000E+00 0.  1.
         21    1    1    2  503  504 -0.27999644491E+02 -0.16559711319E+02  0.37755594631E+03  0.37895474232E+03  0.00000000000E+00 0. -1.
         21    1    1    2  504  502  0.27999644491E+02  0.16559711319E+02  0.39910451132E+02  0.51488331107E+02  0.00000000000E+00 0.  1.
</event>
<event>
 4    1  0.1725802E+006  0.2368709E+02  0.7546771E-02  0.1484046E+00
         21   -1    0    0  502  501  0.00000000000E+00  0.00000000000E+00  0.12269718785E+03  0.12269718785E+03  0.00000000000E+00 0. -1.
         21   -1    0    0  504  502 -0.00000000000E+00 -0.00000000000E+00 -0.10323209220E+02  0.10323209220E+02  0.00000000000E+00 0.  1.
         21    1    1    2  503  501 -0.22511106840E+02  0.73707833831E+01  0.10582651060E+03  0.10844504933E+03  0.00000000000E+00 0. -1.
         21    1    1    2  504  503  0.22511106840E+02 -0.73707833831E+01  0.65474680282E+01  0.24575347737E+02  0.00000000000E+00 0.  1.
</event>
<event>
 4    1  0.1725802E+006  0.6156515E+02  0.7546771E-02  0.1254605E+00
         21   -1    0    0  504  501  0.00000000000E+00  0.00000000000E+00  0.14581467939E+03  0.14581467939E+03  0.00000000000E+00 0. -1.
         21   -1    0    0  503  502 -0.00000000000E+00 -0.00000000000E+00 -0.66628467656E+02  0.66628467656E+02  0.00000000000E+00 0. -1.
         21    1    1    2  503  501  0.60320019339E+02  0.12319226126E+02 -0.43359784677E+02  0.75301653319E+02  0.00000000000E+00 0. -1.
         21    1    1    2  504  502 -0.60320019339E+02 -0.12319226126E+02  0.12254599641E+03  0.13714149373E+03  0.00000000000E+00 0. -1.
</event>
<event>
 4    1  0.1725802E+006  0.2024869E+02  0.7546771E-02  0.1530267E+00
         21   -1    0    0  503  501  0.00000000000E+00  0.00000000000E+00  0.28773988389E+01  0.28773988389E+01  0.00000000000E+00 0. -1.
         21   -1    0    0  504  502 -0.00000000000E+00 -0.00000000000E+00 -0.27134202331E+03  0.27134202331E+03  0.00000000000E+00 0. -1.
         21    1    1    2  503  502 -0.10051326023E+02  0.17577839981E+02 -0.39750110466E+02  0.44610322743E+02  0.00000000000E+00 0. -1.
         21    1    1    2  504  501  0.10051326023E+02 -0.17577839981E+02 -0.22871451401E+03  0.22960909941E+03  0.00000000000E+00 0. -1.
</event>
<event>
 4    1  0.1725802E+006  0.2022468E+02  0.7546771E-02  0.1530628E+00
         21   -1    0    0  502  501  0.00000000000E+00  0.00000000000E+00  0.19893782110E+03  0.19893782110E+03  0.00000000000E+00 0. -1.
         21   -1    0    0  503  502 -0.00000000000E+00 -0.00000000000E+00 -0.13588405756E+02  0.13588405756E+02  0.00000000000E+00 0. -1.
         21    1    1    2  503  504  0.11573420744E+02  0.16585949294E+02 -0.52193191970E+01  0.20887294573E+02  0.00000000000E+00 0. -1.
         21    1    1    2  504  501 -0.11573420744E+02 -0.16585949294E+02  0.19056873454E+03  0.19163893228E+03  0.00000000000E+00 0. -1.
</event>
<event>
 4    1  0.1725802E+006  0.4461454E+02  0.7546771E-02  0.1323378E+00
         21   -1    0    0  504  501  0.00000000000E+00  0.00000000000E+00  0.65456571994E+03  0.65456571994E+03  0.00000000000E+00 0. -1.
         21   -1    0    0  503  502 -0.00000000000E+00 -0.00000000000E+00 -0.33526466439E+01  0.33526466439E+01  0.00000000000E+00 0.  1.
         21    1    1    2  503  501 -0.39145837769E+02 -0.21402339898E+02  0.42592062354E+03  0.42825090113E+03  0.00000000000E+00 0. -1.
         21    1    1    2  504  502  0.39145837769E+02  0.21402339898E+02  0.22529244976E+03  0.22966746545E+03  0.00000000000E+00 0.  1.
</event>
<event>
 4    1  0.1725802E+006  0.2188570E+02  0.7546771E-02  0.1506985E+00
         21   -1    0    0  503  501  0.00000000000E+00  0.00000000000E+00  0.38741576465E+01  0.38741576465E+01  0.00000000000E+00 0. -1.
         21   -1    0    0  501  502 -0.00000000000E+00 -0.00000000000E+00 -0.46657529880E+03  0.46657529880E+03  0.00000000000E+00 0.  1.
         21    1    1    2  503  504  0.13599668480E+02 -0.17147389825E+02 -0.29685371408E+02  0.36880960349E+02  0.00000000000E+00 0. -1.
         21    1    1    2  504  502 -0.13599668480E+02  0.17147389825E+02 -0.43301576974E+03  0.43356849609E+03  0.00000000000E+00 0.  1.
</event>
<event>
 4    1  0.1725802E+006  0.2292693E+02  0.7546771E-02  0.1493418E+00
         21   -1    0    0  502  501  0.00000000000E+00  0.00000000000E+00  0.54468666205E+02  0.54468666205E+02  0.00000000000E+00 0. -1.
         21   -1    0    0  504  502 -0.00000000000E+00 -0.00000000000E+00 -0.29007277205E+03  0.29007277205E+03  0.00000000000E+00 0. -1.
         21    1    1    2  503  501 -0.18284716367E+01 -0.22853905886E+02  0.51578799692E+02  0.56444812874E+02  0.00000000000E+00 0. -1.
         21    1    1    2  504  503  0.18284716367E+01  0.22853905886E+02 -0.28718290553E+03  0.28809662538E+03  0.00000000000E+00 0. -1.
</event>
<event>
 4    1  0.1725802E+006  0.5448526E+02  0.7546771E-02  0.1279815E+00
         21   -1    0    0  504  501  0.00000000000E+00  0.00000000000E+00  0.16852377328E+01  0.16852377328E+01  0.00000000000E+00 0. -1.
         21   -1    0    0  503  502 -0.00000000000E+00 -0.00000000000E+00 -0.24587801326E+04  0.24587801326E+04  0.00000000000E+00 0.  1.
         21    1    1    2  503  501  0.48248710772E+02  0.25312161199E+02 -0.57343919139E+03  0.57602183102E+03  0.00000000000E+00 0. -1.
         21    1    1    2  504  502 -0.48248710772E+02 -0.25312161199E+02 -0.18836557035E+04  0.18844435393E+04  0.00000000000E+00 0.  1.
</event>
<event>
 4    1  0.1725802E+006  0.2340985E+02  0.7546771E-02  0.1487415E+00
         21   -1    0    0  502  501  0.00000000000E+00  0.00000000000E+00  0.61322141202E+01  0.61322141202E+01  0.00000000000E+00 0.  1.
         21   -1    0    0  503  502 -0.00000000000E+00 -0.00000000000E+00 -0.39351016622E+03  0.39351016622E+03  0.00000000000E+00 0.  1.
         21    1    1    2  503  504  0.22763838553E+02 -0.54615521925E+01 -0.36936083946E+03  0.37010194626E+03  0.00000000000E+00 0.  1.
         21    1    1    2  504  501 -0.22763838553E+02  0.54615521925E+01 -0.18017112647E+02  0.29540434088E+02  0.00000000000E+00 0.  1.
</event>
<event>
 4    1  0.1725802E+006  0.2006672E+02  0.7546771E-02  0.1533018E+00
         21   -1    0    0  504  501  0.00000000000E+00  0.00000000000E+00  0.45430416479E+02  0.45430416479E+02  0.00000000000E+00 0. -1.
         21   -1    0    0  503  502 -0.00000000000E+00 -0.00000000000E+00 -0.18341649637E+02  0.18341649637E+02  0.00000000000E+00 0.  1.
         21    1    1    2  503  501 -0.16700728978E+02 -0.11124691990E+02 -0.93771021410E+01  0.22149563536E+02  0.00000000000E+00 0.  1.
         21    1    1    2  504  502  0.16700728978E+02  0.11124691990E+02  0.36465868984E+02  0.41622502580E+02  0.00000000000E+00 0. -1.
</event>
<event>
 4    1  0.1725802E+006  0.2121117E+02  0.7546771E-02  0.1516271E+00
         21   -1    0    0  502  501  0.00000000000E+00  0.00000000000E+00  0.13121782875E+03  0.13121782875E+03  0.00000000000E+00 0.  1.
         21   -1    0    0  504  502 -0.00000000000E+00 -0.00000000000E+00 -0.61197003944E+02  0.61197003944E+02  0.00000000000E+00 0. -1.
         21    1    1    2  503  501 -0.53547632534E+01 -0.20524135261E+02  0.12848382060E+03  0.13022290802E+03  0.00000000000E+00 0.  1.
         21    1    1    2  504  503  0.53547632534E+01  0.20524135261E+02 -0.58462995792E+02  0.62191924674E+02  0.00000000000E+00 0. -1.
</event>
<event>
 4    1  0.1725802E+006  0.2532374E+02  0.7546771E-02  0.1465214E+00
         21   -1    0    0  503  501  0.00000000000E+00  0.00000000000E+00  0.11408609172E+02  0.11408609172E+02  0.00000000000E+00 0.  1.
         21   -1    0    0  504  502 -0.00000000000E+00 -0.00000000000E+00 -0.11104395428E+03  0.11104395428E+03  0.00000000000E+00 0. -1.
         21    1    1    2  503  502  0.81157471199E+01  0.23988048912E+02 -0.67937129624E+01  0.26219198648E+02  0.00000000000E+00 0.  1.
         21    1    1    2  504  501 -0.81157471199E+01 -0.23988048912E+02 -0.92841632142E+02  0.96233364800E+02  0.00000000000E+00 0. -1.
</event>
<event>
 4    1  0.1725802E+006  0.2104758E+02  0.7546771E-02  0.1518586E+00
         21   -1    0    0  503  501  0.00000000000E+00  0.00000000000E+00  0.11516602946E+03  0.11516602946E+03  0.00000000000E+00 0.  1.
         21   -1    0    0  501  502 -0.00000000000E+00 -0.00000000000E+00 -0.14517083999E+02  0.14517083999E+02  0.00000000000E+00 0.  1.
         21    1    1    2  503  504  0.18660383048E+02 -0.97360580933E+01  0.10591557103E+03  0.10798661449E+03  0.00000000000E+00 0.  1.
         21    1    1    2  504  502 -0.18660383048E+02  0.97360580933E+01 -0.52666255670E+01  0.21696498970E+02  0.00000000000E+00 0.  1.
</event>
<event>
 4    1  0.1725802E+006  0.2036863E+02  0.7546771E-02  0.1528473E+00
         21   -1    0    0  503  501  0.00000000000E+00  0.00000000000E+00  0.12489882086E+02  0.12489882086E+02  0.00000000000E+00 0. -1.
         21   -1    0    0  504  502 -0.00000000000E+00 -0.00000000000E+00 -0.48245052066E+02  0.48245052066E+02  0.00000000000E+00 0. -1.
         21    1    1    2  503  502  0.19650621373E+02 -0.53604215394E+01 -0.92920575924E+00  0.20389812720E+02  0.00000000000E+00 0. -1.
         21    1    1    2  504  501 -0.19650621373E+02  0.53604215394E+01 -0.34825964221E+02  0.40345121432E+02  0.00000000000E+00 0. -1.
</event>
<event>
 4    1  0.1725802E+006  0.2552289E+02  0.7546771E-02  0.1463038E+00
         21   -1    0    0  504  501  0.00000000000E+00  0.00000000000E+00  0.57692420541E+01  0.57692420541E+01  0.00000000000E+00 0. -1.
         21   -1    0    0  503  502 -0.00000000000E+00 -0.00000000000E+00 -0.24518406589E+03  0.24518406589E+03  0.00000000000E+00 0. -1.
         21    1    1    2  503  501  0.24145643414E+02 -0.82707728725E+01 -0.21186912888E+03  0.21340090336E+03  0.00000000000E+00 0. -1.
         21    1    1    2  504  502 -0.24145643414E+02  0.82707728725E+01 -0.27545694950E+02  0.37552404585E+02  0.00000000000E+00 0. -1.
</event>
<event>
 4    1  0.1725802E+006  0.2566263E+02  0.7546771E-02  0.1461525E+00
         21   -1    0    0  502  501  0.00000000000E+00  0.00000000000E+00  0.12352354532E+03  0.12352354532E+03  0.00000000000E+00 0. -1.
         21   -1    0    0  504  502 -0.00000000000E+00 -0.00000000000E+00 -0.67569605888E+02  0.67569605888E+02  0.00000000000E+00 0. -1.
         21    1    1    2  503  501  0.20459983802E+02 -0.15490622959E+02  0.11967657970E+03  0.12239711625E+03  0.00000000000E+00 0. -1.
         21    1    1    2  504  503 -0.20459983802E+02  0.15490622959E+02 -0.63722640268E+02  0.68696034962E+02  0.00000000000E+00 0. -1.
</event>
<event>
 4    1  0.1725802E+006  0.2387382E+02  0.7546771E-02  0.1481808E+00
         21   -1    0    0  503  501  0.00000000000E+00  0.00000000000E+00  0.10865067813E+03  0.10865067813E+03  0.00000000000E+00 0.  1.
         21   -1    0    0  504  502 -0.00000000000E+00 -0.00000000000E+00 -0.54508921520E+01  0.54508921520E+01  0.00000000000E+00 0.  1.
         21    1    1    2  503  502 -0.23870781326E+02 -0.38085255070E+00  0.62666309329E+02  0.67059865604E+02  0.00000000000E+00 0.  1.
         21    1    1    2  504  501  0.23870781326E+02  0.38085255070E+00  0.40533476645E+02  0.47041704675E+02  0.00000000000E+00 0.  1.
</event>
<event>
 4    1  0.1725802E+006  0.2046650E+02  0.7546771E-02  0.1527020E+00
         21   -1    0    0  504  501  0.00000000000E+00  0.00000000000E+00  0.12927605836E+02  0.12927605836E+02  0.00000000000E+00 0.  1.
         21   -1    0    0  503  502 -0.00000000000E+00 -0.00000000000E+00 -0.39617539009E+02  0.39617539009E+02  0.00000000000E+00 0.  1.
         21    1    1    2  503  501  0.19859506836E+02  0.49474920122E+01 -0.21325485353E+01  0.20577304299E+02  0.00000000000E+00 0.  1.
         21    1    1    2  504  502 -0.19859506836E+02 -0.49474920122E+01 -0.24557384637E+02  0.31967840546E+02  0.00000000000E+00 0.  1.
</event>
<event>
 4    1  0.1725802E+006  0.2596249E+02  0.7546771E-02  0.1458318E+00
         21   -1    0    0  503  501  0.00000000000E+00  0.00000000000E+00  0.15165229514E+03  0.15165229514E+03  0.00000000000E+00 0.  1.
         21   -1    0    0  501  502 -0.00000000000E+00 -0.00000000000E+00 -0.47790597592E+01  0.47790597592E+01  0.00000000000E+00 0.  1.
         21    1    1    2  503  504  0.20022435181E+02  0.16527337767E+02  0.94124768256E+02  0.97639760362E+02  0.00000000000E+00 0.  1.
         21    1    1    2  504  502 -0.20022435181E+02 -0.16527337767E+02  0.52748467125E+02  0.58791594538E+02  0.00000000000E+00 0.  1.
</event>
<event>
 4    1  0.1725802E+006  0.2532225E+02  0.7546771E-02  0.1465230E+00
         21   -1    0    0  504  501  0.00000000000E+00  0.00000000000E+00  0.50419052551E+03  0.50419052551E+03  0.00000000000E+00 0.  1.
         21   -1    0    0  503  502 -0.00000000000E+00 -0.00000000000E+00 -0.42130129324E+02  0.42130129324E+02  0.00000000000E+00 0. -1.
         21    1    1    2  503  501 -0.25175813625E+02  0.27193014907E+01  0.50003601499E+03  0.50067677446E+03  0.00000000000E+00 0.  1.
         21    1    1    2  504  502  0.25175813625E+02 -0.27193014907E+01 -0.37975618805E+02  0.45643880378E+02  0.00000000000E+00 0. -1.
</event>
<event>
 4    1  0.1725802E+006  0.2784103E+02  0.7546771E-02  0.1439338E+00
         21   -1    0    0  503  501  0.00000000000E+00  0.00000000000E+00  0.56941441525E+02  0.56941441525E+02  0.00000000000E+00 0.  1.
         21   -1    0    0  504  502 -0.00000000000E+00 -0.00000000000E+00 -0.29100886455E+02  0.29100886455E+02  0.00000000000E+00 0. -1.
         21    1    1    2  503  502  0.27758814146E+02  0.21380529572E+01 -0.17465309013E+02  0.32865788476E+02  0.00000000000E+00 0. -1.
         21    1    1    2  504  501 -0.27758814146E+02 -0.21380529572E+01  0.45305864084E+02  0.53176539504E+02  0.00000000000E+00 0.  1.
</event>
<event>
 4    1  0.1725802E+006  0.2038000E+02  0.7546771E-02  0.1528304E+00
         21   -1    0    0  504  501  0.00000000000E+00  0.00000000000E+00  0.13767560498E+02  0.13767560498E+02  0.00000000000E+00 0.  1.
         21   -1    0    0  503  502 -0.00000000000E+00 -0.00000000000E+00 -0.59840886077E+02  0.59840886077E+02  0.00000000000E+00 0. -1.
         21    1    1    2  503  501 -0.96556633404E+01 -0.17947497855E+02 -0.48953143063E+02  0.53025981646E+02  0.00000000000E+00 0. -1.
         21    1    1    2  504  502  0.96556633404E+01  0.17947497855E+02  0.28798174835E+01  0.20582464929E+02  0.00000000000E+00 0.  1.
</event>
<event>
 4    1  0.1725802E+006  0.2212428E+02  0.7546771E-02  0.1503797E+00
         21   -1    0    0  502  501  0.00000000000E+00  0.00000000000E+00  0.91974309855E+00  0.91974309855E+00  0.00000000000E+00 0.  1.
         21   -1    0    0  504  502 -0.00000000000E+00 -0.00000000000E+00 -0.13632943293E+04  0.13632943293E+04  0.00000000000E+00 0.  1.
         21    1    1    2  503  501  0.20001399204E+02 -0.94566285738E+01 -0.14860850596E+03  0.15024637046E+03  0.00000000000E+00 0.  1.
         21    1    1    2  504  503 -0.20001399204E+02  0.94566285738E+01 -0.12137660803E+04  0.12139677020E+04  0.00000000000E+00 0.  1.
</event>
<event>
 4    1  0.1725802E+006  0.3347440E+02  0.7546771E-02  0.1391618E+00
         21   -1    0    0  503  501  0.00000000000E+00  0.00000000000E+00  0.49555507450E+02  0.49555507450E+02  0.00000000000E+00 0.  1.
         21   -1    0    0  504  502 -0.00000000000E+00 -0.00000000000E+00 -0.24500908045E+02  0.24500908045E+02  0.00000000000E+00 0.  1.
         21    1    1    2  503  502  0.33116283519E+02  0.48833545822E+01  0.22809330512E+02  0.40506801213E+02  0.00000000000E+00 0.  1.
         21    1    1    2  504  501 -0.33116283519E+02 -0.48833545822E+01  0.22452688932E+01  0.33549614282E+02  0.00000000000E+00 0.  1.
</event>
<event>
 4    1  0.1725802E+006  0.2066107E+02  0.7546771E-02  0.1524159E+00
         21   -1    0    0  504  501  0.00000000000E+00  0.00000000000E+00  0.45482823594E+03  0.45482823594E+03  0.00000000000E+00 0. -1.
         21   -1    0    0  503  502 -0.00000000000E+00 -0.00000000000E+00 -0.13132892966E+01  0.13132892966E+01  0.00000000000E+00 0. -1.
         21    1    1    2  503  501 -0.23992027603E+00 -0.20659676956E+02  0.10492780933E+03  0.10694262473E+03  0.00000000000E+00 0. -1.
         21    1    1    2  504  502  0.23992027603E+00  0.20659676956E+02  0.34858713731E+03  0.34919890050E+03  0.00000000000E+00 0. -1.
</event>
<event>
 4    1  0.1725802E+006  0.3528425E+02  0.7546771E-02  0.1378576E+00
         21   -1    0    0  503  501  0.00000000000E+00  0.00000000000E+00  0.15218637574E+04  0.15218637574E+04  0.00000000000E+00 0.  1.
         21   -1    0    0  501  502 -0.00000000000E+00 -0.00000000000E+00 -0.40013718622E+02  0.40013718622E+02  0.00000000000E+00 0. -1.
         21    1    1    2  503  504 -0.22070841019E+02 -0.27529191753E+02  0.15138395701E+04  0.15142507132E+04  0.00000000000E+00 0.  1.
         21    1    1    2  504  502  0.22070841019E+02  0.27529191753E+02 -0.31989531327E+02  0.47626762817E+02  0.00000000000E+00 0. -1.
</event>
<event>
 4    1  0.1725802E+006  0.3032211E+02  0.7546771E-02  0.1416817E+00
         21   -1    0    0  504  501  0.00000000000E+00  0.00000000000E+00  0.16171967691E+02  0.16171967691E+02  0.00000000000E+00 0. -1.
         21   -1    0    0  503  502 -0.00000000000E+00 -0.00000000000E+00 -0.28449126621E+03  0.28449126621E+03  0.00000000000E+00 0.  1.
         21    1    1    2  503  501  0.13085765972E+02 -0.27353119491E+02 -0.26863360099E+03  0.27033949397E+03  0.00000000000E+00 0.  1.
         21    1    1    2  504  502 -0.13085765972E+02  0.27353119491E+02  0.31430248052E+00  0.30323739925E+02  0.00000000000E+00 0. -1.
</event>
<event>
 4    1  0.1725802E+006  0.2307386E+02  0.7546771E-02  0.1491573E+00
         21   -1    0    0  504  501  0.00000000000E+00  0.00000000000E+00  0.53876542434E+01  0.53876542434E+01  0.00000000000E+00 0. -1.
         21   -1    0    0  503  502 -0.00000000000E+00 -0.00000000000E+00 -0.10310380788E+03  0.10310380788E+03  0.00000000000E+00 0. -1.
         21    1    1    2  503  501  0.18855856531E+02 -0.13298857731E+02 -0.37799717085E+02  0.44285681142E+02  0.00000000000E+00 0. -1.
         21    1    1    2  504  502 -0.18855856531E+02  0.13298857731E+02 -0.59916436551E+02  0.64205780982E+02  0.00000000000E+00 0. -1.
</event>
<event>
 4    1  0.1725802E+006  0.4279583E+02  0.7546771E-02  0.1332838E+00
         21   -1    0    0  502  501  0.00000000000E+00  0.00000000000E+00  0.21050278873E+01  0.21050278873E+01  0.00000000000E+00 0.  1.
         21   -1    0    0  504  502 -0.00000000000E+00 -0.00000000000E+00 -0.11573119840E+04  0.11573119840E+04  0.00000000000E+00 0. -1.
         21    1    1    2  503  501 -0.27703577321E+02  0.32618937949E+02 -0.28878687062E+03  0.29194064457E+03  0.00000000000E+00 0.  1.
         21    1    1    2  504  503  0.27703577321E+02 -0.32618937949E+02 -0.86642008552E+03  0.86747636735E+03  0.00000000000E+00 0. -1.
</event>
<event>
 4    1  0.1725802E+006  0.2713055E+02  0.7546771E-02  0.1446301E+00
         21   -1    0    0  504  501  0.00000000000E+00  0.00000000000E+00  0.20848729142E+01  0.20848729142E+01  0.00000000000E+00 0. -1.
         21   -1    0    0  503  502 -0.00000000000E+00 -0.00000000000E+00 -0.37773092581E+03  0.37773092581E+03  0.00000000000E+00 0. -1.
         21    1    1    2  503  501  0.26714004582E+02 -0.47359223032E+01 -0.23636544731E+03  0.23791740517E+03  0.00000000000E+00 0. -1.
         21    1    1    2  504  502 -0.26714004582E+02  0.47359223032E+01 -0.13928060559E+03  0.14189839355E+03  0.00000000000E+00 0. -1.
</event>
<event>
 4    1  0.1725802E+006  0.2048554E+02  0.7546771E-02  0.1526738E+00
         21   -1    0    0  503  501  0.00000000000E+00  0.00000000000E+00  0.93755945284E+02  0.93755945284E+02  0.00000000000E+00 0. -1.
         21   -1    0    0  504  502 -0.00000000000E+00 -0.00000000000E+00 -0.18404245752E+03  0.18404245752E+03  0.00000000000E+00 0.  1.
         21    1    1    2  503  502  0.16920206786E+02 -0.11548334034E+02  0.92056477925E+02  0.94308284602E+02  0.00000000000E+00 0. -1.
         21    1    1    2  504  501 -0.16920206786E+02  0.11548334034E+02 -0.18234299016E+03  0.18349011820E+03  0.00000000000E+00 0.  1.
</event>
<event>
 4    1  0.1725802E+006  0.2102152E+02  0.7546771E-02  0.1518958E+00
         21   -1    0    0  503  501  0.00000000000E+00  0.00000000000E+00  0.13135375166E+02  0.13135375166E+02  0.00000000000E+00 0. -1.
         21   -1    0    0  504  502 -0.00000000000E+00 -0.00000000000E+00 -0.10351181578E+03  0.10351181578E+03  0.00000000000E+00 0.  1.
         21    1    1    2  503  502 -0.15324778464E+02  0.14389415868E+02 -0.93105617297E+02  0.95449254037E+02  0.00000000000E+00 0.  1.
         21    1    1    2  504  501  0.15324778464E+02 -0.14389415868E+02  0.27291766790E+01  0.21197936912E+02  0.00000000000E+00 0. -1.
</event>
<event>
 4    1  0.1725802E+006  0.2538467E+02  0.7546771E-02  0.1464546E+00
         21   -1    0    0  504  501  0.00000000000E+00  0.00000000000E+00  0.42587013396E+01  0.42587013396E+01  0.00000000000E+00 0.  1.
         21   -1    0    0  503  502 -0.00000000000E+00 -0.00000000000E+00 -0.15195401614E+03  0.15195401614E+03  0.00000000000E+00 0.  1.
         21    1    1    2  503  501  0.10614159483E+02 -0.23059077799E+02 -0.78934968784E+02  0.82916287588E+02  0.00000000000E+00 0.  1.
         21    1    1    2  504  502 -0.10614159483E+02  0.23059077799E+02 -0.68760346013E+02  0.73296429888E+02  0.00000000000E+00 0.  1.
</event>
<event>
 4    1  0.1725802E+006  0.4409889E+02  0.7546771E-02  0.1326007E+00
         21   -1    0    0  502  501  0.00000000000E+00  0.00000000000E+00  0.17342865118E+02  0.17342865118E+02  0.00000000000E+00 0. -1.
         21   -1    0    0  503  502 -0.00000000000E+00 -0.00000000000E+00 -0.18231527360E+03  0.18231527360E+03  0.00000000000E+00 0. -1.
         21    1    1    2  503  504 -0.28705042639E+02 -0.33477350516E+02 -0.14442436781E+03  0.15100698821E+03  0.00000000000E+00 0. -1.
         21    1    1    2  504  501  0.28705042639E+02  0.33477350516E+02 -0.20548040672E+02  0.48651150510E+02  0.00000000000E+00 0. -1.
</event>
<event>
 4    1  0.1725802E+006  0.2251523E+02  0.7546771E-02  0.1498677E+00
         21   -1    0    0  502  501  0.00000000000E+00  0.00000000000E+00  0.94559444963E+02  0.94559444963E+02  0.00000000000E+00 0.  1.
         21   -1    0    0  503  502 -0.00000000000E+00 -0.00000000000E+00 -0.19585622645E+02  0.19585622645E+02  0.00000000000E+00 0.  1.
         21    1    1    2  503  504  0.22487175423E+02  0.11235268541E+01 -0.11151399992E+02  0.25125467019E+02  0.00000000000E+00 0.  1.
         21    1    1    2  504  501 -0.22487175423E+02 -0.11235268541E+01  0.86125222311E+02  0.89019600590E+02  0.00000000000E+00 0.  1.
</event>
<event>
 4    1  0.1725802E+006  0.2603276E+02  0.7546771E-02  0.1457574E+00
         21   -1    0    0  503  501  0.00000000000E+00  0.00000000000E+00  0.10720945402E+02  0.10720945402E+02  0.00000000000E+00 0. -1.
         21   -1    0    0  504  502 -0.00000000000E+00 -0.00000000000E+00 -0.20999274872E+03  0.20999274872E+03  0.00000000000E+00 0.  1.
         21    1    1    2  503  502  0.96492495096E+01  0.24178435703E+02 -0.73723906139E+01  0.27056550270E+02  0.00000000000E+00 0. -1.
         21    1    1    2  504  501 -0.96492495096E+01 -0.24178435703E+02 -0.19189941270E+03  0.19365714385E+03  0.00000000000E+00 0.  1.
</event>
<event>
 4    1  0.1725802E+006  0.2339534E+02  0.7546771E-02  0.1487593E+00
         21   -1    0    0  502  501  0.00000000000E+00  0.00000000000E+00  0.26423755216E+03  0.26423755216E+03  0.00000000000E+00 0. -1.
         21   -1    0    0  504  502 -0.00000000000E+00 -0.00000000000E+00 -0.21674218124E+02  0.21674218124E+02  0.00000000000E+00 0. -1.
         21    1    1    2  503  501  0.78243727951E+01 -0.22048155537E+02  0.25723490684E+03  0.25829661103E+03  0.00000000000E+00 0. -1.
         21    1    1    2  504  503 -0.78243727951E+01  0.22048155537E+02 -0.14671572803E+02  0.27615159256E+02  0.00000000000E+00 0. -1.
</event>
<event>
 4    1  0.1725802E+006  0.2150530E+02  0.7546771E-02  0.1512171E+00
         21   -1    0    0  504  501  0.00000000000E+00  0.00000000000E+00  0.23411616450E+02  0.23411616450E+02  0.00000000000E+00 0.  1.
         21   -1    0    0  501  502 -0.00000000000E+00 -0.00000000000E+00 -0.33708553587E+03  0.33708553587E+03  0.00000000000E+00 0.  1.
         21    1    1    2  503  502 -0.10754092853E+02  0.18623298092E+02 -0.33172425619E+03  0.33242060690E+03  0.00000000000E+00 0.  1.
         21    1    1    2  504  503  0.10754092853E+02 -0.18623298092E+02  0.18050336775E+02  0.28076545418E+02  0.00000000000E+00 0.  1.
</event>
<event>
 4    1  0.1725802E+006  0.3315040E+02  0.7546771E-02  0.1394054E+00
         21   -1    0    0  503  501  0.00000000000E+00  0.00000000000E+00  0.15210806339E+02  0.15210806339E+02  0.00000000000E+00 0. -1.
         21   -1    0    0  504  502 -0.00000000000E+00 -0.00000000000E+00 -0.12346815227E+03  0.12346815227E+03  0.00000000000E+00 0. -1.
         21    1    1    2  503  502 -0.28522521781E+02  0.16894218171E+02 -0.98789210585E+02  0.10420296054E+03  0.00000000000E+00 0. -1.
         21    1    1    2  504  501  0.28522521781E+02 -0.16894218171E+02 -0.94681353484E+01  0.34475998076E+02  0.00000000000E+00 0. -1.
</event>
<event>
 4    1  0.1725802E+006  0.2241251E+02  0.7546771E-02  0.1500010E+00
         21   -1    0    0  503  501  0.00000000000E+00  0.00000000000E+00  0.32432146582E+03  0.32432146582E+03  0.00000000000E+00 0.  1.
         21   -1    0    0  504  502 -0.00000000000E+00 -0.00000000000E+00 -0.13419977157E+02  0.13419977157E+02  0.00000000000E+00 0.  1.
         21    1    1    2  503  502 -0.21831028207E+02 -0.50721808653E+01  0.31427787947E+03  0.31507603263E+03  0.00000000000E+00 0.  1.
         21    1    1    2  504  501  0.21831028207E+02  0.50721808653E+01 -0.33763908116E+01  0.22665410347E+02  0.00000000000E+00 0.  1.
</event>
<event>
 4    1  0.1725802E+006  0.2036719E+02  0.7546771E-02  0.1528495E+00
         21   -1    0    0  504  501  0.00000000000E+00  0.00000000000E+00  0.50394598163E+03  0.50394598163E+03  0.00000000000E+00 0. -1.
         21   -1    0    0  501  502 -0.00000000000E+00 -0.00000000000E+00 -0.92946664359E+00  0.92946664359E+00  0.00000000000E+00 0. -1.
         21    1    1    2  503  502  0.20302631490E+02 -0.16203737197E+01  0.16613128904E+03  0.16737511062E+03  0.00000000000E+00 0. -1.
         21    1    1    2  504  503 -0.20302631490E+02  0.16203737197E+01  0.33688522594E+03  0.33750033765E+03  0.00000000000E+00 0. -1.
</event>
<event>
 4    1  0.1725802E+006  0.2025318E+02  0.7546771E-02  0.1530200E+00
         21   -1    0    0  504  501  0.00000000000E+00  0.00000000000E+00  0.22051695779E+01  0.22051695779E+01  0.00000000000E+00 0. -1.
         21   -1    0    0  503  502 -0.00000000000E+00 -0.00000000000E+00 -0.24233036344E+03  0.24233036344E+03  0.00000000000E+00 0. -1.
         21    1    1    2  503  501 -0.19215588417E+02 -0.63994040186E+01 -0.17900494986E+03  0.18014706016E+03  0.00000000000E+00 0. -1.
         21    1    1    2  504  502  0.19215588417E+02  0.63994040186E+01 -0.61120243995E+02  0.64388472851E+02  0.00000000000E+00 0. -1.
</event>
<event>
 4    1  0.1725802E+006  0.2381314E+02  0.7546771E-02  0.1482532E+00
         21   -1    0    0  502  501  0.00000000000E+00  0.00000000000E+00  0.24702017785E+02  0.24702017785E+02  0.00000000000E+00 0. -1.
         21   -1    0    0  503  502 -0.00000000000E+00 -0.00000000000E+00 -0.11408511885E+03  0.11408511885E+03  0.00000000000E+00 0. -1.
         21    1    1    2  503  504  0.18192415538E+01  0.23743550976E+02 -0.10671168381E+03  0.10933640434E+03  0.00000000000E+00 0. -1.
         21    1    1    2  504  501 -0.18192415538E+01 -0.23743550976E+02  0.17328582744E+02  0.29450732295E+02  0.00000000000E+00 0. -1.
</event>
<event>
 4    1  0.1725802E+006  0.2140430E+02  0.7546771E-02  0.1513570E+00
         21   -1    0    0  502  501  0.00000000000E+00  0.00000000000E+00  0.28211210725E+03  0.28211210725E+03  0.00000000000E+00 0.  1.
         21   -1    0    0  503  502 -0.00000000000E+00 -0.00000000000E+00 -0.80840746459E+01  0.80840746459E+01  0.00000000000E+00 0. -1.
         21    1    1    2  503  504 -0.14104994188E+02  0.16099481144E+02  0.73062402508E+01  0.22616925095E+02  0.00000000000E+00 0. -1.
         21    1    1    2  504  501  0.14104994188E+02 -0.16099481144E+02  0.26672179235E+03  0.26757925680E+03  0.00000000000E+00 0.  1.
</event>
<event>
 4    1  0.1725802E+006  0.2580870E+02  0.7546771E-02  0.1459956E+00
         21   -1    0    0  504  501  0.00000000000E+00  0.00000000000E+00  0.67857056033E+01  0.67857056033E+01  0.00000000000E+00 0. -1.
         21   -1    0    0  503  502 -0.00000000000E+00 -0.00000000000E+00 -0.31262128238E+03  0.31262128238E+03  0.00000000000E+00 0. -1.
         21    1    1    2  503  501 -0.13553965821E+02  0.21963127120E+02 -0.28519315931E+03  0.28635856379E+03  0.00000000000E+00 0. -1.
         21    1    1    2  504  502  0.13553965821E+02 -0.21963127120E+02 -0.20642417466E+02  0.33048424186E+02  0.00000000000E+00 0. -1.
</event>
<event>
 4    1  0.1725802E+006  0.2043967E+02  0.7546771E-02  0.1527417E+00
         21   -1    0    0  504  501  0.00000000000E+00  0.00000000000E+00  0.78000435738E+02  0.78000435738E+02  0.00000000000E+00 0.  1.
         21   -1    0    0  503  502 -0.00000000000E+00 -0.00000000000E+00 -0.79753065916E+01  0.79753065916E+01  0.00000000000E+00 0. -1.
         21    1    1    2  503  501 -0.20436353363E+02  0.36842443779E+00  0.59647693882E+02  0.63052578542E+02  0.00000000000E+00 0.  1.
         21    1    1    2  504  502  0.20436353363E+02 -0.36842443779E+00  0.10377435264E+02  0.22923163787E+02  0.00000000000E+00 0. -1.
</event>
<event>
 4    1  0.1725802E+006  0.2396364E+02  0.7546771E-02  0.1480740E+00
         21   -1    0    0  503  501  0.00000000000E+00  0.00000000000E+00  0.14366123243E+04  0.14366123243E+04  0.00000000000E+00 0.  1.
         21   -1    0    0  504  502 -0.00000000000E+00 -0.00000000000E+00 -0.18322886932E+02  0.18322886932E+02  0.00000000000E+00 0.  1.
         21    1    1    2  503  502  0.22986873973E+02 -0.67719802613E+01  0.14286334059E+04  0.14288343727E+04  0.00000000000E+00 0.  1.
         21    1    1    2  504  501 -0.22986873973E+02  0.67719802613E+01 -0.10343968484E+02  0.26100838601E+02  0.00000000000E+00 0.  1.
</event>
<event>
 4    1  0.1725802E+006  0.2173143E+02  0.7546771E-02  0.1509073E+00
         21   -1    0    0  503  501  0.00000000000E+00  0.00000000000E+00  0.66994939308E+01  0.66994939308E+01  0.00000000000E+00 0.  1.
         21   -1    0    0  504  502 -0.00000000000E+00 -0.00000000000E+00 -0.71391369741E+02  0.71391369741E+02  0.00000000000E+00 0. -1.
         21    1    1    2  503  502 -0.15875684751E+02 -0.14839732229E+02 -0.36730458300E+02  0.42677647380E+02  0.00000000000E+00 0.  1.
         21    1    1    2  504  501  0.15875684751E+02  0.14839732229E+02 -0.27961417510E+02  0.35413216292E+02  0.00000000000E+00 0. -1.
</event>
<event>
 4    1  0.1725802E+006  0.2441966E+02  0.7546771E-02  0.1475401E+00
         21   -1    0    0  503  501  0.00000000000E+00  0.00000000000E+00  0.88865274999E+02  0.88865274999E+02  0.00000000000E+00 0.  1.
         21   -1    0    0  504  502 -0.00000000000E+00 -0.00000000000E+00 -0.29676827342E+02  0.29676827342E+02  0.00000000000E+00 0. -1.
         21    1    1    2  503  502  0.24046000341E+02 -0.42555598100E+01 -0.22546948034E+02  0.33236798692E+02  0.00000000000E+00 0. -1.
         21    1    1    2  504  501 -0.24046000341E+02  0.42555598100E+01  0.81735395691E+02  0.85305303648E+02  0.00000000000E+00 0.  1.
</event>
<event>
 4    1  0.1725802E+006  0.2069834E+02  0.7546771E-02  0.1523616E+00
         21   -1    0    0  502  501  0.00000000000E+00  0.00000000000E+00  0.20531134232E+02  0.20531134232E+02  0.00000000000E+00 0.  1.
         21   -1    0    0  504  502 -0.00000000000E+00 -0.00000000000E+00 -0.25557705535E+02  0.25557705535E+02  0.00000000000E+00 0. -1.
         21    1    1    2  503  501 -0.40571413733E+01 -0.20296821716E+02  0.73592341927E+01  0.21967696643E+02  0.00000000000E+00 0.  1.
         21    1    1    2  504  503  0.40571413733E+01  0.20296821716E+02 -0.12385805495E+02  0.24121143125E+02  0.00000000000E+00 0. -1.
</event>
<event>
 4    1  0.1725802E+006  0.2540023E+02  0.7546771E-02  0.1464375E+00
         21   -1    0    0  504  501  0.00000000000E+00  0.00000000000E+00  0.16607296443E+02  0.16607296443E+02  0.00000000000E+00 0. -1.
         21   -1    0    0  503  502 -0.00000000000E+00 -0.00000000000E+00 -0.68048458680E+02  0.68048458680E+02  0.00000000000E+00 0.  1.
         21    1    1    2  503  501  0.17063776477E+02  0.18814864704E+02  0.20066881834E+01  0.25479372029E+02  0.00000000000E+00 0. -1.
         21    1    1    2  504  502 -0.17063776477E+02 -0.18814864704E+02 -0.53447850421E+02  0.59176383094E+02  0.00000000000E+00 0.  1.
</event>
<event>
 4    1  0.1725802E+006  0.2296905E+02  0.7546771E-02  0.1492887E+00
         21   -1    0    0  504  501  0.00000000000E+00  0.00000000000E+00  0.27880197790E+03  0.27880197790E+03  0.00000000000E+00 0. -1.
         21   -1    0    0  503  502 -0.00000000000E+00 -0.00000000000E+00 -0.52663540499E+01  0.52663540499E+01  0.00000000000E+00 0.  1.
         21    1    1    2  503  501  0.18085884020E+02  0.14159027053E+02  0.23080039906E+02  0.32561718166E+02  0.00000000000E+00 0.  1.
         21    1    1    2  504  502 -0.18085884020E+02 -0.14159027053E+02  0.25045558395E+03  0.25150661379E+03  0.00000000000E+00 0. -1.
</event>
<event>
 4    1  0.1725802E+006  0.2917896E+02  0.7546771E-02  0.1426868E+00
         21   -1    0    0  502  501  0.00000000000E+00  0.00000000000E+00  0.11038142442E+03  0.11038142442E+03  0.00000000000E+00 0.  1.
         21   -1    0    0  503  502 -0.00000000000E+00 -0.00000000000E+00 -0.10463818535E+02  0.10463818535E+02  0.00000000000E+00 0. -1.
         21    1    1    2  503  504 -0.90849566359E+01 -0.27728601377E+02  0.18980548834E+02  0.34809093718E+02  0.00000000000E+00 0. -1.
         21    1    1    2  504  501  0.90849566359E+01  0.27728601377E+02  0.80937057051E+02  0.86036149236E+02  0.00000000000E+00 0.  1.
</event>
<event>
 4    1  0.1725802E+006  0.3798870E+02  0.7546771E-02  0.1360693E+00
         21   -1    0    0  504  501  0.00000000000E+00  0.00000000000E+00  0.54806769687E+03  0.54806769687E+03  0.00000000000E+00 0. -1.
         21   -1    0    0  503  502 -0.00000000000E+00 -0.00000000000E+00 -0.11304591121E+02  0.11304591121E+02  0.00000000000E+00 0.  1.
         21    1    1    2  503  501 -0.21727425373E-02  0.37988696629E+02  0.51333824922E+03  0.51474197340E+03  0.00000000000E+00 0. -1.
         21    1    1    2  504  502  0.21727425373E-02 -0.37988696629E+02  0.23424856528E+02  0.44630314582E+02  0.00000000000E+00 0.  1.
</event>
<event>
 4    1  0.1725802E+006  0.2388143E+02  0.7546771E-02  0.1481717E+00
         21   -1    0    0  502  501  0.00000000000E+00  0.00000000000E+00  0.42711014224E+02  0.42711014224E+02  0.00000000000E+00 0.  1.
         21   -1    0    0  504  502 -0.00000000000E+00 -0.00000000000E+00 -0.28156882820E+02  0.28156882820E+02  0.00000000000E+00 0.  1.
         21    1    1    2  503  501  0.10547219680E+02 -0.21426126517E+02  0.32970029252E+02  0.40710509324E+02  0.00000000000E+00 0.  1.
         21    1    1    2  504  503 -0.10547219680E+02  0.21426126517E+02 -0.18415897848E+02  0.30157387719E+02  0.00000000000E+00 0.  1.
</event>
<event>
 4    1  0.1725802E+006  0.2857298E+02  0.7546771E-02  0.1432416E+00
         21   -1    0    0  504  501  0.00000000000E+00  0.00000000000E+00  0.18771554734E+04  0.18771554734E+04  0.00000000000E+00 0.  1.
         21   -1    0    0  503  502 -0.00000000000E+00 -0.00000000000E+00 -0.24973400869E+01  0.24973400869E+01  0.00000000000E+00 0. -1.
         21    1    1    2  503  501 -0.16994499340E+02  0.22969597293E+02  0.83251728227E+02  0.88018552933E+02  0.00000000000E+00 0. -1.
         21    1    1    2  504  502  0.16994499340E+02 -0.22969597293E+02  0.17914064051E+04  0.17916342606E+04  0.00000000000E+00 0.  1.
</event>
<event>
 4    1  0.1725802E+006  0.2486903E+02  0.7546771E-02  0.1470274E+00
         21   -1    0    0  504  501  0.00000000000E+00  0.00000000000E+00  0.48754908753E+02  0.48754908753E+02  0.00000000000E+00 0. -1.
         21   -1    0    0  503  502 -0.00000000000E+00 -0.00000000000E+00 -0.17228484078E+02  0.17228484078E+02  0.00000000000E+00 0. -1.
         21    1    1    2  503  501  0.24772814197E+02 -0.21855122918E+01 -0.11787261850E+01  0.24896951272E+02  0.00000000000E+00 0. -1.
         21    1    1    2  504  502 -0.24772814197E+02  0.21855122918E+01  0.32705150860E+02  0.41086441560E+02  0.00000000000E+00 0. -1.
</event>
<event>
 4    1  0.1725802E+006  0.2274821E+02  0.7546771E-02  0.1495684E+00
         21   -1    0    0  503  501  0.00000000000E+00  0.00000000000E+00  0.79234449982E+03  0.79234449982E+03  0.00000000000E+00 0. -1.
         21   -1    0    0  501  502 -0.00000000000E+00 -0.00000000000E+00 -0.25754273295E+01  0.25754273295E+01  0.00000000000E+00 0.  1.
         21    1    1    2  503  504  0.97467705925E+01 -0.20554351340E+02  0.73827031764E+03  0.73862070293E+03  0.00000000000E+00 0. -1.
         21    1    1    2  504  502 -0.97467705925E+01  0.20554351340E+02  0.51498754849E+02  0.56299224213E+02  0.00000000000E+00 0.  1.
</event>
<event>
 4    1  0.1725802E+006  0.2357959E+02  0.7546771E-02  0.1485346E+00
         21   -1    0    0  503  501  0.00000000000E+00  0.00000000000E+00  0.24672722292E+02  0.24672722292E+02  0.00000000000E+00 0.  1.
         21   -1    0    0  501  502 -0.00000000000E+00 -0.00000000000E+00 -0.37571575527E+02  0.37571575527E+02  0.00000000000E+00 0.  1.
         21    1    1    2  503  504 -0.23462188036E+02  0.23500931857E+01  0.13239219795E+02  0.27042081026E+02  0.00000000000E+00 0.  1.
         21    1    1    2  504  502  0.23462188036E+02 -0.23500931857E+01 -0.26138073030E+02  0.35202216793E+02  0.00000000000E+00 0.  1.
</event>
<event>
 4    1  0.1725802E+006  0.2353253E+02  0.7546771E-02  0.1485917E+00
         21   -1    0    0  504  501  0.00000000000E+00  0.00000000000E+00  0.14851717701E+02  0.14851717701E+02  0.00000000000E+00 0.  1.
         21   -1    0    0  503  502 -0.00000000000E+00 -0.00000000000E+00 -0.13848874615E+03  0.13848874615E+03  0.00000000000E+00 0.  1.
         21    1    1    2  503  501 -0.17569331349E+02  0.15655626262E+02  0.37224693691E+01  0.23825129924E+02  0.00000000000E+00 0.  1.
         21    1    1    2  504  502  0.17569331349E+02 -0.15655626262E+02 -0.12735949782E+03  0.12951533393E+03  0.00000000000E+00 0.  1.
</event>
<event>
 4    1  0.1725802E+006  0.2450109E+02  0.7546771E-02  0.1474463E+00
         21   -1    0    0  504  501  0.00000000000E+00  0.00000000000E+00  0.62300031103E+01  0.62300031103E+01  0.00000000000E+00 0. -1.
         21   -1    0    0  503  502 -0.00000000000E+00 -0.00000000000E+00 -0.21765893028E+03  0.21765893028E+03  0.00000000000E+00 0. -1.
         21    1    1    2  503  501 -0.24396620081E+02  0.22602149236E+01 -0.22144836780E+02  0.33025708757E+02  0.00000000000E+00 0. -1.
         21    1    1    2  504  502  0.24396620081E+02 -0.22602149236E+01 -0.18928409039E+03  0.19086322463E+03  0.00000000000E+00 0. -1.
</event>
<event>
 4    1  0.1725802E+006  0.2930813E+02  0.7546771E-02  0.1425706E+00
         21   -1    0    0  502  501  0.00000000000E+00  0.00000000000E+00  0.23167531118E+02  0.23167531118E+02  0.00000000000E+00 0. -1.
         21   -1    0    0  503  502 -0.00000000000E+00 -0.00000000000E+00 -0.57220044913E+02  0.57220044913E+02  0.00000000000E+00 0. -1.
         21    1    1    2  503  504 -0.26469631792E+02 -0.12582722897E+02 -0.40874421048E+02  0.50295970204E+02  0.00000000000E+00 0. -1.
         21    1    1    2  504  501  0.26469631792E+02  0.12582722897E+02  0.68219072537E+01  0.30091605827E+02  0.00000000000E+00 0. -1.
</event>
<event>
 4    1  0.1725802E+006  0.2665276E+02  0.7546771E-02  0.1451128E+00
         21   -1    0    0  503  501  0.00000000000E+00  0.00000000000E+00  0.98951992721E+02  0.98951992721E+02  0.00000000000E+00 0.  1.
         21   -1    0    0  504  502 -0.00000000000E+00 -0.00000000000E+00 -0.23667126049E+02  0.23667126049E+02  0.00000000000E+00 0.  1.
         21    1    1    2  503  502  0.26208003348E+02  0.48487092623E+01  0.88815566180E+02  0.92728497329E+02  0.00000000000E+00 0.  1.
         21    1    1    2  504  501 -0.26208003348E+02 -0.48487092623E+01 -0.13530699508E+02  0.29890621442E+02  0.00000000000E+00 0.  1.
</event>
<event>
 4    1  0.1725802E+006  0.2063071E+02  0.7546771E-02  0.1524603E+00
         21   -1    0    0  504  501  0.00000000000E+00  0.00000000000E+00  0.80137086586E+02  0.80137086586E+02  0.00000000000E+00 0.  1.
         21   -1    0    0  501  502 -0.00000000000E+00 -0.00000000000E+00 -0.72730291597E+02  0.72730291597E+02  0.00000000000E+00 0.  1.
         21    1    1    2  503  502  0.18863746922E+02 -0.83537660142E+01 -0.69886553626E+02  0.72868077594E+02  0.00000000000E+00 0.  1.
         21    1    1    2  504  503 -0.18863746922E+02  0.83537660142E+01  0.77293348615E+02  0.79999300589E+02  0.00000000000E+00 0.  1.
</event>
<event>
 4    1  0.1725802E+006  0.2198126E+02  0.7546771E-02  0.1505703E+00
         21   -1    0    0  504  501  0.00000000000E+00  0.00000000000E+00  0.23841324802E+03  0.23841324802E+03  0.00000000000E+00 0. -1.
         21   -1    0    0  501  502 -0.00000000000E+00 -0.00000000000E+00 -0.31813623018E+01  0.31813623018E+01  0.00000000000E+00 0. -1.
         21    1    1    2  503  502  0.24449860276E+01  0.21844855811E+02  0.44839445849E+02  0.49937476769E+02  0.00000000000E+00 0. -1.
         21    1    1    2  504  503 -0.24449860276E+01 -0.21844855811E+02  0.19039243987E+03  0.19165713356E+03  0.00000000000E+00 0. -1.
</event>
<event>
 4    1  0.1725802E+006  0.2061984E+02  0.7546771E-02  0.1524762E+00
         21   -1    0    0  504  501  0.00000000000E+00  0.00000000000E+00  0.30020007375E+02  0.30020007375E+02  0.00000000000E+00 0.  1.
         21   -1    0    0  503  502 -0.00000000000E+00 -0.00000000000E+00 -0.48142330401E+02  0.48142330401E+02  0.00000000000E+00 0.  1.
         21    1    1    2  503  501 -0.19923084620E+02  0.53149431153E+01 -0.41894151051E+02  0.46693659241E+02  0.00000000000E+00 0.  1.
         21    1    1    2  504  502  0.19923084620E+02 -0.53149431153E+01  0.23771828025E+02  0.31468678535E+02  0.00000000000E+00 0.  1.
</event>
<event>
 4    1  0.1725802E+006  0.3387106E+02  0.7546771E-02  0.1388678E+00
         21   -1    0    0  503  501  0.00000000000E+00  0.00000000000E+00  0.14013846818E+03  0.14013846818E+03  0.00000000000E+00 0. -1.
         21   -1    0    0  501  502 -0.00000000000E+00 -0.00000000000E+00 -0.88623689093E+01  0.88623689093E+01  0.00000000000E+00 0. -1.
         21    1    1    2  503  504  0.18393795634E+02  0.28441461056E+02  0.45064752253E+02  0.56374465146E+02  0.00000000000E+00 0. -1.
         21    1    1    2  504  502 -0.18393795634E+02 -0.28441461056E+02  0.86211347016E+02  0.92626371942E+02  0.00000000000E+00 0. -1.
</event>
<event>
 4    1  0.1725802E+006  0.5698477E+02  0.7546771E-02  0.1270436E+00
         21   -1    0    0  503  501  0.00000000000E+00  0.00000000000E+00  0.29022415475E+02  0.29022415475E+02  0.00000000000E+00 0.  1.
         21   -1    0    0  504  502 -0.00000000000E+00 -0.00000000000E+00 -0.12163733998E+03  0.12163733998E+03  0.00000000000E+00 0.  1.
         21    1    1    2  503  502 -0.44141990030E+02 -0.36038162439E+02 -0.24981038896E+02  0.62219906301E+02  0.00000000000E+00 0.  1.
         21    1    1    2  504  501  0.44141990030E+02  0.36038162439E+02 -0.67633885604E+02  0.88439849150E+02  0.00000000000E+00 0.  1.
</event>
<event>
 4    1  0.1725802E+006  0.2308591E+02  0.7546771E-02  0.1491422E+00
         21   -1    0    0  503  501  0.00000000000E+00  0.00000000000E+00  0.51104273704E+03  0.51104273704E+03  0.00000000000E+00 0.  1.
         21   -1    0    0  504  502 -0.00000000000E+00 -0.00000000000E+00 -0.11559751127E+03  0.11559751127E+03  0.00000000000E+00 0. -1.
         21    1    1    2  503  502 -0.22649739342E+02  0.44663674102E+01  0.50962619540E+03  0.51014881963E+03  0.00000000000E+00 0.  1.
         21    1    1    2  504  501  0.22649739342E+02 -0.44663674102E+01 -0.11418096963E+03  0.11649142868E+03  0.00000000000E+00 0. -1.
</event>
<event>
 4    1  0.1725802E+006  0.5960378E+02  0.7546771E-02  0.1261185E+00
         21   -1    0    0  504  501  0.00000000000E+00  0.00000000000E+00  0.99383101694E+02  0.99383101694E+02  0.00000000000E+00 0.  1.
         21   -1    0    0  501  502 -0.00000000000E+00 -0.00000000000E+00 -0.18730501679E+03  0.18730501679E+03  0.00000000000E+00 0. -1.
         21    1    1    2  503  502  0.48037192599E+02  0.35285114582E+02 -0.17290312841E+03  0.18288822542E+03  0.00000000000E+00 0. -1.
         21    1    1    2  504  503 -0.48037192599E+02 -0.35285114582E+02  0.84981213313E+02  0.10379989306E+03  0.00000000000E+00 0.  1.
</event>
<event>
 4    1  0.1725802E+006  0.2082443E+02  0.7546771E-02  0.1521786E+00
         21   -1    0    0  503  501  0.00000000000E+00  0.00000000000E+00  0.52087379622E+02  0.52087379622E+02  0.00000000000E+00 0.  1.
         21   -1    0    0  501  502 -0.00000000000E+00 -0.00000000000E+00 -0.64786532333E+02  0.64786532333E+02  0.00000000000E+00 0.  1.
         21    1    1    2  503  504  0.19961151330E+02  0.59337521480E+01  0.48203515099E+02  0.52509388159E+02  0.00000000000E+00 0.  1.
         21    1    1    2  504  502 -0.19961151330E+02 -0.59337521480E+01 -0.60902667811E+02  0.64364523796E+02  0.00000000000E+00 0.  1.
</event>
<event>
 4    1  0.1725802E+006  0.3538901E+02  0.7546771E-02  0.1377849E+00
         21   -1    0    0  503  501  0.00000000000E+00  0.00000000000E+00  0.45966730948E+02  0.45966730948E+02  0.00000000000E+00 0.  1.
         21   -1    0    0  504  502 -0.00000000000E+00 -0.00000000000E+00 -0.28346558855E+02  0.28346558855E+02  0.00000000000E+00 0.  1.
         21    1    1    2  503  502  0.35176256464E+02 -0.38746847215E+01  0.14867270493E+01  0.35420228089E+02  0.00000000000E+00 0.  1.
         21    1    1    2  504  501 -0.35176256464E+02  0.38746847215E+01  0.16133445044E+02  0.38893061714E+02  0.00000000000E+00 0.  1.
</event>
<event>
 4    1  0.1725802E+006  0.2096531E+02  0.7546771E-02  0.1519761E+00
         21   -1    0    0  503  501  0.00000000000E+00  0.00000000000E+00  0.15448357824E+02  0.15448357824E+02  0.00000000000E+00 0.  1.
         21   -1    0    0  504  502 -0.00000000000E+00 -0.00000000000E+00 -0.10818034248E+03  0.10818034248E+03  0.00000000000E+00 0. -1.
         21    1    1    2  503  502  0.20002202007E+02 -0.62814231436E+01 -0.99432455678E+02  0.10161868728E+03  0.00000000000E+00 0. -1.
         21    1    1    2  504  501 -0.20002202007E+02  0.62814231436E+01  0.67004710166E+01  0.22010013032E+02  0.00000000000E+00 0.  1.
</event>
<event>
 4    1  0.1725802E+006  0.2039463E+02  0.7546771E-02  0.1528086E+00
         21   -1    0    0  504  501  0.00000000000E+00  0.00000000000E+00  0.10387227998E+02  0.10387227998E+02  0.00000000000E+00 0. -1.
         21   -1    0    0  503  502 -0.00000000000E+00 -0.00000000000E+00 -0.62699265502E+02  0.62699265502E+02  0.00000000000E+00 0. -1.
         21    1    1    2  503  501  0.18652098497E+01  0.20309162639E+02 -0.48122735689E+02  0.52266038544E+02  0.00000000000E+00 0. -1.
         21    1    1    2  504  502 -0.18652098497E+01 -0.20309162639E+02 -0.41893018151E+01  0.20820454956E+02  0.00000000000E+00 0. -1.
</event>
<event>
 4    1  0.1725802E+006  0.2362364E+02  0.7546771E-02  0.1484812E+00
         21   -1    0    0  504  501  0.00000000000E+00  0.00000000000E+00  0.40133437269E+01  0.40133437269E+01  0.00000000000E+00 0.  1.
         21   -1    0    0  501  502 -0.00000000000E+00 -0.00000000000E+00 -0.16034257176E+03  0.16034257176E+03  0.00000000000E+00 0.  1.
         21    1    1    2  503  502 -0.12101783703E+02  0.20288502290E+02 -0.10810735048E+03  0.11065837394E+03  0.00000000000E+00 0.  1.
         21    1    1    2  504  503  0.12101783703E+02 -0.20288502290E+02 -0.48221877547E+02  0.53697541546E+02  0.00000000000E+00 0.  1.
</event>
<event>
 4    1  0.1725802E+006  0.2392645E+02  0.7546771E-02  0.1481181E+00
         21   -1    0    0  503  501  0.00000000000E+00  0.00000000000E+00  0.89832214977E+03  0.89832214977E+03  0.00000000000E+00 0.  1.
         21   -1    0    0  504  502 -0.00000000000E+00 -0.00000000000E+00 -0.70465480195E+00  0.70465480195E+00  0.00000000000E+00 0.  1.
         21    1    1    2  503  502  0.23623322267E+02 -0.37965449779E+01  0.58781379289E+03  0.58830054413E+03  0.00000000000E+00 0.  1.
         21    1    1    2  504  501 -0.23623322267E+02  0.37965449779E+01  0.30980370208E+03  0.31072626044E+03  0.00000000000E+00 0.  1.
</event>
<event>
 4    1  0.1725802E+006  0.2211416E+02  0.7546771E-02  0.1503932E+00
         21   -1    0    0  504  501  0.00000000000E+00  0.00000000000E+00  0.51249039021E+03  0.51249039021E+03  0.00000000000E+00 0.  1.
         21   -1    0    0  503  502 -0.00000000000E+00 -0.00000000000E+00 -0.10983436098E+02  0.10983436098E+02  0.00000000000E+00 0.  1.
         21    1    1    2  503  501 -0.91945284042E+01  0.20112099613E+02  0.50086232025E+03  0.50135027650E+03  0.00000000000E+00 0.  1.
         21    1    1    2  504  502  0.91945284042E+01 -0.20112099613E+02  0.64463386795E+00  0.22123549811E+02  0.00000000000E+00 0.  1.
</event>
<event>
 4    1  0.1725802E+006  0.2239451E+02  0.7546771E-02  0.1500245E+00
         21   -1    0    0  503  501  0.00000000000E+00  0.00000000000E+00  0.14356786498E+03  0.14356786498E+03  0.00000000000E+00 0. -1.
         21   -1    0    0  504  502 -0.00000000000E+00 -0.00000000000E+00 -0.30109455786E+02  0.30109455786E+02  0.00000000000E+00 0. -1.
         21    1    1    2  503  502  0.18267126300E+02 -0.12954773950E+02  0.13837521792E+03  0.14017565768E+03  0.00000000000E+00 0. -1.
         21    1    1    2  504  501 -0.18267126300E+02  0.12954773950E+02 -0.24916808736E+02  0.33501663078E+02  0.00000000000E+00 0. -1.
</event>
<event>
 4    1  0.1725802E+006  0.2634074E+02  0.7546771E-02  0.1454345E+00
         21   -1    0    0  504  501  0.00000000000E+00  0.00000000000E+00  0.20425629005E+03  0.20425629005E+03  0.00000000000E+00 0.  1.
         21   -1    0    0  501  502 -0.00000000000E+00 -0.00000000000E+00 -0.90931693630E+01  0.90931693630E+01  0.00000000000E+00 0.  1.
         21    1    1    2  503  502  0.13293500939E+02  0.22740213755E+02  0.13150963156E+02  0.29441167109E+02  0.00000000000E+00 0.  1.
         21    1    1    2  504  503 -0.13293500939E+02 -0.22740213755E+02  0.18201215753E+03  0.18390829230E+03  0.00000000000E+00 0.  1.
</event>
<event>
 4    1  0.1725802E+006  0.2069743E+02  0.7546771E-02  0.1523629E+00
         21   -1    0    0  504  501  0.00000000000E+00  0.00000000000E+00  0.42176499619E+02  0.42176499619E+02  0.00000000000E+00 0. -1.
         21   -1    0    0  503  502 -0.00000000000E+00 -0.00000000000E+00 -0.83993844721E+02  0.83993844721E+02  0.00000000000E+00 0. -1.
         21    1    1    2  503  501 -0.91696889625E+01  0.18555335289E+02  0.38239364898E+02  0.43481406269E+02  0.00000000000E+00 0. -1.
         21    1    1    2  504  502  0.91696889625E+01 -0.18555335289E+02 -0.80056710000E+02  0.82688938071E+02  0.00000000000E+00 0. -1.
</event>
<event>
 4    1  0.1725802E+006  0.3619721E+02  0.7546771E-02  0.1372336E+00
         21   -1    0    0  504  501  0.00000000000E+00  0.00000000000E+00  0.33277687760E+02  0.33277687760E+02  0.00000000000E+00 0.  1.
         21   -1    0    0  503  502 -0.00000000000E+00 -0.00000000000E+00 -0.68313542784E+02  0.68313542784E+02  0.00000000000E+00 0.  1.
         21    1    1    2  503  501  0.41706152975E+01  0.35956140468E+02  0.15543921131E+02  0.39393547104E+02  0.00000000000E+00 0.  1.
         21    1    1    2  504  502 -0.41706152975E+01 -0.35956140468E+02 -0.50579776156E+02  0.62197683440E+02  0.00000000000E+00 0.  1.
</event>
<event>
 4    1  0.1725802E+006  0.2006198E+02  0.7546771E-02  0.1533090E+00
         21   -1    0    0  503  501  0.00000000000E+00  0.00000000000E+00  0.29854408679E+01  0.29854408679E+01  0.00000000000E+00 0.  1.
         21   -1    0    0  504  502 -0.00000000000E+00 -0.00000000000E+00 -0.13859836262E+03  0.13859836262E+03  0.00000000000E+00 0. -1.
         21    1    1    2  503  502 -0.37759005007E+01  0.19703442027E+02 -0.79502190814E+02  0.81994398568E+02  0.00000000000E+00 0. -1.
         21    1    1    2  504  501  0.37759005007E+01 -0.19703442027E+02 -0.56110730943E+02  0.59589404925E+02  0.00000000000E+00 0.  1.
</event>
<event>
 4    1  0.1725802E+006  0.2605863E+02  0.7546771E-02  0.1457301E+00
         21   -1    0    0  503  501  0.00000000000E+00  0.00000000000E+00  0.66456141537E+02  0.66456141537E+02  0.00000000000E+00 0.  1.
         21   -1    0    0  501  502 -0.00000000000E+00 -0.00000000000E+00 -0.10453585841E+02  0.10453585841E+02  0.00000000000E+00 0.  1.
         21    1    1    2  503  504  0.11208136560E+02  0.23525088044E+02  0.33773569989E+02  0.42658013578E+02  0.00000000000E+00 0.  1.
         21    1    1    2  504  502 -0.11208136560E+02 -0.23525088044E+02  0.22228985707E+02  0.34251713800E+02  0.00000000000E+00 0.  1.
</event>
<event>
 4    1  0.1725802E+006  0.2200198E+02  0.7546771E-02  0.1505425E+00
         21   -1    0    0  503  501  0.00000000000E+00  0.00000000000E+00  0.60732358721E+01  0.60732358721E+01  0.00000000000E+00 0. -1.
         21   -1    0    0  504  502 -0.00000000000E+00 -0.00000000000E+00 -0.22807194034E+03  0.22807194034E+03  0.00000000000E+00 0. -1.
         21    1    1    2  503  502  0.19021226669E+02 -0.11058039156E+02 -0.16575213064E+02  0.27546778071E+02  0.00000000000E+00 0. -1.
         21    1    1    2  504  501 -0.19021226669E+02  0.11058039156E+02 -0.20542349140E+03  0.20659839814E+03  0.00000000000E+00 0. -1.
</event>
<event>
 4    1  0.1725802E+006  0.2163509E+02  0.7546771E-02  0.1510387E+00
         21   -1    0    0  504  501  0.00000000000E+00  0.00000000000E+00  0.98941565236E+01  0.98941565236E+01  0.00000000000E+00 0.  1.
         21   -1    0    0  503  502 -0.00000000000E+00 -0.00000000000E+00 -0.53326152877E+02  0.53326152877E+02  0.00000000000E+00 0.  1.
         21    1    1    2  503  501 -0.99458624864E+01 -0.19213454191E+02 -0.11097267190E+02  0.24315146342E+02  0.00000000000E+00 0.  1.
         21    1    1    2  504  502  0.99458624864E+01  0.19213454191E+02 -0.32334729164E+02  0.38905163059E+02  0.00000000000E+00 0.  1.
</event>
<event>
 4    1  0.1725802E+006  0.3076991E+02  0.7546771E-02  0.1413022E+00
         21   -1    0    0  502  501  0.00000000000E+00  0.00000000000E+00  0.40180612022E+01  0.40180612022E+01  0.00000000000E+00 0. -1.
         21   -1    0    0  503  502 -0.00000000000E+00 -0.00000000000E+00 -0.13564251795E+04  0.13564251795E+04  0.00000000000E+00 0. -1.
         21    1    1    2  503  504  0.29573752407E+02  0.84959132698E+01 -0.12945260976E+04  0.12948917348E+04  0.00000000000E+00 0. -1.
         21    1    1    2  504  501 -0.29573752407E+02 -0.84959132698E+01 -0.57881020633E+02  0.65551505881E+02  0.00000000000E+00 0. -1.
</event>
<event>
 4    1  0.1725802E+006  0.2738013E+02  0.7546771E-02  0.1443827E+00
         21   -1    0    0  502  501  0.00000000000E+00  0.00000000000E+00  0.11904404889E+04  0.11904404889E+04  0.00000000000E+00 0.  1.
         21   -1    0    0  504  502 -0.00000000000E+00 -0.00000000000E+00 -0.14080006505E+01  0.14080006505E+01  0.00000000000E+00 0.  1.
         21    1    1    2  503  501 -0.23575875541E+02  0.13922994629E+02  0.10375647718E+04  0.10379259740E+04  0.00000000000E+00 0.  1.
         21    1    1    2  504  503  0.23575875541E+02 -0.13922994629E+02  0.15146771639E+03  0.15392251556E+03  0.00000000000E+00 0.  1.
</event>
<event>
 4    1  0.1725802E+006  0.2239679E+02  0.7546771E-02  0.1500215E+00
         21   -1    0    0  504  501  0.00000000000E+00  0.00000000000E+00  0.10455926403E+02  0.10455926403E+02  0.00000000000E+00 0. -1.
         21   -1    0    0  501  502 -0.00000000000E+00 -0.00000000000E+00 -0.55634987189E+03  0.55634987189E+03  0.00000000000E+00 0. -1.
         21    1    1    2  503  502 -0.47401429345E+01 -0.21889436707E+02 -0.54385545497E+03  0.54431642663E+03  0.00000000000E+00 0. -1.
         21    1    1    2  504  503  0.47401429345E+01  0.21889436707E+02 -0.20384905170E+01  0.22489371667E+02  0.00000000000E+00 0. -1.
</event>
<event>
 4    1  0.1725802E+006  0.2381937E+02  0.7546771E-02  0.1482458E+00
         21   -1    0    0  504  501  0.00000000000E+00  0.00000000000E+00  0.11617005429E+02  0.11617005429E+02  0.00000000000E+00 0.  1.
         21   -1    0    0  501  502 -0.00000000000E+00 -0.00000000000E+00 -0.21920635999E+03  0.21920635999E+03  0.00000000000E+00 0. -1.
         21    1    1    2  503  502 -0.18117836966E+02 -0.15463062289E+02 -0.20554047059E+03  0.20691603941E+03  0.00000000000E+00 0. -1.
         21    1    1    2  504  503  0.18117836966E+02  0.15463062289E+02 -0.20488839689E+01  0.23907326015E+02  0.00000000000E+00 0.  1.
</event>
<event>
 4    1  0.1725802E+006  0.2317599E+02  0.7546771E-02  0.1490300E+00
         21   -1    0    0  503  501  0.00000000000E+00  0.00000000000E+00  0.45468028289E+02  0.45468028289E+02  0.00000000000E+00 0.  1.
         21   -1    0    0  504  502 -0.00000000000E+00 -0.00000000000E+00 -0.13195683252E+02  0.13195683252E+02  0.00000000000E+00 0.  1.
         21    1    1    2  503  502  0.74377233238E+01  0.21950098331E+02  0.25629992395E+02  0.34554638692E+02  0.00000000000E+00 0.  1.
         21    1    1    2  504  501 -0.74377233238E+01 -0.21950098331E+02  0.66423526414E+01  0.24109072848E+02  0.00000000000E+00 0.  1.
</event>
<event>
 4    1  0.1725802E+006  0.2316684E+02  0.7546771E-02  0.1490414E+00
         21   -1    0    0  503  501  0.00000000000E+00  0.00000000000E+00  0.52969882027E+03  0.52969882027E+03  0.00000000000E+00 0. -1.
         21   -1    0    0  504  502 -0.00000000000E+00 -0.00000000000E+00 -0.10225884849E+01  0.10225884849E+01  0.00000000000E+00 0. -1.
         21    1    1    2  503  502  0.22048867508E+02  0.71098577146E+01  0.23894193074E+03  0.24006238543E+03  0.00000000000E+00 0. -1.
         21    1    1    2  504  501 -0.22048867508E+02 -0.71098577146E+01  0.28973430105E+03  0.29065902332E+03  0.00000000000E+00 0. -1.
</event>
<event>
 4    1  0.1725802E+006  0.5700871E+02  0.7546771E-02  0.1270349E+00
         21   -1    0    0  503  501  0.00000000000E+00  0.00000000000E+00  0.44958478949E+02  0.44958478949E+02  0.00000000000E+00 0. -1.
         21   -1    0    0  504  502 -0.00000000000E+00 -0.00000000000E+00 -0.11827707311E+03  0.11827707311E+03  0.00000000000E+00 0.  1.
         21    1    1    2  503  502  0.55099502695E+02 -0.14630036163E+02 -0.87552310151E+02  0.10447679249E+03  0.00000000000E+00 0.  1.
         21    1    1    2  504  501 -0.55099502695E+02  0.14630036163E+02  0.14233715992E+02  0.58758759571E+02  0.00000000000E+00 0. -1.
</event>
<event>
 4    1  0.1725802E+006  0.3025472E+02  0.7546771E-02  0.1417396E+00
         21   -1    0    0  504  501  0.00000000000E+00  0.00000000000E+00  0.26958906460E+02  0.26958906460E+02  0.00000000000E+00 0.  1.
         21   -1    0    0  503  502 -0.00000000000E+00 -0.00000000000E+00 -0.52748039204E+02  0.52748039204E+02  0.00000000000E+00 0.  1.
         21    1    1    2  503  501  0.23285293334E+02  0.19316911454E+02 -0.36683742404E+02  0.47550445956E+02  0.00000000000E+00 0.  1.
         21    1    1    2  504  502 -0.23285293334E+02 -0.19316911454E+02  0.10894609661E+02  0.32156499708E+02  0.00000000000E+00 0.  1.
</event>
<event>
 4    1  0.1725802E+006  0.2084251E+02  0.7546771E-02  0.1521525E+00
         21   -1    0    0  503  501  0.00000000000E+00  0.00000000000E+00  0.22397526149E+01  0.22397526149E+01  0.00000000000E+00 0.  1.
         21   -1    0    0  504  502 -0.00000000000E+00 -0.00000000000E+00 -0.46900428891E+03  0.46900428891E+03  0.00000000000E+00 0.  1.
         21    1    1    2  503  502 -0.48789942342E+01 -0.20263406912E+02 -0.41382237507E+03  0.41434691787E+03  0.00000000000E+00 0.  1.
         21    1    1    2  504  501  0.48789942342E+01  0.20263406912E+02 -0.52942161226E+02  0.56897123650E+02  0.00000000000E+00 0.  1.
</event>
<event>
 4    1  0.1725802E+006  0.2206019E+02  0.7546771E-02  0.1504649E+00
         21   -1    0    0  503  501  0.00000000000E+00  0.00000000000E+00  0.27214673074E+01  0.27214673074E+01  0.00000000000E+00 0. -1.
         21   -1    0    0  501  502 -0.00000000000E+00 -0.00000000000E+00 -0.13725181827E+04  0.13725181827E+04  0.00000000000E+00 0. -1.
         21    1    1    2  503  504  0.52672669152E+01  0.21422131732E+02 -0.43634643093E+02  0.48894109119E+02  0.00000000000E+00 0. -1.
         21    1    1    2  504  502 -0.52672669152E+01 -0.21422131732E+02 -0.13261620723E+04  0.13263455409E+04  0.00000000000E+00 0. -1.
</event>
<event>
 4    1  0.1725802E+006  0.4266913E+02  0.7546771E-02  0.1333517E+00
         21   -1    0    0  503  501  0.00000000000E+00  0.00000000000E+00  0.38759632962E+02  0.38759632962E+02  0.00000000000E+00 0. -1.
         21   -1    0    0  504  502 -0.00000000000E+00 -0.00000000000E+00 -0.60135261130E+02  0.60135261130E+02  0.00000000000E+00 0.  1.
         21    1    1    2  503  502  0.26440613603E+02  0.33489526060E+02  0.12445896932E+02  0.44447213117E+02  0.00000000000E+00 0. -1.
         21    1    1    2  504  501 -0.26440613603E+02 -0.33489526060E+02 -0.33821525100E+02  0.54447680975E+02  0.00000000000E+00 0.  1.
</event>
<event>
 4    1  0.1725802E+006  0.3132771E+02  0.7546771E-02  0.1408399E+00
         21   -1    0    0  503  501  0.00000000000E+00  0.00000000000E+00  0.67850760000E+02  0.67850760000E+02  0.00000000000E+00 0. -1.
         21   -1    0    0  501  502 -0.00000000000E+00 -0.00000000000E+00 -0.28400929196E+02  0.28400929196E+02  0.00000000000E+00 0. -1.
         21    1    1    2  503  504  0.16449333359E+02  0.26661677586E+02  0.53437204003E+02  0.61943202947E+02  0.00000000000E+00 0. -1.
         21    1    1    2  504  502 -0.16449333359E+02 -0.26661677586E+02 -0.13987373200E+02  0.34308486249E+02  0.00000000000E+00 0. -1.
</event>
<event>
 4    1  0.1725802E+006  0.4388079E+02  0.7546771E-02  0.1327131E+00
         21   -1    0    0  502  501  0.00000000000E+00  0.00000000000E+00  0.14462834169E+02  0.14462834169E+02  0.00000000000E+00 0. -1.
         21   -1    0    0  503  502 -0.00000000000E+00 -0.00000000000E+00 -0.31476925425E+03  0.31476925425E+03  0.00000000000E+00 0. -1.
         21    1    1    2  503  504  0.39460752467E+02 -0.19193030535E+02 -0.27520034065E+03  0.27867678573E+03  0.00000000000E+00 0. -1.
         21    1    1    2  504  501 -0.39460752467E+02  0.19193030535E+02 -0.25106079430E+02  0.50555302696E+02  0.00000000000E+00 0. -1.
</event>
<event>
 4    1  0.1725802E+006  0.2061376E+02  0.7546771E-02  0.1524851E+00
         21   -1    0    0  504  501  0.00000000000E+00  0.00000000000E+00  0.14487390378E+02  0.14487390378E+02  0.00000000000E+00 0.  1.
         21   -1    0    0  503  502 -0.00000000000E+00 -0.00000000000E+00 -0.43884541263E+02  0.43884541263E+02  0.00000000000E+00 0.  1.
         21    1    1    2  503  501 -0.46575475818E+01 -0.20080691225E+02  0.21090146691E+01  0.20721362224E+02  0.00000000000E+00 0.  1.
         21    1    1    2  504  502  0.46575475818E+01  0.20080691225E+02 -0.31506165554E+02  0.37650569417E+02  0.00000000000E+00 0.  1.
</event>
<event>
 4    1  0.1725802E+006  0.2430818E+02  0.7546771E-02  0.1476694E+00
         21   -1    0    0  503  501  0.00000000000E+00  0.00000000000E+00  0.81173779028E+01  0.81173779028E+01  0.00000000000E+00 0. -1.
         21   -1    0    0  501  502 -0.00000000000E+00 -0.00000000000E+00 -0.54816541653E+03  0.54816541653E+03  0.00000000000E+00 0. -1.
         21    1    1    2  503  504 -0.61474469877E+01 -0.23518007136E+02 -0.11007874952E+02  0.26684472546E+02  0.00000000000E+00 0. -1.
         21    1    1    2  504  502  0.61474469877E+01  0.23518007136E+02 -0.52904016368E+03  0.52959832189E+03  0.00000000000E+00 0. -1.
</event>
<event>
 4    1  0.1725802E+006  0.3047540E+02  0.7546771E-02  0.1415509E+00
         21   -1    0    0  504  501  0.00000000000E+00  0.00000000000E+00  0.80019990133E+02  0.80019990133E+02  0.00000000000E+00 0.  1.
         21   -1    0    0  503  502 -0.00000000000E+00 -0.00000000000E+00 -0.33721043729E+02  0.33721043729E+02  0.00000000000E+00 0.  1.
         21    1    1    2  503  501  0.16815037161E+02  0.25416617828E+02 -0.22905434729E+02  0.38123599996E+02  0.00000000000E+00 0.  1.
         21    1    1    2  504  502 -0.16815037161E+02 -0.25416617828E+02  0.69204381133E+02  0.75617433866E+02  0.00000000000E+00 0.  1.
</event>
<event>
 4    1  0.1725802E+006  0.2157452E+02  0.7546771E-02  0.1511218E+00
         21   -1    0    0  503  501  0.00000000000E+00  0.00000000000E+00  0.98020087474E+02  0.98020087474E+02  0.00000000000E+00 0.  1.
         21   -1    0    0  501  502 -0.00000000000E+00 -0.00000000000E+00 -0.70155491283E+02  0.70155491283E+02  0.00000000000E+00 0.  1.
         21    1    1    2  503  504 -0.91965910326E+01 -0.19516218581E+02  0.95124401064E+02  0.97540308346E+02  0.00000000000E+00 0.  1.
         21    1    1    2  504  502  0.91965910326E+01  0.19516218581E+02 -0.67259804874E+02  0.70635270411E+02  0.00000000000E+00 0.  1.
</event>
<event>
 4    1  0.1725802E+006  0.2263642E+02  0.7546771E-02  0.1497115E+00
         21   -1    0    0  504  501  0.00000000000E+00  0.00000000000E+00  0.18918468083E+03  0.18918468083E+03  0.00000000000E+00 0.  1.
         21   -1    0    0  503  502 -0.00000000000E+00 -0.00000000000E+00 -0.53526895100E+02  0.53526895100E+02  0.00000000000E+00 0. -1.
         21    1    1    2  503  501  0.15240066219E+02  0.16737619992E+02 -0.50416688873E+02  0.55265269910E+02  0.00000000000E+00 0. -1.
         21    1    1    2  504  502 -0.15240066219E+02 -0.16737619992E+02  0.18607447460E+03  0.18744630602E+03  0.00000000000E+00 0.  1.
</event>
<event>
 4    1  0.1725802E+006  0.2999029E+02  0.7546771E-02  0.1419681E+00
         21   -1    0    0  503  501  0.00000000000E+00  0.00000000000E+00  0.58217920771E+01  0.58217920771E+01  0.00000000000E+00 0.  1.
         21   -1    0    0  504  502 -0.00000000000E+00 -0.00000000000E+00 -0.18304420220E+04  0.18304420220E+04  0.00000000000E+00 0. -1.
         21    1    1    2  503  502  0.24618031528E+02  0.17128039721E+02 -0.33777898772E+02  0.45170384838E+02  0.00000000000E+00 0.  1.
         21    1    1    2  504  501 -0.24618031528E+02 -0.17128039721E+02 -0.17908423311E+04  0.17910934292E+04  0.00000000000E+00 0. -1.
</event>
<event>
 4    1  0.1725802E+006  0.2215405E+02  0.7546771E-02  0.1503403E+00
         21   -1    0    0  503  501  0.00000000000E+00  0.00000000000E+00  0.98033969214E+01  0.98033969214E+01  0.00000000000E+00 0. -1.
         21   -1    0    0  504  502 -0.00000000000E+00 -0.00000000000E+00 -0.50107800861E+02  0.50107800861E+02  0.00000000000E+00 0. -1.
         21    1    1    2  503  502  0.39303566352E+01  0.21802619525E+02 -0.19271359507E+02  0.29363024686E+02  0.00000000000E+00 0. -1.
         21    1    1    2  504  501 -0.39303566352E+01 -0.21802619525E+02 -0.21033044432E+02  0.30548173097E+02  0.00000000000E+00 0. -1.
</event>
<event>
 4    1  0.1725802E+006  0.2062362E+02  0.7546771E-02  0.1524707E+00
         21   -1    0    0  504  501  0.00000000000E+00  0.00000000000E+00  0.61072555499E+02  0.61072555499E+02  0.00000000000E+00 0.  1.
         21   -1    0    0  501  502 -0.00000000000E+00 -0.00000000000E+00 -0.50713259638E+02  0.50713259638E+02  0.00000000000E+00 0. -1.
         21    1    1    2  503  502 -0.20019905530E+02  0.49534970516E+01 -0.46733731853E+02  0.51082046194E+02  0.00000000000E+00 0. -1.
         21    1    1    2  504  503  0.20019905530E+02 -0.49534970516E+01  0.57093027714E+02  0.60703768944E+02  0.00000000000E+00 0.  1.
</event>
<event>
 4    1  0.1725802E+006  0.2035671E+02  0.7546771E-02  0.1528651E+00
         21   -1    0    0  503  501  0.00000000000E+00  0.00000000000E+00  0.66302140876E+03  0.66302140876E+03  0.00000000000E+00 0. -1.
         21   -1    0    0  504  502 -0.00000000000E+00 -0.00000000000E+00 -0.75296004528E+00  0.75296004528E+00  0.00000000000E+00 0. -1.
         21    1    1    2  503  502  0.11773276545E+02 -0.16606787780E+02  0.46794604976E+03  0.46838862169E+03  0.00000000000E+00 0. -1.
         21    1    1    2  504  501 -0.11773276545E+02  0.16606787780E+02  0.19432239896E+03  0.19538574712E+03  0.00000000000E+00 0. -1.
</event>
<event>
 4    1  0.1725802E+006  0.2183170E+02  0.7546771E-02  0.1507714E+00
         21   -1    0    0  502  501  0.00000000000E+00  0.00000000000E+00  0.52903756406E+03  0.52903756406E+03  0.00000000000E+00 0. -1.
         21   -1    0    0  504  502 -0.00000000000E+00 -0.00000000000E+00 -0.86352458145E+02  0.86352458145E+02  0.00000000000E+00 0. -1.
         21    1    1    2  503  501  0.14233577053E+02  0.16553805171E+02  0.52742824696E+03  0.52787989058E+03  0.00000000000E+00 0. -1.
         21    1    1    2  504  503 -0.14233577053E+02 -0.16553805171E+02 -0.84743141052E+02  0.87510131624E+02  0.00000000000E+00 0. -1.
</event>
<event>
 4    1  0.1725802E+006  0.2218415E+02  0.7546771E-02  0.1503005E+00
         21   -1    0    0  504  501  0.00000000000E+00  0.00000000000E+00  0.17549013258E+02  0.17549013258E+02  0.00000000000E+00 0.  1.
         21   -1    0    0  503  502 -0.00000000000E+00 -0.00000000000E+00 -0.29806620031E+02  0.29806620031E+02  0.00000000000E+00 0.  1.
         21    1    1    2  503  501  0.16139511265E+01 -0.22125365408E+02 -0.37016171584E+00  0.22187240756E+02  0.00000000000E+00 0.  1.
         21    1    1    2  504  502 -0.16139511265E+01  0.22125365408E+02 -0.11887445057E+02  0.25168392532E+02  0.00000000000E+00 0.  1.
</event>
<event>
 4    1  0.1725802E+006  0.2483415E+02  0.7546771E-02  0.1470667E+00
         21   -1    0    0  502  501  0.00000000000E+00  0.00000000000E+00  0.93044881380E+00  0.93044881380E+00  0.00000000000E+00 0.  1.
         21   -1    0    0  503  502 -0.00000000000E+00 -0.00000000000E+00 -0.83593491926E+03  0.83593491926E+03  0.00000000000E+00 0.  1.
         21    1    1    2  503  504 -0.13407069005E+01  0.24797929650E+02 -0.60791092320E+03  0.60841796929E+03  0.00000000000E+00 0.  1.
         21    1    1    2  504  501  0.13407069005E+01 -0.24797929650E+02 -0.22709354724E+03  0.22844739878E+03  0.00000000000E+00 0.  1.
</event>
<event>
 4    1  0.1725802E+006  0.2188423E+02  0.7546771E-02  0.1507005E+00
         21   -1    0    0  503  501  0.00000000000E+00  0.00000000000E+00  0.11170375355E+03  0.11170375355E+03  0.00000000000E+00 0. -1.
         21   -1    0    0  501  502 -0.00000000000E+00 -0.00000000000E+00 -0.57144077074E+01  0.57144077074E+01  0.00000000000E+00 0. -1.
         21    1    1    2  503  504 -0.96688289654E+01 -0.19632453044E+02  0.82332756871E+02  0.85191562494E+02  0.00000000000E+00 0. -1.
         21    1    1    2  504  502  0.96688289654E+01  0.19632453044E+02  0.23656588968E+02  0.32226598761E+02  0.00000000000E+00 0. -1.
</event>
<event>
 4    1  0.1725802E+006  0.2964154E+02  0.7546771E-02  0.1422737E+00
         21   -1    0    0  503  501  0.00000000000E+00  0.00000000000E+00  0.41795219932E+01  0.41795219932E+01  0.00000000000E+00 0. -1.
         21   -1    0    0  504  502 -0.00000000000E+00 -0.00000000000E+00 -0.22267937138E+03  0.22267937138E+03  0.00000000000E+00 0. -1.
         21    1    1    2  503  502  0.12812592410E+02 -0.26729352637E+02 -0.13608030221E+03  0.13927120831E+03  0.00000000000E+00 0. -1.
         21    1    1    2  504  501 -0.12812592410E+02  0.26729352637E+02 -0.82419547183E+02  0.87587685062E+02  0.00000000000E+00 0. -1.
</event>
<event>
 4    1  0.1725802E+006  0.2300299E+02  0.7546771E-02  0.1492461E+00
         21   -1    0    0  502  501  0.00000000000E+00  0.00000000000E+00  0.60180344073E+01  0.60180344073E+01  0.00000000000E+00 0. -1.
         21   -1    0    0  503  502 -0.00000000000E+00 -0.00000000000E+00 -0.24047578031E+03  0.24047578031E+03  0.00000000000E+00 0. -1.
         21    1    1    2  503  504 -0.10884050864E+02  0.20265120813E+02 -0.21539170972E+03  0.21661654208E+03  0.00000000000E+00 0. -1.
         21    1    1    2  504  501  0.10884050864E+02 -0.20265120813E+02 -0.19066036182E+02  0.29877272641E+02  0.00000000000E+00 0. -1.
</event>
<event>
 4    1  0.1725802E+006  0.2209927E+02  0.7546771E-02  0.1504129E+00
         21   -1    0    0  503  501  0.00000000000E+00  0.00000000000E+00  0.51942517958E+03  0.51942517958E+03  0.00000000000E+00 0. -1.
         21   -1    0    0  504  502 -0.00000000000E+00 -0.00000000000E+00 -0.98262183858E+00  0.98262183858E+00  0.00000000000E+00 0. -1.
         21    1    1    2  503  502 -0.53921970601E+00 -0.22092694497E+02  0.20517399935E+03  0.20636072281E+03  0.00000000000E+00 0. -1.
         21    1    1    2  504  501  0.53921970601E+00  0.22092694497E+02  0.31326855839E+03  0.31404707861E+03  0.00000000000E+00 0. -1.
</event>
<event>
 4    1  0.1725802E+006  0.2242583E+02  0.7546771E-02  0.1499837E+00
         21   -1    0    0  504  501  0.00000000000E+00  0.00000000000E+00  0.79878794775E+00  0.79878794775E+00  0.00000000000E+00 0.  1.
         21   -1    0    0  503  502 -0.00000000000E+00 -0.00000000000E+00 -0.65247388970E+03  0.65247388970E+03  0.00000000000E+00 0.  1.
         21    1    1    2  503  501 -0.11348109677E+02 -0.19342657322E+02 -0.26468142805E+03  0.26562977307E+03  0.00000000000E+00 0.  1.
         21    1    1    2  504  502  0.11348109677E+02  0.19342657322E+02 -0.38699367370E+03  0.38764290458E+03  0.00000000000E+00 0.  1.
</event>
<event>
 4    1  0.1725802E+006  0.3448578E+02  0.7546771E-02  0.1384215E+00
         21   -1    0    0  504  501  0.00000000000E+00  0.00000000000E+00  0.43335333829E+02  0.43335333829E+02  0.00000000000E+00 0. -1.
         21   -1    0    0  503  502 -0.00000000000E+00 -0.00000000000E+00 -0.33808154221E+02  0.33808154221E+02  0.00000000000E+00 0. -1.
         21    1    1    2  503  501 -0.17848875668E+02 -0.29507402526E+02 -0.11972313388E+02  0.36504868912E+02  0.00000000000E+00 0. -1.
         21    1    1    2  504  502  0.17848875668E+02  0.29507402526E+02  0.21499492996E+02  0.40638619138E+02  0.00000000000E+00 0. -1.
</event>
<event>
 4    1  0.1725802E+006  0.2109926E+02  0.7546771E-02  0.1517852E+00
         21   -1    0    0  503  501  0.00000000000E+00  0.00000000000E+00  0.28962497568E+01  0.28962497568E+01  0.00000000000E+00 0.  1.
         21   -1    0    0  504  502 -0.00000000000E+00 -0.00000000000E+00 -0.23501368704E+03  0.23501368704E+03  0.00000000000E+00 0.  1.
         21    1    1    2  503  502 -0.10017514980E+02  0.18569554316E+02 -0.18602591064E+03  0.18721863792E+03  0.00000000000E+00 0.  1.
         21    1    1    2  504  501  0.10017514980E+02 -0.18569554316E+02 -0.46091526642E+02  0.50691298879E+02  0.00000000000E+00 0.  1.
</event>
<event>
 4    1  0.1725802E+006  0.7363684E+02  0.7546771E-02  0.1219444E+00
         21   -1    0    0  503  501  0.00000000000E+00  0.00000000000E+00  0.12382406039E+03  0.12382406039E+03  0.00000000000E+00 0.  1.
         21   -1    0    0  501  502 -0.00000000000E+00 -0.00000000000E+00 -0.74654919693E+02  0.74654919693E+02  0.00000000000E+00 0.  1.
         21    1    1    2  503  504 -0.62584892955E+02 -0.38800963645E+02  0.88393375217E+02  0.11504682694E+03  0.00000000000E+00 0.  1.
         21    1    1    2  504  502  0.62584892955E+02  0.38800963645E+02 -0.39224234517E+02  0.83432153151E+02  0.00000000000E+00 0.  1.
</event>
<event>
 4    1  0.1725802E+006  0.2006559E+02  0.7546771E-02  0.1533035E+00
         21   -1    0    0  502  501  0.00000000000E+00  0.00000000000E+00  0.29645741441E+03  0.29645741441E+03  0.00000000000E+00 0.  1.
         21   -1    0    0  503  502 -0.00000000000E+00 -0.00000000000E+00 -0.30505691429E+01  0.30505691429E+01  0.00000000000E+00 0.  1.
         21    1    1    2  503  504  0.16279530436E+02 -0.11730499422E+02  0.35159864703E+02  0.40482635955E+02  0.00000000000E+00 0.  1.
         21    1    1    2  504  501 -0.16279530436E+02  0.11730499422E+02  0.25824698057E+03  0.25902534760E+03  0.00000000000E+00 0.  1.
</event>
<event>
 4    1  0.1725802E+006  0.2030902E+02  0.7546771E-02  0.1529363E+00
         21   -1    0    0  504  501  0.00000000000E+00  0.00000000000E+00  0.44814342763E+01  0.44814342763E+01  0.00000000000E+00 0. -1.
         21   -1    0    0  503  502 -0.00000000000E+00 -0.00000000000E+00 -0.19384236209E+03  0.19384236209E+03  0.00000000000E+00 0.  1.
         21    1    1    2  503  501  0.96465429076E+01 -0.17871778802E+02 -0.16654365940E+03  0.16777737259E+03  0.00000000000E+00 0.  1.
         21    1    1    2  504  502 -0.96465429076E+01  0.17871778802E+02 -0.22817268419E+02  0.30546423779E+02  0.00000000000E+00 0. -1.
</event>
<event>
 4    1  0.1725802E+006  0.2386872E+02  0.7546771E-02  0.1481868E+00
         21   -1    0    0  502  501  0.00000000000E+00  0.00000000000E+00  0.12955147957E+02  0.12955147957E+02  0.00000000000E+00 0. -1.
         21   -1    0    0  504  502 -0.00000000000E+00 -0.00000000000E+00 -0.43977123131E+02  0.43977123131E+02  0.00000000000E+00 0. -1.
         21    1    1    2  503  501 -0.12661181151E+02 -0.20233888170E+02 -0.15654090709E+02  0.28544111381E+02  0.00000000000E+00 0. -1.
         21    1    1    2  504  503  0.12661181151E+02  0.20233888170E+02 -0.15367884464E+02  0.28388159706E+02  0.00000000000E+00 0. -1.
</event>
<event>
 4    1  0.1725802E+006  0.2931202E+02  0.7546771E-02  0.1425671E+00
         21   -1    0    0  504  501  0.00000000000E+00  0.00000000000E+00  0.12004182953E+03  0.12004182953E+03  0.00000000000E+00 0.  1.
         21   -1    0    0  503  502 -0.00000000000E+00 -0.00000000000E+00 -0.12881062351E+03  0.12881062351E+03  0.00000000000E+00 0. -1.
         21    1    1    2  503  501  0.23590966854E+02 -0.17397145647E+02  0.11653550755E+03  0.12016538151E+03  0.00000000000E+00 0.  1.
         21    1    1    2  504  502 -0.23590966854E+02  0.17397145647E+02 -0.12530430153E+03  0.12868707152E+03  0.00000000000E+00 0. -1.
</event>
<event>
 4    1  0.1725802E+006  0.2603930E+02  0.7546771E-02  0.1457505E+00
         21   -1    0    0  504  501  0.00000000000E+00  0.00000000000E+00  0.38061170803E+01  0.38061170803E+01  0.00000000000E+00 0.  1.
         21   -1    0    0  503  502 -0.00000000000E+00 -0.00000000000E+00 -0.91778684715E+03  0.91778684715E+03  0.00000000000E+00 0. -1.
         21    1    1    2  503  501  0.11810641825E+02 -0.23206764942E+02 -0.87065522732E+03  0.87104452817E+03  0.00000000000E+00 0. -1.
         21    1    1    2  504  502 -0.11810641825E+02  0.23206764942E+02 -0.43325502748E+02  0.50548436056E+02  0.00000000000E+00 0.  1.
</event>
<event>
 4    1  0.1725802E+006  0.3148957E+02  0.7546771E-02  0.1407079E+00
         21   -1    0    0  504  501  0.00000000000E+00  0.00000000000E+00  0.70936619740E+02  0.70936619740E+02  0.00000000000E+00 0.  1.
         21   -1    0    0  503  502 -0.00000000000E+00 -0.00000000000E+00 -0.21200823380E+02  0.21200823380E+02  0.00000000000E+00 0.  1.
         21    1    1    2  503  501  0.22969860004E+02  0.21540160421E+02 -0.20205634425E+01  0.31554328645E+02  0.00000000000E+00 0.  1.
         21    1    1    2  504  502 -0.22969860004E+02 -0.21540160421E+02  0.51756359802E+02  0.60583114475E+02  0.00000000000E+00 0.  1.
</event>
<event>
 4    1  0.1725802E+006  0.4105878E+02  0.7546771E-02  0.1342391E+00
         21   -1    0    0  504  501  0.00000000000E+00  0.00000000000E+00  0.13816122407E+02  0.13816122407E+02  0.00000000000E+00 0. -1.
         21   -1    0    0  503  502 -0.00000000000E+00 -0.00000000000E+00 -0.14309953684E+03  0.14309953684E+03  0.00000000000E+00 0. -1.
         21    1    1    2  503  501  0.41058636946E+02 -0.10766642710E+00 -0.34528111413E+02  0.53647122361E+02  0.00000000000E+00 0. -1.
         21    1    1    2  504  502 -0.41058636946E+02  0.10766642710E+00 -0.94755303017E+02  0.10326853688E+03  0.00000000000E+00 0. -1.
</event>
<event>
 4    1  0.1725802E+006  0.4011327E+02  0.7546771E-02  0.1347823E+00
         21   -1    0    0  504  501  0.00000000000E+00  0.00000000000E+00  0.13816643087E+02  0.13816643087E+02  0.00000000000E+00 0.  1.
         21   -1    0    0  503  502 -0.00000000000E+00 -0.00000000000E+00 -0.12526044280E+03  0.12526044280E+03  0.00000000000E+00 0.  1.
         21    1    1    2  503  501  0.20437046951E+02 -0.34516679411E+02 -0.37289041808E+02  0.54768117410E+02  0.00000000000E+00 0.  1.
         21    1    1    2  504  502 -0.20437046951E+02  0.34516679411E+02 -0.74154757909E+02  0.84308968480E+02  0.00000000000E+00 0.  1.
</event>
<event>
 4    1  0.1725802E+006  0.3812847E+02  0.7546771E-02  0.1359816E+00
         21   -1    0    0  502  501  0.00000000000E+00  0.00000000000E+00  0.16485913741E+03  0.16485913741E+03  0.00000000000E+00 0. -1.
         21   -1    0    0  504  502 -0.00000000000E+00 -0.00000000000E+00 -0.18180604259E+02  0.18180604259E+02  0.00000000000E+00 0. -1.
         21    1    1    2  503  501  0.16315030037E+02  0.34461569629E+02  0.13901459355E+03  0.14414866356E+03  0.00000000000E+00 0. -1.
         21    1    1    2  504  503 -0.16315030037E+02 -0.34461569629E+02  0.76639396029E+01  0.38891078111E+02  0.00000000000E+00 0. -1.
</event>
<event>
 4    1  0.1725802E+006  0.2117525E+02  0.7546771E-02  0.1516777E+00
         21   -1    0    0  504  501  0.00000000000E+00  0.00000000000E+00  0.14343441890E+02  0.14343441890E+02  0.00000000000E+00 0.  1.
         21   -1    0    0  503  502 -0.00000000000E+00 -0.00000000000E+00 -0.36965124261E+03  0.36965124261E+03  0.00000000000E+00 0. -1.
         21    1    1    2  503  501  0.14475749102E+01 -0.21125710746E+02  0.60456157246E+01  0.22021366832E+02  0.00000000000E+00 0.  1.
         21    1    1    2  504  502 -0.14475749102E+01  0.21125710746E+02 -0.36135341644E+03  0.36197331767E+03  0.00000000000E+00 0. -1.
</event>
<event>
 4    1  0.1725802E+006  0.3284141E+02  0.7546771E-02  0.1396409E+00
         21   -1    0    0  504  501  0.00000000000E+00  0.00000000000E+00  0.92144648438E+02  0.92144648438E+02  0.00000000000E+00 0.  1.
         21   -1    0    0  501  502 -0.00000000000E+00 -0.00000000000E+00 -0.74778947812E+02  0.74778947812E+02  0.00000000000E+00 0.  1.
         21    1    1    2  503  502 -0.25753967263E+02  0.20378697986E+02 -0.67969041947E+02  0.75487408385E+02  0.00000000000E+00 0.  1.
         21    1    1    2  504  503  0.25753967263E+02 -0.20378697986E+02  0.85334742573E+02  0.91436187866E+02  0.00000000000E+00 0.  1.
</event>
<event>
 4    1  0.1725802E+006  0.2092541E+02  0.7546771E-02  0.1520332E+00
         21   -1    0    0  504  501  0.00000000000E+00  0.00000000000E+00  0.64384230972E+02  0.64384230972E+02  0.00000000000E+00 0. -1.
         21   -1    0    0  501  502 -0.00000000000E+00 -0.00000000000E+00 -0.26336856087E+03  0.26336856087E+03  0.00000000000E+00 0.  1.
         21    1    1    2  503  502 -0.20835224843E+02 -0.19406962528E+01 -0.26123884210E+03  0.26207557216E+03  0.00000000000E+00 0.  1.
         21    1    1    2  504  503  0.20835224843E+02  0.19406962528E+01  0.62254512205E+02  0.65677219689E+02  0.00000000000E+00 0. -1.
</event>
<event>
 4    1  0.1725802E+006  0.2963060E+02  0.7546771E-02  0.1422834E+00
         21   -1    0    0  504  501  0.00000000000E+00  0.00000000000E+00  0.66593607339E+02  0.66593607339E+02  0.00000000000E+00 0.  1.
         21   -1    0    0  503  502 -0.00000000000E+00 -0.00000000000E+00 -0.13214180239E+03  0.13214180239E+03  0.00000000000E+00 0. -1.
         21    1    1    2  503  501 -0.24094128282E+02 -0.17246611816E+02 -0.12705452500E+03  0.13046388373E+03  0.00000000000E+00 0. -1.
         21    1    1    2  504  502  0.24094128282E+02  0.17246611816E+02  0.61506329951E+02  0.68271525989E+02  0.00000000000E+00 0.  1.
</event>
<event>
 4    1  0.1725802E+006  0.3502000E+02  0.7546771E-02  0.1380423E+00
         21   -1    0    0  504  501  0.00000000000E+00  0.00000000000E+00  0.15985903109E+02  0.15985903109E+02  0.00000000000E+00 0. -1.
         21   -1    0    0  503  502 -0.00000000000E+00 -0.00000000000E+00 -0.76877627439E+02  0.76877627439E+02  0.00000000000E+00 0. -1.
         21    1    1    2  503  501  0.33792274739E+02 -0.91914244017E+01 -0.32564286340E+02  0.47820841266E+02  0.00000000000E+00 0. -1.
         21    1    1    2  504  502 -0.33792274739E+02  0.91914244017E+01 -0.28327437991E+02  0.45042689282E+02  0.00000000000E+00 0. -1.
</event>
<event>
 4    1  0.1725802E+006  0.2022998E+02  0.7546771E-02  0.1530549E+00
         21   -1    0    0  503  501  0.00000000000E+00  0.00000000000E+00  0.32793465566E+02  0.32793465566E+02  0.00000000000E+00 0. -1.
         21   -1    0    0  504  502 -0.00000000000E+00 -0.00000000000E+00 -0.15892035670E+02  0.15892035670E+02  0.00000000000E+00 0.  1.
         21    1    1    2  503  502 -0.20122861009E+02  0.20790750011E+01  0.19730654558E+02  0.28258641463E+02  0.00000000000E+00 0. -1.
         21    1    1    2  504  501  0.20122861009E+02 -0.20790750011E+01 -0.28292246611E+01  0.20426859774E+02  0.00000000000E+00 0.  1.
</event>
<event>
 4    1  0.1725802E+006  0.2238661E+02  0.7546771E-02  0.1500348E+00
         21   -1    0    0  502  501  0.00000000000E+00  0.00000000000E+00  0.54729841297E+03  0.54729841297E+03  0.00000000000E+00 0. -1.
         21   -1    0    0  504  502 -0.00000000000E+00 -0.00000000000E+00 -0.72678694261E+02  0.72678694261E+02  0.00000000000E+00 0. -1.
         21    1    1    2  503  501 -0.19178021534E+02  0.11548324671E+02  0.54533940823E+03  0.54579870876E+03  0.00000000000E+00 0. -1.
         21    1    1    2  504  503  0.19178021534E+02 -0.11548324671E+02 -0.70719689526E+02  0.74178398468E+02  0.00000000000E+00 0. -1.
</event>
<event>
 4    1  0.1725802E+006  0.2822134E+02  0.7546771E-02  0.1435711E+00
         21   -1    0    0  504  501  0.00000000000E+00  0.00000000000E+00  0.16964145173E+02  0.16964145173E+02  0.00000000000E+00 0. -1.
         21   -1    0    0  503  502 -0.00000000000E+00 -0.00000000000E+00 -0.59900696223E+02  0.59900696223E+02  0.00000000000E+00 0.  1.
         21    1    1    2  503  501  0.25574953878E+02  0.11931722289E+02 -0.39339341393E+02  0.48415163367E+02  0.00000000000E+00 0.  1.
         21    1    1    2  504  502 -0.25574953878E+02 -0.11931722289E+02 -0.35972096575E+01  0.28449678029E+02  0.00000000000E+00 0. -1.
</event>
<event>
 4    1  0.1725802E+006  0.4702269E+02  0.7546771E-02  0.1311624E+00
         21   -1    0    0  502  501  0.00000000000E+00  0.00000000000E+00  0.10510028704E+02  0.10510028704E+02  0.00000000000E+00 0.  1.
         21   -1    0    0  504  502 -0.00000000000E+00 -0.00000000000E+00 -0.12742019601E+04  0.12742019601E+04  0.00000000000E+00 0. -1.
         21    1    1    2  503  501  0.14174511548E+02 -0.44835438156E+02 -0.44910337780E+02  0.65023624412E+02  0.00000000000E+00 0.  1.
         21    1    1    2  504  503 -0.14174511548E+02  0.44835438156E+02 -0.12187815936E+04  0.12196883644E+04  0.00000000000E+00 0. -1.
</event>
<event>
 4    1  0.1725802E+006  0.2895808E+02  0.7546771E-02  0.1428872E+00
         21   -1    0    0  504  501  0.00000000000E+00  0.00000000000E+00  0.44130512983E+03  0.44130512983E+03  0.00000000000E+00 0.  1.
         21   -1    0    0  501  502 -0.00000000000E+00 -0.00000000000E+00 -0.64977041989E+01  0.64977041989E+01  0.00000000000E+00 0.  1.
         21    1    1    2  503  502 -0.28713467338E+02 -0.37559695781E+01  0.29065834858E+02  0.41029175840E+02  0.00000000000E+00 0.  1.
         21    1    1    2  504  503  0.28713467338E+02  0.37559695781E+01  0.40574159078E+03  0.40677365819E+03  0.00000000000E+00 0.  1.
</event>
<event>
 4    1  0.1725802E+006  0.2495299E+02  0.7546771E-02  0.1469330E+00
         21   -1    0    0  503  501  0.00000000000E+00  0.00000000000E+00  0.12448481076E+03  0.12448481076E+03  0.00000000000E+00 0. -1.
         21   -1    0    0  501  502 -0.00000000000E+00 -0.00000000000E+00 -0.83198699078E+02  0.83198699078E+02  0.00000000000E+00 0.  1.
         21    1    1    2  503  504 -0.24950502772E+02  0.35219996537E+00  0.12131499606E+03  0.12385467251E+03  0.00000000000E+00 0. -1.
         21    1    1    2  504  502  0.24950502772E+02 -0.35219996537E+00 -0.80028884376E+02  0.83828837329E+02  0.00000000000E+00 0.  1.
</event>
<event>
 4    1  0.1725802E+006  0.4417817E+02  0.7546771E-02  0.1325600E+00
         21   -1    0    0  503  501  0.00000000000E+00  0.00000000000E+00  0.20770823397E+02  0.20770823397E+02  0.00000000000E+00 0.  1.
         21   -1    0    0  504  502 -0.00000000000E+00 -0.00000000000E+00 -0.13692014175E+03  0.13692014175E+03  0.00000000000E+00 0. -1.
         21    1    1    2  503  502  0.44121010619E+02  0.22466299403E+01 -0.10223734408E+03  0.11137407889E+03  0.00000000000E+00 0. -1.
         21    1    1    2  504  501 -0.44121010619E+02 -0.22466299403E+01 -0.13911974270E+02  0.46316886254E+02  0.00000000000E+00 0.  1.
</event>
<event>
 4    1  0.1725802E+006  0.2620576E+02  0.7546771E-02  0.1455754E+00
         21   -1    0    0  504  501  0.00000000000E+00  0.00000000000E+00  0.75090557695E+02  0.75090557695E+02  0.00000000000E+00 0.  1.
         21   -1    0    0  503  502 -0.00000000000E+00 -0.00000000000E+00 -0.96624914452E+01  0.96624914452E+01  0.00000000000E+00 0.  1.
         21    1    1    2  503  501  0.12404838308E+02 -0.23083795211E+02  0.42516092085E+02  0.49943565161E+02  0.00000000000E+00 0.  1.
         21    1    1    2  504  502 -0.12404838308E+02  0.23083795211E+02  0.22911974165E+02  0.34809483979E+02  0.00000000000E+00 0.  1.
</event>
<event>
 4    1  0.1725802E+006  0.2950702E+02  0.7546771E-02  0.1423929E+00
         21   -1    0    0  504  501  0.00000000000E+00  0.00000000000E+00  0.99540135586E+02  0.99540135586E+02  0.00000000000E+00 0. -1.
         21   -1    0    0  501  502 -0.00000000000E+00 -0.00000000000E+00 -0.24893139543E+03  0.24893139543E+03  0.00000000000E+00 0. -1.
         21    1    1    2  503  502 -0.29390394144E+02 -0.26209065681E+01 -0.24584290326E+03  0.24760734542E+03  0.00000000000E+00 0. -1.
         21    1    1    2  504  503  0.29390394144E+02  0.26209065681E+01  0.96451643417E+02  0.10086418560E+03  0.00000000000E+00 0. -1.
</event>
<event>
 4    1  0.1725802E+006  0.3087462E+02  0.7546771E-02  0.1412145E+00
         21   -1    0    0  502  501  0.00000000000E+00  0.00000000000E+00  0.42585948718E+00  0.42585948718E+00  0.00000000000E+00 0. -1.
         21   -1    0    0  504  502 -0.00000000000E+00 -0.00000000000E+00 -0.23649070135E+04  0.23649070135E+04  0.00000000000E+00 0.  1.
         21    1    1    2  503  501  0.10456248083E+02 -0.29050110392E+02 -0.90870114019E+03  0.90922549690E+03  0.00000000000E+00 0. -1.
         21    1    1    2  504  503 -0.10456248083E+02  0.29050110392E+02 -0.14557800138E+04  0.14561073761E+04  0.00000000000E+00 0.  1.
</event>
<event>
 4    1  0.1725802E+006  0.2885362E+02  0.7546771E-02  0.1429827E+00
         21   -1    0    0  502  501  0.00000000000E+00  0.00000000000E+00  0.41691968616E+02  0.41691968616E+02  0.00000000000E+00 0. -1.
         21   -1    0    0  504  502 -0.00000000000E+00 -0.00000000000E+00 -0.25873863884E+02  0.25873863884E+02  0.00000000000E+00 0. -1.
         21    1    1    2  503  501  0.22077889966E+02  0.18576824339E+02  0.24048360994E+02  0.37561353734E+02  0.00000000000E+00 0. -1.
         21    1    1    2  504  503 -0.22077889966E+02 -0.18576824339E+02 -0.82302562629E+01  0.30004478766E+02  0.00000000000E+00 0. -1.
</event>
<event>
 4    1  0.1725802E+006  0.2930748E+02  0.7546771E-02  0.1425711E+00
         21   -1    0    0  504  501  0.00000000000E+00  0.00000000000E+00  0.19198535321E+03  0.19198535321E+03  0.00000000000E+00 0. -1.
         21   -1    0    0  503  502 -0.00000000000E+00 -0.00000000000E+00 -0.23825020073E+02  0.23825020073E+02  0.00000000000E+00 0.  1.
         21    1    1    2  503  501  0.17086248321E+02 -0.23811525905E+02  0.18132766138E+03  0.18368083577E+03  0.00000000000E+00 0. -1.
         21    1    1    2  504  502 -0.17086248321E+02  0.23811525905E+02 -0.13167328244E+02  0.32129537512E+02  0.00000000000E+00 0.  1.
</event>
<event>
 4    1  0.1725802E+006  0.2826624E+02  0.7546771E-02  0.1435287E+00
         21   -1    0    0  502  501  0.00000000000E+00  0.00000000000E+00  0.25088516779E+02  0.25088516779E+02  0.00000000000E+00 0. -1.
         21   -1    0    0  503  502 -0.00000000000E+00 -0.00000000000E+00 -0.34658610027E+02  0.34658610027E+02  0.00000000000E+00 0. -1.
         21    1    1    2  503  504 -0.19136302673E+01  0.28201393284E+02 -0.13294474062E+02  0.31236574789E+02  0.00000000000E+00 0. -1.
         21    1    1    2  504  501  0.19136302673E+01 -0.28201393284E+02  0.37243808139E+01  0.28510552018E+02  0.00000000000E+00 0. -1.
</event>
<event>
 4    1  0.1725802E+006  0.2503547E+02  0.7546771E-02  0.1468407E+00
         21   -1    0    0  503  501  0.00000000000E+00  0.00000000000E+00  0.10410980707E+04  0.10410980707E+04  0.00000000000E+00 0. -1.
         21   -1    0    0  501  502 -0.00000000000E+00 -0.00000000000E+00 -0.23466703677E+01  0.23466703677E+01  0.00000000000E+00 0.  1.
         21    1    1    2  503  504  0.18092546618E+02 -0.17304174667E+02  0.96922399847E+03  0.96954728297E+03  0.00000000000E+00 0. -1.
         21    1    1    2  504  502 -0.18092546618E+02  0.17304174667E+02  0.69527401909E+02  0.73897458145E+02  0.00000000000E+00 0.  1.
</event>
<event>
 4    1  0.1725802E+006  0.2014707E+02  0.7546771E-02  0.1531799E+00
         21   -1    0    0  504  501  0.00000000000E+00  0.00000000000E+00  0.12960457143E+02  0.12960457143E+02  0.00000000000E+00 0.  1.
         21   -1    0    0  503  502 -0.00000000000E+00 -0.00000000000E+00 -0.10294117104E+03  0.10294117104E+03  0.00000000000E+00 0.  1.
         21    1    1    2  503  501  0.20111056334E+02 -0.12040731087E+01 -0.93328471571E+02  0.95478311594E+02  0.00000000000E+00 0.  1.
         21    1    1    2  504  502 -0.20111056334E+02  0.12040731087E+01  0.33477576774E+01  0.20423316586E+02  0.00000000000E+00 0.  1.
</event>
<event>
 4    1  0.1725802E+006  0.9904708E+02  0.7546771E-02  0.1165470E+00
         21   -1    0    0  503  501  0.00000000000E+00  0.00000000000E+00  0.23842071400E+03  0.23842071400E+03  0.00000000000E+00 0. -1.
         21   -1    0    0  504  502 -0.00000000000E+00 -0.00000000000E+00 -0.22020474853E+03  0.22020474853E+03  0.00000000000E+00 0. -1.
         21    1    1    2  503  502  0.98953810586E+02  0.42972728903E+01  0.21588927936E+03  0.23752579676E+03  0.00000000000E+00 0. -1.
         21    1    1    2  504  501 -0.98953810586E+02 -0.42972728903E+01 -0.19767331389E+03  0.22109966578E+03  0.00000000000E+00 0. -1.
</event>
<event>
 4    1  0.1725802E+006  0.2276121E+02  0.7546771E-02  0.1495519E+00
         21   -1    0    0  503  501  0.00000000000E+00  0.00000000000E+00  0.31289562481E+02  0.31289562481E+02  0.00000000000E+00 0. -1.
         21   -1    0    0  501  502 -0.00000000000E+00 -0.00000000000E+00 -0.69265410685E+02  0.69265410685E+02  0.00000000000E+00 0. -1.
         21    1    1    2  503  504 -0.16690001949E+02  0.15476321076E+02  0.24870579750E+02  0.33713771907E+02  0.00000000000E+00 0. -1.
         21    1    1    2  504  502  0.16690001949E+02 -0.15476321076E+02 -0.62846427955E+02  0.66841201259E+02  0.00000000000E+00 0. -1.
</event>
<event>
 4    1  0.1725802E+006  0.2747571E+02  0.7546771E-02  0.1442887E+00
         21   -1    0    0  503  501  0.00000000000E+00  0.00000000000E+00  0.67439284380E+02  0.67439284380E+02  0.00000000000E+00 0. -1.
         21   -1    0    0  504  502 -0.00000000000E+00 -0.00000000000E+00 -0.51682693076E+02  0.51682693076E+02  0.00000000000E+00 0.  1.
         21    1    1    2  503  502 -0.17604678396E+02  0.21094780115E+02  0.60595974671E+02  0.66534100999E+02  0.00000000000E+00 0. -1.
         21    1    1    2  504  501  0.17604678396E+02 -0.21094780115E+02 -0.44839383367E+02  0.52587876457E+02  0.00000000000E+00 0.  1.
</event>
<event>
 4    1  0.1725802E+006  0.2765094E+02  0.7546771E-02  0.1441177E+00
         21   -1    0    0  503  501  0.00000000000E+00  0.00000000000E+00  0.20094270675E+03  0.20094270675E+03  0.00000000000E+00 0.  1.
         21   -1    0    0  501  502 -0.00000000000E+00 -0.00000000000E+00 -0.95738682739E+01  0.95738682739E+01  0.00000000000E+00 0. -1.
         21    1    1    2  503  504 -0.37841497122E+01 -0.27390774265E+02  0.17739160747E+03  0.17953372024E+03  0.00000000000E+00 0.  1.
         21    1    1    2  504  502  0.37841497122E+01  0.27390774265E+02  0.13977231010E+02  0.30982854784E+02  0.00000000000E+00 0. -1.
</event>
<event>
 4    1  0.1725802E+006  0.3270955E+02  0.7546771E-02  0.1397423E+00
         21   -1    0    0  502  501  0.00000000000E+00  0.00000000000E+00  0.40012483350E+03  0.40012483350E+03  0.00000000000E+00 0.  1.
         21   -1    0    0  504  502 -0.00000000000E+00 -0.00000000000E+00 -0.10915192490E+04  0.10915192490E+04  0.00000000000E+00 0.  1.
         21    1    1    2  503  501  0.23971825548E+01  0.32621590400E+02  0.39921073359E+03  0.40054852947E+03  0.00000000000E+00 0.  1.
         21    1    1    2  504  503 -0.23971825548E+01 -0.32621590400E+02 -0.10906051491E+04  0.10910955531E+04  0.00000000000E+00 0.  1.
</event>
<event>
 4    1  0.1725802E+006  0.2250317E+02  0.7546771E-02  0.1498833E+00
         21   -1    0    0  502  501  0.00000000000E+00  0.00000000000E+00  0.22951122186E+03  0.22951122186E+03  0.00000000000E+00 0.  1.
         21   -1    0    0  504  502 -0.00000000000E+00 -0.00000000000E+00 -0.25895764690E+02  0.25895764690E+02  0.00000000000E+00 0.  1.
         21    1    1    2  503  501  0.65518922777E+01  0.21528248996E+02  0.22394976168E+03  0.22507751677E+03  0.00000000000E+00 0.  1.
         21    1    1    2  504  503 -0.65518922777E+01 -0.21528248996E+02 -0.20334304512E+02  0.30329469782E+02  0.00000000000E+00 0.  1.
</event>
<event>
 4    1  0.1725802E+006  0.2179368E+02  0.7546771E-02  0.1508228E+00
         21   -1    0    0  504  501  0.00000000000E+00  0.00000000000E+00  0.24258831214E+03  0.24258831214E+03  0.00000000000E+00 0.  1.
         21   -1    0    0  501  502 -0.00000000000E+00 -0.00000000000E+00 -0.19991411421E+01  0.19991411421E+01  0.00000000000E+00 0.  1.
         21    1    1    2  503  502  0.18699337408E+02 -0.11193713583E+02  0.13785888005E+03  0.13957089686E+03  0.00000000000E+00 0.  1.
         21    1    1    2  504  503 -0.18699337408E+02  0.11193713583E+02  0.10273029095E+03  0.10501655642E+03  0.00000000000E+00 0.  1.
</event>
<event>
 4    1  0.1725802E+006  0.3054511E+02  0.7546771E-02  0.1414917E+00
         21   -1    0    0  503  501  0.00000000000E+00  0.00000000000E+00  0.13615316675E+04  0.13615316675E+04  0.00000000000E+00 0. -1.
         21   -1    0    0  504  502 -0.00000000000E+00 -0.00000000000E+00 -0.12635967248E+01  0.12635967248E+01  0.00000000000E+00 0. -1.
         21    1    1    2  503  502  0.11690982842E+02 -0.28219226829E+02  0.21914926264E+03  0.22126771829E+03  0.00000000000E+00 0. -1.
         21    1    1    2  504  501 -0.11690982842E+02  0.28219226829E+02  0.11411188081E+04  0.11415275459E+04  0.00000000000E+00 0. -1.
</event>
<event>
 4    1  0.1725802E+006  0.2327485E+02  0.7546771E-02  0.1489075E+00
         21   -1    0    0  503  501  0.00000000000E+00  0.00000000000E+00  0.34140715796E+03  0.34140715796E+03  0.00000000000E+00 0. -1.
         21   -1    0    0  504  502 -0.00000000000E+00 -0.00000000000E+00 -0.36819444216E+01  0.36819444216E+01  0.00000000000E+00 0. -1.
         21    1    1    2  503  502 -0.89936312632E+01  0.21467031130E+02  0.38702611182E+02  0.45162052003E+02  0.00000000000E+00 0. -1.
         21    1    1    2  504  501  0.89936312632E+01 -0.21467031130E+02  0.29902260236E+03  0.29992705038E+03  0.00000000000E+00 0. -1.
</event>
<event>
 4    1  0.1725802E+006  0.2889891E+02  0.7546771E-02  0.1429412E+00
         21   -1    0    0  502  501  0.00000000000E+00  0.00000000000E+00  0.41952522030E+02  0.41952522030E+02  0.00000000000E+00 0. -1.
         21   -1    0    0  504  502 -0.00000000000E+00 -0.00000000000E+00 -0.27873814925E+03  0.27873814925E+03  0.00000000000E+00 0.  1.
         21    1    1    2  503  501 -0.42129025069E+00  0.28895836282E+02  0.36120688343E+02  0.46258523175E+02  0.00000000000E+00 0. -1.
         21    1    1    2  504  503  0.42129025069E+00 -0.28895836282E+02 -0.27290631557E+03  0.27443214811E+03  0.00000000000E+00 0.  1.
</event>
<event>
 4    1  0.1725802E+006  0.2094434E+02  0.7546771E-02  0.1520061E+00
         21   -1    0    0  504  501  0.00000000000E+00  0.00000000000E+00  0.24298156203E+03  0.24298156203E+03  0.00000000000E+00 0.  1.
         21   -1    0    0  503  502 -0.00000000000E+00 -0.00000000000E+00 -0.10876655734E+02  0.10876655734E+02  0.00000000000E+00 0. -1.
         21    1    1    2  503  501 -0.20204940824E+02 -0.55159479716E+01  0.13506566077E+00  0.20944774013E+02  0.00000000000E+00 0. -1.
         21    1    1    2  504  502  0.20204940824E+02  0.55159479716E+01  0.23196984064E+03  0.23291344376E+03  0.00000000000E+00 0.  1.
</event>
<event>
 4    1  0.1725802E+006  0.2190113E+02  0.7546771E-02  0.1506778E+00
         21   -1    0    0  503  501  0.00000000000E+00  0.00000000000E+00  0.28125540042E+03  0.28125540042E+03  0.00000000000E+00 0. -1.
         21   -1    0    0  504  502 -0.00000000000E+00 -0.00000000000E+00 -0.18188015691E+01  0.18188015691E+01  0.00000000000E+00 0. -1.
         21    1    1    2  503  502 -0.20430072621E+02 -0.78912360688E+01  0.17505636836E+03  0.17642106330E+03  0.00000000000E+00 0. -1.
         21    1    1    2  504  501  0.20430072621E+02  0.78912360688E+01  0.10438023049E+03  0.10665313868E+03  0.00000000000E+00 0. -1.
</event>
<event>
 4    1  0.1725802E+006  0.2179634E+02  0.7546771E-02  0.1508192E+00
         21   -1    0    0  502  501  0.00000000000E+00  0.00000000000E+00  0.48459495141E+02  0.48459495141E+02  0.00000000000E+00 0.  1.
         21   -1    0    0  503  502 -0.00000000000E+00 -0.00000000000E+00 -0.10775475249E+02  0.10775475249E+02  0.00000000000E+00 0.  1.
         21    1    1    2  503  504 -0.13677068047E+02  0.16971105298E+02  0.99475223094E+01  0.23959002599E+02  0.00000000000E+00 0.  1.
         21    1    1    2  504  501  0.13677068047E+02 -0.16971105298E+02  0.27736497584E+02  0.35275967791E+02  0.00000000000E+00 0.  1.
</event>
<event>
 4    1  0.1725802E+006  0.2112224E+02  0.7546771E-02  0.1517527E+00
         21   -1    0    0  502  501  0.00000000000E+00  0.00000000000E+00  0.13016558716E+02  0.13016558716E+02  0.00000000000E+00 0. -1.
         21   -1    0    0  503  502 -0.00000000000E+00 -0.00000000000E+00 -0.16573761122E+03  0.16573761122E+03  0.00000000000E+00 0. -1.
         21    1    1    2  503  504  0.20993183867E+02 -0.23313431226E+01 -0.15596105749E+03  0.15738487978E+03  0.00000000000E+00 0. -1.
         21    1    1    2  504  501 -0.20993183867E+02  0.23313431226E+01  0.32400049838E+01  0.21369290160E+02  0.00000000000E+00 0. -1.
</event>
<event>
 4    1  0.1725802E+006  0.3338775E+02  0.7546771E-02  0.1392266E+00
         21   -1    0    0  504  501  0.00000000000E+00  0.00000000000E+00  0.19068654366E+01  0.19068654366E+01  0.00000000000E+00 0. -1.
         21   -1    0    0  503  502 -0.00000000000E+00 -0.00000000000E+00 -0.79499888874E+03  0.79499888874E+03  0.00000000000E+00 0. -1.
         21    1    1    2  503  501  0.16217108956E+02 -0.29184709611E+02 -0.19156118027E+03  0.19444903621E+03  0.00000000000E+00 0. -1.
         21    1    1    2  504  502 -0.16217108956E+02  0.29184709611E+02 -0.60153084304E+03  0.60245671797E+03  0.00000000000E+00 0. -1.
</event>
<event>
 4    1  0.1725802E+006  0.3260904E+02  0.7546771E-02  0.1398199E+00
         21   -1    0    0  504  501  0.00000000000E+00  0.00000000000E+00  0.16330812415E+02  0.16330812415E+02  0.00000000000E+00 0. -1.
         21   -1    0    0  503  502 -0.00000000000E+00 -0.00000000000E+00 -0.19118520366E+03  0.19118520366E+03  0.00000000000E+00 0. -1.
         21    1    1    2  503  501  0.26571364635E+02  0.18902693890E+02 -0.31705731167E+01  0.32762811063E+02  0.00000000000E+00 0. -1.
         21    1    1    2  504  502 -0.26571364635E+02 -0.18902693890E+02 -0.17168381813E+03  0.17475320501E+03  0.00000000000E+00 0. -1.
</event>
<event>
 4    1  0.1725802E+006  0.2072594E+02  0.7546771E-02  0.1523214E+00
         21   -1    0    0  503  501  0.00000000000E+00  0.00000000000E+00  0.58787805165E+03  0.58787805165E+03  0.00000000000E+00 0.  1.
         21   -1    0    0  501  502 -0.00000000000E+00 -0.00000000000E+00 -0.25516234393E+02  0.25516234393E+02  0.00000000000E+00 0. -1.
         21    1    1    2  503  504  0.26697755805E+01  0.20553274318E+02  0.58345473823E+03  0.58382274394E+03  0.00000000000E+00 0.  1.
         21    1    1    2  504  502 -0.26697755805E+01 -0.20553274318E+02 -0.21092920972E+02  0.29571542097E+02  0.00000000000E+00 0. -1.
</event>
<event>
 4    1  0.1725802E+006  0.2967077E+02  0.7546771E-02  0.1422479E+00
         21   -1    0    0  504  501  0.00000000000E+00  0.00000000000E+00  0.27148163204E+02  0.27148163204E+02  0.00000000000E+00 0. -1.
         21   -1    0    0  503  502 -0.00000000000E+00 -0.00000000000E+00 -0.34936572219E+02  0.34936572219E+02  0.00000000000E+00 0. -1.
         21    1    1    2  503  501 -0.15629001996E+02  0.25220801757E+02  0.44243414398E+01  0.29998822341E+02  0.00000000000E+00 0. -1.
         21    1    1    2  504  502  0.15629001996E+02 -0.25220801757E+02 -0.12212750455E+02  0.32085913083E+02  0.00000000000E+00 0. -1.
</event>
<event>
 4    1  0.1725802E+006  0.3222136E+02  0.7546771E-02  0.1401226E+00
         21   -1    0    0  503  501  0.00000000000E+00  0.00000000000E+00  0.17659958341E+02  0.17659958341E+02  0.00000000000E+00 0. -1.
         21   -1    0    0  504  502 -0.00000000000E+00 -0.00000000000E+00 -0.21388732226E+03  0.21388732226E+03  0.00000000000E+00 0.  1.
         21    1    1    2  503  502  0.23238094655E+02  0.22320551966E+02 -0.19670083773E+03  0.19932244141E+03  0.00000000000E+00 0.  1.
         21    1    1    2  504  501 -0.23238094655E+02 -0.22320551966E+02  0.47347381944E+00  0.32224839189E+02  0.00000000000E+00 0. -1.
</event>
<event>
 4    1  0.1725802E+006  0.3310877E+02  0.7546771E-02  0.1394370E+00
         21   -1    0    0  504  501  0.00000000000E+00  0.00000000000E+00  0.17556798364E+02  0.17556798364E+02  0.00000000000E+00 0.  1.
         21   -1    0    0  503  502 -0.00000000000E+00 -0.00000000000E+00 -0.69809591227E+02  0.69809591227E+02  0.00000000000E+00 0.  1.
         21    1    1    2  503  501 -0.11025470068E+02 -0.31219054859E+02 -0.11930177148E+02  0.35192605804E+02  0.00000000000E+00 0.  1.
         21    1    1    2  504  502  0.11025470068E+02  0.31219054859E+02 -0.40322615715E+02  0.52173783787E+02  0.00000000000E+00 0.  1.
</event>
