<event>
 4    1  0.5841374E+003  0.2003529E+02  0.7546771E-02  0.1533497E+00
          2   -1    0    0  501    0  0.00000000000E+00  0.00000000000E+00  0.65230481388E+02  0.65230481388E+02  0.00000000000E+00 0. -1.
         -2   -1    0    0    0  501 -0.00000000000E+00 -0.00000000000E+00 -0.92628712092E+01  0.92628712092E+01  0.00000000000E+00 0.  1.
          2    1    1    2  502    0 -0.81193942437E+01 -0.18316338426E+02  0.49562876124E+02  0.53459250892E+02  0.00000000000E+00 0. -1.
         -2    1    1    2    0  502  0.81193942437E+01  0.18316338426E+02  0.64047340546E+01  0.21034101705E+02  0.00000000000E+00 0.  1.
</event>
<event>
 4    1  0.5841374E+003  0.2204499E+02  0.7546771E-02  0.1504852E+00
          2   -1    0    0  501    0  0.00000000000E+00  0.00000000000E+00  0.10440839027E+04  0.10440839027E+04  0.00000000000E+00 0.  1.
         -2   -1    0    0    0  501 -0.00000000000E+00 -0.00000000000E+00 -0.27838517365E+01  0.27838517365E+01  0.00000000000E+00 0.  1.
          2    1    1    2  502    0  0.21736832669E+02  0.36730739635E+01  0.99832446255E+03  0.99856783139E+03  0.00000000000E+00 0.  1.
         -2    1    1    2    0  502 -0.21736832669E+02 -0.36730739635E+01  0.42975588440E+02  0.48299923071E+02  0.00000000000E+00 0.  1.
</event>
<event>
 4    1  0.5841374E+003  0.3242965E+02  0.7546771E-02  0.1399594E+00
          2   -1    0    0  501    0  0.00000000000E+00  0.00000000000E+00  0.28765373071E+02  0.28765373071E+02  0.00000000000E+00 0. -1.
         -2   -1    0    0    0  501 -0.00000000000E+00 -0.00000000000E+00 -0.36633147920E+02  0.36633147920E+02  0.00000000000E+00 0. -1.
          2    1    1    2  502    0  0.31969007802E+02 -0.54465071367E+01 -0.24796260585E+01  0.32524305453E+02  0.00000000000E+00 0. -1.
         -2    1    1    2    0  502 -0.31969007802E+02  0.54465071367E+01 -0.53881487908E+01  0.32874215538E+02  0.00000000000E+00 0. -1.
</event>
<event>
 4    1  0.5841374E+003  0.2192547E+02  0.7546771E-02  0.1506451E+00
          2   -1    0    0  501    0  0.00000000000E+00  0.00000000000E+00  0.18990076071E+04  0.18990076071E+04  0.00000000000E+00 0. -1.
         -2   -1    0    0    0  501 -0.00000000000E+00 -0.00000000000E+00 -0.40247316452E+00  0.40247316452E+00  0.00000000000E+00 0. -1.
          2    1    1    2  502    0 -0.21738856512E+02 -0.28545008988E+01  0.15277844754E+04  0.15279417951E+04  0.00000000000E+00 0. -1.
         -2    1    1    2    0  502  0.21738856512E+02  0.28545008988E+01  0.37082065858E+03  0.37146828517E+03  0.00000000000E+00 0. -1.
</event>
<event>
 4    1  0.5841374E+003  0.3881560E+02  0.7546771E-02  0.1355570E+00
          2   -1    0    0  501    0  0.00000000000E+00  0.00000000000E+00  0.68989183718E+03  0.68989183718E+03  0.00000000000E+00 0. -1.
         -2   -1    0    0    0  501 -0.00000000000E+00 -0.00000000000E+00 -0.15875931194E+03  0.15875931194E+03  0.00000000000E+00 0. -1.
          2    1    1    2  502    0  0.24309915956E+02  0.30260190630E+02  0.68696321728E+03  0.68805894591E+03  0.00000000000E+00 0. -1.
         -2    1    1    2    0  502 -0.24309915956E+02 -0.30260190630E+02 -0.15583069204E+03  0.16059220321E+03  0.00000000000E+00 0. -1.
</event>
<event>
 4    1  0.5841374E+003  0.2078150E+02  0.7546771E-02  0.1522408E+00
          2   -1    0    0  501    0  0.00000000000E+00  0.00000000000E+00  0.86113745539E+03  0.86113745539E+03  0.00000000000E+00 0. -1.
         -2   -1    0    0    0  501 -0.00000000000E+00 -0.00000000000E+00 -0.19377324127E+01  0.19377324127E+01  0.00000000000E+00 0.  1.
          2    1    1    2  502    0 -0.19010392965E+02  0.83949755563E+01  0.80111994959E+03  0.80138944608E+03  0.00000000000E+00 0. -1.
         -2    1    1    2    0  502  0.19010392965E+02 -0.83949755563E+01  0.58079773384E+02  0.61685741720E+02  0.00000000000E+00 0.  1.
</event>
<event>
 4    1  0.5841374E+003  0.2378308E+02  0.7546771E-02  0.1482892E+00
          2   -1    0    0  501    0  0.00000000000E+00  0.00000000000E+00  0.74617857488E+03  0.74617857488E+03  0.00000000000E+00 0.  1.
         -2   -1    0    0    0  501 -0.00000000000E+00 -0.00000000000E+00 -0.66750266595E+01  0.66750266595E+01  0.00000000000E+00 0.  1.
          2    1    1    2  502    0 -0.21363017745E+02 -0.10452583677E+02  0.72416036417E+03  0.72455080434E+03  0.00000000000E+00 0.  1.
         -2    1    1    2    0  502  0.21363017745E+02  0.10452583677E+02  0.15343184054E+02  0.28302797205E+02  0.00000000000E+00 0.  1.
</event>
<event>
 4    1  0.5841374E+003  0.2821166E+02  0.7546771E-02  0.1435802E+00
          2   -1    0    0  501    0  0.00000000000E+00  0.00000000000E+00  0.14145939271E+04  0.14145939271E+04  0.00000000000E+00 0. -1.
         -2   -1    0    0    0  501 -0.00000000000E+00 -0.00000000000E+00 -0.27023084790E+01  0.27023084790E+01  0.00000000000E+00 0.  1.
          2    1    1    2  502    0 -0.23730625833E+02 -0.15256320412E+02  0.13365212924E+04  0.13368190091E+04  0.00000000000E+00 0. -1.
         -2    1    1    2    0  502  0.23730625833E+02  0.15256320412E+02  0.75370326175E+02  0.80477226484E+02  0.00000000000E+00 0.  1.
</event>
<event>
 4    1  0.5841374E+003  0.2840692E+02  0.7546771E-02  0.1433965E+00
          2   -1    0    0  501    0  0.00000000000E+00  0.00000000000E+00  0.10783230015E+03  0.10783230015E+03  0.00000000000E+00 0.  1.
         -2   -1    0    0    0  501 -0.00000000000E+00 -0.00000000000E+00 -0.19706436447E+03  0.19706436447E+03  0.00000000000E+00 0. -1.
          2    1    1    2  502    0 -0.46200533541E+01  0.28028705666E+02  0.10490971557E+03  0.10868763341E+03  0.00000000000E+00 0.  1.
         -2    1    1    2    0  502  0.46200533541E+01 -0.28028705666E+02 -0.19414177989E+03  0.19620903122E+03  0.00000000000E+00 0. -1.
</event>
<event>
 4    1  0.5841374E+003  0.2168070E+02  0.7546771E-02  0.1509764E+00
          2   -1    0    0  501    0  0.00000000000E+00  0.00000000000E+00  0.48524048772E+03  0.48524048772E+03  0.00000000000E+00 0.  1.
         -2   -1    0    0    0  501 -0.00000000000E+00 -0.00000000000E+00 -0.13804620144E+03  0.13804620144E+03  0.00000000000E+00 0.  1.
          2    1    1    2  502    0  0.30056994280E+01 -0.21471337498E+02  0.48414512819E+03  0.48463033098E+03  0.00000000000E+00 0.  1.
         -2    1    1    2    0  502 -0.30056994280E+01  0.21471337498E+02 -0.13695084191E+03  0.13865635818E+03  0.00000000000E+00 0.  1.
</event>
<event>
 4    1  0.5841374E+003  0.3024055E+02  0.7546771E-02  0.1417517E+00
          2   -1    0    0  501    0  0.00000000000E+00  0.00000000000E+00  0.36410809563E+03  0.36410809563E+03  0.00000000000E+00 0. -1.
         -2   -1    0    0    0  501 -0.00000000000E+00 -0.00000000000E+00 -0.53090322505E+02  0.53090322505E+02  0.00000000000E+00 0. -1.
          2    1    1    2  502    0  0.30339358621E+01  0.30087976865E+02  0.35911411975E+03  0.36038513028E+03  0.00000000000E+00 0. -1.
         -2    1    1    2    0  502 -0.30339358621E+01 -0.30087976865E+02 -0.48096346626E+02  0.56813287859E+02  0.00000000000E+00 0. -1.
</event>
<event>
 4    1  0.5841374E+003  0.2655544E+02  0.7546771E-02  0.1452126E+00
          2   -1    0    0  501    0  0.00000000000E+00  0.00000000000E+00  0.67202435566E+03  0.67202435566E+03  0.00000000000E+00 0.  1.
         -2   -1    0    0    0  501 -0.00000000000E+00 -0.00000000000E+00 -0.42702768851E+02  0.42702768851E+02  0.00000000000E+00 0.  1.
          2    1    1    2  502    0 -0.77407759223E+01 -0.25402197227E+02  0.66760621962E+03  0.66813415996E+03  0.00000000000E+00 0.  1.
         -2    1    1    2    0  502  0.77407759223E+01  0.25402197227E+02 -0.38284632811E+02  0.46592964547E+02  0.00000000000E+00 0.  1.
</event>
<event>
 4    1  0.5841374E+003  0.3315846E+02  0.7546771E-02  0.1393993E+00
          2   -1    0    0  501    0  0.00000000000E+00  0.00000000000E+00  0.84933813960E+02  0.84933813960E+02  0.00000000000E+00 0. -1.
         -2   -1    0    0    0  501 -0.00000000000E+00 -0.00000000000E+00 -0.10533495632E+03  0.10533495632E+03  0.00000000000E+00 0.  1.
          2    1    1    2  502    0 -0.31644357404E+02 -0.99054599543E+01  0.78896456132E+02  0.85581156119E+02  0.00000000000E+00 0. -1.
         -2    1    1    2    0  502  0.31644357404E+02  0.99054599543E+01 -0.99297598490E+02  0.10468761416E+03  0.00000000000E+00 0.  1.
</event>
<event>
 4    1  0.5841374E+003  0.2898251E+02  0.7546771E-02  0.1428649E+00
          2   -1    0    0  501    0  0.00000000000E+00  0.00000000000E+00  0.36930438226E+03  0.36930438226E+03  0.00000000000E+00 0.  1.
         -2   -1    0    0    0  501 -0.00000000000E+00 -0.00000000000E+00 -0.83599275853E+01  0.83599275853E+01  0.00000000000E+00 0.  1.
          2    1    1    2  502    0  0.18793319248E+02 -0.22063481026E+02  0.34158127453E+03  0.34280862467E+03  0.00000000000E+00 0.  1.
         -2    1    1    2    0  502 -0.18793319248E+02  0.22063481026E+02  0.19363180148E+02  0.34855685172E+02  0.00000000000E+00 0.  1.
</event>
<event>
 4    1  0.5841374E+003  0.2682465E+02  0.7546771E-02  0.1449378E+00
          2   -1    0    0  501    0  0.00000000000E+00  0.00000000000E+00  0.11472968524E+03  0.11472968524E+03  0.00000000000E+00 0. -1.
         -2   -1    0    0    0  501 -0.00000000000E+00 -0.00000000000E+00 -0.15317699462E+02  0.15317699462E+02  0.00000000000E+00 0. -1.
          2    1    1    2  502    0  0.77877002303E+01 -0.25669310561E+02  0.99674998166E+02  0.10322144660E+03  0.00000000000E+00 0. -1.
         -2    1    1    2    0  502 -0.77877002303E+01  0.25669310561E+02 -0.26301238293E+00  0.26825938103E+02  0.00000000000E+00 0. -1.
</event>
<event>
 4    1  0.5841374E+003  0.2573170E+02  0.7546771E-02  0.1460782E+00
          2   -1    0    0  501    0  0.00000000000E+00  0.00000000000E+00  0.99092389552E+03  0.99092389552E+03  0.00000000000E+00 0. -1.
         -2   -1    0    0    0  501 -0.00000000000E+00 -0.00000000000E+00 -0.43948889447E+01  0.43948889447E+01  0.00000000000E+00 0. -1.
          2    1    1    2  502    0 -0.11727124206E+01 -0.25704958600E+02  0.95153375469E+03  0.95188161369E+03  0.00000000000E+00 0. -1.
         -2    1    1    2    0  502  0.11727124206E+01  0.25704958600E+02  0.34995251882E+02  0.43437170779E+02  0.00000000000E+00 0. -1.
</event>
<event>
 4    1  0.5841374E+003  0.2141766E+02  0.7546771E-02  0.1513385E+00
          2   -1    0    0  501    0  0.00000000000E+00  0.00000000000E+00  0.13302674117E+04  0.13302674117E+04  0.00000000000E+00 0.  1.
         -2   -1    0    0    0  501 -0.00000000000E+00 -0.00000000000E+00 -0.33378957172E+01  0.33378957172E+01  0.00000000000E+00 0.  1.
          2    1    1    2  502    0 -0.12321616965E+02 -0.17518389710E+02  0.12948858102E+04  0.12950629242E+04  0.00000000000E+00 0.  1.
         -2    1    1    2    0  502  0.12321616965E+02  0.17518389710E+02  0.32043705795E+02  0.38542383213E+02  0.00000000000E+00 0.  1.
</event>
<event>
 4    1  0.5841374E+003  0.2848000E+02  0.7546771E-02  0.1433282E+00
          2   -1    0    0  501    0  0.00000000000E+00  0.00000000000E+00  0.45118987710E+02  0.45118987710E+02  0.00000000000E+00 0. -1.
         -2   -1    0    0    0  501 -0.00000000000E+00 -0.00000000000E+00 -0.41564780262E+02  0.41564780262E+02  0.00000000000E+00 0. -1.
          2    1    1    2  502    0  0.27383493091E+02 -0.78265244584E+01  0.34427414952E+02  0.44680611894E+02  0.00000000000E+00 0. -1.
         -2    1    1    2    0  502 -0.27383493091E+02  0.78265244584E+01 -0.30873207503E+02  0.42003156078E+02  0.00000000000E+00 0. -1.
</event>
<event>
 4    1  0.7144562E+003  0.3811735E+02  0.7546771E-02  0.1359886E+00
          2   -1    0    0  501    0  0.00000000000E+00  0.00000000000E+00  0.15267552617E+04  0.15267552617E+04  0.00000000000E+00 0. -1.
         -2   -1    0    0    0  501 -0.00000000000E+00 -0.00000000000E+00 -0.21774787043E+03  0.21774787043E+03  0.00000000000E+00 0. -1.
          2    1    1    2  502    0 -0.79307639728E+01  0.37283180859E+02  0.15248471264E+04  0.15253234711E+04  0.00000000000E+00 0. -1.
         -2    1    1    2    0  502  0.79307639728E+01 -0.37283180859E+02 -0.21583973508E+03  0.21917966108E+03  0.00000000000E+00 0. -1.
</event>
<event>
 4    1  0.5841374E+003  0.2337369E+02  0.7546771E-02  0.1487858E+00
          2   -1    0    0  501    0  0.00000000000E+00  0.00000000000E+00  0.93159108694E+03  0.93159108694E+03  0.00000000000E+00 0.  1.
         -2   -1    0    0    0  501 -0.00000000000E+00 -0.00000000000E+00 -0.25627365657E+01  0.25627365657E+01  0.00000000000E+00 0.  1.
          2    1    1    2  502    0  0.15204294859E+02  0.17752710048E+02  0.87468205458E+03  0.87499430050E+03  0.00000000000E+00 0.  1.
         -2    1    1    2    0  502 -0.15204294859E+02 -0.17752710048E+02  0.54346295794E+02  0.59159523010E+02  0.00000000000E+00 0.  1.
</event>
<event>
 4    1  0.5841374E+003  0.2703319E+02  0.7546771E-02  0.1447275E+00
          2   -1    0    0  501    0  0.00000000000E+00  0.00000000000E+00  0.90810322922E+01  0.90810322922E+01  0.00000000000E+00 0.  1.
         -2   -1    0    0    0  501 -0.00000000000E+00 -0.00000000000E+00 -0.10811538380E+03  0.10811538380E+03  0.00000000000E+00 0.  1.
          2    1    1    2  502    0 -0.16931130025E+02  0.21074390899E+02 -0.19888299388E+02  0.33560953029E+02  0.00000000000E+00 0.  1.
         -2    1    1    2    0  502  0.16931130025E+02 -0.21074390899E+02 -0.79146052124E+02  0.83635463067E+02  0.00000000000E+00 0.  1.
</event>
<event>
 4    1  0.5841374E+003  0.2514037E+02  0.7546771E-02  0.1467239E+00
          2   -1    0    0  501    0  0.00000000000E+00  0.00000000000E+00  0.95973826082E+03  0.95973826082E+03  0.00000000000E+00 0.  1.
         -2   -1    0    0    0  501 -0.00000000000E+00 -0.00000000000E+00 -0.59639319862E+01  0.59639319862E+01  0.00000000000E+00 0.  1.
          2    1    1    2  502    0  0.19089274808E+02  0.16359635176E+02  0.93229983122E+03  0.93263873680E+03  0.00000000000E+00 0.  1.
         -2    1    1    2    0  502 -0.19089274808E+02 -0.16359635176E+02  0.21474497617E+02  0.33063456015E+02  0.00000000000E+00 0.  1.
</event>
<event>
 4    1  0.5841374E+003  0.4543717E+02  0.7546771E-02  0.1319268E+00
          2   -1    0    0  501    0  0.00000000000E+00  0.00000000000E+00  0.82538064620E+02  0.82538064620E+02  0.00000000000E+00 0.  1.
         -2   -1    0    0    0  501 -0.00000000000E+00 -0.00000000000E+00 -0.85068468762E+02  0.85068468762E+02  0.00000000000E+00 0. -1.
          2    1    1    2  502    0 -0.45185092028E+02  0.47795412337E+01  0.69147724859E+02  0.82740222439E+02  0.00000000000E+00 0.  1.
         -2    1    1    2    0  502  0.45185092028E+02 -0.47795412337E+01 -0.71678129001E+02  0.84866310943E+02  0.00000000000E+00 0. -1.
</event>
<event>
 4    1  0.5841374E+003  0.2131121E+02  0.7546771E-02  0.1514868E+00
          2   -1    0    0  501    0  0.00000000000E+00  0.00000000000E+00  0.62524533253E+02  0.62524533253E+02  0.00000000000E+00 0. -1.
         -2   -1    0    0    0  501 -0.00000000000E+00 -0.00000000000E+00 -0.67213100703E+02  0.67213100703E+02  0.00000000000E+00 0. -1.
          2    1    1    2  502    0  0.11571996576E+02 -0.17895708511E+02  0.58919098509E+02  0.62654829478E+02  0.00000000000E+00 0. -1.
         -2    1    1    2    0  502 -0.11571996576E+02  0.17895708511E+02 -0.63607665959E+02  0.67082804478E+02  0.00000000000E+00 0. -1.
</event>
<event>
 4    1  0.5841374E+003  0.3451611E+02  0.7546771E-02  0.1383997E+00
          2   -1    0    0  501    0  0.00000000000E+00  0.00000000000E+00  0.88312608179E+03  0.88312608179E+03  0.00000000000E+00 0. -1.
         -2   -1    0    0    0  501 -0.00000000000E+00 -0.00000000000E+00 -0.25738029909E+01  0.25738029909E+01  0.00000000000E+00 0.  1.
          2    1    1    2  502    0 -0.32535406973E+02  0.11524277072E+02  0.74576622873E+03  0.74656455152E+03  0.00000000000E+00 0. -1.
         -2    1    1    2    0  502  0.32535406973E+02 -0.11524277072E+02  0.13478605006E+03  0.13913533326E+03  0.00000000000E+00 0.  1.
</event>
<event>
 4    1  0.5841374E+003  0.2010140E+02  0.7546771E-02  0.1532491E+00
          2   -1    0    0  501    0  0.00000000000E+00  0.00000000000E+00  0.28889100042E+02  0.28889100042E+02  0.00000000000E+00 0.  1.
         -2   -1    0    0    0  501 -0.00000000000E+00 -0.00000000000E+00 -0.48161503536E+03  0.48161503536E+03  0.00000000000E+00 0.  1.
          2    1    1    2  502    0  0.50952711933E+01  0.19444905094E+02  0.25155346013E+02  0.32200272603E+02  0.00000000000E+00 0.  1.
         -2    1    1    2    0  502 -0.50952711933E+01 -0.19444905094E+02 -0.47788128133E+03  0.47830386280E+03  0.00000000000E+00 0.  1.
</event>
<event>
 4    1  0.5841374E+003  0.2647541E+02  0.7546771E-02  0.1452950E+00
          2   -1    0    0  501    0  0.00000000000E+00  0.00000000000E+00  0.11762581307E+02  0.11762581307E+02  0.00000000000E+00 0. -1.
         -2   -1    0    0    0  501 -0.00000000000E+00 -0.00000000000E+00 -0.72039125378E+02  0.72039125378E+02  0.00000000000E+00 0.  1.
          2    1    1    2  502    0  0.23516303874E+02 -0.12162690553E+02 -0.12720793657E+02  0.29372881722E+02  0.00000000000E+00 0. -1.
         -2    1    1    2    0  502 -0.23516303874E+02  0.12162690553E+02 -0.47555750414E+02  0.54428824962E+02  0.00000000000E+00 0.  1.
</event>
<event>
 4    1  0.5841374E+003  0.2194558E+02  0.7546771E-02  0.1506181E+00
          2   -1    0    0  501    0  0.00000000000E+00  0.00000000000E+00  0.13299316618E+04  0.13299316618E+04  0.00000000000E+00 0. -1.
         -2   -1    0    0    0  501 -0.00000000000E+00 -0.00000000000E+00 -0.36429427703E+00  0.36429427703E+00  0.00000000000E+00 0.  1.
          2    1    1    2  502    0  0.21753327899E+02  0.28983820323E+01  0.61351311798E+03  0.61390549258E+03  0.00000000000E+00 0. -1.
         -2    1    1    2    0  502 -0.21753327899E+02 -0.28983820323E+01  0.71605424952E+03  0.71639046347E+03  0.00000000000E+00 0.  1.
</event>
<event>
 4    1  0.5841374E+003  0.2019576E+02  0.7546771E-02  0.1531064E+00
          2   -1    0    0  501    0  0.00000000000E+00  0.00000000000E+00  0.70354140923E+03  0.70354140923E+03  0.00000000000E+00 0.  1.
         -2   -1    0    0    0  501 -0.00000000000E+00 -0.00000000000E+00 -0.94949962067E+00  0.94949962067E+00  0.00000000000E+00 0. -1.
          2    1    1    2  502    0 -0.12802078187E+02 -0.15619710153E+02  0.57111224076E+03  0.57146921185E+03  0.00000000000E+00 0.  1.
         -2    1    1    2    0  502  0.12802078187E+02  0.15619710153E+02  0.13147966886E+03  0.13302169700E+03  0.00000000000E+00 0. -1.
</event>
<event>
 4    1  0.5841374E+003  0.2052925E+02  0.7546771E-02  0.1526093E+00
          2   -1    0    0  501    0  0.00000000000E+00  0.00000000000E+00  0.14276164355E+03  0.14276164355E+03  0.00000000000E+00 0. -1.
         -2   -1    0    0    0  501 -0.00000000000E+00 -0.00000000000E+00 -0.43495772475E+01  0.43495772475E+01  0.00000000000E+00 0.  1.
          2    1    1    2  502    0  0.13006043242E+02  0.15883736055E+02  0.11089880332E+03  0.11278295443E+03  0.00000000000E+00 0. -1.
         -2    1    1    2    0  502 -0.13006043242E+02 -0.15883736055E+02  0.27513262978E+02  0.34328266365E+02  0.00000000000E+00 0.  1.
</event>
<event>
 4    1  0.5841374E+003  0.3312613E+02  0.7546771E-02  0.1394238E+00
          2   -1    0    0  501    0  0.00000000000E+00  0.00000000000E+00  0.83419937598E+02  0.83419937598E+02  0.00000000000E+00 0.  1.
         -2   -1    0    0    0  501 -0.00000000000E+00 -0.00000000000E+00 -0.48963106172E+02  0.48963106172E+02  0.00000000000E+00 0.  1.
          2    1    1    2  502    0 -0.32111135988E+02 -0.81372847912E+01  0.73834369336E+02  0.80924993379E+02  0.00000000000E+00 0.  1.
         -2    1    1    2    0  502  0.32111135988E+02  0.81372847912E+01 -0.39377537910E+02  0.51458050391E+02  0.00000000000E+00 0.  1.
</event>
<event>
 4    1  0.5841374E+003  0.2369936E+02  0.7546771E-02  0.1483898E+00
          2   -1    0    0  501    0  0.00000000000E+00  0.00000000000E+00  0.22350813849E+03  0.22350813849E+03  0.00000000000E+00 0.  1.
         -2   -1    0    0    0  501 -0.00000000000E+00 -0.00000000000E+00 -0.40724032228E+02  0.40724032228E+02  0.00000000000E+00 0. -1.
          2    1    1    2  502    0 -0.22428407181E+02 -0.76567867365E+01  0.21936704349E+03  0.22064351248E+03  0.00000000000E+00 0.  1.
         -2    1    1    2    0  502  0.22428407181E+02  0.76567867365E+01 -0.36582937219E+02  0.43588658242E+02  0.00000000000E+00 0. -1.
</event>
<event>
 4    1  0.5841374E+003  0.2461500E+02  0.7546771E-02  0.1473157E+00
          2   -1    0    0  501    0  0.00000000000E+00  0.00000000000E+00  0.77573822261E+03  0.77573822261E+03  0.00000000000E+00 0. -1.
         -2   -1    0    0    0  501 -0.00000000000E+00 -0.00000000000E+00 -0.10294438566E+03  0.10294438566E+03  0.00000000000E+00 0.  1.
          2    1    1    2  502    0 -0.23948607228E+02 -0.56887933666E+01  0.77406836309E+03  0.77445963671E+03  0.00000000000E+00 0. -1.
         -2    1    1    2    0  502  0.23948607228E+02  0.56887933666E+01 -0.10127452613E+03  0.10422297156E+03  0.00000000000E+00 0.  1.
</event>
<event>
 4    1  0.5841374E+003  0.2190300E+02  0.7546771E-02  0.1506753E+00
          2   -1    0    0  501    0  0.00000000000E+00  0.00000000000E+00  0.13912458058E+04  0.13912458058E+04  0.00000000000E+00 0. -1.
         -2   -1    0    0    0  501 -0.00000000000E+00 -0.00000000000E+00 -0.86944506803E+00  0.86944506803E+00  0.00000000000E+00 0. -1.
          2    1    1    2  502    0  0.21837058146E+02  0.16983036019E+01  0.12358741263E+04  0.12360682009E+04  0.00000000000E+00 0. -1.
         -2    1    1    2    0  502 -0.21837058146E+02 -0.16983036019E+01  0.15450223448E+03  0.15604704997E+03  0.00000000000E+00 0. -1.
</event>
<event>
 4    1  0.5841374E+003  0.2148355E+02  0.7546771E-02  0.1512472E+00
          2   -1    0    0  501    0  0.00000000000E+00  0.00000000000E+00  0.69472750638E+02  0.69472750638E+02  0.00000000000E+00 0.  1.
         -2   -1    0    0    0  501 -0.00000000000E+00 -0.00000000000E+00 -0.20368719141E+02  0.20368719141E+02  0.00000000000E+00 0.  1.
          2    1    1    2  502    0  0.16893866072E+02  0.13271775923E+02  0.61426377843E+02  0.65074900245E+02  0.00000000000E+00 0.  1.
         -2    1    1    2    0  502 -0.16893866072E+02 -0.13271775923E+02 -0.12322346345E+02  0.24766569534E+02  0.00000000000E+00 0.  1.
</event>
<event>
 4    1  0.5841374E+003  0.2969278E+02  0.7546771E-02  0.1422285E+00
          2   -1    0    0  501    0  0.00000000000E+00  0.00000000000E+00  0.80158603657E+03  0.80158603657E+03  0.00000000000E+00 0.  1.
         -2   -1    0    0    0  501 -0.00000000000E+00 -0.00000000000E+00 -0.20449417072E+01  0.20449417072E+01  0.00000000000E+00 0.  1.
          2    1    1    2  502    0 -0.29327566677E+02 -0.46427366335E+01  0.67292774246E+03  0.67358251740E+03  0.00000000000E+00 0.  1.
         -2    1    1    2    0  502  0.29327566677E+02  0.46427366335E+01  0.12661335241E+03  0.13004846088E+03  0.00000000000E+00 0.  1.
</event>
<event>
 4    1  0.5841374E+003  0.2461827E+02  0.7546771E-02  0.1473119E+00
          2   -1    0    0  501    0  0.00000000000E+00  0.00000000000E+00  0.15420955062E+04  0.15420955062E+04  0.00000000000E+00 0.  1.
         -2   -1    0    0    0  501 -0.00000000000E+00 -0.00000000000E+00 -0.54731635497E+00  0.54731635497E+00  0.00000000000E+00 0.  1.
          2    1    1    2  502    0 -0.24574568239E+02  0.14661664087E+01  0.11803250994E+04  0.11805818054E+04  0.00000000000E+00 0.  1.
         -2    1    1    2    0  502  0.24574568239E+02 -0.14661664087E+01  0.36122309045E+03  0.36206101712E+03  0.00000000000E+00 0.  1.
</event>
<event>
 4    1  0.5841374E+003  0.2092600E+02  0.7546771E-02  0.1520324E+00
          2   -1    0    0  501    0  0.00000000000E+00  0.00000000000E+00  0.57630650001E+02  0.57630650001E+02  0.00000000000E+00 0.  1.
         -2   -1    0    0    0  501 -0.00000000000E+00 -0.00000000000E+00 -0.41384879386E+02  0.41384879386E+02  0.00000000000E+00 0. -1.
          2    1    1    2  502    0 -0.17152109618E+01  0.20855585998E+02  0.52855502750E+02  0.56847177475E+02  0.00000000000E+00 0.  1.
         -2    1    1    2    0  502  0.17152109618E+01 -0.20855585998E+02 -0.36609732135E+02  0.42168351911E+02  0.00000000000E+00 0. -1.
</event>
<event>
 4    1  0.5841374E+003  0.2062844E+02  0.7546771E-02  0.1524636E+00
          2   -1    0    0  501    0  0.00000000000E+00  0.00000000000E+00  0.29150843398E+03  0.29150843398E+03  0.00000000000E+00 0.  1.
         -2   -1    0    0    0  501 -0.00000000000E+00 -0.00000000000E+00 -0.30711681004E+01  0.30711681004E+01  0.00000000000E+00 0. -1.
          2    1    1    2  502    0  0.19371225795E+02  0.70914125467E+01  0.25090859838E+03  0.25175515340E+03  0.00000000000E+00 0.  1.
         -2    1    1    2    0  502 -0.19371225795E+02 -0.70914125467E+01  0.37528667494E+02  0.42824448678E+02  0.00000000000E+00 0. -1.
</event>
<event>
 4    1  0.5841374E+003  0.8919486E+02  0.7546771E-02  0.1183975E+00
          2   -1    0    0  501    0  0.00000000000E+00  0.00000000000E+00  0.12258973938E+04  0.12258973938E+04  0.00000000000E+00 0. -1.
         -2   -1    0    0    0  501 -0.00000000000E+00 -0.00000000000E+00 -0.20826725816E+02  0.20826725816E+02  0.00000000000E+00 0.  1.
          2    1    1    2  502    0  0.64862734360E+01 -0.88958707247E+02  0.11197361358E+04  0.11232830174E+04  0.00000000000E+00 0. -1.
         -2    1    1    2    0  502 -0.64862734360E+01  0.88958707247E+02  0.85334532212E+02  0.12344110226E+03  0.00000000000E+00 0.  1.
</event>
<event>
 4    1  0.5841374E+003  0.3070709E+02  0.7546771E-02  0.1413549E+00
          2   -1    0    0  501    0  0.00000000000E+00  0.00000000000E+00  0.23277143702E+04  0.23277143702E+04  0.00000000000E+00 0.  1.
         -2   -1    0    0    0  501 -0.00000000000E+00 -0.00000000000E+00 -0.12029411555E+01  0.12029411555E+01  0.00000000000E+00 0. -1.
          2    1    1    2  502    0 -0.29826287161E+02  0.73019101797E+01  0.21115951634E+04  0.21118184248E+04  0.00000000000E+00 0.  1.
         -2    1    1    2    0  502  0.29826287161E+02 -0.73019101797E+01  0.21491626565E+03  0.21709888654E+03  0.00000000000E+00 0. -1.
</event>
<event>
 4    1  0.5841374E+003  0.3654127E+02  0.7546771E-02  0.1370040E+00
          2   -1    0    0  501    0  0.00000000000E+00  0.00000000000E+00  0.63349936174E+02  0.63349936174E+02  0.00000000000E+00 0. -1.
         -2   -1    0    0    0  501 -0.00000000000E+00 -0.00000000000E+00 -0.22234113565E+02  0.22234113565E+02  0.00000000000E+00 0.  1.
          2    1    1    2  502    0  0.96490453349E+01 -0.35244293723E+02  0.30317447490E+02  0.47480648039E+02  0.00000000000E+00 0. -1.
         -2    1    1    2    0  502 -0.96490453349E+01  0.35244293723E+02  0.10798375119E+02  0.38103401700E+02  0.00000000000E+00 0.  1.
</event>
<event>
 4    1  0.5841374E+003  0.2395423E+02  0.7546771E-02  0.1480851E+00
          2   -1    0    0  501    0  0.00000000000E+00  0.00000000000E+00  0.39356166397E+03  0.39356166397E+03  0.00000000000E+00 0. -1.
         -2   -1    0    0    0  501 -0.00000000000E+00 -0.00000000000E+00 -0.94787673877E+01  0.94787673877E+01  0.00000000000E+00 0.  1.
          2    1    1    2  502    0  0.91430133358E+01  0.22140700970E+02  0.37741645006E+03  0.37817586135E+03  0.00000000000E+00 0. -1.
         -2    1    1    2    0  502 -0.91430133358E+01 -0.22140700970E+02  0.66664465190E+01  0.24864570004E+02  0.00000000000E+00 0.  1.
</event>
<event>
 4    1  0.5841374E+003  0.3376389E+02  0.7546771E-02  0.1389468E+00
          2   -1    0    0  501    0  0.00000000000E+00  0.00000000000E+00  0.25656708497E+03  0.25656708497E+03  0.00000000000E+00 0.  1.
         -2   -1    0    0    0  501 -0.00000000000E+00 -0.00000000000E+00 -0.30877889306E+02  0.30877889306E+02  0.00000000000E+00 0. -1.
          2    1    1    2  502    0 -0.32693106748E+02  0.84357079805E+01  0.24582490664E+03  0.24813279735E+03  0.00000000000E+00 0.  1.
         -2    1    1    2    0  502  0.32693106748E+02 -0.84357079805E+01 -0.20135710975E+02  0.39312176923E+02  0.00000000000E+00 0. -1.
</event>
<event>
 4    1  0.5841374E+003  0.2536509E+02  0.7546771E-02  0.1464760E+00
          2   -1    0    0  501    0  0.00000000000E+00  0.00000000000E+00  0.24775446609E+03  0.24775446609E+03  0.00000000000E+00 0. -1.
         -2   -1    0    0    0  501 -0.00000000000E+00 -0.00000000000E+00 -0.37750462041E+03  0.37750462041E+03  0.00000000000E+00 0.  1.
          2    1    1    2  502    0 -0.24630060024E+02 -0.60620019528E+01  0.24667731198E+03  0.24797799089E+03  0.00000000000E+00 0. -1.
         -2    1    1    2    0  502  0.24630060024E+02  0.60620019528E+01 -0.37642746630E+03  0.37728109561E+03  0.00000000000E+00 0.  1.
</event>
<event>
 4    1  0.5841374E+003  0.2093894E+02  0.7546771E-02  0.1520138E+00
          2   -1    0    0  501    0  0.00000000000E+00  0.00000000000E+00  0.32482268955E+03  0.32482268955E+03  0.00000000000E+00 0.  1.
         -2   -1    0    0    0  501 -0.00000000000E+00 -0.00000000000E+00 -0.31133436476E+01  0.31133436476E+01  0.00000000000E+00 0.  1.
          2    1    1    2  502    0 -0.19357211381E+01  0.20849272899E+02  0.28426206430E+03  0.28503220941E+03  0.00000000000E+00 0.  1.
         -2    1    1    2    0  502  0.19357211381E+01 -0.20849272899E+02  0.37447281596E+02  0.42903823788E+02  0.00000000000E+00 0.  1.
</event>
<event>
 4    1  0.5841374E+003  0.3649302E+02  0.7546771E-02  0.1370360E+00
          2   -1    0    0  501    0  0.00000000000E+00  0.00000000000E+00  0.27398366845E+03  0.27398366845E+03  0.00000000000E+00 0. -1.
         -2   -1    0    0    0  501 -0.00000000000E+00 -0.00000000000E+00 -0.12347973149E+02  0.12347973149E+02  0.00000000000E+00 0. -1.
          2    1    1    2  502    0  0.36417158357E+02  0.23518384613E+01  0.24229980938E+03  0.24503252476E+03  0.00000000000E+00 0. -1.
         -2    1    1    2    0  502 -0.36417158357E+02 -0.23518384613E+01  0.19335885921E+02  0.41299116835E+02  0.00000000000E+00 0. -1.
</event>
<event>
 4    1  0.5841374E+003  0.2051875E+02  0.7546771E-02  0.1526248E+00
          2   -1    0    0  501    0  0.00000000000E+00  0.00000000000E+00  0.76401655112E+02  0.76401655112E+02  0.00000000000E+00 0.  1.
         -2   -1    0    0    0  501 -0.00000000000E+00 -0.00000000000E+00 -0.12619301695E+03  0.12619301695E+03  0.00000000000E+00 0. -1.
          2    1    1    2  502    0 -0.11014611722E+01 -0.20489165702E+02  0.74165239363E+02  0.76951295360E+02  0.00000000000E+00 0.  1.
         -2    1    1    2    0  502  0.11014611722E+01  0.20489165702E+02 -0.12395660121E+03  0.12564337671E+03  0.00000000000E+00 0. -1.
</event>
<event>
 4    1  0.5841374E+003  0.3275113E+02  0.7546771E-02  0.1397102E+00
          2   -1    0    0  501    0  0.00000000000E+00  0.00000000000E+00  0.10382985653E+04  0.10382985653E+04  0.00000000000E+00 0. -1.
         -2   -1    0    0    0  501 -0.00000000000E+00 -0.00000000000E+00 -0.17777811404E+01  0.17777811404E+01  0.00000000000E+00 0.  1.
          2    1    1    2  502    0  0.11022303476E+02  0.30840639739E+02  0.85484145956E+03  0.85546861848E+03  0.00000000000E+00 0. -1.
         -2    1    1    2    0  502 -0.11022303476E+02 -0.30840639739E+02  0.18167932465E+03  0.18460772800E+03  0.00000000000E+00 0.  1.
</event>
<event>
 4    1  0.5908562E+003  0.2386460E+02  0.7546771E-02  0.1481918E+00
          2   -1    0    0  501    0  0.00000000000E+00  0.00000000000E+00  0.94013422335E+03  0.94013422335E+03  0.00000000000E+00 0. -1.
         -2   -1    0    0    0  501 -0.00000000000E+00 -0.00000000000E+00 -0.62094838334E+02  0.62094838334E+02  0.00000000000E+00 0. -1.
          2    1    1    2  502    0  0.95082750443E+01  0.21888623979E+02  0.93768384531E+03  0.93798748015E+03  0.00000000000E+00 0. -1.
         -2    1    1    2    0  502 -0.95082750443E+01 -0.21888623979E+02 -0.59644460297E+02  0.64241581535E+02  0.00000000000E+00 0. -1.
</event>
<event>
 4    1  0.5841374E+003  0.2691303E+02  0.7546771E-02  0.1448484E+00
          2   -1    0    0  501    0  0.00000000000E+00  0.00000000000E+00  0.11943530009E+02  0.11943530009E+02  0.00000000000E+00 0. -1.
         -2   -1    0    0    0  501 -0.00000000000E+00 -0.00000000000E+00 -0.64594363699E+02  0.64594363699E+02  0.00000000000E+00 0. -1.
          2    1    1    2  502    0 -0.26394226978E+02 -0.52588951640E+01 -0.16862347738E+02  0.31759250107E+02  0.00000000000E+00 0. -1.
         -2    1    1    2    0  502  0.26394226978E+02  0.52588951640E+01 -0.35788485951E+02  0.44778643602E+02  0.00000000000E+00 0. -1.
</event>
<event>
 4    1  0.5841374E+003  0.2467256E+02  0.7546771E-02  0.1472500E+00
          2   -1    0    0  501    0  0.00000000000E+00  0.00000000000E+00  0.13305124657E+04  0.13305124657E+04  0.00000000000E+00 0.  1.
         -2   -1    0    0    0  501 -0.00000000000E+00 -0.00000000000E+00 -0.26141593823E+02  0.26141593823E+02  0.00000000000E+00 0. -1.
          2    1    1    2  502    0 -0.10506127372E+02 -0.22323902201E+02  0.13245503634E+04  0.13247801329E+04  0.00000000000E+00 0.  1.
         -2    1    1    2    0  502  0.10506127372E+02  0.22323902201E+02 -0.20179491513E+02  0.31873926642E+02  0.00000000000E+00 0. -1.
</event>
<event>
 4    1  0.5841374E+003  0.2901547E+02  0.7546771E-02  0.1428349E+00
          2   -1    0    0  501    0  0.00000000000E+00  0.00000000000E+00  0.10231956716E+04  0.10231956716E+04  0.00000000000E+00 0. -1.
         -2   -1    0    0    0  501 -0.00000000000E+00 -0.00000000000E+00 -0.18443145636E+02  0.18443145636E+02  0.00000000000E+00 0. -1.
          2    1    1    2  502    0  0.12223843003E+02 -0.26314921524E+02  0.10114453540E+04  0.10118614537E+04  0.00000000000E+00 0. -1.
         -2    1    1    2    0  502 -0.12223843003E+02  0.26314921524E+02 -0.66928279979E+01  0.29777363536E+02  0.00000000000E+00 0. -1.
</event>
<event>
 4    1  0.5841374E+003  0.2104271E+02  0.7546771E-02  0.1518656E+00
          2   -1    0    0  501    0  0.00000000000E+00  0.00000000000E+00  0.79284425962E+03  0.79284425962E+03  0.00000000000E+00 0.  1.
         -2   -1    0    0    0  501 -0.00000000000E+00 -0.00000000000E+00 -0.14332304014E+02  0.14332304014E+02  0.00000000000E+00 0.  1.
          2    1    1    2  502    0  0.17383143129E+02  0.11858416685E+02  0.78490276821E+03  0.78518478797E+03  0.00000000000E+00 0.  1.
         -2    1    1    2    0  502 -0.17383143129E+02 -0.11858416685E+02 -0.63908126026E+01  0.21991775668E+02  0.00000000000E+00 0.  1.
</event>
<event>
 4    1  0.5841374E+003  0.2777131E+02  0.7546771E-02  0.1440010E+00
          2   -1    0    0  501    0  0.00000000000E+00  0.00000000000E+00  0.86358307313E+03  0.86358307313E+03  0.00000000000E+00 0. -1.
         -2   -1    0    0    0  501 -0.00000000000E+00 -0.00000000000E+00 -0.48044194859E+02  0.48044194859E+02  0.00000000000E+00 0. -1.
          2    1    1    2  502    0 -0.10776146365E+02  0.25595323123E+02  0.85932672057E+03  0.85977535356E+03  0.00000000000E+00 0. -1.
         -2    1    1    2    0  502  0.10776146365E+02 -0.25595323123E+02 -0.43787842304E+02  0.51851914428E+02  0.00000000000E+00 0. -1.
</event>
<event>
 4    1  0.5841374E+003  0.2242565E+02  0.7546771E-02  0.1499839E+00
          2   -1    0    0  501    0  0.00000000000E+00  0.00000000000E+00  0.19895043845E+04  0.19895043845E+04  0.00000000000E+00 0. -1.
         -2   -1    0    0    0  501 -0.00000000000E+00 -0.00000000000E+00 -0.36681285592E+00  0.36681285592E+00  0.00000000000E+00 0. -1.
          2    1    1    2  502    0 -0.63845691322E+01  0.21497607763E+02  0.15493029055E+04  0.15494651990E+04  0.00000000000E+00 0. -1.
         -2    1    1    2    0  502  0.63845691322E+01 -0.21497607763E+02  0.43983466618E+03  0.44040599841E+03  0.00000000000E+00 0. -1.
</event>
<event>
 4    1  0.5841374E+003  0.4031523E+02  0.7546771E-02  0.1346648E+00
          2   -1    0    0  501    0  0.00000000000E+00  0.00000000000E+00  0.33284643305E+02  0.33284643305E+02  0.00000000000E+00 0.  1.
         -2   -1    0    0    0  501 -0.00000000000E+00 -0.00000000000E+00 -0.96153203451E+02  0.96153203451E+02  0.00000000000E+00 0.  1.
          2    1    1    2  502    0  0.38957050692E+02  0.10376218372E+02  0.13968509163E+02  0.42666578894E+02  0.00000000000E+00 0.  1.
         -2    1    1    2    0  502 -0.38957050692E+02 -0.10376218372E+02 -0.76837069309E+02  0.86771267861E+02  0.00000000000E+00 0.  1.
</event>
<event>
 4    1  0.5841374E+003  0.3906302E+02  0.7546771E-02  0.1354066E+00
          2   -1    0    0  501    0  0.00000000000E+00  0.00000000000E+00  0.14343179334E+04  0.14343179334E+04  0.00000000000E+00 0.  1.
         -2   -1    0    0    0  501 -0.00000000000E+00 -0.00000000000E+00 -0.13320633139E+01  0.13320633139E+01  0.00000000000E+00 0.  1.
          2    1    1    2  502    0 -0.39021382579E+02  0.18031467031E+01  0.10385884945E+04  0.10393228472E+04  0.00000000000E+00 0.  1.
         -2    1    1    2    0  502  0.39021382579E+02 -0.18031467031E+01  0.39439737553E+03  0.39632714954E+03  0.00000000000E+00 0.  1.
</event>
<event>
 4    1  0.5841374E+003  0.2302841E+02  0.7546771E-02  0.1492142E+00
          2   -1    0    0  501    0  0.00000000000E+00  0.00000000000E+00  0.34361024222E+03  0.34361024222E+03  0.00000000000E+00 0.  1.
         -2   -1    0    0    0  501 -0.00000000000E+00 -0.00000000000E+00 -0.69288584974E+03  0.69288584974E+03  0.00000000000E+00 0.  1.
          2    1    1    2  502    0  0.19778429408E+02  0.11794968370E+02  0.34303274521E+03  0.34380484557E+03  0.00000000000E+00 0.  1.
         -2    1    1    2    0  502 -0.19778429408E+02 -0.11794968370E+02 -0.69230835274E+03  0.69269124638E+03  0.00000000000E+00 0.  1.
</event>
<event>
 4    1  0.5841374E+003  0.2290224E+02  0.7546771E-02  0.1493729E+00
          2   -1    0    0  501    0  0.00000000000E+00  0.00000000000E+00  0.15216991501E+03  0.15216991501E+03  0.00000000000E+00 0. -1.
         -2   -1    0    0    0  501 -0.00000000000E+00 -0.00000000000E+00 -0.66299041178E+01  0.66299041178E+01  0.00000000000E+00 0. -1.
          2    1    1    2  502    0  0.10980846967E+02 -0.20098097429E+02  0.12778560658E+03  0.12982169992E+03  0.00000000000E+00 0. -1.
         -2    1    1    2    0  502 -0.10980846967E+02  0.20098097429E+02  0.17754404306E+02  0.28978119204E+02  0.00000000000E+00 0. -1.
</event>
<event>
 4    1  0.5841374E+003  0.2039056E+02  0.7546771E-02  0.1528147E+00
          2   -1    0    0  501    0  0.00000000000E+00  0.00000000000E+00  0.70883960832E+03  0.70883960832E+03  0.00000000000E+00 0. -1.
         -2   -1    0    0    0  501 -0.00000000000E+00 -0.00000000000E+00 -0.33044286612E+02  0.33044286612E+02  0.00000000000E+00 0.  1.
          2    1    1    2  502    0  0.14573145122E+01 -0.20338420669E+02  0.70553263796E+03  0.70582722982E+03  0.00000000000E+00 0. -1.
         -2    1    1    2    0  502 -0.14573145122E+01  0.20338420669E+02 -0.29737316257E+02  0.36056665113E+02  0.00000000000E+00 0.  1.
</event>
<event>
 4    1  0.5841374E+003  0.3509375E+02  0.7546771E-02  0.1379905E+00
          2   -1    0    0  501    0  0.00000000000E+00  0.00000000000E+00  0.15958750314E+03  0.15958750314E+03  0.00000000000E+00 0.  1.
         -2   -1    0    0    0  501 -0.00000000000E+00 -0.00000000000E+00 -0.15244396916E+02  0.15244396916E+02  0.00000000000E+00 0. -1.
          2    1    1    2  502    0 -0.35045213621E+02  0.18450759725E+01  0.13359748054E+03  0.13812985959E+03  0.00000000000E+00 0.  1.
         -2    1    1    2    0  502  0.35045213621E+02 -0.18450759725E+01  0.10745625683E+02  0.36702040467E+02  0.00000000000E+00 0. -1.
</event>
<event>
 4    1  0.5841374E+003  0.2122487E+02  0.7546771E-02  0.1516078E+00
          2   -1    0    0  501    0  0.00000000000E+00  0.00000000000E+00  0.31336254861E+03  0.31336254861E+03  0.00000000000E+00 0. -1.
         -2   -1    0    0    0  501 -0.00000000000E+00 -0.00000000000E+00 -0.10624903616E+03  0.10624903616E+03  0.00000000000E+00 0. -1.
          2    1    1    2  502    0 -0.15478242283E+02 -0.14523053206E+02  0.31193831248E+03  0.31265956862E+03  0.00000000000E+00 0. -1.
         -2    1    1    2    0  502  0.15478242283E+02  0.14523053206E+02 -0.10482480003E+03  0.10695201615E+03  0.00000000000E+00 0. -1.
</event>
<event>
 4    1  0.5841374E+003  0.2847924E+02  0.7546771E-02  0.1433289E+00
          2   -1    0    0  501    0  0.00000000000E+00  0.00000000000E+00  0.41143555862E+03  0.41143555862E+03  0.00000000000E+00 0.  1.
         -2   -1    0    0    0  501 -0.00000000000E+00 -0.00000000000E+00 -0.46717725754E+02  0.46717725754E+02  0.00000000000E+00 0. -1.
          2    1    1    2  502    0 -0.13232230949E+02 -0.25218550832E+02  0.40655038735E+03  0.40754666567E+03  0.00000000000E+00 0.  1.
         -2    1    1    2    0  502  0.13232230949E+02  0.25218550832E+02 -0.41832554486E+02  0.50606618705E+02  0.00000000000E+00 0. -1.
</event>
<event>
 4    1  0.5841374E+003  0.2055033E+02  0.7546771E-02  0.1525783E+00
          2   -1    0    0  501    0  0.00000000000E+00  0.00000000000E+00  0.75017574768E+02  0.75017574768E+02  0.00000000000E+00 0. -1.
         -2   -1    0    0    0  501 -0.00000000000E+00 -0.00000000000E+00 -0.94789231693E+01  0.94789231693E+01  0.00000000000E+00 0. -1.
          2    1    1    2  502    0  0.15360779380E+02 -0.13651467023E+02  0.59692331157E+02  0.63130741275E+02  0.00000000000E+00 0. -1.
         -2    1    1    2    0  502 -0.15360779380E+02  0.13651467023E+02  0.58463204423E+01  0.21365756662E+02  0.00000000000E+00 0. -1.
</event>
<event>
 4    1  0.5841374E+003  0.2143494E+02  0.7546771E-02  0.1513145E+00
          2   -1    0    0  501    0  0.00000000000E+00  0.00000000000E+00  0.31076231681E+03  0.31076231681E+03  0.00000000000E+00 0. -1.
         -2   -1    0    0    0  501 -0.00000000000E+00 -0.00000000000E+00 -0.25032795629E+03  0.25032795629E+03  0.00000000000E+00 0.  1.
          2    1    1    2  502    0  0.86825356397E+01 -0.19597707796E+02  0.30993261469E+03  0.31067295059E+03  0.00000000000E+00 0. -1.
         -2    1    1    2    0  502 -0.86825356397E+01  0.19597707796E+02 -0.24949825417E+03  0.25041732251E+03  0.00000000000E+00 0.  1.
</event>
<event>
 4    1  0.5841374E+003  0.3121094E+02  0.7546771E-02  0.1409357E+00
          2   -1    0    0  501    0  0.00000000000E+00  0.00000000000E+00  0.79585781564E+03  0.79585781564E+03  0.00000000000E+00 0.  1.
         -2   -1    0    0    0  501 -0.00000000000E+00 -0.00000000000E+00 -0.46062150795E+01  0.46062150795E+01  0.00000000000E+00 0.  1.
          2    1    1    2  502    0 -0.30627342455E+02  0.60073613559E+01  0.73858379625E+03  0.73924295504E+03  0.00000000000E+00 0.  1.
         -2    1    1    2    0  502  0.30627342455E+02 -0.60073613559E+01  0.52667804318E+02  0.61221075684E+02  0.00000000000E+00 0.  1.
</event>
<event>
 4    1  0.5841374E+003  0.2096849E+02  0.7546771E-02  0.1519715E+00
          2   -1    0    0  501    0  0.00000000000E+00  0.00000000000E+00  0.23976654626E+03  0.23976654626E+03  0.00000000000E+00 0.  1.
         -2   -1    0    0    0  501 -0.00000000000E+00 -0.00000000000E+00 -0.81325102245E+01  0.81325102245E+01  0.00000000000E+00 0.  1.
          2    1    1    2  502    0 -0.18970677138E+02  0.89325837513E+01  0.22490057279E+03  0.22587595110E+03  0.00000000000E+00 0.  1.
         -2    1    1    2    0  502  0.18970677138E+02 -0.89325837513E+01  0.67334632453E+01  0.22023105385E+02  0.00000000000E+00 0.  1.
</event>
<event>
 4    1  0.5841374E+003  0.2870195E+02  0.7546771E-02  0.1431222E+00
          2   -1    0    0  501    0  0.00000000000E+00  0.00000000000E+00  0.76613862334E+03  0.76613862334E+03  0.00000000000E+00 0.  1.
         -2   -1    0    0    0  501 -0.00000000000E+00 -0.00000000000E+00 -0.22802606439E+01  0.22802606439E+01  0.00000000000E+00 0. -1.
          2    1    1    2  502    0  0.27670359355E+02 -0.76258354736E+01  0.66122761560E+03  0.66185025631E+03  0.00000000000E+00 0.  1.
         -2    1    1    2    0  502 -0.27670359355E+02  0.76258354736E+01  0.10263074710E+03  0.10656862767E+03  0.00000000000E+00 0. -1.
</event>
<event>
 4    1  0.5841374E+003  0.2515797E+02  0.7546771E-02  0.1467044E+00
          2   -1    0    0  501    0  0.00000000000E+00  0.00000000000E+00  0.75728187669E+03  0.75728187669E+03  0.00000000000E+00 0. -1.
         -2   -1    0    0    0  501 -0.00000000000E+00 -0.00000000000E+00 -0.12339766039E+02  0.12339766039E+02  0.00000000000E+00 0. -1.
          2    1    1    2  502    0 -0.24752547166E+02  0.44983197201E+01  0.74402162046E+03  0.74444683838E+03  0.00000000000E+00 0. -1.
         -2    1    1    2    0  502  0.24752547166E+02 -0.44983197201E+01  0.92049019040E+00  0.25174804342E+02  0.00000000000E+00 0. -1.
</event>
<event>
 4    1  0.5841374E+003  0.4604289E+02  0.7546771E-02  0.1316305E+00
          2   -1    0    0  501    0  0.00000000000E+00  0.00000000000E+00  0.32157061989E+04  0.32157061989E+04  0.00000000000E+00 0. -1.
         -2   -1    0    0    0  501 -0.00000000000E+00 -0.00000000000E+00 -0.85901160988E+02  0.85901160988E+02  0.00000000000E+00 0.  1.
          2    1    1    2  502    0 -0.36938082559E+02 -0.27486830704E+02  0.32093594567E+04  0.32096897155E+04  0.00000000000E+00 0. -1.
         -2    1    1    2    0  502  0.36938082559E+02  0.27486830704E+02 -0.79554418748E+02  0.91917644376E+02  0.00000000000E+00 0.  1.
</event>
<event>
 4    1  0.5841374E+003  0.2048269E+02  0.7546771E-02  0.1526780E+00
          2   -1    0    0  501    0  0.00000000000E+00  0.00000000000E+00  0.12989661770E+02  0.12989661770E+02  0.00000000000E+00 0.  1.
         -2   -1    0    0    0  501 -0.00000000000E+00 -0.00000000000E+00 -0.39389694652E+02  0.39389694652E+02  0.00000000000E+00 0.  1.
          2    1    1    2  502    0 -0.19583024671E+02  0.60037759108E+01 -0.24312564949E+02  0.31790580285E+02  0.00000000000E+00 0.  1.
         -2    1    1    2    0  502  0.19583024671E+02 -0.60037759108E+01 -0.20874679335E+01  0.20588776137E+02  0.00000000000E+00 0.  1.
</event>
<event>
 4    1  0.5841374E+003  0.2682462E+02  0.7546771E-02  0.1449378E+00
          2   -1    0    0  501    0  0.00000000000E+00  0.00000000000E+00  0.14037120016E+04  0.14037120016E+04  0.00000000000E+00 0. -1.
         -2   -1    0    0    0  501 -0.00000000000E+00 -0.00000000000E+00 -0.18402988534E+02  0.18402988534E+02  0.00000000000E+00 0.  1.
          2    1    1    2  502    0  0.12711125606E+02 -0.23621757567E+02  0.13937388632E+04  0.13939969795E+04  0.00000000000E+00 0. -1.
         -2    1    1    2    0  502 -0.12711125606E+02  0.23621757567E+02 -0.84298501646E+01  0.28118010572E+02  0.00000000000E+00 0.  1.
</event>
<event>
 4    1  0.5841374E+003  0.3868160E+02  0.7546771E-02  0.1356390E+00
          2   -1    0    0  501    0  0.00000000000E+00  0.00000000000E+00  0.94678610828E+03  0.94678610828E+03  0.00000000000E+00 0.  1.
         -2   -1    0    0    0  501 -0.00000000000E+00 -0.00000000000E+00 -0.16296885675E+03  0.16296885675E+03  0.00000000000E+00 0. -1.
          2    1    1    2  502    0  0.29102315216E+01  0.38571965254E+02  0.94408913821E+03  0.94488124483E+03  0.00000000000E+00 0.  1.
         -2    1    1    2    0  502 -0.29102315216E+01 -0.38571965254E+02 -0.16027188668E+03  0.16487372020E+03  0.00000000000E+00 0. -1.
</event>
<event>
 4    1  0.5841374E+003  0.2333583E+02  0.7546771E-02  0.1488324E+00
          2   -1    0    0  501    0  0.00000000000E+00  0.00000000000E+00  0.82592100755E+02  0.82592100755E+02  0.00000000000E+00 0.  1.
         -2   -1    0    0    0  501 -0.00000000000E+00 -0.00000000000E+00 -0.61252583052E+02  0.61252583052E+02  0.00000000000E+00 0. -1.
          2    1    1    2  502    0 -0.15257750935E+02  0.17656777428E+02  0.78610969438E+02  0.82001495528E+02  0.00000000000E+00 0.  1.
         -2    1    1    2    0  502  0.15257750935E+02 -0.17656777428E+02 -0.57271451735E+02  0.61843188280E+02  0.00000000000E+00 0. -1.
</event>
<event>
 4    1  0.5841374E+003  0.2795700E+02  0.7546771E-02  0.1438225E+00
          2   -1    0    0  501    0  0.00000000000E+00  0.00000000000E+00  0.56370084751E+02  0.56370084751E+02  0.00000000000E+00 0. -1.
         -2   -1    0    0    0  501 -0.00000000000E+00 -0.00000000000E+00 -0.40518314300E+03  0.40518314300E+03  0.00000000000E+00 0. -1.
          2    1    1    2  502    0  0.27749035230E+02 -0.34036222067E+01  0.52387117444E+02  0.59380162297E+02  0.00000000000E+00 0. -1.
         -2    1    1    2    0  502 -0.27749035230E+02  0.34036222067E+01 -0.40120017570E+03  0.40217306546E+03  0.00000000000E+00 0. -1.
</event>
<event>
 4    1  0.5841374E+003  0.2441446E+02  0.7546771E-02  0.1475461E+00
          2   -1    0    0  501    0  0.00000000000E+00  0.00000000000E+00  0.16786644367E+04  0.16786644367E+04  0.00000000000E+00 0. -1.
         -2   -1    0    0    0  501 -0.00000000000E+00 -0.00000000000E+00 -0.96997492037E+00  0.96997492037E+00  0.00000000000E+00 0.  1.
          2    1    1    2  502    0  0.16441395525E+02  0.18048450255E+02  0.15075047491E+04  0.15077024357E+04  0.00000000000E+00 0. -1.
         -2    1    1    2    0  502 -0.16441395525E+02 -0.18048450255E+02  0.17018971268E+03  0.17193197592E+03  0.00000000000E+00 0.  1.
</event>
<event>
 4    1  0.5841374E+003  0.2000715E+02  0.7546771E-02  0.1533926E+00
          2   -1    0    0  501    0  0.00000000000E+00  0.00000000000E+00  0.17354021790E+04  0.17354021790E+04  0.00000000000E+00 0. -1.
         -2   -1    0    0    0  501 -0.00000000000E+00 -0.00000000000E+00 -0.27230053620E+00  0.27230053620E+00  0.00000000000E+00 0.  1.
          2    1    1    2  502    0 -0.19571512420E+02 -0.41523345453E+01  0.12069383850E+04  0.12071042006E+04  0.00000000000E+00 0. -1.
         -2    1    1    2    0  502  0.19571512420E+02  0.41523345453E+01  0.52819149351E+03  0.52857027896E+03  0.00000000000E+00 0.  1.
</event>
<event>
 4    1  0.5841374E+003  0.2046833E+02  0.7546771E-02  0.1526993E+00
          2   -1    0    0  501    0  0.00000000000E+00  0.00000000000E+00  0.11176267957E+02  0.11176267957E+02  0.00000000000E+00 0. -1.
         -2   -1    0    0    0  501 -0.00000000000E+00 -0.00000000000E+00 -0.65226746407E+02  0.65226746407E+02  0.00000000000E+00 0. -1.
          2    1    1    2  502    0 -0.61955958552E+01  0.19508127191E+02 -0.21121540060E+01  0.20577017011E+02  0.00000000000E+00 0. -1.
         -2    1    1    2    0  502  0.61955958552E+01 -0.19508127191E+02 -0.51938324444E+02  0.55825997354E+02  0.00000000000E+00 0. -1.
</event>
<event>
 4    1  0.5841374E+003  0.6045839E+02  0.7546771E-02  0.1258283E+00
          2   -1    0    0  501    0  0.00000000000E+00  0.00000000000E+00  0.49284805800E+03  0.49284805800E+03  0.00000000000E+00 0.  1.
         -2   -1    0    0    0  501 -0.00000000000E+00 -0.00000000000E+00 -0.20615079847E+03  0.20615079847E+03  0.00000000000E+00 0. -1.
          2    1    1    2  502    0 -0.13032370962E+02  0.59037057622E+02  0.48650364579E+03  0.49024587121E+03  0.00000000000E+00 0.  1.
         -2    1    1    2    0  502  0.13032370962E+02 -0.59037057622E+02 -0.19980638626E+03  0.20875298527E+03  0.00000000000E+00 0. -1.
</event>
<event>
 4    1  0.5841374E+003  0.2464068E+02  0.7546771E-02  0.1472863E+00
          2   -1    0    0  501    0  0.00000000000E+00  0.00000000000E+00  0.98108296190E+03  0.98108296190E+03  0.00000000000E+00 0. -1.
         -2   -1    0    0    0  501 -0.00000000000E+00 -0.00000000000E+00 -0.33703700726E+02  0.33703700726E+02  0.00000000000E+00 0. -1.
          2    1    1    2  502    0 -0.21998668469E+02  0.11100532104E+02  0.97640297750E+03  0.97671384637E+03  0.00000000000E+00 0. -1.
         -2    1    1    2    0  502  0.21998668469E+02 -0.11100532104E+02 -0.29023716330E+02  0.38072816248E+02  0.00000000000E+00 0. -1.
</event>
<event>
 4    1  0.5841374E+003  0.2168760E+02  0.7546771E-02  0.1509670E+00
          2   -1    0    0  501    0  0.00000000000E+00  0.00000000000E+00  0.24633354146E+03  0.24633354146E+03  0.00000000000E+00 0. -1.
         -2   -1    0    0    0  501 -0.00000000000E+00 -0.00000000000E+00 -0.52465448158E+01  0.52465448158E+01  0.00000000000E+00 0. -1.
          2    1    1    2  502    0 -0.21339847859E+01  0.21582358903E+02  0.22086553684E+03  0.22192777534E+03  0.00000000000E+00 0. -1.
         -2    1    1    2    0  502  0.21339847859E+01 -0.21582358903E+02  0.20221459810E+02  0.29652310934E+02  0.00000000000E+00 0. -1.
</event>
<event>
 4    1  0.5841374E+003  0.3433675E+02  0.7546771E-02  0.1385287E+00
          2   -1    0    0  501    0  0.00000000000E+00  0.00000000000E+00  0.15595794592E+03  0.15595794592E+03  0.00000000000E+00 0. -1.
         -2   -1    0    0    0  501 -0.00000000000E+00 -0.00000000000E+00 -0.78177191860E+01  0.78177191860E+01  0.00000000000E+00 0. -1.
          2    1    1    2  502    0  0.31788660192E+02  0.12980493788E+02  0.88943654746E+02  0.95341417314E+02  0.00000000000E+00 0. -1.
         -2    1    1    2    0  502 -0.31788660192E+02 -0.12980493788E+02  0.59196571986E+02  0.68434247791E+02  0.00000000000E+00 0. -1.
</event>
<event>
 4    1  0.5841374E+003  0.2819021E+02  0.7546771E-02  0.1436005E+00
          2   -1    0    0  501    0  0.00000000000E+00  0.00000000000E+00  0.19162138299E+02  0.19162138299E+02  0.00000000000E+00 0.  1.
         -2   -1    0    0    0  501 -0.00000000000E+00 -0.00000000000E+00 -0.74412953276E+02  0.74412953276E+02  0.00000000000E+00 0. -1.
          2    1    1    2  502    0  0.27329790191E+01  0.28057416113E+02  0.35043400676E+01  0.28407185228E+02  0.00000000000E+00 0.  1.
         -2    1    1    2    0  502 -0.27329790191E+01 -0.28057416113E+02 -0.58755155045E+02  0.65167906347E+02  0.00000000000E+00 0. -1.
</event>
<event>
 4    1  0.5841374E+003  0.2023687E+02  0.7546771E-02  0.1530445E+00
          2   -1    0    0  501    0  0.00000000000E+00  0.00000000000E+00  0.36808693488E+03  0.36808693488E+03  0.00000000000E+00 0.  1.
         -2   -1    0    0    0  501 -0.00000000000E+00 -0.00000000000E+00 -0.11279646228E+01  0.11279646228E+01  0.00000000000E+00 0.  1.
          2    1    1    2  502    0 -0.15740724726E+02 -0.12718505913E+02  0.20503044903E+03  0.20602673573E+03  0.00000000000E+00 0.  1.
         -2    1    1    2    0  502  0.15740724726E+02  0.12718505913E+02  0.16192852123E+03  0.16318816378E+03  0.00000000000E+00 0.  1.
</event>
<event>
 4    1  0.5841374E+003  0.2448034E+02  0.7546771E-02  0.1474701E+00
          2   -1    0    0  501    0  0.00000000000E+00  0.00000000000E+00  0.29343092507E+03  0.29343092507E+03  0.00000000000E+00 0. -1.
         -2   -1    0    0    0  501 -0.00000000000E+00 -0.00000000000E+00 -0.38179936399E+02  0.38179936399E+02  0.00000000000E+00 0. -1.
          2    1    1    2  502    0 -0.32249840174E+01  0.24266988429E+02  0.28893529371E+03  0.28997050057E+03  0.00000000000E+00 0. -1.
         -2    1    1    2    0  502  0.32249840174E+01 -0.24266988429E+02 -0.33684305043E+02  0.41640360896E+02  0.00000000000E+00 0. -1.
</event>
<event>
 4    1  0.5841374E+003  0.2103731E+02  0.7546771E-02  0.1518733E+00
          2   -1    0    0  501    0  0.00000000000E+00  0.00000000000E+00  0.77887813300E+03  0.77887813300E+03  0.00000000000E+00 0.  1.
         -2   -1    0    0    0  501 -0.00000000000E+00 -0.00000000000E+00 -0.82970724428E+00  0.82970724428E+00  0.00000000000E+00 0.  1.
          2    1    1    2  502    0 -0.61615557081E+01 -0.20114757738E+02  0.60788653021E+03  0.60825044337E+03  0.00000000000E+00 0.  1.
         -2    1    1    2    0  502  0.61615557081E+01  0.20114757738E+02  0.17016189555E+03  0.17145739687E+03  0.00000000000E+00 0.  1.
</event>
<event>
 4    1  0.5841374E+003  0.3514873E+02  0.7546771E-02  0.1379521E+00
          2   -1    0    0  501    0  0.00000000000E+00  0.00000000000E+00  0.10700662965E+04  0.10700662965E+04  0.00000000000E+00 0.  1.
         -2   -1    0    0    0  501 -0.00000000000E+00 -0.00000000000E+00 -0.24898552771E+01  0.24898552771E+01  0.00000000000E+00 0. -1.
          2    1    1    2  502    0 -0.15499864257E+02  0.31546595190E+02  0.92651908473E+03  0.92718555200E+03  0.00000000000E+00 0.  1.
         -2    1    1    2    0  502  0.15499864257E+02 -0.31546595190E+02  0.14105735649E+03  0.14537059978E+03  0.00000000000E+00 0. -1.
</event>
<event>
 4    1  0.5841374E+003  0.3073417E+02  0.7546771E-02  0.1413322E+00
          2   -1    0    0  501    0  0.00000000000E+00  0.00000000000E+00  0.97530684067E+02  0.97530684067E+02  0.00000000000E+00 0.  1.
         -2   -1    0    0    0  501 -0.00000000000E+00 -0.00000000000E+00 -0.62840755686E+02  0.62840755686E+02  0.00000000000E+00 0. -1.
          2    1    1    2  502    0 -0.20962349214E+02  0.22475964223E+02  0.91093142659E+02  0.96138180198E+02  0.00000000000E+00 0.  1.
         -2    1    1    2    0  502  0.20962349214E+02 -0.22475964223E+02 -0.56403214277E+02  0.64233259555E+02  0.00000000000E+00 0. -1.
</event>
<event>
 4    1  0.5841374E+003  0.3417972E+02  0.7546771E-02  0.1386423E+00
          2   -1    0    0  501    0  0.00000000000E+00  0.00000000000E+00  0.42358623231E+03  0.42358623231E+03  0.00000000000E+00 0. -1.
         -2   -1    0    0    0  501 -0.00000000000E+00 -0.00000000000E+00 -0.30907847826E+01  0.30907847826E+01  0.00000000000E+00 0.  1.
          2    1    1    2  502    0 -0.25708461094E+01 -0.34082898780E+02  0.28025011708E+03  0.28232672804E+03  0.00000000000E+00 0. -1.
         -2    1    1    2    0  502  0.25708461094E+01  0.34082898780E+02  0.14024533044E+03  0.14435028905E+03  0.00000000000E+00 0.  1.
</event>
<event>
 4    1  0.5841374E+003  0.2202212E+02  0.7546771E-02  0.1505156E+00
          2   -1    0    0  501    0  0.00000000000E+00  0.00000000000E+00  0.13506362375E+04  0.13506362375E+04  0.00000000000E+00 0. -1.
         -2   -1    0    0    0  501 -0.00000000000E+00 -0.00000000000E+00 -0.73218387936E+01  0.73218387936E+01  0.00000000000E+00 0. -1.
          2    1    1    2  502    0  0.52356398983E+00  0.22015899094E+02  0.13337780279E+04  0.13339598201E+04  0.00000000000E+00 0. -1.
         -2    1    1    2    0  502 -0.52356398983E+00 -0.22015899094E+02  0.95363708063E+01  0.23998256194E+02  0.00000000000E+00 0. -1.
</event>
<event>
 4    1  0.5841374E+003  0.2021931E+02  0.7546771E-02  0.1530709E+00
          2   -1    0    0  501    0  0.00000000000E+00  0.00000000000E+00  0.13660489989E+02  0.13660489989E+02  0.00000000000E+00 0.  1.
         -2   -1    0    0    0  501 -0.00000000000E+00 -0.00000000000E+00 -0.31334916009E+02  0.31334916009E+02  0.00000000000E+00 0.  1.
          2    1    1    2  502    0  0.17177621264E+02  0.10665361660E+02 -0.40687659124E+01  0.20624632547E+02  0.00000000000E+00 0.  1.
         -2    1    1    2    0  502 -0.17177621264E+02 -0.10665361660E+02 -0.13605660107E+02  0.24370773451E+02  0.00000000000E+00 0.  1.
</event>
<event>
 4    1  0.5841374E+003  0.2377007E+02  0.7546771E-02  0.1483048E+00
          2   -1    0    0  501    0  0.00000000000E+00  0.00000000000E+00  0.34968619272E+03  0.34968619272E+03  0.00000000000E+00 0.  1.
         -2   -1    0    0    0  501 -0.00000000000E+00 -0.00000000000E+00 -0.15789499124E+02  0.15789499124E+02  0.00000000000E+00 0. -1.
          2    1    1    2  502    0  0.19765737605E+02 -0.13203479808E+02  0.34008388536E+03  0.34091357460E+03  0.00000000000E+00 0.  1.
         -2    1    1    2    0  502 -0.19765737605E+02  0.13203479808E+02 -0.61871917592E+01  0.24562117253E+02  0.00000000000E+00 0. -1.
</event>
<event>
 4    1  0.5841374E+003  0.2001578E+02  0.7546771E-02  0.1533794E+00
          2   -1    0    0  501    0  0.00000000000E+00  0.00000000000E+00  0.42652182851E+03  0.42652182851E+03  0.00000000000E+00 0. -1.
         -2   -1    0    0    0  501 -0.00000000000E+00 -0.00000000000E+00 -0.60266507524E+01  0.60266507524E+01  0.00000000000E+00 0. -1.
          2    1    1    2  502    0 -0.19810658664E+02  0.28582183531E+01  0.40895435561E+03  0.40944388698E+03  0.00000000000E+00 0. -1.
         -2    1    1    2    0  502  0.19810658664E+02 -0.28582183531E+01  0.11540822145E+02  0.23104592285E+02  0.00000000000E+00 0. -1.
</event>
<event>
 4    1  0.5841374E+003  0.2309877E+02  0.7546771E-02  0.1491262E+00
          2   -1    0    0  501    0  0.00000000000E+00  0.00000000000E+00  0.10106494926E+04  0.10106494926E+04  0.00000000000E+00 0. -1.
         -2   -1    0    0    0  501 -0.00000000000E+00 -0.00000000000E+00 -0.16306214573E+02  0.16306214573E+02  0.00000000000E+00 0.  1.
          2    1    1    2  502    0 -0.18673234111E+00  0.23098019850E+02  0.10022689036E+04  0.10025350411E+04  0.00000000000E+00 0. -1.
         -2    1    1    2    0  502  0.18673234111E+00 -0.23098019850E+02 -0.79256256296E+01  0.24420666075E+02  0.00000000000E+00 0.  1.
</event>
<event>
 4    1  0.5841374E+003  0.3347221E+02  0.7546771E-02  0.1391634E+00
          2   -1    0    0  501    0  0.00000000000E+00  0.00000000000E+00  0.41126599726E+03  0.41126599726E+03  0.00000000000E+00 0. -1.
         -2   -1    0    0    0  501 -0.00000000000E+00 -0.00000000000E+00 -0.22796046193E+02  0.22796046193E+02  0.00000000000E+00 0.  1.
          2    1    1    2  502    0 -0.41992411049E+01 -0.33207759374E+02  0.39788536051E+03  0.39929080758E+03  0.00000000000E+00 0. -1.
         -2    1    1    2    0  502  0.41992411049E+01  0.33207759374E+02 -0.94154094518E+01  0.34771235866E+02  0.00000000000E+00 0.  1.
</event>
<event>
 4    1  0.5841374E+003  0.2512132E+02  0.7546771E-02  0.1467451E+00
          2   -1    0    0  501    0  0.00000000000E+00  0.00000000000E+00  0.72307003794E+03  0.72307003794E+03  0.00000000000E+00 0. -1.
         -2   -1    0    0    0  501 -0.00000000000E+00 -0.00000000000E+00 -0.12559907987E+01  0.12559907987E+01  0.00000000000E+00 0. -1.
          2    1    1    2  502    0 -0.25111187985E+02  0.71353315682E+00  0.56095302489E+03  0.56151525092E+03  0.00000000000E+00 0. -1.
         -2    1    1    2    0  502  0.25111187985E+02 -0.71353315682E+00  0.16086102226E+03  0.16281077781E+03  0.00000000000E+00 0. -1.
</event>
<event>
 4    1  0.5841374E+003  0.3254512E+02  0.7546771E-02  0.1398695E+00
          2   -1    0    0  501    0  0.00000000000E+00  0.00000000000E+00  0.71146978148E+02  0.71146978148E+02  0.00000000000E+00 0. -1.
         -2   -1    0    0    0  501 -0.00000000000E+00 -0.00000000000E+00 -0.17868295712E+02  0.17868295712E+02  0.00000000000E+00 0. -1.
          2    1    1    2  502    0  0.20714544809E+02 -0.25101644746E+02  0.44818557393E+02  0.55388518868E+02  0.00000000000E+00 0. -1.
         -2    1    1    2    0  502 -0.20714544809E+02  0.25101644746E+02  0.84601250432E+01  0.33626754993E+02  0.00000000000E+00 0. -1.
</event>
<event>
 4    1  0.5841374E+003  0.2437037E+02  0.7546771E-02  0.1475972E+00
          2   -1    0    0  501    0  0.00000000000E+00  0.00000000000E+00  0.28378526611E+03  0.28378526611E+03  0.00000000000E+00 0.  1.
         -2   -1    0    0    0  501 -0.00000000000E+00 -0.00000000000E+00 -0.24877961197E+01  0.24877961197E+01  0.00000000000E+00 0.  1.
          2    1    1    2  502    0  0.19491704128E+02  0.14628342864E+02  0.19768115543E+03  0.19917769493E+03  0.00000000000E+00 0.  1.
         -2    1    1    2    0  502 -0.19491704128E+02 -0.14628342864E+02  0.83616314564E+02  0.87095367306E+02  0.00000000000E+00 0.  1.
</event>
<event>
 4    1  0.5841374E+003  0.2033841E+02  0.7546771E-02  0.1528924E+00
          2   -1    0    0  501    0  0.00000000000E+00  0.00000000000E+00  0.50573648431E+01  0.50573648431E+01  0.00000000000E+00 0.  1.
         -2   -1    0    0    0  501 -0.00000000000E+00 -0.00000000000E+00 -0.97839949914E+02  0.97839949914E+02  0.00000000000E+00 0. -1.
          2    1    1    2  502    0  0.16903915370E+02  0.11309672570E+02 -0.25554626963E+02  0.32660220570E+02  0.00000000000E+00 0.  1.
         -2    1    1    2    0  502 -0.16903915370E+02 -0.11309672570E+02 -0.67227958108E+02  0.70237094187E+02  0.00000000000E+00 0. -1.
</event>
<event>
 4    1  0.5841374E+003  0.2154324E+02  0.7546771E-02  0.1511648E+00
          2   -1    0    0  501    0  0.00000000000E+00  0.00000000000E+00  0.46756837738E+03  0.46756837738E+03  0.00000000000E+00 0.  1.
         -2   -1    0    0    0  501 -0.00000000000E+00 -0.00000000000E+00 -0.17241512591E+01  0.17241512591E+01  0.00000000000E+00 0.  1.
          2    1    1    2  502    0  0.20486090761E+02  0.66656750180E+01  0.38576547689E+03  0.38636655432E+03  0.00000000000E+00 0.  1.
         -2    1    1    2    0  502 -0.20486090761E+02 -0.66656750180E+01  0.80078749234E+02  0.82925974321E+02  0.00000000000E+00 0.  1.
</event>
<event>
 4    1  0.5841374E+003  0.3043864E+02  0.7546771E-02  0.1415822E+00
          2   -1    0    0  501    0  0.00000000000E+00  0.00000000000E+00  0.21798403077E+03  0.21798403077E+03  0.00000000000E+00 0. -1.
         -2   -1    0    0    0  501 -0.00000000000E+00 -0.00000000000E+00 -0.21095962093E+02  0.21095962093E+02  0.00000000000E+00 0.  1.
          2    1    1    2  502    0  0.35897735378E+01  0.30226222162E+02  0.20526507809E+03  0.20750967029E+03  0.00000000000E+00 0. -1.
         -2    1    1    2    0  502 -0.35897735378E+01 -0.30226222162E+02 -0.83770094192E+01  0.31570322568E+02  0.00000000000E+00 0.  1.
</event>
<event>
 4    1  0.5841374E+003  0.4630209E+02  0.7546771E-02  0.1315054E+00
          2   -1    0    0  501    0  0.00000000000E+00  0.00000000000E+00  0.46989678111E+03  0.46989678111E+03  0.00000000000E+00 0. -1.
         -2   -1    0    0    0  501 -0.00000000000E+00 -0.00000000000E+00 -0.11132150720E+03  0.11132150720E+03  0.00000000000E+00 0. -1.
          2    1    1    2  502    0  0.39763866579E+02 -0.23721686183E+02  0.46387924457E+03  0.46618433803E+03  0.00000000000E+00 0. -1.
         -2    1    1    2    0  502 -0.39763866579E+02  0.23721686183E+02 -0.10530397066E+03  0.11503395028E+03  0.00000000000E+00 0. -1.
</event>
<event>
 4    1  0.5841374E+003  0.2133983E+02  0.7546771E-02  0.1514468E+00
          2   -1    0    0  501    0  0.00000000000E+00  0.00000000000E+00  0.91684743912E+02  0.91684743912E+02  0.00000000000E+00 0.  1.
         -2   -1    0    0    0  501 -0.00000000000E+00 -0.00000000000E+00 -0.39292495615E+02  0.39292495615E+02  0.00000000000E+00 0. -1.
          2    1    1    2  502    0  0.13035050858E+02  0.16896033584E+02  0.87405803270E+02  0.89973123470E+02  0.00000000000E+00 0.  1.
         -2    1    1    2    0  502 -0.13035050858E+02 -0.16896033584E+02 -0.35013554974E+02  0.41004116057E+02  0.00000000000E+00 0. -1.
</event>
<event>
 4    1  0.5841374E+003  0.4051727E+02  0.7546771E-02  0.1345481E+00
          2   -1    0    0  501    0  0.00000000000E+00  0.00000000000E+00  0.47764320899E+03  0.47764320899E+03  0.00000000000E+00 0.  1.
         -2   -1    0    0    0  501 -0.00000000000E+00 -0.00000000000E+00 -0.13678894462E+02  0.13678894462E+02  0.00000000000E+00 0. -1.
          2    1    1    2  502    0 -0.26267241079E+02  0.30849327738E+02  0.44455189270E+03  0.44639448281E+03  0.00000000000E+00 0.  1.
         -2    1    1    2    0  502  0.26267241079E+02 -0.30849327738E+02  0.19412421828E+02  0.44927620647E+02  0.00000000000E+00 0. -1.
</event>
<event>
 4    1  0.5841374E+003  0.2279727E+02  0.7546771E-02  0.1495060E+00
          2   -1    0    0  501    0  0.00000000000E+00  0.00000000000E+00  0.57020143349E+00  0.57020143349E+00  0.00000000000E+00 0.  1.
         -2   -1    0    0    0  501 -0.00000000000E+00 -0.00000000000E+00 -0.12903477183E+04  0.12903477183E+04  0.00000000000E+00 0. -1.
          2    1    1    2  502    0 -0.20626711867E+02  0.97084602979E+01 -0.29512816658E+03  0.29600734814E+03  0.00000000000E+00 0.  1.
         -2    1    1    2    0  502  0.20626711867E+02 -0.97084602979E+01 -0.99464935031E+03  0.99491057162E+03  0.00000000000E+00 0. -1.
</event>
<event>
 4    1  0.5841374E+003  0.3921964E+02  0.7546771E-02  0.1353120E+00
          2   -1    0    0  501    0  0.00000000000E+00  0.00000000000E+00  0.29534703621E+03  0.29534703621E+03  0.00000000000E+00 0.  1.
         -2   -1    0    0    0  501 -0.00000000000E+00 -0.00000000000E+00 -0.14772987061E+02  0.14772987061E+02  0.00000000000E+00 0. -1.
          2    1    1    2  502    0  0.38244284336E+02  0.86922484287E+01  0.26505606637E+03  0.26794196906E+03  0.00000000000E+00 0.  1.
         -2    1    1    2    0  502 -0.38244284336E+02 -0.86922484287E+01  0.15517982779E+02  0.42178054206E+02  0.00000000000E+00 0. -1.
</event>
<event>
 4    1  0.5841374E+003  0.5823618E+02  0.7546771E-02  0.1265946E+00
          2   -1    0    0  501    0  0.00000000000E+00  0.00000000000E+00  0.22609295931E+03  0.22609295931E+03  0.00000000000E+00 0. -1.
         -2   -1    0    0    0  501 -0.00000000000E+00 -0.00000000000E+00 -0.60923788523E+03  0.60923788523E+03  0.00000000000E+00 0. -1.
          2    1    1    2  502    0 -0.52022269984E+02 -0.26175112377E+02  0.22091917102E+03  0.22846604388E+03  0.00000000000E+00 0. -1.
         -2    1    1    2    0  502  0.52022269984E+02  0.26175112377E+02 -0.60406409693E+03  0.60686480067E+03  0.00000000000E+00 0. -1.
</event>
<event>
 4    1  0.5841374E+003  0.2041674E+02  0.7546771E-02  0.1527758E+00
          2   -1    0    0  501    0  0.00000000000E+00  0.00000000000E+00  0.25190475727E+03  0.25190475727E+03  0.00000000000E+00 0. -1.
         -2   -1    0    0    0  501 -0.00000000000E+00 -0.00000000000E+00 -0.39674570146E+01  0.39674570146E+01  0.00000000000E+00 0. -1.
          2    1    1    2  502    0  0.19745078324E+02 -0.51937538663E+01  0.22164645906E+03  0.22258480633E+03  0.00000000000E+00 0. -1.
         -2    1    1    2    0  502 -0.19745078324E+02  0.51937538663E+01  0.26290841195E+02  0.33287407950E+02  0.00000000000E+00 0. -1.
</event>
<event>
 4    1  0.5841374E+003  0.2610677E+02  0.7546771E-02  0.1456793E+00
          2   -1    0    0  501    0  0.00000000000E+00  0.00000000000E+00  0.37409101847E+03  0.37409101847E+03  0.00000000000E+00 0. -1.
         -2   -1    0    0    0  501 -0.00000000000E+00 -0.00000000000E+00 -0.28588814935E+01  0.28588814935E+01  0.00000000000E+00 0.  1.
          2    1    1    2  502    0  0.77497397333E+01 -0.24930006325E+02  0.29912682078E+03  0.30026391490E+03  0.00000000000E+00 0. -1.
         -2    1    1    2    0  502 -0.77497397333E+01  0.24930006325E+02  0.72105316198E+02  0.76685985065E+02  0.00000000000E+00 0.  1.
</event>
<event>
 4    1  0.5841374E+003  0.2200666E+02  0.7546771E-02  0.1505363E+00
          2   -1    0    0  501    0  0.00000000000E+00  0.00000000000E+00  0.16919670995E+04  0.16919670995E+04  0.00000000000E+00 0.  1.
         -2   -1    0    0    0  501 -0.00000000000E+00 -0.00000000000E+00 -0.45458163950E+00  0.45458163950E+00  0.00000000000E+00 0.  1.
          2    1    1    2  502    0 -0.20102357438E+02  0.89547908438E+01  0.13607243447E+04  0.13609022872E+04  0.00000000000E+00 0.  1.
         -2    1    1    2    0  502  0.20102357438E+02 -0.89547908438E+01  0.33078817322E+03  0.33151939399E+03  0.00000000000E+00 0.  1.
</event>
<event>
 4    1  0.5841374E+003  0.2137091E+02  0.7546771E-02  0.1514035E+00
          2   -1    0    0  501    0  0.00000000000E+00  0.00000000000E+00  0.90664225259E+03  0.90664225259E+03  0.00000000000E+00 0.  1.
         -2   -1    0    0    0  501 -0.00000000000E+00 -0.00000000000E+00 -0.58409172300E+00  0.58409172300E+00  0.00000000000E+00 0. -1.
          2    1    1    2  502    0  0.17086899409E+02  0.12835644123E+02  0.62126976779E+03  0.62163722561E+03  0.00000000000E+00 0.  1.
         -2    1    1    2    0  502 -0.17086899409E+02 -0.12835644123E+02  0.28478839307E+03  0.28558911870E+03  0.00000000000E+00 0. -1.
</event>
<event>
 4    1  0.5841374E+003  0.3882270E+02  0.7546771E-02  0.1355526E+00
          2   -1    0    0  501    0  0.00000000000E+00  0.00000000000E+00  0.11888483065E+03  0.11888483065E+03  0.00000000000E+00 0.  1.
         -2   -1    0    0    0  501 -0.00000000000E+00 -0.00000000000E+00 -0.33023368490E+02  0.33023368490E+02  0.00000000000E+00 0.  1.
          2    1    1    2  502    0 -0.31479437629E+02 -0.22721076720E+02  0.10254841094E+03  0.10965116920E+03  0.00000000000E+00 0.  1.
         -2    1    1    2    0  502  0.31479437629E+02  0.22721076720E+02 -0.16686948770E+02  0.42257029948E+02  0.00000000000E+00 0.  1.
</event>
<event>
 4    1  0.5841374E+003  0.2065459E+02  0.7546771E-02  0.1524254E+00
          2   -1    0    0  501    0  0.00000000000E+00  0.00000000000E+00  0.49000410780E+03  0.49000410780E+03  0.00000000000E+00 0.  1.
         -2   -1    0    0    0  501 -0.00000000000E+00 -0.00000000000E+00 -0.21868623325E+03  0.21868623325E+03  0.00000000000E+00 0.  1.
          2    1    1    2  502    0  0.19124268527E+02  0.78022153552E+01  0.48929804792E+03  0.48973379698E+03  0.00000000000E+00 0.  1.
         -2    1    1    2    0  502 -0.19124268527E+02 -0.78022153552E+01 -0.21798017336E+03  0.21895654407E+03  0.00000000000E+00 0.  1.
</event>
<event>
 4    1  0.5841374E+003  0.2190864E+02  0.7546771E-02  0.1506677E+00
          2   -1    0    0  501    0  0.00000000000E+00  0.00000000000E+00  0.37198583990E+02  0.37198583990E+02  0.00000000000E+00 0. -1.
         -2   -1    0    0    0  501 -0.00000000000E+00 -0.00000000000E+00 -0.29037921469E+02  0.29037921469E+02  0.00000000000E+00 0. -1.
          2    1    1    2  502    0 -0.78417615919E+01  0.20457152417E+02  0.28767009738E+02  0.36159772665E+02  0.00000000000E+00 0. -1.
         -2    1    1    2    0  502  0.78417615919E+01 -0.20457152417E+02 -0.20606347217E+02  0.30076732793E+02  0.00000000000E+00 0. -1.
</event>
<event>
 4    1  0.5841374E+003  0.2205572E+02  0.7546771E-02  0.1504709E+00
          2   -1    0    0  501    0  0.00000000000E+00  0.00000000000E+00  0.55734861708E+03  0.55734861708E+03  0.00000000000E+00 0.  1.
         -2   -1    0    0    0  501 -0.00000000000E+00 -0.00000000000E+00 -0.37950246020E+02  0.37950246020E+02  0.00000000000E+00 0.  1.
          2    1    1    2  502    0  0.33687305459E+01  0.21796931956E+02  0.55390595263E+03  0.55434489170E+03  0.00000000000E+00 0.  1.
         -2    1    1    2    0  502 -0.33687305459E+01 -0.21796931956E+02 -0.34507581569E+02  0.40953971406E+02  0.00000000000E+00 0.  1.
</event>
<event>
 4    1  0.5841374E+003  0.2185928E+02  0.7546771E-02  0.1507341E+00
          2   -1    0    0  501    0  0.00000000000E+00  0.00000000000E+00  0.19236287296E+03  0.19236287296E+03  0.00000000000E+00 0.  1.
         -2   -1    0    0    0  501 -0.00000000000E+00 -0.00000000000E+00 -0.29094092166E+01  0.29094092166E+01  0.00000000000E+00 0. -1.
          2    1    1    2  502    0  0.16273695548E+02 -0.14594353355E+02  0.13206158616E+03  0.13385847323E+03  0.00000000000E+00 0.  1.
         -2    1    1    2    0  502 -0.16273695548E+02  0.14594353355E+02  0.57391877581E+02  0.61413808943E+02  0.00000000000E+00 0. -1.
</event>
<event>
 4    1  0.5841374E+003  0.2266634E+02  0.7546771E-02  0.1496731E+00
          2   -1    0    0  501    0  0.00000000000E+00  0.00000000000E+00  0.41447138546E+01  0.41447138546E+01  0.00000000000E+00 0. -1.
         -2   -1    0    0    0  501 -0.00000000000E+00 -0.00000000000E+00 -0.12665695979E+03  0.12665695979E+03  0.00000000000E+00 0. -1.
          2    1    1    2  502    0  0.14216400720E+02  0.17653787103E+02 -0.70806619142E+02  0.74346079674E+02  0.00000000000E+00 0. -1.
         -2    1    1    2    0  502 -0.14216400720E+02 -0.17653787103E+02 -0.51705626795E+02  0.56455593972E+02  0.00000000000E+00 0. -1.
</event>
<event>
 4    1  0.5841374E+003  0.4476636E+02  0.7546771E-02  0.1322612E+00
          2   -1    0    0  501    0  0.00000000000E+00  0.00000000000E+00  0.82850229928E+02  0.82850229928E+02  0.00000000000E+00 0. -1.
         -2   -1    0    0    0  501 -0.00000000000E+00 -0.00000000000E+00 -0.34415691160E+02  0.34415691160E+02  0.00000000000E+00 0. -1.
          2    1    1    2  502    0  0.16077883921E+02  0.41779522093E+02  0.56179768523E+02  0.71834484817E+02  0.00000000000E+00 0. -1.
         -2    1    1    2    0  502 -0.16077883921E+02 -0.41779522093E+02 -0.77452297546E+01  0.45431436271E+02  0.00000000000E+00 0. -1.
</event>
<event>
 4    1  0.5841374E+003  0.2584509E+02  0.7546771E-02  0.1459567E+00
          2   -1    0    0  501    0  0.00000000000E+00  0.00000000000E+00  0.63817396059E+03  0.63817396059E+03  0.00000000000E+00 0. -1.
         -2   -1    0    0    0  501 -0.00000000000E+00 -0.00000000000E+00 -0.34112275863E+01  0.34112275863E+01  0.00000000000E+00 0.  1.
          2    1    1    2  502    0 -0.77876393581E+01  0.24643893496E+02  0.58446194681E+03  0.58503310682E+03  0.00000000000E+00 0. -1.
         -2    1    1    2    0  502  0.77876393581E+01 -0.24643893496E+02  0.50300786199E+02  0.56552081355E+02  0.00000000000E+00 0.  1.
</event>
<event>
 4    1  0.5841374E+003  0.2810655E+02  0.7546771E-02  0.1436798E+00
          2   -1    0    0  501    0  0.00000000000E+00  0.00000000000E+00  0.73482262675E+03  0.73482262675E+03  0.00000000000E+00 0. -1.
         -2   -1    0    0    0  501 -0.00000000000E+00 -0.00000000000E+00 -0.62976675936E+01  0.62976675936E+01  0.00000000000E+00 0. -1.
          2    1    1    2  502    0  0.14917818173E+02 -0.23820933279E+02  0.70171490619E+03  0.70227757172E+03  0.00000000000E+00 0. -1.
         -2    1    1    2    0  502 -0.14917818173E+02  0.23820933279E+02  0.26810052967E+02  0.38842722632E+02  0.00000000000E+00 0. -1.
</event>
<event>
 4    1  0.5841374E+003  0.2623985E+02  0.7546771E-02  0.1455397E+00
          2   -1    0    0  501    0  0.00000000000E+00  0.00000000000E+00  0.16826347016E+04  0.16826347016E+04  0.00000000000E+00 0.  1.
         -2   -1    0    0    0  501 -0.00000000000E+00 -0.00000000000E+00 -0.10595665694E+01  0.10595665694E+01  0.00000000000E+00 0.  1.
          2    1    1    2  502    0 -0.16636059228E+02  0.20292142440E+02  0.15003397065E+04  0.15005691468E+04  0.00000000000E+00 0.  1.
         -2    1    1    2    0  502  0.16636059228E+02 -0.20292142440E+02  0.18123542848E+03  0.18312512129E+03  0.00000000000E+00 0.  1.
</event>
<event>
 4    1  0.5841374E+003  0.2091941E+02  0.7546771E-02  0.1520419E+00
          2   -1    0    0  501    0  0.00000000000E+00  0.00000000000E+00  0.97764105510E+03  0.97764105510E+03  0.00000000000E+00 0. -1.
         -2   -1    0    0    0  501 -0.00000000000E+00 -0.00000000000E+00 -0.64467600274E+00  0.64467600274E+00  0.00000000000E+00 0. -1.
          2    1    1    2  502    0 -0.16429893364E+02  0.12949144713E+02  0.75892420617E+03  0.75921246859E+03  0.00000000000E+00 0. -1.
         -2    1    1    2    0  502  0.16429893364E+02 -0.12949144713E+02  0.21807217293E+03  0.21907326252E+03  0.00000000000E+00 0. -1.
</event>
<event>
 4    1  0.5841374E+003  0.2125549E+02  0.7546771E-02  0.1515648E+00
          2   -1    0    0  501    0  0.00000000000E+00  0.00000000000E+00  0.10346860886E+03  0.10346860886E+03  0.00000000000E+00 0.  1.
         -2   -1    0    0    0  501 -0.00000000000E+00 -0.00000000000E+00 -0.60428910507E+01  0.60428910507E+01  0.00000000000E+00 0.  1.
          2    1    1    2  502    0 -0.19833334698E+02  0.76442663673E+01  0.77552818629E+02  0.80412907240E+02  0.00000000000E+00 0.  1.
         -2    1    1    2    0  502  0.19833334698E+02 -0.76442663673E+01  0.19872899177E+02  0.29098592667E+02  0.00000000000E+00 0.  1.
</event>
<event>
 4    1  0.5841374E+003  0.2426401E+02  0.7546771E-02  0.1477208E+00
          2   -1    0    0  501    0  0.00000000000E+00  0.00000000000E+00  0.15640849622E+01  0.15640849622E+01  0.00000000000E+00 0.  1.
         -2   -1    0    0    0  501 -0.00000000000E+00 -0.00000000000E+00 -0.52491864383E+03  0.52491864383E+03  0.00000000000E+00 0.  1.
          2    1    1    2  502    0  0.22491919748E+02 -0.91025061161E+01 -0.12166069954E+03  0.12405671237E+03  0.00000000000E+00 0.  1.
         -2    1    1    2    0  502 -0.22491919748E+02  0.91025061161E+01 -0.40169385933E+03  0.40242601643E+03  0.00000000000E+00 0.  1.
</event>
<event>
 4    1  0.5841374E+003  0.2572758E+02  0.7546771E-02  0.1460826E+00
          2   -1    0    0  501    0  0.00000000000E+00  0.00000000000E+00  0.41390927260E+03  0.41390927260E+03  0.00000000000E+00 0.  1.
         -2   -1    0    0    0  501 -0.00000000000E+00 -0.00000000000E+00 -0.50336313293E+01  0.50336313293E+01  0.00000000000E+00 0. -1.
          2    1    1    2  502    0  0.25503677848E+02  0.33868739010E+01  0.37746482269E+03  0.37834058845E+03  0.00000000000E+00 0.  1.
         -2    1    1    2    0  502 -0.25503677848E+02 -0.33868739010E+01  0.31410818582E+02  0.40602315483E+02  0.00000000000E+00 0. -1.
</event>
<event>
 4    1  0.5841374E+003  0.2524653E+02  0.7546771E-02  0.1466064E+00
          2   -1    0    0  501    0  0.00000000000E+00  0.00000000000E+00  0.69751265287E+02  0.69751265287E+02  0.00000000000E+00 0.  1.
         -2   -1    0    0    0  501 -0.00000000000E+00 -0.00000000000E+00 -0.74477155401E+03  0.74477155401E+03  0.00000000000E+00 0. -1.
          2    1    1    2  502    0 -0.19168840173E+02  0.16429940596E+02  0.67245099050E+02  0.71828202872E+02  0.00000000000E+00 0.  1.
         -2    1    1    2    0  502  0.19168840173E+02 -0.16429940596E+02 -0.74226538778E+03  0.74269461643E+03  0.00000000000E+00 0. -1.
</event>
<event>
 4    1  0.5841374E+003  0.4937039E+02  0.7546771E-02  0.1300926E+00
          2   -1    0    0  501    0  0.00000000000E+00  0.00000000000E+00  0.50876678098E+03  0.50876678098E+03  0.00000000000E+00 0.  1.
         -2   -1    0    0    0  501 -0.00000000000E+00 -0.00000000000E+00 -0.21765981540E+02  0.21765981540E+02  0.00000000000E+00 0.  1.
          2    1    1    2  502    0  0.38800204550E+02 -0.30528339336E+02  0.47776108329E+03  0.48030520305E+03  0.00000000000E+00 0.  1.
         -2    1    1    2    0  502 -0.38800204550E+02  0.30528339336E+02  0.92397161557E+01  0.50227559471E+02  0.00000000000E+00 0.  1.
</event>
<event>
 4    1  0.5841374E+003  0.2745803E+02  0.7546771E-02  0.1443061E+00
          2   -1    0    0  501    0  0.00000000000E+00  0.00000000000E+00  0.89817833326E+03  0.89817833326E+03  0.00000000000E+00 0. -1.
         -2   -1    0    0    0  501 -0.00000000000E+00 -0.00000000000E+00 -0.10904102097E+01  0.10904102097E+01  0.00000000000E+00 0.  1.
          2    1    1    2  502    0  0.26806798256E+01  0.27326857858E+02  0.66426792102E+03  0.66483517815E+03  0.00000000000E+00 0. -1.
         -2    1    1    2    0  502 -0.26806798256E+01 -0.27326857858E+02  0.23282000203E+03  0.23443356532E+03  0.00000000000E+00 0.  1.
</event>
<event>
 4    1  0.5841374E+003  0.2258722E+02  0.7546771E-02  0.1497748E+00
          2   -1    0    0  501    0  0.00000000000E+00  0.00000000000E+00  0.70600807211E+03  0.70600807211E+03  0.00000000000E+00 0. -1.
         -2   -1    0    0    0  501 -0.00000000000E+00 -0.00000000000E+00 -0.99699985496E+02  0.99699985496E+02  0.00000000000E+00 0. -1.
          2    1    1    2  502    0 -0.66686964271E+01 -0.21580336977E+02  0.70454546538E+03  0.70490743736E+03  0.00000000000E+00 0. -1.
         -2    1    1    2    0  502  0.66686964271E+01  0.21580336977E+02 -0.98237378764E+02  0.10080062025E+03  0.00000000000E+00 0. -1.
</event>
<event>
 4    1  0.5841374E+003  0.2231638E+02  0.7546771E-02  0.1501266E+00
          2   -1    0    0  501    0  0.00000000000E+00  0.00000000000E+00  0.70202320338E+02  0.70202320338E+02  0.00000000000E+00 0.  1.
         -2   -1    0    0    0  501 -0.00000000000E+00 -0.00000000000E+00 -0.14076776697E+03  0.14076776697E+03  0.00000000000E+00 0. -1.
          2    1    1    2  502    0 -0.64085550856E+01 -0.21376420374E+02  0.67509968391E+02  0.71102860410E+02  0.00000000000E+00 0.  1.
         -2    1    1    2    0  502  0.64085550856E+01  0.21376420374E+02 -0.13807541502E+03  0.13986722690E+03  0.00000000000E+00 0. -1.
</event>
<event>
 4    1  0.5841374E+003  0.2581739E+02  0.7546771E-02  0.1459863E+00
          2   -1    0    0  501    0  0.00000000000E+00  0.00000000000E+00  0.39884827747E+03  0.39884827747E+03  0.00000000000E+00 0.  1.
         -2   -1    0    0    0  501 -0.00000000000E+00 -0.00000000000E+00 -0.12789587467E+03  0.12789587467E+03  0.00000000000E+00 0.  1.
          2    1    1    2  502    0  0.22827407569E+02 -0.12060146123E+02  0.39712193939E+03  0.39796026486E+03  0.00000000000E+00 0.  1.
         -2    1    1    2    0  502 -0.22827407569E+02  0.12060146123E+02 -0.12616953658E+03  0.12878388728E+03  0.00000000000E+00 0.  1.
</event>
<event>
 4    1  0.5841374E+003  0.2861917E+02  0.7546771E-02  0.1431988E+00
          2   -1    0    0  501    0  0.00000000000E+00  0.00000000000E+00  0.20473470626E+04  0.20473470626E+04  0.00000000000E+00 0. -1.
         -2   -1    0    0    0  501 -0.00000000000E+00 -0.00000000000E+00 -0.20802783337E+02  0.20802783337E+02  0.00000000000E+00 0. -1.
          2    1    1    2  502    0  0.11078274976E+02 -0.26388040502E+02  0.20373556627E+04  0.20375566626E+04  0.00000000000E+00 0. -1.
         -2    1    1    2    0  502 -0.11078274976E+02  0.26388040502E+02 -0.10811383420E+02  0.30593183382E+02  0.00000000000E+00 0. -1.
</event>
<event>
 4    1  0.5841374E+003  0.2568880E+02  0.7546771E-02  0.1461243E+00
          2   -1    0    0  501    0  0.00000000000E+00  0.00000000000E+00  0.20561722885E+03  0.20561722885E+03  0.00000000000E+00 0.  1.
         -2   -1    0    0    0  501 -0.00000000000E+00 -0.00000000000E+00 -0.28923862079E+02  0.28923862079E+02  0.00000000000E+00 0.  1.
          2    1    1    2  502    0  0.15185875157E+02  0.20719641146E+02  0.19891972680E+03  0.20057161325E+03  0.00000000000E+00 0.  1.
         -2    1    1    2    0  502 -0.15185875157E+02 -0.20719641146E+02 -0.22226360027E+02  0.33969477676E+02  0.00000000000E+00 0.  1.
</event>
<event>
 4    1  0.5841374E+003  0.2792475E+02  0.7546771E-02  0.1438534E+00
          2   -1    0    0  501    0  0.00000000000E+00  0.00000000000E+00  0.14123692454E+03  0.14123692454E+03  0.00000000000E+00 0. -1.
         -2   -1    0    0    0  501 -0.00000000000E+00 -0.00000000000E+00 -0.79976366655E+02  0.79976366655E+02  0.00000000000E+00 0.  1.
          2    1    1    2  502    0 -0.17167498433E+02  0.22024275030E+02  0.13735079642E+03  0.14016073976E+03  0.00000000000E+00 0. -1.
         -2    1    1    2    0  502  0.17167498433E+02 -0.22024275030E+02 -0.76090238537E+02  0.81052551432E+02  0.00000000000E+00 0.  1.
</event>
<event>
 4    1  0.5841374E+003  0.3723869E+02  0.7546771E-02  0.1365474E+00
          2   -1    0    0  501    0  0.00000000000E+00  0.00000000000E+00  0.11257760145E+03  0.11257760145E+03  0.00000000000E+00 0. -1.
         -2   -1    0    0    0  501 -0.00000000000E+00 -0.00000000000E+00 -0.30438914296E+02  0.30438914296E+02  0.00000000000E+00 0. -1.
          2    1    1    2  502    0  0.13677782247E+02  0.34635789807E+02  0.96243139921E+02  0.10319622883E+03  0.00000000000E+00 0. -1.
         -2    1    1    2    0  502 -0.13677782247E+02 -0.34635789807E+02 -0.14104452762E+02  0.39820286921E+02  0.00000000000E+00 0. -1.
</event>
<event>
 4    1  0.5841374E+003  0.2005225E+02  0.7546771E-02  0.1533238E+00
          2   -1    0    0  501    0  0.00000000000E+00  0.00000000000E+00  0.21731955573E+03  0.21731955573E+03  0.00000000000E+00 0. -1.
         -2   -1    0    0    0  501 -0.00000000000E+00 -0.00000000000E+00 -0.99623257088E+01  0.99623257088E+01  0.00000000000E+00 0. -1.
          2    1    1    2  502    0 -0.18132341712E+02 -0.85621786303E+01  0.20622510343E+03  0.20719769788E+03  0.00000000000E+00 0. -1.
         -2    1    1    2    0  502  0.18132341712E+02  0.85621786303E+01  0.11321265893E+01  0.20084183565E+02  0.00000000000E+00 0. -1.
</event>
<event>
 4    1  0.5841374E+003  0.3093112E+02  0.7546771E-02  0.1411674E+00
          2   -1    0    0  501    0  0.00000000000E+00  0.00000000000E+00  0.35949842933E+03  0.35949842933E+03  0.00000000000E+00 0. -1.
         -2   -1    0    0    0  501 -0.00000000000E+00 -0.00000000000E+00 -0.53826276938E+01  0.53826276938E+01  0.00000000000E+00 0.  1.
          2    1    1    2  502    0  0.38962883060E+01  0.30684737613E+02  0.30678011303E+03  0.30833548602E+03  0.00000000000E+00 0. -1.
         -2    1    1    2    0  502 -0.38962883060E+01 -0.30684737613E+02  0.47335688603E+02  0.56545571006E+02  0.00000000000E+00 0.  1.
</event>
<event>
 4    1  0.5841374E+003  0.5258791E+02  0.7546771E-02  0.1287326E+00
          2   -1    0    0  501    0  0.00000000000E+00  0.00000000000E+00  0.23626666720E+04  0.23626666720E+04  0.00000000000E+00 0. -1.
         -2   -1    0    0    0  501 -0.00000000000E+00 -0.00000000000E+00 -0.89556657793E+02  0.89556657793E+02  0.00000000000E+00 0.  1.
          2    1    1    2  502    0 -0.10235068338E+02 -0.51582278438E+02  0.23546277552E+04  0.23552149272E+04  0.00000000000E+00 0. -1.
         -2    1    1    2    0  502  0.10235068338E+02  0.51582278438E+02 -0.81517740968E+02  0.97008402550E+02  0.00000000000E+00 0.  1.
</event>
<event>
 4    1  0.5841374E+003  0.3994242E+02  0.7546771E-02  0.1348824E+00
          2   -1    0    0  501    0  0.00000000000E+00  0.00000000000E+00  0.15003052380E+04  0.15003052380E+04  0.00000000000E+00 0. -1.
         -2   -1    0    0    0  501 -0.00000000000E+00 -0.00000000000E+00 -0.75913281555E+01  0.75913281555E+01  0.00000000000E+00 0.  1.
          2    1    1    2  502    0 -0.20907111452E+02 -0.34033658370E+02  0.14455079239E+04  0.14460596652E+04  0.00000000000E+00 0. -1.
         -2    1    1    2    0  502  0.20907111452E+02  0.34033658370E+02  0.47205985888E+02  0.61836900916E+02  0.00000000000E+00 0.  1.
</event>
<event>
 4    1  0.5841374E+003  0.2527024E+02  0.7546771E-02  0.1465803E+00
          2   -1    0    0  501    0  0.00000000000E+00  0.00000000000E+00  0.18974194379E+02  0.18974194379E+02  0.00000000000E+00 0. -1.
         -2   -1    0    0    0  501 -0.00000000000E+00 -0.00000000000E+00 -0.86866396081E+02  0.86866396081E+02  0.00000000000E+00 0.  1.
          2    1    1    2  502    0  0.53963057838E+01  0.24687341064E+02  0.74726382551E+01  0.26351949594E+02  0.00000000000E+00 0. -1.
         -2    1    1    2    0  502 -0.53963057838E+01 -0.24687341064E+02 -0.75364839957E+02  0.79488640866E+02  0.00000000000E+00 0.  1.
</event>
<event>
 4    1  0.5841374E+003  0.3523375E+02  0.7546771E-02  0.1378927E+00
          2   -1    0    0  501    0  0.00000000000E+00  0.00000000000E+00  0.13847940994E+04  0.13847940994E+04  0.00000000000E+00 0. -1.
         -2   -1    0    0    0  501 -0.00000000000E+00 -0.00000000000E+00 -0.15756132420E+01  0.15756132420E+01  0.00000000000E+00 0.  1.
          2    1    1    2  502    0 -0.56142732261E+01  0.34783579641E+02  0.11467094151E+04  0.11472505829E+04  0.00000000000E+00 0. -1.
         -2    1    1    2    0  502  0.56142732261E+01 -0.34783579641E+02  0.23650907114E+03  0.23911912974E+03  0.00000000000E+00 0.  1.
</event>
<event>
 4    1  0.5841374E+003  0.2004616E+02  0.7546771E-02  0.1533331E+00
          2   -1    0    0  501    0  0.00000000000E+00  0.00000000000E+00  0.20658514122E+03  0.20658514122E+03  0.00000000000E+00 0.  1.
         -2   -1    0    0    0  501 -0.00000000000E+00 -0.00000000000E+00 -0.96972105707E+01  0.96972105707E+01  0.00000000000E+00 0.  1.
          2    1    1    2  502    0  0.15392893994E+02  0.12841624523E+02  0.19513249948E+03  0.19615947813E+03  0.00000000000E+00 0.  1.
         -2    1    1    2    0  502 -0.15392893994E+02 -0.12841624523E+02  0.17554311694E+01  0.20122873664E+02  0.00000000000E+00 0.  1.
</event>
<event>
 4    1  0.5841374E+003  0.1159215E+03  0.7546771E-02  0.1138761E+00
          2   -1    0    0  501    0  0.00000000000E+00  0.00000000000E+00  0.45673624246E+04  0.45673624246E+04  0.00000000000E+00 0. -1.
         -2   -1    0    0    0  501 -0.00000000000E+00 -0.00000000000E+00 -0.29771773164E+01  0.29771773164E+01  0.00000000000E+00 0. -1.
          2    1    1    2  502    0  0.11413636085E+03 -0.20265237986E+02  0.25301194538E+04  0.25327736257E+04  0.00000000000E+00 0. -1.
         -2    1    1    2    0  502 -0.11413636085E+03  0.20265237986E+02  0.20342657935E+04  0.20375659762E+04  0.00000000000E+00 0. -1.
</event>
<event>
 4    1  0.5841374E+003  0.2480379E+02  0.7546771E-02  0.1471010E+00
          2   -1    0    0  501    0  0.00000000000E+00  0.00000000000E+00  0.31429346737E+03  0.31429346737E+03  0.00000000000E+00 0. -1.
         -2   -1    0    0    0  501 -0.00000000000E+00 -0.00000000000E+00 -0.52962896142E+01  0.52962896142E+01  0.00000000000E+00 0.  1.
          2    1    1    2  502    0  0.16196180049E+02 -0.18785939623E+02  0.28137236595E+03  0.28246351285E+03  0.00000000000E+00 0. -1.
         -2    1    1    2    0  502 -0.16196180049E+02  0.18785939623E+02  0.27624811808E+02  0.37126244129E+02  0.00000000000E+00 0.  1.
</event>
<event>
 4    1  0.5841374E+003  0.3394132E+02  0.7546771E-02  0.1388163E+00
          2   -1    0    0  501    0  0.00000000000E+00  0.00000000000E+00  0.69711448752E+03  0.69711448752E+03  0.00000000000E+00 0.  1.
         -2   -1    0    0    0  501 -0.00000000000E+00 -0.00000000000E+00 -0.16699030142E+01  0.16699030142E+01  0.00000000000E+00 0.  1.
          2    1    1    2  502    0  0.32886211463E+02 -0.83970591328E+01  0.38334357847E+03  0.38484323127E+03  0.00000000000E+00 0.  1.
         -2    1    1    2    0  502 -0.32886211463E+02  0.83970591328E+01  0.31210100604E+03  0.31394115926E+03  0.00000000000E+00 0.  1.
</event>
<event>
 4    1  0.5841374E+003  0.2355192E+02  0.7546771E-02  0.1485682E+00
          2   -1    0    0  501    0  0.00000000000E+00  0.00000000000E+00  0.25334321941E+03  0.25334321941E+03  0.00000000000E+00 0.  1.
         -2   -1    0    0    0  501 -0.00000000000E+00 -0.00000000000E+00 -0.20146087661E+02  0.20146087661E+02  0.00000000000E+00 0.  1.
          2    1    1    2  502    0 -0.20867314500E+02  0.10920082293E+02  0.24569878947E+03  0.24682501526E+03  0.00000000000E+00 0.  1.
         -2    1    1    2    0  502  0.20867314500E+02 -0.10920082293E+02 -0.12501657724E+02  0.26664291807E+02  0.00000000000E+00 0.  1.
</event>
<event>
 4    1  0.5841374E+003  0.2838508E+02  0.7546771E-02  0.1434170E+00
          2   -1    0    0  501    0  0.00000000000E+00  0.00000000000E+00  0.73717780881E+03  0.73717780881E+03  0.00000000000E+00 0.  1.
         -2   -1    0    0    0  501 -0.00000000000E+00 -0.00000000000E+00 -0.95640505598E+01  0.95640505598E+01  0.00000000000E+00 0. -1.
          2    1    1    2  502    0 -0.28063743422E+02  0.42590142730E+01  0.71519654658E+03  0.71575960569E+03  0.00000000000E+00 0.  1.
         -2    1    1    2    0  502  0.28063743422E+02 -0.42590142730E+01  0.12417211671E+02  0.30982253681E+02  0.00000000000E+00 0. -1.
</event>
<event>
 4    1  0.5841374E+003  0.2305750E+02  0.7546771E-02  0.1491777E+00
          2   -1    0    0  501    0  0.00000000000E+00  0.00000000000E+00  0.86032094755E+02  0.86032094755E+02  0.00000000000E+00 0.  1.
         -2   -1    0    0    0  501 -0.00000000000E+00 -0.00000000000E+00 -0.65414484301E+01  0.65414484301E+01  0.00000000000E+00 0.  1.
          2    1    1    2  502    0  0.17079472507E+02 -0.15489990903E+02  0.50630951775E+02  0.55633995694E+02  0.00000000000E+00 0.  1.
         -2    1    1    2    0  502 -0.17079472507E+02  0.15489990903E+02  0.28859694550E+02  0.36939547491E+02  0.00000000000E+00 0.  1.
</event>
<event>
 4    1  0.5841374E+003  0.2444266E+02  0.7546771E-02  0.1475136E+00
          2   -1    0    0  501    0  0.00000000000E+00  0.00000000000E+00  0.47045782969E+03  0.47045782969E+03  0.00000000000E+00 0.  1.
         -2   -1    0    0    0  501 -0.00000000000E+00 -0.00000000000E+00 -0.13083444363E+01  0.13083444363E+01  0.00000000000E+00 0.  1.
          2    1    1    2  502    0  0.21846326054E+02 -0.10962746829E+02  0.27499879365E+03  0.27608292285E+03  0.00000000000E+00 0.  1.
         -2    1    1    2    0  502 -0.21846326054E+02  0.10962746829E+02  0.19415069160E+03  0.19568325128E+03  0.00000000000E+00 0.  1.
</event>
<event>
 4    1  0.5841374E+003  0.2082992E+02  0.7546771E-02  0.1521707E+00
          2   -1    0    0  501    0  0.00000000000E+00  0.00000000000E+00  0.13334649032E+03  0.13334649032E+03  0.00000000000E+00 0.  1.
         -2   -1    0    0    0  501 -0.00000000000E+00 -0.00000000000E+00 -0.19790922170E+02  0.19790922170E+02  0.00000000000E+00 0.  1.
          2    1    1    2  502    0 -0.11064879886E+01  0.20800512069E+02  0.12676971654E+03  0.12846963318E+03  0.00000000000E+00 0.  1.
         -2    1    1    2    0  502  0.11064879886E+01 -0.20800512069E+02 -0.13214148396E+02  0.24667779304E+02  0.00000000000E+00 0.  1.
</event>
<event>
 4    1  0.5841374E+003  0.2457486E+02  0.7546771E-02  0.1473616E+00
          2   -1    0    0  501    0  0.00000000000E+00  0.00000000000E+00  0.39087797540E+03  0.39087797540E+03  0.00000000000E+00 0.  1.
         -2   -1    0    0    0  501 -0.00000000000E+00 -0.00000000000E+00 -0.47585591253E+02  0.47585591253E+02  0.00000000000E+00 0.  1.
          2    1    1    2  502    0 -0.13509206827E+02  0.20528639240E+02  0.38728951725E+03  0.38806841391E+03  0.00000000000E+00 0.  1.
         -2    1    1    2    0  502  0.13509206827E+02 -0.20528639240E+02 -0.43997133110E+02  0.50395152743E+02  0.00000000000E+00 0.  1.
</event>
<event>
 4    1  0.5841374E+003  0.3507894E+02  0.7546771E-02  0.1380009E+00
          2   -1    0    0  501    0  0.00000000000E+00  0.00000000000E+00  0.24531747281E+03  0.24531747281E+03  0.00000000000E+00 0.  1.
         -2   -1    0    0    0  501 -0.00000000000E+00 -0.00000000000E+00 -0.67800247389E+01  0.67800247389E+01  0.00000000000E+00 0.  1.
          2    1    1    2  502    0 -0.57114755602E+01 -0.34610853691E+02  0.18356196943E+03  0.18688373061E+03  0.00000000000E+00 0.  1.
         -2    1    1    2    0  502  0.57114755602E+01  0.34610853691E+02  0.54975478637E+02  0.65213766934E+02  0.00000000000E+00 0.  1.
</event>
<event>
 4    1  0.5841374E+003  0.2562351E+02  0.7546771E-02  0.1461948E+00
          2   -1    0    0  501    0  0.00000000000E+00  0.00000000000E+00  0.15184657929E+03  0.15184657929E+03  0.00000000000E+00 0.  1.
         -2   -1    0    0    0  501 -0.00000000000E+00 -0.00000000000E+00 -0.46929339504E+02  0.46929339504E+02  0.00000000000E+00 0. -1.
          2    1    1    2  502    0 -0.72720442255E+01  0.24569938698E+02  0.14715736905E+03  0.14937153604E+03  0.00000000000E+00 0.  1.
         -2    1    1    2    0  502  0.72720442255E+01 -0.24569938698E+02 -0.42240129263E+02  0.49404382751E+02  0.00000000000E+00 0. -1.
</event>
<event>
 4    1  0.5841374E+003  0.2121675E+02  0.7546771E-02  0.1516193E+00
          2   -1    0    0  501    0  0.00000000000E+00  0.00000000000E+00  0.15765023538E+04  0.15765023538E+04  0.00000000000E+00 0.  1.
         -2   -1    0    0    0  501 -0.00000000000E+00 -0.00000000000E+00 -0.25023585046E+02  0.25023585046E+02  0.00000000000E+00 0. -1.
          2    1    1    2  502    0 -0.73168447698E+01  0.19915175028E+02  0.15719206002E+04  0.15720637786E+04  0.00000000000E+00 0.  1.
         -2    1    1    2    0  502  0.73168447698E+01 -0.19915175028E+02 -0.20441831488E+02  0.29462160280E+02  0.00000000000E+00 0. -1.
</event>
<event>
 4    1  0.5841374E+003  0.2410058E+02  0.7546771E-02  0.1479122E+00
          2   -1    0    0  501    0  0.00000000000E+00  0.00000000000E+00  0.14650871474E+04  0.14650871474E+04  0.00000000000E+00 0.  1.
         -2   -1    0    0    0  501 -0.00000000000E+00 -0.00000000000E+00 -0.69986354122E+00  0.69986354122E+00  0.00000000000E+00 0. -1.
          2    1    1    2  502    0 -0.12143618772E+02 -0.20817557770E+02  0.12147516465E+04  0.12149906999E+04  0.00000000000E+00 0.  1.
         -2    1    1    2    0  502  0.12143618772E+02  0.20817557770E+02  0.24963563736E+03  0.25079631104E+03  0.00000000000E+00 0. -1.
</event>
<event>
 4    1  0.5841374E+003  0.2077907E+02  0.7546771E-02  0.1522443E+00
          2   -1    0    0  501    0  0.00000000000E+00  0.00000000000E+00  0.46704557358E+03  0.46704557358E+03  0.00000000000E+00 0.  1.
         -2   -1    0    0    0  501 -0.00000000000E+00 -0.00000000000E+00 -0.92688958344E+00  0.92688958344E+00  0.00000000000E+00 0. -1.
          2    1    1    2  502    0 -0.12453396100E+02 -0.16633784580E+02  0.24501297744E+03  0.24589251510E+03  0.00000000000E+00 0.  1.
         -2    1    1    2    0  502  0.12453396100E+02  0.16633784580E+02  0.22110570655E+03  0.22207994807E+03  0.00000000000E+00 0. -1.
</event>
<event>
 4    1  0.5841374E+003  0.2435765E+02  0.7546771E-02  0.1476119E+00
          2   -1    0    0  501    0  0.00000000000E+00  0.00000000000E+00  0.76951843151E+03  0.76951843151E+03  0.00000000000E+00 0. -1.
         -2   -1    0    0    0  501 -0.00000000000E+00 -0.00000000000E+00 -0.55432666103E+01  0.55432666103E+01  0.00000000000E+00 0.  1.
          2    1    1    2  502    0  0.54568498662E+01 -0.23738534209E+02  0.74155965393E+03  0.74195957812E+03  0.00000000000E+00 0. -1.
         -2    1    1    2    0  502 -0.54568498662E+01  0.23738534209E+02  0.22415510966E+02  0.33102120004E+02  0.00000000000E+00 0.  1.
</event>
<event>
 4    1  0.5841374E+003  0.2556642E+02  0.7546771E-02  0.1462566E+00
          2   -1    0    0  501    0  0.00000000000E+00  0.00000000000E+00  0.96120295083E+02  0.96120295083E+02  0.00000000000E+00 0. -1.
         -2   -1    0    0    0  501 -0.00000000000E+00 -0.00000000000E+00 -0.11580038013E+02  0.11580038013E+02  0.00000000000E+00 0.  1.
          2    1    1    2  502    0 -0.24373330088E+02 -0.77189937282E+01  0.76866962228E+02  0.81007234034E+02  0.00000000000E+00 0. -1.
         -2    1    1    2    0  502  0.24373330088E+02  0.77189937282E+01  0.76732948423E+01  0.26693099062E+02  0.00000000000E+00 0.  1.
</event>
<event>
 4    1  0.5841374E+003  0.2316577E+02  0.7546771E-02  0.1490427E+00
          2   -1    0    0  501    0  0.00000000000E+00  0.00000000000E+00  0.91720449477E+02  0.91720449477E+02  0.00000000000E+00 0. -1.
         -2   -1    0    0    0  501 -0.00000000000E+00 -0.00000000000E+00 -0.27033311784E+03  0.27033311784E+03  0.00000000000E+00 0.  1.
          2    1    1    2  502    0  0.20786805704E+02 -0.10225529160E+02  0.89750704589E+02  0.92692187978E+02  0.00000000000E+00 0. -1.
         -2    1    1    2    0  502 -0.20786805704E+02  0.10225529160E+02 -0.26836337295E+03  0.26936137934E+03  0.00000000000E+00 0.  1.
</event>
<event>
 4    1  0.5841374E+003  0.2087452E+02  0.7546771E-02  0.1521064E+00
          2   -1    0    0  501    0  0.00000000000E+00  0.00000000000E+00  0.26642303600E+03  0.26642303600E+03  0.00000000000E+00 0. -1.
         -2   -1    0    0    0  501 -0.00000000000E+00 -0.00000000000E+00 -0.83167204619E+01  0.83167204619E+01  0.00000000000E+00 0. -1.
          2    1    1    2  502    0  0.13999195720E+02 -0.15484453254E+02  0.25217696404E+03  0.25303945733E+03  0.00000000000E+00 0. -1.
         -2    1    1    2    0  502 -0.13999195720E+02  0.15484453254E+02  0.59293515027E+01  0.21700299137E+02  0.00000000000E+00 0. -1.
</event>
<event>
 4    1  0.5841374E+003  0.5102281E+02  0.7546771E-02  0.1293798E+00
          2   -1    0    0  501    0  0.00000000000E+00  0.00000000000E+00  0.44642558258E+03  0.44642558258E+03  0.00000000000E+00 0.  1.
         -2   -1    0    0    0  501 -0.00000000000E+00 -0.00000000000E+00 -0.49993439115E+02  0.49993439115E+02  0.00000000000E+00 0.  1.
          2    1    1    2  502    0 -0.20592712389E+02  0.46682627241E+02  0.43150064234E+03  0.43450676845E+03  0.00000000000E+00 0.  1.
         -2    1    1    2    0  502  0.20592712389E+02 -0.46682627241E+02 -0.35068498869E+02  0.61912253251E+02  0.00000000000E+00 0.  1.
</event>
<event>
 4    1  0.5841374E+003  0.1871120E+03  0.7546771E-02  0.1064670E+00
          2   -1    0    0  501    0  0.00000000000E+00  0.00000000000E+00  0.13127489847E+03  0.13127489847E+03  0.00000000000E+00 0.  1.
         -2   -1    0    0    0  501 -0.00000000000E+00 -0.00000000000E+00 -0.67972567775E+03  0.67972567775E+03  0.00000000000E+00 0. -1.
          2    1    1    2  502    0  0.17161863205E+03 -0.74551676139E+02  0.41866453061E+02  0.19173864288E+03  0.00000000000E+00 0.  1.
         -2    1    1    2    0  502 -0.17161863205E+03  0.74551676139E+02 -0.59031723235E+03  0.61926193334E+03  0.00000000000E+00 0. -1.
</event>
<event>
 4    1  0.5841374E+003  0.2011618E+02  0.7546771E-02  0.1532267E+00
          2   -1    0    0  501    0  0.00000000000E+00  0.00000000000E+00  0.15170004753E+02  0.15170004753E+02  0.00000000000E+00 0.  1.
         -2   -1    0    0    0  501 -0.00000000000E+00 -0.00000000000E+00 -0.16761159664E+03  0.16761159664E+03  0.00000000000E+00 0.  1.
          2    1    1    2  502    0  0.10964528492E+00 -0.20115884846E+02  0.75827205122E+01  0.21497871885E+02  0.00000000000E+00 0.  1.
         -2    1    1    2    0  502 -0.10964528492E+00  0.20115884846E+02 -0.16002431240E+03  0.16128372951E+03  0.00000000000E+00 0.  1.
</event>
<event>
 4    1  0.5841374E+003  0.5134633E+02  0.7546771E-02  0.1292438E+00
          2   -1    0    0  501    0  0.00000000000E+00  0.00000000000E+00  0.16820114007E+03  0.16820114007E+03  0.00000000000E+00 0. -1.
         -2   -1    0    0    0  501 -0.00000000000E+00 -0.00000000000E+00 -0.41663884467E+02  0.41663884467E+02  0.00000000000E+00 0.  1.
          2    1    1    2  502    0  0.47904431424E+02 -0.18482719956E+02  0.14614473530E+03  0.15490232130E+03  0.00000000000E+00 0. -1.
         -2    1    1    2    0  502 -0.47904431424E+02  0.18482719956E+02 -0.19607479700E+02  0.54962703238E+02  0.00000000000E+00 0.  1.
</event>
<event>
 4    1  0.5841374E+003  0.2019264E+02  0.7546771E-02  0.1531111E+00
          2   -1    0    0  501    0  0.00000000000E+00  0.00000000000E+00  0.75040520034E+03  0.75040520034E+03  0.00000000000E+00 0.  1.
         -2   -1    0    0    0  501 -0.00000000000E+00 -0.00000000000E+00 -0.59432556868E+00  0.59432556868E+00  0.00000000000E+00 0. -1.
          2    1    1    2  502    0 -0.10245513229E+02 -0.17400349096E+02  0.48486210936E+03  0.48528240004E+03  0.00000000000E+00 0.  1.
         -2    1    1    2    0  502  0.10245513229E+02  0.17400349096E+02  0.26494876541E+03  0.26571712587E+03  0.00000000000E+00 0. -1.
</event>
<event>
 4    1  0.5841374E+003  0.2447810E+02  0.7546771E-02  0.1474727E+00
          2   -1    0    0  501    0  0.00000000000E+00  0.00000000000E+00  0.40594487130E+03  0.40594487130E+03  0.00000000000E+00 0.  1.
         -2   -1    0    0    0  501 -0.00000000000E+00 -0.00000000000E+00 -0.24478572806E+02  0.24478572806E+02  0.00000000000E+00 0. -1.
          2    1    1    2  502    0 -0.47317439383E+00  0.24473521926E+02  0.39935559090E+03  0.40010506764E+03  0.00000000000E+00 0.  1.
         -2    1    1    2    0  502  0.47317439383E+00 -0.24473521926E+02 -0.17889292397E+02  0.30318376473E+02  0.00000000000E+00 0. -1.
</event>
<event>
 4    1  0.5841374E+003  0.4981305E+02  0.7546771E-02  0.1298985E+00
          2   -1    0    0  501    0  0.00000000000E+00  0.00000000000E+00  0.98614966244E+01  0.98614966244E+01  0.00000000000E+00 0. -1.
         -2   -1    0    0    0  501 -0.00000000000E+00 -0.00000000000E+00 -0.25930022012E+03  0.25930022012E+03  0.00000000000E+00 0. -1.
          2    1    1    2  502    0  0.40501484040E+02  0.28999486377E+02 -0.10155632361E+03  0.11311510635E+03  0.00000000000E+00 0. -1.
         -2    1    1    2    0  502 -0.40501484040E+02 -0.28999486377E+02 -0.14788239989E+03  0.15604661039E+03  0.00000000000E+00 0. -1.
</event>
<event>
 4    1  0.5841374E+003  0.2111402E+02  0.7546771E-02  0.1517643E+00
          2   -1    0    0  501    0  0.00000000000E+00  0.00000000000E+00  0.21491318674E+02  0.21491318674E+02  0.00000000000E+00 0. -1.
         -2   -1    0    0    0  501 -0.00000000000E+00 -0.00000000000E+00 -0.19902720794E+03  0.19902720794E+03  0.00000000000E+00 0.  1.
          2    1    1    2  502    0 -0.20917649190E+02 -0.28729096081E+01  0.15587446252E+02  0.26244430608E+02  0.00000000000E+00 0. -1.
         -2    1    1    2    0  502  0.20917649190E+02  0.28729096081E+01 -0.19312333552E+03  0.19427409601E+03  0.00000000000E+00 0.  1.
</event>
<event>
 4    1  0.5841374E+003  0.2146063E+02  0.7546771E-02  0.1512789E+00
          2   -1    0    0  501    0  0.00000000000E+00  0.00000000000E+00  0.18494160629E+02  0.18494160629E+02  0.00000000000E+00 0.  1.
         -2   -1    0    0    0  501 -0.00000000000E+00 -0.00000000000E+00 -0.20936687016E+03  0.20936687016E+03  0.00000000000E+00 0. -1.
          2    1    1    2  502    0  0.10644280485E+02  0.18634855070E+02  0.11504053672E+02  0.24349574563E+02  0.00000000000E+00 0.  1.
         -2    1    1    2    0  502 -0.10644280485E+02 -0.18634855070E+02 -0.20237676320E+03  0.20351145622E+03  0.00000000000E+00 0. -1.
</event>
<event>
 4    1  0.5841374E+003  0.2862136E+02  0.7546771E-02  0.1431968E+00
          2   -1    0    0  501    0  0.00000000000E+00  0.00000000000E+00  0.23680299407E+03  0.23680299407E+03  0.00000000000E+00 0. -1.
         -2   -1    0    0    0  501 -0.00000000000E+00 -0.00000000000E+00 -0.72497533215E+02  0.72497533215E+02  0.00000000000E+00 0. -1.
          2    1    1    2  502    0 -0.25001083017E+02 -0.13932980345E+02  0.23306819957E+03  0.23481901061E+03  0.00000000000E+00 0. -1.
         -2    1    1    2    0  502  0.25001083017E+02  0.13932980345E+02 -0.68762738705E+02  0.74481516684E+02  0.00000000000E+00 0. -1.
</event>
<event>
 4    1  0.5841374E+003  0.2500723E+02  0.7546771E-02  0.1468722E+00
          2   -1    0    0  501    0  0.00000000000E+00  0.00000000000E+00  0.32319055890E+03  0.32319055890E+03  0.00000000000E+00 0.  1.
         -2   -1    0    0    0  501 -0.00000000000E+00 -0.00000000000E+00 -0.28388725947E+02  0.28388725947E+02  0.00000000000E+00 0.  1.
          2    1    1    2  502    0  0.21172538630E+02 -0.13307342217E+02  0.31709396857E+03  0.31807852278E+03  0.00000000000E+00 0.  1.
         -2    1    1    2    0  502 -0.21172538630E+02  0.13307342217E+02 -0.22292135617E+02  0.33500762070E+02  0.00000000000E+00 0.  1.
</event>
<event>
 4    1  0.5841374E+003  0.5790121E+02  0.7546771E-02  0.1267135E+00
          2   -1    0    0  501    0  0.00000000000E+00  0.00000000000E+00  0.12799561389E+04  0.12799561389E+04  0.00000000000E+00 0.  1.
         -2   -1    0    0    0  501 -0.00000000000E+00 -0.00000000000E+00 -0.23047613633E+02  0.23047613633E+02  0.00000000000E+00 0.  1.
          2    1    1    2  502    0 -0.23268528749E+02  0.53020046927E+02  0.12418196619E+04  0.12431687828E+04  0.00000000000E+00 0.  1.
         -2    1    1    2    0  502  0.23268528749E+02 -0.53020046927E+02  0.15088863357E+02  0.59834969739E+02  0.00000000000E+00 0.  1.
</event>
<event>
 4    1  0.5841374E+003  0.3141586E+02  0.7546771E-02  0.1407679E+00
          2   -1    0    0  501    0  0.00000000000E+00  0.00000000000E+00  0.17537747406E+03  0.17537747406E+03  0.00000000000E+00 0.  1.
         -2   -1    0    0    0  501 -0.00000000000E+00 -0.00000000000E+00 -0.84369557861E+01  0.84369557861E+01  0.00000000000E+00 0. -1.
          2    1    1    2  502    0  0.23553280349E+02  0.20789399755E+02  0.13650485458E+03  0.14007330753E+03  0.00000000000E+00 0.  1.
         -2    1    1    2    0  502 -0.23553280349E+02 -0.20789399755E+02  0.30435663696E+02  0.43741122322E+02  0.00000000000E+00 0. -1.
</event>
<event>
 4    1  0.5841374E+003  0.3170400E+02  0.7546771E-02  0.1405345E+00
          2   -1    0    0  501    0  0.00000000000E+00  0.00000000000E+00  0.40353327334E+03  0.40353327334E+03  0.00000000000E+00 0. -1.
         -2   -1    0    0    0  501 -0.00000000000E+00 -0.00000000000E+00 -0.27386712997E+01  0.27386712997E+01  0.00000000000E+00 0.  1.
          2    1    1    2  502    0  0.11990201445E+02 -0.29349251857E+02  0.26150281736E+03  0.26341766646E+03  0.00000000000E+00 0. -1.
         -2    1    1    2    0  502 -0.11990201445E+02  0.29349251857E+02  0.13929178468E+03  0.14285427819E+03  0.00000000000E+00 0.  1.
</event>
<event>
 4    1  0.5841374E+003  0.2240612E+02  0.7546771E-02  0.1500093E+00
          2   -1    0    0  501    0  0.00000000000E+00  0.00000000000E+00  0.11940117745E+04  0.11940117745E+04  0.00000000000E+00 0.  1.
         -2   -1    0    0    0  501 -0.00000000000E+00 -0.00000000000E+00 -0.47547348341E+00  0.47547348341E+00  0.00000000000E+00 0. -1.
          2    1    1    2  502    0 -0.13189765443E+02  0.18112541947E+02  0.79992117031E+03  0.80023491101E+03  0.00000000000E+00 0.  1.
         -2    1    1    2    0  502  0.13189765443E+02 -0.18112541947E+02  0.39361513070E+03  0.39425233697E+03  0.00000000000E+00 0. -1.
</event>
<event>
 4    1  0.5841374E+003  0.2943389E+02  0.7546771E-02  0.1424581E+00
          2   -1    0    0  501    0  0.00000000000E+00  0.00000000000E+00  0.16244534106E+04  0.16244534106E+04  0.00000000000E+00 0. -1.
         -2   -1    0    0    0  501 -0.00000000000E+00 -0.00000000000E+00 -0.67848401680E+00  0.67848401680E+00  0.00000000000E+00 0. -1.
          2    1    1    2  502    0 -0.29365844824E+02 -0.20000813954E+01  0.43603396632E+03  0.43702628405E+03  0.00000000000E+00 0. -1.
         -2    1    1    2    0  502  0.29365844824E+02  0.20000813954E+01  0.11877409602E+04  0.11881056105E+04  0.00000000000E+00 0. -1.
</event>
<event>
 4    1  0.5841374E+003  0.3201562E+02  0.7546771E-02  0.1402853E+00
          2   -1    0    0  501    0  0.00000000000E+00  0.00000000000E+00  0.49605525211E+03  0.49605525211E+03  0.00000000000E+00 0. -1.
         -2   -1    0    0    0  501 -0.00000000000E+00 -0.00000000000E+00 -0.41643533570E+02  0.41643533570E+02  0.00000000000E+00 0. -1.
          2    1    1    2  502    0 -0.75100391914E+01 -0.31122330845E+02  0.48930040123E+03  0.49034669654E+03  0.00000000000E+00 0. -1.
         -2    1    1    2    0  502  0.75100391914E+01  0.31122330845E+02 -0.34888682690E+02  0.47352089138E+02  0.00000000000E+00 0. -1.
</event>
<event>
 4    1  0.5841374E+003  0.4259843E+02  0.7546771E-02  0.1333897E+00
          2   -1    0    0  501    0  0.00000000000E+00  0.00000000000E+00  0.13783381848E+04  0.13783381848E+04  0.00000000000E+00 0. -1.
         -2   -1    0    0    0  501 -0.00000000000E+00 -0.00000000000E+00 -0.85095763664E+02  0.85095763664E+02  0.00000000000E+00 0.  1.
          2    1    1    2  502    0  0.32762101458E+02  0.27226296303E+02  0.13726558575E+04  0.13733166895E+04  0.00000000000E+00 0. -1.
         -2    1    1    2    0  502 -0.32762101458E+02 -0.27226296303E+02 -0.79413436327E+02  0.90117259010E+02  0.00000000000E+00 0.  1.
</event>
<event>
 4    1  0.5841374E+003  0.3433361E+02  0.7546771E-02  0.1385310E+00
          2   -1    0    0  501    0  0.00000000000E+00  0.00000000000E+00  0.12858678830E+03  0.12858678830E+03  0.00000000000E+00 0.  1.
         -2   -1    0    0    0  501 -0.00000000000E+00 -0.00000000000E+00 -0.11442756784E+03  0.11442756784E+03  0.00000000000E+00 0. -1.
          2    1    1    2  502    0  0.19983672553E+02  0.27918630422E+02  0.12361793788E+03  0.12829727845E+03  0.00000000000E+00 0.  1.
         -2    1    1    2    0  502 -0.19983672553E+02 -0.27918630422E+02 -0.10945871742E+03  0.11471707768E+03  0.00000000000E+00 0. -1.
</event>
<event>
 4    1  0.5841374E+003  0.2591391E+02  0.7546771E-02  0.1458834E+00
          2   -1    0    0  501    0  0.00000000000E+00  0.00000000000E+00  0.15878289733E+04  0.15878289733E+04  0.00000000000E+00 0.  1.
         -2   -1    0    0    0  501 -0.00000000000E+00 -0.00000000000E+00 -0.52064467072E+00  0.52064467072E+00  0.00000000000E+00 0.  1.
          2    1    1    2  502    0 -0.24522500062E+02 -0.83771822113E+01  0.44958978078E+03  0.45033598698E+03  0.00000000000E+00 0.  1.
         -2    1    1    2    0  502  0.24522500062E+02  0.83771822113E+01  0.11377185478E+04  0.11380136310E+04  0.00000000000E+00 0.  1.
</event>
<event>
 4    1  0.5841374E+003  0.2660561E+02  0.7546771E-02  0.1451611E+00
          2   -1    0    0  501    0  0.00000000000E+00  0.00000000000E+00  0.16991327703E+03  0.16991327703E+03  0.00000000000E+00 0. -1.
         -2   -1    0    0    0  501 -0.00000000000E+00 -0.00000000000E+00 -0.28303186636E+02  0.28303186636E+02  0.00000000000E+00 0.  1.
          2    1    1    2  502    0  0.25945347827E+02  0.58904518751E+01  0.16232913027E+03  0.16449500002E+03  0.00000000000E+00 0. -1.
         -2    1    1    2    0  502 -0.25945347827E+02 -0.58904518751E+01 -0.20719039875E+02  0.33721463647E+02  0.00000000000E+00 0.  1.
</event>
<event>
 4    1  0.5841374E+003  0.2236303E+02  0.7546771E-02  0.1500655E+00
          2   -1    0    0  501    0  0.00000000000E+00  0.00000000000E+00  0.39690771832E+02  0.39690771832E+02  0.00000000000E+00 0. -1.
         -2   -1    0    0    0  501 -0.00000000000E+00 -0.00000000000E+00 -0.13191983189E+02  0.13191983189E+02  0.00000000000E+00 0.  1.
          2    1    1    2  502    0 -0.21655030801E+02 -0.55825438501E+01  0.18850457938E+02  0.29247990004E+02  0.00000000000E+00 0. -1.
         -2    1    1    2    0  502  0.21655030801E+02  0.55825438501E+01  0.76483307062E+01  0.23634765017E+02  0.00000000000E+00 0.  1.
</event>
<event>
 4    1  0.5841374E+003  0.3154380E+02  0.7546771E-02  0.1406639E+00
          2   -1    0    0  501    0  0.00000000000E+00  0.00000000000E+00  0.42457469331E+03  0.42457469331E+03  0.00000000000E+00 0.  1.
         -2   -1    0    0    0  501 -0.00000000000E+00 -0.00000000000E+00 -0.32307656628E+03  0.32307656628E+03  0.00000000000E+00 0. -1.
          2    1    1    2  502    0  0.28183968057E+02 -0.14165991271E+02  0.42321638836E+03  0.42439029530E+03  0.00000000000E+00 0.  1.
         -2    1    1    2    0  502 -0.28183968057E+02  0.14165991271E+02 -0.32171826133E+03  0.32326096430E+03  0.00000000000E+00 0. -1.
</event>
<event>
 4    1  0.5841374E+003  0.3017887E+02  0.7546771E-02  0.1418048E+00
          2   -1    0    0  501    0  0.00000000000E+00  0.00000000000E+00  0.22510246566E+03  0.22510246566E+03  0.00000000000E+00 0. -1.
         -2   -1    0    0    0  501 -0.00000000000E+00 -0.00000000000E+00 -0.90255488004E+02  0.90255488004E+02  0.00000000000E+00 0. -1.
          2    1    1    2  502    0  0.58854129994E+00  0.30173128089E+02  0.22152770567E+03  0.22357389923E+03  0.00000000000E+00 0. -1.
         -2    1    1    2    0  502 -0.58854129994E+00 -0.30173128089E+02 -0.86680728011E+02  0.91784054432E+02  0.00000000000E+00 0. -1.
</event>
<event>
 4    1  0.5841374E+003  0.2212919E+02  0.7546771E-02  0.1503732E+00
          2   -1    0    0  501    0  0.00000000000E+00  0.00000000000E+00  0.40739065589E+02  0.40739065589E+02  0.00000000000E+00 0.  1.
         -2   -1    0    0    0  501 -0.00000000000E+00 -0.00000000000E+00 -0.67503232034E+02  0.67503232034E+02  0.00000000000E+00 0. -1.
          2    1    1    2  502    0 -0.22127381263E+02  0.28313344280E+00  0.35684284396E+02  0.41988919002E+02  0.00000000000E+00 0.  1.
         -2    1    1    2    0  502  0.22127381263E+02 -0.28313344280E+00 -0.62448450841E+02  0.66253378620E+02  0.00000000000E+00 0. -1.
</event>
<event>
 4    1  0.5841374E+003  0.3341014E+02  0.7546771E-02  0.1392099E+00
          2   -1    0    0  501    0  0.00000000000E+00  0.00000000000E+00  0.80288567102E+01  0.80288567102E+01  0.00000000000E+00 0.  1.
         -2   -1    0    0    0  501 -0.00000000000E+00 -0.00000000000E+00 -0.40594311094E+03  0.40594311094E+03  0.00000000000E+00 0.  1.
          2    1    1    2  502    0  0.32899307518E+02  0.58200589860E+01 -0.31117399695E+02  0.45656654341E+02  0.00000000000E+00 0.  1.
         -2    1    1    2    0  502 -0.32899307518E+02 -0.58200589860E+01 -0.36679685453E+03  0.36831531331E+03  0.00000000000E+00 0.  1.
</event>
<event>
 4    1  0.5841374E+003  0.3523211E+02  0.7546771E-02  0.1378939E+00
          2   -1    0    0  501    0  0.00000000000E+00  0.00000000000E+00  0.13325467922E+02  0.13325467922E+02  0.00000000000E+00 0. -1.
         -2   -1    0    0    0  501 -0.00000000000E+00 -0.00000000000E+00 -0.16255943421E+03  0.16255943421E+03  0.00000000000E+00 0.  1.
          2    1    1    2  502    0 -0.34330246304E+02  0.79206104598E+01 -0.17153278918E+02  0.39185926797E+02  0.00000000000E+00 0. -1.
         -2    1    1    2    0  502  0.34330246304E+02 -0.79206104598E+01 -0.13208068737E+03  0.13669897533E+03  0.00000000000E+00 0.  1.
</event>
<event>
 4    1  0.5841374E+003  0.5412570E+02  0.7546771E-02  0.1281212E+00
          2   -1    0    0  501    0  0.00000000000E+00  0.00000000000E+00  0.20615448097E+04  0.20615448097E+04  0.00000000000E+00 0.  1.
         -2   -1    0    0    0  501 -0.00000000000E+00 -0.00000000000E+00 -0.38519078345E+02  0.38519078345E+02  0.00000000000E+00 0.  1.
          2    1    1    2  502    0 -0.10951803126E+02  0.53006125142E+02  0.20419936276E+04  0.20427108377E+04  0.00000000000E+00 0.  1.
         -2    1    1    2    0  502  0.10951803126E+02 -0.53006125142E+02 -0.18967896257E+02  0.57353050334E+02  0.00000000000E+00 0.  1.
</event>
<event>
 4    1  0.5841374E+003  0.2189774E+02  0.7546771E-02  0.1506823E+00
          2   -1    0    0  501    0  0.00000000000E+00  0.00000000000E+00  0.12828451968E+02  0.12828451968E+02  0.00000000000E+00 0.  1.
         -2   -1    0    0    0  501 -0.00000000000E+00 -0.00000000000E+00 -0.37409641312E+03  0.37409641312E+03  0.00000000000E+00 0.  1.
          2    1    1    2  502    0 -0.19096536268E+02 -0.10716040290E+02  0.29090235092E+01  0.22090125276E+02  0.00000000000E+00 0.  1.
         -2    1    1    2    0  502  0.19096536268E+02  0.10716040290E+02 -0.36417698466E+03  0.36483473981E+03  0.00000000000E+00 0.  1.
</event>
<event>
 4    1  0.5841374E+003  0.2885391E+02  0.7546771E-02  0.1429824E+00
          2   -1    0    0  501    0  0.00000000000E+00  0.00000000000E+00  0.45786253294E+03  0.45786253294E+03  0.00000000000E+00 0.  1.
         -2   -1    0    0    0  501 -0.00000000000E+00 -0.00000000000E+00 -0.38937853709E+01  0.38937853709E+01  0.00000000000E+00 0.  1.
          2    1    1    2  502    0  0.26582595902E+02 -0.11221133709E+02  0.39554372272E+03  0.39659473626E+03  0.00000000000E+00 0.  1.
         -2    1    1    2    0  502 -0.26582595902E+02  0.11221133709E+02  0.58425024848E+02  0.65161582049E+02  0.00000000000E+00 0.  1.
</event>
<event>
 4    1  0.5841374E+003  0.2779499E+02  0.7546771E-02  0.1439782E+00
          2   -1    0    0  501    0  0.00000000000E+00  0.00000000000E+00  0.20626568244E+03  0.20626568244E+03  0.00000000000E+00 0.  1.
         -2   -1    0    0    0  501 -0.00000000000E+00 -0.00000000000E+00 -0.17589647760E+02  0.17589647760E+02  0.00000000000E+00 0.  1.
          2    1    1    2  502    0 -0.21741708614E+02  0.17316457448E+02  0.19363647014E+03  0.19562117514E+03  0.00000000000E+00 0.  1.
         -2    1    1    2    0  502  0.21741708614E+02 -0.17316457448E+02 -0.49604354657E+01  0.28234155061E+02  0.00000000000E+00 0.  1.
</event>
<event>
 4    1  0.5841374E+003  0.4154821E+02  0.7546771E-02  0.1339645E+00
          2   -1    0    0  501    0  0.00000000000E+00  0.00000000000E+00  0.46373653098E+03  0.46373653098E+03  0.00000000000E+00 0.  1.
         -2   -1    0    0    0  501 -0.00000000000E+00 -0.00000000000E+00 -0.38950642265E+01  0.38950642265E+01  0.00000000000E+00 0.  1.
          2    1    1    2  502    0  0.35199423462E+02  0.22073842097E+02  0.27913673838E+03  0.28221192858E+03  0.00000000000E+00 0.  1.
         -2    1    1    2    0  502 -0.35199423462E+02 -0.22073842097E+02  0.18070472837E+03  0.18541966663E+03  0.00000000000E+00 0.  1.
</event>
<event>
 4    1  0.5841374E+003  0.2673195E+02  0.7546771E-02  0.1450319E+00
          2   -1    0    0  501    0  0.00000000000E+00  0.00000000000E+00  0.92614388369E+02  0.92614388369E+02  0.00000000000E+00 0.  1.
         -2   -1    0    0    0  501 -0.00000000000E+00 -0.00000000000E+00 -0.81036701514E+02  0.81036701514E+02  0.00000000000E+00 0. -1.
          2    1    1    2  502    0  0.26685716755E+02 -0.15715825247E+01  0.88377506164E+02  0.92331906437E+02  0.00000000000E+00 0.  1.
         -2    1    1    2    0  502 -0.26685716755E+02  0.15715825247E+01 -0.76799819310E+02  0.81319183446E+02  0.00000000000E+00 0. -1.
</event>
<event>
 4    1  0.5841374E+003  0.2137191E+02  0.7546771E-02  0.1514021E+00
          2   -1    0    0  501    0  0.00000000000E+00  0.00000000000E+00  0.12865464806E+04  0.12865464806E+04  0.00000000000E+00 0. -1.
         -2   -1    0    0    0  501 -0.00000000000E+00 -0.00000000000E+00 -0.27839757367E+01  0.27839757367E+01  0.00000000000E+00 0.  1.
          2    1    1    2  502    0 -0.76795573845E+01 -0.19944494008E+02  0.12440396094E+04  0.12442231746E+04  0.00000000000E+00 0. -1.
         -2    1    1    2    0  502  0.76795573845E+01  0.19944494008E+02  0.39722895527E+02  0.45107281806E+02  0.00000000000E+00 0.  1.
</event>
<event>
 4    1  0.5841374E+003  0.2431537E+02  0.7546771E-02  0.1476610E+00
          2   -1    0    0  501    0  0.00000000000E+00  0.00000000000E+00  0.32884205104E+03  0.32884205104E+03  0.00000000000E+00 0.  1.
         -2   -1    0    0    0  501 -0.00000000000E+00 -0.00000000000E+00 -0.36902517856E+03  0.36902517856E+03  0.00000000000E+00 0.  1.
          2    1    1    2  502    0 -0.10860911707E+02 -0.21754954471E+02  0.32799098874E+03  0.32889105512E+03  0.00000000000E+00 0.  1.
         -2    1    1    2    0  502  0.10860911707E+02  0.21754954471E+02 -0.36817411626E+03  0.36897617448E+03  0.00000000000E+00 0.  1.
</event>
<event>
 4    1  0.5841374E+003  0.2499607E+02  0.7546771E-02  0.1468847E+00
          2   -1    0    0  501    0  0.00000000000E+00  0.00000000000E+00  0.43295646086E+02  0.43295646086E+02  0.00000000000E+00 0.  1.
         -2   -1    0    0    0  501 -0.00000000000E+00 -0.00000000000E+00 -0.33495657674E+02  0.33495657674E+02  0.00000000000E+00 0. -1.
          2    1    1    2  502    0  0.38582554526E+01 -0.24696506443E+02  0.33866840752E+02  0.42092356410E+02  0.00000000000E+00 0.  1.
         -2    1    1    2    0  502 -0.38582554526E+01  0.24696506443E+02 -0.24066852341E+02  0.34698947350E+02  0.00000000000E+00 0. -1.
</event>
<event>
 4    1  0.5841374E+003  0.2834942E+02  0.7546771E-02  0.1434504E+00
          2   -1    0    0  501    0  0.00000000000E+00  0.00000000000E+00  0.13370014048E+04  0.13370014048E+04  0.00000000000E+00 0. -1.
         -2   -1    0    0    0  501 -0.00000000000E+00 -0.00000000000E+00 -0.26525461038E+01  0.26525461038E+01  0.00000000000E+00 0. -1.
          2    1    1    2  502    0 -0.67528986347E+01 -0.27533394367E+02  0.12562347935E+04  0.12565546331E+04  0.00000000000E+00 0. -1.
         -2    1    1    2    0  502  0.67528986347E+01  0.27533394367E+02  0.78114065139E+02  0.83099317794E+02  0.00000000000E+00 0. -1.
</event>
<event>
 4    1  0.5841374E+003  0.2680994E+02  0.7546771E-02  0.1449527E+00
          2   -1    0    0  501    0  0.00000000000E+00  0.00000000000E+00  0.33994997083E+03  0.33994997083E+03  0.00000000000E+00 0. -1.
         -2   -1    0    0    0  501 -0.00000000000E+00 -0.00000000000E+00 -0.25192978036E+01  0.25192978036E+01  0.00000000000E+00 0. -1.
          2    1    1    2  502    0 -0.12182234190E+02 -0.23882333126E+02  0.23736718837E+03  0.23887644250E+03  0.00000000000E+00 0. -1.
         -2    1    1    2    0  502  0.12182234190E+02  0.23882333126E+02  0.10006348466E+03  0.10359282614E+03  0.00000000000E+00 0. -1.
</event>
<event>
 4    1  0.5841374E+003  0.2383411E+02  0.7546771E-02  0.1482282E+00
          2   -1    0    0  501    0  0.00000000000E+00  0.00000000000E+00  0.14584157537E+04  0.14584157537E+04  0.00000000000E+00 0. -1.
         -2   -1    0    0    0  501 -0.00000000000E+00 -0.00000000000E+00 -0.57913021314E+00  0.57913021314E+00  0.00000000000E+00 0. -1.
          2    1    1    2  502    0 -0.72142001900E+01 -0.22716072191E+02  0.11463450404E+04  0.11465927857E+04  0.00000000000E+00 0. -1.
         -2    1    1    2    0  502  0.72142001900E+01  0.22716072191E+02  0.31149158306E+03  0.31240209816E+03  0.00000000000E+00 0. -1.
</event>
<event>
 4    1  0.5841374E+003  0.3539451E+02  0.7546771E-02  0.1377811E+00
          2   -1    0    0  501    0  0.00000000000E+00  0.00000000000E+00  0.46172223619E+03  0.46172223619E+03  0.00000000000E+00 0. -1.
         -2   -1    0    0    0  501 -0.00000000000E+00 -0.00000000000E+00 -0.28531276687E+01  0.28531276687E+01  0.00000000000E+00 0. -1.
          2    1    1    2  502    0 -0.31616632104E+02 -0.15910992766E+02  0.28086600943E+03  0.28308741825E+03  0.00000000000E+00 0. -1.
         -2    1    1    2    0  502  0.31616632104E+02  0.15910992766E+02  0.17800309909E+03  0.18148794561E+03  0.00000000000E+00 0. -1.
</event>
<event>
 4    1  0.5841374E+003  0.3649653E+02  0.7546771E-02  0.1370337E+00
          2   -1    0    0  501    0  0.00000000000E+00  0.00000000000E+00  0.57439064824E+03  0.57439064824E+03  0.00000000000E+00 0. -1.
         -2   -1    0    0    0  501 -0.00000000000E+00 -0.00000000000E+00 -0.23487269643E+01  0.23487269643E+01  0.00000000000E+00 0.  1.
          2    1    1    2  502    0  0.30043400883E+02 -0.20721746037E+02  0.31847748905E+03  0.32056186256E+03  0.00000000000E+00 0. -1.
         -2    1    1    2    0  502 -0.30043400883E+02  0.20721746037E+02  0.25356443222E+03  0.25617751264E+03  0.00000000000E+00 0.  1.
</event>
<event>
 4    1  0.5841374E+003  0.2062928E+02  0.7546771E-02  0.1524624E+00
          2   -1    0    0  501    0  0.00000000000E+00  0.00000000000E+00  0.41675754890E+03  0.41675754890E+03  0.00000000000E+00 0. -1.
         -2   -1    0    0    0  501 -0.00000000000E+00 -0.00000000000E+00 -0.85518188999E+01  0.85518188999E+01  0.00000000000E+00 0. -1.
          2    1    1    2  502    0  0.19340789365E+02  0.71764257864E+01  0.40365795542E+03  0.40418475007E+03  0.00000000000E+00 0. -1.
         -2    1    1    2    0  502 -0.19340789365E+02 -0.71764257864E+01  0.45477745802E+01  0.21124617724E+02  0.00000000000E+00 0. -1.
</event>
<event>
 4    1  0.5841374E+003  0.3904827E+02  0.7546771E-02  0.1354155E+00
          2   -1    0    0  501    0  0.00000000000E+00  0.00000000000E+00  0.10121449902E+02  0.10121449902E+02  0.00000000000E+00 0.  1.
         -2   -1    0    0    0  501 -0.00000000000E+00 -0.00000000000E+00 -0.10242080088E+04  0.10242080088E+04  0.00000000000E+00 0. -1.
          2    1    1    2  502    0 -0.38827076180E+02  0.41504118903E+01 -0.29424501137E+02  0.48893445682E+02  0.00000000000E+00 0.  1.
         -2    1    1    2    0  502  0.38827076180E+02 -0.41504118903E+01 -0.98466205774E+03  0.98543601300E+03  0.00000000000E+00 0. -1.
</event>
<event>
 4    1  0.5841374E+003  0.3528959E+02  0.7546771E-02  0.1378539E+00
          2   -1    0    0  501    0  0.00000000000E+00  0.00000000000E+00  0.75652134988E+03  0.75652134988E+03  0.00000000000E+00 0.  1.
         -2   -1    0    0    0  501 -0.00000000000E+00 -0.00000000000E+00 -0.10285773395E+02  0.10285773395E+02  0.00000000000E+00 0.  1.
          2    1    1    2  502    0  0.11454999380E+01  0.35270998101E+02  0.72450407748E+03  0.72536302205E+03  0.00000000000E+00 0.  1.
         -2    1    1    2    0  502 -0.11454999380E+01 -0.35270998101E+02  0.21731499007E+02  0.41444101224E+02  0.00000000000E+00 0.  1.
</event>
<event>
 4    1  0.5841374E+003  0.2834974E+02  0.7546771E-02  0.1434501E+00
          2   -1    0    0  501    0  0.00000000000E+00  0.00000000000E+00  0.39365036664E+03  0.39365036664E+03  0.00000000000E+00 0.  1.
         -2   -1    0    0    0  501 -0.00000000000E+00 -0.00000000000E+00 -0.13536492773E+02  0.13536492773E+02  0.00000000000E+00 0.  1.
          2    1    1    2  502    0  0.21403705266E+02 -0.18590029883E+02  0.37766938248E+03  0.37873192402E+03  0.00000000000E+00 0.  1.
         -2    1    1    2    0  502 -0.21403705266E+02  0.18590029883E+02  0.24444913905E+01  0.28454935395E+02  0.00000000000E+00 0.  1.
</event>
<event>
 4    1  0.5841374E+003  0.5154194E+02  0.7546771E-02  0.1291622E+00
          2   -1    0    0  501    0  0.00000000000E+00  0.00000000000E+00  0.62592623736E+03  0.62592623736E+03  0.00000000000E+00 0. -1.
         -2   -1    0    0    0  501 -0.00000000000E+00 -0.00000000000E+00 -0.11130950128E+02  0.11130950128E+02  0.00000000000E+00 0. -1.
          2    1    1    2  502    0  0.36963286834E+02  0.35920567278E+02  0.55794434153E+03  0.56031996214E+03  0.00000000000E+00 0. -1.
         -2    1    1    2    0  502 -0.36963286834E+02 -0.35920567278E+02  0.56850945705E+02  0.76737225352E+02  0.00000000000E+00 0. -1.
</event>
<event>
 4    1  0.5841374E+003  0.2697743E+02  0.7546771E-02  0.1447835E+00
          2   -1    0    0  501    0  0.00000000000E+00  0.00000000000E+00  0.13536338776E+02  0.13536338776E+02  0.00000000000E+00 0.  1.
         -2   -1    0    0    0  501 -0.00000000000E+00 -0.00000000000E+00 -0.53874750600E+02  0.53874750600E+02  0.00000000000E+00 0.  1.
          2    1    1    2  502    0 -0.55071795987E+01 -0.26409328935E+02 -0.18648134333E+02  0.32795344121E+02  0.00000000000E+00 0.  1.
         -2    1    1    2    0  502  0.55071795987E+01  0.26409328935E+02 -0.21690277491E+02  0.34615745255E+02  0.00000000000E+00 0.  1.
</event>
<event>
 4    1  0.5841374E+003  0.2580341E+02  0.7546771E-02  0.1460013E+00
          2   -1    0    0  501    0  0.00000000000E+00  0.00000000000E+00  0.69772645986E+03  0.69772645986E+03  0.00000000000E+00 0. -1.
         -2   -1    0    0    0  501 -0.00000000000E+00 -0.00000000000E+00 -0.53264676949E+02  0.53264676949E+02  0.00000000000E+00 0.  1.
          2    1    1    2  502    0  0.17424158113E+02 -0.19031944901E+02  0.69434765546E+03  0.69482694454E+03  0.00000000000E+00 0. -1.
         -2    1    1    2    0  502 -0.17424158113E+02  0.19031944901E+02 -0.49885872553E+02  0.56164192267E+02  0.00000000000E+00 0.  1.
</event>
<event>
 4    1  0.5841374E+003  0.2064828E+02  0.7546771E-02  0.1524346E+00
          2   -1    0    0  501    0  0.00000000000E+00  0.00000000000E+00  0.49216017931E+03  0.49216017931E+03  0.00000000000E+00 0. -1.
         -2   -1    0    0    0  501 -0.00000000000E+00 -0.00000000000E+00 -0.18209109852E+02  0.18209109852E+02  0.00000000000E+00 0. -1.
          2    1    1    2  502    0  0.15356307324E+02  0.13803444729E+02  0.48601609899E+03  0.48645451970E+03  0.00000000000E+00 0. -1.
         -2    1    1    2    0  502 -0.15356307324E+02 -0.13803444729E+02 -0.12065029528E+02  0.23914769464E+02  0.00000000000E+00 0. -1.
</event>
<event>
 4    1  0.5841374E+003  0.2930441E+02  0.7546771E-02  0.1425739E+00
          2   -1    0    0  501    0  0.00000000000E+00  0.00000000000E+00  0.30309325095E+03  0.30309325095E+03  0.00000000000E+00 0.  1.
         -2   -1    0    0    0  501 -0.00000000000E+00 -0.00000000000E+00 -0.29144390929E+01  0.29144390929E+01  0.00000000000E+00 0.  1.
          2    1    1    2  502    0 -0.28964485586E+02 -0.44503945899E+01  0.12455658383E+03  0.12795737577E+03  0.00000000000E+00 0.  1.
         -2    1    1    2    0  502  0.28964485586E+02  0.44503945899E+01  0.17562222802E+03  0.17805031428E+03  0.00000000000E+00 0.  1.
</event>
<event>
 4    1  0.5841374E+003  0.2009402E+02  0.7546771E-02  0.1532603E+00
          2   -1    0    0  501    0  0.00000000000E+00  0.00000000000E+00  0.17811391966E+03  0.17811391966E+03  0.00000000000E+00 0. -1.
         -2   -1    0    0    0  501 -0.00000000000E+00 -0.00000000000E+00 -0.12685719264E+03  0.12685719264E+03  0.00000000000E+00 0.  1.
          2    1    1    2  502    0  0.13793660202E+02  0.14611799610E+02  0.17674533124E+03  0.17788389996E+03  0.00000000000E+00 0. -1.
         -2    1    1    2    0  502 -0.13793660202E+02 -0.14611799610E+02 -0.12548860423E+03  0.12708721234E+03  0.00000000000E+00 0.  1.
</event>
<event>
 4    1  0.5841374E+003  0.2350638E+02  0.7546771E-02  0.1486236E+00
          2   -1    0    0  501    0  0.00000000000E+00  0.00000000000E+00  0.21620925947E+04  0.21620925947E+04  0.00000000000E+00 0. -1.
         -2   -1    0    0    0  501 -0.00000000000E+00 -0.00000000000E+00 -0.26975789123E+00  0.26975789123E+00  0.00000000000E+00 0.  1.
          2    1    1    2  502    0  0.22946769398E+02  0.50985797448E+01  0.13289306835E+04  0.13291385599E+04  0.00000000000E+00 0.  1.
         -2    1    1    2    0  502 -0.22946769398E+02 -0.50985797448E+01  0.83289215327E+03  0.83322379270E+03  0.00000000000E+00 0. -1.
</event>
<event>
 4    1  0.5841374E+003  0.2688151E+02  0.7546771E-02  0.1448802E+00
          2   -1    0    0  501    0  0.00000000000E+00  0.00000000000E+00  0.12276993605E+04  0.12276993605E+04  0.00000000000E+00 0.  1.
         -2   -1    0    0    0  501 -0.00000000000E+00 -0.00000000000E+00 -0.46617256277E+01  0.46617256277E+01  0.00000000000E+00 0.  1.
          2    1    1    2  502    0 -0.36033207683E+01 -0.26638912968E+02  0.11874875221E+04  0.11877917455E+04  0.00000000000E+00 0.  1.
         -2    1    1    2    0  502  0.36033207683E+01  0.26638912968E+02  0.35550112851E+02  0.44569340677E+02  0.00000000000E+00 0.  1.
</event>
<event>
 4    1  0.5841374E+003  0.2105236E+02  0.7546771E-02  0.1518518E+00
          2   -1    0    0  501    0  0.00000000000E+00  0.00000000000E+00  0.14674275985E+03  0.14674275985E+03  0.00000000000E+00 0.  1.
         -2   -1    0    0    0  501 -0.00000000000E+00 -0.00000000000E+00 -0.29955565344E+02  0.29955565344E+02  0.00000000000E+00 0.  1.
          2    1    1    2  502    0  0.44935500665E+01  0.20567208018E+02  0.14217055543E+03  0.14372080180E+03  0.00000000000E+00 0.  1.
         -2    1    1    2    0  502 -0.44935500665E+01 -0.20567208018E+02 -0.25383360922E+02  0.32977523399E+02  0.00000000000E+00 0.  1.
</event>
<event>
 4    1  0.5841374E+003  0.2002613E+02  0.7546771E-02  0.1533637E+00
          2   -1    0    0  501    0  0.00000000000E+00  0.00000000000E+00  0.12242336625E+04  0.12242336625E+04  0.00000000000E+00 0. -1.
         -2   -1    0    0    0  501 -0.00000000000E+00 -0.00000000000E+00 -0.60425225292E+01  0.60425225292E+01  0.00000000000E+00 0. -1.
          2    1    1    2  502    0  0.15824973000E+02  0.12272576291E+02  0.12073267725E+04  0.12074928494E+04  0.00000000000E+00 0. -1.
         -2    1    1    2    0  502 -0.15824973000E+02 -0.12272576291E+02  0.10864367476E+02  0.22783335575E+02  0.00000000000E+00 0. -1.
</event>
<event>
 4    1  0.5841374E+003  0.2421370E+02  0.7546771E-02  0.1477795E+00
          2   -1    0    0  501    0  0.00000000000E+00  0.00000000000E+00  0.20928131167E+03  0.20928131167E+03  0.00000000000E+00 0. -1.
         -2   -1    0    0    0  501 -0.00000000000E+00 -0.00000000000E+00 -0.57451495749E+01  0.57451495749E+01  0.00000000000E+00 0. -1.
          2    1    1    2  502    0 -0.11543071378E+02  0.21285221627E+02  0.17872607626E+03  0.18035884645E+03  0.00000000000E+00 0. -1.
         -2    1    1    2    0  502  0.11543071378E+02 -0.21285221627E+02  0.24810085831E+02  0.34667614794E+02  0.00000000000E+00 0. -1.
</event>
<event>
 4    1  0.5841374E+003  0.2105524E+02  0.7546771E-02  0.1518478E+00
          2   -1    0    0  501    0  0.00000000000E+00  0.00000000000E+00  0.56428681687E+03  0.56428681687E+03  0.00000000000E+00 0. -1.
         -2   -1    0    0    0  501 -0.00000000000E+00 -0.00000000000E+00 -0.27810488737E+03  0.27810488737E+03  0.00000000000E+00 0.  1.
          2    1    1    2  502    0 -0.19909846219E+02 -0.68498977530E+01  0.56369146607E+03  0.56408456103E+03  0.00000000000E+00 0. -1.
         -2    1    1    2    0  502  0.19909846219E+02  0.68498977530E+01 -0.27750953657E+03  0.27830714321E+03  0.00000000000E+00 0.  1.
</event>
<event>
 4    1  0.6995075E+003  0.2672663E+02  0.7546771E-02  0.1450374E+00
          2   -1    0    0  501    0  0.00000000000E+00  0.00000000000E+00  0.80881185075E+03  0.80881185075E+03  0.00000000000E+00 0.  1.
         -2   -1    0    0    0  501 -0.00000000000E+00 -0.00000000000E+00 -0.16943556113E+03  0.16943556113E+03  0.00000000000E+00 0.  1.
          2    1    1    2  502    0  0.15448830552E+02  0.21809320896E+02  0.80753543504E+03  0.80797759355E+03  0.00000000000E+00 0.  1.
         -2    1    1    2    0  502 -0.15448830552E+02 -0.21809320896E+02 -0.16815914542E+03  0.17026981832E+03  0.00000000000E+00 0.  1.
</event>
<event>
 4    1  0.5841374E+003  0.2229260E+02  0.7546771E-02  0.1501577E+00
          2   -1    0    0  501    0  0.00000000000E+00  0.00000000000E+00  0.71283421049E+03  0.71283421049E+03  0.00000000000E+00 0.  1.
         -2   -1    0    0    0  501 -0.00000000000E+00 -0.00000000000E+00 -0.55874924377E+02  0.55874924377E+02  0.00000000000E+00 0.  1.
          2    1    1    2  502    0 -0.16229415316E+01  0.22233445153E+02  0.71042885597E+03  0.71077853050E+03  0.00000000000E+00 0.  1.
         -2    1    1    2    0  502  0.16229415316E+01 -0.22233445153E+02 -0.53469569853E+02  0.57930604372E+02  0.00000000000E+00 0.  1.
</event>
<event>
 4    1  0.5841374E+003  0.2093247E+02  0.7546771E-02  0.1520231E+00
          2   -1    0    0  501    0  0.00000000000E+00  0.00000000000E+00  0.58778389874E+01  0.58778389874E+01  0.00000000000E+00 0. -1.
         -2   -1    0    0    0  501 -0.00000000000E+00 -0.00000000000E+00 -0.13662990931E+03  0.13662990931E+03  0.00000000000E+00 0.  1.
          2    1    1    2  502    0  0.17076630566E+02 -0.12106072923E+02 -0.17344578454E+02  0.27184604372E+02  0.00000000000E+00 0. -1.
         -2    1    1    2    0  502 -0.17076630566E+02  0.12106072923E+02 -0.11340749187E+03  0.11532314393E+03  0.00000000000E+00 0.  1.
</event>
<event>
 4    1  0.5841374E+003  0.3309412E+02  0.7546771E-02  0.1394481E+00
          2   -1    0    0  501    0  0.00000000000E+00  0.00000000000E+00  0.99096225753E+02  0.99096225753E+02  0.00000000000E+00 0. -1.
         -2   -1    0    0    0  501 -0.00000000000E+00 -0.00000000000E+00 -0.12535143666E+02  0.12535143666E+02  0.00000000000E+00 0. -1.
          2    1    1    2  502    0 -0.24482925402E+02 -0.22266696012E+02  0.24081853678E+02  0.40928658225E+02  0.00000000000E+00 0. -1.
         -2    1    1    2    0  502  0.24482925402E+02  0.22266696012E+02  0.62479228409E+02  0.70702711193E+02  0.00000000000E+00 0. -1.
</event>
<event>
 4    1  0.5841374E+003  0.2133605E+02  0.7546771E-02  0.1514521E+00
          2   -1    0    0  501    0  0.00000000000E+00  0.00000000000E+00  0.48748893237E+01  0.48748893237E+01  0.00000000000E+00 0.  1.
         -2   -1    0    0    0  501 -0.00000000000E+00 -0.00000000000E+00 -0.45864742657E+03  0.45864742657E+03  0.00000000000E+00 0.  1.
          2    1    1    2  502    0  0.20476596476E+02  0.59946733354E+01 -0.20060126617E+02  0.29285419436E+02  0.00000000000E+00 0.  1.
         -2    1    1    2    0  502 -0.20476596476E+02 -0.59946733354E+01 -0.43371241063E+03  0.43423689646E+03  0.00000000000E+00 0.  1.
</event>
<event>
 4    1  0.5841374E+003  0.2907948E+02  0.7546771E-02  0.1427768E+00
          2   -1    0    0  501    0  0.00000000000E+00  0.00000000000E+00  0.43279547624E+03  0.43279547624E+03  0.00000000000E+00 0. -1.
         -2   -1    0    0    0  501 -0.00000000000E+00 -0.00000000000E+00 -0.65247855348E+02  0.65247855348E+02  0.00000000000E+00 0.  1.
          2    1    1    2  502    0 -0.12365174813E+02  0.26319548074E+02  0.42903866111E+03  0.43002300972E+03  0.00000000000E+00 0. -1.
         -2    1    1    2    0  502  0.12365174813E+02 -0.26319548074E+02 -0.61491040223E+02  0.68020321866E+02  0.00000000000E+00 0.  1.
</event>
<event>
 4    1  0.5841374E+003  0.2084914E+02  0.7546771E-02  0.1521430E+00
          2   -1    0    0  501    0  0.00000000000E+00  0.00000000000E+00  0.30599072543E+03  0.30599072543E+03  0.00000000000E+00 0. -1.
         -2   -1    0    0    0  501 -0.00000000000E+00 -0.00000000000E+00 -0.50384708199E+01  0.50384708199E+01  0.00000000000E+00 0. -1.
          2    1    1    2  502    0  0.15044519914E+02 -0.14434294760E+02  0.28225600409E+03  0.28302497821E+03  0.00000000000E+00 0. -1.
         -2    1    1    2    0  502 -0.15044519914E+02  0.14434294760E+02  0.18696250521E+02  0.28004218043E+02  0.00000000000E+00 0. -1.
</event>
<event>
 4    1  0.5841374E+003  0.2852769E+02  0.7546771E-02  0.1432838E+00
          2   -1    0    0  501    0  0.00000000000E+00  0.00000000000E+00  0.85190499513E+03  0.85190499513E+03  0.00000000000E+00 0. -1.
         -2   -1    0    0    0  501 -0.00000000000E+00 -0.00000000000E+00 -0.24225832299E+01  0.24225832299E+01  0.00000000000E+00 0. -1.
          2    1    1    2  502    0  0.27786014470E+02 -0.64627069934E+01  0.75717969520E+03  0.75771691284E+03  0.00000000000E+00 0. -1.
         -2    1    1    2    0  502 -0.27786014470E+02  0.64627069934E+01  0.92302716701E+02  0.96610665520E+02  0.00000000000E+00 0. -1.
</event>
<event>
 4    1  0.5841374E+003  0.2073962E+02  0.7546771E-02  0.1523015E+00
          2   -1    0    0  501    0  0.00000000000E+00  0.00000000000E+00  0.18186524994E+02  0.18186524994E+02  0.00000000000E+00 0. -1.
         -2   -1    0    0    0  501 -0.00000000000E+00 -0.00000000000E+00 -0.45370243092E+03  0.45370243092E+03  0.00000000000E+00 0.  1.
          2    1    1    2  502    0  0.22738921262E+01  0.20614587159E+02  0.11954426001E+02  0.23938255788E+02  0.00000000000E+00 0. -1.
         -2    1    1    2    0  502 -0.22738921262E+01 -0.20614587159E+02 -0.44747033192E+03  0.44795070012E+03  0.00000000000E+00 0.  1.
</event>
<event>
 4    1  0.5841374E+003  0.2171523E+02  0.7546771E-02  0.1509293E+00
          2   -1    0    0  501    0  0.00000000000E+00  0.00000000000E+00  0.14432387294E+04  0.14432387294E+04  0.00000000000E+00 0. -1.
         -2   -1    0    0    0  501 -0.00000000000E+00 -0.00000000000E+00 -0.60858119857E+00  0.60858119857E+00  0.00000000000E+00 0.  1.
          2    1    1    2  502    0  0.16880876157E+02 -0.13659691713E+02  0.12126085607E+04  0.12128029818E+04  0.00000000000E+00 0. -1.
         -2    1    1    2    0  502 -0.16880876157E+02  0.13659691713E+02  0.23002158747E+03  0.23104432877E+03  0.00000000000E+00 0.  1.
</event>
<event>
 4    1  0.5841374E+003  0.3314012E+02  0.7546771E-02  0.1394132E+00
          2   -1    0    0  501    0  0.00000000000E+00  0.00000000000E+00  0.13752475973E+03  0.13752475973E+03  0.00000000000E+00 0.  1.
         -2   -1    0    0    0  501 -0.00000000000E+00 -0.00000000000E+00 -0.19603402422E+02  0.19603402422E+02  0.00000000000E+00 0.  1.
          2    1    1    2  502    0 -0.65583507867E+01  0.32484696681E+02  0.11944092305E+03  0.12395322337E+03  0.00000000000E+00 0.  1.
         -2    1    1    2    0  502  0.65583507867E+01 -0.32484696681E+02 -0.15195657411E+01  0.33174938787E+02  0.00000000000E+00 0.  1.
</event>
<event>
 4    1  0.5841374E+003  0.2285398E+02  0.7546771E-02  0.1494340E+00
          2   -1    0    0  501    0  0.00000000000E+00  0.00000000000E+00  0.75212788079E+01  0.75212788079E+01  0.00000000000E+00 0.  1.
         -2   -1    0    0    0  501 -0.00000000000E+00 -0.00000000000E+00 -0.16304165316E+03  0.16304165316E+03  0.00000000000E+00 0. -1.
          2    1    1    2  502    0  0.22307614042E+02 -0.49673652944E+01 -0.13144364656E+02  0.26364344946E+02  0.00000000000E+00 0.  1.
         -2    1    1    2    0  502 -0.22307614042E+02  0.49673652944E+01 -0.14237600970E+03  0.14419858702E+03  0.00000000000E+00 0. -1.
</event>
<event>
 4    1  0.5841374E+003  0.2395899E+02  0.7546771E-02  0.1480795E+00
          2   -1    0    0  501    0  0.00000000000E+00  0.00000000000E+00  0.17541549641E+04  0.17541549641E+04  0.00000000000E+00 0.  1.
         -2   -1    0    0    0  501 -0.00000000000E+00 -0.00000000000E+00 -0.10240867216E+02  0.10240867216E+02  0.00000000000E+00 0. -1.
          2    1    1    2  502    0 -0.10582875299E+02  0.21495027109E+02  0.17399454156E+04  0.17401103650E+04  0.00000000000E+00 0.  1.
         -2    1    1    2    0  502  0.10582875299E+02 -0.21495027109E+02  0.39686813203E+01  0.24285466259E+02  0.00000000000E+00 0. -1.
</event>
<event>
 4    1  0.5841374E+003  0.2504495E+02  0.7546771E-02  0.1468301E+00
          2   -1    0    0  501    0  0.00000000000E+00  0.00000000000E+00  0.24444064461E+02  0.24444064461E+02  0.00000000000E+00 0.  1.
         -2   -1    0    0    0  501 -0.00000000000E+00 -0.00000000000E+00 -0.26847295708E+02  0.26847295708E+02  0.00000000000E+00 0. -1.
          2    1    1    2  502    0  0.19016462571E+02  0.16297960493E+02  0.41901822085E+01  0.25393050071E+02  0.00000000000E+00 0.  1.
         -2    1    1    2    0  502 -0.19016462571E+02 -0.16297960493E+02 -0.65934134557E+01  0.25898310098E+02  0.00000000000E+00 0. -1.
</event>
<event>
 4    1  0.5841374E+003  0.2532046E+02  0.7546771E-02  0.1465250E+00
          2   -1    0    0  501    0  0.00000000000E+00  0.00000000000E+00  0.79058205751E+01  0.79058205751E+01  0.00000000000E+00 0. -1.
         -2   -1    0    0    0  501 -0.00000000000E+00 -0.00000000000E+00 -0.81534153901E+02  0.81534153901E+02  0.00000000000E+00 0. -1.
          2    1    1    2  502    0  0.71328408389E+01  0.24295007451E+02 -0.40095098725E+02  0.47420899899E+02  0.00000000000E+00 0. -1.
         -2    1    1    2    0  502 -0.71328408389E+01 -0.24295007451E+02 -0.33533234601E+02  0.42019074577E+02  0.00000000000E+00 0. -1.
</event>
<event>
 4    1  0.5841374E+003  0.4199643E+02  0.7546771E-02  0.1337168E+00
          2   -1    0    0  501    0  0.00000000000E+00  0.00000000000E+00  0.80864887651E+03  0.80864887651E+03  0.00000000000E+00 0.  1.
         -2   -1    0    0    0  501 -0.00000000000E+00 -0.00000000000E+00 -0.94453771621E+01  0.94453771621E+01  0.00000000000E+00 0. -1.
          2    1    1    2  502    0  0.40815676476E+02  0.98884260779E+01  0.75832663942E+03  0.75948863880E+03  0.00000000000E+00 0.  1.
         -2    1    1    2    0  502 -0.40815676476E+02 -0.98884260779E+01  0.40876859923E+02  0.58605614864E+02  0.00000000000E+00 0. -1.
</event>
<event>
 4    1  0.5841374E+003  0.7038983E+02  0.7546771E-02  0.1228108E+00
          2   -1    0    0  501    0  0.00000000000E+00  0.00000000000E+00  0.86100350018E+03  0.86100350018E+03  0.00000000000E+00 0.  1.
         -2   -1    0    0    0  501 -0.00000000000E+00 -0.00000000000E+00 -0.70687278985E+01  0.70687278985E+01  0.00000000000E+00 0.  1.
          2    1    1    2  502    0 -0.46746171889E+02  0.52626216668E+02  0.23982356765E+03  0.24994012656E+03  0.00000000000E+00 0.  1.
         -2    1    1    2    0  502  0.46746171889E+02 -0.52626216668E+02  0.61411120463E+03  0.61813210152E+03  0.00000000000E+00 0.  1.
</event>
<event>
 4    1  0.5841374E+003  0.2329556E+02  0.7546771E-02  0.1488820E+00
          2   -1    0    0  501    0  0.00000000000E+00  0.00000000000E+00  0.44700517852E+02  0.44700517852E+02  0.00000000000E+00 0. -1.
         -2   -1    0    0    0  501 -0.00000000000E+00 -0.00000000000E+00 -0.39481003377E+02  0.39481003377E+02  0.00000000000E+00 0. -1.
          2    1    1    2  502    0  0.18330677391E+02  0.14376001479E+02  0.37636242125E+02  0.44262510925E+02  0.00000000000E+00 0. -1.
         -2    1    1    2    0  502 -0.18330677391E+02 -0.14376001479E+02 -0.32416727650E+02  0.39919010304E+02  0.00000000000E+00 0. -1.
</event>
<event>
 4    1  0.5841374E+003  0.2635136E+02  0.7546771E-02  0.1454235E+00
          2   -1    0    0  501    0  0.00000000000E+00  0.00000000000E+00  0.50005075732E+03  0.50005075732E+03  0.00000000000E+00 0.  1.
         -2   -1    0    0    0  501 -0.00000000000E+00 -0.00000000000E+00 -0.17602781199E+01  0.17602781199E+01  0.00000000000E+00 0. -1.
          2    1    1    2  502    0  0.55263758689E+01  0.25765349259E+02  0.36443096152E+03  0.36538242948E+03  0.00000000000E+00 0.  1.
         -2    1    1    2    0  502 -0.55263758689E+01 -0.25765349259E+02  0.13385951767E+03  0.13642860596E+03  0.00000000000E+00 0. -1.
</event>
<event>
 4    1  0.5841374E+003  0.2709712E+02  0.7546771E-02  0.1446635E+00
          2   -1    0    0  501    0  0.00000000000E+00  0.00000000000E+00  0.14506093326E+03  0.14506093326E+03  0.00000000000E+00 0.  1.
         -2   -1    0    0    0  501 -0.00000000000E+00 -0.00000000000E+00 -0.32629234476E+02  0.32629234476E+02  0.00000000000E+00 0.  1.
          2    1    1    2  502    0 -0.23506595959E+02 -0.13479379832E+02  0.13787953702E+03  0.14051697571E+03  0.00000000000E+00 0.  1.
         -2    1    1    2    0  502  0.23506595959E+02  0.13479379832E+02 -0.25447838237E+02  0.37173192023E+02  0.00000000000E+00 0.  1.
</event>
<event>
 4    1  0.5841374E+003  0.2468519E+02  0.7546771E-02  0.1472356E+00
          2   -1    0    0  501    0  0.00000000000E+00  0.00000000000E+00  0.22605064972E+04  0.22605064972E+04  0.00000000000E+00 0.  1.
         -2   -1    0    0    0  501 -0.00000000000E+00 -0.00000000000E+00 -0.32903879893E+00  0.32903879893E+00  0.00000000000E+00 0.  1.
          2    1    1    2  502    0 -0.14275425007E+02  0.20138784542E+02  0.16106737555E+04  0.16108629070E+04  0.00000000000E+00 0.  1.
         -2    1    1    2    0  502  0.14275425007E+02 -0.20138784542E+02  0.64950370293E+03  0.64997262906E+03  0.00000000000E+00 0.  1.
</event>
<event>
 4    1  0.5841374E+003  0.2718420E+02  0.7546771E-02  0.1445767E+00
          2   -1    0    0  501    0  0.00000000000E+00  0.00000000000E+00  0.60912784598E+03  0.60912784598E+03  0.00000000000E+00 0.  1.
         -2   -1    0    0    0  501 -0.00000000000E+00 -0.00000000000E+00 -0.32130802380E+01  0.32130802380E+01  0.00000000000E+00 0. -1.
          2    1    1    2  502    0  0.22523830234E+02 -0.15220309386E+02  0.54450727354E+03  0.54518542872E+03  0.00000000000E+00 0.  1.
         -2    1    1    2    0  502 -0.22523830234E+02  0.15220309386E+02  0.61407492202E+02  0.67155497502E+02  0.00000000000E+00 0. -1.
</event>
<event>
 4    1  0.5841374E+003  0.2042903E+02  0.7546771E-02  0.1527575E+00
          2   -1    0    0  501    0  0.00000000000E+00  0.00000000000E+00  0.65934017921E+02  0.65934017921E+02  0.00000000000E+00 0.  1.
         -2   -1    0    0    0  501 -0.00000000000E+00 -0.00000000000E+00 -0.14351916729E+03  0.14351916729E+03  0.00000000000E+00 0.  1.
          2    1    1    2  502    0  0.20217411427E+02  0.29328210591E+01  0.63598556920E+02  0.66799113816E+02  0.00000000000E+00 0.  1.
         -2    1    1    2    0  502 -0.20217411427E+02 -0.29328210591E+01 -0.14118370629E+03  0.14265407140E+03  0.00000000000E+00 0.  1.
</event>
<event>
 4    1  0.5841374E+003  0.2172108E+02  0.7546771E-02  0.1509214E+00
          2   -1    0    0  501    0  0.00000000000E+00  0.00000000000E+00  0.15623454152E+04  0.15623454152E+04  0.00000000000E+00 0.  1.
         -2   -1    0    0    0  501 -0.00000000000E+00 -0.00000000000E+00 -0.15383056746E+01  0.15383056746E+01  0.00000000000E+00 0. -1.
          2    1    1    2  502    0 -0.21638056284E+02  0.18973147052E+01  0.14814045957E+04  0.14815638297E+04  0.00000000000E+00 0.  1.
         -2    1    1    2    0  502  0.21638056284E+02 -0.18973147052E+01  0.79402513808E+02  0.82319891168E+02  0.00000000000E+00 0. -1.
</event>
<event>
 4    1  0.5841374E+003  0.2202892E+02  0.7546771E-02  0.1505066E+00
          2   -1    0    0  501    0  0.00000000000E+00  0.00000000000E+00  0.40640535164E+03  0.40640535164E+03  0.00000000000E+00 0.  1.
         -2   -1    0    0    0  501 -0.00000000000E+00 -0.00000000000E+00 -0.63263928964E+02  0.63263928964E+02  0.00000000000E+00 0.  1.
          2    1    1    2  502    0  0.11432508895E+02  0.18830059996E+02  0.40417862452E+03  0.40477849984E+03  0.00000000000E+00 0.  1.
         -2    1    1    2    0  502 -0.11432508895E+02 -0.18830059996E+02 -0.61037201841E+02  0.64890780760E+02  0.00000000000E+00 0.  1.
</event>
<event>
 4    1  0.5841374E+003  0.2465396E+02  0.7546771E-02  0.1472712E+00
          2   -1    0    0  501    0  0.00000000000E+00  0.00000000000E+00  0.19513482014E+02  0.19513482014E+02  0.00000000000E+00 0. -1.
         -2   -1    0    0    0  501 -0.00000000000E+00 -0.00000000000E+00 -0.42525327074E+02  0.42525327074E+02  0.00000000000E+00 0.  1.
          2    1    1    2  502    0  0.24600619794E+02  0.16208113607E+01  0.45382903128E+01  0.25068179086E+02  0.00000000000E+00 0. -1.
         -2    1    1    2    0  502 -0.24600619794E+02 -0.16208113607E+01 -0.27550135372E+02  0.36970630002E+02  0.00000000000E+00 0.  1.
</event>
<event>
 4    1  0.5841374E+003  0.2043363E+02  0.7546771E-02  0.1527507E+00
          2   -1    0    0  501    0  0.00000000000E+00  0.00000000000E+00  0.60084329196E+02  0.60084329196E+02  0.00000000000E+00 0.  1.
         -2   -1    0    0    0  501 -0.00000000000E+00 -0.00000000000E+00 -0.10089609273E+03  0.10089609273E+03  0.00000000000E+00 0. -1.
          2    1    1    2  502    0 -0.20044601741E+02 -0.39682853547E+01  0.57263040972E+02  0.60799582309E+02  0.00000000000E+00 0.  1.
         -2    1    1    2    0  502  0.20044601741E+02  0.39682853547E+01 -0.98074804511E+02  0.10018083962E+03  0.00000000000E+00 0. -1.
</event>
<event>
 4    1  0.5841374E+003  0.2037424E+02  0.7546771E-02  0.1528390E+00
          2   -1    0    0  501    0  0.00000000000E+00  0.00000000000E+00  0.61895231287E+02  0.61895231287E+02  0.00000000000E+00 0. -1.
         -2   -1    0    0    0  501 -0.00000000000E+00 -0.00000000000E+00 -0.22938126723E+02  0.22938126723E+02  0.00000000000E+00 0.  1.
          2    1    1    2  502    0 -0.19220231925E+02 -0.67596012716E+01  0.55159528923E+02  0.58802067614E+02  0.00000000000E+00 0. -1.
         -2    1    1    2    0  502  0.19220231925E+02  0.67596012716E+01 -0.16202424359E+02  0.26031290397E+02  0.00000000000E+00 0.  1.
</event>
<event>
 4    1  0.6308953E+003  0.3527025E+02  0.7546771E-02  0.1378673E+00
          2   -1    0    0  501    0  0.00000000000E+00  0.00000000000E+00  0.12715158384E+04  0.12715158384E+04  0.00000000000E+00 0.  1.
         -2   -1    0    0    0  501 -0.00000000000E+00 -0.00000000000E+00 -0.14265559929E+03  0.14265559929E+03  0.00000000000E+00 0. -1.
          2    1    1    2  502    0  0.32830767869E+02 -0.12889197996E+02  0.12690870193E+04  0.12695770372E+04  0.00000000000E+00 0.  1.
         -2    1    1    2    0  502 -0.32830767869E+02  0.12889197996E+02 -0.14022678026E+03  0.14459440046E+03  0.00000000000E+00 0. -1.
</event>
<event>
 4    1  0.5841374E+003  0.2062836E+02  0.7546771E-02  0.1524638E+00
          2   -1    0    0  501    0  0.00000000000E+00  0.00000000000E+00  0.94715762037E+02  0.94715762037E+02  0.00000000000E+00 0. -1.
         -2   -1    0    0    0  501 -0.00000000000E+00 -0.00000000000E+00 -0.73853880874E+02  0.73853880874E+02  0.00000000000E+00 0. -1.
          2    1    1    2  502    0  0.19364433238E+02 -0.71097121650E+01  0.92111923818E+02  0.94393515620E+02  0.00000000000E+00 0. -1.
         -2    1    1    2    0  502 -0.19364433238E+02  0.71097121650E+01 -0.71250042654E+02  0.74176127291E+02  0.00000000000E+00 0. -1.
</event>
<event>
 4    1  0.5841374E+003  0.3041347E+02  0.7546771E-02  0.1416037E+00
          2   -1    0    0  501    0  0.00000000000E+00  0.00000000000E+00  0.57477198898E+03  0.57477198898E+03  0.00000000000E+00 0.  1.
         -2   -1    0    0    0  501 -0.00000000000E+00 -0.00000000000E+00 -0.12200655813E+02  0.12200655813E+02  0.00000000000E+00 0. -1.
          2    1    1    2  502    0  0.12545807919E+02  0.27705272599E+02  0.55473199603E+03  0.55556508786E+03  0.00000000000E+00 0.  1.
         -2    1    1    2    0  502 -0.12545807919E+02 -0.27705272599E+02  0.78393371411E+01  0.31407556940E+02  0.00000000000E+00 0. -1.
</event>
<event>
 4    1  0.5841374E+003  0.3036087E+02  0.7546771E-02  0.1416486E+00
          2   -1    0    0  501    0  0.00000000000E+00  0.00000000000E+00  0.15343915640E+04  0.15343915640E+04  0.00000000000E+00 0. -1.
         -2   -1    0    0    0  501 -0.00000000000E+00 -0.00000000000E+00 -0.11159617255E+01  0.11159617255E+01  0.00000000000E+00 0. -1.
          2    1    1    2  502    0  0.14951680477E+02  0.26424035120E+02  0.12883020730E+04  0.12886597742E+04  0.00000000000E+00 0. -1.
         -2    1    1    2    0  502 -0.14951680477E+02 -0.26424035120E+02  0.24497352929E+03  0.24684775153E+03  0.00000000000E+00 0. -1.
</event>
<event>
 4    1  0.5841374E+003  0.3693713E+02  0.7546771E-02  0.1367433E+00
          2   -1    0    0  501    0  0.00000000000E+00  0.00000000000E+00  0.50737851486E+03  0.50737851486E+03  0.00000000000E+00 0.  1.
         -2   -1    0    0    0  501 -0.00000000000E+00 -0.00000000000E+00 -0.26923190753E+01  0.26923190753E+01  0.00000000000E+00 0.  1.
          2    1    1    2  502    0 -0.10728872125E+02 -0.35344626446E+02  0.26126975848E+03  0.26386784194E+03  0.00000000000E+00 0.  1.
         -2    1    1    2    0  502  0.10728872125E+02  0.35344626446E+02  0.24341643731E+03  0.24620299199E+03  0.00000000000E+00 0.  1.
</event>
<event>
 4    1  0.5841374E+003  0.2434009E+02  0.7546771E-02  0.1476323E+00
          2   -1    0    0  501    0  0.00000000000E+00  0.00000000000E+00  0.60469387586E+01  0.60469387586E+01  0.00000000000E+00 0. -1.
         -2   -1    0    0    0  501 -0.00000000000E+00 -0.00000000000E+00 -0.16234254840E+03  0.16234254840E+03  0.00000000000E+00 0. -1.
          2    1    1    2  502    0 -0.77285871078E+01 -0.23080486156E+02 -0.25131767620E+02  0.34986363681E+02  0.00000000000E+00 0. -1.
         -2    1    1    2    0  502  0.77285871078E+01  0.23080486156E+02 -0.13116384202E+03  0.13340312348E+03  0.00000000000E+00 0. -1.
</event>
<event>
 4    1  0.5841374E+003  0.2151763E+03  0.7546771E-02  0.1044869E+00
          2   -1    0    0  501    0  0.00000000000E+00  0.00000000000E+00  0.57894361211E+03  0.57894361211E+03  0.00000000000E+00 0. -1.
         -2   -1    0    0    0  501 -0.00000000000E+00 -0.00000000000E+00 -0.28991507281E+03  0.28991507281E+03  0.00000000000E+00 0.  1.
          2    1    1    2  502    0  0.94811262846E+02 -0.19316229946E+03  0.51419917779E+03  0.55740617500E+03  0.00000000000E+00 0. -1.
         -2    1    1    2    0  502 -0.94811262846E+02  0.19316229946E+03 -0.22517063849E+03  0.31145250992E+03  0.00000000000E+00 0.  1.
</event>
<event>
 4    1  0.5841374E+003  0.2055470E+02  0.7546771E-02  0.1525718E+00
          2   -1    0    0  501    0  0.00000000000E+00  0.00000000000E+00  0.17396707304E+03  0.17396707304E+03  0.00000000000E+00 0.  1.
         -2   -1    0    0    0  501 -0.00000000000E+00 -0.00000000000E+00 -0.13844380642E+02  0.13844380642E+02  0.00000000000E+00 0.  1.
          2    1    1    2  502    0  0.15876544625E+02 -0.13054928110E+02  0.16533368756E+03  0.16660649465E+03  0.00000000000E+00 0.  1.
         -2    1    1    2    0  502 -0.15876544625E+02  0.13054928110E+02 -0.52109951579E+01  0.21204959036E+02  0.00000000000E+00 0.  1.
</event>
<event>
 4    1  0.5841374E+003  0.2265649E+02  0.7546771E-02  0.1496857E+00
          2   -1    0    0  501    0  0.00000000000E+00  0.00000000000E+00  0.38264358138E+03  0.38264358138E+03  0.00000000000E+00 0. -1.
         -2   -1    0    0    0  501 -0.00000000000E+00 -0.00000000000E+00 -0.56987805806E+02  0.56987805806E+02  0.00000000000E+00 0. -1.
          2    1    1    2  502    0 -0.22644748405E+02 -0.72943438040E+00  0.38004092743E+03  0.38071567242E+03  0.00000000000E+00 0. -1.
         -2    1    1    2    0  502  0.22644748405E+02  0.72943438040E+00 -0.54385151852E+02  0.58915714770E+02  0.00000000000E+00 0. -1.
</event>
<event>
 4    1  0.5841374E+003  0.2801007E+02  0.7546771E-02  0.1437717E+00
          2   -1    0    0  501    0  0.00000000000E+00  0.00000000000E+00  0.13595610529E+03  0.13595610529E+03  0.00000000000E+00 0.  1.
         -2   -1    0    0    0  501 -0.00000000000E+00 -0.00000000000E+00 -0.11263589151E+02  0.11263589151E+02  0.00000000000E+00 0.  1.
          2    1    1    2  502    0  0.26946369726E+02 -0.76456854673E+01  0.10942187459E+02  0.30071495042E+02  0.00000000000E+00 0.  1.
         -2    1    1    2    0  502 -0.26946369726E+02  0.76456854673E+01  0.11375032868E+03  0.11714819940E+03  0.00000000000E+00 0.  1.
</event>
<event>
 4    1  0.5841374E+003  0.2032781E+02  0.7546771E-02  0.1529082E+00
          2   -1    0    0  501    0  0.00000000000E+00  0.00000000000E+00  0.16036481890E+01  0.16036481890E+01  0.00000000000E+00 0. -1.
         -2   -1    0    0    0  501 -0.00000000000E+00 -0.00000000000E+00 -0.68003141411E+03  0.68003141411E+03  0.00000000000E+00 0. -1.
          2    1    1    2  502    0  0.10954289120E+02 -0.17123767838E+02 -0.70619429250E+02  0.73486894496E+02  0.00000000000E+00 0. -1.
         -2    1    1    2    0  502 -0.10954289120E+02  0.17123767838E+02 -0.60780833668E+03  0.60814816781E+03  0.00000000000E+00 0. -1.
</event>
<event>
 4    1  0.5841374E+003  0.2947311E+02  0.7546771E-02  0.1424231E+00
          2   -1    0    0  501    0  0.00000000000E+00  0.00000000000E+00  0.30445244779E+03  0.30445244779E+03  0.00000000000E+00 0.  1.
         -2   -1    0    0    0  501 -0.00000000000E+00 -0.00000000000E+00 -0.41214630681E+02  0.41214630681E+02  0.00000000000E+00 0. -1.
          2    1    1    2  502    0 -0.22003994427E+02 -0.19608377806E+02  0.29836271261E+03  0.29981489711E+03  0.00000000000E+00 0.  1.
         -2    1    1    2    0  502  0.22003994427E+02  0.19608377806E+02 -0.35124895507E+02  0.45852181358E+02  0.00000000000E+00 0. -1.
</event>
<event>
 4    1  0.5841374E+003  0.2097529E+02  0.7546771E-02  0.1519618E+00
          2   -1    0    0  501    0  0.00000000000E+00  0.00000000000E+00  0.35101281000E+02  0.35101281000E+02  0.00000000000E+00 0. -1.
         -2   -1    0    0    0  501 -0.00000000000E+00 -0.00000000000E+00 -0.28234801568E+03  0.28234801568E+03  0.00000000000E+00 0.  1.
          2    1    1    2  502    0 -0.82741017347E+01  0.19274386282E+02  0.31538208414E+02  0.37876395235E+02  0.00000000000E+00 0. -1.
         -2    1    1    2    0  502  0.82741017347E+01 -0.19274386282E+02 -0.27878494310E+03  0.27957290145E+03  0.00000000000E+00 0.  1.
</event>
<event>
 4    1  0.5841374E+003  0.2419180E+02  0.7546771E-02  0.1478051E+00
          2   -1    0    0  501    0  0.00000000000E+00  0.00000000000E+00  0.81160428352E+03  0.81160428352E+03  0.00000000000E+00 0.  1.
         -2   -1    0    0    0  501 -0.00000000000E+00 -0.00000000000E+00 -0.69755303584E+01  0.69755303584E+01  0.00000000000E+00 0.  1.
          2    1    1    2  502    0 -0.18229057278E+02 -0.15904234228E+02  0.78987219104E+03  0.79024257123E+03  0.00000000000E+00 0.  1.
         -2    1    1    2    0  502  0.18229057278E+02  0.15904234228E+02  0.14756562121E+02  0.28337242654E+02  0.00000000000E+00 0.  1.
</event>
<event>
 4    1  0.5841374E+003  0.2376056E+02  0.7546771E-02  0.1483162E+00
          2   -1    0    0  501    0  0.00000000000E+00  0.00000000000E+00  0.28386540449E+03  0.28386540449E+03  0.00000000000E+00 0. -1.
         -2   -1    0    0    0  501 -0.00000000000E+00 -0.00000000000E+00 -0.33450430038E+01  0.33450430038E+01  0.00000000000E+00 0.  1.
          2    1    1    2  502    0 -0.16856421235E+02  0.16745898708E+02  0.23169909601E+03  0.23291422273E+03  0.00000000000E+00 0. -1.
         -2    1    1    2    0  502  0.16856421235E+02 -0.16745898708E+02  0.48821265478E+02  0.54296224760E+02  0.00000000000E+00 0.  1.
</event>
<event>
 4    1  0.5841374E+003  0.3695200E+02  0.7546771E-02  0.1367336E+00
          2   -1    0    0  501    0  0.00000000000E+00  0.00000000000E+00  0.35865430732E+03  0.35865430732E+03  0.00000000000E+00 0.  1.
         -2   -1    0    0    0  501 -0.00000000000E+00 -0.00000000000E+00 -0.59937039007E+01  0.59937039007E+01  0.00000000000E+00 0. -1.
          2    1    1    2  502    0 -0.30211029379E+02 -0.21277775198E+02  0.28645291479E+03  0.28882645725E+03  0.00000000000E+00 0.  1.
         -2    1    1    2    0  502  0.30211029379E+02  0.21277775198E+02  0.66207688629E+02  0.75821553975E+02  0.00000000000E+00 0. -1.
</event>
<event>
 4    1  0.5841374E+003  0.2375127E+02  0.7546771E-02  0.1483274E+00
          2   -1    0    0  501    0  0.00000000000E+00  0.00000000000E+00  0.96998923479E+03  0.96998923479E+03  0.00000000000E+00 0. -1.
         -2   -1    0    0    0  501 -0.00000000000E+00 -0.00000000000E+00 -0.41804924688E+02  0.41804924688E+02  0.00000000000E+00 0.  1.
          2    1    1    2  502    0 -0.23725509105E+02  0.11059113158E+01  0.96645797337E+03  0.96674978000E+03  0.00000000000E+00 0. -1.
         -2    1    1    2    0  502  0.23725509105E+02 -0.11059113158E+01 -0.38273663276E+02  0.45044379479E+02  0.00000000000E+00 0.  1.
</event>
<event>
 4    1  0.5841374E+003  0.3477650E+02  0.7546771E-02  0.1382141E+00
          2   -1    0    0  501    0  0.00000000000E+00  0.00000000000E+00  0.49758613981E+03  0.49758613981E+03  0.00000000000E+00 0.  1.
         -2   -1    0    0    0  501 -0.00000000000E+00 -0.00000000000E+00 -0.26803286586E+01  0.26803286586E+01  0.00000000000E+00 0. -1.
          2    1    1    2  502    0 -0.21787716454E+02 -0.27105357545E+02  0.32381191272E+03  0.32567400850E+03  0.00000000000E+00 0.  1.
         -2    1    1    2    0  502  0.21787716454E+02  0.27105357545E+02  0.17109389843E+03  0.17459245997E+03  0.00000000000E+00 0. -1.
</event>
<event>
 4    1  0.5841374E+003  0.8937287E+02  0.7546771E-02  0.1183617E+00
          2   -1    0    0  501    0  0.00000000000E+00  0.00000000000E+00  0.21244806199E+04  0.21244806199E+04  0.00000000000E+00 0.  1.
         -2   -1    0    0    0  501 -0.00000000000E+00 -0.00000000000E+00 -0.12688435434E+03  0.12688435434E+03  0.00000000000E+00 0.  1.
          2    1    1    2  502    0  0.14204568720E+02 -0.88236838538E+02  0.21076774981E+04  0.21095715075E+04  0.00000000000E+00 0.  1.
         -2    1    1    2    0  502 -0.14204568720E+02  0.88236838538E+02 -0.11008123252E+03  0.14179346671E+03  0.00000000000E+00 0.  1.
</event>
<event>
 4    1  0.5841374E+003  0.2278058E+02  0.7546771E-02  0.1495272E+00
          2   -1    0    0  501    0  0.00000000000E+00  0.00000000000E+00  0.21873144073E+03  0.21873144073E+03  0.00000000000E+00 0.  1.
         -2   -1    0    0    0  501 -0.00000000000E+00 -0.00000000000E+00 -0.47999910377E+01  0.47999910377E+01  0.00000000000E+00 0.  1.
          2    1    1    2  502    0  0.21080980851E+02  0.86340736448E+01  0.18644634040E+03  0.18783288538E+03  0.00000000000E+00 0.  1.
         -2    1    1    2    0  502 -0.21080980851E+02 -0.86340736448E+01  0.27485109288E+02  0.35698546384E+02  0.00000000000E+00 0.  1.
</event>
<event>
 4    1  0.5841374E+003  0.4222206E+02  0.7546771E-02  0.1335934E+00
          2   -1    0    0  501    0  0.00000000000E+00  0.00000000000E+00  0.11869369609E+04  0.11869369609E+04  0.00000000000E+00 0. -1.
         -2   -1    0    0    0  501 -0.00000000000E+00 -0.00000000000E+00 -0.20182696727E+01  0.20182696727E+01  0.00000000000E+00 0. -1.
          2    1    1    2  502    0 -0.38766571892E+02  0.16728883369E+02  0.89314408505E+03  0.89414152084E+03  0.00000000000E+00 0. -1.
         -2    1    1    2    0  502  0.38766571892E+02 -0.16728883369E+02  0.29177460620E+03  0.29481370976E+03  0.00000000000E+00 0. -1.
</event>
<event>
 4    1  0.5841374E+003  0.2300054E+02  0.7546771E-02  0.1492491E+00
          2   -1    0    0  501    0  0.00000000000E+00  0.00000000000E+00  0.73051864249E+03  0.73051864249E+03  0.00000000000E+00 0. -1.
         -2   -1    0    0    0  501 -0.00000000000E+00 -0.00000000000E+00 -0.33524031248E+01  0.33524031248E+01  0.00000000000E+00 0.  1.
          2    1    1    2  502    0 -0.95976648031E+01 -0.20902379435E+02  0.68847811506E+03  0.68886220650E+03  0.00000000000E+00 0. -1.
         -2    1    1    2    0  502  0.95976648031E+01  0.20902379435E+02  0.38688124309E+02  0.45008839112E+02  0.00000000000E+00 0.  1.
</event>
<event>
 4    1  0.5841374E+003  0.2003939E+02  0.7546771E-02  0.1533434E+00
          2   -1    0    0  501    0  0.00000000000E+00  0.00000000000E+00  0.82099470239E+02  0.82099470239E+02  0.00000000000E+00 0. -1.
         -2   -1    0    0    0  501 -0.00000000000E+00 -0.00000000000E+00 -0.49577897287E+01  0.49577897287E+01  0.00000000000E+00 0. -1.
          2    1    1    2  502    0  0.10153166804E+02 -0.17276868595E+02  0.43609965920E+02  0.47993813270E+02  0.00000000000E+00 0. -1.
         -2    1    1    2    0  502 -0.10153166804E+02  0.17276868595E+02  0.33531714590E+02  0.39063446698E+02  0.00000000000E+00 0. -1.
</event>
<event>
 4    1  0.5841374E+003  0.2417481E+02  0.7546771E-02  0.1478250E+00
          2   -1    0    0  501    0  0.00000000000E+00  0.00000000000E+00  0.20707588954E+03  0.20707588954E+03  0.00000000000E+00 0. -1.
         -2   -1    0    0    0  501 -0.00000000000E+00 -0.00000000000E+00 -0.20727409663E+02  0.20727409663E+02  0.00000000000E+00 0. -1.
          2    1    1    2  502    0 -0.19101414613E+02 -0.14817461628E+02  0.19903780675E+03  0.20050054795E+03  0.00000000000E+00 0. -1.
         -2    1    1    2    0  502  0.19101414613E+02  0.14817461628E+02 -0.12689326880E+02  0.27302751253E+02  0.00000000000E+00 0. -1.
</event>
<event>
 4    1  0.5841374E+003  0.2240488E+02  0.7546771E-02  0.1500109E+00
          2   -1    0    0  501    0  0.00000000000E+00  0.00000000000E+00  0.21737298756E+02  0.21737298756E+02  0.00000000000E+00 0.  1.
         -2   -1    0    0    0  501 -0.00000000000E+00 -0.00000000000E+00 -0.28993396384E+02  0.28993396384E+02  0.00000000000E+00 0.  1.
          2    1    1    2  502    0  0.22339684487E+02 -0.17079436744E+01  0.78147781520E+01  0.23728660563E+02  0.00000000000E+00 0.  1.
         -2    1    1    2    0  502 -0.22339684487E+02  0.17079436744E+01 -0.15070875780E+02  0.27002034577E+02  0.00000000000E+00 0.  1.
</event>
<event>
 4    1  0.5841374E+003  0.2859744E+02  0.7546771E-02  0.1432189E+00
          2   -1    0    0  501    0  0.00000000000E+00  0.00000000000E+00  0.12175713106E+04  0.12175713106E+04  0.00000000000E+00 0. -1.
         -2   -1    0    0    0  501 -0.00000000000E+00 -0.00000000000E+00 -0.42624310479E+02  0.42624310479E+02  0.00000000000E+00 0.  1.
          2    1    1    2  502    0  0.30333894967E+01 -0.28436101987E+02  0.12125870412E+04  0.12129242127E+04  0.00000000000E+00 0. -1.
         -2    1    1    2    0  502 -0.30333894967E+01  0.28436101987E+02 -0.37640041118E+02  0.47271408308E+02  0.00000000000E+00 0.  1.
</event>
<event>
 4    1  0.5841374E+003  0.2608878E+02  0.7546771E-02  0.1456983E+00
          2   -1    0    0  501    0  0.00000000000E+00  0.00000000000E+00  0.53506126063E+02  0.53506126063E+02  0.00000000000E+00 0. -1.
         -2   -1    0    0    0  501 -0.00000000000E+00 -0.00000000000E+00 -0.48149126638E+02  0.48149126638E+02  0.00000000000E+00 0. -1.
          2    1    1    2  502    0 -0.22143272576E+02 -0.13794926328E+02  0.46278129256E+02  0.53125227155E+02  0.00000000000E+00 0. -1.
         -2    1    1    2    0  502  0.22143272576E+02  0.13794926328E+02 -0.40921129831E+02  0.48530025545E+02  0.00000000000E+00 0. -1.
</event>
<event>
 4    1  0.5841374E+003  0.2686858E+02  0.7546771E-02  0.1448933E+00
          2   -1    0    0  501    0  0.00000000000E+00  0.00000000000E+00  0.17886916208E+03  0.17886916208E+03  0.00000000000E+00 0.  1.
         -2   -1    0    0    0  501 -0.00000000000E+00 -0.00000000000E+00 -0.16387263474E+02  0.16387263474E+02  0.00000000000E+00 0. -1.
          2    1    1    2  502    0 -0.13595876847E+02  0.23174826195E+02  0.16599829970E+03  0.16815872246E+03  0.00000000000E+00 0.  1.
         -2    1    1    2    0  502  0.13595876847E+02 -0.23174826195E+02 -0.35164010927E+01  0.27097703095E+02  0.00000000000E+00 0. -1.
</event>
<event>
 4    1  0.5841374E+003  0.2803461E+02  0.7546771E-02  0.1437483E+00
          2   -1    0    0  501    0  0.00000000000E+00  0.00000000000E+00  0.23552972685E+03  0.23552972685E+03  0.00000000000E+00 0.  1.
         -2   -1    0    0    0  501 -0.00000000000E+00 -0.00000000000E+00 -0.12006878810E+02  0.12006878810E+02  0.00000000000E+00 0.  1.
          2    1    1    2  502    0  0.11600042120E+02 -0.25522115064E+02  0.21693420800E+03  0.21873817668E+03  0.00000000000E+00 0.  1.
         -2    1    1    2    0  502 -0.11600042120E+02  0.25522115064E+02  0.65886400422E+01  0.28798428987E+02  0.00000000000E+00 0.  1.
</event>
<event>
 4    1  0.5841374E+003  0.2526430E+02  0.7546771E-02  0.1465868E+00
          2   -1    0    0  501    0  0.00000000000E+00  0.00000000000E+00  0.32688725062E+03  0.32688725062E+03  0.00000000000E+00 0. -1.
         -2   -1    0    0    0  501 -0.00000000000E+00 -0.00000000000E+00 -0.79522173450E+03  0.79522173450E+03  0.00000000000E+00 0.  1.
          2    1    1    2  502    0  0.14677681457E+01  0.25221627456E+02  0.32619801106E+03  0.32717491844E+03  0.00000000000E+00 0. -1.
         -2    1    1    2    0  502 -0.14677681457E+01 -0.25221627456E+02 -0.79453249495E+03  0.79493406668E+03  0.00000000000E+00 0.  1.
</event>
<event>
 4    1  0.5841374E+003  0.2494800E+02  0.7546771E-02  0.1469386E+00
          2   -1    0    0  501    0  0.00000000000E+00  0.00000000000E+00  0.18918079916E+01  0.18918079916E+01  0.00000000000E+00 0.  1.
         -2   -1    0    0    0  501 -0.00000000000E+00 -0.00000000000E+00 -0.37838743027E+03  0.37838743027E+03  0.00000000000E+00 0.  1.
          2    1    1    2  502    0  0.24947929402E+02 -0.58814907982E-01 -0.11955400654E+03  0.12212928854E+03  0.00000000000E+00 0.  1.
         -2    1    1    2    0  502 -0.24947929402E+02  0.58814907982E-01 -0.25694161574E+03  0.25814994972E+03  0.00000000000E+00 0.  1.
</event>
<event>
 4    1  0.5841374E+003  0.2300919E+02  0.7546771E-02  0.1492383E+00
          2   -1    0    0  501    0  0.00000000000E+00  0.00000000000E+00  0.74223179981E+01  0.74223179981E+01  0.00000000000E+00 0. -1.
         -2   -1    0    0    0  501 -0.00000000000E+00 -0.00000000000E+00 -0.21234637329E+03  0.21234637329E+03  0.00000000000E+00 0.  1.
          2    1    1    2  502    0  0.25359533466E+00 -0.23007789248E+02 -0.12915137028E+02  0.26386046334E+02  0.00000000000E+00 0. -1.
         -2    1    1    2    0  502 -0.25359533466E+00  0.23007789248E+02 -0.19200891827E+03  0.19338264496E+03  0.00000000000E+00 0.  1.
</event>
<event>
 4    1  0.5841374E+003  0.2594282E+02  0.7546771E-02  0.1458527E+00
          2   -1    0    0  501    0  0.00000000000E+00  0.00000000000E+00  0.10912140232E+04  0.10912140232E+04  0.00000000000E+00 0. -1.
         -2   -1    0    0    0  501 -0.00000000000E+00 -0.00000000000E+00 -0.16745228663E+01  0.16745228663E+01  0.00000000000E+00 0.  1.
          2    1    1    2  502    0 -0.76677921068E+01  0.24783759217E+02  0.97907204702E+03  0.97941569469E+03  0.00000000000E+00 0. -1.
         -2    1    1    2    0  502  0.76677921068E+01 -0.24783759217E+02  0.11046745327E+03  0.11347285133E+03  0.00000000000E+00 0.  1.
</event>
<event>
 4    1  0.5841374E+003  0.2599939E+02  0.7546771E-02  0.1457927E+00
          2   -1    0    0  501    0  0.00000000000E+00  0.00000000000E+00  0.38707178687E+01  0.38707178687E+01  0.00000000000E+00 0.  1.
         -2   -1    0    0    0  501 -0.00000000000E+00 -0.00000000000E+00 -0.30660342044E+03  0.30660342044E+03  0.00000000000E+00 0. -1.
          2    1    1    2  502    0  0.11782561731E+02 -0.23176270245E+02 -0.49521370603E+02  0.55931515354E+02  0.00000000000E+00 0.  1.
         -2    1    1    2    0  502 -0.11782561731E+02  0.23176270245E+02 -0.25321133196E+03  0.25454262295E+03  0.00000000000E+00 0. -1.
</event>
<event>
 4    1  0.5841374E+003  0.2072896E+02  0.7546771E-02  0.1523170E+00
          2   -1    0    0  501    0  0.00000000000E+00  0.00000000000E+00  0.40776239478E+03  0.40776239478E+03  0.00000000000E+00 0. -1.
         -2   -1    0    0    0  501 -0.00000000000E+00 -0.00000000000E+00 -0.29936077047E+03  0.29936077047E+03  0.00000000000E+00 0. -1.
          2    1    1    2  502    0  0.18765151263E+02 -0.88067584441E+01  0.40713956287E+03  0.40766691496E+03  0.00000000000E+00 0. -1.
         -2    1    1    2    0  502 -0.18765151263E+02  0.88067584441E+01 -0.29873793856E+03  0.29945625028E+03  0.00000000000E+00 0. -1.
</event>
<event>
 4    1  0.5841374E+003  0.2148996E+02  0.7546771E-02  0.1512383E+00
          2   -1    0    0  501    0  0.00000000000E+00  0.00000000000E+00  0.55833101894E+03  0.55833101894E+03  0.00000000000E+00 0.  1.
         -2   -1    0    0    0  501 -0.00000000000E+00 -0.00000000000E+00 -0.19251512060E+01  0.19251512060E+01  0.00000000000E+00 0. -1.
          2    1    1    2  502    0  0.70929817580E+01 -0.20285661764E+02  0.48975994515E+03  0.49023119274E+03  0.00000000000E+00 0.  1.
         -2    1    1    2    0  502 -0.70929817580E+01  0.20285661764E+02  0.66645922583E+02  0.70024977404E+02  0.00000000000E+00 0. -1.
</event>
<event>
 4    1  0.5841374E+003  0.3021586E+02  0.7546771E-02  0.1417730E+00
          2   -1    0    0  501    0  0.00000000000E+00  0.00000000000E+00  0.96628377406E+02  0.96628377406E+02  0.00000000000E+00 0.  1.
         -2   -1    0    0    0  501 -0.00000000000E+00 -0.00000000000E+00 -0.94612187686E+01  0.94612187686E+01  0.00000000000E+00 0.  1.
          2    1    1    2  502    0  0.15488152828E+02 -0.25944443763E+02  0.41641725847E+02  0.51449299040E+02  0.00000000000E+00 0.  1.
         -2    1    1    2    0  502 -0.15488152828E+02  0.25944443763E+02  0.45525432791E+02  0.54640297135E+02  0.00000000000E+00 0.  1.
</event>
<event>
 4    1  0.5841374E+003  0.2133987E+02  0.7546771E-02  0.1514467E+00
          2   -1    0    0  501    0  0.00000000000E+00  0.00000000000E+00  0.67833068009E+03  0.67833068009E+03  0.00000000000E+00 0.  1.
         -2   -1    0    0    0  501 -0.00000000000E+00 -0.00000000000E+00 -0.32441206984E+02  0.32441206984E+02  0.00000000000E+00 0. -1.
          2    1    1    2  502    0  0.77443740373E+01 -0.19885038478E+02  0.67463427277E+03  0.67497169724E+03  0.00000000000E+00 0.  1.
         -2    1    1    2    0  502 -0.77443740373E+01  0.19885038478E+02 -0.28744799661E+02  0.35800189833E+02  0.00000000000E+00 0. -1.
</event>
<event>
 4    1  0.5841374E+003  0.2032185E+02  0.7546771E-02  0.1529171E+00
          2   -1    0    0  501    0  0.00000000000E+00  0.00000000000E+00  0.13723668746E+03  0.13723668746E+03  0.00000000000E+00 0.  1.
         -2   -1    0    0    0  501 -0.00000000000E+00 -0.00000000000E+00 -0.16863895340E+02  0.16863895340E+02  0.00000000000E+00 0.  1.
          2    1    1    2  502    0 -0.20196514233E+02  0.22535644026E+01  0.13002462930E+03  0.13160312293E+03  0.00000000000E+00 0.  1.
         -2    1    1    2    0  502  0.20196514233E+02 -0.22535644026E+01 -0.96518371805E+01  0.22497459871E+02  0.00000000000E+00 0.  1.
</event>
<event>
 4    1  0.5841374E+003  0.2214936E+02  0.7546771E-02  0.1503465E+00
          2   -1    0    0  501    0  0.00000000000E+00  0.00000000000E+00  0.22949866962E+02  0.22949866962E+02  0.00000000000E+00 0.  1.
         -2   -1    0    0    0  501 -0.00000000000E+00 -0.00000000000E+00 -0.25574220414E+02  0.25574220414E+02  0.00000000000E+00 0. -1.
          2    1    1    2  502    0 -0.96447449987E+01 -0.19939230981E+02  0.85170406940E+01  0.23730445011E+02  0.00000000000E+00 0.  1.
         -2    1    1    2    0  502  0.96447449987E+01  0.19939230981E+02 -0.11141394145E+02  0.24793642365E+02  0.00000000000E+00 0. -1.
</event>
<event>
 4    1  0.5841374E+003  0.3914260E+02  0.7546771E-02  0.1353585E+00
          2   -1    0    0  501    0  0.00000000000E+00  0.00000000000E+00  0.74119717157E+03  0.74119717157E+03  0.00000000000E+00 0. -1.
         -2   -1    0    0    0  501 -0.00000000000E+00 -0.00000000000E+00 -0.52464977009E+01  0.52464977009E+01  0.00000000000E+00 0. -1.
          2    1    1    2  502    0 -0.37689048630E+02  0.10567822799E+02  0.65851363173E+03  0.65967594047E+03  0.00000000000E+00 0. -1.
         -2    1    1    2    0  502  0.37689048630E+02 -0.10567822799E+02  0.77437042139E+02  0.86767728797E+02  0.00000000000E+00 0. -1.
</event>
<event>
 4    1  0.5841374E+003  0.3479571E+02  0.7546771E-02  0.1382005E+00
          2   -1    0    0  501    0  0.00000000000E+00  0.00000000000E+00  0.11345394036E+02  0.11345394036E+02  0.00000000000E+00 0. -1.
         -2   -1    0    0    0  501 -0.00000000000E+00 -0.00000000000E+00 -0.37210022131E+03  0.37210022131E+03  0.00000000000E+00 0. -1.
          2    1    1    2  502    0 -0.33229440992E+02  0.10322097682E+02 -0.18464717336E+02  0.39391461454E+02  0.00000000000E+00 0. -1.
         -2    1    1    2    0  502  0.33229440992E+02 -0.10322097682E+02 -0.34229010994E+03  0.34405415390E+03  0.00000000000E+00 0. -1.
</event>
<event>
 4    1  0.5841374E+003  0.2151109E+02  0.7546771E-02  0.1512091E+00
          2   -1    0    0  501    0  0.00000000000E+00  0.00000000000E+00  0.12608012482E+04  0.12608012482E+04  0.00000000000E+00 0. -1.
         -2   -1    0    0    0  501 -0.00000000000E+00 -0.00000000000E+00 -0.94038757066E+01  0.94038757066E+01  0.00000000000E+00 0.  1.
          2    1    1    2  502    0 -0.19619421756E+02 -0.88207283598E+01  0.12482846613E+04  0.12484699927E+04  0.00000000000E+00 0. -1.
         -2    1    1    2    0  502  0.19619421756E+02  0.88207283598E+01  0.31127111908E+01  0.21735131235E+02  0.00000000000E+00 0.  1.
</event>
<event>
 4    1  0.5841374E+003  0.2174634E+02  0.7546771E-02  0.1508870E+00
          2   -1    0    0  501    0  0.00000000000E+00  0.00000000000E+00  0.10923706986E+04  0.10923706986E+04  0.00000000000E+00 0. -1.
         -2   -1    0    0    0  501 -0.00000000000E+00 -0.00000000000E+00 -0.48545946921E+00  0.48545946921E+00  0.00000000000E+00 0.  1.
          2    1    1    2  502    0 -0.12591646454E+02  0.17730023213E+02  0.72571437219E+03  0.72604011823E+03  0.00000000000E+00 0. -1.
         -2    1    1    2    0  502  0.12591646454E+02 -0.17730023213E+02  0.36617086697E+03  0.36681603986E+03  0.00000000000E+00 0.  1.
</event>
<event>
 4    1  0.5841374E+003  0.3933885E+02  0.7546771E-02  0.1352404E+00
          2   -1    0    0  501    0  0.00000000000E+00  0.00000000000E+00  0.20162766956E+04  0.20162766956E+04  0.00000000000E+00 0. -1.
         -2   -1    0    0    0  501 -0.00000000000E+00 -0.00000000000E+00 -0.42302822783E+01  0.42302822783E+01  0.00000000000E+00 0.  1.
          2    1    1    2  502    0  0.32382466945E+02 -0.22336545891E+02  0.19200451604E+04  0.19204481153E+04  0.00000000000E+00 0. -1.
         -2    1    1    2    0  502 -0.32382466945E+02  0.22336545891E+02  0.92001252886E+02  0.10005886258E+03  0.00000000000E+00 0.  1.
</event>
<event>
 4    1  0.5841374E+003  0.4045741E+02  0.7546771E-02  0.1345826E+00
          2   -1    0    0  501    0  0.00000000000E+00  0.00000000000E+00  0.11067953162E+04  0.11067953162E+04  0.00000000000E+00 0.  1.
         -2   -1    0    0    0  501 -0.00000000000E+00 -0.00000000000E+00 -0.16732990171E+01  0.16732990171E+01  0.00000000000E+00 0. -1.
          2    1    1    2  502    0 -0.40456786624E+02 -0.22164348570E+00  0.36363449996E+03  0.36587819048E+03  0.00000000000E+00 0. -1.
         -2    1    1    2    0  502  0.40456786624E+02  0.22164348570E+00  0.74148751724E+03  0.74259042475E+03  0.00000000000E+00 0.  1.
</event>
<event>
 4    1  0.5841374E+003  0.3285320E+02  0.7546771E-02  0.1396318E+00
          2   -1    0    0  501    0  0.00000000000E+00  0.00000000000E+00  0.23980794301E+03  0.23980794301E+03  0.00000000000E+00 0.  1.
         -2   -1    0    0    0  501 -0.00000000000E+00 -0.00000000000E+00 -0.52176737204E+01  0.52176737204E+01  0.00000000000E+00 0. -1.
          2    1    1    2  502    0  0.25127149514E+02 -0.21165044792E+02  0.16270579644E+03  0.16598948448E+03  0.00000000000E+00 0.  1.
         -2    1    1    2    0  502 -0.25127149514E+02  0.21165044792E+02  0.71884472850E+02  0.79036132248E+02  0.00000000000E+00 0. -1.
</event>
<event>
 4    1  0.5841374E+003  0.2329886E+02  0.7546771E-02  0.1488779E+00
          2   -1    0    0  501    0  0.00000000000E+00  0.00000000000E+00  0.15959186103E+03  0.15959186103E+03  0.00000000000E+00 0. -1.
         -2   -1    0    0    0  501 -0.00000000000E+00 -0.00000000000E+00 -0.96520959182E+02  0.96520959182E+02  0.00000000000E+00 0.  1.
          2    1    1    2  502    0 -0.22958150552E+02 -0.39699175600E+01  0.15731526456E+03  0.15903122142E+03  0.00000000000E+00 0. -1.
         -2    1    1    2    0  502  0.22958150552E+02  0.39699175600E+01 -0.94244362709E+02  0.97081598796E+02  0.00000000000E+00 0.  1.
</event>
<event>
 4    1  0.5841374E+003  0.2068872E+02  0.7546771E-02  0.1523756E+00
          2   -1    0    0  501    0  0.00000000000E+00  0.00000000000E+00  0.42411001507E+03  0.42411001507E+03  0.00000000000E+00 0.  1.
         -2   -1    0    0    0  501 -0.00000000000E+00 -0.00000000000E+00 -0.62979893902E+02  0.62979893902E+02  0.00000000000E+00 0. -1.
          2    1    1    2  502    0  0.53051280896E+01 -0.19996972662E+02  0.42215078023E+03  0.42265743167E+03  0.00000000000E+00 0.  1.
         -2    1    1    2    0  502 -0.53051280896E+01  0.19996972662E+02 -0.61020659058E+02  0.64432477304E+02  0.00000000000E+00 0. -1.
</event>
<event>
 4    1  0.5841374E+003  0.2178037E+02  0.7546771E-02  0.1508408E+00
          2   -1    0    0  501    0  0.00000000000E+00  0.00000000000E+00  0.14245269963E+01  0.14245269963E+01  0.00000000000E+00 0.  1.
         -2   -1    0    0    0  501 -0.00000000000E+00 -0.00000000000E+00 -0.34928352085E+03  0.34928352085E+03  0.00000000000E+00 0.  1.
          2    1    1    2  502    0  0.20451208176E+02  0.74921775028E+01 -0.13608173165E+03  0.13781372329E+03  0.00000000000E+00 0.  1.
         -2    1    1    2    0  502 -0.20451208176E+02 -0.74921775028E+01 -0.21177726220E+03  0.21289432455E+03  0.00000000000E+00 0.  1.
</event>
<event>
 4    1  0.5841374E+003  0.2868092E+02  0.7546771E-02  0.1431416E+00
          2   -1    0    0  501    0  0.00000000000E+00  0.00000000000E+00  0.59408169953E+02  0.59408169953E+02  0.00000000000E+00 0.  1.
         -2   -1    0    0    0  501 -0.00000000000E+00 -0.00000000000E+00 -0.14357664838E+02  0.14357664838E+02  0.00000000000E+00 0.  1.
          2    1    1    2  502    0  0.26842763956E+02  0.10102523225E+02  0.29484556399E+02  0.41133125560E+02  0.00000000000E+00 0.  1.
         -2    1    1    2    0  502 -0.26842763956E+02 -0.10102523225E+02  0.15565948716E+02  0.32632709230E+02  0.00000000000E+00 0.  1.
</event>
<event>
 4    1  0.5841374E+003  0.2067296E+02  0.7546771E-02  0.1523986E+00
          2   -1    0    0  501    0  0.00000000000E+00  0.00000000000E+00  0.91978302971E+02  0.91978302971E+02  0.00000000000E+00 0.  1.
         -2   -1    0    0    0  501 -0.00000000000E+00 -0.00000000000E+00 -0.16151542589E+02  0.16151542589E+02  0.00000000000E+00 0. -1.
          2    1    1    2  502    0  0.13273015057E+02 -0.15849236906E+02  0.83543742692E+02  0.86063512490E+02  0.00000000000E+00 0.  1.
         -2    1    1    2    0  502 -0.13273015057E+02  0.15849236906E+02 -0.77169823100E+01  0.22066333070E+02  0.00000000000E+00 0. -1.
</event>
<event>
 4    1  0.5841374E+003  0.3208052E+02  0.7546771E-02  0.1402338E+00
          2   -1    0    0  501    0  0.00000000000E+00  0.00000000000E+00  0.27392995757E+02  0.27392995757E+02  0.00000000000E+00 0.  1.
         -2   -1    0    0    0  501 -0.00000000000E+00 -0.00000000000E+00 -0.72985917613E+02  0.72985917613E+02  0.00000000000E+00 0.  1.
          2    1    1    2  502    0  0.28966195993E+02 -0.13788382111E+02  0.12165119512E+02  0.34309621454E+02  0.00000000000E+00 0.  1.
         -2    1    1    2    0  502 -0.28966195993E+02  0.13788382111E+02 -0.57758041369E+02  0.66069291916E+02  0.00000000000E+00 0.  1.
</event>
<event>
 4    1  0.5841374E+003  0.2320930E+02  0.7546771E-02  0.1489887E+00
          2   -1    0    0  501    0  0.00000000000E+00  0.00000000000E+00  0.18975268956E+03  0.18975268956E+03  0.00000000000E+00 0.  1.
         -2   -1    0    0    0  501 -0.00000000000E+00 -0.00000000000E+00 -0.27828759218E+02  0.27828759218E+02  0.00000000000E+00 0. -1.
          2    1    1    2  502    0  0.16401222560E+02  0.16421676744E+02  0.18405460153E+03  0.18551217726E+03  0.00000000000E+00 0.  1.
         -2    1    1    2    0  502 -0.16401222560E+02 -0.16421676744E+02 -0.22130671185E+02  0.32069271518E+02  0.00000000000E+00 0. -1.
</event>
<event>
 4    1  0.5841374E+003  0.2453605E+02  0.7546771E-02  0.1474061E+00
          2   -1    0    0  501    0  0.00000000000E+00  0.00000000000E+00  0.53877059030E+03  0.53877059030E+03  0.00000000000E+00 0. -1.
         -2   -1    0    0    0  501 -0.00000000000E+00 -0.00000000000E+00 -0.23809672641E+01  0.23809672641E+01  0.00000000000E+00 0. -1.
          2    1    1    2  502    0 -0.16462432820E+02  0.18193574072E+02  0.46530669126E+03  0.46595314653E+03  0.00000000000E+00 0. -1.
         -2    1    1    2    0  502  0.16462432820E+02 -0.18193574072E+02  0.71082931776E+02  0.75198411032E+02  0.00000000000E+00 0. -1.
</event>
<event>
 4    1  0.5841374E+003  0.3187954E+02  0.7546771E-02  0.1403937E+00
          2   -1    0    0  501    0  0.00000000000E+00  0.00000000000E+00  0.13985335210E+04  0.13985335210E+04  0.00000000000E+00 0.  1.
         -2   -1    0    0    0  501 -0.00000000000E+00 -0.00000000000E+00 -0.85385659016E+01  0.85385659016E+01  0.00000000000E+00 0.  1.
          2    1    1    2  502    0  0.25596815947E+02  0.19002837875E+02  0.13679299145E+04  0.13683013395E+04  0.00000000000E+00 0.  1.
         -2    1    1    2    0  502 -0.25596815947E+02 -0.19002837875E+02  0.22065040612E+02  0.38770747364E+02  0.00000000000E+00 0.  1.
</event>
<event>
 4    1  0.5841374E+003  0.2058622E+02  0.7546771E-02  0.1525255E+00
          2   -1    0    0  501    0  0.00000000000E+00  0.00000000000E+00  0.87635461091E+03  0.87635461091E+03  0.00000000000E+00 0. -1.
         -2   -1    0    0    0  501 -0.00000000000E+00 -0.00000000000E+00 -0.67968132787E+02  0.67968132787E+02  0.00000000000E+00 0.  1.
          2    1    1    2  502    0  0.19249445208E+02 -0.72973519718E+01  0.87467192502E+03  0.87491414945E+03  0.00000000000E+00 0. -1.
         -2    1    1    2    0  502 -0.19249445208E+02  0.72973519718E+01 -0.66285446892E+02  0.69408594254E+02  0.00000000000E+00 0.  1.
</event>
<event>
 4    1  0.5841374E+003  0.3414671E+02  0.7546771E-02  0.1386663E+00
          2   -1    0    0  501    0  0.00000000000E+00  0.00000000000E+00  0.19515554206E+02  0.19515554206E+02  0.00000000000E+00 0.  1.
         -2   -1    0    0    0  501 -0.00000000000E+00 -0.00000000000E+00 -0.39996240649E+03  0.39996240649E+03  0.00000000000E+00 0.  1.
          2    1    1    2  502    0 -0.20112491700E+02 -0.27595022176E+02  0.32166688787E+01  0.34297879380E+02  0.00000000000E+00 0.  1.
         -2    1    1    2    0  502  0.20112491700E+02  0.27595022176E+02 -0.38366352116E+03  0.38518008132E+03  0.00000000000E+00 0.  1.
</event>
<event>
 4    1  0.5841374E+003  0.2187078E+02  0.7546771E-02  0.1507186E+00
          2   -1    0    0  501    0  0.00000000000E+00  0.00000000000E+00  0.12788918791E+02  0.12788918791E+02  0.00000000000E+00 0.  1.
         -2   -1    0    0    0  501 -0.00000000000E+00 -0.00000000000E+00 -0.38632638493E+02  0.38632638493E+02  0.00000000000E+00 0. -1.
          2    1    1    2  502    0  0.14633769513E+02  0.16253727727E+02 -0.83329771721E+01  0.23404473583E+02  0.00000000000E+00 0.  1.
         -2    1    1    2    0  502 -0.14633769513E+02 -0.16253727727E+02 -0.17510742530E+02  0.28017083701E+02  0.00000000000E+00 0. -1.
</event>
<event>
 4    1  0.5841374E+003  0.3298659E+02  0.7546771E-02  0.1395299E+00
          2   -1    0    0  501    0  0.00000000000E+00  0.00000000000E+00  0.20507526126E+04  0.20507526126E+04  0.00000000000E+00 0.  1.
         -2   -1    0    0    0  501 -0.00000000000E+00 -0.00000000000E+00 -0.69720754511E+01  0.69720754511E+01  0.00000000000E+00 0.  1.
          2    1    1    2  502    0 -0.92441069921E+01 -0.31664832099E+02  0.20108284513E+04  0.20110989970E+04  0.00000000000E+00 0.  1.
         -2    1    1    2    0  502  0.92441069921E+01  0.31664832099E+02  0.32952085852E+02  0.46625691072E+02  0.00000000000E+00 0.  1.
</event>
<event>
 4    1  0.5841374E+003  0.2365161E+02  0.7546771E-02  0.1484474E+00
          2   -1    0    0  501    0  0.00000000000E+00  0.00000000000E+00  0.70838941424E+02  0.70838941424E+02  0.00000000000E+00 0. -1.
         -2   -1    0    0    0  501 -0.00000000000E+00 -0.00000000000E+00 -0.11661109290E+03  0.11661109290E+03  0.00000000000E+00 0. -1.
          2    1    1    2  502    0 -0.30306352925E+01 -0.23456643420E+02  0.67609839615E+02  0.71627433876E+02  0.00000000000E+00 0. -1.
         -2    1    1    2    0  502  0.30306352925E+01  0.23456643420E+02 -0.11338199109E+03  0.11582260045E+03  0.00000000000E+00 0. -1.
</event>
<event>
 4    1  0.5841374E+003  0.2063556E+02  0.7546771E-02  0.1524532E+00
          2   -1    0    0  501    0  0.00000000000E+00  0.00000000000E+00  0.39962147696E+03  0.39962147696E+03  0.00000000000E+00 0.  1.
         -2   -1    0    0    0  501 -0.00000000000E+00 -0.00000000000E+00 -0.14787267495E+01  0.14787267495E+01  0.00000000000E+00 0. -1.
          2    1    1    2  502    0 -0.19229953617E+02  0.74856604015E+01  0.30507831130E+03  0.30577541146E+03  0.00000000000E+00 0.  1.
         -2    1    1    2    0  502  0.19229953617E+02 -0.74856604015E+01  0.93064438918E+02  0.95324792257E+02  0.00000000000E+00 0. -1.
</event>
<event>
 4    1  0.5841374E+003  0.2423858E+02  0.7546771E-02  0.1477505E+00
          2   -1    0    0  501    0  0.00000000000E+00  0.00000000000E+00  0.67156568316E+02  0.67156568316E+02  0.00000000000E+00 0.  1.
         -2   -1    0    0    0  501 -0.00000000000E+00 -0.00000000000E+00 -0.87510336727E+01  0.87510336727E+01  0.00000000000E+00 0.  1.
          2    1    1    2  502    0 -0.14363553436E+02 -0.19524264749E+02  0.29868487671E+02  0.38466025751E+02  0.00000000000E+00 0.  1.
         -2    1    1    2    0  502  0.14363553436E+02  0.19524264749E+02  0.28537046972E+02  0.37441576238E+02  0.00000000000E+00 0.  1.
</event>
<event>
 4    1  0.5841374E+003  0.2429678E+02  0.7546771E-02  0.1476826E+00
          2   -1    0    0  501    0  0.00000000000E+00  0.00000000000E+00  0.27437433211E+03  0.27437433211E+03  0.00000000000E+00 0.  1.
         -2   -1    0    0    0  501 -0.00000000000E+00 -0.00000000000E+00 -0.13006568784E+02  0.13006568784E+02  0.00000000000E+00 0.  1.
          2    1    1    2  502    0  0.23849585583E+02 -0.46401184734E+01  0.26195270174E+03  0.26307708258E+03  0.00000000000E+00 0.  1.
         -2    1    1    2    0  502 -0.23849585583E+02  0.46401184734E+01 -0.58493840639E+00  0.24303818319E+02  0.00000000000E+00 0.  1.
</event>
<event>
 4    1  0.5841374E+003  0.2696159E+02  0.7546771E-02  0.1447994E+00
          2   -1    0    0  501    0  0.00000000000E+00  0.00000000000E+00  0.31078436857E+02  0.31078436857E+02  0.00000000000E+00 0. -1.
         -2   -1    0    0    0  501 -0.00000000000E+00 -0.00000000000E+00 -0.32072659462E+02  0.32072659462E+02  0.00000000000E+00 0. -1.
          2    1    1    2  502    0 -0.15581791195E+02  0.22003070204E+02  0.15931756762E+02  0.31316899411E+02  0.00000000000E+00 0. -1.
         -2    1    1    2    0  502  0.15581791195E+02 -0.22003070204E+02 -0.16925979367E+02  0.31834196908E+02  0.00000000000E+00 0. -1.
</event>
<event>
 4    1  0.5841374E+003  0.2722376E+02  0.7546771E-02  0.1445373E+00
          2   -1    0    0  501    0  0.00000000000E+00  0.00000000000E+00  0.58448707997E+01  0.58448707997E+01  0.00000000000E+00 0.  1.
         -2   -1    0    0    0  501 -0.00000000000E+00 -0.00000000000E+00 -0.11140051646E+04  0.11140051646E+04  0.00000000000E+00 0. -1.
          2    1    1    2  502    0 -0.17793059773E+02  0.20604376734E+02 -0.26984001331E+02  0.38331053266E+02  0.00000000000E+00 0.  1.
         -2    1    1    2    0  502  0.17793059773E+02 -0.20604376734E+02 -0.10811762925E+04  0.10815189822E+04  0.00000000000E+00 0. -1.
</event>
<event>
 4    1  0.5841374E+003  0.3760011E+02  0.7546771E-02  0.1363153E+00
          2   -1    0    0  501    0  0.00000000000E+00  0.00000000000E+00  0.17147043166E+03  0.17147043166E+03  0.00000000000E+00 0. -1.
         -2   -1    0    0    0  501 -0.00000000000E+00 -0.00000000000E+00 -0.18311776846E+02  0.18311776846E+02  0.00000000000E+00 0. -1.
          2    1    1    2  502    0 -0.27367109456E+02 -0.25783899109E+02  0.14693614372E+03  0.15167069086E+03  0.00000000000E+00 0. -1.
         -2    1    1    2    0  502  0.27367109456E+02  0.25783899109E+02  0.62225110929E+01  0.38111517650E+02  0.00000000000E+00 0. -1.
</event>
<event>
 4    1  0.5841374E+003  0.2852733E+02  0.7546771E-02  0.1432841E+00
          2   -1    0    0  501    0  0.00000000000E+00  0.00000000000E+00  0.13803615093E+04  0.13803615093E+04  0.00000000000E+00 0.  1.
         -2   -1    0    0    0  501 -0.00000000000E+00 -0.00000000000E+00 -0.63993203676E+00  0.63993203676E+00  0.00000000000E+00 0.  1.
          2    1    1    2  502    0  0.21297016656E+02 -0.18980134645E+02  0.88358511685E+03  0.88404551193E+03  0.00000000000E+00 0.  1.
         -2    1    1    2    0  502 -0.21297016656E+02  0.18980134645E+02  0.49613646038E+03  0.49695592938E+03  0.00000000000E+00 0.  1.
</event>
<event>
 4    1  0.5841374E+003  0.2765772E+02  0.7546771E-02  0.1441111E+00
          2   -1    0    0  501    0  0.00000000000E+00  0.00000000000E+00  0.45889860388E+01  0.45889860388E+01  0.00000000000E+00 0.  1.
         -2   -1    0    0    0  501 -0.00000000000E+00 -0.00000000000E+00 -0.21023167723E+03  0.21023167723E+03  0.00000000000E+00 0.  1.
          2    1    1    2  502    0  0.21809589336E+02  0.17008562893E+02 -0.53940663336E+02  0.60618021742E+02  0.00000000000E+00 0.  1.
         -2    1    1    2    0  502 -0.21809589336E+02 -0.17008562893E+02 -0.15170202786E+03  0.15420264153E+03  0.00000000000E+00 0.  1.
</event>
<event>
 4    1  0.5841374E+003  0.2984913E+02  0.7546771E-02  0.1420912E+00
          2   -1    0    0  501    0  0.00000000000E+00  0.00000000000E+00  0.10359263011E+03  0.10359263011E+03  0.00000000000E+00 0.  1.
         -2   -1    0    0    0  501 -0.00000000000E+00 -0.00000000000E+00 -0.93916728311E+01  0.93916728311E+01  0.00000000000E+00 0.  1.
          2    1    1    2  502    0  0.29711295708E+02 -0.28652259501E+01  0.63494802197E+02  0.70160961498E+02  0.00000000000E+00 0.  1.
         -2    1    1    2    0  502 -0.29711295708E+02  0.28652259501E+01  0.30706155081E+02  0.42823341442E+02  0.00000000000E+00 0.  1.
</event>
<event>
 4    1  0.5841374E+003  0.2020083E+02  0.7546771E-02  0.1530988E+00
          2   -1    0    0  501    0  0.00000000000E+00  0.00000000000E+00  0.13659440708E+04  0.13659440708E+04  0.00000000000E+00 0. -1.
         -2   -1    0    0    0  501 -0.00000000000E+00 -0.00000000000E+00 -0.37956386485E+01  0.37956386485E+01  0.00000000000E+00 0. -1.
          2    1    1    2  502    0 -0.10063038029E+02  0.17515958004E+02  0.13384392891E+04  0.13385917242E+04  0.00000000000E+00 0. -1.
         -2    1    1    2    0  502  0.10063038029E+02 -0.17515958004E+02  0.23709142987E+02  0.31147985173E+02  0.00000000000E+00 0. -1.
</event>
<event>
 4    1  0.5841374E+003  0.2958779E+02  0.7546771E-02  0.1423213E+00
          2   -1    0    0  501    0  0.00000000000E+00  0.00000000000E+00  0.66840363685E+03  0.66840363685E+03  0.00000000000E+00 0. -1.
         -2   -1    0    0    0  501 -0.00000000000E+00 -0.00000000000E+00 -0.16189243489E+01  0.16189243489E+01  0.00000000000E+00 0.  1.
          2    1    1    2  502    0  0.13382215506E+02  0.26388512403E+02  0.47979620310E+03  0.48070763857E+03  0.00000000000E+00 0. -1.
         -2    1    1    2    0  502 -0.13382215506E+02 -0.26388512403E+02  0.18698850940E+03  0.18931492262E+03  0.00000000000E+00 0.  1.
</event>
<event>
 4    1  0.5841374E+003  0.3489376E+02  0.7546771E-02  0.1381312E+00
          2   -1    0    0  501    0  0.00000000000E+00  0.00000000000E+00  0.55055410176E+03  0.55055410176E+03  0.00000000000E+00 0.  1.
         -2   -1    0    0    0  501 -0.00000000000E+00 -0.00000000000E+00 -0.81877735079E+02  0.81877735079E+02  0.00000000000E+00 0.  1.
          2    1    1    2  502    0 -0.22301070439E+01 -0.34822422944E+02  0.54625432186E+03  0.54736766315E+03  0.00000000000E+00 0.  1.
         -2    1    1    2    0  502  0.22301070439E+01  0.34822422944E+02 -0.77577955172E+02  0.85064173691E+02  0.00000000000E+00 0.  1.
</event>
<event>
 4    1  0.5841374E+003  0.3467152E+02  0.7546771E-02  0.1382887E+00
          2   -1    0    0  501    0  0.00000000000E+00  0.00000000000E+00  0.11439357179E+04  0.11439357179E+04  0.00000000000E+00 0. -1.
         -2   -1    0    0    0  501 -0.00000000000E+00 -0.00000000000E+00 -0.14672830342E+01  0.14672830342E+01  0.00000000000E+00 0. -1.
          2    1    1    2  502    0  0.72173349439E+01  0.33911990660E+02  0.26613560777E+03  0.26838456505E+03  0.00000000000E+00 0. -1.
         -2    1    1    2    0  502 -0.72173349439E+01 -0.33911990660E+02  0.87633282714E+03  0.87701843593E+03  0.00000000000E+00 0. -1.
</event>
<event>
 4    1  0.5841374E+003  0.2127904E+02  0.7546771E-02  0.1515318E+00
          2   -1    0    0  501    0  0.00000000000E+00  0.00000000000E+00  0.19571230393E+03  0.19571230393E+03  0.00000000000E+00 0.  1.
         -2   -1    0    0    0  501 -0.00000000000E+00 -0.00000000000E+00 -0.32086017903E+01  0.32086017903E+01  0.00000000000E+00 0.  1.
          2    1    1    2  502    0  0.12857218219E+01 -0.21240161970E+02  0.14878186066E+03  0.15029584034E+03  0.00000000000E+00 0.  1.
         -2    1    1    2    0  502 -0.12857218219E+01  0.21240161970E+02  0.43721841477E+02  0.48625065381E+02  0.00000000000E+00 0.  1.
</event>
<event>
 4    1  0.5841374E+003  0.2797606E+02  0.7546771E-02  0.1438042E+00
          2   -1    0    0  501    0  0.00000000000E+00  0.00000000000E+00  0.75432425938E+03  0.75432425938E+03  0.00000000000E+00 0. -1.
         -2   -1    0    0    0  501 -0.00000000000E+00 -0.00000000000E+00 -0.40852769564E+01  0.40852769564E+01  0.00000000000E+00 0.  1.
          2    1    1    2  502    0 -0.19656880789E+02  0.19906461694E+02  0.70264868966E+03  0.70320540475E+03  0.00000000000E+00 0. -1.
         -2    1    1    2    0  502  0.19656880789E+02 -0.19906461694E+02  0.47590292757E+02  0.55204131586E+02  0.00000000000E+00 0.  1.
</event>
<event>
 4    1  0.5841374E+003  0.4428240E+02  0.7546771E-02  0.1325067E+00
          2   -1    0    0  501    0  0.00000000000E+00  0.00000000000E+00  0.13109165029E+04  0.13109165029E+04  0.00000000000E+00 0. -1.
         -2   -1    0    0    0  501 -0.00000000000E+00 -0.00000000000E+00 -0.84073050037E+02  0.84073050037E+02  0.00000000000E+00 0.  1.
          2    1    1    2  502    0 -0.32473266044E+01  0.44163174204E+02  0.13046836590E+04  0.13054349395E+04  0.00000000000E+00 0. -1.
         -2    1    1    2    0  502  0.32473266044E+01 -0.44163174204E+02 -0.77840206193E+02  0.89554613427E+02  0.00000000000E+00 0.  1.
</event>
<event>
 4    1  0.5841374E+003  0.3021631E+02  0.7546771E-02  0.1417726E+00
          2   -1    0    0  501    0  0.00000000000E+00  0.00000000000E+00  0.38342082279E+03  0.38342082279E+03  0.00000000000E+00 0.  1.
         -2   -1    0    0    0  501 -0.00000000000E+00 -0.00000000000E+00 -0.76606005800E+01  0.76606005800E+01  0.00000000000E+00 0. -1.
          2    1    1    2  502    0 -0.17475860127E+02  0.24649942423E+02  0.35020890022E+03  0.35151002708E+03  0.00000000000E+00 0.  1.
         -2    1    1    2    0  502  0.17475860127E+02 -0.24649942423E+02  0.25551321998E+02  0.39571396292E+02  0.00000000000E+00 0. -1.
</event>
<event>
 4    1  0.5841374E+003  0.2015974E+02  0.7546771E-02  0.1531608E+00
          2   -1    0    0  501    0  0.00000000000E+00  0.00000000000E+00  0.27104750155E+03  0.27104750155E+03  0.00000000000E+00 0. -1.
         -2   -1    0    0    0  501 -0.00000000000E+00 -0.00000000000E+00 -0.14023716130E+03  0.14023716130E+03  0.00000000000E+00 0. -1.
          2    1    1    2  502    0 -0.89456409045E+01 -0.18066280897E+02  0.26994517750E+03  0.27069690403E+03  0.00000000000E+00 0. -1.
         -2    1    1    2    0  502  0.89456409045E+01  0.18066280897E+02 -0.13913483724E+03  0.14058775882E+03  0.00000000000E+00 0. -1.
</event>
<event>
 4    1  0.5841374E+003  0.4164540E+02  0.7546771E-02  0.1339104E+00
          2   -1    0    0  501    0  0.00000000000E+00  0.00000000000E+00  0.12431284944E+04  0.12431284944E+04  0.00000000000E+00 0. -1.
         -2   -1    0    0    0  501 -0.00000000000E+00 -0.00000000000E+00 -0.76110355119E+02  0.76110355119E+02  0.00000000000E+00 0. -1.
          2    1    1    2  502    0 -0.36665732052E+02  0.19747495868E+02  0.12370549555E+04  0.12377557523E+04  0.00000000000E+00 0. -1.
         -2    1    1    2    0  502  0.36665732052E+02 -0.19747495868E+02 -0.70036816223E+02  0.81483097184E+02  0.00000000000E+00 0. -1.
</event>
<event>
 4    1  0.5841374E+003  0.2158740E+02  0.7546771E-02  0.1511041E+00
          2   -1    0    0  501    0  0.00000000000E+00  0.00000000000E+00  0.29509956570E+02  0.29509956570E+02  0.00000000000E+00 0.  1.
         -2   -1    0    0    0  501 -0.00000000000E+00 -0.00000000000E+00 -0.23789009128E+02  0.23789009128E+02  0.00000000000E+00 0.  1.
          2    1    1    2  502    0  0.12737564830E+01 -0.21549791450E+02  0.18311924098E+02  0.28307994123E+02  0.00000000000E+00 0.  1.
         -2    1    1    2    0  502 -0.12737564830E+01  0.21549791450E+02 -0.12590976656E+02  0.24990971575E+02  0.00000000000E+00 0.  1.
</event>
<event>
 4    1  0.5841374E+003  0.2403989E+02  0.7546771E-02  0.1479837E+00
          2   -1    0    0  501    0  0.00000000000E+00  0.00000000000E+00  0.94246754789E+03  0.94246754789E+03  0.00000000000E+00 0.  1.
         -2   -1    0    0    0  501 -0.00000000000E+00 -0.00000000000E+00 -0.51277431934E+02  0.51277431934E+02  0.00000000000E+00 0.  1.
          2    1    1    2  502    0  0.22874346650E+02 -0.73946471489E+01  0.93948771687E+03  0.93979523658E+03  0.00000000000E+00 0.  1.
         -2    1    1    2    0  502 -0.22874346650E+02  0.73946471489E+01 -0.48297600920E+02  0.53949743241E+02  0.00000000000E+00 0.  1.
</event>
<event>
 4    1  0.5841374E+003  0.2830745E+02  0.7546771E-02  0.1434899E+00
          2   -1    0    0  501    0  0.00000000000E+00  0.00000000000E+00  0.22558268697E+04  0.22558268697E+04  0.00000000000E+00 0. -1.
         -2   -1    0    0    0  501 -0.00000000000E+00 -0.00000000000E+00 -0.59961383002E+00  0.59961383002E+00  0.00000000000E+00 0. -1.
          2    1    1    2  502    0  0.25696470725E+02 -0.11874466580E+02  0.18478943204E+04  0.18481111252E+04  0.00000000000E+00 0. -1.
         -2    1    1    2    0  502 -0.25696470725E+02  0.11874466580E+02  0.40733293546E+03  0.40831535836E+03  0.00000000000E+00 0. -1.
</event>
<event>
 4    1  0.5841374E+003  0.2765449E+02  0.7546771E-02  0.1441142E+00
          2   -1    0    0  501    0  0.00000000000E+00  0.00000000000E+00  0.13980365538E+02  0.13980365538E+02  0.00000000000E+00 0.  1.
         -2   -1    0    0    0  501 -0.00000000000E+00 -0.00000000000E+00 -0.55229065067E+02  0.55229065067E+02  0.00000000000E+00 0. -1.
          2    1    1    2  502    0 -0.20469132001E+02 -0.18595288933E+02 -0.24001156610E+02  0.36617286273E+02  0.00000000000E+00 0.  1.
         -2    1    1    2    0  502  0.20469132001E+02  0.18595288933E+02 -0.17247542919E+02  0.32592144331E+02  0.00000000000E+00 0. -1.
</event>
<event>
 4    1  0.5841374E+003  0.2445956E+02  0.7546771E-02  0.1474941E+00
          2   -1    0    0  501    0  0.00000000000E+00  0.00000000000E+00  0.17493820294E+03  0.17493820294E+03  0.00000000000E+00 0. -1.
         -2   -1    0    0    0  501 -0.00000000000E+00 -0.00000000000E+00 -0.15900574221E+02  0.15900574221E+02  0.00000000000E+00 0.  1.
          2    1    1    2  502    0  0.24450280655E+02 -0.67383024491E+00  0.16405630205E+03  0.16586964916E+03  0.00000000000E+00 0. -1.
         -2    1    1    2    0  502 -0.24450280655E+02  0.67383024491E+00 -0.50186733246E+01  0.24969128003E+02  0.00000000000E+00 0.  1.
</event>
<event>
 4    1  0.5841374E+003  0.2177797E+02  0.7546771E-02  0.1508441E+00
          2   -1    0    0  501    0  0.00000000000E+00  0.00000000000E+00  0.12563463835E+04  0.12563463835E+04  0.00000000000E+00 0.  1.
         -2   -1    0    0    0  501 -0.00000000000E+00 -0.00000000000E+00 -0.48452127453E+00  0.48452127453E+00  0.00000000000E+00 0.  1.
          2    1    1    2  502    0  0.81493806787E+01 -0.20195732851E+02  0.92326293763E+03  0.92351975183E+03  0.00000000000E+00 0.  1.
         -2    1    1    2    0  502 -0.81493806787E+01  0.20195732851E+02  0.33259892456E+03  0.33331115290E+03  0.00000000000E+00 0.  1.
</event>
<event>
 4    1  0.5841374E+003  0.4238751E+02  0.7546771E-02  0.1335036E+00
          2   -1    0    0  501    0  0.00000000000E+00  0.00000000000E+00  0.17905573758E+04  0.17905573758E+04  0.00000000000E+00 0.  1.
         -2   -1    0    0    0  501 -0.00000000000E+00 -0.00000000000E+00 -0.97909751921E+02  0.97909751921E+02  0.00000000000E+00 0.  1.
          2    1    1    2  502    0 -0.81616164518E+01 -0.41594337192E+02  0.17857064119E+04  0.17862094195E+04  0.00000000000E+00 0.  1.
         -2    1    1    2    0  502  0.81616164518E+01  0.41594337192E+02 -0.93058787995E+02  0.10225770823E+03  0.00000000000E+00 0.  1.
</event>
<event>
 4    1  0.5841374E+003  0.3076658E+02  0.7546771E-02  0.1413049E+00
          2   -1    0    0  501    0  0.00000000000E+00  0.00000000000E+00  0.16964968661E+03  0.16964968661E+03  0.00000000000E+00 0. -1.
         -2   -1    0    0    0  501 -0.00000000000E+00 -0.00000000000E+00 -0.46415230676E+03  0.46415230676E+03  0.00000000000E+00 0.  1.
          2    1    1    2  502    0 -0.30587630000E+02 -0.33135227900E+01  0.16773917525E+03  0.17053742538E+03  0.00000000000E+00 0. -1.
         -2    1    1    2    0  502  0.30587630000E+02  0.33135227900E+01 -0.46224179540E+03  0.46326456799E+03  0.00000000000E+00 0.  1.
</event>
<event>
 4    1  0.5841374E+003  0.2368712E+02  0.7546771E-02  0.1484046E+00
          2   -1    0    0  501    0  0.00000000000E+00  0.00000000000E+00  0.17456772642E+01  0.17456772642E+01  0.00000000000E+00 0. -1.
         -2   -1    0    0    0  501 -0.00000000000E+00 -0.00000000000E+00 -0.32779783879E+03  0.32779783879E+03  0.00000000000E+00 0.  1.
          2    1    1    2  502    0  0.22251564123E+02  0.81207740056E+01 -0.18602663318E+03  0.18752863069E+03  0.00000000000E+00 0. -1.
         -2    1    1    2    0  502 -0.22251564123E+02 -0.81207740056E+01 -0.14002552835E+03  0.14201488537E+03  0.00000000000E+00 0.  1.
</event>
<event>
 4    1  0.5841374E+003  0.2357847E+02  0.7546771E-02  0.1485359E+00
          2   -1    0    0  501    0  0.00000000000E+00  0.00000000000E+00  0.13025568143E+04  0.13025568143E+04  0.00000000000E+00 0.  1.
         -2   -1    0    0    0  501 -0.00000000000E+00 -0.00000000000E+00 -0.51189339400E+00  0.51189339400E+00  0.00000000000E+00 0. -1.
          2    1    1    2  502    0  0.16484780103E+02 -0.16858105068E+02  0.38539613106E+03  0.38611672007E+03  0.00000000000E+00 0.  1.
         -2    1    1    2    0  502 -0.16484780103E+02  0.16858105068E+02  0.91664878986E+03  0.91695198764E+03  0.00000000000E+00 0. -1.
</event>
<event>
 4    1  0.5841374E+003  0.2706291E+02  0.7546771E-02  0.1446977E+00
          2   -1    0    0  501    0  0.00000000000E+00  0.00000000000E+00  0.18461708517E+04  0.18461708517E+04  0.00000000000E+00 0. -1.
         -2   -1    0    0    0  501 -0.00000000000E+00 -0.00000000000E+00 -0.24115432465E+02  0.24115432465E+02  0.00000000000E+00 0. -1.
          2    1    1    2  502    0 -0.21080406148E+02 -0.16971079705E+02  0.18384471171E+04  0.18386462964E+04  0.00000000000E+00 0. -1.
         -2    1    1    2    0  502  0.21080406148E+02  0.16971079705E+02 -0.16391697803E+02  0.31639987778E+02  0.00000000000E+00 0. -1.
</event>
<event>
 4    1  0.5841374E+003  0.2327633E+02  0.7546771E-02  0.1489057E+00
          2   -1    0    0  501    0  0.00000000000E+00  0.00000000000E+00  0.14451454742E+03  0.14451454742E+03  0.00000000000E+00 0. -1.
         -2   -1    0    0    0  501 -0.00000000000E+00 -0.00000000000E+00 -0.18275151563E+02  0.18275151563E+02  0.00000000000E+00 0. -1.
          2    1    1    2  502    0  0.15776032463E+02 -0.17114453405E+02  0.13568707726E+03  0.13766906206E+03  0.00000000000E+00 0. -1.
         -2    1    1    2    0  502 -0.15776032463E+02  0.17114453405E+02 -0.94476813944E+01  0.25120636922E+02  0.00000000000E+00 0. -1.
</event>
<event>
 4    1  0.5841374E+003  0.2184685E+02  0.7546771E-02  0.1507509E+00
          2   -1    0    0  501    0  0.00000000000E+00  0.00000000000E+00  0.11131969685E+04  0.11131969685E+04  0.00000000000E+00 0. -1.
         -2   -1    0    0    0  501 -0.00000000000E+00 -0.00000000000E+00 -0.20141329816E+02  0.20141329816E+02  0.00000000000E+00 0.  1.
          2    1    1    2  502    0  0.13002165549E+02  0.17556439932E+02  0.11071331387E+04  0.11073486677E+04  0.00000000000E+00 0. -1.
         -2    1    1    2    0  502 -0.13002165549E+02 -0.17556439932E+02 -0.14077500072E+02  0.25989630631E+02  0.00000000000E+00 0.  1.
</event>
<event>
 4    1  0.5841374E+003  0.2008926E+02  0.7546771E-02  0.1532676E+00
          2   -1    0    0  501    0  0.00000000000E+00  0.00000000000E+00  0.80773409660E+01  0.80773409660E+01  0.00000000000E+00 0.  1.
         -2   -1    0    0    0  501 -0.00000000000E+00 -0.00000000000E+00 -0.13696697899E+03  0.13696697899E+03  0.00000000000E+00 0.  1.
          2    1    1    2  502    0 -0.59779008846E+01 -0.19179233544E+02 -0.66446344631E+01  0.21159618746E+02  0.00000000000E+00 0.  1.
         -2    1    1    2    0  502  0.59779008846E+01  0.19179233544E+02 -0.12224500357E+03  0.12388470121E+03  0.00000000000E+00 0.  1.
</event>
<event>
 4    1  0.5841374E+003  0.2068804E+02  0.7546771E-02  0.1523766E+00
          2   -1    0    0  501    0  0.00000000000E+00  0.00000000000E+00  0.72177987081E+02  0.72177987081E+02  0.00000000000E+00 0.  1.
         -2   -1    0    0    0  501 -0.00000000000E+00 -0.00000000000E+00 -0.11243811722E+02  0.11243811722E+02  0.00000000000E+00 0. -1.
          2    1    1    2  502    0  0.29136641539E+01 -0.20481835184E+02  0.59142352171E+02  0.62656307197E+02  0.00000000000E+00 0.  1.
         -2    1    1    2    0  502 -0.29136641539E+01  0.20481835184E+02  0.17918231874E+01  0.20765491606E+02  0.00000000000E+00 0. -1.
</event>
<event>
 4    1  0.5841374E+003  0.3832888E+02  0.7546771E-02  0.1358567E+00
          2   -1    0    0  501    0  0.00000000000E+00  0.00000000000E+00  0.18563036293E+04  0.18563036293E+04  0.00000000000E+00 0.  1.
         -2   -1    0    0    0  501 -0.00000000000E+00 -0.00000000000E+00 -0.80202143627E+00  0.80202143627E+00  0.00000000000E+00 0.  1.
          2    1    1    2  502    0  0.30779079669E+02  0.22841879789E+02  0.10345418833E+04  0.10352516658E+04  0.00000000000E+00 0.  1.
         -2    1    1    2    0  502 -0.30779079669E+02 -0.22841879789E+02  0.82095972460E+03  0.82185398498E+03  0.00000000000E+00 0.  1.
</event>
<event>
 4    1  0.5841374E+003  0.4829949E+02  0.7546771E-02  0.1305719E+00
          2   -1    0    0  501    0  0.00000000000E+00  0.00000000000E+00  0.16137896976E+04  0.16137896976E+04  0.00000000000E+00 0.  1.
         -2   -1    0    0    0  501 -0.00000000000E+00 -0.00000000000E+00 -0.10219361092E+02  0.10219361092E+02  0.00000000000E+00 0. -1.
          2    1    1    2  502    0 -0.48294135085E+02  0.71890927101E+00  0.15541704839E+04  0.15549208126E+04  0.00000000000E+00 0.  1.
         -2    1    1    2    0  502  0.48294135085E+02 -0.71890927101E+00  0.49399852569E+02  0.69088246091E+02  0.00000000000E+00 0. -1.
</event>
<event>
 4    1  0.5841374E+003  0.2219877E+02  0.7546771E-02  0.1502812E+00
          2   -1    0    0  501    0  0.00000000000E+00  0.00000000000E+00  0.87353934154E+03  0.87353934154E+03  0.00000000000E+00 0. -1.
         -2   -1    0    0    0  501 -0.00000000000E+00 -0.00000000000E+00 -0.17895341426E+01  0.17895341426E+01  0.00000000000E+00 0. -1.
          2    1    1    2  502    0  0.95981237053E+01 -0.20016532644E+02  0.79804433205E+03  0.79835301807E+03  0.00000000000E+00 0. -1.
         -2    1    1    2    0  502 -0.95981237053E+01  0.20016532644E+02  0.73705475354E+02  0.76975857611E+02  0.00000000000E+00 0. -1.
</event>
<event>
 4    1  0.5841374E+003  0.2493006E+02  0.7546771E-02  0.1469587E+00
          2   -1    0    0  501    0  0.00000000000E+00  0.00000000000E+00  0.17325512890E+04  0.17325512890E+04  0.00000000000E+00 0.  1.
         -2   -1    0    0    0  501 -0.00000000000E+00 -0.00000000000E+00 -0.60188877640E+00  0.60188877640E+00  0.00000000000E+00 0. -1.
          2    1    1    2  502    0  0.81361066470E+01  0.23565055097E+02  0.14167811220E+04  0.14170004431E+04  0.00000000000E+00 0.  1.
         -2    1    1    2    0  502 -0.81361066470E+01 -0.23565055097E+02  0.31516827818E+03  0.31615273464E+03  0.00000000000E+00 0. -1.
</event>
<event>
 4    1  0.5841374E+003  0.5811123E+02  0.7546771E-02  0.1266389E+00
          2   -1    0    0  501    0  0.00000000000E+00  0.00000000000E+00  0.17769009487E+03  0.17769009487E+03  0.00000000000E+00 0. -1.
         -2   -1    0    0    0  501 -0.00000000000E+00 -0.00000000000E+00 -0.39280940911E+02  0.39280940911E+02  0.00000000000E+00 0. -1.
          2    1    1    2  502    0 -0.19416300485E+02 -0.54771550896E+02  0.14714745561E+03  0.15820647650E+03  0.00000000000E+00 0. -1.
         -2    1    1    2    0  502  0.19416300485E+02  0.54771550896E+02 -0.87383016541E+01  0.58764559284E+02  0.00000000000E+00 0. -1.
</event>
<event>
 4    1  0.5841374E+003  0.2146147E+02  0.7546771E-02  0.1512777E+00
          2   -1    0    0  501    0  0.00000000000E+00  0.00000000000E+00  0.19274893133E+02  0.19274893133E+02  0.00000000000E+00 0.  1.
         -2   -1    0    0    0  501 -0.00000000000E+00 -0.00000000000E+00 -0.14413537960E+03  0.14413537960E+03  0.00000000000E+00 0.  1.
          2    1    1    2  502    0  0.20061754405E+02  0.76236856510E+01  0.12195258263E+02  0.24684385689E+02  0.00000000000E+00 0.  1.
         -2    1    1    2    0  502 -0.20061754405E+02 -0.76236856510E+01 -0.13705574473E+03  0.13872588704E+03  0.00000000000E+00 0.  1.
</event>
<event>
 4    1  0.5841374E+003  0.2065597E+02  0.7546771E-02  0.1524234E+00
          2   -1    0    0  501    0  0.00000000000E+00  0.00000000000E+00  0.60584957145E+02  0.60584957145E+02  0.00000000000E+00 0.  1.
         -2   -1    0    0    0  501 -0.00000000000E+00 -0.00000000000E+00 -0.10283074532E+03  0.10283074532E+03  0.00000000000E+00 0.  1.
          2    1    1    2  502    0  0.17268018672E+01 -0.20583663560E+02  0.57737406059E+02  0.61321098398E+02  0.00000000000E+00 0.  1.
         -2    1    1    2    0  502 -0.17268018672E+01  0.20583663560E+02 -0.99983194237E+02  0.10209460407E+03  0.00000000000E+00 0.  1.
</event>
<event>
 4    1  0.1055473E+004  0.2684799E+02  0.7546771E-02  0.1449141E+00
          2   -1    0    0  501    0  0.00000000000E+00  0.00000000000E+00  0.11139270806E+04  0.11139270806E+04  0.00000000000E+00 0. -1.
         -2   -1    0    0    0  501 -0.00000000000E+00 -0.00000000000E+00 -0.58779397707E+03  0.58779397707E+03  0.00000000000E+00 0.  1.
          2    1    1    2  502    0  0.11864076683E+02  0.24084403195E+02  0.11134586020E+04  0.11137822377E+04  0.00000000000E+00 0. -1.
         -2    1    1    2    0  502 -0.11864076683E+02 -0.24084403195E+02 -0.58732549848E+03  0.58793881991E+03  0.00000000000E+00 0.  1.
</event>
<event>
 4    1  0.5841374E+003  0.2424045E+02  0.7546771E-02  0.1477483E+00
          2   -1    0    0  501    0  0.00000000000E+00  0.00000000000E+00  0.33064275858E+03  0.33064275858E+03  0.00000000000E+00 0.  1.
         -2   -1    0    0    0  501 -0.00000000000E+00 -0.00000000000E+00 -0.22149502416E+01  0.22149502416E+01  0.00000000000E+00 0. -1.
          2    1    1    2  502    0  0.49457205666E+01  0.23730552124E+02  0.23820652645E+03  0.23943673172E+03  0.00000000000E+00 0.  1.
         -2    1    1    2    0  502 -0.49457205666E+01 -0.23730552124E+02  0.90221281892E+02  0.93420977100E+02  0.00000000000E+00 0. -1.
</event>
<event>
 4    1  0.5841374E+003  0.3162803E+02  0.7546771E-02  0.1405957E+00
          2   -1    0    0  501    0  0.00000000000E+00  0.00000000000E+00  0.14930345883E+04  0.14930345883E+04  0.00000000000E+00 0.  1.
         -2   -1    0    0    0  501 -0.00000000000E+00 -0.00000000000E+00 -0.70327964311E+00  0.70327964311E+00  0.00000000000E+00 0.  1.
          2    1    1    2  502    0  0.44486574840E+01 -0.31313586165E+02  0.58369378023E+03  0.58455004945E+03  0.00000000000E+00 0.  1.
         -2    1    1    2    0  502 -0.44486574840E+01  0.31313586165E+02  0.90863752841E+03  0.90918781848E+03  0.00000000000E+00 0.  1.
</event>
<event>
 4    1  0.5841374E+003  0.2366052E+02  0.7546771E-02  0.1484366E+00
          2   -1    0    0  501    0  0.00000000000E+00  0.00000000000E+00  0.37239239568E+01  0.37239239568E+01  0.00000000000E+00 0. -1.
         -2   -1    0    0    0  501 -0.00000000000E+00 -0.00000000000E+00 -0.15230156246E+03  0.15230156246E+03  0.00000000000E+00 0. -1.
          2    1    1    2  502    0  0.18055680328E+02  0.15290910788E+02 -0.83163603624E+02  0.86463891380E+02  0.00000000000E+00 0. -1.
         -2    1    1    2    0  502 -0.18055680328E+02 -0.15290910788E+02 -0.65414034877E+02  0.69561595034E+02  0.00000000000E+00 0. -1.
</event>
<event>
 4    1  0.5841374E+003  0.3100880E+02  0.7546771E-02  0.1411028E+00
          2   -1    0    0  501    0  0.00000000000E+00  0.00000000000E+00  0.30796777252E+03  0.30796777252E+03  0.00000000000E+00 0. -1.
         -2   -1    0    0    0  501 -0.00000000000E+00 -0.00000000000E+00 -0.32107340257E+03  0.32107340257E+03  0.00000000000E+00 0. -1.
          2    1    1    2  502    0 -0.30773941884E+02 -0.38092557277E+01  0.30643478298E+03  0.30799971128E+03  0.00000000000E+00 0. -1.
         -2    1    1    2    0  502  0.30773941884E+02  0.38092557277E+01 -0.31954041303E+03  0.32104146381E+03  0.00000000000E+00 0. -1.
</event>
<event>
 4    1  0.5841374E+003  0.3292386E+02  0.7546771E-02  0.1395778E+00
          2   -1    0    0  501    0  0.00000000000E+00  0.00000000000E+00  0.28274174647E+02  0.28274174647E+02  0.00000000000E+00 0.  1.
         -2   -1    0    0    0  501 -0.00000000000E+00 -0.00000000000E+00 -0.15122238211E+03  0.15122238211E+03  0.00000000000E+00 0.  1.
          2    1    1    2  502    0  0.28074848190E+02 -0.17198354993E+02  0.16067479595E+02  0.36635289215E+02  0.00000000000E+00 0.  1.
         -2    1    1    2    0  502 -0.28074848190E+02  0.17198354993E+02 -0.13901568706E+03  0.14286126754E+03  0.00000000000E+00 0.  1.
</event>
<event>
 4    1  0.5841374E+003  0.2478115E+02  0.7546771E-02  0.1471267E+00
          2   -1    0    0  501    0  0.00000000000E+00  0.00000000000E+00  0.14891106517E+02  0.14891106517E+02  0.00000000000E+00 0.  1.
         -2   -1    0    0    0  501 -0.00000000000E+00 -0.00000000000E+00 -0.41778485242E+02  0.41778485242E+02  0.00000000000E+00 0.  1.
          2    1    1    2  502    0 -0.25034200654E+01 -0.24654371622E+02 -0.10226022164E+02  0.26808145803E+02  0.00000000000E+00 0.  1.
         -2    1    1    2    0  502  0.25034200654E+01  0.24654371622E+02 -0.16661356562E+02  0.29861445956E+02  0.00000000000E+00 0.  1.
</event>
<event>
 4    1  0.5841374E+003  0.2086826E+02  0.7546771E-02  0.1521154E+00
          2   -1    0    0  501    0  0.00000000000E+00  0.00000000000E+00  0.84039866501E+03  0.84039866501E+03  0.00000000000E+00 0.  1.
         -2   -1    0    0    0  501 -0.00000000000E+00 -0.00000000000E+00 -0.82088473570E+00  0.82088473570E+00  0.00000000000E+00 0. -1.
          2    1    1    2  502    0 -0.17652805548E+02  0.11129359358E+02  0.67520154613E+03  0.67552395374E+03  0.00000000000E+00 0.  1.
         -2    1    1    2    0  502  0.17652805548E+02 -0.11129359358E+02  0.16437623415E+03  0.16569559600E+03  0.00000000000E+00 0. -1.
</event>
<event>
 4    1  0.5841374E+003  0.2285790E+02  0.7546771E-02  0.1494290E+00
          2   -1    0    0  501    0  0.00000000000E+00  0.00000000000E+00  0.11434154443E+01  0.11434154443E+01  0.00000000000E+00 0. -1.
         -2   -1    0    0    0  501 -0.00000000000E+00 -0.00000000000E+00 -0.98893786913E+03  0.98893786913E+03  0.00000000000E+00 0.  1.
          2    1    1    2  502    0 -0.22663292091E+02  0.29763906372E+01 -0.13081314571E+03  0.13279519117E+03  0.00000000000E+00 0. -1.
         -2    1    1    2    0  502  0.22663292091E+02 -0.29763906372E+01 -0.85698130798E+03  0.85728609340E+03  0.00000000000E+00 0.  1.
</event>
<event>
 4    1  0.5841374E+003  0.2812978E+02  0.7546771E-02  0.1436578E+00
          2   -1    0    0  501    0  0.00000000000E+00  0.00000000000E+00  0.11477361708E+04  0.11477361708E+04  0.00000000000E+00 0.  1.
         -2   -1    0    0    0  501 -0.00000000000E+00 -0.00000000000E+00 -0.22732739519E+02  0.22732739519E+02  0.00000000000E+00 0. -1.
          2    1    1    2  502    0  0.26718341157E+02 -0.87985557353E+01  0.11387934537E+04  0.11391408229E+04  0.00000000000E+00 0.  1.
         -2    1    1    2    0  502 -0.26718341157E+02  0.87985557353E+01 -0.13790022444E+02  0.31328087337E+02  0.00000000000E+00 0. -1.
</event>
<event>
 4    1  0.5841374E+003  0.2746662E+02  0.7546771E-02  0.1442976E+00
          2   -1    0    0  501    0  0.00000000000E+00  0.00000000000E+00  0.26030912545E+03  0.26030912545E+03  0.00000000000E+00 0.  1.
         -2   -1    0    0    0  501 -0.00000000000E+00 -0.00000000000E+00 -0.12084983795E+02  0.12084983795E+02  0.00000000000E+00 0.  1.
          2    1    1    2  502    0 -0.10257239746E+02 -0.25479488445E+02  0.24286041765E+03  0.24440866957E+03  0.00000000000E+00 0.  1.
         -2    1    1    2    0  502  0.10257239746E+02  0.25479488445E+02  0.53637240023E+01  0.27985439675E+02  0.00000000000E+00 0.  1.
</event>
<event>
 4    1  0.5841374E+003  0.2451368E+02  0.7546771E-02  0.1474318E+00
          2   -1    0    0  501    0  0.00000000000E+00  0.00000000000E+00  0.61800999246E+01  0.61800999246E+01  0.00000000000E+00 0. -1.
         -2   -1    0    0    0  501 -0.00000000000E+00 -0.00000000000E+00 -0.99827388090E+02  0.99827388090E+02  0.00000000000E+00 0. -1.
          2    1    1    2  502    0  0.20277109308E+02  0.13775295115E+02 -0.55365655484E+02  0.60549778898E+02  0.00000000000E+00 0. -1.
         -2    1    1    2    0  502 -0.20277109308E+02 -0.13775295115E+02 -0.38281632682E+02  0.45457709117E+02  0.00000000000E+00 0. -1.
</event>
<event>
 4    1  0.5841374E+003  0.2588716E+02  0.7546771E-02  0.1459119E+00
          2   -1    0    0  501    0  0.00000000000E+00  0.00000000000E+00  0.15108818738E+04  0.15108818738E+04  0.00000000000E+00 0. -1.
         -2   -1    0    0    0  501 -0.00000000000E+00 -0.00000000000E+00 -0.94411538614E+00  0.94411538614E+00  0.00000000000E+00 0. -1.
          2    1    1    2  502    0  0.12385613318E+02  0.22731953826E+02  0.13053855144E+04  0.13056421739E+04  0.00000000000E+00 0. -1.
         -2    1    1    2    0  502 -0.12385613318E+02 -0.22731953826E+02  0.20455224401E+03  0.20618381525E+03  0.00000000000E+00 0. -1.
</event>
<event>
 4    1  0.5841374E+003  0.3398241E+02  0.7546771E-02  0.1387862E+00
          2   -1    0    0  501    0  0.00000000000E+00  0.00000000000E+00  0.34824665922E+03  0.34824665922E+03  0.00000000000E+00 0.  1.
         -2   -1    0    0    0  501 -0.00000000000E+00 -0.00000000000E+00 -0.16142726773E+03  0.16142726773E+03  0.00000000000E+00 0.  1.
          2    1    1    2  502    0 -0.20229148494E+02 -0.27305418370E+02  0.34561563601E+03  0.34728226585E+03  0.00000000000E+00 0.  1.
         -2    1    1    2    0  502  0.20229148494E+02  0.27305418370E+02 -0.15879624452E+03  0.16239166110E+03  0.00000000000E+00 0.  1.
</event>
<event>
 4    1  0.5841374E+003  0.3402816E+02  0.7546771E-02  0.1387527E+00
          2   -1    0    0  501    0  0.00000000000E+00  0.00000000000E+00  0.23058919534E+04  0.23058919534E+04  0.00000000000E+00 0. -1.
         -2   -1    0    0    0  501 -0.00000000000E+00 -0.00000000000E+00 -0.12278278082E+03  0.12278278082E+03  0.00000000000E+00 0. -1.
          2    1    1    2  502    0 -0.33737096467E+02  0.44411838155E+01  0.23034062195E+04  0.23036575544E+04  0.00000000000E+00 0. -1.
         -2    1    1    2    0  502  0.33737096467E+02 -0.44411838155E+01 -0.12029704685E+03  0.12501717991E+03  0.00000000000E+00 0. -1.
</event>
<event>
 4    1  0.7111056E+003  0.2379394E+02  0.7546771E-02  0.1482762E+00
          2   -1    0    0  501    0  0.00000000000E+00  0.00000000000E+00  0.59312172073E+03  0.59312172073E+03  0.00000000000E+00 0. -1.
         -2   -1    0    0    0  501 -0.00000000000E+00 -0.00000000000E+00 -0.26564403261E+03  0.26564403261E+03  0.00000000000E+00 0. -1.
          2    1    1    2  502    0  0.44900223944E+01 -0.23366459241E+02  0.59234958380E+03  0.59282727767E+03  0.00000000000E+00 0. -1.
         -2    1    1    2    0  502 -0.44900223944E+01  0.23366459241E+02 -0.26487189568E+03  0.26593847567E+03  0.00000000000E+00 0. -1.
</event>
<event>
 4    1  0.5841374E+003  0.2070074E+02  0.7546771E-02  0.1523581E+00
          2   -1    0    0  501    0  0.00000000000E+00  0.00000000000E+00  0.31988954139E+03  0.31988954139E+03  0.00000000000E+00 0.  1.
         -2   -1    0    0    0  501 -0.00000000000E+00 -0.00000000000E+00 -0.26545548201E+01  0.26545548201E+01  0.00000000000E+00 0. -1.
          2    1    1    2  502    0 -0.81772363411E+01 -0.19017186050E+02  0.27212392192E+03  0.27291014902E+03  0.00000000000E+00 0.  1.
         -2    1    1    2    0  502  0.81772363411E+01  0.19017186050E+02  0.45111064657E+02  0.49633947192E+02  0.00000000000E+00 0. -1.
</event>
<event>
 4    1  0.5841374E+003  0.3058747E+02  0.7546771E-02  0.1414559E+00
          2   -1    0    0  501    0  0.00000000000E+00  0.00000000000E+00  0.14845172816E+04  0.14845172816E+04  0.00000000000E+00 0.  1.
         -2   -1    0    0    0  501 -0.00000000000E+00 -0.00000000000E+00 -0.99959681851E+00  0.99959681851E+00  0.00000000000E+00 0. -1.
          2    1    1    2  502    0 -0.51725076004E+01 -0.30146943865E+02  0.11932630806E+04  0.11936550476E+04  0.00000000000E+00 0.  1.
         -2    1    1    2    0  502  0.51725076004E+01  0.30146943865E+02  0.29025460413E+03  0.29186183080E+03  0.00000000000E+00 0. -1.
</event>
<event>
 4    1  0.5841374E+003  0.2264382E+02  0.7546771E-02  0.1497020E+00
          2   -1    0    0  501    0  0.00000000000E+00  0.00000000000E+00  0.10270958192E+04  0.10270958192E+04  0.00000000000E+00 0.  1.
         -2   -1    0    0    0  501 -0.00000000000E+00 -0.00000000000E+00 -0.45604193405E+01  0.45604193405E+01  0.00000000000E+00 0. -1.
          2    1    1    2  502    0  0.22058444573E+02 -0.51154146793E+01  0.99804464701E+03  0.99830148746E+03  0.00000000000E+00 0.  1.
         -2    1    1    2    0  502 -0.22058444573E+02  0.51154146793E+01  0.24490752849E+02  0.33354751078E+02  0.00000000000E+00 0. -1.
</event>
<event>
 4    1  0.5841374E+003  0.2044005E+02  0.7546771E-02  0.1527412E+00
          2   -1    0    0  501    0  0.00000000000E+00  0.00000000000E+00  0.98512421915E+03  0.98512421915E+03  0.00000000000E+00 0. -1.
         -2   -1    0    0    0  501 -0.00000000000E+00 -0.00000000000E+00 -0.43802673020E+00  0.43802673020E+00  0.00000000000E+00 0. -1.
          2    1    1    2  502    0  0.17163337112E+02  0.11100247766E+02  0.58019632672E+03  0.58055626186E+03  0.00000000000E+00 0. -1.
         -2    1    1    2    0  502 -0.17163337112E+02 -0.11100247766E+02  0.40448986570E+03  0.40500598402E+03  0.00000000000E+00 0. -1.
</event>
<event>
 4    1  0.5841374E+003  0.5476428E+02  0.7546771E-02  0.1278740E+00
          2   -1    0    0  501    0  0.00000000000E+00  0.00000000000E+00  0.16325417740E+03  0.16325417740E+03  0.00000000000E+00 0.  1.
         -2   -1    0    0    0  501 -0.00000000000E+00 -0.00000000000E+00 -0.24346001595E+02  0.24346001595E+02  0.00000000000E+00 0.  1.
          2    1    1    2  502    0  0.64291764130E+01  0.54385590931E+02  0.11592293884E+03  0.12820785686E+03  0.00000000000E+00 0.  1.
         -2    1    1    2    0  502 -0.64291764130E+01 -0.54385590931E+02  0.22985236957E+02  0.59392322132E+02  0.00000000000E+00 0.  1.
</event>
<event>
 4    1  0.5841374E+003  0.2408829E+02  0.7546771E-02  0.1479267E+00
          2   -1    0    0  501    0  0.00000000000E+00  0.00000000000E+00  0.71456138817E+03  0.71456138817E+03  0.00000000000E+00 0. -1.
         -2   -1    0    0    0  501 -0.00000000000E+00 -0.00000000000E+00 -0.35562979989E+01  0.35562979989E+01  0.00000000000E+00 0.  1.
          2    1    1    2  502    0 -0.24068487691E+02  0.97661421064E+00  0.67091566170E+03  0.67134795076E+03  0.00000000000E+00 0. -1.
         -2    1    1    2    0  502  0.24068487691E+02 -0.97661421064E+00  0.40089428468E+02  0.46769735406E+02  0.00000000000E+00 0.  1.
</event>
<event>
 4    1  0.5841374E+003  0.2187838E+02  0.7546771E-02  0.1507084E+00
          2   -1    0    0  501    0  0.00000000000E+00  0.00000000000E+00  0.71974707193E+01  0.71974707193E+01  0.00000000000E+00 0. -1.
         -2   -1    0    0    0  501 -0.00000000000E+00 -0.00000000000E+00 -0.12128958574E+03  0.12128958574E+03  0.00000000000E+00 0. -1.
          2    1    1    2  502    0  0.62898251376E+01 -0.20954755502E+02 -0.13869393589E+02  0.25904126253E+02  0.00000000000E+00 0. -1.
         -2    1    1    2    0  502 -0.62898251376E+01  0.20954755502E+02 -0.10022272144E+03  0.10258293021E+03  0.00000000000E+00 0. -1.
</event>
<event>
 4    1  0.5841374E+003  0.2339984E+02  0.7546771E-02  0.1487537E+00
          2   -1    0    0  501    0  0.00000000000E+00  0.00000000000E+00  0.22207058040E+03  0.22207058040E+03  0.00000000000E+00 0.  1.
         -2   -1    0    0    0  501 -0.00000000000E+00 -0.00000000000E+00 -0.36496050511E+01  0.36496050511E+01  0.00000000000E+00 0. -1.
          2    1    1    2  502    0 -0.18686534276E+02 -0.14084244384E+02  0.17349133993E+03  0.17506226759E+03  0.00000000000E+00 0.  1.
         -2    1    1    2    0  502  0.18686534276E+02  0.14084244384E+02  0.44929635417E+02  0.50657917859E+02  0.00000000000E+00 0. -1.
</event>
<event>
 4    1  0.5841374E+003  0.2309895E+02  0.7546771E-02  0.1491259E+00
          2   -1    0    0  501    0  0.00000000000E+00  0.00000000000E+00  0.32916008698E+03  0.32916008698E+03  0.00000000000E+00 0. -1.
         -2   -1    0    0    0  501 -0.00000000000E+00 -0.00000000000E+00 -0.42916835100E+02  0.42916835100E+02  0.00000000000E+00 0.  1.
          2    1    1    2  502    0 -0.19036734022E+02  0.13082973501E+02  0.32561291288E+03  0.32643120327E+03  0.00000000000E+00 0. -1.
         -2    1    1    2    0  502  0.19036734022E+02 -0.13082973501E+02 -0.39369661000E+02  0.45645718804E+02  0.00000000000E+00 0.  1.
</event>
<event>
 4    1  0.5841374E+003  0.2209290E+02  0.7546771E-02  0.1504214E+00
          2   -1    0    0  501    0  0.00000000000E+00  0.00000000000E+00  0.40348274529E+02  0.40348274529E+02  0.00000000000E+00 0. -1.
         -2   -1    0    0    0  501 -0.00000000000E+00 -0.00000000000E+00 -0.21565689378E+02  0.21565689378E+02  0.00000000000E+00 0.  1.
          2    1    1    2  502    0 -0.20681211990E+02  0.77706860484E+01  0.29903866676E+02  0.37179797380E+02  0.00000000000E+00 0. -1.
         -2    1    1    2    0  502  0.20681211990E+02 -0.77706860484E+01 -0.11121281525E+02  0.24734166527E+02  0.00000000000E+00 0.  1.
</event>
<event>
 4    1  0.5841374E+003  0.2201396E+02  0.7546771E-02  0.1505266E+00
          2   -1    0    0  501    0  0.00000000000E+00  0.00000000000E+00  0.90984667602E+03  0.90984667602E+03  0.00000000000E+00 0.  1.
         -2   -1    0    0    0  501 -0.00000000000E+00 -0.00000000000E+00 -0.75470674987E+00  0.75470674987E+00  0.00000000000E+00 0.  1.
          2    1    1    2  502    0 -0.16574796317E+02  0.14487593400E+02  0.70152379982E+03  0.70186911597E+03  0.00000000000E+00 0.  1.
         -2    1    1    2    0  502  0.16574796317E+02 -0.14487593400E+02  0.20756816945E+03  0.20873226680E+03  0.00000000000E+00 0.  1.
</event>
<event>
 4    1  0.5841374E+003  0.3358422E+02  0.7546771E-02  0.1390799E+00
          2   -1    0    0  501    0  0.00000000000E+00  0.00000000000E+00  0.14879722667E+02  0.14879722667E+02  0.00000000000E+00 0.  1.
         -2   -1    0    0    0  501 -0.00000000000E+00 -0.00000000000E+00 -0.17918647791E+03  0.17918647791E+03  0.00000000000E+00 0.  1.
          2    1    1    2  502    0 -0.89763121586E+01 -0.32362410708E+02 -0.84484055647E+01  0.34630555344E+02  0.00000000000E+00 0.  1.
         -2    1    1    2    0  502  0.89763121586E+01  0.32362410708E+02 -0.15585834968E+03  0.15943564524E+03  0.00000000000E+00 0.  1.
</event>
<event>
 4    1  0.5841374E+003  0.2329895E+02  0.7546771E-02  0.1488778E+00
          2   -1    0    0  501    0  0.00000000000E+00  0.00000000000E+00  0.54853617230E+02  0.54853617230E+02  0.00000000000E+00 0.  1.
         -2   -1    0    0    0  501 -0.00000000000E+00 -0.00000000000E+00 -0.18973774227E+02  0.18973774227E+02  0.00000000000E+00 0. -1.
          2    1    1    2  502    0 -0.12060652003E+02 -0.19934437520E+02  0.43472584282E+02  0.49322476723E+02  0.00000000000E+00 0.  1.
         -2    1    1    2    0  502  0.12060652003E+02  0.19934437520E+02 -0.75927412783E+01  0.24504914734E+02  0.00000000000E+00 0. -1.
</event>
<event>
 4    1  0.5841374E+003  0.2147631E+02  0.7546771E-02  0.1512572E+00
          2   -1    0    0  501    0  0.00000000000E+00  0.00000000000E+00  0.35253419446E+02  0.35253419446E+02  0.00000000000E+00 0.  1.
         -2   -1    0    0    0  501 -0.00000000000E+00 -0.00000000000E+00 -0.15507110392E+03  0.15507110392E+03  0.00000000000E+00 0.  1.
          2    1    1    2  502    0 -0.21463421259E+02  0.74388399352E+00  0.31150561947E+02  0.37836349258E+02  0.00000000000E+00 0.  1.
         -2    1    1    2    0  502  0.21463421259E+02 -0.74388399352E+00 -0.15096824643E+03  0.15248817411E+03  0.00000000000E+00 0.  1.
</event>
<event>
 4    1  0.5841374E+003  0.4286928E+02  0.7546771E-02  0.1332445E+00
          2   -1    0    0  501    0  0.00000000000E+00  0.00000000000E+00  0.69002998544E+03  0.69002998544E+03  0.00000000000E+00 0.  1.
         -2   -1    0    0    0  501 -0.00000000000E+00 -0.00000000000E+00 -0.95750172035E+01  0.95750172035E+01  0.00000000000E+00 0. -1.
          2    1    1    2  502    0 -0.28258446654E+02  0.32237173852E+02  0.63742506842E+03  0.63886500377E+03  0.00000000000E+00 0.  1.
         -2    1    1    2    0  502  0.28258446654E+02 -0.32237173852E+02  0.43029899809E+02  0.60739998871E+02  0.00000000000E+00 0. -1.
</event>
<event>
 4    1  0.5841374E+003  0.2043569E+02  0.7546771E-02  0.1527476E+00
          2   -1    0    0  501    0  0.00000000000E+00  0.00000000000E+00  0.10657233180E+03  0.10657233180E+03  0.00000000000E+00 0. -1.
         -2   -1    0    0    0  501 -0.00000000000E+00 -0.00000000000E+00 -0.10907042112E+02  0.10907042112E+02  0.00000000000E+00 0. -1.
          2    1    1    2  502    0  0.20379997613E+02 -0.15077003600E+01  0.94850997392E+02  0.97027466056E+02  0.00000000000E+00 0. -1.
         -2    1    1    2    0  502 -0.20379997613E+02  0.15077003600E+01  0.81429229927E+00  0.20451907858E+02  0.00000000000E+00 0. -1.
</event>
<event>
 4    1  0.5841374E+003  0.2678306E+02  0.7546771E-02  0.1449800E+00
          2   -1    0    0  501    0  0.00000000000E+00  0.00000000000E+00  0.28189029378E+03  0.28189029378E+03  0.00000000000E+00 0.  1.
         -2   -1    0    0    0  501 -0.00000000000E+00 -0.00000000000E+00 -0.49128636563E+01  0.49128636563E+01  0.00000000000E+00 0. -1.
          2    1    1    2  502    0 -0.25114700533E+02  0.93050618637E+01  0.23804998765E+03  0.23955193378E+03  0.00000000000E+00 0.  1.
         -2    1    1    2    0  502  0.25114700533E+02 -0.93050618637E+01  0.38927442475E+02  0.47251223654E+02  0.00000000000E+00 0. -1.
</event>
<event>
 4    1  0.5841374E+003  0.2300448E+02  0.7546771E-02  0.1492442E+00
          2   -1    0    0  501    0  0.00000000000E+00  0.00000000000E+00  0.21542133563E+04  0.21542133563E+04  0.00000000000E+00 0.  1.
         -2   -1    0    0    0  501 -0.00000000000E+00 -0.00000000000E+00 -0.32482228040E+00  0.32482228040E+00  0.00000000000E+00 0.  1.
          2    1    1    2  502    0 -0.19275673448E+01  0.22923579783E+02  0.16087560177E+04  0.16089204861E+04  0.00000000000E+00 0.  1.
         -2    1    1    2    0  502  0.19275673448E+01 -0.22923579783E+02  0.54513251632E+03  0.54561769251E+03  0.00000000000E+00 0.  1.
</event>
<event>
 4    1  0.5841374E+003  0.3057402E+02  0.7546771E-02  0.1414673E+00
          2   -1    0    0  501    0  0.00000000000E+00  0.00000000000E+00  0.41276803496E+02  0.41276803496E+02  0.00000000000E+00 0. -1.
         -2   -1    0    0    0  501 -0.00000000000E+00 -0.00000000000E+00 -0.72109011735E+02  0.72109011735E+02  0.00000000000E+00 0.  1.
          2    1    1    2  502    0  0.23298217387E+02 -0.19798070190E+02  0.31537889150E+02  0.43925038061E+02  0.00000000000E+00 0. -1.
         -2    1    1    2    0  502 -0.23298217387E+02  0.19798070190E+02 -0.62370097389E+02  0.69460777169E+02  0.00000000000E+00 0.  1.
</event>
<event>
 4    1  0.5841374E+003  0.2617314E+02  0.7546771E-02  0.1456096E+00
          2   -1    0    0  501    0  0.00000000000E+00  0.00000000000E+00  0.12089222166E+04  0.12089222166E+04  0.00000000000E+00 0.  1.
         -2   -1    0    0    0  501 -0.00000000000E+00 -0.00000000000E+00 -0.69354361090E+00  0.69354361090E+00  0.00000000000E+00 0. -1.
          2    1    1    2  502    0 -0.10935212656E+02  0.23779273708E+02  0.34540938878E+03  0.34639959381E+03  0.00000000000E+00 0. -1.
         -2    1    1    2    0  502  0.10935212656E+02 -0.23779273708E+02  0.86281928420E+03  0.86321616639E+03  0.00000000000E+00 0.  1.
</event>
<event>
 4    1  0.5841374E+003  0.5289082E+02  0.7546771E-02  0.1286103E+00
          2   -1    0    0  501    0  0.00000000000E+00  0.00000000000E+00  0.14253054541E+03  0.14253054541E+03  0.00000000000E+00 0. -1.
         -2   -1    0    0    0  501 -0.00000000000E+00 -0.00000000000E+00 -0.36137322888E+02  0.36137322888E+02  0.00000000000E+00 0.  1.
          2    1    1    2  502    0 -0.48960791811E+02 -0.20007001500E+02  0.11357992914E+03  0.12529101942E+03  0.00000000000E+00 0. -1.
         -2    1    1    2    0  502  0.48960791811E+02  0.20007001500E+02 -0.71867066218E+01  0.53376848875E+02  0.00000000000E+00 0.  1.
</event>
<event>
 4    1  0.5841374E+003  0.3402429E+02  0.7546771E-02  0.1387556E+00
          2   -1    0    0  501    0  0.00000000000E+00  0.00000000000E+00  0.17206447948E+04  0.17206447948E+04  0.00000000000E+00 0.  1.
         -2   -1    0    0    0  501 -0.00000000000E+00 -0.00000000000E+00 -0.35536567003E+01  0.35536567003E+01  0.00000000000E+00 0.  1.
          2    1    1    2  502    0  0.30608531351E+02  0.14858332540E+02  0.16347573712E+04  0.16351114075E+04  0.00000000000E+00 0.  1.
         -2    1    1    2    0  502 -0.30608531351E+02 -0.14858332540E+02  0.82333766911E+02  0.89087044014E+02  0.00000000000E+00 0.  1.
</event>
<event>
 4    1  0.5841374E+003  0.2223427E+02  0.7546771E-02  0.1502344E+00
          2   -1    0    0  501    0  0.00000000000E+00  0.00000000000E+00  0.69723833716E+02  0.69723833716E+02  0.00000000000E+00 0.  1.
         -2   -1    0    0    0  501 -0.00000000000E+00 -0.00000000000E+00 -0.23641201177E+02  0.23641201177E+02  0.00000000000E+00 0. -1.
          2    1    1    2  502    0  0.58254920505E+01  0.21457546845E+02  0.62101147618E+02  0.65961467614E+02  0.00000000000E+00 0.  1.
         -2    1    1    2    0  502 -0.58254920505E+01 -0.21457546845E+02 -0.16018515079E+02  0.27403567279E+02  0.00000000000E+00 0. -1.
</event>
<event>
 4    1  0.5841374E+003  0.2402859E+02  0.7546771E-02  0.1479971E+00
          2   -1    0    0  501    0  0.00000000000E+00  0.00000000000E+00  0.19710622096E+02  0.19710622096E+02  0.00000000000E+00 0.  1.
         -2   -1    0    0    0  501 -0.00000000000E+00 -0.00000000000E+00 -0.25409548678E+03  0.25409548678E+03  0.00000000000E+00 0. -1.
          2    1    1    2  502    0 -0.23922561143E+02 -0.22547692075E+01  0.11577872645E+02  0.26672458657E+02  0.00000000000E+00 0.  1.
         -2    1    1    2    0  502  0.23922561143E+02  0.22547692075E+01 -0.24596273733E+03  0.24713365022E+03  0.00000000000E+00 0. -1.
</event>
<event>
 4    1  0.5841374E+003  0.2807104E+02  0.7546771E-02  0.1437136E+00
          2   -1    0    0  501    0  0.00000000000E+00  0.00000000000E+00  0.44592124237E+01  0.44592124237E+01  0.00000000000E+00 0.  1.
         -2   -1    0    0    0  501 -0.00000000000E+00 -0.00000000000E+00 -0.18674454277E+03  0.18674454277E+03  0.00000000000E+00 0. -1.
          2    1    1    2  502    0 -0.25325942012E+02  0.12106980136E+02 -0.11330503024E+03  0.11673051094E+03  0.00000000000E+00 0.  1.
         -2    1    1    2    0  502  0.25325942012E+02 -0.12106980136E+02 -0.68980300114E+02  0.74473244260E+02  0.00000000000E+00 0. -1.
</event>
<event>
 4    1  0.5841374E+003  0.2344819E+02  0.7546771E-02  0.1486946E+00
          2   -1    0    0  501    0  0.00000000000E+00  0.00000000000E+00  0.30159469264E+03  0.30159469264E+03  0.00000000000E+00 0. -1.
         -2   -1    0    0    0  501 -0.00000000000E+00 -0.00000000000E+00 -0.49174326206E+01  0.49174326206E+01  0.00000000000E+00 0. -1.
          2    1    1    2  502    0 -0.23042636965E+02  0.43422011717E+01  0.26991144684E+03  0.27092804758E+03  0.00000000000E+00 0. -1.
         -2    1    1    2    0  502  0.23042636965E+02 -0.43422011717E+01  0.26765813178E+02  0.35584077681E+02  0.00000000000E+00 0. -1.
</event>
<event>
 4    1  0.5841374E+003  0.2290444E+02  0.7546771E-02  0.1493702E+00
          2   -1    0    0  501    0  0.00000000000E+00  0.00000000000E+00  0.35325284695E+03  0.35325284695E+03  0.00000000000E+00 0.  1.
         -2   -1    0    0    0  501 -0.00000000000E+00 -0.00000000000E+00 -0.33216718964E+02  0.33216718964E+02  0.00000000000E+00 0.  1.
          2    1    1    2  502    0 -0.22600891696E+02 -0.37166066433E+01  0.34888376638E+03  0.34963480364E+03  0.00000000000E+00 0.  1.
         -2    1    1    2    0  502  0.22600891696E+02  0.37166066433E+01 -0.28847638400E+02  0.36834762272E+02  0.00000000000E+00 0.  1.
</event>
<event>
 4    1  0.5841374E+003  0.2890540E+02  0.7546771E-02  0.1429353E+00
          2   -1    0    0  501    0  0.00000000000E+00  0.00000000000E+00  0.13618394248E+04  0.13618394248E+04  0.00000000000E+00 0. -1.
         -2   -1    0    0    0  501 -0.00000000000E+00 -0.00000000000E+00 -0.21760242674E+02  0.21760242674E+02  0.00000000000E+00 0. -1.
          2    1    1    2  502    0 -0.23522145481E+02  0.16799719863E+02  0.13520171347E+04  0.13523260903E+04  0.00000000000E+00 0. -1.
         -2    1    1    2    0  502  0.23522145481E+02 -0.16799719863E+02 -0.11937952617E+02  0.31273577157E+02  0.00000000000E+00 0. -1.
</event>
<event>
 4    1  0.5841374E+003  0.4160300E+02  0.7546771E-02  0.1339340E+00
          2   -1    0    0  501    0  0.00000000000E+00  0.00000000000E+00  0.22830683387E+04  0.22830683387E+04  0.00000000000E+00 0.  1.
         -2   -1    0    0    0  501 -0.00000000000E+00 -0.00000000000E+00 -0.31498114223E+01  0.31498114223E+01  0.00000000000E+00 0.  1.
          2    1    1    2  502    0  0.40767855824E+02 -0.82940476351E+01  0.21360506411E+04  0.21364557450E+04  0.00000000000E+00 0.  1.
         -2    1    1    2    0  502 -0.40767855824E+02  0.82940476351E+01  0.14386788622E+03  0.14976240510E+03  0.00000000000E+00 0.  1.
</event>
<event>
 4    1  0.5841374E+003  0.2195463E+02  0.7546771E-02  0.1506059E+00
          2   -1    0    0  501    0  0.00000000000E+00  0.00000000000E+00  0.52278180277E+02  0.52278180277E+02  0.00000000000E+00 0. -1.
         -2   -1    0    0    0  501 -0.00000000000E+00 -0.00000000000E+00 -0.37417166541E+02  0.37417166541E+02  0.00000000000E+00 0.  1.
          2    1    1    2  502    0 -0.12219213329E+02 -0.18239969131E+02  0.46362539823E+02  0.51298057928E+02  0.00000000000E+00 0. -1.
         -2    1    1    2    0  502  0.12219213329E+02  0.18239969131E+02 -0.31501526088E+02  0.38397288890E+02  0.00000000000E+00 0.  1.
</event>
<event>
 4    1  0.5841374E+003  0.3416091E+02  0.7546771E-02  0.1386560E+00
          2   -1    0    0  501    0  0.00000000000E+00  0.00000000000E+00  0.23358625588E+03  0.23358625588E+03  0.00000000000E+00 0. -1.
         -2   -1    0    0    0  501 -0.00000000000E+00 -0.00000000000E+00 -0.82224828148E+01  0.82224828148E+01  0.00000000000E+00 0. -1.
          2    1    1    2  502    0 -0.76613440303E+01 -0.33290714107E+02  0.18841984076E+03  0.19149152522E+03  0.00000000000E+00 0. -1.
         -2    1    1    2    0  502  0.76613440303E+01  0.33290714107E+02  0.36943932310E+02  0.50317213482E+02  0.00000000000E+00 0. -1.
</event>
<event>
 4    1  0.5841374E+003  0.2297663E+02  0.7546771E-02  0.1492792E+00
          2   -1    0    0  501    0  0.00000000000E+00  0.00000000000E+00  0.14751797289E+03  0.14751797289E+03  0.00000000000E+00 0.  1.
         -2   -1    0    0    0  501 -0.00000000000E+00 -0.00000000000E+00 -0.48052260585E+01  0.48052260585E+01  0.00000000000E+00 0.  1.
          2    1    1    2  502    0  0.16420835372E+02 -0.16071143139E+02  0.10983451123E+03  0.11221205521E+03  0.00000000000E+00 0.  1.
         -2    1    1    2    0  502 -0.16420835372E+02  0.16071143139E+02  0.32878235596E+02  0.40111143738E+02  0.00000000000E+00 0.  1.
</event>
<event>
 4    1  0.5841374E+003  0.2998070E+02  0.7546771E-02  0.1419764E+00
          2   -1    0    0  501    0  0.00000000000E+00  0.00000000000E+00  0.20273361302E+04  0.20273361302E+04  0.00000000000E+00 0. -1.
         -2   -1    0    0    0  501 -0.00000000000E+00 -0.00000000000E+00 -0.11864766405E+02  0.11864766405E+02  0.00000000000E+00 0.  1.
          2    1    1    2  502    0 -0.53658257394E+01  0.29496619606E+02  0.20081045941E+04  0.20083283854E+04  0.00000000000E+00 0. -1.
         -2    1    1    2    0  502  0.53658257394E+01 -0.29496619606E+02  0.73667696984E+01  0.30872511233E+02  0.00000000000E+00 0.  1.
</event>
<event>
 4    1  0.5841374E+003  0.2578269E+02  0.7546771E-02  0.1460235E+00
          2   -1    0    0  501    0  0.00000000000E+00  0.00000000000E+00  0.32612657293E+01  0.32612657293E+01  0.00000000000E+00 0. -1.
         -2   -1    0    0    0  501 -0.00000000000E+00 -0.00000000000E+00 -0.20974968446E+03  0.20974968446E+03  0.00000000000E+00 0. -1.
          2    1    1    2  502    0 -0.52734719761E+01  0.25237618150E+02 -0.85353157467E+02  0.89162258642E+02  0.00000000000E+00 0. -1.
         -2    1    1    2    0  502  0.52734719761E+01 -0.25237618150E+02 -0.12113526127E+03  0.12384869155E+03  0.00000000000E+00 0. -1.
</event>
<event>
 4    1  0.5841374E+003  0.2003719E+02  0.7546771E-02  0.1533468E+00
          2   -1    0    0  501    0  0.00000000000E+00  0.00000000000E+00  0.28270153735E+03  0.28270153735E+03  0.00000000000E+00 0.  1.
         -2   -1    0    0    0  501 -0.00000000000E+00 -0.00000000000E+00 -0.23356029362E+01  0.23356029362E+01  0.00000000000E+00 0. -1.
          2    1    1    2  502    0 -0.38530137362E+01  0.19663250675E+02  0.22940684737E+03  0.23028024397E+03  0.00000000000E+00 0.  1.
         -2    1    1    2    0  502  0.38530137362E+01 -0.19663250675E+02  0.50959087037E+02  0.54756896311E+02  0.00000000000E+00 0. -1.
</event>
<event>
 4    1  0.5841374E+003  0.2634010E+02  0.7546771E-02  0.1454352E+00
          2   -1    0    0  501    0  0.00000000000E+00  0.00000000000E+00  0.56124394447E+03  0.56124394447E+03  0.00000000000E+00 0.  1.
         -2   -1    0    0    0  501 -0.00000000000E+00 -0.00000000000E+00 -0.19315391633E+02  0.19315391633E+02  0.00000000000E+00 0.  1.
          2    1    1    2  502    0  0.19965022677E+02 -0.17181346015E+02  0.55180142508E+03  0.55242973626E+03  0.00000000000E+00 0.  1.
         -2    1    1    2    0  502 -0.19965022677E+02  0.17181346015E+02 -0.98728722396E+01  0.28129599849E+02  0.00000000000E+00 0.  1.
</event>
<event>
 4    1  0.5841374E+003  0.2124676E+02  0.7546771E-02  0.1515771E+00
          2   -1    0    0  501    0  0.00000000000E+00  0.00000000000E+00  0.11817479005E+04  0.11817479005E+04  0.00000000000E+00 0.  1.
         -2   -1    0    0    0  501 -0.00000000000E+00 -0.00000000000E+00 -0.44720571488E+00  0.44720571488E+00  0.00000000000E+00 0.  1.
          2    1    1    2  502    0 -0.20422741767E+02  0.58597309274E+01  0.81636326134E+03  0.81663969980E+03  0.00000000000E+00 0.  1.
         -2    1    1    2    0  502  0.20422741767E+02 -0.58597309274E+01  0.36493743345E+03  0.36555540641E+03  0.00000000000E+00 0.  1.
</event>
<event>
 4    1  0.5841374E+003  0.2024149E+02  0.7546771E-02  0.1530376E+00
          2   -1    0    0  501    0  0.00000000000E+00  0.00000000000E+00  0.92787379982E+03  0.92787379982E+03  0.00000000000E+00 0. -1.
         -2   -1    0    0    0  501 -0.00000000000E+00 -0.00000000000E+00 -0.34857299066E+01  0.34857299066E+01  0.00000000000E+00 0. -1.
          2    1    1    2  502    0 -0.13063556885E+02  0.15461612898E+02  0.89737959927E+03  0.89760785601E+03  0.00000000000E+00 0. -1.
         -2    1    1    2    0  502  0.13063556885E+02 -0.15461612898E+02  0.27008470643E+02  0.33751673712E+02  0.00000000000E+00 0. -1.
</event>
<event>
 4    1  0.5841374E+003  0.2166268E+02  0.7546771E-02  0.1510010E+00
          2   -1    0    0  501    0  0.00000000000E+00  0.00000000000E+00  0.61703091545E+03  0.61703091545E+03  0.00000000000E+00 0.  1.
         -2   -1    0    0    0  501 -0.00000000000E+00 -0.00000000000E+00 -0.19358820227E+02  0.19358820227E+02  0.00000000000E+00 0.  1.
          2    1    1    2  502    0  0.11267280657E+02 -0.18501888464E+02  0.61071798202E+03  0.61110205780E+03  0.00000000000E+00 0.  1.
         -2    1    1    2    0  502 -0.11267280657E+02  0.18501888464E+02 -0.13045886794E+02  0.25287677876E+02  0.00000000000E+00 0.  1.
</event>
<event>
 4    1  0.5841374E+003  0.2009818E+02  0.7546771E-02  0.1532540E+00
          2   -1    0    0  501    0  0.00000000000E+00  0.00000000000E+00  0.18989516070E+03  0.18989516070E+03  0.00000000000E+00 0.  1.
         -2   -1    0    0    0  501 -0.00000000000E+00 -0.00000000000E+00 -0.24046940759E+01  0.24046940759E+01  0.00000000000E+00 0. -1.
          2    1    1    2  502    0 -0.19513135943E+02  0.48139600956E+01  0.12641004064E+03  0.12799779319E+03  0.00000000000E+00 0.  1.
         -2    1    1    2    0  502  0.19513135943E+02 -0.48139600956E+01  0.61080425979E+02  0.64302061584E+02  0.00000000000E+00 0. -1.
</event>
<event>
 4    1  0.5841374E+003  0.2835594E+02  0.7546771E-02  0.1434443E+00
          2   -1    0    0  501    0  0.00000000000E+00  0.00000000000E+00  0.59342185254E+02  0.59342185254E+02  0.00000000000E+00 0.  1.
         -2   -1    0    0    0  501 -0.00000000000E+00 -0.00000000000E+00 -0.37796752885E+02  0.37796752885E+02  0.00000000000E+00 0. -1.
          2    1    1    2  502    0 -0.12927578722E+02 -0.25237614313E+02  0.49674274605E+02  0.57197841090E+02  0.00000000000E+00 0.  1.
         -2    1    1    2    0  502  0.12927578722E+02  0.25237614313E+02 -0.28128842236E+02  0.39941097048E+02  0.00000000000E+00 0. -1.
</event>
<event>
 4    1  0.6333627E+003  0.2539386E+02  0.7546771E-02  0.1464445E+00
          2   -1    0    0  501    0  0.00000000000E+00  0.00000000000E+00  0.40694875215E+03  0.40694875215E+03  0.00000000000E+00 0. -1.
         -2   -1    0    0    0  501 -0.00000000000E+00 -0.00000000000E+00 -0.27093879858E+03  0.27093879858E+03  0.00000000000E+00 0.  1.
          2    1    1    2  502    0 -0.25223194134E+02  0.29391815134E+01  0.40595613745E+03  0.40674959599E+03  0.00000000000E+00 0. -1.
         -2    1    1    2    0  502  0.25223194134E+02 -0.29391815134E+01 -0.26994618388E+03  0.27113795474E+03  0.00000000000E+00 0.  1.
</event>
<event>
 4    1  0.5841374E+003  0.4030368E+02  0.7546771E-02  0.1346715E+00
          2   -1    0    0  501    0  0.00000000000E+00  0.00000000000E+00  0.35453160531E+03  0.35453160531E+03  0.00000000000E+00 0.  1.
         -2   -1    0    0    0  501 -0.00000000000E+00 -0.00000000000E+00 -0.20940507375E+02  0.20940507375E+02  0.00000000000E+00 0. -1.
          2    1    1    2  502    0 -0.38768660376E+02 -0.11017147848E+02  0.33272704153E+03  0.33515917224E+03  0.00000000000E+00 0.  1.
         -2    1    1    2    0  502  0.38768660376E+02  0.11017147848E+02  0.86405641293E+00  0.40312940448E+02  0.00000000000E+00 0. -1.
</event>
<event>
 4    1  0.5841374E+003  0.4778409E+02  0.7546771E-02  0.1308077E+00
          2   -1    0    0  501    0  0.00000000000E+00  0.00000000000E+00  0.12211412503E+03  0.12211412503E+03  0.00000000000E+00 0. -1.
         -2   -1    0    0    0  501 -0.00000000000E+00 -0.00000000000E+00 -0.45145245080E+02  0.45145245080E+02  0.00000000000E+00 0.  1.
          2    1    1    2  502    0  0.39542404498E+02 -0.26827551474E+02  0.10249368420E+03  0.11308525356E+03  0.00000000000E+00 0. -1.
         -2    1    1    2    0  502 -0.39542404498E+02  0.26827551474E+02 -0.25524804254E+02  0.54174116548E+02  0.00000000000E+00 0.  1.
</event>
<event>
 4    1  0.5841374E+003  0.3364104E+02  0.7546771E-02  0.1390377E+00
          2   -1    0    0  501    0  0.00000000000E+00  0.00000000000E+00  0.91215086658E+03  0.91215086658E+03  0.00000000000E+00 0. -1.
         -2   -1    0    0    0  501 -0.00000000000E+00 -0.00000000000E+00 -0.16746513585E+02  0.16746513585E+02  0.00000000000E+00 0. -1.
          2    1    1    2  502    0  0.19613425463E+02  0.27331905801E+02  0.89461478188E+03  0.89524707622E+03  0.00000000000E+00 0. -1.
         -2    1    1    2    0  502 -0.19613425463E+02 -0.27331905801E+02  0.78957112182E+00  0.33650303946E+02  0.00000000000E+00 0. -1.
</event>
<event>
 4    1  0.5841374E+003  0.2186084E+02  0.7546771E-02  0.1507320E+00
          2   -1    0    0  501    0  0.00000000000E+00  0.00000000000E+00  0.43664581646E+03  0.43664581646E+03  0.00000000000E+00 0.  1.
         -2   -1    0    0    0  501 -0.00000000000E+00 -0.00000000000E+00 -0.32327458272E+01  0.32327458272E+01  0.00000000000E+00 0.  1.
          2    1    1    2  502    0 -0.15956506230E+02  0.14942762949E+02  0.39558117263E+03  0.39618475538E+03  0.00000000000E+00 0.  1.
         -2    1    1    2    0  502  0.15956506230E+02 -0.14942762949E+02  0.37831898004E+02  0.43693806909E+02  0.00000000000E+00 0.  1.
</event>
<event>
 4    1  0.5841374E+003  0.2011771E+02  0.7546771E-02  0.1532244E+00
          2   -1    0    0  501    0  0.00000000000E+00  0.00000000000E+00  0.12159112670E+03  0.12159112670E+03  0.00000000000E+00 0. -1.
         -2   -1    0    0    0  501 -0.00000000000E+00 -0.00000000000E+00 -0.33404526828E+01  0.33404526828E+01  0.00000000000E+00 0.  1.
          2    1    1    2  502    0 -0.40703438341E+01  0.19701636692E+02  0.62854021395E+02  0.65995077035E+02  0.00000000000E+00 0. -1.
         -2    1    1    2    0  502  0.40703438341E+01 -0.19701636692E+02  0.55396652620E+02  0.58936502346E+02  0.00000000000E+00 0.  1.
</event>
<event>
 4    1  0.5841374E+003  0.2255468E+02  0.7546771E-02  0.1498167E+00
          2   -1    0    0  501    0  0.00000000000E+00  0.00000000000E+00  0.71448514768E+03  0.71448514768E+03  0.00000000000E+00 0. -1.
         -2   -1    0    0    0  501 -0.00000000000E+00 -0.00000000000E+00 -0.82745290179E+00  0.82745290179E+00  0.00000000000E+00 0. -1.
          2    1    1    2  502    0  0.17637938922E+02 -0.14057620590E+02  0.49042570438E+03  0.49094407533E+03  0.00000000000E+00 0. -1.
         -2    1    1    2    0  502 -0.17637938922E+02  0.14057620590E+02  0.22323199039E+03  0.22436852525E+03  0.00000000000E+00 0. -1.
</event>
<event>
 4    1  0.5841374E+003  0.3331981E+02  0.7546771E-02  0.1392776E+00
          2   -1    0    0  501    0  0.00000000000E+00  0.00000000000E+00  0.38493409448E+03  0.38493409448E+03  0.00000000000E+00 0.  1.
         -2   -1    0    0    0  501 -0.00000000000E+00 -0.00000000000E+00 -0.46247407379E+01  0.46247407379E+01  0.00000000000E+00 0.  1.
          2    1    1    2  502    0 -0.32164323932E+02 -0.86986024242E+01  0.30964896171E+03  0.31143649258E+03  0.00000000000E+00 0.  1.
         -2    1    1    2    0  502  0.32164323932E+02  0.86986024242E+01  0.70660392030E+02  0.78122342643E+02  0.00000000000E+00 0.  1.
</event>
<event>
 4    1  0.5841374E+003  0.4296133E+02  0.7546771E-02  0.1331955E+00
          2   -1    0    0  501    0  0.00000000000E+00  0.00000000000E+00  0.14858152398E+03  0.14858152398E+03  0.00000000000E+00 0.  1.
         -2   -1    0    0    0  501 -0.00000000000E+00 -0.00000000000E+00 -0.12462061757E+02  0.12462061757E+02  0.00000000000E+00 0.  1.
          2    1    1    2  502    0 -0.78864756606E+01  0.42231260314E+02  0.72626654206E+02  0.84381910071E+02  0.00000000000E+00 0.  1.
         -2    1    1    2    0  502  0.78864756606E+01 -0.42231260314E+02  0.63492808018E+02  0.76661675667E+02  0.00000000000E+00 0.  1.
</event>
<event>
 4    1  0.5841374E+003  0.2033859E+02  0.7546771E-02  0.1528921E+00
          2   -1    0    0  501    0  0.00000000000E+00  0.00000000000E+00  0.14086177119E+04  0.14086177119E+04  0.00000000000E+00 0.  1.
         -2   -1    0    0    0  501 -0.00000000000E+00 -0.00000000000E+00 -0.29726167449E+00  0.29726167449E+00  0.00000000000E+00 0.  1.
          2    1    1    2  502    0  0.16197854910E+02  0.12299911720E+02  0.78167439060E+03  0.78193894343E+03  0.00000000000E+00 0.  1.
         -2    1    1    2    0  502 -0.16197854910E+02 -0.12299911720E+02  0.62664605960E+03  0.62697603012E+03  0.00000000000E+00 0.  1.
</event>
<event>
 4    1  0.5841374E+003  0.2152217E+02  0.7546771E-02  0.1511939E+00
          2   -1    0    0  501    0  0.00000000000E+00  0.00000000000E+00  0.84237581314E+03  0.84237581314E+03  0.00000000000E+00 0. -1.
         -2   -1    0    0    0  501 -0.00000000000E+00 -0.00000000000E+00 -0.62253208850E+00  0.62253208850E+00  0.00000000000E+00 0.  1.
          2    1    1    2  502    0 -0.12516686445E+02  0.17508176542E+02  0.56487141876E+03  0.56528127815E+03  0.00000000000E+00 0. -1.
         -2    1    1    2    0  502  0.12516686445E+02 -0.17508176542E+02  0.27688186229E+03  0.27771706708E+03  0.00000000000E+00 0.  1.
</event>
<event>
 4    1  0.5841374E+003  0.2829245E+02  0.7546771E-02  0.1435040E+00
          2   -1    0    0  501    0  0.00000000000E+00  0.00000000000E+00  0.83856966466E+03  0.83856966466E+03  0.00000000000E+00 0. -1.
         -2   -1    0    0    0  501 -0.00000000000E+00 -0.00000000000E+00 -0.20039920129E+01  0.20039920129E+01  0.00000000000E+00 0. -1.
          2    1    1    2  502    0 -0.19722438401E+02  0.20285177383E+02  0.72242417218E+03  0.72297797168E+03  0.00000000000E+00 0. -1.
         -2    1    1    2    0  502  0.19722438401E+02 -0.20285177383E+02  0.11414150047E+03  0.11759568499E+03  0.00000000000E+00 0. -1.
</event>
<event>
 4    1  0.5841374E+003  0.2037646E+02  0.7546771E-02  0.1528357E+00
          2   -1    0    0  501    0  0.00000000000E+00  0.00000000000E+00  0.88765710468E+03  0.88765710468E+03  0.00000000000E+00 0.  1.
         -2   -1    0    0    0  501 -0.00000000000E+00 -0.00000000000E+00 -0.66567899463E+00  0.66567899463E+00  0.00000000000E+00 0. -1.
          2    1    1    2  502    0 -0.49284774424E+01  0.19771446852E+02  0.68569065995E+03  0.68599335357E+03  0.00000000000E+00 0.  1.
         -2    1    1    2    0  502  0.49284774424E+01 -0.19771446852E+02  0.20130076574E+03  0.20232943011E+03  0.00000000000E+00 0. -1.
</event>
<event>
 4    1  0.5841374E+003  0.2622576E+02  0.7546771E-02  0.1455544E+00
          2   -1    0    0  501    0  0.00000000000E+00  0.00000000000E+00  0.16267883567E+03  0.16267883567E+03  0.00000000000E+00 0.  1.
         -2   -1    0    0    0  501 -0.00000000000E+00 -0.00000000000E+00 -0.50166157359E+01  0.50166157359E+01  0.00000000000E+00 0.  1.
          2    1    1    2  502    0  0.26181444377E+02 -0.15239440912E+01  0.11207754861E+03  0.11510502742E+03  0.00000000000E+00 0.  1.
         -2    1    1    2    0  502 -0.26181444377E+02  0.15239440912E+01  0.45584671333E+02  0.52590423993E+02  0.00000000000E+00 0.  1.
</event>
<event>
 4    1  0.5841374E+003  0.2466336E+02  0.7546771E-02  0.1472605E+00
          2   -1    0    0  501    0  0.00000000000E+00  0.00000000000E+00  0.12344709572E+04  0.12344709572E+04  0.00000000000E+00 0.  1.
         -2   -1    0    0    0  501 -0.00000000000E+00 -0.00000000000E+00 -0.89159898984E+00  0.89159898984E+00  0.00000000000E+00 0. -1.
          2    1    1    2  502    0  0.24512874428E+02  0.27203272915E+01  0.10299188202E+04  0.10302140833E+04  0.00000000000E+00 0.  1.
         -2    1    1    2    0  502 -0.24512874428E+02 -0.27203272915E+01  0.20366053801E+03  0.20514847291E+03  0.00000000000E+00 0. -1.
</event>
<event>
 4    1  0.5841374E+003  0.2207421E+02  0.7546771E-02  0.1504462E+00
          2   -1    0    0  501    0  0.00000000000E+00  0.00000000000E+00  0.66276296423E+02  0.66276296423E+02  0.00000000000E+00 0. -1.
         -2   -1    0    0    0  501 -0.00000000000E+00 -0.00000000000E+00 -0.18388529635E+03  0.18388529635E+03  0.00000000000E+00 0. -1.
          2    1    1    2  502    0 -0.21435456143E+02  0.52717986041E+01  0.63750297174E+02  0.67463849804E+02  0.00000000000E+00 0. -1.
         -2    1    1    2    0  502  0.21435456143E+02 -0.52717986041E+01 -0.18135929711E+03  0.18269774297E+03  0.00000000000E+00 0. -1.
</event>
<event>
 4    1  0.5841374E+003  0.2447990E+02  0.7546771E-02  0.1474707E+00
          2   -1    0    0  501    0  0.00000000000E+00  0.00000000000E+00  0.66996470445E+02  0.66996470445E+02  0.00000000000E+00 0. -1.
         -2   -1    0    0    0  501 -0.00000000000E+00 -0.00000000000E+00 -0.60738083692E+02  0.60738083692E+02  0.00000000000E+00 0.  1.
          2    1    1    2  502    0 -0.93197564262E+01 -0.22636421446E+02  0.62106490918E+02  0.66756884663E+02  0.00000000000E+00 0. -1.
         -2    1    1    2    0  502  0.93197564262E+01  0.22636421446E+02 -0.55848104165E+02  0.60977669475E+02  0.00000000000E+00 0.  1.
</event>
<event>
 4    1  0.5841374E+003  0.3489969E+02  0.7546771E-02  0.1381270E+00
          2   -1    0    0  501    0  0.00000000000E+00  0.00000000000E+00  0.12195971965E+03  0.12195971965E+03  0.00000000000E+00 0.  1.
         -2   -1    0    0    0  501 -0.00000000000E+00 -0.00000000000E+00 -0.10253654521E+02  0.10253654521E+02  0.00000000000E+00 0.  1.
          2    1    1    2  502    0  0.12519607945E+02  0.32576779727E+02  0.45188435445E+02  0.57096250826E+02  0.00000000000E+00 0.  1.
         -2    1    1    2    0  502 -0.12519607945E+02 -0.32576779727E+02  0.66517629681E+02  0.75117123340E+02  0.00000000000E+00 0.  1.
</event>
<event>
 4    1  0.5841374E+003  0.4769313E+02  0.7546771E-02  0.1308496E+00
          2   -1    0    0  501    0  0.00000000000E+00  0.00000000000E+00  0.10595258535E+03  0.10595258535E+03  0.00000000000E+00 0.  1.
         -2   -1    0    0    0  501 -0.00000000000E+00 -0.00000000000E+00 -0.22483278627E+02  0.22483278627E+02  0.00000000000E+00 0.  1.
          2    1    1    2  502    0  0.36220413130E+02  0.31027662736E+02  0.55378289134E+02  0.73084807515E+02  0.00000000000E+00 0.  1.
         -2    1    1    2    0  502 -0.36220413130E+02 -0.31027662736E+02  0.28091017590E+02  0.55351056461E+02  0.00000000000E+00 0.  1.
</event>
<event>
 4    1  0.5841374E+003  0.2563879E+02  0.7546771E-02  0.1461783E+00
          2   -1    0    0  501    0  0.00000000000E+00  0.00000000000E+00  0.13603458459E+03  0.13603458459E+03  0.00000000000E+00 0. -1.
         -2   -1    0    0    0  501 -0.00000000000E+00 -0.00000000000E+00 -0.63416516776E+01  0.63416516776E+01  0.00000000000E+00 0. -1.
          2    1    1    2  502    0 -0.12121014964E+02  0.22592669041E+02  0.99577241085E+02  0.10282497090E+03  0.00000000000E+00 0. -1.
         -2    1    1    2    0  502  0.12121014964E+02 -0.22592669041E+02  0.30115691832E+02  0.39551265373E+02  0.00000000000E+00 0. -1.
</event>
<event>
 4    1  0.6082068E+003  0.3878680E+02  0.7546771E-02  0.1355746E+00
          2   -1    0    0  501    0  0.00000000000E+00  0.00000000000E+00  0.16017774924E+04  0.16017774924E+04  0.00000000000E+00 0. -1.
         -2   -1    0    0    0  501 -0.00000000000E+00 -0.00000000000E+00 -0.12368482984E+03  0.12368482984E+03  0.00000000000E+00 0. -1.
          2    1    1    2  502    0 -0.21513377879E+02  0.32273683477E+02  0.15984956203E+04  0.15989661235E+04  0.00000000000E+00 0. -1.
         -2    1    1    2    0  502  0.21513377879E+02 -0.32273683477E+02 -0.12040295770E+03  0.12649619875E+03  0.00000000000E+00 0. -1.
</event>
<event>
 4    1  0.5841374E+003  0.3031391E+02  0.7546771E-02  0.1416888E+00
          2   -1    0    0  501    0  0.00000000000E+00  0.00000000000E+00  0.58143954739E+03  0.58143954739E+03  0.00000000000E+00 0. -1.
         -2   -1    0    0    0  501 -0.00000000000E+00 -0.00000000000E+00 -0.82875518805E+02  0.82875518805E+02  0.00000000000E+00 0. -1.
          2    1    1    2  502    0  0.33270800864E+01 -0.30130778161E+02  0.57825716232E+03  0.57905118861E+03  0.00000000000E+00 0. -1.
         -2    1    1    2    0  502 -0.33270800864E+01  0.30130778161E+02 -0.79693133742E+02  0.85263877580E+02  0.00000000000E+00 0. -1.
</event>
<event>
 4    1  0.5841374E+003  0.3240778E+02  0.7546771E-02  0.1399765E+00
          2   -1    0    0  501    0  0.00000000000E+00  0.00000000000E+00  0.68926953681E+02  0.68926953681E+02  0.00000000000E+00 0.  1.
         -2   -1    0    0    0  501 -0.00000000000E+00 -0.00000000000E+00 -0.16998017420E+02  0.16998017420E+02  0.00000000000E+00 0.  1.
          2    1    1    2  502    0 -0.29708655424E+02  0.12948351499E+02  0.39791504789E+02  0.51318884117E+02  0.00000000000E+00 0.  1.
         -2    1    1    2    0  502  0.29708655424E+02 -0.12948351499E+02  0.12137431471E+02  0.34606086984E+02  0.00000000000E+00 0.  1.
</event>
<event>
 4    1  0.5841374E+003  0.2041908E+02  0.7546771E-02  0.1527723E+00
          2   -1    0    0  501    0  0.00000000000E+00  0.00000000000E+00  0.13328171899E+03  0.13328171899E+03  0.00000000000E+00 0. -1.
         -2   -1    0    0    0  501 -0.00000000000E+00 -0.00000000000E+00 -0.65112938180E+01  0.65112938180E+01  0.00000000000E+00 0. -1.
          2    1    1    2  502    0 -0.90246527686E+01 -0.18316512066E+02  0.11376721506E+03  0.11558511234E+03  0.00000000000E+00 0. -1.
         -2    1    1    2    0  502  0.90246527686E+01  0.18316512066E+02  0.13003210110E+02  0.24207900467E+02  0.00000000000E+00 0. -1.
</event>
<event>
 4    1  0.5841374E+003  0.2486465E+02  0.7546771E-02  0.1470323E+00
          2   -1    0    0  501    0  0.00000000000E+00  0.00000000000E+00  0.14556220648E+03  0.14556220648E+03  0.00000000000E+00 0.  1.
         -2   -1    0    0    0  501 -0.00000000000E+00 -0.00000000000E+00 -0.67620788856E+01  0.67620788856E+01  0.00000000000E+00 0.  1.
          2    1    1    2  502    0 -0.20860037750E+02  0.13531809741E+02  0.11584583276E+03  0.11848421000E+03  0.00000000000E+00 0.  1.
         -2    1    1    2    0  502  0.20860037750E+02 -0.13531809741E+02  0.22954294830E+02  0.33840075368E+02  0.00000000000E+00 0.  1.
</event>
<event>
 4    1  0.5841374E+003  0.2806616E+02  0.7546771E-02  0.1437183E+00
          2   -1    0    0  501    0  0.00000000000E+00  0.00000000000E+00  0.13591445244E+04  0.13591445244E+04  0.00000000000E+00 0.  1.
         -2   -1    0    0    0  501 -0.00000000000E+00 -0.00000000000E+00 -0.58330322924E+00  0.58330322924E+00  0.00000000000E+00 0.  1.
          2    1    1    2  502    0 -0.22147537125E+02  0.17239369544E+02  0.73372462997E+03  0.73426122183E+03  0.00000000000E+00 0.  1.
         -2    1    1    2    0  502  0.22147537125E+02 -0.17239369544E+02  0.62483659120E+03  0.62546660579E+03  0.00000000000E+00 0.  1.
</event>
<event>
 4    1  0.5841374E+003  0.2036905E+02  0.7546771E-02  0.1528467E+00
          2   -1    0    0  501    0  0.00000000000E+00  0.00000000000E+00  0.35671612601E+03  0.35671612601E+03  0.00000000000E+00 0.  1.
         -2   -1    0    0    0  501 -0.00000000000E+00 -0.00000000000E+00 -0.14950152604E+02  0.14950152604E+02  0.00000000000E+00 0.  1.
          2    1    1    2  502    0  0.19400125538E+02 -0.62075269540E+01  0.34934097392E+03  0.34993430000E+03  0.00000000000E+00 0.  1.
         -2    1    1    2    0  502 -0.19400125538E+02  0.62075269540E+01 -0.75750005084E+01  0.21731978614E+02  0.00000000000E+00 0.  1.
</event>
<event>
 4    1  0.5841374E+003  0.2040806E+02  0.7546771E-02  0.1527886E+00
          2   -1    0    0  501    0  0.00000000000E+00  0.00000000000E+00  0.12449569842E+04  0.12449569842E+04  0.00000000000E+00 0. -1.
         -2   -1    0    0    0  501 -0.00000000000E+00 -0.00000000000E+00 -0.21048844136E+03  0.21048844136E+03  0.00000000000E+00 0.  1.
          2    1    1    2  502    0 -0.49059259024E+01  0.19809615751E+02  0.12443784494E+04  0.12445457863E+04  0.00000000000E+00 0. -1.
         -2    1    1    2    0  502  0.49059259024E+01 -0.19809615751E+02 -0.20990990652E+03  0.21089963926E+03  0.00000000000E+00 0.  1.
</event>
<event>
 4    1  0.5841374E+003  0.3292736E+02  0.7546771E-02  0.1395751E+00
          2   -1    0    0  501    0  0.00000000000E+00  0.00000000000E+00  0.64155912041E+02  0.64155912041E+02  0.00000000000E+00 0.  1.
         -2   -1    0    0    0  501 -0.00000000000E+00 -0.00000000000E+00 -0.20064841973E+03  0.20064841973E+03  0.00000000000E+00 0.  1.
          2    1    1    2  502    0 -0.34325333478E+01  0.32747954039E+02  0.58457496132E+02  0.67093141475E+02  0.00000000000E+00 0.  1.
         -2    1    1    2    0  502  0.34325333478E+01 -0.32747954039E+02 -0.19495000382E+03  0.19771119030E+03  0.00000000000E+00 0.  1.
</event>
<event>
 4    1  0.5841374E+003  0.5350418E+02  0.7546771E-02  0.1283655E+00
          2   -1    0    0  501    0  0.00000000000E+00  0.00000000000E+00  0.78774312822E+03  0.78774312822E+03  0.00000000000E+00 0. -1.
         -2   -1    0    0    0  501 -0.00000000000E+00 -0.00000000000E+00 -0.63038528689E+01  0.63038528689E+01  0.00000000000E+00 0. -1.
          2    1    1    2  502    0  0.29602708173E+02 -0.44568786769E+02  0.64909604344E+03  0.65129745178E+03  0.00000000000E+00 0. -1.
         -2    1    1    2    0  502 -0.29602708173E+02  0.44568786769E+02  0.13234323191E+03  0.14274952931E+03  0.00000000000E+00 0. -1.
</event>
<event>
 4    1  0.5841374E+003  0.2071230E+02  0.7546771E-02  0.1523412E+00
          2   -1    0    0  501    0  0.00000000000E+00  0.00000000000E+00  0.88840315603E+03  0.88840315603E+03  0.00000000000E+00 0.  1.
         -2   -1    0    0    0  501 -0.00000000000E+00 -0.00000000000E+00 -0.32865583129E+01  0.32865583129E+01  0.00000000000E+00 0. -1.
          2    1    1    2  502    0 -0.87504302042E+01 -0.18773099525E+02  0.85434901916E+03  0.85460005022E+03  0.00000000000E+00 0.  1.
         -2    1    1    2    0  502  0.87504302042E+01  0.18773099525E+02  0.30767578556E+02  0.37089664123E+02  0.00000000000E+00 0. -1.
</event>
<event>
 4    1  0.5841374E+003  0.2322898E+02  0.7546771E-02  0.1489643E+00
          2   -1    0    0  501    0  0.00000000000E+00  0.00000000000E+00  0.85654264169E+02  0.85654264169E+02  0.00000000000E+00 0. -1.
         -2   -1    0    0    0  501 -0.00000000000E+00 -0.00000000000E+00 -0.64258053770E+02  0.64258053770E+02  0.00000000000E+00 0. -1.
          2    1    1    2  502    0 -0.17272532298E+02 -0.15532073744E+02  0.81885322860E+02  0.85116342654E+02  0.00000000000E+00 0. -1.
         -2    1    1    2    0  502  0.17272532298E+02  0.15532073744E+02 -0.60489112462E+02  0.64795975286E+02  0.00000000000E+00 0. -1.
</event>
<event>
 4    1  0.5841374E+003  0.2155228E+02  0.7546771E-02  0.1511524E+00
          2   -1    0    0  501    0  0.00000000000E+00  0.00000000000E+00  0.16391910455E+04  0.16391910455E+04  0.00000000000E+00 0.  1.
         -2   -1    0    0    0  501 -0.00000000000E+00 -0.00000000000E+00 -0.95795692150E+00  0.95795692150E+00  0.00000000000E+00 0.  1.
          2    1    1    2  502    0  0.18200580013E+02  0.11542944668E+02  0.15072911852E+04  0.15074452619E+04  0.00000000000E+00 0.  1.
         -2    1    1    2    0  502 -0.18200580013E+02 -0.11542944668E+02  0.13094190338E+03  0.13270374051E+03  0.00000000000E+00 0.  1.
</event>
<event>
 4    1  0.5841374E+003  0.2551062E+02  0.7546771E-02  0.1463171E+00
          2   -1    0    0  501    0  0.00000000000E+00  0.00000000000E+00  0.55254807350E+03  0.55254807350E+03  0.00000000000E+00 0.  1.
         -2   -1    0    0    0  501 -0.00000000000E+00 -0.00000000000E+00 -0.42690241941E+01  0.42690241941E+01  0.00000000000E+00 0. -1.
          2    1    1    2  502    0 -0.25214636616E+02 -0.38747819226E+01  0.51104953941E+03  0.51168586414E+03  0.00000000000E+00 0.  1.
         -2    1    1    2    0  502  0.25214636616E+02  0.38747819226E+01  0.37229509898E+02  0.45131233551E+02  0.00000000000E+00 0. -1.
</event>
<event>
 4    1  0.5841374E+003  0.2532179E+02  0.7546771E-02  0.1465236E+00
          2   -1    0    0  501    0  0.00000000000E+00  0.00000000000E+00  0.26748526146E+03  0.26748526146E+03  0.00000000000E+00 0.  1.
         -2   -1    0    0    0  501 -0.00000000000E+00 -0.00000000000E+00 -0.45900191711E+02  0.45900191711E+02  0.00000000000E+00 0. -1.
          2    1    1    2  502    0  0.16006233316E+02 -0.19621247744E+02  0.26333879884E+03  0.26455342720E+03  0.00000000000E+00 0.  1.
         -2    1    1    2    0  502 -0.16006233316E+02  0.19621247744E+02 -0.41753729088E+02  0.48832025974E+02  0.00000000000E+00 0. -1.
</event>
<event>
 4    1  0.5841374E+003  0.4015434E+02  0.7546771E-02  0.1347584E+00
          2   -1    0    0  501    0  0.00000000000E+00  0.00000000000E+00  0.19959090391E+04  0.19959090391E+04  0.00000000000E+00 0. -1.
         -2   -1    0    0    0  501 -0.00000000000E+00 -0.00000000000E+00 -0.33255362313E+01  0.33255362313E+01  0.00000000000E+00 0.  1.
          2    1    1    2  502    0  0.41942797356E+01 -0.39934683498E+02  0.18660624327E+04  0.18664944076E+04  0.00000000000E+00 0. -1.
         -2    1    1    2    0  502 -0.41942797356E+01  0.39934683498E+02  0.12652107018E+03  0.13274016773E+03  0.00000000000E+00 0.  1.
</event>
<event>
 4    1  0.5841374E+003  0.2502862E+02  0.7546771E-02  0.1468483E+00
          2   -1    0    0  501    0  0.00000000000E+00  0.00000000000E+00  0.18144416594E+04  0.18144416594E+04  0.00000000000E+00 0. -1.
         -2   -1    0    0    0  501 -0.00000000000E+00 -0.00000000000E+00 -0.18166603155E+01  0.18166603155E+01  0.00000000000E+00 0. -1.
          2    1    1    2  502    0  0.22629262871E+01  0.24926113492E+02  0.17236058793E+04  0.17237875911E+04  0.00000000000E+00 0. -1.
         -2    1    1    2    0  502 -0.22629262871E+01 -0.24926113492E+02  0.89019119806E+02  0.92470728667E+02  0.00000000000E+00 0. -1.
</event>
<event>
 4    1  0.5841374E+003  0.2060861E+02  0.7546771E-02  0.1524927E+00
          2   -1    0    0  501    0  0.00000000000E+00  0.00000000000E+00  0.22737619852E+03  0.22737619852E+03  0.00000000000E+00 0.  1.
         -2   -1    0    0    0  501 -0.00000000000E+00 -0.00000000000E+00 -0.62776013675E+01  0.62776013675E+01  0.00000000000E+00 0. -1.
          2    1    1    2  502    0  0.18044608681E+02 -0.99552468340E+01  0.20846465886E+03  0.20948085554E+03  0.00000000000E+00 0.  1.
         -2    1    1    2    0  502 -0.18044608681E+02  0.99552468340E+01  0.12633938296E+02  0.24172944357E+02  0.00000000000E+00 0. -1.
</event>
<event>
 4    1  0.5841374E+003  0.3817907E+02  0.7546771E-02  0.1359500E+00
          2   -1    0    0  501    0  0.00000000000E+00  0.00000000000E+00  0.40540766783E+03  0.40540766783E+03  0.00000000000E+00 0.  1.
         -2   -1    0    0    0  501 -0.00000000000E+00 -0.00000000000E+00 -0.43992146027E+01  0.43992146027E+01  0.00000000000E+00 0.  1.
          2    1    1    2  502    0 -0.15598895890E+02 -0.34847035178E+02  0.28808602214E+03  0.29060488221E+03  0.00000000000E+00 0.  1.
         -2    1    1    2    0  502  0.15598895890E+02  0.34847035178E+02  0.11292243109E+03  0.11920200022E+03  0.00000000000E+00 0.  1.
</event>
<event>
 4    1  0.5841374E+003  0.2643830E+02  0.7546771E-02  0.1453334E+00
          2   -1    0    0  501    0  0.00000000000E+00  0.00000000000E+00  0.65491792621E+03  0.65491792621E+03  0.00000000000E+00 0.  1.
         -2   -1    0    0    0  501 -0.00000000000E+00 -0.00000000000E+00 -0.73412009542E+02  0.73412009542E+02  0.00000000000E+00 0.  1.
          2    1    1    2  502    0 -0.26157443445E+02 -0.38434086901E+01  0.65226106825E+03  0.65279666420E+03  0.00000000000E+00 0.  1.
         -2    1    1    2    0  502  0.26157443445E+02  0.38434086901E+01 -0.70755151574E+02  0.75533271558E+02  0.00000000000E+00 0.  1.
</event>
<event>
 4    1  0.5841374E+003  0.2010753E+02  0.7546771E-02  0.1532398E+00
          2   -1    0    0  501    0  0.00000000000E+00  0.00000000000E+00  0.12022582896E+02  0.12022582896E+02  0.00000000000E+00 0.  1.
         -2   -1    0    0    0  501 -0.00000000000E+00 -0.00000000000E+00 -0.38609634858E+02  0.38609634858E+02  0.00000000000E+00 0.  1.
          2    1    1    2  502    0  0.15651985077E+02  0.12622522294E+02 -0.42012551586E+01  0.20541744104E+02  0.00000000000E+00 0.  1.
         -2    1    1    2    0  502 -0.15651985077E+02 -0.12622522294E+02 -0.22385796803E+02  0.30090473649E+02  0.00000000000E+00 0.  1.
</event>
<event>
 4    1  0.5841374E+003  0.5227869E+02  0.7546771E-02  0.1288584E+00
          2   -1    0    0  501    0  0.00000000000E+00  0.00000000000E+00  0.72543788020E+02  0.72543788020E+02  0.00000000000E+00 0.  1.
         -2   -1    0    0    0  501 -0.00000000000E+00 -0.00000000000E+00 -0.67540665264E+02  0.67540665264E+02  0.00000000000E+00 0.  1.
          2    1    1    2  502    0 -0.50844236940E+02  0.12162435470E+02  0.49077967398E+02  0.71705705146E+02  0.00000000000E+00 0.  1.
         -2    1    1    2    0  502  0.50844236940E+02 -0.12162435470E+02 -0.44074844642E+02  0.68378748137E+02  0.00000000000E+00 0.  1.
</event>
<event>
 4    1  0.5841374E+003  0.2818777E+02  0.7546771E-02  0.1436028E+00
          2   -1    0    0  501    0  0.00000000000E+00  0.00000000000E+00  0.64112251266E+03  0.64112251266E+03  0.00000000000E+00 0. -1.
         -2   -1    0    0    0  501 -0.00000000000E+00 -0.00000000000E+00 -0.38552862775E+02  0.38552862775E+02  0.00000000000E+00 0. -1.
          2    1    1    2  502    0  0.58174924047E+01 -0.27580923741E+02  0.63561572345E+03  0.63624044077E+03  0.00000000000E+00 0. -1.
         -2    1    1    2    0  502 -0.58174924047E+01  0.27580923741E+02 -0.33046073560E+02  0.43434934672E+02  0.00000000000E+00 0. -1.
</event>
<event>
 4    1  0.5841374E+003  0.3818758E+02  0.7546771E-02  0.1359447E+00
          2   -1    0    0  501    0  0.00000000000E+00  0.00000000000E+00  0.94981491237E+03  0.94981491237E+03  0.00000000000E+00 0. -1.
         -2   -1    0    0    0  501 -0.00000000000E+00 -0.00000000000E+00 -0.16706440104E+01  0.16706440104E+01  0.00000000000E+00 0. -1.
          2    1    1    2  502    0 -0.18099110061E-01 -0.38187579270E+02  0.60946039210E+03  0.61065559940E+03  0.00000000000E+00 0. -1.
         -2    1    1    2    0  502  0.18099110061E-01  0.38187579270E+02  0.33868387625E+03  0.34082995698E+03  0.00000000000E+00 0. -1.
</event>
<event>
 4    1  0.5841374E+003  0.2493136E+02  0.7546771E-02  0.1469573E+00
          2   -1    0    0  501    0  0.00000000000E+00  0.00000000000E+00  0.17673633001E+04  0.17673633001E+04  0.00000000000E+00 0.  1.
         -2   -1    0    0    0  501 -0.00000000000E+00 -0.00000000000E+00 -0.48290594368E+00  0.48290594368E+00  0.00000000000E+00 0.  1.
          2    1    1    2  502    0  0.11019044020E+02 -0.22364113975E+02  0.13441931803E+04  0.13444243671E+04  0.00000000000E+00 0.  1.
         -2    1    1    2    0  502 -0.11019044020E+02  0.22364113975E+02  0.42268721389E+03  0.42342183897E+03  0.00000000000E+00 0.  1.
</event>
<event>
 4    1  0.5841374E+003  0.2601409E+02  0.7546771E-02  0.1457771E+00
          2   -1    0    0  501    0  0.00000000000E+00  0.00000000000E+00  0.73619292609E+03  0.73619292609E+03  0.00000000000E+00 0.  1.
         -2   -1    0    0    0  501 -0.00000000000E+00 -0.00000000000E+00 -0.95533049810E+00  0.95533049810E+00  0.00000000000E+00 0.  1.
          2    1    1    2  502    0 -0.22330242270E+02  0.13345145326E+02  0.43926419258E+03  0.44003382086E+03  0.00000000000E+00 0.  1.
         -2    1    1    2    0  502  0.22330242270E+02 -0.13345145326E+02  0.29597340301E+03  0.29711443572E+03  0.00000000000E+00 0.  1.
</event>
<event>
 4    1  0.5841374E+003  0.2031878E+02  0.7546771E-02  0.1529217E+00
          2   -1    0    0  501    0  0.00000000000E+00  0.00000000000E+00  0.94866564099E+02  0.94866564099E+02  0.00000000000E+00 0. -1.
         -2   -1    0    0    0  501 -0.00000000000E+00 -0.00000000000E+00 -0.61409655494E+02  0.61409655494E+02  0.00000000000E+00 0.  1.
          2    1    1    2  502    0  0.14266458223E+02 -0.14467935285E+02  0.92046975566E+02  0.94262923212E+02  0.00000000000E+00 0. -1.
         -2    1    1    2    0  502 -0.14266458223E+02  0.14467935285E+02 -0.58590066960E+02  0.62013296381E+02  0.00000000000E+00 0.  1.
</event>
<event>
 4    1  0.5841374E+003  0.2208954E+02  0.7546771E-02  0.1504259E+00
          2   -1    0    0  501    0  0.00000000000E+00  0.00000000000E+00  0.12804834052E+03  0.12804834052E+03  0.00000000000E+00 0.  1.
         -2   -1    0    0    0  501 -0.00000000000E+00 -0.00000000000E+00 -0.38853243205E+01  0.38853243205E+01  0.00000000000E+00 0.  1.
          2    1    1    2  502    0  0.76171165456E+00 -0.22076400395E+02  0.71226681604E+02  0.74573372133E+02  0.00000000000E+00 0.  1.
         -2    1    1    2    0  502 -0.76171165456E+00  0.22076400395E+02  0.52936334594E+02  0.57360292706E+02  0.00000000000E+00 0.  1.
</event>
<event>
 4    1  0.5841374E+003  0.2502970E+02  0.7546771E-02  0.1468471E+00
          2   -1    0    0  501    0  0.00000000000E+00  0.00000000000E+00  0.16837804624E+03  0.16837804624E+03  0.00000000000E+00 0. -1.
         -2   -1    0    0    0  501 -0.00000000000E+00 -0.00000000000E+00 -0.79952546148E+01  0.79952546148E+01  0.00000000000E+00 0.  1.
          2    1    1    2  502    0  0.24388794766E+02  0.56278194531E+01  0.14467238495E+03  0.14682160818E+03  0.00000000000E+00 0. -1.
         -2    1    1    2    0  502 -0.24388794766E+02 -0.56278194531E+01  0.15710406675E+02  0.29551692673E+02  0.00000000000E+00 0.  1.
</event>
<event>
 4    1  0.5841374E+003  0.2209410E+02  0.7546771E-02  0.1504198E+00
          2   -1    0    0  501    0  0.00000000000E+00  0.00000000000E+00  0.11792462827E+03  0.11792462827E+03  0.00000000000E+00 0.  1.
         -2   -1    0    0    0  501 -0.00000000000E+00 -0.00000000000E+00 -0.77991395930E+01  0.77991395930E+01  0.00000000000E+00 0.  1.
          2    1    1    2  502    0  0.11659514784E+02 -0.18767119634E+02  0.98123651148E+02  0.10058031606E+03  0.00000000000E+00 0.  1.
         -2    1    1    2    0  502 -0.11659514784E+02  0.18767119634E+02  0.12001837526E+02  0.25143451799E+02  0.00000000000E+00 0.  1.
</event>
<event>
 4    1  0.5841374E+003  0.2777262E+02  0.7546771E-02  0.1439998E+00
          2   -1    0    0  501    0  0.00000000000E+00  0.00000000000E+00  0.31137706123E+03  0.31137706123E+03  0.00000000000E+00 0.  1.
         -2   -1    0    0    0  501 -0.00000000000E+00 -0.00000000000E+00 -0.25069693664E+01  0.25069693664E+01  0.00000000000E+00 0.  1.
          2    1    1    2  502    0  0.25036844366E+02  0.12019727680E+02  0.13730913489E+03  0.14008967112E+03  0.00000000000E+00 0.  1.
         -2    1    1    2    0  502 -0.25036844366E+02 -0.12019727680E+02  0.17156095698E+03  0.17379435948E+03  0.00000000000E+00 0.  1.
</event>
<event>
 4    1  0.5841374E+003  0.3561177E+02  0.7546771E-02  0.1376313E+00
          2   -1    0    0  501    0  0.00000000000E+00  0.00000000000E+00  0.14260003927E+04  0.14260003927E+04  0.00000000000E+00 0. -1.
         -2   -1    0    0    0  501 -0.00000000000E+00 -0.00000000000E+00 -0.72200090219E+01  0.72200090219E+01  0.00000000000E+00 0.  1.
          2    1    1    2  502    0 -0.18428816029E+02 -0.30472557339E+02  0.13804155746E+04  0.13808748519E+04  0.00000000000E+00 0. -1.
         -2    1    1    2    0  502  0.18428816029E+02  0.30472557339E+02  0.38364809094E+02  0.52345549838E+02  0.00000000000E+00 0.  1.
</event>
<event>
 4    1  0.5841374E+003  0.2077106E+02  0.7546771E-02  0.1522559E+00
          2   -1    0    0  501    0  0.00000000000E+00  0.00000000000E+00  0.82064257943E+02  0.82064257943E+02  0.00000000000E+00 0.  1.
         -2   -1    0    0    0  501 -0.00000000000E+00 -0.00000000000E+00 -0.16292456888E+02  0.16292456888E+02  0.00000000000E+00 0. -1.
          2    1    1    2  502    0 -0.13639405214E+02  0.15665365894E+02  0.73359313770E+02  0.76243202844E+02  0.00000000000E+00 0.  1.
         -2    1    1    2    0  502  0.13639405214E+02 -0.15665365894E+02 -0.75875127150E+01  0.22113511987E+02  0.00000000000E+00 0. -1.
</event>
<event>
 4    1  0.5841374E+003  0.2894419E+02  0.7546771E-02  0.1428999E+00
          2   -1    0    0  501    0  0.00000000000E+00  0.00000000000E+00  0.57394858090E+03  0.57394858090E+03  0.00000000000E+00 0. -1.
         -2   -1    0    0    0  501 -0.00000000000E+00 -0.00000000000E+00 -0.27378222532E+02  0.27378222532E+02  0.00000000000E+00 0. -1.
          2    1    1    2  502    0  0.14310993096E+02 -0.25158724376E+02  0.56582396475E+03  0.56656378724E+03  0.00000000000E+00 0. -1.
         -2    1    1    2    0  502 -0.14310993096E+02  0.25158724376E+02 -0.19253606381E+02  0.34763016186E+02  0.00000000000E+00 0. -1.
</event>
<event>
 4    1  0.5841374E+003  0.3338386E+02  0.7546771E-02  0.1392295E+00
          2   -1    0    0  501    0  0.00000000000E+00  0.00000000000E+00  0.24943294619E+04  0.24943294619E+04  0.00000000000E+00 0. -1.
         -2   -1    0    0    0  501 -0.00000000000E+00 -0.00000000000E+00 -0.84074872958E+01  0.84074872958E+01  0.00000000000E+00 0.  1.
          2    1    1    2  502    0  0.20255220072E+02  0.26536925902E+02  0.24606242615E+04  0.24608507144E+04  0.00000000000E+00 0. -1.
         -2    1    1    2    0  502 -0.20255220072E+02 -0.26536925902E+02  0.25297713137E+02  0.41886234809E+02  0.00000000000E+00 0.  1.
</event>
<event>
 4    1  0.5841374E+003  0.2777199E+02  0.7546771E-02  0.1440004E+00
          2   -1    0    0  501    0  0.00000000000E+00  0.00000000000E+00  0.11415299592E+03  0.11415299592E+03  0.00000000000E+00 0. -1.
         -2   -1    0    0    0  501 -0.00000000000E+00 -0.00000000000E+00 -0.10422435413E+02  0.10422435413E+02  0.00000000000E+00 0. -1.
          2    1    1    2  502    0  0.20939053541E+02  0.18243887019E+02  0.88806030255E+02  0.93047269634E+02  0.00000000000E+00 0. -1.
         -2    1    1    2    0  502 -0.20939053541E+02 -0.18243887019E+02  0.14924530250E+02  0.31528161696E+02  0.00000000000E+00 0. -1.
</event>
<event>
 4    1  0.5841374E+003  0.2074710E+02  0.7546771E-02  0.1522906E+00
          2   -1    0    0  501    0  0.00000000000E+00  0.00000000000E+00  0.27625770335E+03  0.27625770335E+03  0.00000000000E+00 0. -1.
         -2   -1    0    0    0  501 -0.00000000000E+00 -0.00000000000E+00 -0.19544066531E+01  0.19544066531E+01  0.00000000000E+00 0. -1.
          2    1    1    2  502    0  0.13942851814E+02  0.15363564078E+02  0.19979055282E+03  0.20086489791E+03  0.00000000000E+00 0. -1.
         -2    1    1    2    0  502 -0.13942851814E+02 -0.15363564078E+02  0.74512743877E+02  0.77347212090E+02  0.00000000000E+00 0. -1.
</event>
<event>
 4    1  0.5841374E+003  0.2406948E+02  0.7546771E-02  0.1479488E+00
          2   -1    0    0  501    0  0.00000000000E+00  0.00000000000E+00  0.76739438469E+03  0.76739438469E+03  0.00000000000E+00 0. -1.
         -2   -1    0    0    0  501 -0.00000000000E+00 -0.00000000000E+00 -0.13222758734E+02  0.13222758734E+02  0.00000000000E+00 0.  1.
          2    1    1    2  502    0 -0.21807687513E+02 -0.10186497336E+02  0.75608843832E+03  0.75647145784E+03  0.00000000000E+00 0. -1.
         -2    1    1    2    0  502  0.21807687513E+02  0.10186497336E+02 -0.19168123659E+01  0.24145685583E+02  0.00000000000E+00 0.  1.
</event>
<event>
 4    1  0.5841374E+003  0.3768215E+02  0.7546771E-02  0.1362631E+00
          2   -1    0    0  501    0  0.00000000000E+00  0.00000000000E+00  0.62278772928E+03  0.62278772928E+03  0.00000000000E+00 0.  1.
         -2   -1    0    0    0  501 -0.00000000000E+00 -0.00000000000E+00 -0.45634299111E+01  0.45634299111E+01  0.00000000000E+00 0. -1.
          2    1    1    2  502    0 -0.17097593459E+01 -0.37643340608E+02  0.53099852674E+03  0.53233389876E+03  0.00000000000E+00 0.  1.
         -2    1    1    2    0  502  0.17097593459E+01  0.37643340608E+02  0.87225772634E+02  0.95017260435E+02  0.00000000000E+00 0. -1.
</event>
<event>
 4    1  0.5841374E+003  0.2347098E+02  0.7546771E-02  0.1486667E+00
          2   -1    0    0  501    0  0.00000000000E+00  0.00000000000E+00  0.50370279922E+00  0.50370279922E+00  0.00000000000E+00 0. -1.
         -2   -1    0    0    0  501 -0.00000000000E+00 -0.00000000000E+00 -0.12352954492E+04  0.12352954492E+04  0.00000000000E+00 0.  1.
          2    1    1    2  502    0  0.21877653815E+02  0.85003117747E+01 -0.40817942150E+03  0.40885367452E+03  0.00000000000E+00 0. -1.
         -2    1    1    2    0  502 -0.21877653815E+02 -0.85003117747E+01 -0.82661232487E+03  0.82694547744E+03  0.00000000000E+00 0.  1.
</event>
<event>
 4    1  0.5841374E+003  0.3110726E+02  0.7546771E-02  0.1410212E+00
          2   -1    0    0  501    0  0.00000000000E+00  0.00000000000E+00  0.20071823263E+04  0.20071823263E+04  0.00000000000E+00 0. -1.
         -2   -1    0    0    0  501 -0.00000000000E+00 -0.00000000000E+00 -0.13430781257E+01  0.13430781257E+01  0.00000000000E+00 0.  1.
          2    1    1    2  502    0  0.38624474558E+01  0.30866541746E+02  0.18069877422E+04  0.18072554779E+04  0.00000000000E+00 0. -1.
         -2    1    1    2    0  502 -0.38624474558E+01 -0.30866541746E+02  0.19885150596E+03  0.20126992653E+03  0.00000000000E+00 0.  1.
</event>
<event>
 4    1  0.5841374E+003  0.4713462E+02  0.7546771E-02  0.1311098E+00
          2   -1    0    0  501    0  0.00000000000E+00  0.00000000000E+00  0.57869743073E+03  0.57869743073E+03  0.00000000000E+00 0.  1.
         -2   -1    0    0    0  501 -0.00000000000E+00 -0.00000000000E+00 -0.17505779471E+02  0.17505779471E+02  0.00000000000E+00 0.  1.
          2    1    1    2  502    0  0.28510709809E+02 -0.37534137299E+02  0.54398943707E+03  0.54602763637E+03  0.00000000000E+00 0.  1.
         -2    1    1    2    0  502 -0.28510709809E+02  0.37534137299E+02  0.17202214195E+02  0.50175573836E+02  0.00000000000E+00 0.  1.
</event>
<event>
 4    1  0.5841374E+003  0.2142425E+02  0.7546771E-02  0.1513293E+00
          2   -1    0    0  501    0  0.00000000000E+00  0.00000000000E+00  0.14460702462E+04  0.14460702462E+04  0.00000000000E+00 0.  1.
         -2   -1    0    0    0  501 -0.00000000000E+00 -0.00000000000E+00 -0.70503008403E+00  0.70503008403E+00  0.00000000000E+00 0.  1.
          2    1    1    2  502    0 -0.14372138504E+02 -0.15888368482E+02  0.12590592142E+04  0.12592414794E+04  0.00000000000E+00 0.  1.
         -2    1    1    2    0  502  0.14372138504E+02  0.15888368482E+02  0.18630600197E+03  0.18753379692E+03  0.00000000000E+00 0.  1.
</event>
<event>
 4    1  0.5841374E+003  0.2477007E+02  0.7546771E-02  0.1471392E+00
          2   -1    0    0  501    0  0.00000000000E+00  0.00000000000E+00  0.94710479651E+03  0.94710479651E+03  0.00000000000E+00 0.  1.
         -2   -1    0    0    0  501 -0.00000000000E+00 -0.00000000000E+00 -0.62052793891E+01  0.62052793891E+01  0.00000000000E+00 0.  1.
          2    1    1    2  502    0 -0.22686670668E+02  0.99434138619E+01  0.92153803437E+03  0.92187087236E+03  0.00000000000E+00 0.  1.
         -2    1    1    2    0  502  0.22686670668E+02 -0.99434138619E+01  0.19361482752E+02  0.31439203545E+02  0.00000000000E+00 0.  1.
</event>
<event>
 4    1  0.5841374E+003  0.2500939E+02  0.7546771E-02  0.1468698E+00
          2   -1    0    0  501    0  0.00000000000E+00  0.00000000000E+00  0.74604327131E+03  0.74604327131E+03  0.00000000000E+00 0.  1.
         -2   -1    0    0    0  501 -0.00000000000E+00 -0.00000000000E+00 -0.84143108019E+00  0.84143108019E+00  0.00000000000E+00 0.  1.
          2    1    1    2  502    0  0.24463784437E+02 -0.51954509816E+01  0.39508000730E+03  0.39587078906E+03  0.00000000000E+00 0.  1.
         -2    1    1    2    0  502 -0.24463784437E+02  0.51954509816E+01  0.35012183293E+03  0.35101391334E+03  0.00000000000E+00 0.  1.
</event>
<event>
 4    1  0.5937208E+003  0.3238352E+02  0.7546771E-02  0.1399954E+00
          2   -1    0    0  501    0  0.00000000000E+00  0.00000000000E+00  0.16423698301E+04  0.16423698301E+04  0.00000000000E+00 0.  1.
         -2   -1    0    0    0  501 -0.00000000000E+00 -0.00000000000E+00 -0.81330829049E+02  0.81330829049E+02  0.00000000000E+00 0. -1.
          2    1    1    2  502    0  0.58479485517E+01 -0.31851125033E+02  0.16389799928E+04  0.16392998839E+04  0.00000000000E+00 0.  1.
         -2    1    1    2    0  502 -0.58479485517E+01  0.31851125033E+02 -0.77940991730E+02  0.84400775233E+02  0.00000000000E+00 0. -1.
</event>
<event>
 4    1  0.5841374E+003  0.3126424E+02  0.7546771E-02  0.1408919E+00
          2   -1    0    0  501    0  0.00000000000E+00  0.00000000000E+00  0.81428126857E+03  0.81428126857E+03  0.00000000000E+00 0.  1.
         -2   -1    0    0    0  501 -0.00000000000E+00 -0.00000000000E+00 -0.93962040183E+01  0.93962040183E+01  0.00000000000E+00 0.  1.
          2    1    1    2  502    0 -0.29323150568E+02  0.10844599883E+02  0.78707603078E+03  0.78769672510E+03  0.00000000000E+00 0.  1.
         -2    1    1    2    0  502  0.29323150568E+02 -0.10844599883E+02  0.17809033771E+02  0.35980747487E+02  0.00000000000E+00 0.  1.
</event>
<event>
 4    1  0.5841374E+003  0.2302948E+02  0.7546771E-02  0.1492128E+00
          2   -1    0    0  501    0  0.00000000000E+00  0.00000000000E+00  0.11299298644E+04  0.11299298644E+04  0.00000000000E+00 0.  1.
         -2   -1    0    0    0  501 -0.00000000000E+00 -0.00000000000E+00 -0.88824024796E+00  0.88824024796E+00  0.00000000000E+00 0. -1.
          2    1    1    2  502    0  0.15141848174E+02 -0.17351692165E+02  0.95279324147E+03  0.95307151766E+03  0.00000000000E+00 0.  1.
         -2    1    1    2    0  502 -0.15141848174E+02  0.17351692165E+02  0.17624838265E+03  0.17774658696E+03  0.00000000000E+00 0. -1.
</event>
<event>
 4    1  0.5841374E+003  0.2383336E+02  0.7546771E-02  0.1482291E+00
          2   -1    0    0  501    0  0.00000000000E+00  0.00000000000E+00  0.77773748550E+03  0.77773748550E+03  0.00000000000E+00 0. -1.
         -2   -1    0    0    0  501 -0.00000000000E+00 -0.00000000000E+00 -0.22745031403E+02  0.22745031403E+02  0.00000000000E+00 0. -1.
          2    1    1    2  502    0  0.14582815546E+02  0.18851268217E+02  0.77125902537E+03  0.77162718526E+03  0.00000000000E+00 0. -1.
         -2    1    1    2    0  502 -0.14582815546E+02 -0.18851268217E+02 -0.16266571277E+02  0.28855331635E+02  0.00000000000E+00 0. -1.
</event>
<event>
 4    1  0.5841374E+003  0.2459541E+02  0.7546771E-02  0.1473381E+00
          2   -1    0    0  501    0  0.00000000000E+00  0.00000000000E+00  0.15862614442E+04  0.15862614442E+04  0.00000000000E+00 0. -1.
         -2   -1    0    0    0  501 -0.00000000000E+00 -0.00000000000E+00 -0.16184836788E+01  0.16184836788E+01  0.00000000000E+00 0.  1.
          2    1    1    2  502    0  0.52602272333E+01  0.24026326131E+02  0.14864506867E+04  0.14866541556E+04  0.00000000000E+00 0. -1.
         -2    1    1    2    0  502 -0.52602272333E+01 -0.24026326131E+02  0.98192273877E+02  0.10122577235E+03  0.00000000000E+00 0.  1.
</event>
<event>
 4    1  0.5841374E+003  0.3496802E+02  0.7546771E-02  0.1380788E+00
          2   -1    0    0  501    0  0.00000000000E+00  0.00000000000E+00  0.22607523764E+04  0.22607523764E+04  0.00000000000E+00 0.  1.
         -2   -1    0    0    0  501 -0.00000000000E+00 -0.00000000000E+00 -0.46303203109E+01  0.46303203109E+01  0.00000000000E+00 0. -1.
          2    1    1    2  502    0 -0.15441421004E+02 -0.31373947884E+02  0.21925441825E+04  0.21928230102E+04  0.00000000000E+00 0.  1.
         -2    1    1    2    0  502  0.15441421004E+02  0.31373947884E+02  0.63577873587E+02  0.72559686453E+02  0.00000000000E+00 0. -1.
</event>
<event>
 4    1  0.5841374E+003  0.2158698E+02  0.7546771E-02  0.1511047E+00
          2   -1    0    0  501    0  0.00000000000E+00  0.00000000000E+00  0.31004657784E+03  0.31004657784E+03  0.00000000000E+00 0.  1.
         -2   -1    0    0    0  501 -0.00000000000E+00 -0.00000000000E+00 -0.63149572254E+02  0.63149572254E+02  0.00000000000E+00 0.  1.
          2    1    1    2  502    0  0.20984299388E+02 -0.50652764050E+01  0.30781263941E+03  0.30856866144E+03  0.00000000000E+00 0.  1.
         -2    1    1    2    0  502 -0.20984299388E+02  0.50652764050E+01 -0.60915633820E+02  0.64627488653E+02  0.00000000000E+00 0.  1.
</event>
<event>
 4    1  0.5841374E+003  0.7881324E+02  0.7546771E-02  0.1206630E+00
          2   -1    0    0  501    0  0.00000000000E+00  0.00000000000E+00  0.37507864125E+03  0.37507864125E+03  0.00000000000E+00 0. -1.
         -2   -1    0    0    0  501 -0.00000000000E+00 -0.00000000000E+00 -0.16588354261E+02  0.16588354261E+02  0.00000000000E+00 0. -1.
          2    1    1    2  502    0  0.64104339013E+02  0.45849253137E+02  0.17123210491E+03  0.18849921498E+03  0.00000000000E+00 0. -1.
         -2    1    1    2    0  502 -0.64104339013E+02 -0.45849253137E+02  0.18725818207E+03  0.20316778053E+03  0.00000000000E+00 0. -1.
</event>
<event>
 4    1  0.5841374E+003  0.2027041E+02  0.7546771E-02  0.1529941E+00
          2   -1    0    0  501    0  0.00000000000E+00  0.00000000000E+00  0.58405490261E+01  0.58405490261E+01  0.00000000000E+00 0.  1.
         -2   -1    0    0    0  501 -0.00000000000E+00 -0.00000000000E+00 -0.10748479412E+03  0.10748479412E+03  0.00000000000E+00 0. -1.
          2    1    1    2  502    0  0.13776250973E+02  0.14869576910E+02 -0.17517290316E+02  0.26790760877E+02  0.00000000000E+00 0.  1.
         -2    1    1    2    0  502 -0.13776250973E+02 -0.14869576910E+02 -0.84126954782E+02  0.86534582273E+02  0.00000000000E+00 0. -1.
</event>
<event>
 4    1  0.5841374E+003  0.2356604E+02  0.7546771E-02  0.1485510E+00
          2   -1    0    0  501    0  0.00000000000E+00  0.00000000000E+00  0.13705916847E+04  0.13705916847E+04  0.00000000000E+00 0. -1.
         -2   -1    0    0    0  501 -0.00000000000E+00 -0.00000000000E+00 -0.40528106296E+00  0.40528106296E+00  0.00000000000E+00 0. -1.
          2    1    1    2  502    0  0.76837743815E+01 -0.22278194849E+02  0.69502065774E+03  0.69542006948E+03  0.00000000000E+00 0. -1.
         -2    1    1    2    0  502 -0.76837743815E+01  0.22278194849E+02  0.67516574593E+03  0.67557689631E+03  0.00000000000E+00 0. -1.
</event>
<event>
 4    1  0.5841374E+003  0.2496458E+02  0.7546771E-02  0.1469200E+00
          2   -1    0    0  501    0  0.00000000000E+00  0.00000000000E+00  0.11559311041E+03  0.11559311041E+03  0.00000000000E+00 0.  1.
         -2   -1    0    0    0  501 -0.00000000000E+00 -0.00000000000E+00 -0.63567159403E+01  0.63567159403E+01  0.00000000000E+00 0.  1.
          2    1    1    2  502    0  0.73029197614E+01 -0.23872524577E+02  0.78377184980E+02  0.82256994791E+02  0.00000000000E+00 0.  1.
         -2    1    1    2    0  502 -0.73029197614E+01  0.23872524577E+02  0.30859209485E+02  0.39692831554E+02  0.00000000000E+00 0.  1.
</event>
<event>
 4    1  0.5841374E+003  0.2164585E+02  0.7546771E-02  0.1510240E+00
          2   -1    0    0  501    0  0.00000000000E+00  0.00000000000E+00  0.16892615988E+03  0.16892615988E+03  0.00000000000E+00 0.  1.
         -2   -1    0    0    0  501 -0.00000000000E+00 -0.00000000000E+00 -0.18982377988E+02  0.18982377988E+02  0.00000000000E+00 0. -1.
          2    1    1    2  502    0 -0.11499303074E+02 -0.18338726861E+02  0.16179105707E+03  0.16323262242E+03  0.00000000000E+00 0.  1.
         -2    1    1    2    0  502  0.11499303074E+02  0.18338726861E+02 -0.11847275178E+02  0.24675915448E+02  0.00000000000E+00 0. -1.
</event>
<event>
 4    1  0.5841374E+003  0.2162689E+02  0.7546771E-02  0.1510500E+00
          2   -1    0    0  501    0  0.00000000000E+00  0.00000000000E+00  0.17083858925E+04  0.17083858925E+04  0.00000000000E+00 0. -1.
         -2   -1    0    0    0  501 -0.00000000000E+00 -0.00000000000E+00 -0.11694647838E+01  0.11694647838E+01  0.00000000000E+00 0. -1.
          2    1    1    2  502    0  0.19718047205E+02 -0.88837597946E+01  0.16016693620E+04  0.16018153663E+04  0.00000000000E+00 0. -1.
         -2    1    1    2    0  502 -0.19718047205E+02  0.88837597946E+01  0.10554706565E+03  0.10773999090E+03  0.00000000000E+00 0. -1.
</event>
<event>
 4    1  0.5841374E+003  0.2312057E+02  0.7546771E-02  0.1490990E+00
          2   -1    0    0  501    0  0.00000000000E+00  0.00000000000E+00  0.15458964208E+02  0.15458964208E+02  0.00000000000E+00 0. -1.
         -2   -1    0    0    0  501 -0.00000000000E+00 -0.00000000000E+00 -0.10309948831E+04  0.10309948831E+04  0.00000000000E+00 0.  1.
          2    1    1    2  502    0  0.91898960067E+01  0.21215712395E+02  0.66096753152E+01  0.24046797059E+02  0.00000000000E+00 0. -1.
         -2    1    1    2    0  502 -0.91898960067E+01 -0.21215712395E+02 -0.10221455942E+04  0.10224070502E+04  0.00000000000E+00 0.  1.
</event>
<event>
 4    1  0.6153257E+003  0.3802446E+02  0.7546771E-02  0.1360468E+00
          2   -1    0    0  501    0  0.00000000000E+00  0.00000000000E+00  0.17960819194E+04  0.17960819194E+04  0.00000000000E+00 0.  1.
         -2   -1    0    0    0  501 -0.00000000000E+00 -0.00000000000E+00 -0.18070963356E+03  0.18070963356E+03  0.00000000000E+00 0.  1.
          2    1    1    2  502    0 -0.27515829324E+02  0.26243825109E+02  0.17938779584E+04  0.17942809113E+04  0.00000000000E+00 0.  1.
         -2    1    1    2    0  502  0.27515829324E+02 -0.26243825109E+02 -0.17850567248E+03  0.18251064168E+03  0.00000000000E+00 0.  1.
</event>
<event>
 4    1  0.5841374E+003  0.2948433E+02  0.7546771E-02  0.1424131E+00
          2   -1    0    0  501    0  0.00000000000E+00  0.00000000000E+00  0.39575218915E+03  0.39575218915E+03  0.00000000000E+00 0.  1.
         -2   -1    0    0    0  501 -0.00000000000E+00 -0.00000000000E+00 -0.26741231966E+01  0.26741231966E+01  0.00000000000E+00 0. -1.
          2    1    1    2  502    0  0.25309607288E+02 -0.15124473566E+02  0.28071835036E+03  0.28226249866E+03  0.00000000000E+00 0.  1.
         -2    1    1    2    0  502 -0.25309607288E+02  0.15124473566E+02  0.11235971560E+03  0.11616381369E+03  0.00000000000E+00 0. -1.
</event>
<event>
 4    1  0.5841374E+003  0.3172851E+02  0.7546771E-02  0.1405148E+00
          2   -1    0    0  501    0  0.00000000000E+00  0.00000000000E+00  0.20243774913E+04  0.20243774913E+04  0.00000000000E+00 0.  1.
         -2   -1    0    0    0  501 -0.00000000000E+00 -0.00000000000E+00 -0.24662171673E+01  0.24662171673E+01  0.00000000000E+00 0.  1.
          2    1    1    2  502    0 -0.17390998191E+02  0.26537742708E+02  0.19164581399E+04  0.19167207675E+04  0.00000000000E+00 0.  1.
         -2    1    1    2    0  502  0.17390998191E+02 -0.26537742708E+02  0.10545313424E+03  0.11012294096E+03  0.00000000000E+00 0.  1.
</event>
<event>
 4    1  0.5841374E+003  0.2310484E+02  0.7546771E-02  0.1491186E+00
          2   -1    0    0  501    0  0.00000000000E+00  0.00000000000E+00  0.31924710776E+03  0.31924710776E+03  0.00000000000E+00 0.  1.
         -2   -1    0    0    0  501 -0.00000000000E+00 -0.00000000000E+00 -0.34395590518E+02  0.34395590518E+02  0.00000000000E+00 0.  1.
          2    1    1    2  502    0 -0.15287364349E+02  0.17324258644E+02  0.31489541692E+03  0.31574191524E+03  0.00000000000E+00 0.  1.
         -2    1    1    2    0  502  0.15287364349E+02 -0.17324258644E+02 -0.30043899679E+02  0.37900783029E+02  0.00000000000E+00 0.  1.
</event>
<event>
 4    1  0.5841374E+003  0.2681021E+02  0.7546771E-02  0.1449524E+00
          2   -1    0    0  501    0  0.00000000000E+00  0.00000000000E+00  0.11116401822E+03  0.11116401822E+03  0.00000000000E+00 0. -1.
         -2   -1    0    0    0  501 -0.00000000000E+00 -0.00000000000E+00 -0.21001116165E+02  0.21001116165E+02  0.00000000000E+00 0.  1.
          2    1    1    2  502    0  0.23617754668E+02  0.12688138139E+02  0.10005767216E+03  0.10358728177E+03  0.00000000000E+00 0. -1.
         -2    1    1    2    0  502 -0.23617754668E+02 -0.12688138139E+02 -0.98947701061E+01  0.28577852621E+02  0.00000000000E+00 0.  1.
</event>
<event>
 4    1  0.5841374E+003  0.2619071E+02  0.7546771E-02  0.1455911E+00
          2   -1    0    0  501    0  0.00000000000E+00  0.00000000000E+00  0.55868859611E+02  0.55868859611E+02  0.00000000000E+00 0. -1.
         -2   -1    0    0    0  501 -0.00000000000E+00 -0.00000000000E+00 -0.16453768669E+02  0.16453768669E+02  0.00000000000E+00 0. -1.
          2    1    1    2  502    0  0.25072018995E+02  0.75727932072E+01  0.37924842464E+02  0.46089554232E+02  0.00000000000E+00 0. -1.
         -2    1    1    2    0  502 -0.25072018995E+02 -0.75727932072E+01  0.14902484781E+01  0.26233074047E+02  0.00000000000E+00 0. -1.
</event>
<event>
 4    1  0.5841374E+003  0.2266177E+02  0.7546771E-02  0.1496790E+00
          2   -1    0    0  501    0  0.00000000000E+00  0.00000000000E+00  0.18985155477E+02  0.18985155477E+02  0.00000000000E+00 0.  1.
         -2   -1    0    0    0  501 -0.00000000000E+00 -0.00000000000E+00 -0.55049053520E+02  0.55049053520E+02  0.00000000000E+00 0. -1.
          2    1    1    2  502    0 -0.22512977849E+02 -0.25925871670E+01  0.83675837713E+01  0.24157237798E+02  0.00000000000E+00 0.  1.
         -2    1    1    2    0  502  0.22512977849E+02  0.25925871670E+01 -0.44431481814E+02  0.49876971200E+02  0.00000000000E+00 0. -1.
</event>
<event>
 4    1  0.5841374E+003  0.3393819E+02  0.7546771E-02  0.1388186E+00
          2   -1    0    0  501    0  0.00000000000E+00  0.00000000000E+00  0.21552792752E+04  0.21552792752E+04  0.00000000000E+00 0. -1.
         -2   -1    0    0    0  501 -0.00000000000E+00 -0.00000000000E+00 -0.65995230767E+01  0.65995230767E+01  0.00000000000E+00 0.  1.
          2    1    1    2  502    0 -0.20703031220E+02 -0.26892102766E+02  0.21105899078E+04  0.21108627524E+04  0.00000000000E+00 0. -1.
         -2    1    1    2    0  502  0.20703031220E+02  0.26892102766E+02  0.38089844312E+02  0.51016045835E+02  0.00000000000E+00 0.  1.
</event>
<event>
 4    1  0.5841374E+003  0.2315315E+02  0.7546771E-02  0.1490584E+00
          2   -1    0    0  501    0  0.00000000000E+00  0.00000000000E+00  0.19914308588E+04  0.19914308588E+04  0.00000000000E+00 0. -1.
         -2   -1    0    0    0  501 -0.00000000000E+00 -0.00000000000E+00 -0.37449575055E+00  0.37449575055E+00  0.00000000000E+00 0. -1.
          2    1    1    2  502    0 -0.13588466168E+02  0.18746251897E+02  0.15236383995E+04  0.15238143066E+04  0.00000000000E+00 0. -1.
         -2    1    1    2    0  502  0.13588466168E+02 -0.18746251897E+02  0.46741796352E+03  0.46799104799E+03  0.00000000000E+00 0. -1.
</event>
<event>
 4    1  0.5841374E+003  0.2079971E+02  0.7546771E-02  0.1522144E+00
          2   -1    0    0  501    0  0.00000000000E+00  0.00000000000E+00  0.53277034717E+01  0.53277034717E+01  0.00000000000E+00 0.  1.
         -2   -1    0    0    0  501 -0.00000000000E+00 -0.00000000000E+00 -0.15092010425E+03  0.15092010425E+03  0.00000000000E+00 0. -1.
          2    1    1    2  502    0  0.12520866270E+02  0.16608912078E+02 -0.19698150732E+02  0.28646905502E+02  0.00000000000E+00 0.  1.
         -2    1    1    2    0  502 -0.12520866270E+02 -0.16608912078E+02 -0.12589425005E+03  0.12760090222E+03  0.00000000000E+00 0. -1.
</event>
<event>
 4    1  0.5841374E+003  0.4211453E+02  0.7546771E-02  0.1336521E+00
          2   -1    0    0  501    0  0.00000000000E+00  0.00000000000E+00  0.95473007806E+02  0.95473007806E+02  0.00000000000E+00 0. -1.
         -2   -1    0    0    0  501 -0.00000000000E+00 -0.00000000000E+00 -0.20596518124E+02  0.20596518124E+02  0.00000000000E+00 0.  1.
          2    1    1    2  502    0 -0.12455823981E+02 -0.40230411183E+02  0.55609283159E+02  0.69756905812E+02  0.00000000000E+00 0. -1.
         -2    1    1    2    0  502  0.12455823981E+02  0.40230411183E+02  0.19267206523E+02  0.46312620118E+02  0.00000000000E+00 0.  1.
</event>
<event>
 4    1  0.5841374E+003  0.2459173E+02  0.7546771E-02  0.1473423E+00
          2   -1    0    0  501    0  0.00000000000E+00  0.00000000000E+00  0.63549431719E+03  0.63549431719E+03  0.00000000000E+00 0.  1.
         -2   -1    0    0    0  501 -0.00000000000E+00 -0.00000000000E+00 -0.17052347631E+01  0.17052347631E+01  0.00000000000E+00 0. -1.
          2    1    1    2  502    0 -0.13363309544E+02  0.20644005194E+02  0.52869471502E+03  0.52926633624E+03  0.00000000000E+00 0.  1.
         -2    1    1    2    0  502  0.13363309544E+02 -0.20644005194E+02  0.10509436741E+03  0.10793321571E+03  0.00000000000E+00 0. -1.
</event>
<event>
 4    1  0.5841374E+003  0.2181361E+02  0.7546771E-02  0.1507958E+00
          2   -1    0    0  501    0  0.00000000000E+00  0.00000000000E+00  0.15094929310E+03  0.15094929310E+03  0.00000000000E+00 0. -1.
         -2   -1    0    0    0  501 -0.00000000000E+00 -0.00000000000E+00 -0.41376262092E+01  0.41376262092E+01  0.00000000000E+00 0.  1.
          2    1    1    2  502    0 -0.91512644609E+01  0.19801212887E+02  0.11124704980E+03  0.11336551399E+03  0.00000000000E+00 0. -1.
         -2    1    1    2    0  502  0.91512644609E+01 -0.19801212887E+02  0.35564617093E+02  0.41721405321E+02  0.00000000000E+00 0.  1.
</event>
<event>
 4    1  0.5841374E+003  0.2628901E+02  0.7546771E-02  0.1454884E+00
          2   -1    0    0  501    0  0.00000000000E+00  0.00000000000E+00  0.15268828545E+04  0.15268828545E+04  0.00000000000E+00 0. -1.
         -2   -1    0    0    0  501 -0.00000000000E+00 -0.00000000000E+00 -0.23125736511E+01  0.23125736511E+01  0.00000000000E+00 0. -1.
          2    1    1    2  502    0  0.25806642445E+02  0.50128949757E+01  0.14479867747E+04  0.14482254008E+04  0.00000000000E+00 0. -1.
         -2    1    1    2    0  502 -0.25806642445E+02 -0.50128949757E+01  0.76583506193E+02  0.80970027363E+02  0.00000000000E+00 0. -1.
</event>
<event>
 4    1  0.5841374E+003  0.2682284E+02  0.7546771E-02  0.1449396E+00
          2   -1    0    0  501    0  0.00000000000E+00  0.00000000000E+00  0.83183438727E+03  0.83183438727E+03  0.00000000000E+00 0. -1.
         -2   -1    0    0    0  501 -0.00000000000E+00 -0.00000000000E+00 -0.11740752931E+01  0.11740752931E+01  0.00000000000E+00 0.  1.
          2    1    1    2  502    0  0.20742941108E+02 -0.17005737045E+02  0.62905963670E+03  0.62963123432E+03  0.00000000000E+00 0. -1.
         -2    1    1    2    0  502 -0.20742941108E+02  0.17005737045E+02  0.20160067528E+03  0.20337722825E+03  0.00000000000E+00 0.  1.
</event>
<event>
 4    1  0.5841374E+003  0.2050095E+02  0.7546771E-02  0.1526511E+00
          2   -1    0    0  501    0  0.00000000000E+00  0.00000000000E+00  0.42354568004E+02  0.42354568004E+02  0.00000000000E+00 0.  1.
         -2   -1    0    0    0  501 -0.00000000000E+00 -0.00000000000E+00 -0.49552820418E+03  0.49552820418E+03  0.00000000000E+00 0.  1.
          2    1    1    2  502    0  0.19804696611E+02 -0.52974382506E+01  0.39648132895E+02  0.44634776821E+02  0.00000000000E+00 0.  1.
         -2    1    1    2    0  502 -0.19804696611E+02  0.52974382506E+01 -0.49282176907E+03  0.49324799536E+03  0.00000000000E+00 0.  1.
</event>
<event>
 4    1  0.5841374E+003  0.2122814E+02  0.7546771E-02  0.1516032E+00
          2   -1    0    0  501    0  0.00000000000E+00  0.00000000000E+00  0.62150542924E+01  0.62150542924E+01  0.00000000000E+00 0. -1.
         -2   -1    0    0    0  501 -0.00000000000E+00 -0.00000000000E+00 -0.78742014823E+02  0.78742014823E+02  0.00000000000E+00 0.  1.
          2    1    1    2  502    0 -0.71752804059E+01  0.19978718717E+02 -0.24310089322E+02  0.32274049844E+02  0.00000000000E+00 0. -1.
         -2    1    1    2    0  502  0.71752804059E+01 -0.19978718717E+02 -0.48216871208E+02  0.52683019272E+02  0.00000000000E+00 0.  1.
</event>
<event>
 4    1  0.5841374E+003  0.2503847E+02  0.7546771E-02  0.1468373E+00
          2   -1    0    0  501    0  0.00000000000E+00  0.00000000000E+00  0.31098726230E+02  0.31098726230E+02  0.00000000000E+00 0. -1.
         -2   -1    0    0    0  501 -0.00000000000E+00 -0.00000000000E+00 -0.22181869686E+02  0.22181869686E+02  0.00000000000E+00 0. -1.
          2    1    1    2  502    0 -0.15302954393E+02  0.19817767747E+02 -0.35862062513E+01  0.25293975704E+02  0.00000000000E+00 0. -1.
         -2    1    1    2    0  502  0.15302954393E+02 -0.19817767747E+02  0.12503062795E+02  0.27986620212E+02  0.00000000000E+00 0. -1.
</event>
<event>
 4    1  0.5841374E+003  0.2330245E+02  0.7546771E-02  0.1488735E+00
          2   -1    0    0  501    0  0.00000000000E+00  0.00000000000E+00  0.23101666128E+02  0.23101666128E+02  0.00000000000E+00 0. -1.
         -2   -1    0    0    0  501 -0.00000000000E+00 -0.00000000000E+00 -0.23555309616E+02  0.23555309616E+02  0.00000000000E+00 0.  1.
          2    1    1    2  502    0 -0.10088023218E+01  0.23280600828E+02  0.85158040990E+00  0.23318002621E+02  0.00000000000E+00 0. -1.
         -2    1    1    2    0  502  0.10088023218E+01 -0.23280600828E+02 -0.13052238975E+01  0.23338973123E+02  0.00000000000E+00 0.  1.
</event>
<event>
 4    1  0.5841374E+003  0.2427156E+02  0.7546771E-02  0.1477120E+00
          2   -1    0    0  501    0  0.00000000000E+00  0.00000000000E+00  0.51531412068E+03  0.51531412068E+03  0.00000000000E+00 0.  1.
         -2   -1    0    0    0  501 -0.00000000000E+00 -0.00000000000E+00 -0.50994198862E+01  0.50994198862E+01  0.00000000000E+00 0. -1.
          2    1    1    2  502    0 -0.39476934995E+01 -0.23948370601E+02  0.48429871067E+03  0.48490653728E+03  0.00000000000E+00 0.  1.
         -2    1    1    2    0  502  0.39476934995E+01  0.23948370601E+02  0.25915990124E+02  0.35507003288E+02  0.00000000000E+00 0. -1.
</event>
<event>
 4    1  0.5841374E+003  0.2335714E+02  0.7546771E-02  0.1488061E+00
          2   -1    0    0  501    0  0.00000000000E+00  0.00000000000E+00  0.45956039659E+03  0.45956039659E+03  0.00000000000E+00 0. -1.
         -2   -1    0    0    0  501 -0.00000000000E+00 -0.00000000000E+00 -0.59414242088E+02  0.59414242088E+02  0.00000000000E+00 0. -1.
          2    1    1    2  502    0 -0.21069748110E+02 -0.10080770332E+02  0.45695497332E+03  0.45755153137E+03  0.00000000000E+00 0. -1.
         -2    1    1    2    0  502  0.21069748110E+02  0.10080770332E+02 -0.56808818819E+02  0.61423107309E+02  0.00000000000E+00 0. -1.
</event>
<event>
 4    1  0.5841374E+003  0.2381311E+02  0.7546771E-02  0.1482533E+00
          2   -1    0    0  501    0  0.00000000000E+00  0.00000000000E+00  0.13136675796E+03  0.13136675796E+03  0.00000000000E+00 0.  1.
         -2   -1    0    0    0  501 -0.00000000000E+00 -0.00000000000E+00 -0.55788460450E+01  0.55788460450E+01  0.00000000000E+00 0. -1.
          2    1    1    2  502    0  0.45539990956E+01 -0.23373607585E+02  0.95463310930E+02  0.98388557124E+02  0.00000000000E+00 0.  1.
         -2    1    1    2    0  502 -0.45539990956E+01  0.23373607585E+02  0.30324600989E+02  0.38557046884E+02  0.00000000000E+00 0. -1.
</event>
<event>
 4    1  0.5841374E+003  0.3360800E+02  0.7546771E-02  0.1390623E+00
          2   -1    0    0  501    0  0.00000000000E+00  0.00000000000E+00  0.97184539269E+00  0.97184539269E+00  0.00000000000E+00 0.  1.
         -2   -1    0    0    0  501 -0.00000000000E+00 -0.00000000000E+00 -0.15782592795E+04  0.15782592795E+04  0.00000000000E+00 0.  1.
          2    1    1    2  502    0 -0.33406616288E+02 -0.36736373686E+01 -0.38323416664E+03  0.38470498321E+03  0.00000000000E+00 0.  1.
         -2    1    1    2    0  502  0.33406616288E+02  0.36736373686E+01 -0.11940532674E+04  0.11945261416E+04  0.00000000000E+00 0.  1.
</event>
<event>
 4    1  0.5841374E+003  0.2298180E+02  0.7546771E-02  0.1492727E+00
          2   -1    0    0  501    0  0.00000000000E+00  0.00000000000E+00  0.73490580680E+03  0.73490580680E+03  0.00000000000E+00 0. -1.
         -2   -1    0    0    0  501 -0.00000000000E+00 -0.00000000000E+00 -0.11488108140E+01  0.11488108140E+01  0.00000000000E+00 0. -1.
          2    1    1    2  502    0  0.67960028454E+01  0.21953983366E+02  0.59207177666E+03  0.59251763835E+03  0.00000000000E+00 0. -1.
         -2    1    1    2    0  502 -0.67960028454E+01 -0.21953983366E+02  0.14168521932E+03  0.14353697926E+03  0.00000000000E+00 0. -1.
</event>
<event>
 4    1  0.5841374E+003  0.2716834E+02  0.7546771E-02  0.1445924E+00
          2   -1    0    0  501    0  0.00000000000E+00  0.00000000000E+00  0.26940649138E+03  0.26940649138E+03  0.00000000000E+00 0. -1.
         -2   -1    0    0    0  501 -0.00000000000E+00 -0.00000000000E+00 -0.82115271408E+02  0.82115271408E+02  0.00000000000E+00 0. -1.
          2    1    1    2  502    0 -0.16184219563E+02  0.21821778247E+02  0.26644946380E+03  0.26783098351E+03  0.00000000000E+00 0. -1.
         -2    1    1    2    0  502  0.16184219563E+02 -0.21821778247E+02 -0.79158243833E+02  0.83690779274E+02  0.00000000000E+00 0. -1.
</event>
<event>
 4    1  0.5989120E+003  0.3987895E+02  0.7546771E-02  0.1349197E+00
          2   -1    0    0  501    0  0.00000000000E+00  0.00000000000E+00  0.18707540365E+04  0.18707540365E+04  0.00000000000E+00 0.  1.
         -2   -1    0    0    0  501 -0.00000000000E+00 -0.00000000000E+00 -0.13978362864E+03  0.13978362864E+03  0.00000000000E+00 0.  1.
          2    1    1    2  502    0 -0.21570608533E+02  0.33541612697E+02  0.18676925768E+04  0.18681182758E+04  0.00000000000E+00 0.  1.
         -2    1    1    2    0  502  0.21570608533E+02 -0.33541612697E+02 -0.13672216903E+03  0.14241938926E+03  0.00000000000E+00 0.  1.
</event>
<event>
 4    1  0.5841374E+003  0.2380935E+02  0.7546771E-02  0.1482578E+00
          2   -1    0    0  501    0  0.00000000000E+00  0.00000000000E+00  0.31254216895E+02  0.31254216895E+02  0.00000000000E+00 0. -1.
         -2   -1    0    0    0  501 -0.00000000000E+00 -0.00000000000E+00 -0.67468600606E+02  0.67468600606E+02  0.00000000000E+00 0.  1.
          2    1    1    2  502    0  0.20579716921E+02  0.11973324768E+02  0.24100871102E+02  0.33878270948E+02  0.00000000000E+00 0. -1.
         -2    1    1    2    0  502 -0.20579716921E+02 -0.11973324768E+02 -0.60315254813E+02  0.64844546553E+02  0.00000000000E+00 0.  1.
</event>
<event>
 4    1  0.5841374E+003  0.2146360E+02  0.7546771E-02  0.1512748E+00
          2   -1    0    0  501    0  0.00000000000E+00  0.00000000000E+00  0.11996038457E+03  0.11996038457E+03  0.00000000000E+00 0. -1.
         -2   -1    0    0    0  501 -0.00000000000E+00 -0.00000000000E+00 -0.54420784318E+01  0.54420784318E+01  0.00000000000E+00 0.  1.
          2    1    1    2  502    0  0.59011480589E+01  0.20636439339E+02  0.91275860932E+02  0.93765499870E+02  0.00000000000E+00 0. -1.
         -2    1    1    2    0  502 -0.59011480589E+01 -0.20636439339E+02  0.23242445204E+02  0.31636963130E+02  0.00000000000E+00 0.  1.
</event>
<event>
 4    1  0.5841374E+003  0.4188229E+02  0.7546771E-02  0.1337795E+00
          2   -1    0    0  501    0  0.00000000000E+00  0.00000000000E+00  0.12230219999E+03  0.12230219999E+03  0.00000000000E+00 0. -1.
         -2   -1    0    0    0  501 -0.00000000000E+00 -0.00000000000E+00 -0.44928188656E+02  0.44928188656E+02  0.00000000000E+00 0. -1.
          2    1    1    2  502    0  0.37711183284E+02 -0.18220681797E+02  0.10767673756E+03  0.11553530371E+03  0.00000000000E+00 0. -1.
         -2    1    1    2    0  502 -0.37711183284E+02  0.18220681797E+02 -0.30302726232E+02  0.51695084939E+02  0.00000000000E+00 0. -1.
</event>
<event>
 4    1  0.5841374E+003  0.2322075E+02  0.7546771E-02  0.1489745E+00
          2   -1    0    0  501    0  0.00000000000E+00  0.00000000000E+00  0.10600917549E+04  0.10600917549E+04  0.00000000000E+00 0. -1.
         -2   -1    0    0    0  501 -0.00000000000E+00 -0.00000000000E+00 -0.59027286698E+00  0.59027286698E+00  0.00000000000E+00 0. -1.
          2    1    1    2  502    0  0.81983308430E+01  0.21725347589E+02  0.72697740517E+03  0.72734816352E+03  0.00000000000E+00 0. -1.
         -2    1    1    2    0  502 -0.81983308430E+01 -0.21725347589E+02  0.33252407687E+03  0.33333386425E+03  0.00000000000E+00 0. -1.
</event>
<event>
 4    1  0.5841374E+003  0.3937338E+02  0.7546771E-02  0.1352197E+00
          2   -1    0    0  501    0  0.00000000000E+00  0.00000000000E+00  0.45588766517E+02  0.45588766517E+02  0.00000000000E+00 0. -1.
         -2   -1    0    0    0  501 -0.00000000000E+00 -0.00000000000E+00 -0.34145529467E+03  0.34145529467E+03  0.00000000000E+00 0. -1.
          2    1    1    2  502    0  0.28003042199E+02 -0.27678375859E+02  0.35699716054E+02  0.53148213413E+02  0.00000000000E+00 0. -1.
         -2    1    1    2    0  502 -0.28003042199E+02  0.27678375859E+02 -0.33156624421E+03  0.33389584777E+03  0.00000000000E+00 0. -1.
</event>
<event>
 4    1  0.5841374E+003  0.2991568E+02  0.7546771E-02  0.1420331E+00
          2   -1    0    0  501    0  0.00000000000E+00  0.00000000000E+00  0.84443761409E+03  0.84443761409E+03  0.00000000000E+00 0.  1.
         -2   -1    0    0    0  501 -0.00000000000E+00 -0.00000000000E+00 -0.21117575318E+01  0.21117575318E+01  0.00000000000E+00 0.  1.
          2    1    1    2  502    0 -0.28099226936E+02 -0.10265530993E+02  0.71990491847E+03  0.72052622389E+03  0.00000000000E+00 0.  1.
         -2    1    1    2    0  502  0.28099226936E+02  0.10265530993E+02  0.12242093809E+03  0.12602314773E+03  0.00000000000E+00 0.  1.
</event>
<event>
 4    1  0.5841374E+003  0.2231444E+02  0.7546771E-02  0.1501291E+00
          2   -1    0    0  501    0  0.00000000000E+00  0.00000000000E+00  0.95697554506E+03  0.95697554506E+03  0.00000000000E+00 0. -1.
         -2   -1    0    0    0  501 -0.00000000000E+00 -0.00000000000E+00 -0.41720319293E+01  0.41720319293E+01  0.00000000000E+00 0.  1.
          2    1    1    2  502    0 -0.96956887911E+01 -0.20097960801E+02  0.92601020945E+03  0.92627903054E+03  0.00000000000E+00 0. -1.
         -2    1    1    2    0  502  0.96956887911E+01  0.20097960801E+02  0.26793303682E+02  0.34868546452E+02  0.00000000000E+00 0.  1.
</event>
<event>
 4    1  0.5841374E+003  0.3753647E+02  0.7546771E-02  0.1363560E+00
          2   -1    0    0  501    0  0.00000000000E+00  0.00000000000E+00  0.19795430402E+02  0.19795430402E+02  0.00000000000E+00 0.  1.
         -2   -1    0    0    0  501 -0.00000000000E+00 -0.00000000000E+00 -0.63899074765E+03  0.63899074765E+03  0.00000000000E+00 0.  1.
          2    1    1    2  502    0  0.18002983415E+02 -0.32937508637E+02  0.90834677896E+00  0.37547463042E+02  0.00000000000E+00 0.  1.
         -2    1    1    2    0  502 -0.18002983415E+02  0.32937508637E+02 -0.62010366403E+03  0.62123871501E+03  0.00000000000E+00 0.  1.
</event>
<event>
 4    1  0.5841374E+003  0.8711962E+02  0.7546771E-02  0.1188218E+00
          2   -1    0    0  501    0  0.00000000000E+00  0.00000000000E+00  0.12642204916E+04  0.12642204916E+04  0.00000000000E+00 0.  1.
         -2   -1    0    0    0  501 -0.00000000000E+00 -0.00000000000E+00 -0.74063833379E+02  0.74063833379E+02  0.00000000000E+00 0.  1.
          2    1    1    2  502    0  0.15403762231E+02  0.85747021595E+02  0.12365273356E+04  0.12395925456E+04  0.00000000000E+00 0.  1.
         -2    1    1    2    0  502 -0.15403762231E+02 -0.85747021595E+02 -0.46370677306E+02  0.98691779379E+02  0.00000000000E+00 0.  1.
</event>
<event>
 4    1  0.5841374E+003  0.4676286E+02  0.7546771E-02  0.1312853E+00
          2   -1    0    0  501    0  0.00000000000E+00  0.00000000000E+00  0.85376998883E+03  0.85376998883E+03  0.00000000000E+00 0. -1.
         -2   -1    0    0    0  501 -0.00000000000E+00 -0.00000000000E+00 -0.83705493948E+01  0.83705493948E+01  0.00000000000E+00 0.  1.
          2    1    1    2  502    0  0.44802937495E+02  0.13396353314E+02  0.78181253710E+03  0.78320981139E+03  0.00000000000E+00 0. -1.
         -2    1    1    2    0  502 -0.44802937495E+02 -0.13396353314E+02  0.63586902343E+02  0.78930726843E+02  0.00000000000E+00 0.  1.
</event>
<event>
 4    1  0.5841374E+003  0.3445185E+02  0.7546771E-02  0.1384458E+00
          2   -1    0    0  501    0  0.00000000000E+00  0.00000000000E+00  0.88839867801E+02  0.88839867801E+02  0.00000000000E+00 0.  1.
         -2   -1    0    0    0  501 -0.00000000000E+00 -0.00000000000E+00 -0.14231742534E+02  0.14231742534E+02  0.00000000000E+00 0.  1.
          2    1    1    2  502    0 -0.34350844643E+02  0.26361995473E+01  0.50056452385E+02  0.60766590336E+02  0.00000000000E+00 0.  1.
         -2    1    1    2    0  502  0.34350844643E+02 -0.26361995473E+01  0.24551672882E+02  0.42305019998E+02  0.00000000000E+00 0.  1.
</event>
<event>
 4    1  0.5841374E+003  0.2768746E+02  0.7546771E-02  0.1440822E+00
          2   -1    0    0  501    0  0.00000000000E+00  0.00000000000E+00  0.46565687189E+01  0.46565687189E+01  0.00000000000E+00 0. -1.
         -2   -1    0    0    0  501 -0.00000000000E+00 -0.00000000000E+00 -0.95669047159E+03  0.95669047159E+03  0.00000000000E+00 0.  1.
          2    1    1    2  502    0 -0.26759149321E+02 -0.71093941189E+01 -0.38651426095E+02  0.47545013369E+02  0.00000000000E+00 0. -1.
         -2    1    1    2    0  502  0.26759149321E+02  0.71093941189E+01 -0.91338247678E+03  0.91380202694E+03  0.00000000000E+00 0.  1.
</event>
<event>
 4    1  0.5841374E+003  0.2637113E+02  0.7546771E-02  0.1454030E+00
          2   -1    0    0  501    0  0.00000000000E+00  0.00000000000E+00  0.62774020594E+03  0.62774020594E+03  0.00000000000E+00 0. -1.
         -2   -1    0    0    0  501 -0.00000000000E+00 -0.00000000000E+00 -0.21901009492E+01  0.21901009492E+01  0.00000000000E+00 0. -1.
          2    1    1    2  502    0 -0.22689558775E+02 -0.13439509167E+02  0.53418452012E+03  0.53483505683E+03  0.00000000000E+00 0. -1.
         -2    1    1    2    0  502  0.22689558775E+02  0.13439509167E+02  0.91365584873E+02  0.95095250056E+02  0.00000000000E+00 0. -1.
</event>
<event>
 4    1  0.5841374E+003  0.2051556E+02  0.7546771E-02  0.1526295E+00
          2   -1    0    0  501    0  0.00000000000E+00  0.00000000000E+00  0.11434468920E+04  0.11434468920E+04  0.00000000000E+00 0.  1.
         -2   -1    0    0    0  501 -0.00000000000E+00 -0.00000000000E+00 -0.70186287518E+02  0.70186287518E+02  0.00000000000E+00 0.  1.
          2    1    1    2  502    0  0.17213197389E+01  0.20443220308E+02  0.11418535960E+04  0.11420378816E+04  0.00000000000E+00 0.  1.
         -2    1    1    2    0  502 -0.17213197389E+01 -0.20443220308E+02 -0.68592991544E+02  0.71595297941E+02  0.00000000000E+00 0.  1.
</event>
<event>
 4    1  0.5841374E+003  0.3862282E+02  0.7546771E-02  0.1356751E+00
          2   -1    0    0  501    0  0.00000000000E+00  0.00000000000E+00  0.56704348932E+02  0.56704348932E+02  0.00000000000E+00 0.  1.
         -2   -1    0    0    0  501 -0.00000000000E+00 -0.00000000000E+00 -0.18167391307E+03  0.18167391307E+03  0.00000000000E+00 0. -1.
          2    1    1    2  502    0 -0.17609339437E+02 -0.34374892837E+02  0.47737555507E+02  0.61405181367E+02  0.00000000000E+00 0.  1.
         -2    1    1    2    0  502  0.17609339437E+02  0.34374892837E+02 -0.17270711965E+03  0.17697308064E+03  0.00000000000E+00 0. -1.
</event>
<event>
 4    1  0.5841374E+003  0.2467762E+02  0.7546771E-02  0.1472442E+00
          2   -1    0    0  501    0  0.00000000000E+00  0.00000000000E+00  0.10985739501E+04  0.10985739501E+04  0.00000000000E+00 0.  1.
         -2   -1    0    0    0  501 -0.00000000000E+00 -0.00000000000E+00 -0.55686465783E+00  0.55686465783E+00  0.00000000000E+00 0.  1.
          2    1    1    2  502    0  0.20436011566E+02 -0.13833065539E+02  0.51201003867E+03  0.51260439324E+03  0.00000000000E+00 0.  1.
         -2    1    1    2    0  502 -0.20436011566E+02  0.13833065539E+02  0.58600704680E+03  0.58652642155E+03  0.00000000000E+00 0.  1.
</event>
<event>
 4    1  0.5841374E+003  0.3425017E+02  0.7546771E-02  0.1385913E+00
          2   -1    0    0  501    0  0.00000000000E+00  0.00000000000E+00  0.98902609535E+02  0.98902609535E+02  0.00000000000E+00 0.  1.
         -2   -1    0    0    0  501 -0.00000000000E+00 -0.00000000000E+00 -0.11986258137E+02  0.11986258137E+02  0.00000000000E+00 0.  1.
          2    1    1    2  502    0 -0.25754063529E+02  0.22578783373E+02  0.37787890278E+02  0.50999979397E+02  0.00000000000E+00 0.  1.
         -2    1    1    2    0  502  0.25754063529E+02 -0.22578783373E+02  0.49128461120E+02  0.59888888275E+02  0.00000000000E+00 0.  1.
</event>
<event>
 4    1  0.5841374E+003  0.2285516E+02  0.7546771E-02  0.1494325E+00
          2   -1    0    0  501    0  0.00000000000E+00  0.00000000000E+00  0.32036159534E+03  0.32036159534E+03  0.00000000000E+00 0. -1.
         -2   -1    0    0    0  501 -0.00000000000E+00 -0.00000000000E+00 -0.86085591005E+01  0.86085591005E+01  0.00000000000E+00 0.  1.
          2    1    1    2  502    0 -0.73121602569E+01  0.21653885931E+02  0.30396719878E+03  0.30482522271E+03  0.00000000000E+00 0. -1.
         -2    1    1    2    0  502  0.73121602569E+01 -0.21653885931E+02  0.77858374598E+01  0.24144931735E+02  0.00000000000E+00 0.  1.
</event>
<event>
 4    1  0.5841374E+003  0.2674167E+02  0.7546771E-02  0.1450220E+00
          2   -1    0    0  501    0  0.00000000000E+00  0.00000000000E+00  0.21916758380E+03  0.21916758380E+03  0.00000000000E+00 0. -1.
         -2   -1    0    0    0  501 -0.00000000000E+00 -0.00000000000E+00 -0.19978320270E+03  0.19978320270E+03  0.00000000000E+00 0. -1.
          2    1    1    2  502    0 -0.21012702378E+02 -0.16540353416E+02  0.21744995625E+03  0.21908811110E+03  0.00000000000E+00 0. -1.
         -2    1    1    2    0  502  0.21012702378E+02  0.16540353416E+02 -0.19806557516E+03  0.19986267539E+03  0.00000000000E+00 0. -1.
</event>
<event>
 4    1  0.5841374E+003  0.2960327E+02  0.7546771E-02  0.1423076E+00
          2   -1    0    0  501    0  0.00000000000E+00  0.00000000000E+00  0.24984110315E+02  0.24984110315E+02  0.00000000000E+00 0.  1.
         -2   -1    0    0    0  501 -0.00000000000E+00 -0.00000000000E+00 -0.46929048143E+02  0.46929048143E+02  0.00000000000E+00 0.  1.
          2    1    1    2  502    0  0.19621331983E+02 -0.22166572755E+02  0.70977943714E+01  0.30442278191E+02  0.00000000000E+00 0.  1.
         -2    1    1    2    0  502 -0.19621331983E+02  0.22166572755E+02 -0.29042732199E+02  0.41470880267E+02  0.00000000000E+00 0.  1.
</event>
<event>
 4    1  0.5841374E+003  0.2085238E+02  0.7546771E-02  0.1521383E+00
          2   -1    0    0  501    0  0.00000000000E+00  0.00000000000E+00  0.18612015315E+03  0.18612015315E+03  0.00000000000E+00 0.  1.
         -2   -1    0    0    0  501 -0.00000000000E+00 -0.00000000000E+00 -0.31353636939E+02  0.31353636939E+02  0.00000000000E+00 0.  1.
          2    1    1    2  502    0 -0.17473779344E+02  0.11379319895E+02  0.18199060050E+03  0.18318133245E+03  0.00000000000E+00 0.  1.
         -2    1    1    2    0  502  0.17473779344E+02 -0.11379319895E+02 -0.27224084290E+02  0.34292457644E+02  0.00000000000E+00 0.  1.
</event>
<event>
 4    1  0.5841374E+003  0.2200467E+02  0.7546771E-02  0.1505390E+00
          2   -1    0    0  501    0  0.00000000000E+00  0.00000000000E+00  0.43047940784E+03  0.43047940784E+03  0.00000000000E+00 0. -1.
         -2   -1    0    0    0  501 -0.00000000000E+00 -0.00000000000E+00 -0.11589282822E+01  0.11589282822E+01  0.00000000000E+00 0. -1.
          2    1    1    2  502    0  0.16441869206E+02  0.14624315167E+02  0.25169275323E+03  0.25265282046E+03  0.00000000000E+00 0. -1.
         -2    1    1    2    0  502 -0.16441869206E+02 -0.14624315167E+02  0.17762772633E+03  0.17898551567E+03  0.00000000000E+00 0. -1.
</event>
<event>
 4    1  0.5841374E+003  0.3472074E+02  0.7546771E-02  0.1382537E+00
          2   -1    0    0  501    0  0.00000000000E+00  0.00000000000E+00  0.20299496882E+02  0.20299496882E+02  0.00000000000E+00 0.  1.
         -2   -1    0    0    0  501 -0.00000000000E+00 -0.00000000000E+00 -0.70931540080E+03  0.70931540080E+03  0.00000000000E+00 0.  1.
          2    1    1    2  502    0 -0.26164928144E+02  0.22823812386E+02  0.46940301924E+01  0.35036606515E+02  0.00000000000E+00 0.  1.
         -2    1    1    2    0  502  0.26164928144E+02 -0.22823812386E+02 -0.69370993411E+03  0.69457829117E+03  0.00000000000E+00 0.  1.
</event>
<event>
 4    1  0.5841374E+003  0.4878657E+02  0.7546771E-02  0.1303521E+00
          2   -1    0    0  501    0  0.00000000000E+00  0.00000000000E+00  0.15277776043E+04  0.15277776043E+04  0.00000000000E+00 0.  1.
         -2   -1    0    0    0  501 -0.00000000000E+00 -0.00000000000E+00 -0.25550594906E+01  0.25550594906E+01  0.00000000000E+00 0. -1.
          2    1    1    2  502    0 -0.36333316679E+02  0.32557934273E+02  0.12406213483E+04  0.12415802265E+04  0.00000000000E+00 0.  1.
         -2    1    1    2    0  502  0.36333316679E+02 -0.32557934273E+02  0.28460119651E+03  0.28875243729E+03  0.00000000000E+00 0. -1.
</event>
<event>
 4    1  0.5841374E+003  0.2973058E+02  0.7546771E-02  0.1421952E+00
          2   -1    0    0  501    0  0.00000000000E+00  0.00000000000E+00  0.54930334666E+02  0.54930334666E+02  0.00000000000E+00 0. -1.
         -2   -1    0    0    0  501 -0.00000000000E+00 -0.00000000000E+00 -0.11720576490E+03  0.11720576490E+03  0.00000000000E+00 0.  1.
          2    1    1    2  502    0 -0.19933907185E+02  0.22057808376E+02  0.48804070222E+02  0.57146695760E+02  0.00000000000E+00 0. -1.
         -2    1    1    2    0  502  0.19933907185E+02 -0.22057808376E+02 -0.11107950046E+03  0.11498940381E+03  0.00000000000E+00 0.  1.
</event>
<event>
 4    1  0.5841374E+003  0.2080803E+02  0.7546771E-02  0.1522023E+00
          2   -1    0    0  501    0  0.00000000000E+00  0.00000000000E+00  0.12365362676E+04  0.12365362676E+04  0.00000000000E+00 0.  1.
         -2   -1    0    0    0  501 -0.00000000000E+00 -0.00000000000E+00 -0.58264505819E+02  0.58264505819E+02  0.00000000000E+00 0.  1.
          2    1    1    2  502    0  0.40571673329E+00  0.20804072044E+02  0.12345880035E+04  0.12347633426E+04  0.00000000000E+00 0.  1.
         -2    1    1    2    0  502 -0.40571673329E+00 -0.20804072044E+02 -0.56316241675E+02  0.60037430792E+02  0.00000000000E+00 0.  1.
</event>
<event>
 4    1  0.5841374E+003  0.3507692E+02  0.7546771E-02  0.1380023E+00
          2   -1    0    0  501    0  0.00000000000E+00  0.00000000000E+00  0.16413806327E+01  0.16413806327E+01  0.00000000000E+00 0.  1.
         -2   -1    0    0    0  501 -0.00000000000E+00 -0.00000000000E+00 -0.89153150586E+03  0.89153150586E+03  0.00000000000E+00 0.  1.
          2    1    1    2  502    0  0.33270594921E+02  0.11111156979E+02 -0.26676217562E+03  0.26905844837E+03  0.00000000000E+00 0.  1.
         -2    1    1    2    0  502 -0.33270594921E+02 -0.11111156979E+02 -0.62312794961E+03  0.62411443813E+03  0.00000000000E+00 0.  1.
</event>
<event>
 4    1  0.5841374E+003  0.2882361E+02  0.7546771E-02  0.1430102E+00
          2   -1    0    0  501    0  0.00000000000E+00  0.00000000000E+00  0.75961622314E+03  0.75961622314E+03  0.00000000000E+00 0.  1.
         -2   -1    0    0    0  501 -0.00000000000E+00 -0.00000000000E+00 -0.11559140548E+02  0.11559140548E+02  0.00000000000E+00 0.  1.
          2    1    1    2  502    0 -0.17474120307E+02  0.22922824765E+02  0.74092110044E+03  0.74148154249E+03  0.00000000000E+00 0.  1.
         -2    1    1    2    0  502  0.17474120307E+02 -0.22922824765E+02  0.71359821434E+01  0.29693821190E+02  0.00000000000E+00 0.  1.
</event>
<event>
 4    1  0.5841374E+003  0.2853554E+02  0.7546771E-02  0.1432764E+00
          2   -1    0    0  501    0  0.00000000000E+00  0.00000000000E+00  0.21013694075E+04  0.21013694075E+04  0.00000000000E+00 0.  1.
         -2   -1    0    0    0  501 -0.00000000000E+00 -0.00000000000E+00 -0.11019292598E+02  0.11019292598E+02  0.00000000000E+00 0.  1.
          2    1    1    2  502    0 -0.96261703401E+01 -0.26862873550E+02  0.20826324377E+04  0.20828279208E+04  0.00000000000E+00 0.  1.
         -2    1    1    2    0  502  0.96261703401E+01  0.26862873550E+02  0.77176771974E+01  0.29560779288E+02  0.00000000000E+00 0.  1.
</event>
<event>
 4    1  0.5841374E+003  0.2059887E+02  0.7546771E-02  0.1525070E+00
          2   -1    0    0  501    0  0.00000000000E+00  0.00000000000E+00  0.98574626761E+03  0.98574626761E+03  0.00000000000E+00 0. -1.
         -2   -1    0    0    0  501 -0.00000000000E+00 -0.00000000000E+00 -0.59775245724E+01  0.59775245724E+01  0.00000000000E+00 0. -1.
          2    1    1    2  502    0  0.19228595327E+02  0.73874633927E+01  0.96755891046E+03  0.96777815573E+03  0.00000000000E+00 0. -1.
         -2    1    1    2    0  502 -0.19228595327E+02 -0.73874633927E+01  0.12209832577E+02  0.23945636454E+02  0.00000000000E+00 0. -1.
</event>
<event>
 4    1  0.5841374E+003  0.2225895E+02  0.7546771E-02  0.1502019E+00
          2   -1    0    0  501    0  0.00000000000E+00  0.00000000000E+00  0.15423082512E+03  0.15423082512E+03  0.00000000000E+00 0. -1.
         -2   -1    0    0    0  501 -0.00000000000E+00 -0.00000000000E+00 -0.18018218132E+03  0.18018218132E+03  0.00000000000E+00 0.  1.
          2    1    1    2  502    0 -0.11975646207E+02  0.18762853112E+02  0.15273356162E+03  0.15434701683E+03  0.00000000000E+00 0. -1.
         -2    1    1    2    0  502  0.11975646207E+02 -0.18762853112E+02 -0.17868491781E+03  0.18006598961E+03  0.00000000000E+00 0.  1.
</event>
<event>
 4    1  0.5841374E+003  0.2372601E+02  0.7546771E-02  0.1483577E+00
          2   -1    0    0  501    0  0.00000000000E+00  0.00000000000E+00  0.26416443675E+03  0.26416443675E+03  0.00000000000E+00 0. -1.
         -2   -1    0    0    0  501 -0.00000000000E+00 -0.00000000000E+00 -0.31256289606E+01  0.31256289606E+01  0.00000000000E+00 0. -1.
          2    1    1    2  502    0 -0.20824440707E+02  0.11369521891E+02  0.20591114937E+03  0.20727355063E+03  0.00000000000E+00 0. -1.
         -2    1    1    2    0  502  0.20824440707E+02 -0.11369521891E+02  0.55127658420E+02  0.60016515074E+02  0.00000000000E+00 0. -1.
</event>
<event>
 4    1  0.5841374E+003  0.2582069E+02  0.7546771E-02  0.1459828E+00
          2   -1    0    0  501    0  0.00000000000E+00  0.00000000000E+00  0.32246327290E+03  0.32246327290E+03  0.00000000000E+00 0.  1.
         -2   -1    0    0    0  501 -0.00000000000E+00 -0.00000000000E+00 -0.47656150848E+02  0.47656150848E+02  0.00000000000E+00 0.  1.
          2    1    1    2  502    0  0.25559974003E+02 -0.36600335133E+01  0.31840438200E+03  0.31944961824E+03  0.00000000000E+00 0.  1.
         -2    1    1    2    0  502 -0.25559974003E+02  0.36600335133E+01 -0.43597259943E+02  0.50669805514E+02  0.00000000000E+00 0.  1.
</event>
<event>
 4    1  0.5841374E+003  0.2322175E+02  0.7546771E-02  0.1489732E+00
          2   -1    0    0  501    0  0.00000000000E+00  0.00000000000E+00  0.16803745881E+02  0.16803745881E+02  0.00000000000E+00 0.  1.
         -2   -1    0    0    0  501 -0.00000000000E+00 -0.00000000000E+00 -0.34625234165E+02  0.34625234165E+02  0.00000000000E+00 0.  1.
          2    1    1    2  502    0  0.17699600258E+02  0.15032427223E+02 -0.19540755532E+01  0.23303822193E+02  0.00000000000E+00 0.  1.
         -2    1    1    2    0  502 -0.17699600258E+02 -0.15032427223E+02 -0.15867412730E+02  0.28125157853E+02  0.00000000000E+00 0.  1.
</event>
<event>
 4    1  0.5841374E+003  0.4267960E+02  0.7546771E-02  0.1333461E+00
          2   -1    0    0  501    0  0.00000000000E+00  0.00000000000E+00  0.21069401634E+04  0.21069401634E+04  0.00000000000E+00 0.  1.
         -2   -1    0    0    0  501 -0.00000000000E+00 -0.00000000000E+00 -0.15991287553E+01  0.15991287553E+01  0.00000000000E+00 0. -1.
          2    1    1    2  502    0 -0.34572694167E+02 -0.25025522444E+02  0.17672164859E+04  0.17677317828E+04  0.00000000000E+00 0.  1.
         -2    1    1    2    0  502  0.34572694167E+02  0.25025522444E+02  0.33812454878E+03  0.34080750937E+03  0.00000000000E+00 0. -1.
</event>
<event>
 4    1  0.5841374E+003  0.2296621E+02  0.7546771E-02  0.1492923E+00
          2   -1    0    0  501    0  0.00000000000E+00  0.00000000000E+00  0.34880647657E+02  0.34880647657E+02  0.00000000000E+00 0.  1.
         -2   -1    0    0    0  501 -0.00000000000E+00 -0.00000000000E+00 -0.27824978725E+02  0.27824978725E+02  0.00000000000E+00 0. -1.
          2    1    1    2  502    0 -0.22654861397E+01 -0.22854201987E+02  0.24712459827E+02  0.33736517997E+02  0.00000000000E+00 0.  1.
         -2    1    1    2    0  502  0.22654861397E+01  0.22854201987E+02 -0.17656790895E+02  0.28969108385E+02  0.00000000000E+00 0. -1.
</event>
<event>
 4    1  0.5841374E+003  0.2564117E+02  0.7546771E-02  0.1461757E+00
          2   -1    0    0  501    0  0.00000000000E+00  0.00000000000E+00  0.15276637849E+03  0.15276637849E+03  0.00000000000E+00 0. -1.
         -2   -1    0    0    0  501 -0.00000000000E+00 -0.00000000000E+00 -0.10210258629E+03  0.10210258629E+03  0.00000000000E+00 0.  1.
          2    1    1    2  502    0  0.25539811333E+02  0.22776399409E+01  0.15005169800E+03  0.15222674430E+03  0.00000000000E+00 0. -1.
         -2    1    1    2    0  502 -0.25539811333E+02 -0.22776399409E+01 -0.99387905799E+02  0.10264222048E+03  0.00000000000E+00 0.  1.
</event>
<event>
 4    1  0.5841374E+003  0.3581749E+02  0.7546771E-02  0.1374905E+00
          2   -1    0    0  501    0  0.00000000000E+00  0.00000000000E+00  0.46886229450E+03  0.46886229450E+03  0.00000000000E+00 0.  1.
         -2   -1    0    0    0  501 -0.00000000000E+00 -0.00000000000E+00 -0.23305530158E+02  0.23305530158E+02  0.00000000000E+00 0.  1.
          2    1    1    2  502    0  0.46506151392E+01 -0.35514284485E+02  0.45396569270E+03  0.45537648465E+03  0.00000000000E+00 0.  1.
         -2    1    1    2    0  502 -0.46506151392E+01  0.35514284485E+02 -0.84089283563E+01  0.36791340010E+02  0.00000000000E+00 0.  1.
</event>
<event>
 4    1  0.5841374E+003  0.2661940E+02  0.7546771E-02  0.1451469E+00
          2   -1    0    0  501    0  0.00000000000E+00  0.00000000000E+00  0.29921910497E+03  0.29921910497E+03  0.00000000000E+00 0.  1.
         -2   -1    0    0    0  501 -0.00000000000E+00 -0.00000000000E+00 -0.44993245766E+02  0.44993245766E+02  0.00000000000E+00 0.  1.
          2    1    1    2  502    0  0.52026837721E+01 -0.26106020726E+02  0.29462863672E+03  0.29582871025E+03  0.00000000000E+00 0.  1.
         -2    1    1    2    0  502 -0.52026837721E+01  0.26106020726E+02 -0.40402777507E+02  0.48383640488E+02  0.00000000000E+00 0.  1.
</event>
<event>
 4    1  0.6165308E+003  0.2539596E+02  0.7546771E-02  0.1464422E+00
          2   -1    0    0  501    0  0.00000000000E+00  0.00000000000E+00  0.13103093428E+04  0.13103093428E+04  0.00000000000E+00 0. -1.
         -2   -1    0    0    0  501 -0.00000000000E+00 -0.00000000000E+00 -0.57107625538E+02  0.57107625538E+02  0.00000000000E+00 0.  1.
          2    1    1    2  502    0  0.17969564238E+01  0.25332305961E+02  0.13073564945E+04  0.13076031349E+04  0.00000000000E+00 0. -1.
         -2    1    1    2    0  502 -0.17969564238E+01 -0.25332305961E+02 -0.54154777199E+02  0.59813833443E+02  0.00000000000E+00 0.  1.
</event>
<event>
 4    1  0.5841374E+003  0.2251839E+02  0.7546771E-02  0.1498636E+00
          2   -1    0    0  501    0  0.00000000000E+00  0.00000000000E+00  0.12598784284E+03  0.12598784284E+03  0.00000000000E+00 0.  1.
         -2   -1    0    0    0  501 -0.00000000000E+00 -0.00000000000E+00 -0.62425180580E+01  0.62425180580E+01  0.00000000000E+00 0. -1.
          2    1    1    2  502    0 -0.21736744274E+02  0.58815000245E+01  0.99279603204E+02  0.10180136397E+03  0.00000000000E+00 0.  1.
         -2    1    1    2    0  502  0.21736744274E+02 -0.58815000245E+01  0.20465721575E+02  0.30428996923E+02  0.00000000000E+00 0. -1.
</event>
<event>
 4    1  0.5841374E+003  0.2083764E+02  0.7546771E-02  0.1521596E+00
          2   -1    0    0  501    0  0.00000000000E+00  0.00000000000E+00  0.50366203509E+02  0.50366203509E+02  0.00000000000E+00 0. -1.
         -2   -1    0    0    0  501 -0.00000000000E+00 -0.00000000000E+00 -0.98103512170E+01  0.98103512170E+01  0.00000000000E+00 0.  1.
          2    1    1    2  502    0  0.15615773617E+02  0.13796907818E+02  0.30754277817E+02  0.37148790762E+02  0.00000000000E+00 0. -1.
         -2    1    1    2    0  502 -0.15615773617E+02 -0.13796907818E+02  0.98015744750E+01  0.23027763964E+02  0.00000000000E+00 0.  1.
</event>
<event>
 4    1  0.5841374E+003  0.2164737E+02  0.7546771E-02  0.1510219E+00
          2   -1    0    0  501    0  0.00000000000E+00  0.00000000000E+00  0.11202748984E+04  0.11202748984E+04  0.00000000000E+00 0. -1.
         -2   -1    0    0    0  501 -0.00000000000E+00 -0.00000000000E+00 -0.10283982602E+02  0.10283982602E+02  0.00000000000E+00 0. -1.
          2    1    1    2  502    0 -0.10437030809E+02 -0.18965157583E+02  0.11086592666E+04  0.11088705868E+04  0.00000000000E+00 0. -1.
         -2    1    1    2    0  502  0.10437030809E+02  0.18965157583E+02  0.13316491419E+01  0.21688294163E+02  0.00000000000E+00 0. -1.
</event>
<event>
 4    1  0.5841374E+003  0.2348007E+02  0.7546771E-02  0.1486556E+00
          2   -1    0    0  501    0  0.00000000000E+00  0.00000000000E+00  0.51532236756E+03  0.51532236756E+03  0.00000000000E+00 0.  1.
         -2   -1    0    0    0  501 -0.00000000000E+00 -0.00000000000E+00 -0.11278747929E+01  0.11278747929E+01  0.00000000000E+00 0.  1.
          2    1    1    2  502    0  0.14884781896E+02 -0.18159211055E+02  0.31567107014E+03  0.31654310639E+03  0.00000000000E+00 0.  1.
         -2    1    1    2    0  502 -0.14884781896E+02  0.18159211055E+02  0.19852342262E+03  0.19990713596E+03  0.00000000000E+00 0.  1.
</event>
<event>
 4    1  0.5841374E+003  0.2094532E+02  0.7546771E-02  0.1520047E+00
          2   -1    0    0  501    0  0.00000000000E+00  0.00000000000E+00  0.25482616133E+03  0.25482616133E+03  0.00000000000E+00 0. -1.
         -2   -1    0    0    0  501 -0.00000000000E+00 -0.00000000000E+00 -0.19321140563E+01  0.19321140563E+01  0.00000000000E+00 0. -1.
          2    1    1    2  502    0 -0.10969282640E+02  0.17843242931E+02  0.16882377778E+03  0.17011811903E+03  0.00000000000E+00 0. -1.
         -2    1    1    2    0  502  0.10969282640E+02 -0.17843242931E+02  0.84070269495E+02  0.86640156353E+02  0.00000000000E+00 0. -1.
</event>
<event>
 4    1  0.5841374E+003  0.2014820E+02  0.7546771E-02  0.1531782E+00
          2   -1    0    0  501    0  0.00000000000E+00  0.00000000000E+00  0.16945564494E+03  0.16945564494E+03  0.00000000000E+00 0. -1.
         -2   -1    0    0    0  501 -0.00000000000E+00 -0.00000000000E+00 -0.10757155387E+02  0.10757155387E+02  0.00000000000E+00 0.  1.
          2    1    1    2  502    0  0.18287613913E+02 -0.84565355161E+01  0.15879124436E+03  0.16006439049E+03  0.00000000000E+00 0. -1.
         -2    1    1    2    0  502 -0.18287613913E+02  0.84565355161E+01 -0.92754812586E-01  0.20148409838E+02  0.00000000000E+00 0.  1.
</event>
<event>
 4    1  0.5841374E+003  0.3413899E+02  0.7546771E-02  0.1386719E+00
          2   -1    0    0  501    0  0.00000000000E+00  0.00000000000E+00  0.24013865767E+03  0.24013865767E+03  0.00000000000E+00 0.  1.
         -2   -1    0    0    0  501 -0.00000000000E+00 -0.00000000000E+00 -0.13183514383E+02  0.13183514383E+02  0.00000000000E+00 0.  1.
          2    1    1    2  502    0 -0.33358574457E+02 -0.72578494951E+01  0.21416031840E+03  0.21686427287E+03  0.00000000000E+00 0.  1.
         -2    1    1    2    0  502  0.33358574457E+02  0.72578494951E+01  0.12794824885E+02  0.36457899185E+02  0.00000000000E+00 0.  1.
</event>
<event>
 4    1  0.5841374E+003  0.2231588E+02  0.7546771E-02  0.1501272E+00
          2   -1    0    0  501    0  0.00000000000E+00  0.00000000000E+00  0.93456097056E+03  0.93456097056E+03  0.00000000000E+00 0. -1.
         -2   -1    0    0    0  501 -0.00000000000E+00 -0.00000000000E+00 -0.25823396933E+01  0.25823396933E+01  0.00000000000E+00 0. -1.
          2    1    1    2  502    0 -0.11100918159E+02 -0.19358933604E+02  0.88342557508E+03  0.88370738675E+03  0.00000000000E+00 0. -1.
         -2    1    1    2    0  502  0.11100918159E+02  0.19358933604E+02  0.48553055787E+02  0.53435923502E+02  0.00000000000E+00 0. -1.
</event>
<event>
 4    1  0.5841374E+003  0.2680998E+02  0.7546771E-02  0.1449526E+00
          2   -1    0    0  501    0  0.00000000000E+00  0.00000000000E+00  0.29291383932E+02  0.29291383932E+02  0.00000000000E+00 0. -1.
         -2   -1    0    0    0  501 -0.00000000000E+00 -0.00000000000E+00 -0.15420663870E+03  0.15420663870E+03  0.00000000000E+00 0. -1.
          2    1    1    2  502    0 -0.37020127952E+01  0.26553152573E+02  0.21675305370E+02  0.34475986906E+02  0.00000000000E+00 0. -1.
         -2    1    1    2    0  502  0.37020127952E+01 -0.26553152573E+02 -0.14659056014E+03  0.14902203573E+03  0.00000000000E+00 0. -1.
</event>
<event>
 4    1  0.5841374E+003  0.3302576E+02  0.7546771E-02  0.1395000E+00
          2   -1    0    0  501    0  0.00000000000E+00  0.00000000000E+00  0.98950321206E+01  0.98950321206E+01  0.00000000000E+00 0.  1.
         -2   -1    0    0    0  501 -0.00000000000E+00 -0.00000000000E+00 -0.16506742971E+03  0.16506742971E+03  0.00000000000E+00 0. -1.
          2    1    1    2  502    0 -0.16479336437E+02  0.28620481797E+02 -0.27162547085E+02  0.42761015795E+02  0.00000000000E+00 0.  1.
         -2    1    1    2    0  502  0.16479336437E+02 -0.28620481797E+02 -0.12800985050E+03  0.13220144604E+03  0.00000000000E+00 0. -1.
</event>
<event>
 4    1  0.5841374E+003  0.3005012E+02  0.7546771E-02  0.1419161E+00
          2   -1    0    0  501    0  0.00000000000E+00  0.00000000000E+00  0.74013344772E+03  0.74013344772E+03  0.00000000000E+00 0.  1.
         -2   -1    0    0    0  501 -0.00000000000E+00 -0.00000000000E+00 -0.11082823325E+03  0.11082823325E+03  0.00000000000E+00 0. -1.
          2    1    1    2  502    0 -0.25159462739E+02  0.16432016666E+02  0.73778499289E+03  0.73839671279E+03  0.00000000000E+00 0.  1.
         -2    1    1    2    0  502  0.25159462739E+02 -0.16432016666E+02 -0.10847977841E+03  0.11256496818E+03  0.00000000000E+00 0. -1.
</event>
<event>
 4    1  0.5841374E+003  0.2242410E+02  0.7546771E-02  0.1499859E+00
          2   -1    0    0  501    0  0.00000000000E+00  0.00000000000E+00  0.11119611420E+04  0.11119611420E+04  0.00000000000E+00 0.  1.
         -2   -1    0    0    0  501 -0.00000000000E+00 -0.00000000000E+00 -0.62666161712E+00  0.62666161712E+00  0.00000000000E+00 0. -1.
          2    1    1    2  502    0 -0.21964570311E+02  0.45163946553E+01  0.84917866002E+03  0.84947468285E+03  0.00000000000E+00 0.  1.
         -2    1    1    2    0  502  0.21964570311E+02 -0.45163946553E+01  0.26215582032E+03  0.26311312072E+03  0.00000000000E+00 0. -1.
</event>
<event>
 4    1  0.5841374E+003  0.2048424E+02  0.7546771E-02  0.1526757E+00
          2   -1    0    0  501    0  0.00000000000E+00  0.00000000000E+00  0.84879434372E+02  0.84879434372E+02  0.00000000000E+00 0.  1.
         -2   -1    0    0    0  501 -0.00000000000E+00 -0.00000000000E+00 -0.10758893899E+02  0.10758893899E+02  0.00000000000E+00 0. -1.
          2    1    1    2  502    0  0.20394623505E+02  0.19140465551E+01  0.72216842329E+02  0.75065814844E+02  0.00000000000E+00 0.  1.
         -2    1    1    2    0  502 -0.20394623505E+02 -0.19140465551E+01  0.19036981436E+01  0.20572513428E+02  0.00000000000E+00 0. -1.
</event>
<event>
 4    1  0.5841374E+003  0.2088732E+02  0.7546771E-02  0.1520880E+00
          2   -1    0    0  501    0  0.00000000000E+00  0.00000000000E+00  0.11191878899E+04  0.11191878899E+04  0.00000000000E+00 0. -1.
         -2   -1    0    0    0  501 -0.00000000000E+00 -0.00000000000E+00 -0.13600613250E+01  0.13600613250E+01  0.00000000000E+00 0.  1.
          2    1    1    2  502    0  0.20752681141E+02  0.23677519899E+01  0.10321321245E+04  0.10323434518E+04  0.00000000000E+00 0. -1.
         -2    1    1    2    0  502 -0.20752681141E+02 -0.23677519899E+01  0.85695704061E+02  0.88204499424E+02  0.00000000000E+00 0.  1.
</event>
<event>
 4    1  0.5841374E+003  0.3777937E+02  0.7546771E-02  0.1362014E+00
          2   -1    0    0  501    0  0.00000000000E+00  0.00000000000E+00  0.11856921654E+04  0.11856921654E+04  0.00000000000E+00 0.  1.
         -2   -1    0    0    0  501 -0.00000000000E+00 -0.00000000000E+00 -0.15815076451E+02  0.15815076451E+02  0.00000000000E+00 0. -1.
          2    1    1    2  502    0  0.33939309295E+02 -0.16595305616E+02  0.11623767591E+04  0.11629905463E+04  0.00000000000E+00 0.  1.
         -2    1    1    2    0  502 -0.33939309295E+02  0.16595305616E+02  0.75003298832E+01  0.38516695500E+02  0.00000000000E+00 0. -1.
</event>
<event>
 4    1  0.5841374E+003  0.2298747E+02  0.7546771E-02  0.1492656E+00
          2   -1    0    0  501    0  0.00000000000E+00  0.00000000000E+00  0.23468835037E+02  0.23468835037E+02  0.00000000000E+00 0. -1.
         -2   -1    0    0    0  501 -0.00000000000E+00 -0.00000000000E+00 -0.74369399781E+02  0.74369399781E+02  0.00000000000E+00 0. -1.
          2    1    1    2  502    0 -0.12618711209E+02  0.19214367842E+02  0.15397659509E+02  0.27667882508E+02  0.00000000000E+00 0. -1.
         -2    1    1    2    0  502  0.12618711209E+02 -0.19214367842E+02 -0.66298224253E+02  0.70170352310E+02  0.00000000000E+00 0. -1.
</event>
<event>
 4    1  0.1116506E+004  0.2531815E+02  0.7546771E-02  0.1465275E+00
          2   -1    0    0  501    0  0.00000000000E+00  0.00000000000E+00  0.17852633516E+04  0.17852633516E+04  0.00000000000E+00 0.  1.
         -2   -1    0    0    0  501 -0.00000000000E+00 -0.00000000000E+00 -0.30533216075E+03  0.30533216075E+03  0.00000000000E+00 0. -1.
          2    1    1    2  502    0  0.18893836071E+02  0.16853246553E+02  0.17846485613E+04  0.17848281419E+04  0.00000000000E+00 0.  1.
         -2    1    1    2    0  502 -0.18893836071E+02 -0.16853246553E+02 -0.30471737044E+03  0.30576737041E+03  0.00000000000E+00 0. -1.
</event>
<event>
 4    1  0.5841374E+003  0.2765879E+02  0.7546771E-02  0.1441100E+00
          2   -1    0    0  501    0  0.00000000000E+00  0.00000000000E+00  0.31265224899E+03  0.31265224899E+03  0.00000000000E+00 0. -1.
         -2   -1    0    0    0  501 -0.00000000000E+00 -0.00000000000E+00 -0.53379712655E+01  0.53379712655E+01  0.00000000000E+00 0. -1.
          2    1    1    2  502    0 -0.27297334894E+02 -0.44569476188E+01  0.27066898584E+03  0.27207849745E+03  0.00000000000E+00 0. -1.
         -2    1    1    2    0  502  0.27297334894E+02  0.44569476188E+01  0.36645291882E+02  0.45911722811E+02  0.00000000000E+00 0. -1.
</event>
<event>
 4    1  0.5841374E+003  0.2185172E+02  0.7546771E-02  0.1507443E+00
          2   -1    0    0  501    0  0.00000000000E+00  0.00000000000E+00  0.89304741339E+01  0.89304741339E+01  0.00000000000E+00 0. -1.
         -2   -1    0    0    0  501 -0.00000000000E+00 -0.00000000000E+00 -0.10281616826E+03  0.10281616826E+03  0.00000000000E+00 0.  1.
          2    1    1    2  502    0  0.20214053256E+02 -0.82999763451E+01 -0.82342138099E+01  0.23351655903E+02  0.00000000000E+00 0. -1.
         -2    1    1    2    0  502 -0.20214053256E+02  0.82999763451E+01 -0.85651480311E+02  0.88394986486E+02  0.00000000000E+00 0.  1.
</event>
<event>
 4    1  0.5841374E+003  0.3244047E+02  0.7546771E-02  0.1399509E+00
          2   -1    0    0  501    0  0.00000000000E+00  0.00000000000E+00  0.38281181943E+01  0.38281181943E+01  0.00000000000E+00 0.  1.
         -2   -1    0    0    0  501 -0.00000000000E+00 -0.00000000000E+00 -0.35582699203E+03  0.35582699203E+03  0.00000000000E+00 0.  1.
          2    1    1    2  502    0 -0.83614099446E+01 -0.31344394287E+02 -0.90244469888E+02  0.95898115596E+02  0.00000000000E+00 0.  1.
         -2    1    1    2    0  502  0.83614099446E+01  0.31344394287E+02 -0.26175440394E+03  0.26375699462E+03  0.00000000000E+00 0.  1.
</event>
<event>
 4    1  0.5841374E+003  0.2217766E+02  0.7546771E-02  0.1503091E+00
          2   -1    0    0  501    0  0.00000000000E+00  0.00000000000E+00  0.36426296011E+02  0.36426296011E+02  0.00000000000E+00 0.  1.
         -2   -1    0    0    0  501 -0.00000000000E+00 -0.00000000000E+00 -0.30175043044E+02  0.30175043044E+02  0.00000000000E+00 0.  1.
          2    1    1    2  502    0  0.11776257652E+02  0.18792778904E+02  0.27878690603E+02  0.35624011186E+02  0.00000000000E+00 0.  1.
         -2    1    1    2    0  502 -0.11776257652E+02 -0.18792778904E+02 -0.21627437636E+02  0.30977327869E+02  0.00000000000E+00 0.  1.
</event>
<event>
 4    1  0.5841374E+003  0.4743196E+02  0.7546771E-02  0.1309708E+00
          2   -1    0    0  501    0  0.00000000000E+00  0.00000000000E+00  0.40529810191E+03  0.40529810191E+03  0.00000000000E+00 0.  1.
         -2   -1    0    0    0  501 -0.00000000000E+00 -0.00000000000E+00 -0.13326340425E+02  0.13326340425E+02  0.00000000000E+00 0.  1.
          2    1    1    2  502    0  0.16699175343E+02 -0.44395137607E+02  0.35586809513E+03  0.35901516936E+03  0.00000000000E+00 0.  1.
         -2    1    1    2    0  502 -0.16699175343E+02  0.44395137607E+02  0.36103666358E+02  0.59609272977E+02  0.00000000000E+00 0.  1.
</event>
<event>
 4    1  0.5841374E+003  0.2074871E+02  0.7546771E-02  0.1522883E+00
          2   -1    0    0  501    0  0.00000000000E+00  0.00000000000E+00  0.29291470309E+03  0.29291470309E+03  0.00000000000E+00 0. -1.
         -2   -1    0    0    0  501 -0.00000000000E+00 -0.00000000000E+00 -0.20910438859E+02  0.20910438859E+02  0.00000000000E+00 0. -1.
          2    1    1    2  502    0 -0.19645491705E+01  0.20655498947E+02  0.28729974528E+03  0.28804800420E+03  0.00000000000E+00 0. -1.
         -2    1    1    2    0  502  0.19645491705E+01 -0.20655498947E+02 -0.15295481042E+02  0.25777137748E+02  0.00000000000E+00 0. -1.
</event>
<event>
 4    1  0.5841374E+003  0.2572934E+02  0.7546771E-02  0.1460807E+00
          2   -1    0    0  501    0  0.00000000000E+00  0.00000000000E+00  0.21237322430E+03  0.21237322430E+03  0.00000000000E+00 0. -1.
         -2   -1    0    0    0  501 -0.00000000000E+00 -0.00000000000E+00 -0.15380750581E+02  0.15380750581E+02  0.00000000000E+00 0.  1.
          2    1    1    2  502    0  0.22369383130E+02  0.12712573450E+02  0.20018108266E+03  0.20182780948E+03  0.00000000000E+00 0. -1.
         -2    1    1    2    0  502 -0.22369383130E+02 -0.12712573450E+02 -0.31886089407E+01  0.25926165399E+02  0.00000000000E+00 0.  1.
</event>
<event>
 4    1  0.5841374E+003  0.2759026E+02  0.7546771E-02  0.1441767E+00
          2   -1    0    0  501    0  0.00000000000E+00  0.00000000000E+00  0.41292414026E+03  0.41292414026E+03  0.00000000000E+00 0.  1.
         -2   -1    0    0    0  501 -0.00000000000E+00 -0.00000000000E+00 -0.16648941653E+02  0.16648941653E+02  0.00000000000E+00 0. -1.
          2    1    1    2  502    0  0.27185398121E+02 -0.47092099535E+01  0.40068400593E+03  0.40163278643E+03  0.00000000000E+00 0.  1.
         -2    1    1    2    0  502 -0.27185398121E+02  0.47092099535E+01 -0.44088073253E+01  0.27940295478E+02  0.00000000000E+00 0. -1.
</event>
<event>
 4    1  0.5841374E+003  0.2191292E+02  0.7546771E-02  0.1506619E+00
          2   -1    0    0  501    0  0.00000000000E+00  0.00000000000E+00  0.15461408757E+03  0.15461408757E+03  0.00000000000E+00 0.  1.
         -2   -1    0    0    0  501 -0.00000000000E+00 -0.00000000000E+00 -0.56978521833E+01  0.56978521833E+01  0.00000000000E+00 0.  1.
          2    1    1    2  502    0  0.21524475512E+02 -0.41076879560E+01  0.12852300640E+03  0.13037767953E+03  0.00000000000E+00 0.  1.
         -2    1    1    2    0  502 -0.21524475512E+02  0.41076879560E+01  0.20393228986E+02  0.29934260220E+02  0.00000000000E+00 0.  1.
</event>
<event>
 4    1  0.5841374E+003  0.2394280E+02  0.7546771E-02  0.1480987E+00
          2   -1    0    0  501    0  0.00000000000E+00  0.00000000000E+00  0.38465263863E+02  0.38465263863E+02  0.00000000000E+00 0. -1.
         -2   -1    0    0    0  501 -0.00000000000E+00 -0.00000000000E+00 -0.15013250485E+02  0.15013250485E+02  0.00000000000E+00 0. -1.
          2    1    1    2  502    0  0.23646395082E+02 -0.37557788283E+01  0.14014697556E+02  0.27742920224E+02  0.00000000000E+00 0. -1.
         -2    1    1    2    0  502 -0.23646395082E+02  0.37557788283E+01  0.94373158224E+01  0.25735594124E+02  0.00000000000E+00 0. -1.
</event>
<event>
 4    1  0.5841374E+003  0.2499768E+02  0.7546771E-02  0.1468829E+00
          2   -1    0    0  501    0  0.00000000000E+00  0.00000000000E+00  0.25870707977E+02  0.25870707977E+02  0.00000000000E+00 0. -1.
         -2   -1    0    0    0  501 -0.00000000000E+00 -0.00000000000E+00 -0.48130833593E+02  0.48130833593E+02  0.00000000000E+00 0. -1.
          2    1    1    2  502    0  0.10833964622E+02 -0.22527962603E+02  0.14985176572E+02  0.29145143770E+02  0.00000000000E+00 0. -1.
         -2    1    1    2    0  502 -0.10833964622E+02  0.22527962603E+02 -0.37245302189E+02  0.44856397800E+02  0.00000000000E+00 0. -1.
</event>
<event>
 4    1  0.5841374E+003  0.3186786E+02  0.7546771E-02  0.1404030E+00
          2   -1    0    0  501    0  0.00000000000E+00  0.00000000000E+00  0.57959509305E+02  0.57959509305E+02  0.00000000000E+00 0.  1.
         -2   -1    0    0    0  501 -0.00000000000E+00 -0.00000000000E+00 -0.17623726711E+03  0.17623726711E+03  0.00000000000E+00 0. -1.
          2    1    1    2  502    0 -0.18834936320E+02  0.25706135408E+02  0.51986062077E+02  0.60976314042E+02  0.00000000000E+00 0.  1.
         -2    1    1    2    0  502  0.18834936320E+02 -0.25706135408E+02 -0.17026381988E+03  0.17322046238E+03  0.00000000000E+00 0. -1.
</event>
<event>
 4    1  0.5841374E+003  0.2483846E+02  0.7546771E-02  0.1470619E+00
          2   -1    0    0  501    0  0.00000000000E+00  0.00000000000E+00  0.11904649197E+02  0.11904649197E+02  0.00000000000E+00 0.  1.
         -2   -1    0    0    0  501 -0.00000000000E+00 -0.00000000000E+00 -0.13642725468E+03  0.13642725468E+03  0.00000000000E+00 0. -1.
          2    1    1    2  502    0 -0.15156220125E+02  0.19678359839E+02 -0.38567043773E+01  0.25136090052E+02  0.00000000000E+00 0.  1.
         -2    1    1    2    0  502  0.15156220125E+02 -0.19678359839E+02 -0.12066590111E+03  0.12319581383E+03  0.00000000000E+00 0. -1.
</event>
<event>
 4    1  0.5841374E+003  0.3139128E+02  0.7546771E-02  0.1407880E+00
          2   -1    0    0  501    0  0.00000000000E+00  0.00000000000E+00  0.18830622706E+03  0.18830622706E+03  0.00000000000E+00 0.  1.
         -2   -1    0    0    0  501 -0.00000000000E+00 -0.00000000000E+00 -0.28340456905E+03  0.28340456905E+03  0.00000000000E+00 0.  1.
          2    1    1    2  502    0 -0.14622688763E+02  0.27777499182E+02  0.18611856023E+03  0.18874726740E+03  0.00000000000E+00 0.  1.
         -2    1    1    2    0  502  0.14622688763E+02 -0.27777499182E+02 -0.28121690222E+03  0.28296352871E+03  0.00000000000E+00 0.  1.
</event>
<event>
 4    1  0.5841374E+003  0.2609820E+02  0.7546771E-02  0.1456883E+00
          2   -1    0    0  501    0  0.00000000000E+00  0.00000000000E+00  0.77628676430E+03  0.77628676430E+03  0.00000000000E+00 0. -1.
         -2   -1    0    0    0  501 -0.00000000000E+00 -0.00000000000E+00 -0.50176093781E+01  0.50176093781E+01  0.00000000000E+00 0.  1.
          2    1    1    2  502    0 -0.17804518466E+02 -0.19081804185E+02  0.74049114275E+03  0.74095090838E+03  0.00000000000E+00 0. -1.
         -2    1    1    2    0  502  0.17804518466E+02  0.19081804185E+02  0.30778012170E+02  0.40353465302E+02  0.00000000000E+00 0.  1.
</event>
<event>
 4    1  0.5841374E+003  0.2225233E+02  0.7546771E-02  0.1502106E+00
          2   -1    0    0  501    0  0.00000000000E+00  0.00000000000E+00  0.16100839115E+04  0.16100839115E+04  0.00000000000E+00 0.  1.
         -2   -1    0    0    0  501 -0.00000000000E+00 -0.00000000000E+00 -0.44208567857E+02  0.44208567857E+02  0.00000000000E+00 0. -1.
          2    1    1    2  502    0  0.18494052092E+02 -0.12374828880E+02  0.16072018334E+04  0.16073558721E+04  0.00000000000E+00 0.  1.
         -2    1    1    2    0  502 -0.18494052092E+02  0.12374828880E+02 -0.41326489705E+02  0.46936607290E+02  0.00000000000E+00 0. -1.
</event>
<event>
 4    1  0.5841374E+003  0.2256877E+02  0.7546771E-02  0.1497985E+00
          2   -1    0    0  501    0  0.00000000000E+00  0.00000000000E+00  0.97320624838E+03  0.97320624838E+03  0.00000000000E+00 0. -1.
         -2   -1    0    0    0  501 -0.00000000000E+00 -0.00000000000E+00 -0.15306903863E+02  0.15306903863E+02  0.00000000000E+00 0. -1.
          2    1    1    2  502    0  0.92583155242E+01 -0.20582343691E+02  0.96468296795E+03  0.96494693012E+03  0.00000000000E+00 0. -1.
         -2    1    1    2    0  502 -0.92583155242E+01  0.20582343691E+02 -0.67836234420E+01  0.23566222123E+02  0.00000000000E+00 0. -1.
</event>
<event>
 4    1  0.5841374E+003  0.3863953E+02  0.7546771E-02  0.1356648E+00
          2   -1    0    0  501    0  0.00000000000E+00  0.00000000000E+00  0.89522719023E+03  0.89522719023E+03  0.00000000000E+00 0.  1.
         -2   -1    0    0    0  501 -0.00000000000E+00 -0.00000000000E+00 -0.13044823183E+02  0.13044823183E+02  0.00000000000E+00 0.  1.
          2    1    1    2  502    0 -0.32493057513E+02 -0.20909668749E+02  0.86520474461E+03  0.86606712391E+03  0.00000000000E+00 0.  1.
         -2    1    1    2    0  502  0.32493057513E+02  0.20909668749E+02  0.16977622437E+02  0.42204889496E+02  0.00000000000E+00 0.  1.
</event>
<event>
 4    1  0.6402526E+003  0.2829114E+02  0.7546771E-02  0.1435052E+00
          2   -1    0    0  501    0  0.00000000000E+00  0.00000000000E+00  0.63866301243E+03  0.63866301243E+03  0.00000000000E+00 0.  1.
         -2   -1    0    0    0  501 -0.00000000000E+00 -0.00000000000E+00 -0.76621642413E+03  0.76621642413E+03  0.00000000000E+00 0.  1.
          2    1    1    2  502    0 -0.90341397742E+01 -0.26809939373E+02  0.63808832144E+03  0.63871519043E+03  0.00000000000E+00 0.  1.
         -2    1    1    2    0  502  0.90341397742E+01  0.26809939373E+02 -0.76564173314E+03  0.76616424613E+03  0.00000000000E+00 0.  1.
</event>
<event>
 4    1  0.5841374E+003  0.5103389E+02  0.7546771E-02  0.1293751E+00
          2   -1    0    0  501    0  0.00000000000E+00  0.00000000000E+00  0.14087715458E+02  0.14087715458E+02  0.00000000000E+00 0.  1.
         -2   -1    0    0    0  501 -0.00000000000E+00 -0.00000000000E+00 -0.48855571611E+03  0.48855571611E+03  0.00000000000E+00 0. -1.
          2    1    1    2  502    0  0.17266075778E+01 -0.51004671356E+02 -0.39089502722E+02  0.64284110765E+02  0.00000000000E+00 0.  1.
         -2    1    1    2    0  502 -0.17266075778E+01  0.51004671356E+02 -0.43537849793E+03  0.43835932080E+03  0.00000000000E+00 0. -1.
</event>
<event>
 4    1  0.5841374E+003  0.2523637E+02  0.7546771E-02  0.1466176E+00
          2   -1    0    0  501    0  0.00000000000E+00  0.00000000000E+00  0.18352121253E+03  0.18352121253E+03  0.00000000000E+00 0.  1.
         -2   -1    0    0    0  501 -0.00000000000E+00 -0.00000000000E+00 -0.82205683958E+02  0.82205683958E+02  0.00000000000E+00 0.  1.
          2    1    1    2  502    0  0.10475526727E+02 -0.22959481601E+02  0.18068656562E+03  0.18244042713E+03  0.00000000000E+00 0.  1.
         -2    1    1    2    0  502 -0.10475526727E+02  0.22959481601E+02 -0.79371037050E+02  0.83286469357E+02  0.00000000000E+00 0.  1.
</event>
<event>
 4    1  0.5841374E+003  0.2813512E+02  0.7546771E-02  0.1436527E+00
          2   -1    0    0  501    0  0.00000000000E+00  0.00000000000E+00  0.15189965340E+04  0.15189965340E+04  0.00000000000E+00 0.  1.
         -2   -1    0    0    0  501 -0.00000000000E+00 -0.00000000000E+00 -0.64145097302E+00  0.64145097302E+00  0.00000000000E+00 0. -1.
          2    1    1    2  502    0  0.14164054952E+02 -0.24309765063E+02  0.10882642980E+04  0.10886279288E+04  0.00000000000E+00 0.  1.
         -2    1    1    2    0  502 -0.14164054952E+02  0.24309765063E+02  0.43009078502E+03  0.43101005613E+03  0.00000000000E+00 0. -1.
</event>
<event>
 4    1  0.5841374E+003  0.2096895E+02  0.7546771E-02  0.1519709E+00
          2   -1    0    0  501    0  0.00000000000E+00  0.00000000000E+00  0.91101018945E+02  0.91101018945E+02  0.00000000000E+00 0. -1.
         -2   -1    0    0    0  501 -0.00000000000E+00 -0.00000000000E+00 -0.32715454250E+03  0.32715454250E+03  0.00000000000E+00 0.  1.
          2    1    1    2  502    0  0.76389584421E+01 -0.19528009269E+02  0.89552667335E+02  0.91974871888E+02  0.00000000000E+00 0. -1.
         -2    1    1    2    0  502 -0.76389584421E+01  0.19528009269E+02 -0.32560619089E+03  0.32628068956E+03  0.00000000000E+00 0.  1.
</event>
<event>
 4    1  0.5841374E+003  0.3400616E+02  0.7546771E-02  0.1387688E+00
          2   -1    0    0  501    0  0.00000000000E+00  0.00000000000E+00  0.46150175397E+03  0.46150175397E+03  0.00000000000E+00 0. -1.
         -2   -1    0    0    0  501 -0.00000000000E+00 -0.00000000000E+00 -0.63604304686E+01  0.63604304686E+01  0.00000000000E+00 0.  1.
          2    1    1    2  502    0  0.16890013233E+02  0.29515189334E+02  0.40968223723E+03  0.41109117535E+03  0.00000000000E+00 0. -1.
         -2    1    1    2    0  502 -0.16890013233E+02 -0.29515189334E+02  0.45459086275E+02  0.56771009093E+02  0.00000000000E+00 0.  1.
</event>
<event>
 4    1  0.5841374E+003  0.3288677E+02  0.7546771E-02  0.1396061E+00
          2   -1    0    0  501    0  0.00000000000E+00  0.00000000000E+00  0.59779062539E+03  0.59779062539E+03  0.00000000000E+00 0.  1.
         -2   -1    0    0    0  501 -0.00000000000E+00 -0.00000000000E+00 -0.19787135464E+01  0.19787135464E+01  0.00000000000E+00 0. -1.
          2    1    1    2  502    0  0.32631455230E+02  0.40899725785E+01  0.38567243741E+03  0.38707204591E+03  0.00000000000E+00 0.  1.
         -2    1    1    2    0  502 -0.32631455230E+02 -0.40899725785E+01  0.21013947444E+03  0.21269729303E+03  0.00000000000E+00 0. -1.
</event>
<event>
 4    1  0.5841374E+003  0.2053326E+02  0.7546771E-02  0.1526034E+00
          2   -1    0    0  501    0  0.00000000000E+00  0.00000000000E+00  0.22839327724E+04  0.22839327724E+04  0.00000000000E+00 0.  1.
         -2   -1    0    0    0  501 -0.00000000000E+00 -0.00000000000E+00 -0.20763235822E+00  0.20763235822E+00  0.00000000000E+00 0. -1.
          2    1    1    2  502    0  0.16607634817E+02 -0.12074819044E+02  0.15222368872E+04  0.15223753661E+04  0.00000000000E+00 0.  1.
         -2    1    1    2    0  502 -0.16607634817E+02  0.12074819044E+02  0.76148825287E+03  0.76176503861E+03  0.00000000000E+00 0. -1.
</event>
<event>
 4    1  0.5841374E+003  0.3917752E+02  0.7546771E-02  0.1353374E+00
          2   -1    0    0  501    0  0.00000000000E+00  0.00000000000E+00  0.81916576130E+02  0.81916576130E+02  0.00000000000E+00 0. -1.
         -2   -1    0    0    0  501 -0.00000000000E+00 -0.00000000000E+00 -0.78186276717E+02  0.78186276717E+02  0.00000000000E+00 0.  1.
          2    1    1    2  502    0  0.22573535190E+02 -0.32020513783E+02  0.71668583716E+02  0.81677804119E+02  0.00000000000E+00 0. -1.
         -2    1    1    2    0  502 -0.22573535190E+02  0.32020513783E+02 -0.67938284303E+02  0.78425048728E+02  0.00000000000E+00 0.  1.
</event>
<event>
 4    1  0.5841374E+003  0.2273192E+02  0.7546771E-02  0.1495892E+00
          2   -1    0    0  501    0  0.00000000000E+00  0.00000000000E+00  0.78023389602E+03  0.78023389602E+03  0.00000000000E+00 0.  1.
         -2   -1    0    0    0  501 -0.00000000000E+00 -0.00000000000E+00 -0.66494519448E+00  0.66494519448E+00  0.00000000000E+00 0.  1.
          2    1    1    2  502    0 -0.25302496435E+01 -0.22590653598E+02  0.36510376325E+03  0.36581074032E+03  0.00000000000E+00 0.  1.
         -2    1    1    2    0  502  0.25302496435E+01  0.22590653598E+02  0.41446518757E+03  0.41508810089E+03  0.00000000000E+00 0.  1.
</event>
<event>
 4    1  0.5841374E+003  0.2068889E+02  0.7546771E-02  0.1523753E+00
          2   -1    0    0  501    0  0.00000000000E+00  0.00000000000E+00  0.47851895791E+03  0.47851895791E+03  0.00000000000E+00 0. -1.
         -2   -1    0    0    0  501 -0.00000000000E+00 -0.00000000000E+00 -0.13502840282E+01  0.13502840282E+01  0.00000000000E+00 0. -1.
          2    1    1    2  502    0 -0.11948771553E+02 -0.16889555254E+02  0.37798501037E+03  0.37855078693E+03  0.00000000000E+00 0. -1.
         -2    1    1    2    0  502  0.11948771553E+02  0.16889555254E+02  0.99183663517E+02  0.10131845502E+03  0.00000000000E+00 0. -1.
</event>
<event>
 4    1  0.5841374E+003  0.4505258E+02  0.7546771E-02  0.1321177E+00
          2   -1    0    0  501    0  0.00000000000E+00  0.00000000000E+00  0.21471149282E+02  0.21471149282E+02  0.00000000000E+00 0.  1.
         -2   -1    0    0    0  501 -0.00000000000E+00 -0.00000000000E+00 -0.24778852331E+03  0.24778852331E+03  0.00000000000E+00 0. -1.
          2    1    1    2  502    0 -0.30742073041E+02 -0.32934170075E+02 -0.72799799156E+01  0.45636966606E+02  0.00000000000E+00 0.  1.
         -2    1    1    2    0  502  0.30742073041E+02  0.32934170075E+02 -0.21903739411E+03  0.22362270599E+03  0.00000000000E+00 0. -1.
</event>
<event>
 4    1  0.5841374E+003  0.2869437E+02  0.7546771E-02  0.1431292E+00
          2   -1    0    0  501    0  0.00000000000E+00  0.00000000000E+00  0.99875636769E+02  0.99875636769E+02  0.00000000000E+00 0.  1.
         -2   -1    0    0    0  501 -0.00000000000E+00 -0.00000000000E+00 -0.10064952583E+02  0.10064952583E+02  0.00000000000E+00 0. -1.
          2    1    1    2  502    0  0.21104419455E+02  0.19441435433E+02  0.21523321196E+02  0.35869475708E+02  0.00000000000E+00 0. -1.
         -2    1    1    2    0  502 -0.21104419455E+02 -0.19441435433E+02  0.68287362991E+02  0.74071113644E+02  0.00000000000E+00 0.  1.
</event>
<event>
 4    1  0.5841374E+003  0.2259756E+02  0.7546771E-02  0.1497614E+00
          2   -1    0    0  501    0  0.00000000000E+00  0.00000000000E+00  0.13380544020E+04  0.13380544020E+04  0.00000000000E+00 0. -1.
         -2   -1    0    0    0  501 -0.00000000000E+00 -0.00000000000E+00 -0.88054821607E+00  0.88054821607E+00  0.00000000000E+00 0. -1.
          2    1    1    2  502    0  0.13384224556E+02 -0.18207475309E+02  0.11725108948E+04  0.11727286336E+04  0.00000000000E+00 0. -1.
         -2    1    1    2    0  502 -0.13384224556E+02  0.18207475309E+02  0.16466295899E+03  0.16620631663E+03  0.00000000000E+00 0. -1.
</event>
<event>
 4    1  0.5841374E+003  0.2147657E+02  0.7546771E-02  0.1512568E+00
          2   -1    0    0  501    0  0.00000000000E+00  0.00000000000E+00  0.11737267188E+04  0.11737267188E+04  0.00000000000E+00 0. -1.
         -2   -1    0    0    0  501 -0.00000000000E+00 -0.00000000000E+00 -0.15528995587E+01  0.15528995587E+01  0.00000000000E+00 0. -1.
          2    1    1    2  502    0  0.87273792599E+01  0.19623354544E+02  0.10939594441E+04  0.10941702375E+04  0.00000000000E+00 0. -1.
         -2    1    1    2    0  502 -0.87273792599E+01 -0.19623354544E+02  0.78214375159E+02  0.81109380924E+02  0.00000000000E+00 0. -1.
</event>
<event>
 4    1  0.5841374E+003  0.2019832E+02  0.7546771E-02  0.1531025E+00
          2   -1    0    0  501    0  0.00000000000E+00  0.00000000000E+00  0.59547961936E+02  0.59547961936E+02  0.00000000000E+00 0.  1.
         -2   -1    0    0    0  501 -0.00000000000E+00 -0.00000000000E+00 -0.76604533356E+02  0.76604533356E+02  0.00000000000E+00 0.  1.
          2    1    1    2  502    0  0.20067648795E+02  0.22938393451E+01  0.56432460014E+02  0.59938257986E+02  0.00000000000E+00 0.  1.
         -2    1    1    2    0  502 -0.20067648795E+02 -0.22938393451E+01 -0.73489031434E+02  0.76214237307E+02  0.00000000000E+00 0.  1.
</event>
<event>
 4    1  0.5841374E+003  0.2630767E+02  0.7546771E-02  0.1454689E+00
          2   -1    0    0  501    0  0.00000000000E+00  0.00000000000E+00  0.14278880961E+04  0.14278880961E+04  0.00000000000E+00 0.  1.
         -2   -1    0    0    0  501 -0.00000000000E+00 -0.00000000000E+00 -0.72143192750E+00  0.72143192750E+00  0.00000000000E+00 0.  1.
          2    1    1    2  502    0  0.22577989348E+02  0.13502891716E+02  0.11227654480E+04  0.11230736151E+04  0.00000000000E+00 0.  1.
         -2    1    1    2    0  502 -0.22577989348E+02 -0.13502891716E+02  0.30440121626E+03  0.30553591302E+03  0.00000000000E+00 0.  1.
</event>
<event>
 4    1  0.5841374E+003  0.5036184E+02  0.7546771E-02  0.1296611E+00
          2   -1    0    0  501    0  0.00000000000E+00  0.00000000000E+00  0.14717291895E+03  0.14717291895E+03  0.00000000000E+00 0. -1.
         -2   -1    0    0    0  501 -0.00000000000E+00 -0.00000000000E+00 -0.19844379534E+02  0.19844379534E+02  0.00000000000E+00 0.  1.
          2    1    1    2  502    0  0.50312404048E+02 -0.22308769166E+01  0.93954340262E+02  0.10660081082E+03  0.00000000000E+00 0. -1.
         -2    1    1    2    0  502 -0.50312404048E+02  0.22308769166E+01  0.33374199155E+02  0.60416487668E+02  0.00000000000E+00 0.  1.
</event>
<event>
 4    1  0.5841374E+003  0.2179334E+02  0.7546771E-02  0.1508233E+00
          2   -1    0    0  501    0  0.00000000000E+00  0.00000000000E+00  0.13520427705E+04  0.13520427705E+04  0.00000000000E+00 0. -1.
         -2   -1    0    0    0  501 -0.00000000000E+00 -0.00000000000E+00 -0.21926929957E+01  0.21926929957E+01  0.00000000000E+00 0. -1.
          2    1    1    2  502    0  0.94267465794E+01 -0.19649069724E+02  0.12954375369E+04  0.12956208401E+04  0.00000000000E+00 0. -1.
         -2    1    1    2    0  502 -0.94267465794E+01  0.19649069724E+02  0.54412540642E+02  0.58614623356E+02  0.00000000000E+00 0. -1.
</event>
<event>
 4    1  0.5841374E+003  0.3337094E+02  0.7546771E-02  0.1392392E+00
          2   -1    0    0  501    0  0.00000000000E+00  0.00000000000E+00  0.46013693195E+03  0.46013693195E+03  0.00000000000E+00 0. -1.
         -2   -1    0    0    0  501 -0.00000000000E+00 -0.00000000000E+00 -0.83785125714E+01  0.83785125714E+01  0.00000000000E+00 0. -1.
          2    1    1    2  502    0  0.29622323054E+02  0.15366775232E+02  0.42342709255E+03  0.42474006463E+03  0.00000000000E+00 0. -1.
         -2    1    1    2    0  502 -0.29622323054E+02 -0.15366775232E+02  0.28331326835E+02  0.43775379888E+02  0.00000000000E+00 0. -1.
</event>
<event>
 4    1  0.5841374E+003  0.2723255E+02  0.7546771E-02  0.1445286E+00
          2   -1    0    0  501    0  0.00000000000E+00  0.00000000000E+00  0.10011935803E+04  0.10011935803E+04  0.00000000000E+00 0.  1.
         -2   -1    0    0    0  501 -0.00000000000E+00 -0.00000000000E+00 -0.93051139834E+00  0.93051139834E+00  0.00000000000E+00 0.  1.
          2    1    1    2  502    0  0.24826864117E+02 -0.11191017289E+02  0.72641866033E+03  0.72692893884E+03  0.00000000000E+00 0.  1.
         -2    1    1    2    0  502 -0.24826864117E+02  0.11191017289E+02  0.27384440859E+03  0.27519515287E+03  0.00000000000E+00 0.  1.
</event>
<event>
 4    1  0.5841374E+003  0.2960616E+02  0.7546771E-02  0.1423050E+00
          2   -1    0    0  501    0  0.00000000000E+00  0.00000000000E+00  0.22171159119E+03  0.22171159119E+03  0.00000000000E+00 0. -1.
         -2   -1    0    0    0  501 -0.00000000000E+00 -0.00000000000E+00 -0.55272301970E+01  0.55272301970E+01  0.00000000000E+00 0. -1.
          2    1    1    2  502    0  0.29595614170E+02 -0.79009206614E+00  0.16871993148E+03  0.17129781056E+03  0.00000000000E+00 0. -1.
         -2    1    1    2    0  502 -0.29595614170E+02  0.79009206614E+00  0.47464429516E+02  0.55941010832E+02  0.00000000000E+00 0. -1.
</event>
<event>
 4    1  0.5841374E+003  0.3350943E+02  0.7546771E-02  0.1391356E+00
          2   -1    0    0  501    0  0.00000000000E+00  0.00000000000E+00  0.18824202909E+04  0.18824202909E+04  0.00000000000E+00 0. -1.
         -2   -1    0    0    0  501 -0.00000000000E+00 -0.00000000000E+00 -0.13684788976E+01  0.13684788976E+01  0.00000000000E+00 0. -1.
          2    1    1    2  502    0  0.32043949537E+02 -0.98013889624E+01  0.16479553744E+04  0.16482960286E+04  0.00000000000E+00 0. -1.
         -2    1    1    2    0  502 -0.32043949537E+02  0.98013889624E+01  0.23309643756E+03  0.23549274114E+03  0.00000000000E+00 0. -1.
</event>
<event>
 4    1  0.5841374E+003  0.3326465E+02  0.7546771E-02  0.1393192E+00
          2   -1    0    0  501    0  0.00000000000E+00  0.00000000000E+00  0.10116639553E+04  0.10116639553E+04  0.00000000000E+00 0. -1.
         -2   -1    0    0    0  501 -0.00000000000E+00 -0.00000000000E+00 -0.51189289495E+02  0.51189289495E+02  0.00000000000E+00 0.  1.
          2    1    1    2  502    0  0.25549826114E+02  0.21301247130E+02  0.10059557115E+04  0.10065055540E+04  0.00000000000E+00 0. -1.
         -2    1    1    2    0  502 -0.25549826114E+02 -0.21301247130E+02 -0.45481045675E+02  0.56347690809E+02  0.00000000000E+00 0.  1.
</event>
<event>
 4    1  0.5841374E+003  0.3124172E+02  0.7546771E-02  0.1409104E+00
          2   -1    0    0  501    0  0.00000000000E+00  0.00000000000E+00  0.28600217819E+03  0.28600217819E+03  0.00000000000E+00 0.  1.
         -2   -1    0    0    0  501 -0.00000000000E+00 -0.00000000000E+00 -0.40089996298E+01  0.40089996298E+01  0.00000000000E+00 0.  1.
          2    1    1    2  502    0  0.17827478540E+02  0.25655897175E+02  0.85073213604E+02  0.90628338415E+02  0.00000000000E+00 0.  1.
         -2    1    1    2    0  502 -0.17827478540E+02 -0.25655897175E+02  0.19691996496E+03  0.19938283941E+03  0.00000000000E+00 0.  1.
</event>
<event>
 4    1  0.5841374E+003  0.2517265E+02  0.7546771E-02  0.1466881E+00
          2   -1    0    0  501    0  0.00000000000E+00  0.00000000000E+00  0.23294028445E+02  0.23294028445E+02  0.00000000000E+00 0. -1.
         -2   -1    0    0    0  501 -0.00000000000E+00 -0.00000000000E+00 -0.62268289083E+02  0.62268289083E+02  0.00000000000E+00 0. -1.
          2    1    1    2  502    0  0.14061054326E+02 -0.20879396423E+02  0.12616867808E+02  0.28157553108E+02  0.00000000000E+00 0. -1.
         -2    1    1    2    0  502 -0.14061054326E+02  0.20879396423E+02 -0.51591128446E+02  0.57404764420E+02  0.00000000000E+00 0. -1.
</event>
<event>
 4    1  0.5841374E+003  0.2829976E+02  0.7546771E-02  0.1434971E+00
          2   -1    0    0  501    0  0.00000000000E+00  0.00000000000E+00  0.10824318551E+03  0.10824318551E+03  0.00000000000E+00 0.  1.
         -2   -1    0    0    0  501 -0.00000000000E+00 -0.00000000000E+00 -0.22434641564E+03  0.22434641564E+03  0.00000000000E+00 0. -1.
          2    1    1    2  502    0 -0.22090869484E+00 -0.28298895832E+02  0.10547802560E+03  0.10920847124E+03  0.00000000000E+00 0.  1.
         -2    1    1    2    0  502  0.22090869484E+00  0.28298895832E+02 -0.22158125574E+03  0.22338112991E+03  0.00000000000E+00 0. -1.
</event>
<event>
 4    1  0.5841374E+003  0.9347391E+02  0.7546771E-02  0.1175624E+00
          2   -1    0    0  501    0  0.00000000000E+00  0.00000000000E+00  0.35914540673E+03  0.35914540673E+03  0.00000000000E+00 0. -1.
         -2   -1    0    0    0  501 -0.00000000000E+00 -0.00000000000E+00 -0.83629544355E+02  0.83629544355E+02  0.00000000000E+00 0. -1.
          2    1    1    2  502    0 -0.93405820635E+02  0.35672587246E+01  0.32418343962E+03  0.33739038989E+03  0.00000000000E+00 0. -1.
         -2    1    1    2    0  502  0.93405820635E+02 -0.35672587246E+01 -0.48667577248E+02  0.10538456120E+03  0.00000000000E+00 0. -1.
</event>
<event>
 4    1  0.5841374E+003  0.2108462E+02  0.7546771E-02  0.1518060E+00
          2   -1    0    0  501    0  0.00000000000E+00  0.00000000000E+00  0.41757106522E+03  0.41757106522E+03  0.00000000000E+00 0. -1.
         -2   -1    0    0    0  501 -0.00000000000E+00 -0.00000000000E+00 -0.12541321895E+02  0.12541321895E+02  0.00000000000E+00 0.  1.
          2    1    1    2  502    0  0.13859365120E+02 -0.15889594873E+02  0.40824056907E+03  0.40878469083E+03  0.00000000000E+00 0. -1.
         -2    1    1    2    0  502 -0.13859365120E+02  0.15889594873E+02 -0.32108257429E+01  0.21327696282E+02  0.00000000000E+00 0.  1.
</event>
<event>
 4    1  0.5841374E+003  0.4674258E+02  0.7546771E-02  0.1312949E+00
          2   -1    0    0  501    0  0.00000000000E+00  0.00000000000E+00  0.17787151334E+03  0.17787151334E+03  0.00000000000E+00 0.  1.
         -2   -1    0    0    0  501 -0.00000000000E+00 -0.00000000000E+00 -0.19977493891E+02  0.19977493891E+02  0.00000000000E+00 0.  1.
          2    1    1    2  502    0 -0.24314118021E+02 -0.39921077768E+02  0.14033901591E+03  0.14791858630E+03  0.00000000000E+00 0.  1.
         -2    1    1    2    0  502  0.24314118021E+02  0.39921077768E+02  0.17555003535E+02  0.49930420931E+02  0.00000000000E+00 0.  1.
</event>
<event>
 4    1  0.5841374E+003  0.2068781E+02  0.7546771E-02  0.1523769E+00
          2   -1    0    0  501    0  0.00000000000E+00  0.00000000000E+00  0.20454911679E+03  0.20454911679E+03  0.00000000000E+00 0.  1.
         -2   -1    0    0    0  501 -0.00000000000E+00 -0.00000000000E+00 -0.21539960717E+02  0.21539960717E+02  0.00000000000E+00 0. -1.
          2    1    1    2  502    0 -0.19304655952E+02 -0.74374601495E+01  0.19891845974E+03  0.19999134776E+03  0.00000000000E+00 0.  1.
         -2    1    1    2    0  502  0.19304655952E+02  0.74374601495E+01 -0.15909303663E+02  0.26097729747E+02  0.00000000000E+00 0. -1.
</event>
<event>
 4    1  0.5841374E+003  0.2253221E+02  0.7546771E-02  0.1498457E+00
          2   -1    0    0  501    0  0.00000000000E+00  0.00000000000E+00  0.53182323884E+03  0.53182323884E+03  0.00000000000E+00 0.  1.
         -2   -1    0    0    0  501 -0.00000000000E+00 -0.00000000000E+00 -0.43446755637E+02  0.43446755637E+02  0.00000000000E+00 0.  1.
          2    1    1    2  502    0  0.22235704256E+02  0.36433362174E+01  0.52864563198E+03  0.52912560385E+03  0.00000000000E+00 0.  1.
         -2    1    1    2    0  502 -0.22235704256E+02 -0.36433362174E+01 -0.40269148778E+02  0.46144390622E+02  0.00000000000E+00 0.  1.
</event>
<event>
 4    1  0.5841374E+003  0.4844464E+02  0.7546771E-02  0.1305061E+00
          2   -1    0    0  501    0  0.00000000000E+00  0.00000000000E+00  0.56835509057E+03  0.56835509057E+03  0.00000000000E+00 0.  1.
         -2   -1    0    0    0  501 -0.00000000000E+00 -0.00000000000E+00 -0.82288908772E+02  0.82288908772E+02  0.00000000000E+00 0.  1.
          2    1    1    2  502    0  0.24721022398E+02  0.41662382115E+02  0.56008771774E+03  0.56217891689E+03  0.00000000000E+00 0.  1.
         -2    1    1    2    0  502 -0.24721022398E+02 -0.41662382115E+02 -0.74021535937E+02  0.88465082458E+02  0.00000000000E+00 0.  1.
</event>
<event>
 4    1  0.5841374E+003  0.2934461E+02  0.7546771E-02  0.1425379E+00
          2   -1    0    0  501    0  0.00000000000E+00  0.00000000000E+00  0.58384359181E+03  0.58384359181E+03  0.00000000000E+00 0. -1.
         -2   -1    0    0    0  501 -0.00000000000E+00 -0.00000000000E+00 -0.15462519787E+01  0.15462519787E+01  0.00000000000E+00 0. -1.
          2    1    1    2  502    0  0.27749653193E+02  0.95427004352E+01  0.35402709770E+03  0.35524117482E+03  0.00000000000E+00 0. -1.
         -2    1    1    2    0  502 -0.27749653193E+02 -0.95427004352E+01  0.22827024213E+03  0.23014866897E+03  0.00000000000E+00 0. -1.
</event>
<event>
 4    1  0.5841374E+003  0.2392957E+02  0.7546771E-02  0.1481144E+00
          2   -1    0    0  501    0  0.00000000000E+00  0.00000000000E+00  0.11895841556E+03  0.11895841556E+03  0.00000000000E+00 0. -1.
         -2   -1    0    0    0  501 -0.00000000000E+00 -0.00000000000E+00 -0.78496155520E+01  0.78496155520E+01  0.00000000000E+00 0.  1.
          2    1    1    2  502    0  0.23783152283E+02 -0.26431046318E+01  0.94985681833E+02  0.97953581292E+02  0.00000000000E+00 0. -1.
         -2    1    1    2    0  502 -0.23783152283E+02  0.26431046318E+01  0.16123118171E+02  0.28854449816E+02  0.00000000000E+00 0.  1.
</event>
<event>
 4    1  0.5841374E+003  0.5516634E+02  0.7546771E-02  0.1277203E+00
          2   -1    0    0  501    0  0.00000000000E+00  0.00000000000E+00  0.19405907312E+03  0.19405907312E+03  0.00000000000E+00 0. -1.
         -2   -1    0    0    0  501 -0.00000000000E+00 -0.00000000000E+00 -0.25244442929E+03  0.25244442929E+03  0.00000000000E+00 0.  1.
          2    1    1    2  502    0 -0.53838253503E+02  0.12031927884E+02  0.18701342281E+03  0.19498037116E+03  0.00000000000E+00 0. -1.
         -2    1    1    2    0  502  0.53838253503E+02 -0.12031927884E+02 -0.24539877897E+03  0.25152313124E+03  0.00000000000E+00 0.  1.
</event>
<event>
 4    1  0.5841374E+003  0.2883917E+02  0.7546771E-02  0.1429959E+00
          2   -1    0    0  501    0  0.00000000000E+00  0.00000000000E+00  0.77500911810E+02  0.77500911810E+02  0.00000000000E+00 0. -1.
         -2   -1    0    0    0  501 -0.00000000000E+00 -0.00000000000E+00 -0.73461383264E+02  0.73461383264E+02  0.00000000000E+00 0.  1.
          2    1    1    2  502    0  0.10540795584E+02  0.26843796390E+02  0.71770104197E+02  0.77347563844E+02  0.00000000000E+00 0. -1.
         -2    1    1    2    0  502 -0.10540795584E+02 -0.26843796390E+02 -0.67730575650E+02  0.73614731230E+02  0.00000000000E+00 0.  1.
</event>
<event>
 4    1  0.5841374E+003  0.2074612E+02  0.7546771E-02  0.1522921E+00
          2   -1    0    0  501    0  0.00000000000E+00  0.00000000000E+00  0.22721639382E+02  0.22721639382E+02  0.00000000000E+00 0.  1.
         -2   -1    0    0    0  501 -0.00000000000E+00 -0.00000000000E+00 -0.40679328588E+03  0.40679328588E+03  0.00000000000E+00 0.  1.
          2    1    1    2  502    0  0.92254764934E+01  0.18582033802E+02  0.17661938092E+02  0.27246017212E+02  0.00000000000E+00 0.  1.
         -2    1    1    2    0  502 -0.92254764934E+01 -0.18582033802E+02 -0.40173358459E+03  0.40226890805E+03  0.00000000000E+00 0.  1.
</event>
<event>
 4    1  0.5841374E+003  0.3115885E+02  0.7546771E-02  0.1409786E+00
          2   -1    0    0  501    0  0.00000000000E+00  0.00000000000E+00  0.23098509481E+02  0.23098509481E+02  0.00000000000E+00 0. -1.
         -2   -1    0    0    0  501 -0.00000000000E+00 -0.00000000000E+00 -0.93982934805E+02  0.93982934805E+02  0.00000000000E+00 0.  1.
          2    1    1    2  502    0  0.27702506769E+02  0.14263420467E+02  0.80819786852E+01  0.32189942904E+02  0.00000000000E+00 0. -1.
         -2    1    1    2    0  502 -0.27702506769E+02 -0.14263420467E+02 -0.78966404009E+02  0.84891501382E+02  0.00000000000E+00 0.  1.
</event>
<event>
 4    1  0.5841374E+003  0.2255229E+02  0.7546771E-02  0.1498198E+00
          2   -1    0    0  501    0  0.00000000000E+00  0.00000000000E+00  0.31099092274E+02  0.31099092274E+02  0.00000000000E+00 0.  1.
         -2   -1    0    0    0  501 -0.00000000000E+00 -0.00000000000E+00 -0.27659691717E+02  0.27659691717E+02  0.00000000000E+00 0.  1.
          2    1    1    2  502    0 -0.10109539134E+01 -0.22529624008E+02  0.20502513763E+02  0.30478829642E+02  0.00000000000E+00 0.  1.
         -2    1    1    2    0  502  0.10109539134E+01  0.22529624008E+02 -0.17063113206E+02  0.28279954349E+02  0.00000000000E+00 0.  1.
</event>
<event>
 4    1  0.5841374E+003  0.3318189E+02  0.7546771E-02  0.1393816E+00
          2   -1    0    0  501    0  0.00000000000E+00  0.00000000000E+00  0.21084189495E+02  0.21084189495E+02  0.00000000000E+00 0.  1.
         -2   -1    0    0    0  501 -0.00000000000E+00 -0.00000000000E+00 -0.52297949284E+02  0.52297949284E+02  0.00000000000E+00 0.  1.
          2    1    1    2  502    0 -0.33035093631E+02 -0.31177153780E+01 -0.14199514588E+02  0.36092433763E+02  0.00000000000E+00 0.  1.
         -2    1    1    2    0  502  0.33035093631E+02  0.31177153780E+01 -0.17014245201E+02  0.37289705015E+02  0.00000000000E+00 0.  1.
</event>
<event>
 4    1  0.5841374E+003  0.2968441E+02  0.7546771E-02  0.1422359E+00
          2   -1    0    0  501    0  0.00000000000E+00  0.00000000000E+00  0.18844902809E+02  0.18844902809E+02  0.00000000000E+00 0. -1.
         -2   -1    0    0    0  501 -0.00000000000E+00 -0.00000000000E+00 -0.72373918132E+02  0.72373918132E+02  0.00000000000E+00 0.  1.
          2    1    1    2  502    0  0.29101629130E+02 -0.58531522686E+01  0.36937684849E+00  0.29686708284E+02  0.00000000000E+00 0. -1.
         -2    1    1    2    0  502 -0.29101629130E+02  0.58531522686E+01 -0.53898392171E+02  0.61532112657E+02  0.00000000000E+00 0.  1.
</event>
<event>
 4    1  0.5841374E+003  0.5879190E+02  0.7546771E-02  0.1263993E+00
          2   -1    0    0  501    0  0.00000000000E+00  0.00000000000E+00  0.65729685161E+03  0.65729685161E+03  0.00000000000E+00 0. -1.
         -2   -1    0    0    0  501 -0.00000000000E+00 -0.00000000000E+00 -0.16597257886E+03  0.16597257886E+03  0.00000000000E+00 0. -1.
          2    1    1    2  502    0  0.22416129757E+01  0.58749153593E+02  0.65072328946E+03  0.65337377306E+03  0.00000000000E+00 0. -1.
         -2    1    1    2    0  502 -0.22416129757E+01 -0.58749153593E+02 -0.15939901671E+03  0.16989565740E+03  0.00000000000E+00 0. -1.
</event>
<event>
 4    1  0.5841374E+003  0.2012209E+02  0.7546771E-02  0.1532178E+00
          2   -1    0    0  501    0  0.00000000000E+00  0.00000000000E+00  0.10804053601E+02  0.10804053601E+02  0.00000000000E+00 0. -1.
         -2   -1    0    0    0  501 -0.00000000000E+00 -0.00000000000E+00 -0.14783849371E+03  0.14783849371E+03  0.00000000000E+00 0. -1.
          2    1    1    2  502    0 -0.17016384064E+02 -0.10739701337E+02  0.16705903751E-01  0.20122097070E+02  0.00000000000E+00 0. -1.
         -2    1    1    2    0  502  0.17016384064E+02  0.10739701337E+02 -0.13705114601E+03  0.13852045024E+03  0.00000000000E+00 0. -1.
</event>
<event>
 4    1  0.5841374E+003  0.2153326E+02  0.7546771E-02  0.1511786E+00
          2   -1    0    0  501    0  0.00000000000E+00  0.00000000000E+00  0.16821663348E+03  0.16821663348E+03  0.00000000000E+00 0.  1.
         -2   -1    0    0    0  501 -0.00000000000E+00 -0.00000000000E+00 -0.13730487024E+03  0.13730487024E+03  0.00000000000E+00 0.  1.
          2    1    1    2  502    0 -0.71564899107E+01  0.20309260358E+02  0.16667549080E+03  0.16806070521E+03  0.00000000000E+00 0.  1.
         -2    1    1    2    0  502  0.71564899107E+01 -0.20309260358E+02 -0.13576372756E+03  0.13746079851E+03  0.00000000000E+00 0.  1.
</event>
<event>
 4    1  0.5841374E+003  0.2151429E+02  0.7546771E-02  0.1512047E+00
          2   -1    0    0  501    0  0.00000000000E+00  0.00000000000E+00  0.42080302747E+01  0.42080302747E+01  0.00000000000E+00 0.  1.
         -2   -1    0    0    0  501 -0.00000000000E+00 -0.00000000000E+00 -0.28748272612E+03  0.28748272612E+03  0.00000000000E+00 0.  1.
          2    1    1    2  502    0  0.21341510208E+02 -0.27211406455E+01 -0.27041134868E+02  0.34555573202E+02  0.00000000000E+00 0.  1.
         -2    1    1    2    0  502 -0.21341510208E+02  0.27211406455E+01 -0.25623356098E+03  0.25713518320E+03  0.00000000000E+00 0.  1.
</event>
<event>
 4    1  0.5841374E+003  0.3290092E+02  0.7546771E-02  0.1395953E+00
          2   -1    0    0  501    0  0.00000000000E+00  0.00000000000E+00  0.16048415944E+04  0.16048415944E+04  0.00000000000E+00 0.  1.
         -2   -1    0    0    0  501 -0.00000000000E+00 -0.00000000000E+00 -0.44226592656E+01  0.44226592656E+01  0.00000000000E+00 0.  1.
          2    1    1    2  502    0 -0.19134405572E+02  0.26764618297E+02  0.15409472207E+04  0.15412984160E+04  0.00000000000E+00 0.  1.
         -2    1    1    2    0  502  0.19134405572E+02 -0.26764618297E+02  0.59471714507E+02  0.67965837709E+02  0.00000000000E+00 0.  1.
</event>
<event>
 4    1  0.5841374E+003  0.2733042E+02  0.7546771E-02  0.1444317E+00
          2   -1    0    0  501    0  0.00000000000E+00  0.00000000000E+00  0.64049926941E+02  0.64049926941E+02  0.00000000000E+00 0. -1.
         -2   -1    0    0    0  501 -0.00000000000E+00 -0.00000000000E+00 -0.30125652053E+02  0.30125652053E+02  0.00000000000E+00 0.  1.
          2    1    1    2  502    0  0.20508485391E+02  0.18065267312E+02  0.53825808641E+02  0.60366957286E+02  0.00000000000E+00 0. -1.
         -2    1    1    2    0  502 -0.20508485391E+02 -0.18065267312E+02 -0.19901533753E+02  0.33808621708E+02  0.00000000000E+00 0.  1.
</event>
<event>
 4    1  0.5841374E+003  0.2068412E+02  0.7546771E-02  0.1523823E+00
          2   -1    0    0  501    0  0.00000000000E+00  0.00000000000E+00  0.10063051957E+03  0.10063051957E+03  0.00000000000E+00 0. -1.
         -2   -1    0    0    0  501 -0.00000000000E+00 -0.00000000000E+00 -0.20943887333E+02  0.20943887333E+02  0.00000000000E+00 0.  1.
          2    1    1    2  502    0 -0.19479574891E+02  0.69554917653E+01  0.94111149046E+02  0.96357361309E+02  0.00000000000E+00 0. -1.
         -2    1    1    2    0  502  0.19479574891E+02 -0.69554917653E+01 -0.14424516805E+02  0.25217045598E+02  0.00000000000E+00 0.  1.
</event>
<event>
 4    1  0.5841374E+003  0.2115409E+02  0.7546771E-02  0.1517076E+00
          2   -1    0    0  501    0  0.00000000000E+00  0.00000000000E+00  0.62101097718E+03  0.62101097718E+03  0.00000000000E+00 0.  1.
         -2   -1    0    0    0  501 -0.00000000000E+00 -0.00000000000E+00 -0.21388916596E+01  0.21388916596E+01  0.00000000000E+00 0.  1.
          2    1    1    2  502    0 -0.20960576519E+02 -0.28547705547E+01  0.56315454133E+03  0.56355171271E+03  0.00000000000E+00 0.  1.
         -2    1    1    2    0  502  0.20960576519E+02  0.28547705547E+01  0.55717544197E+02  0.59598156131E+02  0.00000000000E+00 0.  1.
</event>
<event>
 4    1  0.5841374E+003  0.2921029E+02  0.7546771E-02  0.1426585E+00
          2   -1    0    0  501    0  0.00000000000E+00  0.00000000000E+00  0.12718351031E+03  0.12718351031E+03  0.00000000000E+00 0. -1.
         -2   -1    0    0    0  501 -0.00000000000E+00 -0.00000000000E+00 -0.78627799182E+02  0.78627799182E+02  0.00000000000E+00 0.  1.
          2    1    1    2  502    0  0.29204780226E+02  0.56713983832E+00  0.12269554967E+03  0.12612469522E+03  0.00000000000E+00 0. -1.
         -2    1    1    2    0  502 -0.29204780226E+02 -0.56713983832E+00 -0.74139838539E+02  0.79686614273E+02  0.00000000000E+00 0.  1.
</event>
<event>
 4    1  0.5841374E+003  0.2074623E+02  0.7546771E-02  0.1522919E+00
          2   -1    0    0  501    0  0.00000000000E+00  0.00000000000E+00  0.45598663250E+03  0.45598663250E+03  0.00000000000E+00 0.  1.
         -2   -1    0    0    0  501 -0.00000000000E+00 -0.00000000000E+00 -0.19288469646E+03  0.19288469646E+03  0.00000000000E+00 0.  1.
          2    1    1    2  502    0 -0.20223141034E+02  0.46293094707E+01  0.45519182994E+03  0.45566435891E+03  0.00000000000E+00 0.  1.
         -2    1    1    2    0  502  0.20223141034E+02 -0.46293094707E+01 -0.19208989390E+03  0.19320697005E+03  0.00000000000E+00 0.  1.
</event>
<event>
 4    1  0.5841374E+003  0.2404841E+02  0.7546771E-02  0.1479737E+00
          2   -1    0    0  501    0  0.00000000000E+00  0.00000000000E+00  0.19435458315E+04  0.19435458315E+04  0.00000000000E+00 0.  1.
         -2   -1    0    0    0  501 -0.00000000000E+00 -0.00000000000E+00 -0.41587169475E+00  0.41587169475E+00  0.00000000000E+00 0.  1.
          2    1    1    2  502    0 -0.18109455751E+02 -0.15823193359E+02  0.14899921678E+04  0.14901862252E+04  0.00000000000E+00 0.  1.
         -2    1    1    2    0  502  0.18109455751E+02  0.15823193359E+02  0.45313779201E+03  0.45377547794E+03  0.00000000000E+00 0.  1.
</event>
<event>
 4    1  0.5841374E+003  0.4998833E+02  0.7546771E-02  0.1298223E+00
          2   -1    0    0  501    0  0.00000000000E+00  0.00000000000E+00  0.56113895880E+02  0.56113895880E+02  0.00000000000E+00 0. -1.
         -2   -1    0    0    0  501 -0.00000000000E+00 -0.00000000000E+00 -0.12029436346E+03  0.12029436346E+03  0.00000000000E+00 0. -1.
          2    1    1    2  502    0 -0.22067222235E+02 -0.44853884824E+02  0.37909212816E+02  0.62737083908E+02  0.00000000000E+00 0. -1.
         -2    1    1    2    0  502  0.22067222235E+02  0.44853884824E+02 -0.10208968040E+03  0.11367117544E+03  0.00000000000E+00 0. -1.
</event>
<event>
 4    1  0.5841374E+003  0.2102947E+02  0.7546771E-02  0.1518844E+00
          2   -1    0    0  501    0  0.00000000000E+00  0.00000000000E+00  0.25717270246E+03  0.25717270246E+03  0.00000000000E+00 0.  1.
         -2   -1    0    0    0  501 -0.00000000000E+00 -0.00000000000E+00 -0.14892235194E+02  0.14892235194E+02  0.00000000000E+00 0.  1.
          2    1    1    2  502    0  0.20796637670E+02 -0.31206645968E+01  0.24907797526E+03  0.24996415032E+03  0.00000000000E+00 0.  1.
         -2    1    1    2    0  502 -0.20796637670E+02  0.31206645968E+01 -0.67975079921E+01  0.22100787335E+02  0.00000000000E+00 0.  1.
</event>
<event>
 4    1  0.5841374E+003  0.2000727E+02  0.7546771E-02  0.1533924E+00
          2   -1    0    0  501    0  0.00000000000E+00  0.00000000000E+00  0.59900652697E+01  0.59900652697E+01  0.00000000000E+00 0. -1.
         -2   -1    0    0    0  501 -0.00000000000E+00 -0.00000000000E+00 -0.12494031944E+03  0.12494031944E+03  0.00000000000E+00 0. -1.
          2    1    1    2  502    0  0.11155069434E+01  0.19976149216E+02 -0.14827182111E+02  0.24902534461E+02  0.00000000000E+00 0. -1.
         -2    1    1    2    0  502 -0.11155069434E+01 -0.19976149216E+02 -0.10412307206E+03  0.10602785025E+03  0.00000000000E+00 0. -1.
</event>
<event>
 4    1  0.5841374E+003  0.2600251E+02  0.7546771E-02  0.1457894E+00
          2   -1    0    0  501    0  0.00000000000E+00  0.00000000000E+00  0.63075315270E+01  0.63075315270E+01  0.00000000000E+00 0. -1.
         -2   -1    0    0    0  501 -0.00000000000E+00 -0.00000000000E+00 -0.15536566333E+03  0.15536566333E+03  0.00000000000E+00 0. -1.
          2    1    1    2  502    0  0.21677079420E+02  0.14360873772E+02 -0.29517340845E+02  0.39337054773E+02  0.00000000000E+00 0. -1.
         -2    1    1    2    0  502 -0.21677079420E+02 -0.14360873772E+02 -0.11954079095E+03  0.12233614008E+03  0.00000000000E+00 0. -1.
</event>
<event>
 4    1  0.5841374E+003  0.2365975E+02  0.7546771E-02  0.1484376E+00
          2   -1    0    0  501    0  0.00000000000E+00  0.00000000000E+00  0.67433270553E+02  0.67433270553E+02  0.00000000000E+00 0. -1.
         -2   -1    0    0    0  501 -0.00000000000E+00 -0.00000000000E+00 -0.47516062500E+02  0.47516062500E+02  0.00000000000E+00 0. -1.
          2    1    1    2  502    0  0.20301106971E+02 -0.12151087379E+02  0.62171890179E+02  0.66521634054E+02  0.00000000000E+00 0. -1.
         -2    1    1    2    0  502 -0.20301106971E+02  0.12151087379E+02 -0.42254682126E+02  0.48427698999E+02  0.00000000000E+00 0. -1.
</event>
<event>
 4    1  0.5841374E+003  0.3978897E+02  0.7546771E-02  0.1349727E+00
          2   -1    0    0  501    0  0.00000000000E+00  0.00000000000E+00  0.49608525974E+03  0.49608525974E+03  0.00000000000E+00 0. -1.
         -2   -1    0    0    0  501 -0.00000000000E+00 -0.00000000000E+00 -0.65339674662E+03  0.65339674662E+03  0.00000000000E+00 0.  1.
          2    1    1    2  502    0  0.19403841068E+02  0.34736911915E+02  0.49467997106E+03  0.49627757945E+03  0.00000000000E+00 0. -1.
         -2    1    1    2    0  502 -0.19403841068E+02 -0.34736911915E+02 -0.65199145794E+03  0.65320442691E+03  0.00000000000E+00 0.  1.
</event>
<event>
 4    1  0.5841374E+003  0.3227664E+02  0.7546771E-02  0.1400792E+00
          2   -1    0    0  501    0  0.00000000000E+00  0.00000000000E+00  0.10020687779E+04  0.10020687779E+04  0.00000000000E+00 0.  1.
         -2   -1    0    0    0  501 -0.00000000000E+00 -0.00000000000E+00 -0.84930544513E+01  0.84930544513E+01  0.00000000000E+00 0.  1.
          2    1    1    2  502    0 -0.13645565172E+02 -0.29250300154E+02  0.97013400920E+03  0.97067078730E+03  0.00000000000E+00 0.  1.
         -2    1    1    2    0  502  0.13645565172E+02  0.29250300154E+02  0.23441714233E+02  0.39891045037E+02  0.00000000000E+00 0.  1.
</event>
<event>
 4    1  0.5841374E+003  0.2072707E+02  0.7546771E-02  0.1523197E+00
          2   -1    0    0  501    0  0.00000000000E+00  0.00000000000E+00  0.96132282288E+03  0.96132282288E+03  0.00000000000E+00 0. -1.
         -2   -1    0    0    0  501 -0.00000000000E+00 -0.00000000000E+00 -0.31502754806E+02  0.31502754806E+02  0.00000000000E+00 0. -1.
          2    1    1    2  502    0  0.60397841319E+01 -0.19827571046E+02  0.95778920468E+03  0.95801345093E+03  0.00000000000E+00 0. -1.
         -2    1    1    2    0  502 -0.60397841319E+01  0.19827571046E+02 -0.27969136612E+02  0.34812126748E+02  0.00000000000E+00 0. -1.
</event>
<event>
 4    1  0.5841374E+003  0.2089190E+02  0.7546771E-02  0.1520814E+00
          2   -1    0    0  501    0  0.00000000000E+00  0.00000000000E+00  0.13887812699E+03  0.13887812699E+03  0.00000000000E+00 0. -1.
         -2   -1    0    0    0  501 -0.00000000000E+00 -0.00000000000E+00 -0.39623937924E+02  0.39623937924E+02  0.00000000000E+00 0.  1.
          2    1    1    2  502    0  0.15675714876E+02  0.13810986717E+02  0.13526546526E+03  0.13686934457E+03  0.00000000000E+00 0. -1.
         -2    1    1    2    0  502 -0.15675714876E+02 -0.13810986717E+02 -0.36011276188E+02  0.41632720349E+02  0.00000000000E+00 0.  1.
</event>
<event>
 4    1  0.5841374E+003  0.2305509E+02  0.7546771E-02  0.1491808E+00
          2   -1    0    0  501    0  0.00000000000E+00  0.00000000000E+00  0.15081082661E+03  0.15081082661E+03  0.00000000000E+00 0.  1.
         -2   -1    0    0    0  501 -0.00000000000E+00 -0.00000000000E+00 -0.68876840098E+01  0.68876840098E+01  0.00000000000E+00 0.  1.
          2    1    1    2  502    0  0.61396050306E+01 -0.22222568548E+02  0.12705938395E+03  0.12913413318E+03  0.00000000000E+00 0.  1.
         -2    1    1    2    0  502 -0.61396050306E+01  0.22222568548E+02  0.16863758657E+02  0.28564377445E+02  0.00000000000E+00 0.  1.
</event>
<event>
 4    1  0.5841374E+003  0.2312860E+02  0.7546771E-02  0.1490890E+00
          2   -1    0    0  501    0  0.00000000000E+00  0.00000000000E+00  0.15062786051E+04  0.15062786051E+04  0.00000000000E+00 0.  1.
         -2   -1    0    0    0  501 -0.00000000000E+00 -0.00000000000E+00 -0.20160305814E+01  0.20160305814E+01  0.00000000000E+00 0. -1.
          2    1    1    2  502    0  0.33448290510E+01 -0.22885455082E+02  0.14366397556E+04  0.14368259182E+04  0.00000000000E+00 0.  1.
         -2    1    1    2    0  502 -0.33448290510E+01  0.22885455082E+02  0.67622818981E+02  0.71468717511E+02  0.00000000000E+00 0. -1.
</event>
<event>
 4    1  0.5841374E+003  0.4709357E+02  0.7546771E-02  0.1311291E+00
          2   -1    0    0  501    0  0.00000000000E+00  0.00000000000E+00  0.40754190790E+03  0.40754190790E+03  0.00000000000E+00 0.  1.
         -2   -1    0    0    0  501 -0.00000000000E+00 -0.00000000000E+00 -0.82861895272E+01  0.82861895272E+01  0.00000000000E+00 0.  1.
          2    1    1    2  502    0  0.46983823998E+02  0.32131781912E+01  0.32144066454E+03  0.32487213646E+03  0.00000000000E+00 0.  1.
         -2    1    1    2    0  502 -0.46983823998E+02 -0.32131781912E+01  0.77815053833E+02  0.90955960962E+02  0.00000000000E+00 0.  1.
</event>
<event>
 4    1  0.5841374E+003  0.2701829E+02  0.7546771E-02  0.1447424E+00
          2   -1    0    0  501    0  0.00000000000E+00  0.00000000000E+00  0.93329907264E+03  0.93329907264E+03  0.00000000000E+00 0. -1.
         -2   -1    0    0    0  501 -0.00000000000E+00 -0.00000000000E+00 -0.86649531115E+01  0.86649531115E+01  0.00000000000E+00 0. -1.
          2    1    1    2  502    0 -0.75380750865E+01 -0.25945434292E+02  0.91153936136E+03  0.91193968849E+03  0.00000000000E+00 0. -1.
         -2    1    1    2    0  502  0.75380750865E+01  0.25945434292E+02  0.13094758174E+02  0.30024337266E+02  0.00000000000E+00 0. -1.
</event>
<event>
 4    1  0.5841374E+003  0.2150303E+02  0.7546771E-02  0.1512203E+00
          2   -1    0    0  501    0  0.00000000000E+00  0.00000000000E+00  0.96755386734E+03  0.96755386734E+03  0.00000000000E+00 0. -1.
         -2   -1    0    0    0  501 -0.00000000000E+00 -0.00000000000E+00 -0.47799867488E+00  0.47799867488E+00  0.00000000000E+00 0. -1.
          2    1    1    2  502    0  0.12348343337E+02 -0.17603927665E+02  0.47608646515E+03  0.47657182266E+03  0.00000000000E+00 0. -1.
         -2    1    1    2    0  502 -0.12348343337E+02  0.17603927665E+02  0.49098940352E+03  0.49146004336E+03  0.00000000000E+00 0. -1.
</event>
<event>
 4    1  0.5841374E+003  0.2245701E+02  0.7546771E-02  0.1499431E+00
          2   -1    0    0  501    0  0.00000000000E+00  0.00000000000E+00  0.37445048923E+03  0.37445048923E+03  0.00000000000E+00 0.  1.
         -2   -1    0    0    0  501 -0.00000000000E+00 -0.00000000000E+00 -0.21863308879E+02  0.21863308879E+02  0.00000000000E+00 0. -1.
          2    1    1    2  502    0  0.22455465349E+02 -0.26329728554E+00  0.36825006962E+03  0.36893418251E+03  0.00000000000E+00 0.  1.
         -2    1    1    2    0  502 -0.22455465349E+02  0.26329728554E+00 -0.15662889275E+02  0.27379615592E+02  0.00000000000E+00 0. -1.
</event>
<event>
 4    1  0.5841374E+003  0.2865322E+02  0.7546771E-02  0.1431672E+00
          2   -1    0    0  501    0  0.00000000000E+00  0.00000000000E+00  0.14091713365E+02  0.14091713365E+02  0.00000000000E+00 0. -1.
         -2   -1    0    0    0  501 -0.00000000000E+00 -0.00000000000E+00 -0.60034274711E+02  0.60034274711E+02  0.00000000000E+00 0. -1.
          2    1    1    2  502    0  0.12443985127E+02 -0.25809952504E+02 -0.29339965665E+02  0.41010242615E+02  0.00000000000E+00 0. -1.
         -2    1    1    2    0  502 -0.12443985127E+02  0.25809952504E+02 -0.16602595681E+02  0.33115745461E+02  0.00000000000E+00 0. -1.
</event>
<event>
 4    1  0.5841374E+003  0.3622726E+02  0.7546771E-02  0.1372135E+00
          2   -1    0    0  501    0  0.00000000000E+00  0.00000000000E+00  0.16244927223E+02  0.16244927223E+02  0.00000000000E+00 0.  1.
         -2   -1    0    0    0  501 -0.00000000000E+00 -0.00000000000E+00 -0.90626100290E+02  0.90626100290E+02  0.00000000000E+00 0. -1.
          2    1    1    2  502    0 -0.22059802709E+02 -0.28736377502E+02 -0.19585709193E+02  0.41182694085E+02  0.00000000000E+00 0.  1.
         -2    1    1    2    0  502  0.22059802709E+02  0.28736377502E+02 -0.54795463873E+02  0.65688333428E+02  0.00000000000E+00 0. -1.
</event>
<event>
 4    1  0.5841374E+003  0.2765969E+02  0.7546771E-02  0.1441092E+00
          2   -1    0    0  501    0  0.00000000000E+00  0.00000000000E+00  0.16742262002E+04  0.16742262002E+04  0.00000000000E+00 0. -1.
         -2   -1    0    0    0  501 -0.00000000000E+00 -0.00000000000E+00 -0.39468563705E+01  0.39468563705E+01  0.00000000000E+00 0.  1.
          2    1    1    2  502    0 -0.68923079178E+01 -0.26787208969E+02  0.16241582001E+04  0.16243937076E+04  0.00000000000E+00 0. -1.
         -2    1    1    2    0  502  0.68923079178E+01  0.26787208969E+02  0.46121143761E+02  0.53779348961E+02  0.00000000000E+00 0.  1.
</event>
<event>
 4    1  0.5841374E+003  0.2593698E+02  0.7546771E-02  0.1458589E+00
          2   -1    0    0  501    0  0.00000000000E+00  0.00000000000E+00  0.64139031774E+01  0.64139031774E+01  0.00000000000E+00 0. -1.
         -2   -1    0    0    0  501 -0.00000000000E+00 -0.00000000000E+00 -0.17773909133E+03  0.17773909133E+03  0.00000000000E+00 0.  1.
          2    1    1    2  502    0 -0.49289769124E+00 -0.25932294696E+02 -0.26712821073E+02  0.37233072207E+02  0.00000000000E+00 0. -1.
         -2    1    1    2    0  502  0.49289769124E+00  0.25932294696E+02 -0.14461236708E+03  0.14691992230E+03  0.00000000000E+00 0.  1.
</event>
<event>
 4    1  0.5841374E+003  0.2576793E+02  0.7546771E-02  0.1460393E+00
          2   -1    0    0  501    0  0.00000000000E+00  0.00000000000E+00  0.64774117969E+03  0.64774117969E+03  0.00000000000E+00 0.  1.
         -2   -1    0    0    0  501 -0.00000000000E+00 -0.00000000000E+00 -0.60716577670E+01  0.60716577670E+01  0.00000000000E+00 0. -1.
          2    1    1    2  502    0 -0.25613229232E+02 -0.28193611426E+01  0.61887047232E+03  0.61940669016E+03  0.00000000000E+00 0.  1.
         -2    1    1    2    0  502  0.25613229232E+02  0.28193611426E+01  0.22799049609E+02  0.34406147300E+02  0.00000000000E+00 0. -1.
</event>
<event>
 4    1  0.5841374E+003  0.2191834E+02  0.7546771E-02  0.1506546E+00
          2   -1    0    0  501    0  0.00000000000E+00  0.00000000000E+00  0.23028078179E+03  0.23028078179E+03  0.00000000000E+00 0. -1.
         -2   -1    0    0    0  501 -0.00000000000E+00 -0.00000000000E+00 -0.47806529224E+02  0.47806529224E+02  0.00000000000E+00 0. -1.
          2    1    1    2  502    0  0.38123068901E+01 -0.21584255706E+02  0.22721310787E+03  0.22826784742E+03  0.00000000000E+00 0. -1.
         -2    1    1    2    0  502 -0.38123068901E+01  0.21584255706E+02 -0.44738855307E+02  0.49819463590E+02  0.00000000000E+00 0. -1.
</event>
<event>
 4    1  0.5841374E+003  0.5748031E+02  0.7546771E-02  0.1268643E+00
          2   -1    0    0  501    0  0.00000000000E+00  0.00000000000E+00  0.55289295698E+03  0.55289295698E+03  0.00000000000E+00 0.  1.
         -2   -1    0    0    0  501 -0.00000000000E+00 -0.00000000000E+00 -0.31488457252E+02  0.31488457252E+02  0.00000000000E+00 0.  1.
          2    1    1    2  502    0 -0.53628384223E+02  0.20687730965E+02  0.52370993012E+03  0.52685489151E+03  0.00000000000E+00 0.  1.
         -2    1    1    2    0  502  0.53628384223E+02 -0.20687730965E+02 -0.23054303889E+01  0.57526522719E+02  0.00000000000E+00 0.  1.
</event>
<event>
 4    1  0.5841374E+003  0.3844220E+02  0.7546771E-02  0.1357864E+00
          2   -1    0    0  501    0  0.00000000000E+00  0.00000000000E+00  0.39148434164E+03  0.39148434164E+03  0.00000000000E+00 0. -1.
         -2   -1    0    0    0  501 -0.00000000000E+00 -0.00000000000E+00 -0.22864419723E+02  0.22864419723E+02  0.00000000000E+00 0. -1.
          2    1    1    2  502    0  0.34210650376E+02  0.17533790683E+02  0.37361135055E+03  0.37558387036E+03  0.00000000000E+00 0. -1.
         -2    1    1    2    0  502 -0.34210650376E+02 -0.17533790683E+02 -0.49914286317E+01  0.38764891005E+02  0.00000000000E+00 0. -1.
</event>
<event>
 4    1  0.5841374E+003  0.3147224E+02  0.7546771E-02  0.1407220E+00
          2   -1    0    0  501    0  0.00000000000E+00  0.00000000000E+00  0.10532552440E+03  0.10532552440E+03  0.00000000000E+00 0.  1.
         -2   -1    0    0    0  501 -0.00000000000E+00 -0.00000000000E+00 -0.17831988070E+02  0.17831988070E+02  0.00000000000E+00 0. -1.
          2    1    1    2  502    0 -0.16475235276E+02 -0.26815450115E+02  0.86080637882E+02  0.91653575819E+02  0.00000000000E+00 0.  1.
         -2    1    1    2    0  502  0.16475235276E+02  0.26815450115E+02  0.14128984436E+01  0.31503936647E+02  0.00000000000E+00 0. -1.
</event>
<event>
 4    1  0.5841374E+003  0.2626631E+02  0.7546771E-02  0.1455121E+00
          2   -1    0    0  501    0  0.00000000000E+00  0.00000000000E+00  0.25190715598E+03  0.25190715598E+03  0.00000000000E+00 0.  1.
         -2   -1    0    0    0  501 -0.00000000000E+00 -0.00000000000E+00 -0.92777026581E+03  0.92777026581E+03  0.00000000000E+00 0.  1.
          2    1    1    2  502    0  0.26018523594E+02 -0.35993416992E+01  0.25103590920E+03  0.25240631240E+03  0.00000000000E+00 0.  1.
         -2    1    1    2    0  502 -0.26018523594E+02  0.35993416992E+01 -0.92689901903E+03  0.92727110939E+03  0.00000000000E+00 0.  1.
</event>
<event>
 4    1  0.5841374E+003  0.2319071E+02  0.7546771E-02  0.1490117E+00
          2   -1    0    0  501    0  0.00000000000E+00  0.00000000000E+00  0.32387172090E+01  0.32387172090E+01  0.00000000000E+00 0.  1.
         -2   -1    0    0    0  501 -0.00000000000E+00 -0.00000000000E+00 -0.11120479281E+04  0.11120479281E+04  0.00000000000E+00 0.  1.
          2    1    1    2  502    0 -0.67648424330E+01 -0.22182111254E+02 -0.40078678653E+02  0.46304531478E+02  0.00000000000E+00 0.  1.
         -2    1    1    2    0  502  0.67648424330E+01  0.22182111254E+02 -0.10687305323E+04  0.10689821139E+04  0.00000000000E+00 0.  1.
</event>
<event>
 4    1  0.5841374E+003  0.2250847E+02  0.7546771E-02  0.1498764E+00
          2   -1    0    0  501    0  0.00000000000E+00  0.00000000000E+00  0.31777470898E+01  0.31777470898E+01  0.00000000000E+00 0. -1.
         -2   -1    0    0    0  501 -0.00000000000E+00 -0.00000000000E+00 -0.18613100119E+03  0.18613100119E+03  0.00000000000E+00 0. -1.
          2    1    1    2  502    0  0.19907836169E+02  0.10502812031E+02 -0.55626724268E+02  0.60008028248E+02  0.00000000000E+00 0. -1.
         -2    1    1    2    0  502 -0.19907836169E+02 -0.10502812031E+02 -0.12732652983E+03  0.12930072003E+03  0.00000000000E+00 0. -1.
</event>
<event>
 4    1  0.5841374E+003  0.2766800E+02  0.7546771E-02  0.1441011E+00
          2   -1    0    0  501    0  0.00000000000E+00  0.00000000000E+00  0.16006454919E+04  0.16006454919E+04  0.00000000000E+00 0. -1.
         -2   -1    0    0    0  501 -0.00000000000E+00 -0.00000000000E+00 -0.79945853413E+01  0.79945853413E+01  0.00000000000E+00 0.  1.
          2    1    1    2  502    0  0.37572191467E+01  0.27411706091E+02  0.15762162899E+04  0.15764591053E+04  0.00000000000E+00 0. -1.
         -2    1    1    2    0  502 -0.37572191467E+01 -0.27411706091E+02  0.16434616660E+02  0.32180971883E+02  0.00000000000E+00 0.  1.
</event>
<event>
 4    1  0.5841374E+003  0.2155985E+02  0.7546771E-02  0.1511420E+00
          2   -1    0    0  501    0  0.00000000000E+00  0.00000000000E+00  0.15539525566E+04  0.15539525566E+04  0.00000000000E+00 0. -1.
         -2   -1    0    0    0  501 -0.00000000000E+00 -0.00000000000E+00 -0.30528461542E+00  0.30528461542E+00  0.00000000000E+00 0. -1.
          2    1    1    2  502    0  0.15664481892E+02 -0.14813881213E+02  0.88720467380E+03  0.88746659671E+03  0.00000000000E+00 0. -1.
         -2    1    1    2    0  502 -0.15664481892E+02  0.14813881213E+02  0.66644259820E+03  0.66679124452E+03  0.00000000000E+00 0. -1.
</event>
<event>
 4    1  0.5841374E+003  0.3389024E+02  0.7546771E-02  0.1388538E+00
          2   -1    0    0  501    0  0.00000000000E+00  0.00000000000E+00  0.71801376836E+03  0.71801376836E+03  0.00000000000E+00 0.  1.
         -2   -1    0    0    0  501 -0.00000000000E+00 -0.00000000000E+00 -0.16005357433E+01  0.16005357433E+01  0.00000000000E+00 0.  1.
          2    1    1    2  502    0  0.16892626735E+02 -0.29380050319E+02  0.36681953768E+03  0.36838176043E+03  0.00000000000E+00 0.  1.
         -2    1    1    2    0  502 -0.16892626735E+02  0.29380050319E+02  0.34959369494E+03  0.35123254367E+03  0.00000000000E+00 0.  1.
</event>
<event>
 4    1  0.5841374E+003  0.2480485E+02  0.7546771E-02  0.1470998E+00
          2   -1    0    0  501    0  0.00000000000E+00  0.00000000000E+00  0.30684022857E+03  0.30684022857E+03  0.00000000000E+00 0.  1.
         -2   -1    0    0    0  501 -0.00000000000E+00 -0.00000000000E+00 -0.60699312809E+01  0.60699312809E+01  0.00000000000E+00 0. -1.
          2    1    1    2  502    0 -0.23532432108E+02  0.78425193508E+01  0.27841549716E+03  0.27951828120E+03  0.00000000000E+00 0.  1.
         -2    1    1    2    0  502  0.23532432108E+02 -0.78425193508E+01  0.22354800139E+02  0.33391878652E+02  0.00000000000E+00 0. -1.
</event>
<event>
 4    1  0.5841374E+003  0.3124153E+02  0.7546771E-02  0.1409106E+00
          2   -1    0    0  501    0  0.00000000000E+00  0.00000000000E+00  0.76358530970E+02  0.76358530970E+02  0.00000000000E+00 0.  1.
         -2   -1    0    0    0  501 -0.00000000000E+00 -0.00000000000E+00 -0.32160283713E+02  0.32160283713E+02  0.00000000000E+00 0. -1.
          2    1    1    2  502    0 -0.16637973943E+02  0.26442600922E+02  0.64217346544E+02  0.71413590566E+02  0.00000000000E+00 0.  1.
         -2    1    1    2    0  502  0.16637973943E+02 -0.26442600922E+02 -0.20019099288E+02  0.37105224116E+02  0.00000000000E+00 0. -1.
</event>
<event>
 4    1  0.5841374E+003  0.2131483E+02  0.7546771E-02  0.1514817E+00
          2   -1    0    0  501    0  0.00000000000E+00  0.00000000000E+00  0.23569746966E+03  0.23569746966E+03  0.00000000000E+00 0.  1.
         -2   -1    0    0    0  501 -0.00000000000E+00 -0.00000000000E+00 -0.78911918978E+02  0.78911918978E+02  0.00000000000E+00 0.  1.
          2    1    1    2  502    0  0.88075734980E+01 -0.19410010881E+02  0.23376436868E+03  0.23473410902E+03  0.00000000000E+00 0.  1.
         -2    1    1    2    0  502 -0.88075734980E+01  0.19410010881E+02 -0.76978817999E+02  0.79875279616E+02  0.00000000000E+00 0.  1.
</event>
<event>
 4    1  0.5841374E+003  0.2216284E+02  0.7546771E-02  0.1503287E+00
          2   -1    0    0  501    0  0.00000000000E+00  0.00000000000E+00  0.39828242655E+02  0.39828242655E+02  0.00000000000E+00 0.  1.
         -2   -1    0    0    0  501 -0.00000000000E+00 -0.00000000000E+00 -0.25047862310E+02  0.25047862310E+02  0.00000000000E+00 0.  1.
          2    1    1    2  502    0 -0.20597743624E+02 -0.81807242750E+01  0.30501775636E+02  0.37703442933E+02  0.00000000000E+00 0.  1.
         -2    1    1    2    0  502  0.20597743624E+02  0.81807242750E+01 -0.15721395290E+02  0.27172662032E+02  0.00000000000E+00 0.  1.
</event>
<event>
 4    1  0.5841374E+003  0.4343991E+02  0.7546771E-02  0.1329427E+00
          2   -1    0    0  501    0  0.00000000000E+00  0.00000000000E+00  0.14417243337E+04  0.14417243337E+04  0.00000000000E+00 0.  1.
         -2   -1    0    0    0  501 -0.00000000000E+00 -0.00000000000E+00 -0.18122881039E+01  0.18122881039E+01  0.00000000000E+00 0. -1.
          2    1    1    2  502    0  0.39226486944E+02 -0.18663020183E+02  0.11003641971E+04  0.11012213183E+04  0.00000000000E+00 0.  1.
         -2    1    1    2    0  502 -0.39226486944E+02  0.18663020183E+02  0.33954784847E+03  0.34231530349E+03  0.00000000000E+00 0. -1.
</event>
<event>
 4    1  0.5841374E+003  0.2148209E+02  0.7546771E-02  0.1512492E+00
          2   -1    0    0  501    0  0.00000000000E+00  0.00000000000E+00  0.11910878196E+04  0.11910878196E+04  0.00000000000E+00 0. -1.
         -2   -1    0    0    0  501 -0.00000000000E+00 -0.00000000000E+00 -0.11401238303E+02  0.11401238303E+02  0.00000000000E+00 0. -1.
          2    1    1    2  502    0 -0.48146098205E+01 -0.20935613853E+02  0.11807835755E+04  0.11809789721E+04  0.00000000000E+00 0. -1.
         -2    1    1    2    0  502  0.48146098205E+01  0.20935613853E+02 -0.10969941907E+01  0.21510085806E+02  0.00000000000E+00 0. -1.
</event>
<event>
 4    1  0.5841374E+003  0.2202566E+02  0.7546771E-02  0.1505109E+00
          2   -1    0    0  501    0  0.00000000000E+00  0.00000000000E+00  0.43055837464E+03  0.43055837464E+03  0.00000000000E+00 0.  1.
         -2   -1    0    0    0  501 -0.00000000000E+00 -0.00000000000E+00 -0.25154137251E+01  0.25154137251E+01  0.00000000000E+00 0. -1.
          2    1    1    2  502    0  0.19885174862E+02 -0.94715025973E+01  0.37491053561E+03  0.37555697205E+03  0.00000000000E+00 0.  1.
         -2    1    1    2    0  502 -0.19885174862E+02  0.94715025973E+01  0.53132425303E+02  0.57516816317E+02  0.00000000000E+00 0. -1.
</event>
<event>
 4    1  0.5841374E+003  0.3408243E+02  0.7546771E-02  0.1387131E+00
          2   -1    0    0  501    0  0.00000000000E+00  0.00000000000E+00  0.45163268800E+01  0.45163268800E+01  0.00000000000E+00 0.  1.
         -2   -1    0    0    0  501 -0.00000000000E+00 -0.00000000000E+00 -0.59084974735E+03  0.59084974735E+03  0.00000000000E+00 0.  1.
          2    1    1    2  502    0 -0.29291181493E+02  0.17425232362E+02 -0.69470244866E+02  0.77380404224E+02  0.00000000000E+00 0.  1.
         -2    1    1    2    0  502  0.29291181493E+02 -0.17425232362E+02 -0.51686317560E+03  0.51798567000E+03  0.00000000000E+00 0.  1.
</event>
<event>
 4    1  0.5841374E+003  0.2533486E+02  0.7546771E-02  0.1465092E+00
          2   -1    0    0  501    0  0.00000000000E+00  0.00000000000E+00  0.77087516238E+02  0.77087516238E+02  0.00000000000E+00 0.  1.
         -2   -1    0    0    0  501 -0.00000000000E+00 -0.00000000000E+00 -0.91289129294E+01  0.91289129294E+01  0.00000000000E+00 0.  1.
          2    1    1    2  502    0 -0.22010979102E+01 -0.25239053444E+02  0.21197250656E+02  0.33032984820E+02  0.00000000000E+00 0.  1.
         -2    1    1    2    0  502  0.22010979102E+01  0.25239053444E+02  0.46761352653E+02  0.53183444348E+02  0.00000000000E+00 0.  1.
</event>
<event>
 4    1  0.5841374E+003  0.3577319E+02  0.7546771E-02  0.1375207E+00
          2   -1    0    0  501    0  0.00000000000E+00  0.00000000000E+00  0.44443535152E+03  0.44443535152E+03  0.00000000000E+00 0. -1.
         -2   -1    0    0    0  501 -0.00000000000E+00 -0.00000000000E+00 -0.64147999227E+01  0.64147999227E+01  0.00000000000E+00 0.  1.
          2    1    1    2  502    0  0.35420031674E+02 -0.50142035646E+01  0.38636117226E+03  0.38801375789E+03  0.00000000000E+00 0. -1.
         -2    1    1    2    0  502 -0.35420031674E+02  0.50142035646E+01  0.51659379331E+02  0.62836393548E+02  0.00000000000E+00 0.  1.
</event>
<event>
 4    1  0.5841374E+003  0.2119973E+02  0.7546771E-02  0.1516432E+00
          2   -1    0    0  501    0  0.00000000000E+00  0.00000000000E+00  0.83734306681E+00  0.83734306681E+00  0.00000000000E+00 0.  1.
         -2   -1    0    0    0  501 -0.00000000000E+00 -0.00000000000E+00 -0.11125024643E+04  0.11125024643E+04  0.00000000000E+00 0.  1.
          2    1    1    2  502    0  0.20562171474E+02 -0.51600251693E+01 -0.15536073185E+03  0.15680046478E+03  0.00000000000E+00 0.  1.
         -2    1    1    2    0  502 -0.20562171474E+02  0.51600251693E+01 -0.95630438938E+03  0.95653934258E+03  0.00000000000E+00 0.  1.
</event>
<event>
 4    1  0.5841374E+003  0.4154979E+02  0.7546771E-02  0.1339636E+00
          2   -1    0    0  501    0  0.00000000000E+00  0.00000000000E+00  0.13461050269E+04  0.13461050269E+04  0.00000000000E+00 0. -1.
         -2   -1    0    0    0  501 -0.00000000000E+00 -0.00000000000E+00 -0.11741129914E+03  0.11741129914E+03  0.00000000000E+00 0.  1.
          2    1    1    2  502    0 -0.34101784403E+02 -0.23737179429E+02  0.13420974916E+04  0.13427405045E+04  0.00000000000E+00 0. -1.
         -2    1    1    2    0  502  0.34101784403E+02  0.23737179429E+02 -0.11340376392E+03  0.12077582150E+03  0.00000000000E+00 0.  1.
</event>
<event>
 4    1  0.5841374E+003  0.4220945E+02  0.7546771E-02  0.1336003E+00
          2   -1    0    0  501    0  0.00000000000E+00  0.00000000000E+00  0.28628615612E+03  0.28628615612E+03  0.00000000000E+00 0. -1.
         -2   -1    0    0    0  501 -0.00000000000E+00 -0.00000000000E+00 -0.19739849711E+02  0.19739849711E+02  0.00000000000E+00 0. -1.
          2    1    1    2  502    0 -0.24699494542E+02  0.34228249019E+02  0.25988947973E+03  0.26329485323E+03  0.00000000000E+00 0. -1.
         -2    1    1    2    0  502  0.24699494542E+02 -0.34228249019E+02  0.66568266807E+01  0.42731152605E+02  0.00000000000E+00 0. -1.
</event>
<event>
 4    1  0.5841374E+003  0.2671181E+02  0.7546771E-02  0.1450525E+00
          2   -1    0    0  501    0  0.00000000000E+00  0.00000000000E+00  0.51556592371E+02  0.51556592371E+02  0.00000000000E+00 0. -1.
         -2   -1    0    0    0  501 -0.00000000000E+00 -0.00000000000E+00 -0.28335057509E+02  0.28335057509E+02  0.00000000000E+00 0. -1.
          2    1    1    2  502    0  0.25892151461E+02 -0.65663622661E+01  0.40181796858E+02  0.48250361858E+02  0.00000000000E+00 0. -1.
         -2    1    1    2    0  502 -0.25892151461E+02  0.65663622661E+01 -0.16960261997E+02  0.31641288022E+02  0.00000000000E+00 0. -1.
</event>
<event>
 4    1  0.5841374E+003  0.3077663E+02  0.7546771E-02  0.1412965E+00
          2   -1    0    0  501    0  0.00000000000E+00  0.00000000000E+00  0.58944688777E+03  0.58944688777E+03  0.00000000000E+00 0.  1.
         -2   -1    0    0    0  501 -0.00000000000E+00 -0.00000000000E+00 -0.16803395940E+01  0.16803395940E+01  0.00000000000E+00 0. -1.
          2    1    1    2  502    0  0.30693405936E+02 -0.22618592171E+01  0.35565964423E+03  0.35698877253E+03  0.00000000000E+00 0.  1.
         -2    1    1    2    0  502 -0.30693405936E+02  0.22618592171E+01  0.23210690394E+03  0.23413845483E+03  0.00000000000E+00 0. -1.
</event>
<event>
 4    1  0.5841374E+003  0.2022989E+02  0.7546771E-02  0.1530550E+00
          2   -1    0    0  501    0  0.00000000000E+00  0.00000000000E+00  0.33293121635E+03  0.33293121635E+03  0.00000000000E+00 0. -1.
         -2   -1    0    0    0  501 -0.00000000000E+00 -0.00000000000E+00 -0.97847293318E+01  0.97847293318E+01  0.00000000000E+00 0.  1.
          2    1    1    2  502    0  0.18640406017E+02 -0.78602513766E+01  0.32180649503E+03  0.32244172889E+03  0.00000000000E+00 0. -1.
         -2    1    1    2    0  502 -0.18640406017E+02  0.78602513766E+01  0.13399919964E+01  0.20274216797E+02  0.00000000000E+00 0.  1.
</event>
<event>
 4    1  0.5841374E+003  0.3425838E+02  0.7546771E-02  0.1385853E+00
          2   -1    0    0  501    0  0.00000000000E+00  0.00000000000E+00  0.69152019154E+03  0.69152019154E+03  0.00000000000E+00 0.  1.
         -2   -1    0    0    0  501 -0.00000000000E+00 -0.00000000000E+00 -0.64782806942E+02  0.64782806942E+02  0.00000000000E+00 0. -1.
          2    1    1    2  502    0 -0.21258714820E+02  0.26864542968E+02  0.68653390039E+03  0.68738812400E+03  0.00000000000E+00 0.  1.
         -2    1    1    2    0  502  0.21258714820E+02 -0.26864542968E+02 -0.59796515792E+02  0.68914874486E+02  0.00000000000E+00 0. -1.
</event>
<event>
 4    1  0.5841374E+003  0.2241108E+02  0.7546771E-02  0.1500029E+00
          2   -1    0    0  501    0  0.00000000000E+00  0.00000000000E+00  0.88158285569E+03  0.88158285569E+03  0.00000000000E+00 0. -1.
         -2   -1    0    0    0  501 -0.00000000000E+00 -0.00000000000E+00 -0.47299270007E+01  0.47299270007E+01  0.00000000000E+00 0.  1.
          2    1    1    2  502    0  0.20582902155E+02 -0.88656920492E+01  0.85403763403E+03  0.85433163157E+03  0.00000000000E+00 0. -1.
         -2    1    1    2    0  502 -0.20582902155E+02  0.88656920492E+01  0.22815294651E+02  0.31981151116E+02  0.00000000000E+00 0.  1.
</event>
<event>
 4    1  0.5841374E+003  0.2760096E+02  0.7546771E-02  0.1441663E+00
          2   -1    0    0  501    0  0.00000000000E+00  0.00000000000E+00  0.98398563239E+02  0.98398563239E+02  0.00000000000E+00 0.  1.
         -2   -1    0    0    0  501 -0.00000000000E+00 -0.00000000000E+00 -0.80211447073E+01  0.80211447073E+01  0.00000000000E+00 0.  1.
          2    1    1    2  502    0  0.25141650678E+02 -0.11389036905E+02  0.55113033579E+02  0.61638131305E+02  0.00000000000E+00 0.  1.
         -2    1    1    2    0  502 -0.25141650678E+02  0.11389036905E+02  0.35264384952E+02  0.44781576641E+02  0.00000000000E+00 0.  1.
</event>
<event>
 4    1  0.5841374E+003  0.2566301E+02  0.7546771E-02  0.1461521E+00
          2   -1    0    0  501    0  0.00000000000E+00  0.00000000000E+00  0.92406377173E+02  0.92406377173E+02  0.00000000000E+00 0.  1.
         -2   -1    0    0    0  501 -0.00000000000E+00 -0.00000000000E+00 -0.12901261357E+02  0.12901261357E+02  0.00000000000E+00 0. -1.
          2    1    1    2  502    0  0.20356782318E+02 -0.15626632125E+02  0.74978121773E+02  0.79248400379E+02  0.00000000000E+00 0.  1.
         -2    1    1    2    0  502 -0.20356782318E+02  0.15626632125E+02  0.45269940432E+01  0.26059238151E+02  0.00000000000E+00 0. -1.
</event>
<event>
 4    1  0.5841374E+003  0.2141941E+02  0.7546771E-02  0.1513360E+00
          2   -1    0    0  501    0  0.00000000000E+00  0.00000000000E+00  0.15780811245E+04  0.15780811245E+04  0.00000000000E+00 0.  1.
         -2   -1    0    0    0  501 -0.00000000000E+00 -0.00000000000E+00 -0.47870073547E+00  0.47870073547E+00  0.00000000000E+00 0. -1.
          2    1    1    2  502    0 -0.20288046458E+02  0.68692265568E+01  0.12833935230E+04  0.12835722520E+04  0.00000000000E+00 0.  1.
         -2    1    1    2    0  502  0.20288046458E+02 -0.68692265568E+01  0.29420890073E+03  0.29498757325E+03  0.00000000000E+00 0. -1.
</event>
<event>
 4    1  0.5841374E+003  0.2117309E+02  0.7546771E-02  0.1516808E+00
          2   -1    0    0  501    0  0.00000000000E+00  0.00000000000E+00  0.15870655113E+03  0.15870655113E+03  0.00000000000E+00 0.  1.
         -2   -1    0    0    0  501 -0.00000000000E+00 -0.00000000000E+00 -0.25700507871E+02  0.25700507871E+02  0.00000000000E+00 0. -1.
          2    1    1    2  502    0 -0.19471876578E+02 -0.83153931064E+01  0.15349212068E+03  0.15494557383E+03  0.00000000000E+00 0.  1.
         -2    1    1    2    0  502  0.19471876578E+02  0.83153931064E+01 -0.20486077423E+02  0.29461485165E+02  0.00000000000E+00 0. -1.
</event>
<event>
 4    1  0.5841374E+003  0.2060855E+02  0.7546771E-02  0.1524928E+00
          2   -1    0    0  501    0  0.00000000000E+00  0.00000000000E+00  0.32730002109E+02  0.32730002109E+02  0.00000000000E+00 0.  1.
         -2   -1    0    0    0  501 -0.00000000000E+00 -0.00000000000E+00 -0.29402842032E+02  0.29402842032E+02  0.00000000000E+00 0. -1.
          2    1    1    2  502    0  0.13482850326E+02 -0.15586053458E+02  0.24884021376E+02  0.32309856625E+02  0.00000000000E+00 0.  1.
         -2    1    1    2    0  502 -0.13482850326E+02  0.15586053458E+02 -0.21556861299E+02  0.29822987516E+02  0.00000000000E+00 0. -1.
</event>
<event>
 4    1  0.5841374E+003  0.2774204E+02  0.7546771E-02  0.1440293E+00
          2   -1    0    0  501    0  0.00000000000E+00  0.00000000000E+00  0.57416683487E+03  0.57416683487E+03  0.00000000000E+00 0.  1.
         -2   -1    0    0    0  501 -0.00000000000E+00 -0.00000000000E+00 -0.22749479827E+01  0.22749479827E+01  0.00000000000E+00 0. -1.
          2    1    1    2  502    0 -0.87735795623E-01 -0.27741897788E+02  0.47067599154E+03  0.47149285212E+03  0.00000000000E+00 0.  1.
         -2    1    1    2    0  502  0.87735795623E-01  0.27741897788E+02  0.10121589535E+03  0.10494893073E+03  0.00000000000E+00 0. -1.
</event>
<event>
 4    1  0.5841374E+003  0.3384310E+02  0.7546771E-02  0.1388884E+00
          2   -1    0    0  501    0  0.00000000000E+00  0.00000000000E+00  0.37066426449E+03  0.37066426449E+03  0.00000000000E+00 0.  1.
         -2   -1    0    0    0  501 -0.00000000000E+00 -0.00000000000E+00 -0.78846956137E+02  0.78846956137E+02  0.00000000000E+00 0.  1.
          2    1    1    2  502    0 -0.22920152654E+02  0.24900242355E+02  0.36621616889E+03  0.36777661403E+03  0.00000000000E+00 0.  1.
         -2    1    1    2    0  502  0.22920152654E+02 -0.24900242355E+02 -0.74398860538E+02  0.81734606602E+02  0.00000000000E+00 0.  1.
</event>
<event>
 4    1  0.5841374E+003  0.2006305E+02  0.7546771E-02  0.1533074E+00
          2   -1    0    0  501    0  0.00000000000E+00  0.00000000000E+00  0.21300285630E+03  0.21300285630E+03  0.00000000000E+00 0.  1.
         -2   -1    0    0    0  501 -0.00000000000E+00 -0.00000000000E+00 -0.80542832593E+01  0.80542832593E+01  0.00000000000E+00 0. -1.
          2    1    1    2  502    0 -0.13266972525E+01  0.20019139958E+02  0.19917074067E+03  0.20017869524E+03  0.00000000000E+00 0.  1.
         -2    1    1    2    0  502  0.13266972525E+01 -0.20019139958E+02  0.57778323741E+01  0.20878444319E+02  0.00000000000E+00 0. -1.
</event>
<event>
 4    1  0.5841374E+003  0.3513301E+02  0.7546771E-02  0.1379630E+00
          2   -1    0    0  501    0  0.00000000000E+00  0.00000000000E+00  0.45545136528E+03  0.45545136528E+03  0.00000000000E+00 0.  1.
         -2   -1    0    0    0  501 -0.00000000000E+00 -0.00000000000E+00 -0.74530093840E+02  0.74530093840E+02  0.00000000000E+00 0. -1.
          2    1    1    2  502    0 -0.18966728602E+02  0.29573500304E+02  0.45058885167E+03  0.45195646025E+03  0.00000000000E+00 0.  1.
         -2    1    1    2    0  502  0.18966728602E+02 -0.29573500304E+02 -0.69667580227E+02  0.78024998871E+02  0.00000000000E+00 0. -1.
</event>
<event>
 4    1  0.5841374E+003  0.2158482E+02  0.7546771E-02  0.1511076E+00
          2   -1    0    0  501    0  0.00000000000E+00  0.00000000000E+00  0.10097082554E+04  0.10097082554E+04  0.00000000000E+00 0.  1.
         -2   -1    0    0    0  501 -0.00000000000E+00 -0.00000000000E+00 -0.17156589412E+01  0.17156589412E+01  0.00000000000E+00 0.  1.
          2    1    1    2  502    0  0.20116033216E+02 -0.78262239970E+01  0.93638767854E+03  0.93663642311E+03  0.00000000000E+00 0.  1.
         -2    1    1    2    0  502 -0.20116033216E+02  0.78262239970E+01  0.71604917896E+02  0.74787491209E+02  0.00000000000E+00 0.  1.
</event>
<event>
 4    1  0.5841374E+003  0.2084824E+02  0.7546771E-02  0.1521443E+00
          2   -1    0    0  501    0  0.00000000000E+00  0.00000000000E+00  0.22772652485E+03  0.22772652485E+03  0.00000000000E+00 0.  1.
         -2   -1    0    0    0  501 -0.00000000000E+00 -0.00000000000E+00 -0.35359065735E+02  0.35359065735E+02  0.00000000000E+00 0. -1.
          2    1    1    2  502    0 -0.46426212385E+01 -0.20324747690E+02  0.22412700420E+03  0.22509456526E+03  0.00000000000E+00 0.  1.
         -2    1    1    2    0  502  0.46426212385E+01  0.20324747690E+02 -0.31759545086E+02  0.37991025317E+02  0.00000000000E+00 0. -1.
</event>
<event>
 4    1  0.5841374E+003  0.2340369E+02  0.7546771E-02  0.1487490E+00
          2   -1    0    0  501    0  0.00000000000E+00  0.00000000000E+00  0.92379396183E+03  0.92379396183E+03  0.00000000000E+00 0. -1.
         -2   -1    0    0    0  501 -0.00000000000E+00 -0.00000000000E+00 -0.13033632695E+01  0.13033632695E+01  0.00000000000E+00 0.  1.
          2    1    1    2  502    0 -0.18790789846E+02 -0.13951308771E+02  0.80274507583E+03  0.80308616571E+03  0.00000000000E+00 0. -1.
         -2    1    1    2    0  502  0.18790789846E+02  0.13951308771E+02  0.11974552274E+03  0.12201115939E+03  0.00000000000E+00 0.  1.
</event>
<event>
 4    1  0.5841374E+003  0.3607087E+02  0.7546771E-02  0.1373187E+00
          2   -1    0    0  501    0  0.00000000000E+00  0.00000000000E+00  0.30371785743E+03  0.30371785743E+03  0.00000000000E+00 0. -1.
         -2   -1    0    0    0  501 -0.00000000000E+00 -0.00000000000E+00 -0.43412422099E+01  0.43412422099E+01  0.00000000000E+00 0.  1.
          2    1    1    2  502    0 -0.23176388708E+02  0.27639848250E+02  0.13199053660E+03  0.13683058122E+03  0.00000000000E+00 0. -1.
         -2    1    1    2    0  502  0.23176388708E+02 -0.27639848250E+02  0.16738607861E+03  0.17122851841E+03  0.00000000000E+00 0.  1.
</event>
<event>
 4    1  0.5841374E+003  0.4180652E+02  0.7546771E-02  0.1338213E+00
          2   -1    0    0  501    0  0.00000000000E+00  0.00000000000E+00  0.33446050054E+03  0.33446050054E+03  0.00000000000E+00 0. -1.
         -2   -1    0    0    0  501 -0.00000000000E+00 -0.00000000000E+00 -0.17500922423E+03  0.17500922423E+03  0.00000000000E+00 0. -1.
          2    1    1    2  502    0 -0.38628764744E+02 -0.15987605191E+02  0.33062855361E+03  0.33326119703E+03  0.00000000000E+00 0. -1.
         -2    1    1    2    0  502  0.38628764744E+02  0.15987605191E+02 -0.17117727730E+03  0.17620852774E+03  0.00000000000E+00 0. -1.
</event>
<event>
 4    1  0.5841374E+003  0.2044584E+02  0.7546771E-02  0.1527326E+00
          2   -1    0    0  501    0  0.00000000000E+00  0.00000000000E+00  0.14261478197E+02  0.14261478197E+02  0.00000000000E+00 0. -1.
         -2   -1    0    0    0  501 -0.00000000000E+00 -0.00000000000E+00 -0.85677837391E+02  0.85677837391E+02  0.00000000000E+00 0. -1.
          2    1    1    2  502    0  0.24856656664E+01 -0.20294186276E+02  0.48221454798E+01  0.21006799315E+02  0.00000000000E+00 0. -1.
         -2    1    1    2    0  502 -0.24856656664E+01  0.20294186276E+02 -0.76238504674E+02  0.78932516274E+02  0.00000000000E+00 0. -1.
</event>
<event>
 4    1  0.5841374E+003  0.3329120E+02  0.7546771E-02  0.1392992E+00
          2   -1    0    0  501    0  0.00000000000E+00  0.00000000000E+00  0.10897359295E+04  0.10897359295E+04  0.00000000000E+00 0.  1.
         -2   -1    0    0    0  501 -0.00000000000E+00 -0.00000000000E+00 -0.12658412701E+02  0.12658412701E+02  0.00000000000E+00 0.  1.
          2    1    1    2  502    0  0.21308567704E+02 -0.25578289714E+02  0.10671293995E+04  0.10676485655E+04  0.00000000000E+00 0.  1.
         -2    1    1    2    0  502 -0.21308567704E+02  0.25578289714E+02  0.99481172154E+01  0.34745776699E+02  0.00000000000E+00 0.  1.
</event>
<event>
 4    1  0.5841374E+003  0.3848933E+02  0.7546771E-02  0.1357573E+00
          2   -1    0    0  501    0  0.00000000000E+00  0.00000000000E+00  0.24521531388E+03  0.24521531388E+03  0.00000000000E+00 0.  1.
         -2   -1    0    0    0  501 -0.00000000000E+00 -0.00000000000E+00 -0.11531045341E+02  0.11531045341E+02  0.00000000000E+00 0. -1.
          2    1    1    2  502    0  0.37725321065E+02 -0.76307492179E+01  0.20541783991E+03  0.20899262460E+03  0.00000000000E+00 0.  1.
         -2    1    1    2    0  502 -0.37725321065E+02  0.76307492179E+01  0.28266428628E+02  0.47753734623E+02  0.00000000000E+00 0. -1.
</event>
<event>
 4    1  0.5841374E+003  0.5809471E+02  0.7546771E-02  0.1266447E+00
          2   -1    0    0  501    0  0.00000000000E+00  0.00000000000E+00  0.34001058281E+02  0.34001058281E+02  0.00000000000E+00 0.  1.
         -2   -1    0    0    0  501 -0.00000000000E+00 -0.00000000000E+00 -0.30299889659E+03  0.30299889659E+03  0.00000000000E+00 0.  1.
          2    1    1    2  502    0  0.53354185848E+02  0.22985358884E+02  0.36713823420E+01  0.58210608301E+02  0.00000000000E+00 0.  1.
         -2    1    1    2    0  502 -0.53354185848E+02 -0.22985358884E+02 -0.27266922065E+03  0.27878934657E+03  0.00000000000E+00 0.  1.
</event>
<event>
 4    1  0.5841374E+003  0.3020613E+02  0.7546771E-02  0.1417813E+00
          2   -1    0    0  501    0  0.00000000000E+00  0.00000000000E+00  0.72742483022E+03  0.72742483022E+03  0.00000000000E+00 0.  1.
         -2   -1    0    0    0  501 -0.00000000000E+00 -0.00000000000E+00 -0.96942199674E+01  0.96942199674E+01  0.00000000000E+00 0.  1.
          2    1    1    2  502    0 -0.26436260099E+02 -0.14612809461E+02  0.70275592547E+03  0.70340479159E+03  0.00000000000E+00 0.  1.
         -2    1    1    2    0  502  0.26436260099E+02  0.14612809461E+02  0.14974684781E+02  0.33714258596E+02  0.00000000000E+00 0.  1.
</event>
<event>
 4    1  0.5841374E+003  0.2574370E+02  0.7546771E-02  0.1460653E+00
          2   -1    0    0  501    0  0.00000000000E+00  0.00000000000E+00  0.18510432518E+04  0.18510432518E+04  0.00000000000E+00 0.  1.
         -2   -1    0    0    0  501 -0.00000000000E+00 -0.00000000000E+00 -0.84996092127E+00  0.84996092127E+00  0.00000000000E+00 0. -1.
          2    1    1    2  502    0 -0.16929323486E+02  0.19394233111E+02  0.16295241724E+04  0.16297275130E+04  0.00000000000E+00 0.  1.
         -2    1    1    2    0  502  0.16929323486E+02 -0.19394233111E+02  0.22066911845E+03  0.22216569966E+03  0.00000000000E+00 0. -1.
</event>
<event>
 4    1  0.5841374E+003  0.3087579E+02  0.7546771E-02  0.1412135E+00
          2   -1    0    0  501    0  0.00000000000E+00  0.00000000000E+00  0.11820061396E+04  0.11820061396E+04  0.00000000000E+00 0.  1.
         -2   -1    0    0    0  501 -0.00000000000E+00 -0.00000000000E+00 -0.37122316500E+02  0.37122316500E+02  0.00000000000E+00 0.  1.
          2    1    1    2  502    0  0.26418492013E+02  0.15980537054E+02  0.11753480581E+04  0.11757535337E+04  0.00000000000E+00 0.  1.
         -2    1    1    2    0  502 -0.26418492013E+02 -0.15980537054E+02 -0.30464234973E+02  0.43374922447E+02  0.00000000000E+00 0.  1.
</event>
<event>
 4    1  0.5841374E+003  0.2342153E+02  0.7546771E-02  0.1487272E+00
          2   -1    0    0  501    0  0.00000000000E+00  0.00000000000E+00  0.10127891401E+04  0.10127891401E+04  0.00000000000E+00 0.  1.
         -2   -1    0    0    0  501 -0.00000000000E+00 -0.00000000000E+00 -0.22347068310E+01  0.22347068310E+01  0.00000000000E+00 0.  1.
          2    1    1    2  502    0  0.17973399668E+02  0.15017484125E+02  0.94702351527E+03  0.94731309840E+03  0.00000000000E+00 0.  1.
         -2    1    1    2    0  502 -0.17973399668E+02 -0.15017484125E+02  0.63530918022E+02  0.67710748554E+02  0.00000000000E+00 0.  1.
</event>
<event>
 4    1  0.5841374E+003  0.3806285E+02  0.7546771E-02  0.1360227E+00
          2   -1    0    0  501    0  0.00000000000E+00  0.00000000000E+00  0.44132936397E+02  0.44132936397E+02  0.00000000000E+00 0. -1.
         -2   -1    0    0    0  501 -0.00000000000E+00 -0.00000000000E+00 -0.58147100016E+02  0.58147100016E+02  0.00000000000E+00 0.  1.
          2    1    1    2  502    0  0.37823307720E+02  0.42635455243E+01  0.26739051186E+02  0.46516204549E+02  0.00000000000E+00 0. -1.
         -2    1    1    2    0  502 -0.37823307720E+02 -0.42635455243E+01 -0.40753214804E+02  0.55763831864E+02  0.00000000000E+00 0.  1.
</event>
<event>
 4    1  0.5841374E+003  0.3861049E+02  0.7546771E-02  0.1356826E+00
          2   -1    0    0  501    0  0.00000000000E+00  0.00000000000E+00  0.24944507072E+04  0.24944507072E+04  0.00000000000E+00 0. -1.
         -2   -1    0    0    0  501 -0.00000000000E+00 -0.00000000000E+00 -0.70361421941E+00  0.70361421941E+00  0.00000000000E+00 0. -1.
          2    1    1    2  502    0  0.22395518748E+02  0.31451719811E+02  0.17310586026E+04  0.17314891440E+04  0.00000000000E+00 0. -1.
         -2    1    1    2    0  502 -0.22395518748E+02 -0.31451719811E+02  0.76268849041E+03  0.76366517751E+03  0.00000000000E+00 0. -1.
</event>
<event>
 4    1  0.5841374E+003  0.3463349E+02  0.7546771E-02  0.1383158E+00
          2   -1    0    0  501    0  0.00000000000E+00  0.00000000000E+00  0.74936375931E+02  0.74936375931E+02  0.00000000000E+00 0.  1.
         -2   -1    0    0    0  501 -0.00000000000E+00 -0.00000000000E+00 -0.16027540701E+02  0.16027540701E+02  0.00000000000E+00 0. -1.
          2    1    1    2  502    0  0.18681007484E+02 -0.29163303618E+02  0.31097512657E+02  0.46546037554E+02  0.00000000000E+00 0. -1.
         -2    1    1    2    0  502 -0.18681007484E+02  0.29163303618E+02  0.27811322573E+02  0.44417879078E+02  0.00000000000E+00 0.  1.
</event>
<event>
 4    1  0.5841374E+003  0.3176843E+02  0.7546771E-02  0.1404827E+00
          2   -1    0    0  501    0  0.00000000000E+00  0.00000000000E+00  0.11461381736E+04  0.11461381736E+04  0.00000000000E+00 0. -1.
         -2   -1    0    0    0  501 -0.00000000000E+00 -0.00000000000E+00 -0.30305107939E+01  0.30305107939E+01  0.00000000000E+00 0.  1.
          2    1    1    2  502    0 -0.29850454876E+02  0.10871233572E+02  0.10555155559E+04  0.10559935237E+04  0.00000000000E+00 0. -1.
         -2    1    1    2    0  502  0.29850454876E+02 -0.10871233572E+02  0.87592106899E+02  0.93175160675E+02  0.00000000000E+00 0.  1.
</event>
<event>
 4    1  0.5841374E+003  0.2719778E+02  0.7546771E-02  0.1445631E+00
          2   -1    0    0  501    0  0.00000000000E+00  0.00000000000E+00  0.18043626891E+03  0.18043626891E+03  0.00000000000E+00 0.  1.
         -2   -1    0    0    0  501 -0.00000000000E+00 -0.00000000000E+00 -0.44322550516E+01  0.44322550516E+01  0.00000000000E+00 0.  1.
          2    1    1    2  502    0 -0.25066870682E+02 -0.10553264647E+02  0.11332454750E+03  0.11654257791E+03  0.00000000000E+00 0.  1.
         -2    1    1    2    0  502  0.25066870682E+02  0.10553264647E+02  0.62679466361E+02  0.68325946052E+02  0.00000000000E+00 0.  1.
</event>
<event>
 4    1  0.5841374E+003  0.2791068E+02  0.7546771E-02  0.1438669E+00
          2   -1    0    0  501    0  0.00000000000E+00  0.00000000000E+00  0.16524374503E+04  0.16524374503E+04  0.00000000000E+00 0.  1.
         -2   -1    0    0    0  501 -0.00000000000E+00 -0.00000000000E+00 -0.39656062739E+02  0.39656062739E+02  0.00000000000E+00 0.  1.
          2    1    1    2  502    0 -0.27393274370E+02 -0.53492590618E+01  0.16473935431E+04  0.16476299620E+04  0.00000000000E+00 0.  1.
         -2    1    1    2    0  502  0.27393274370E+02  0.53492590618E+01 -0.34612155545E+02  0.44463550967E+02  0.00000000000E+00 0.  1.
</event>
<event>
 4    1  0.5841374E+003  0.2196105E+02  0.7546771E-02  0.1505973E+00
          2   -1    0    0  501    0  0.00000000000E+00  0.00000000000E+00  0.69603510356E+01  0.69603510356E+01  0.00000000000E+00 0.  1.
         -2   -1    0    0    0  501 -0.00000000000E+00 -0.00000000000E+00 -0.56745237169E+03  0.56745237169E+03  0.00000000000E+00 0. -1.
          2    1    1    2  502    0 -0.16659355200E+02 -0.14309206630E+02 -0.11145508561E+02  0.24627421122E+02  0.00000000000E+00 0.  1.
         -2    1    1    2    0  502  0.16659355200E+02  0.14309206630E+02 -0.54934651209E+03  0.54978530160E+03  0.00000000000E+00 0. -1.
</event>
<event>
 4    1  0.5841374E+003  0.5203623E+02  0.7546771E-02  0.1289577E+00
          2   -1    0    0  501    0  0.00000000000E+00  0.00000000000E+00  0.12067848791E+03  0.12067848791E+03  0.00000000000E+00 0.  1.
         -2   -1    0    0    0  501 -0.00000000000E+00 -0.00000000000E+00 -0.91830034377E+02  0.91830034377E+02  0.00000000000E+00 0.  1.
          2    1    1    2  502    0 -0.52014246159E+02 -0.15125873911E+01  0.10678959376E+03  0.11879304297E+03  0.00000000000E+00 0.  1.
         -2    1    1    2    0  502  0.52014246159E+02  0.15125873911E+01 -0.77941140222E+02  0.93715479315E+02  0.00000000000E+00 0.  1.
</event>
<event>
 4    1  0.5841374E+003  0.2001473E+02  0.7546771E-02  0.1533811E+00
          2   -1    0    0  501    0  0.00000000000E+00  0.00000000000E+00  0.32269910631E+03  0.32269910631E+03  0.00000000000E+00 0. -1.
         -2   -1    0    0    0  501 -0.00000000000E+00 -0.00000000000E+00 -0.44894482601E+01  0.44894482601E+01  0.00000000000E+00 0. -1.
          2    1    1    2  502    0 -0.14091866598E+02 -0.14212971456E+02  0.29825534084E+03  0.29892614071E+03  0.00000000000E+00 0. -1.
         -2    1    1    2    0  502  0.14091866598E+02  0.14212971456E+02  0.19954317217E+02  0.28262413864E+02  0.00000000000E+00 0. -1.
</event>
<event>
 4    1  0.5841374E+003  0.3708191E+02  0.7546771E-02  0.1366490E+00
          2   -1    0    0  501    0  0.00000000000E+00  0.00000000000E+00  0.39697837303E+03  0.39697837303E+03  0.00000000000E+00 0.  1.
         -2   -1    0    0    0  501 -0.00000000000E+00 -0.00000000000E+00 -0.17343623906E+02  0.17343623906E+02  0.00000000000E+00 0.  1.
          2    1    1    2  502    0 -0.34762519820E+02  0.12908736197E+02  0.37514044029E+03  0.37696872310E+03  0.00000000000E+00 0.  1.
         -2    1    1    2    0  502  0.34762519820E+02 -0.12908736197E+02  0.44943088357E+01  0.37353273837E+02  0.00000000000E+00 0.  1.
</event>
<event>
 4    1  0.5841374E+003  0.3282378E+02  0.7546771E-02  0.1396544E+00
          2   -1    0    0  501    0  0.00000000000E+00  0.00000000000E+00  0.37718087323E+02  0.37718087323E+02  0.00000000000E+00 0. -1.
         -2   -1    0    0    0  501 -0.00000000000E+00 -0.00000000000E+00 -0.75223756216E+03  0.75223756216E+03  0.00000000000E+00 0. -1.
          2    1    1    2  502    0  0.31837258138E+01 -0.32669010080E+02  0.30146307688E+02  0.44566805998E+02  0.00000000000E+00 0. -1.
         -2    1    1    2    0  502 -0.31837258138E+01  0.32669010080E+02 -0.74466578253E+03  0.74538884349E+03  0.00000000000E+00 0. -1.
</event>
<event>
 4    1  0.5841374E+003  0.3935797E+02  0.7546771E-02  0.1352290E+00
          2   -1    0    0  501    0  0.00000000000E+00  0.00000000000E+00  0.24170751191E+03  0.24170751191E+03  0.00000000000E+00 0.  1.
         -2   -1    0    0    0  501 -0.00000000000E+00 -0.00000000000E+00 -0.38852529585E+02  0.38852529585E+02  0.00000000000E+00 0.  1.
          2    1    1    2  502    0  0.13226336103E+02 -0.37069037233E+02  0.22961677270E+03  0.23296547339E+03  0.00000000000E+00 0.  1.
         -2    1    1    2    0  502 -0.13226336103E+02  0.37069037233E+02 -0.26761790379E+02  0.47594568098E+02  0.00000000000E+00 0.  1.
</event>
<event>
 4    1  0.5841374E+003  0.4410734E+02  0.7546771E-02  0.1325964E+00
          2   -1    0    0  501    0  0.00000000000E+00  0.00000000000E+00  0.31476466804E+04  0.31476466804E+04  0.00000000000E+00 0. -1.
         -2   -1    0    0    0  501 -0.00000000000E+00 -0.00000000000E+00 -0.29543316301E+01  0.29543316301E+01  0.00000000000E+00 0.  1.
          2    1    1    2  502    0  0.43648684342E+02 -0.63442521767E+01  0.29732063481E+04  0.29735334950E+04  0.00000000000E+00 0. -1.
         -2    1    1    2    0  502 -0.43648684342E+02  0.63442521767E+01  0.17148600064E+03  0.17706751706E+03  0.00000000000E+00 0.  1.
</event>
<event>
 4    1  0.5841374E+003  0.4403090E+02  0.7546771E-02  0.1326357E+00
          2   -1    0    0  501    0  0.00000000000E+00  0.00000000000E+00  0.67679468253E+03  0.67679468253E+03  0.00000000000E+00 0. -1.
         -2   -1    0    0    0  501 -0.00000000000E+00 -0.00000000000E+00 -0.93411955650E+01  0.93411955650E+01  0.00000000000E+00 0. -1.
          2    1    1    2  502    0 -0.27938599442E+02  0.34031674723E+02  0.61938946518E+03  0.62095251815E+03  0.00000000000E+00 0. -1.
         -2    1    1    2    0  502  0.27938599442E+02 -0.34031674723E+02  0.48064021782E+02  0.65183359940E+02  0.00000000000E+00 0. -1.
</event>
<event>
 4    1  0.5841374E+003  0.2339543E+02  0.7546771E-02  0.1487591E+00
          2   -1    0    0  501    0  0.00000000000E+00  0.00000000000E+00  0.43768651806E+03  0.43768651806E+03  0.00000000000E+00 0.  1.
         -2   -1    0    0    0  501 -0.00000000000E+00 -0.00000000000E+00 -0.12896453501E+01  0.12896453501E+01  0.00000000000E+00 0.  1.
          2    1    1    2  502    0  0.20465034540E+02 -0.11337025591E+02  0.17997959461E+03  0.18149380228E+03  0.00000000000E+00 0.  1.
         -2    1    1    2    0  502 -0.20465034540E+02  0.11337025591E+02  0.25641727810E+03  0.25748236113E+03  0.00000000000E+00 0.  1.
</event>
<event>
 4    1  0.5841374E+003  0.2463430E+02  0.7546771E-02  0.1472936E+00
          2   -1    0    0  501    0  0.00000000000E+00  0.00000000000E+00  0.12856212661E+04  0.12856212661E+04  0.00000000000E+00 0. -1.
         -2   -1    0    0    0  501 -0.00000000000E+00 -0.00000000000E+00 -0.47187918506E+01  0.47187918506E+01  0.00000000000E+00 0.  1.
          2    1    1    2  502    0 -0.20995975254E+02  0.12884794158E+02  0.12525025633E+04  0.12527447945E+04  0.00000000000E+00 0. -1.
         -2    1    1    2    0  502  0.20995975254E+02 -0.12884794158E+02  0.28399910953E+02  0.37595263525E+02  0.00000000000E+00 0.  1.
</event>
<event>
 4    1  0.5841374E+003  0.2373017E+02  0.7546771E-02  0.1483527E+00
          2   -1    0    0  501    0  0.00000000000E+00  0.00000000000E+00  0.35431114958E+02  0.35431114958E+02  0.00000000000E+00 0. -1.
         -2   -1    0    0    0  501 -0.00000000000E+00 -0.00000000000E+00 -0.55819878892E+02  0.55819878892E+02  0.00000000000E+00 0. -1.
          2    1    1    2  502    0 -0.13151436056E+02 -0.19752491604E+02  0.28392849521E+02  0.37003717365E+02  0.00000000000E+00 0. -1.
         -2    1    1    2    0  502  0.13151436056E+02  0.19752491604E+02 -0.48781613455E+02  0.54247276486E+02  0.00000000000E+00 0. -1.
</event>
<event>
 4    1  0.5841374E+003  0.2917115E+02  0.7546771E-02  0.1426938E+00
          2   -1    0    0  501    0  0.00000000000E+00  0.00000000000E+00  0.10198904772E+03  0.10198904772E+03  0.00000000000E+00 0. -1.
         -2   -1    0    0    0  501 -0.00000000000E+00 -0.00000000000E+00 -0.27526450720E+03  0.27526450720E+03  0.00000000000E+00 0. -1.
          2    1    1    2  502    0 -0.13339565513E+02 -0.25942470913E+02  0.99108297197E+02  0.10331219860E+03  0.00000000000E+00 0. -1.
         -2    1    1    2    0  502  0.13339565513E+02  0.25942470913E+02 -0.27238375667E+03  0.27394135632E+03  0.00000000000E+00 0. -1.
</event>
<event>
 4    1  0.5841374E+003  0.2061918E+02  0.7546771E-02  0.1524772E+00
          2   -1    0    0  501    0  0.00000000000E+00  0.00000000000E+00  0.10373161936E+04  0.10373161936E+04  0.00000000000E+00 0. -1.
         -2   -1    0    0    0  501 -0.00000000000E+00 -0.00000000000E+00 -0.20518596694E+01  0.20518596694E+01  0.00000000000E+00 0.  1.
          2    1    1    2  502    0 -0.18077057113E+02  0.99181974526E+01  0.98252468344E+03  0.98274101583E+03  0.00000000000E+00 0. -1.
         -2    1    1    2    0  502  0.18077057113E+02 -0.99181974526E+01  0.52739650464E+02  0.56627037408E+02  0.00000000000E+00 0.  1.
</event>
<event>
 4    1  0.5841374E+003  0.2803470E+02  0.7546771E-02  0.1437482E+00
          2   -1    0    0  501    0  0.00000000000E+00  0.00000000000E+00  0.30250594518E+03  0.30250594518E+03  0.00000000000E+00 0. -1.
         -2   -1    0    0    0  501 -0.00000000000E+00 -0.00000000000E+00 -0.57880054389E+03  0.57880054389E+03  0.00000000000E+00 0.  1.
          2    1    1    2  502    0 -0.16557047742E+02  0.22623190285E+02  0.30151583338E+03  0.30281635086E+03  0.00000000000E+00 0. -1.
         -2    1    1    2    0  502  0.16557047742E+02 -0.22623190285E+02 -0.57781043209E+03  0.57849013821E+03  0.00000000000E+00 0.  1.
</event>
<event>
 4    1  0.5841374E+003  0.2379857E+02  0.7546771E-02  0.1482707E+00
          2   -1    0    0  501    0  0.00000000000E+00  0.00000000000E+00  0.55763041223E+03  0.55763041223E+03  0.00000000000E+00 0. -1.
         -2   -1    0    0    0  501 -0.00000000000E+00 -0.00000000000E+00 -0.42493391251E+01  0.42493391251E+01  0.00000000000E+00 0.  1.
          2    1    1    2  502    0 -0.11542661911E+02 -0.20811992101E+02  0.52176612212E+03  0.52230858527E+03  0.00000000000E+00 0. -1.
         -2    1    1    2    0  502  0.11542661911E+02  0.20811992101E+02  0.31614950985E+02  0.39571166080E+02  0.00000000000E+00 0.  1.
</event>
<event>
 4    1  0.5841374E+003  0.2219084E+02  0.7546771E-02  0.1502917E+00
          2   -1    0    0  501    0  0.00000000000E+00  0.00000000000E+00  0.82822267758E+03  0.82822267758E+03  0.00000000000E+00 0.  1.
         -2   -1    0    0    0  501 -0.00000000000E+00 -0.00000000000E+00 -0.99282813091E+00  0.99282813091E+00  0.00000000000E+00 0. -1.
          2    1    1    2  502    0 -0.22151390031E+02  0.13226234854E+01  0.67620883220E+03  0.67657284763E+03  0.00000000000E+00 0.  1.
         -2    1    1    2    0  502  0.22151390031E+02 -0.13226234854E+01  0.15102101725E+03  0.15264265808E+03  0.00000000000E+00 0. -1.
</event>
<event>
 4    1  0.5841374E+003  0.2530766E+02  0.7546771E-02  0.1465391E+00
          2   -1    0    0  501    0  0.00000000000E+00  0.00000000000E+00  0.27467737231E+02  0.27467737231E+02  0.00000000000E+00 0. -1.
         -2   -1    0    0    0  501 -0.00000000000E+00 -0.00000000000E+00 -0.58415599054E+02  0.58415599054E+02  0.00000000000E+00 0. -1.
          2    1    1    2  502    0  0.85224759748E+01 -0.23829504448E+02  0.17811680269E+02  0.30947275050E+02  0.00000000000E+00 0. -1.
         -2    1    1    2    0  502 -0.85224759748E+01  0.23829504448E+02 -0.48759542092E+02  0.54936061235E+02  0.00000000000E+00 0. -1.
</event>
<event>
 4    1  0.5841374E+003  0.2303834E+02  0.7546771E-02  0.1492017E+00
          2   -1    0    0  501    0  0.00000000000E+00  0.00000000000E+00  0.10918212706E+02  0.10918212706E+02  0.00000000000E+00 0.  1.
         -2   -1    0    0    0  501 -0.00000000000E+00 -0.00000000000E+00 -0.93762837479E+02  0.93762837479E+02  0.00000000000E+00 0.  1.
          2    1    1    2  502    0  0.21659187741E+02 -0.78514179442E+01 -0.51018276727E+01  0.23596479037E+02  0.00000000000E+00 0.  1.
         -2    1    1    2    0  502 -0.21659187741E+02  0.78514179442E+01 -0.77742797100E+02  0.81084571148E+02  0.00000000000E+00 0.  1.
</event>
<event>
 4    1  0.5841374E+003  0.2010109E+02  0.7546771E-02  0.1532496E+00
          2   -1    0    0  501    0  0.00000000000E+00  0.00000000000E+00  0.37824860317E+03  0.37824860317E+03  0.00000000000E+00 0. -1.
         -2   -1    0    0    0  501 -0.00000000000E+00 -0.00000000000E+00 -0.20570222802E+01  0.20570222802E+01  0.00000000000E+00 0. -1.
          2    1    1    2  502    0 -0.22815543602E+01 -0.19971186726E+02  0.31993280696E+03  0.32056365165E+03  0.00000000000E+00 0. -1.
         -2    1    1    2    0  502  0.22815543602E+01  0.19971186726E+02  0.56258773935E+02  0.59741973806E+02  0.00000000000E+00 0. -1.
</event>
<event>
 4    1  0.5841374E+003  0.2392952E+02  0.7546771E-02  0.1481145E+00
          2   -1    0    0  501    0  0.00000000000E+00  0.00000000000E+00  0.92697613908E+03  0.92697613908E+03  0.00000000000E+00 0.  1.
         -2   -1    0    0    0  501 -0.00000000000E+00 -0.00000000000E+00 -0.27945616017E+01  0.27945616017E+01  0.00000000000E+00 0.  1.
          2    1    1    2  502    0 -0.19528751863E+02  0.13829301491E+02  0.87239063307E+03  0.87271876249E+03  0.00000000000E+00 0.  1.
         -2    1    1    2    0  502  0.19528751863E+02 -0.13829301491E+02  0.51790944409E+02  0.57051938195E+02  0.00000000000E+00 0.  1.
</event>
<event>
 4    1  0.5841374E+003  0.2281311E+02  0.7546771E-02  0.1494858E+00
          2   -1    0    0  501    0  0.00000000000E+00  0.00000000000E+00  0.78075492944E+02  0.78075492944E+02  0.00000000000E+00 0. -1.
         -2   -1    0    0    0  501 -0.00000000000E+00 -0.00000000000E+00 -0.72840939560E+02  0.72840939560E+02  0.00000000000E+00 0.  1.
          2    1    1    2  502    0 -0.22707733508E+02  0.21901838931E+01  0.74539995374E+02  0.77952863815E+02  0.00000000000E+00 0. -1.
         -2    1    1    2    0  502  0.22707733508E+02 -0.21901838931E+01 -0.69305441989E+02  0.72963568689E+02  0.00000000000E+00 0.  1.
</event>
<event>
 4    1  0.8714034E+003  0.2778513E+02  0.7546771E-02  0.1439877E+00
          2   -1    0    0  501    0  0.00000000000E+00  0.00000000000E+00  0.11771675680E+04  0.11771675680E+04  0.00000000000E+00 0.  1.
         -2   -1    0    0    0  501 -0.00000000000E+00 -0.00000000000E+00 -0.83783882518E+03  0.83783882518E+03  0.00000000000E+00 0. -1.
          2    1    1    2  502    0  0.17469770394E+02  0.21606032521E+02  0.11767731765E+04  0.11771011522E+04  0.00000000000E+00 0.  1.
         -2    1    1    2    0  502 -0.17469770394E+02 -0.21606032521E+02 -0.83744443364E+03  0.83790524104E+03  0.00000000000E+00 0. -1.
</event>
<event>
 4    1  0.5841374E+003  0.2652068E+02  0.7546771E-02  0.1452483E+00
          2   -1    0    0  501    0  0.00000000000E+00  0.00000000000E+00  0.53334448892E+03  0.53334448892E+03  0.00000000000E+00 0. -1.
         -2   -1    0    0    0  501 -0.00000000000E+00 -0.00000000000E+00 -0.27956913209E+01  0.27956913209E+01  0.00000000000E+00 0.  1.
          2    1    1    2  502    0 -0.23455353025E+02  0.12377118886E+02  0.46011782340E+03  0.46088150111E+03  0.00000000000E+00 0. -1.
         -2    1    1    2    0  502  0.23455353025E+02 -0.12377118886E+02  0.70430974196E+02  0.75258679125E+02  0.00000000000E+00 0.  1.
</event>
<event>
 4    1  0.5841374E+003  0.2012840E+02  0.7546771E-02  0.1532082E+00
          2   -1    0    0  501    0  0.00000000000E+00  0.00000000000E+00  0.83860271198E+03  0.83860271198E+03  0.00000000000E+00 0. -1.
         -2   -1    0    0    0  501 -0.00000000000E+00 -0.00000000000E+00 -0.40163348705E+01  0.40163348705E+01  0.00000000000E+00 0.  1.
          2    1    1    2  502    0 -0.92570094159E+00  0.20107098638E+02  0.81245126224E+03  0.81270056347E+03  0.00000000000E+00 0. -1.
         -2    1    1    2    0  502  0.92570094159E+00 -0.20107098638E+02  0.22135114866E+02  0.29918483384E+02  0.00000000000E+00 0.  1.
</event>
<event>
 4    1  0.5841374E+003  0.2435062E+02  0.7546771E-02  0.1476201E+00
          2   -1    0    0  501    0  0.00000000000E+00  0.00000000000E+00  0.95313799937E+02  0.95313799937E+02  0.00000000000E+00 0.  1.
         -2   -1    0    0    0  501 -0.00000000000E+00 -0.00000000000E+00 -0.10585645010E+03  0.10585645010E+03  0.00000000000E+00 0. -1.
          2    1    1    2  502    0  0.39759319793E+01  0.24023839494E+02  0.92313414884E+02  0.95471039937E+02  0.00000000000E+00 0.  1.
         -2    1    1    2    0  502 -0.39759319793E+01 -0.24023839494E+02 -0.10285606505E+03  0.10569921010E+03  0.00000000000E+00 0. -1.
</event>
<event>
 4    1  0.5841374E+003  0.2300438E+02  0.7546771E-02  0.1492443E+00
          2   -1    0    0  501    0  0.00000000000E+00  0.00000000000E+00  0.10057385959E+03  0.10057385959E+03  0.00000000000E+00 0.  1.
         -2   -1    0    0    0  501 -0.00000000000E+00 -0.00000000000E+00 -0.35787755819E+02  0.35787755819E+02  0.00000000000E+00 0.  1.
          2    1    1    2  502    0 -0.90735445207E+01 -0.21139355154E+02  0.95362429732E+02  0.98097882499E+02  0.00000000000E+00 0.  1.
         -2    1    1    2    0  502  0.90735445207E+01  0.21139355154E+02 -0.30576325964E+02  0.38263732907E+02  0.00000000000E+00 0.  1.
</event>
<event>
 4    1  0.5841374E+003  0.2071461E+02  0.7546771E-02  0.1523379E+00
          2   -1    0    0  501    0  0.00000000000E+00  0.00000000000E+00  0.70258602967E+03  0.70258602967E+03  0.00000000000E+00 0. -1.
         -2   -1    0    0    0  501 -0.00000000000E+00 -0.00000000000E+00 -0.70010468318E+00  0.70010468318E+00  0.00000000000E+00 0. -1.
          2    1    1    2  502    0  0.15829565559E+02  0.13361133780E+02  0.47657825515E+03  0.47702822592E+03  0.00000000000E+00 0. -1.
         -2    1    1    2    0  502 -0.15829565559E+02 -0.13361133780E+02  0.22530766983E+03  0.22625790843E+03  0.00000000000E+00 0. -1.
</event>
<event>
 4    1  0.5841374E+003  0.2257938E+02  0.7546771E-02  0.1497849E+00
          2   -1    0    0  501    0  0.00000000000E+00  0.00000000000E+00  0.11028471942E+04  0.11028471942E+04  0.00000000000E+00 0. -1.
         -2   -1    0    0    0  501 -0.00000000000E+00 -0.00000000000E+00 -0.15313004472E+01  0.15313004472E+01  0.00000000000E+00 0.  1.
          2    1    1    2  502    0 -0.18246176993E+02 -0.13300579611E+02  0.10120286088E+04  0.10122804618E+04  0.00000000000E+00 0. -1.
         -2    1    1    2    0  502  0.18246176993E+02  0.13300579611E+02  0.89287284971E+02  0.92098032826E+02  0.00000000000E+00 0.  1.
</event>
<event>
 4    1  0.5841374E+003  0.3450228E+02  0.7546771E-02  0.1384096E+00
          2   -1    0    0  501    0  0.00000000000E+00  0.00000000000E+00  0.58093338458E+03  0.58093338458E+03  0.00000000000E+00 0. -1.
         -2   -1    0    0    0  501 -0.00000000000E+00 -0.00000000000E+00 -0.53899066560E+02  0.53899066560E+02  0.00000000000E+00 0.  1.
          2    1    1    2  502    0  0.27246906265E+02  0.21166326080E+02  0.57484117299E+03  0.57587566491E+03  0.00000000000E+00 0. -1.
         -2    1    1    2    0  502 -0.27246906265E+02 -0.21166326080E+02 -0.47806854974E+02  0.58956786235E+02  0.00000000000E+00 0.  1.
</event>
<event>
 4    1  0.5841374E+003  0.3216441E+02  0.7546771E-02  0.1401675E+00
          2   -1    0    0  501    0  0.00000000000E+00  0.00000000000E+00  0.41579270887E+03  0.41579270887E+03  0.00000000000E+00 0.  1.
         -2   -1    0    0    0  501 -0.00000000000E+00 -0.00000000000E+00 -0.60248384777E+02  0.60248384777E+02  0.00000000000E+00 0. -1.
          2    1    1    2  502    0  0.31149840264E+02  0.80147735153E+01  0.41082600518E+03  0.41208319024E+03  0.00000000000E+00 0.  1.
         -2    1    1    2    0  502 -0.31149840264E+02 -0.80147735153E+01 -0.55281681095E+02  0.63957903403E+02  0.00000000000E+00 0. -1.
</event>
<event>
 4    1  0.5841374E+003  0.3353410E+02  0.7546771E-02  0.1391172E+00
          2   -1    0    0  501    0  0.00000000000E+00  0.00000000000E+00  0.17656459154E+04  0.17656459154E+04  0.00000000000E+00 0.  1.
         -2   -1    0    0    0  501 -0.00000000000E+00 -0.00000000000E+00 -0.23231963500E+01  0.23231963500E+01  0.00000000000E+00 0. -1.
          2    1    1    2  502    0  0.69801776738E+01  0.32799587105E+02  0.16347896598E+04  0.16351335626E+04  0.00000000000E+00 0.  1.
         -2    1    1    2    0  502 -0.69801776738E+01 -0.32799587105E+02  0.12853305928E+03  0.13283554917E+03  0.00000000000E+00 0. -1.
</event>
<event>
 4    1  0.5841374E+003  0.2176409E+02  0.7546771E-02  0.1508629E+00
          2   -1    0    0  501    0  0.00000000000E+00  0.00000000000E+00  0.16333361597E+04  0.16333361597E+04  0.00000000000E+00 0. -1.
         -2   -1    0    0    0  501 -0.00000000000E+00 -0.00000000000E+00 -0.53984456908E+00  0.53984456908E+00  0.00000000000E+00 0. -1.
          2    1    1    2  502    0 -0.21659290252E+02 -0.21332779363E+01  0.13721556179E+04  0.13723282098E+04  0.00000000000E+00 0. -1.
         -2    1    1    2    0  502  0.21659290252E+02  0.21332779363E+01  0.26064069724E+03  0.26154779446E+03  0.00000000000E+00 0. -1.
</event>
<event>
 4    1  0.5841374E+003  0.2138294E+02  0.7546771E-02  0.1513867E+00
          2   -1    0    0  501    0  0.00000000000E+00  0.00000000000E+00  0.16254464267E+02  0.16254464267E+02  0.00000000000E+00 0. -1.
         -2   -1    0    0    0  501 -0.00000000000E+00 -0.00000000000E+00 -0.37692889310E+02  0.37692889310E+02  0.00000000000E+00 0. -1.
          2    1    1    2  502    0 -0.18038677081E+02 -0.11482000277E+02  0.28675506463E+01  0.21574360892E+02  0.00000000000E+00 0. -1.
         -2    1    1    2    0  502  0.18038677081E+02  0.11482000277E+02 -0.24305975690E+02  0.32372992685E+02  0.00000000000E+00 0. -1.
</event>
<event>
 4    1  0.5841374E+003  0.2004685E+02  0.7546771E-02  0.1533321E+00
          2   -1    0    0  501    0  0.00000000000E+00  0.00000000000E+00  0.15221597787E+02  0.15221597787E+02  0.00000000000E+00 0.  1.
         -2   -1    0    0    0  501 -0.00000000000E+00 -0.00000000000E+00 -0.97477552627E+02  0.97477552627E+02  0.00000000000E+00 0.  1.
          2    1    1    2  502    0 -0.43259164769E+01 -0.19574538862E+02  0.69891136128E+01  0.21230257515E+02  0.00000000000E+00 0.  1.
         -2    1    1    2    0  502  0.43259164769E+01  0.19574538862E+02 -0.89245068453E+02  0.91468892899E+02  0.00000000000E+00 0.  1.
</event>
<event>
 4    1  0.5841374E+003  0.2135979E+02  0.7546771E-02  0.1514189E+00
          2   -1    0    0  501    0  0.00000000000E+00  0.00000000000E+00  0.34854770175E+03  0.34854770175E+03  0.00000000000E+00 0.  1.
         -2   -1    0    0    0  501 -0.00000000000E+00 -0.00000000000E+00 -0.97254958249E+02  0.97254958249E+02  0.00000000000E+00 0. -1.
          2    1    1    2  502    0 -0.15519622895E+02 -0.14675900914E+02  0.34704258038E+03  0.34769928582E+03  0.00000000000E+00 0.  1.
         -2    1    1    2    0  502  0.15519622895E+02  0.14675900914E+02 -0.95749836880E+02  0.98103374178E+02  0.00000000000E+00 0. -1.
</event>
<event>
 4    1  0.5841374E+003  0.3895984E+02  0.7546771E-02  0.1354691E+00
          2   -1    0    0  501    0  0.00000000000E+00  0.00000000000E+00  0.13692119720E+04  0.13692119720E+04  0.00000000000E+00 0. -1.
         -2   -1    0    0    0  501 -0.00000000000E+00 -0.00000000000E+00 -0.21866863562E+01  0.21866863562E+01  0.00000000000E+00 0. -1.
          2    1    1    2  502    0  0.24146161960E+02  0.30575016736E+02  0.11649869071E+04  0.11656381782E+04  0.00000000000E+00 0. -1.
         -2    1    1    2    0  502 -0.24146161960E+02 -0.30575016736E+02  0.20203837859E+03  0.20576048019E+03  0.00000000000E+00 0. -1.
</event>
<event>
 4    1  0.5841374E+003  0.2491517E+02  0.7546771E-02  0.1469755E+00
          2   -1    0    0  501    0  0.00000000000E+00  0.00000000000E+00  0.22363302400E+02  0.22363302400E+02  0.00000000000E+00 0.  1.
         -2   -1    0    0    0  501 -0.00000000000E+00 -0.00000000000E+00 -0.18514053435E+03  0.18514053435E+03  0.00000000000E+00 0.  1.
          2    1    1    2  502    0 -0.12915175410E+02 -0.21306426566E+02  0.14269833393E+02  0.28712257207E+02  0.00000000000E+00 0.  1.
         -2    1    1    2    0  502  0.12915175410E+02  0.21306426566E+02 -0.17704706534E+03  0.17879157954E+03  0.00000000000E+00 0.  1.
</event>
<event>
 4    1  0.5841374E+003  0.2507897E+02  0.7546771E-02  0.1467922E+00
          2   -1    0    0  501    0  0.00000000000E+00  0.00000000000E+00  0.77897124732E+02  0.77897124732E+02  0.00000000000E+00 0. -1.
         -2   -1    0    0    0  501 -0.00000000000E+00 -0.00000000000E+00 -0.26937997171E+02  0.26937997171E+02  0.00000000000E+00 0.  1.
          2    1    1    2  502    0  0.12296771720E+02 -0.21857362764E+02  0.69343643409E+02  0.73739377425E+02  0.00000000000E+00 0. -1.
         -2    1    1    2    0  502 -0.12296771720E+02  0.21857362764E+02 -0.18384515848E+02  0.31095744479E+02  0.00000000000E+00 0.  1.
</event>
<event>
 4    1  0.5841374E+003  0.2221974E+02  0.7546771E-02  0.1502535E+00
          2   -1    0    0  501    0  0.00000000000E+00  0.00000000000E+00  0.90278528659E+03  0.90278528659E+03  0.00000000000E+00 0.  1.
         -2   -1    0    0    0  501 -0.00000000000E+00 -0.00000000000E+00 -0.57131953915E+00  0.57131953915E+00  0.00000000000E+00 0.  1.
          2    1    1    2  502    0 -0.18988710119E+02  0.11538873857E+02  0.54452301007E+03  0.54497616940E+03  0.00000000000E+00 0.  1.
         -2    1    1    2    0  502  0.18988710119E+02 -0.11538873857E+02  0.35769095698E+03  0.35838043672E+03  0.00000000000E+00 0.  1.
</event>
<event>
 4    1  0.5841374E+003  0.3008197E+02  0.7546771E-02  0.1418885E+00
          2   -1    0    0  501    0  0.00000000000E+00  0.00000000000E+00  0.39486702798E+03  0.39486702798E+03  0.00000000000E+00 0.  1.
         -2   -1    0    0    0  501 -0.00000000000E+00 -0.00000000000E+00 -0.48716512535E+02  0.48716512535E+02  0.00000000000E+00 0.  1.
          2    1    1    2  502    0  0.23592625277E+02  0.18663148291E+02  0.38958742775E+03  0.39074709076E+03  0.00000000000E+00 0.  1.
         -2    1    1    2    0  502 -0.23592625277E+02 -0.18663148291E+02 -0.43436912312E+02  0.52836449755E+02  0.00000000000E+00 0.  1.
</event>
<event>
 4    1  0.5841374E+003  0.2548722E+02  0.7546771E-02  0.1463426E+00
          2   -1    0    0  501    0  0.00000000000E+00  0.00000000000E+00  0.18526729100E+04  0.18526729100E+04  0.00000000000E+00 0. -1.
         -2   -1    0    0    0  501 -0.00000000000E+00 -0.00000000000E+00 -0.56401640685E+01  0.56401640685E+01  0.00000000000E+00 0. -1.
          2    1    1    2  502    0  0.18578279531E+02  0.17448375847E+02  0.18233284649E+04  0.18235065915E+04  0.00000000000E+00 0. -1.
         -2    1    1    2    0  502 -0.18578279531E+02 -0.17448375847E+02  0.23704281018E+02  0.34806482566E+02  0.00000000000E+00 0. -1.
</event>
<event>
 4    1  0.5841374E+003  0.2036578E+02  0.7546771E-02  0.1528516E+00
          2   -1    0    0  501    0  0.00000000000E+00  0.00000000000E+00  0.97829751618E+03  0.97829751618E+03  0.00000000000E+00 0. -1.
         -2   -1    0    0    0  501 -0.00000000000E+00 -0.00000000000E+00 -0.27482015535E+02  0.27482015535E+02  0.00000000000E+00 0.  1.
          2    1    1    2  502    0  0.13597981215E+02 -0.15161127996E+02  0.97440339014E+03  0.97461619708E+03  0.00000000000E+00 0. -1.
         -2    1    1    2    0  502 -0.13597981215E+02  0.15161127996E+02 -0.23587889491E+02  0.31163334639E+02  0.00000000000E+00 0.  1.
</event>
<event>
 4    1  0.5841374E+003  0.4776506E+02  0.7546771E-02  0.1308164E+00
          2   -1    0    0  501    0  0.00000000000E+00  0.00000000000E+00  0.11241594949E+03  0.11241594949E+03  0.00000000000E+00 0.  1.
         -2   -1    0    0    0  501 -0.00000000000E+00 -0.00000000000E+00 -0.34597005839E+02  0.34597005839E+02  0.00000000000E+00 0.  1.
          2    1    1    2  502    0  0.15689022342E+02 -0.45114913066E+02  0.86170400335E+02  0.98523290125E+02  0.00000000000E+00 0.  1.
         -2    1    1    2    0  502 -0.15689022342E+02  0.45114913066E+02 -0.83514566829E+01  0.48489665206E+02  0.00000000000E+00 0.  1.
</event>
<event>
 4    1  0.5841374E+003  0.3494904E+02  0.7546771E-02  0.1380922E+00
          2   -1    0    0  501    0  0.00000000000E+00  0.00000000000E+00  0.48857766793E+03  0.48857766793E+03  0.00000000000E+00 0. -1.
         -2   -1    0    0    0  501 -0.00000000000E+00 -0.00000000000E+00 -0.39223514449E+01  0.39223514449E+01  0.00000000000E+00 0. -1.
          2    1    1    2  502    0 -0.26752522107E+02 -0.22488618407E+02  0.39061674979E+03  0.39217710364E+03  0.00000000000E+00 0. -1.
         -2    1    1    2    0  502  0.26752522107E+02  0.22488618407E+02  0.94038566688E+02  0.10032291574E+03  0.00000000000E+00 0. -1.
</event>
<event>
 4    1  0.5841374E+003  0.4286760E+02  0.7546771E-02  0.1332454E+00
          2   -1    0    0  501    0  0.00000000000E+00  0.00000000000E+00  0.99671231896E+01  0.99671231896E+01  0.00000000000E+00 0.  1.
         -2   -1    0    0    0  501 -0.00000000000E+00 -0.00000000000E+00 -0.60311982028E+03  0.60311982028E+03  0.00000000000E+00 0. -1.
          2    1    1    2  502    0 -0.22112554495E+02 -0.36724191985E+02 -0.41148667527E+02  0.59420906948E+02  0.00000000000E+00 0.  1.
         -2    1    1    2    0  502  0.22112554495E+02  0.36724191985E+02 -0.55200402956E+03  0.55366603652E+03  0.00000000000E+00 0. -1.
</event>
<event>
 4    1  0.5841374E+003  0.2760389E+02  0.7546771E-02  0.1441634E+00
          2   -1    0    0  501    0  0.00000000000E+00  0.00000000000E+00  0.81494869530E+00  0.81494869530E+00  0.00000000000E+00 0.  1.
         -2   -1    0    0    0  501 -0.00000000000E+00 -0.00000000000E+00 -0.97382013270E+03  0.97382013270E+03  0.00000000000E+00 0.  1.
          2    1    1    2  502    0 -0.27513550324E+02  0.22314137933E+01 -0.38920155885E+03  0.39017922557E+03  0.00000000000E+00 0.  1.
         -2    1    1    2    0  502  0.27513550324E+02 -0.22314137933E+01 -0.58380362515E+03  0.58445585582E+03  0.00000000000E+00 0.  1.
</event>
<event>
 4    1  0.5841374E+003  0.2032434E+02  0.7546771E-02  0.1529134E+00
          2   -1    0    0  501    0  0.00000000000E+00  0.00000000000E+00  0.67817549121E+03  0.67817549121E+03  0.00000000000E+00 0.  1.
         -2   -1    0    0    0  501 -0.00000000000E+00 -0.00000000000E+00 -0.10464861712E+01  0.10464861712E+01  0.00000000000E+00 0.  1.
          2    1    1    2  502    0  0.19878311556E+02  0.42345453703E+01  0.55812089251E+03  0.55849083188E+03  0.00000000000E+00 0.  1.
         -2    1    1    2    0  502 -0.19878311556E+02 -0.42345453703E+01  0.11900811253E+03  0.12073114549E+03  0.00000000000E+00 0.  1.
</event>
<event>
 4    1  0.5841374E+003  0.2917796E+02  0.7546771E-02  0.1426877E+00
          2   -1    0    0  501    0  0.00000000000E+00  0.00000000000E+00  0.25397892075E+03  0.25397892075E+03  0.00000000000E+00 0.  1.
         -2   -1    0    0    0  501 -0.00000000000E+00 -0.00000000000E+00 -0.38987313240E+02  0.38987313240E+02  0.00000000000E+00 0.  1.
          2    1    1    2  502    0 -0.27505087818E+02  0.97377392959E+01  0.24754022835E+03  0.24925392289E+03  0.00000000000E+00 0.  1.
         -2    1    1    2    0  502  0.27505087818E+02 -0.97377392959E+01 -0.32548620847E+02  0.43712311098E+02  0.00000000000E+00 0.  1.
</event>
<event>
 4    1  0.5841374E+003  0.2126886E+02  0.7546771E-02  0.1515461E+00
          2   -1    0    0  501    0  0.00000000000E+00  0.00000000000E+00  0.70774691309E+03  0.70774691309E+03  0.00000000000E+00 0.  1.
         -2   -1    0    0    0  501 -0.00000000000E+00 -0.00000000000E+00 -0.64005143793E+01  0.64005143793E+01  0.00000000000E+00 0. -1.
          2    1    1    2  502    0 -0.19143977253E+02  0.92667324501E+01  0.68944924951E+03  0.68977723349E+03  0.00000000000E+00 0.  1.
         -2    1    1    2    0  502  0.19143977253E+02 -0.92667324501E+01  0.11897149202E+02  0.24370193977E+02  0.00000000000E+00 0. -1.
</event>
<event>
 4    1  0.5841374E+003  0.2456943E+02  0.7546771E-02  0.1473678E+00
          2   -1    0    0  501    0  0.00000000000E+00  0.00000000000E+00  0.38163819746E+01  0.38163819746E+01  0.00000000000E+00 0. -1.
         -2   -1    0    0    0  501 -0.00000000000E+00 -0.00000000000E+00 -0.18613697731E+03  0.18613697731E+03  0.00000000000E+00 0. -1.
          2    1    1    2  502    0 -0.86794158136E+01 -0.22985308748E+02 -0.54348785244E+02  0.59644338664E+02  0.00000000000E+00 0. -1.
         -2    1    1    2    0  502  0.86794158136E+01  0.22985308748E+02 -0.12797181009E+03  0.13030902062E+03  0.00000000000E+00 0. -1.
</event>
<event>
 4    1  0.5841374E+003  0.5911491E+02  0.7546771E-02  0.1262870E+00
          2   -1    0    0  501    0  0.00000000000E+00  0.00000000000E+00  0.84019420251E+03  0.84019420251E+03  0.00000000000E+00 0. -1.
         -2   -1    0    0    0  501 -0.00000000000E+00 -0.00000000000E+00 -0.51937287554E+01  0.51937287554E+01  0.00000000000E+00 0.  1.
          2    1    1    2  502    0  0.53424918452E+02 -0.25305152371E+02  0.60614661652E+03  0.60902240793E+03  0.00000000000E+00 0. -1.
         -2    1    1    2    0  502 -0.53424918452E+02  0.25305152371E+02  0.22885385724E+03  0.23636552333E+03  0.00000000000E+00 0.  1.
</event>
<event>
 4    1  0.5841374E+003  0.2192161E+02  0.7546771E-02  0.1506502E+00
          2   -1    0    0  501    0  0.00000000000E+00  0.00000000000E+00  0.13235631236E+03  0.13235631236E+03  0.00000000000E+00 0.  1.
         -2   -1    0    0    0  501 -0.00000000000E+00 -0.00000000000E+00 -0.25835053596E+03  0.25835053596E+03  0.00000000000E+00 0.  1.
          2    1    1    2  502    0 -0.20197423618E+02 -0.85218058116E+01  0.13097873509E+03  0.13280055023E+03  0.00000000000E+00 0.  1.
         -2    1    1    2    0  502  0.20197423618E+02  0.85218058116E+01 -0.25697295870E+03  0.25790629809E+03  0.00000000000E+00 0.  1.
</event>
<event>
 4    1  0.5841374E+003  0.2142707E+02  0.7546771E-02  0.1513254E+00
          2   -1    0    0  501    0  0.00000000000E+00  0.00000000000E+00  0.28122241102E+03  0.28122241102E+03  0.00000000000E+00 0. -1.
         -2   -1    0    0    0  501 -0.00000000000E+00 -0.00000000000E+00 -0.28710809332E+01  0.28710809332E+01  0.00000000000E+00 0. -1.
          2    1    1    2  502    0 -0.20676920117E+02 -0.56199967298E+01  0.23247014051E+03  0.23345553242E+03  0.00000000000E+00 0. -1.
         -2    1    1    2    0  502  0.20676920117E+02  0.56199967298E+01  0.45881189584E+02  0.50637959540E+02  0.00000000000E+00 0. -1.
</event>
<event>
 4    1  0.5841374E+003  0.2338842E+02  0.7546771E-02  0.1487677E+00
          2   -1    0    0  501    0  0.00000000000E+00  0.00000000000E+00  0.24717278565E+03  0.24717278565E+03  0.00000000000E+00 0. -1.
         -2   -1    0    0    0  501 -0.00000000000E+00 -0.00000000000E+00 -0.45785495082E+01  0.45785495082E+01  0.00000000000E+00 0. -1.
          2    1    1    2  502    0  0.21701146744E+02  0.87223045169E+01  0.21177336325E+03  0.21306096721E+03  0.00000000000E+00 0. -1.
         -2    1    1    2    0  502 -0.21701146744E+02 -0.87223045169E+01  0.30820872886E+02  0.38690367943E+02  0.00000000000E+00 0. -1.
</event>
<event>
 4    1  0.5841374E+003  0.3989154E+02  0.7546771E-02  0.1349123E+00
          2   -1    0    0  501    0  0.00000000000E+00  0.00000000000E+00  0.71802270622E+03  0.71802270622E+03  0.00000000000E+00 0. -1.
         -2   -1    0    0    0  501 -0.00000000000E+00 -0.00000000000E+00 -0.41570308258E+02  0.41570308258E+02  0.00000000000E+00 0.  1.
          2    1    1    2  502    0 -0.33654827556E+02  0.21417001096E+02  0.70775983168E+03  0.70888314601E+03  0.00000000000E+00 0. -1.
         -2    1    1    2    0  502  0.33654827556E+02 -0.21417001096E+02 -0.31307433721E+02  0.50709868467E+02  0.00000000000E+00 0.  1.
</event>
<event>
 4    1  0.5841374E+003  0.2050147E+02  0.7546771E-02  0.1526503E+00
          2   -1    0    0  501    0  0.00000000000E+00  0.00000000000E+00  0.16877424479E+03  0.16877424479E+03  0.00000000000E+00 0.  1.
         -2   -1    0    0    0  501 -0.00000000000E+00 -0.00000000000E+00 -0.20070004899E+03  0.20070004899E+03  0.00000000000E+00 0. -1.
          2    1    1    2  502    0 -0.21636205492E+01 -0.20386982590E+02  0.16762451927E+03  0.16887359111E+03  0.00000000000E+00 0.  1.
         -2    1    1    2    0  502  0.21636205492E+01  0.20386982590E+02 -0.19955032347E+03  0.20060070267E+03  0.00000000000E+00 0. -1.
</event>
<event>
 4    1  0.5841374E+003  0.2316862E+02  0.7546771E-02  0.1490392E+00
          2   -1    0    0  501    0  0.00000000000E+00  0.00000000000E+00  0.17232535205E+03  0.17232535205E+03  0.00000000000E+00 0. -1.
         -2   -1    0    0    0  501 -0.00000000000E+00 -0.00000000000E+00 -0.94799048994E+02  0.94799048994E+02  0.00000000000E+00 0.  1.
          2    1    1    2  502    0  0.18734370176E+02  0.13631145394E+02  0.17011270101E+03  0.17168318438E+03  0.00000000000E+00 0. -1.
         -2    1    1    2    0  502 -0.18734370176E+02 -0.13631145394E+02 -0.92586397963E+02  0.95441216665E+02  0.00000000000E+00 0.  1.
</event>
<event>
 4    1  0.5841374E+003  0.2632262E+02  0.7546771E-02  0.1454534E+00
          2   -1    0    0  501    0  0.00000000000E+00  0.00000000000E+00  0.39515951435E+03  0.39515951435E+03  0.00000000000E+00 0.  1.
         -2   -1    0    0    0  501 -0.00000000000E+00 -0.00000000000E+00 -0.15508736999E+02  0.15508736999E+02  0.00000000000E+00 0. -1.
          2    1    1    2  502    0  0.24695050215E+02  0.91123457553E+01  0.38320390740E+03  0.38410690569E+03  0.00000000000E+00 0.  1.
         -2    1    1    2    0  502 -0.24695050215E+02 -0.91123457553E+01 -0.35531300475E+01  0.26561345663E+02  0.00000000000E+00 0. -1.
</event>
<event>
 4    1  0.5841374E+003  0.2229668E+02  0.7546771E-02  0.1501524E+00
          2   -1    0    0  501    0  0.00000000000E+00  0.00000000000E+00  0.47500097054E+03  0.47500097054E+03  0.00000000000E+00 0.  1.
         -2   -1    0    0    0  501 -0.00000000000E+00 -0.00000000000E+00 -0.33757260457E+01  0.33757260457E+01  0.00000000000E+00 0. -1.
          2    1    1    2  502    0 -0.21849751176E+02 -0.44418803548E+01  0.43449152743E+03  0.43506324751E+03  0.00000000000E+00 0.  1.
         -2    1    1    2    0  502  0.21849751176E+02  0.44418803548E+01  0.37133717059E+02  0.43313449068E+02  0.00000000000E+00 0. -1.
</event>
<event>
 4    1  0.5841374E+003  0.3738863E+02  0.7546771E-02  0.1364507E+00
          2   -1    0    0  501    0  0.00000000000E+00  0.00000000000E+00  0.11445869050E+04  0.11445869050E+04  0.00000000000E+00 0.  1.
         -2   -1    0    0    0  501 -0.00000000000E+00 -0.00000000000E+00 -0.25043041420E+01  0.25043041420E+01  0.00000000000E+00 0. -1.
          2    1    1    2  502    0  0.32982938627E+02 -0.17607811965E+02  0.98156166760E+03  0.98227349378E+03  0.00000000000E+00 0.  1.
         -2    1    1    2    0  502 -0.32982938627E+02  0.17607811965E+02  0.16052093323E+03  0.16481771534E+03  0.00000000000E+00 0. -1.
</event>
<event>
 4    1  0.5841374E+003  0.3226397E+02  0.7546771E-02  0.1400891E+00
          2   -1    0    0  501    0  0.00000000000E+00  0.00000000000E+00  0.73011398935E+03  0.73011398935E+03  0.00000000000E+00 0.  1.
         -2   -1    0    0    0  501 -0.00000000000E+00 -0.00000000000E+00 -0.13712913145E+02  0.13712913145E+02  0.00000000000E+00 0. -1.
          2    1    1    2  502    0  0.13704123645E+02  0.29208919214E+02  0.71024923431E+03  0.71098167262E+03  0.00000000000E+00 0.  1.
         -2    1    1    2    0  502 -0.13704123645E+02 -0.29208919214E+02  0.61518418907E+01  0.32845229869E+02  0.00000000000E+00 0. -1.
</event>
<event>
 4    1  0.5841374E+003  0.2033444E+02  0.7546771E-02  0.1528983E+00
          2   -1    0    0  501    0  0.00000000000E+00  0.00000000000E+00  0.66880617617E+02  0.66880617617E+02  0.00000000000E+00 0.  1.
         -2   -1    0    0    0  501 -0.00000000000E+00 -0.00000000000E+00 -0.12274249508E+03  0.12274249508E+03  0.00000000000E+00 0.  1.
          2    1    1    2  502    0  0.95174604989E+01 -0.17969629347E+02  0.64461952212E+02  0.67593142523E+02  0.00000000000E+00 0.  1.
         -2    1    1    2    0  502 -0.95174604989E+01  0.17969629347E+02 -0.12032382968E+03  0.12202997018E+03  0.00000000000E+00 0.  1.
</event>
<event>
 4    1  0.7294440E+003  0.3402435E+02  0.7546771E-02  0.1387555E+00
          2   -1    0    0  501    0  0.00000000000E+00  0.00000000000E+00  0.14559283312E+04  0.14559283312E+04  0.00000000000E+00 0. -1.
         -2   -1    0    0    0  501 -0.00000000000E+00 -0.00000000000E+00 -0.31628989906E+03  0.31628989906E+03  0.00000000000E+00 0. -1.
          2    1    1    2  502    0 -0.32970047076E+02 -0.84043119217E+01  0.14548138191E+04  0.14552116357E+04  0.00000000000E+00 0. -1.
         -2    1    1    2    0  502  0.32970047076E+02  0.84043119217E+01 -0.31517538695E+03  0.31700659457E+03  0.00000000000E+00 0. -1.
</event>
<event>
 4    1  0.5841374E+003  0.2272782E+02  0.7546771E-02  0.1495945E+00
          2   -1    0    0  501    0  0.00000000000E+00  0.00000000000E+00  0.16391679491E+04  0.16391679491E+04  0.00000000000E+00 0.  1.
         -2   -1    0    0    0  501 -0.00000000000E+00 -0.00000000000E+00 -0.16965971372E+01  0.16965971372E+01  0.00000000000E+00 0. -1.
          2    1    1    2  502    0  0.19379049039E+02  0.11874598095E+02  0.15590623514E+04  0.15592280042E+04  0.00000000000E+00 0.  1.
         -2    1    1    2    0  502 -0.19379049039E+02 -0.11874598095E+02  0.78409000550E+02  0.81636541994E+02  0.00000000000E+00 0. -1.
</event>
<event>
 4    1  0.5841374E+003  0.2165672E+02  0.7546771E-02  0.1510092E+00
          2   -1    0    0  501    0  0.00000000000E+00  0.00000000000E+00  0.27602689491E+01  0.27602689491E+01  0.00000000000E+00 0.  1.
         -2   -1    0    0    0  501 -0.00000000000E+00 -0.00000000000E+00 -0.29551563247E+03  0.29551563247E+03  0.00000000000E+00 0.  1.
          2    1    1    2  502    0  0.21550966985E+02 -0.21376163566E+01 -0.49149469763E+02  0.53709253948E+02  0.00000000000E+00 0.  1.
         -2    1    1    2    0  502 -0.21550966985E+02  0.21376163566E+01 -0.24360589376E+03  0.24456664747E+03  0.00000000000E+00 0.  1.
</event>
<event>
 4    1  0.5841374E+003  0.2552103E+02  0.7546771E-02  0.1463058E+00
          2   -1    0    0  501    0  0.00000000000E+00  0.00000000000E+00  0.87880794139E+02  0.87880794139E+02  0.00000000000E+00 0.  1.
         -2   -1    0    0    0  501 -0.00000000000E+00 -0.00000000000E+00 -0.10849588207E+02  0.10849588207E+02  0.00000000000E+00 0.  1.
          2    1    1    2  502    0  0.23982033587E+02 -0.87284182265E+01  0.66304832250E+02  0.71046843698E+02  0.00000000000E+00 0.  1.
         -2    1    1    2    0  502 -0.23982033587E+02  0.87284182265E+01  0.10726373683E+02  0.27683538648E+02  0.00000000000E+00 0.  1.
</event>
<event>
 4    1  0.5841374E+003  0.2144329E+02  0.7546771E-02  0.1513029E+00
          2   -1    0    0  501    0  0.00000000000E+00  0.00000000000E+00  0.23668633023E+01  0.23668633023E+01  0.00000000000E+00 0.  1.
         -2   -1    0    0    0  501 -0.00000000000E+00 -0.00000000000E+00 -0.23430057835E+03  0.23430057835E+03  0.00000000000E+00 0. -1.
          2    1    1    2  502    0  0.13703940184E+02  0.16492925375E+02 -0.67055633034E+02  0.70400798899E+02  0.00000000000E+00 0.  1.
         -2    1    1    2    0  502 -0.13703940184E+02 -0.16492925375E+02 -0.16487808201E+03  0.16626664275E+03  0.00000000000E+00 0. -1.
</event>
<event>
 4    1  0.5841374E+003  0.2839549E+02  0.7546771E-02  0.1434072E+00
          2   -1    0    0  501    0  0.00000000000E+00  0.00000000000E+00  0.78289380670E+01  0.78289380670E+01  0.00000000000E+00 0. -1.
         -2   -1    0    0    0  501 -0.00000000000E+00 -0.00000000000E+00 -0.25654420629E+03  0.25654420629E+03  0.00000000000E+00 0. -1.
          2    1    1    2  502    0 -0.15784821923E+02 -0.23603886628E+02 -0.22090336392E+02  0.35976200870E+02  0.00000000000E+00 0. -1.
         -2    1    1    2    0  502  0.15784821923E+02  0.23603886628E+02 -0.22662493183E+03  0.22839694349E+03  0.00000000000E+00 0. -1.
</event>
<event>
 4    1  0.5841374E+003  0.2150514E+02  0.7546771E-02  0.1512173E+00
          2   -1    0    0  501    0  0.00000000000E+00  0.00000000000E+00  0.12910774073E+04  0.12910774073E+04  0.00000000000E+00 0. -1.
         -2   -1    0    0    0  501 -0.00000000000E+00 -0.00000000000E+00 -0.37150977882E+02  0.37150977882E+02  0.00000000000E+00 0.  1.
          2    1    1    2  502    0  0.20957756375E+02 -0.48211661412E+01  0.12878679945E+04  0.12880475311E+04  0.00000000000E+00 0. -1.
         -2    1    1    2    0  502 -0.20957756375E+02  0.48211661412E+01 -0.33941565060E+02  0.40180854072E+02  0.00000000000E+00 0.  1.
</event>
<event>
 4    1  0.5841374E+003  0.2192816E+02  0.7546771E-02  0.1506414E+00
          2   -1    0    0  501    0  0.00000000000E+00  0.00000000000E+00  0.11321674808E+03  0.11321674808E+03  0.00000000000E+00 0. -1.
         -2   -1    0    0    0  501 -0.00000000000E+00 -0.00000000000E+00 -0.10463087344E+03  0.10463087344E+03  0.00000000000E+00 0.  1.
          2    1    1    2  502    0 -0.20959955305E+02 -0.64439344693E+01  0.11098316397E+03  0.11312871741E+03  0.00000000000E+00 0. -1.
         -2    1    1    2    0  502  0.20959955305E+02  0.64439344693E+01 -0.10239728932E+03  0.10471890411E+03  0.00000000000E+00 0.  1.
</event>
<event>
 4    1  0.5841374E+003  0.3302251E+02  0.7546771E-02  0.1395025E+00
          2   -1    0    0  501    0  0.00000000000E+00  0.00000000000E+00  0.23161297450E+03  0.23161297450E+03  0.00000000000E+00 0.  1.
         -2   -1    0    0    0  501 -0.00000000000E+00 -0.00000000000E+00 -0.62719607794E+01  0.62719607794E+01  0.00000000000E+00 0.  1.
          2    1    1    2  502    0 -0.27176081872E+02 -0.18760236400E+02  0.17206101275E+03  0.17520125001E+03  0.00000000000E+00 0.  1.
         -2    1    1    2    0  502  0.27176081872E+02  0.18760236400E+02  0.53280000965E+02  0.62683685266E+02  0.00000000000E+00 0.  1.
</event>
<event>
 4    1  0.5841374E+003  0.2210895E+02  0.7546771E-02  0.1504001E+00
          2   -1    0    0  501    0  0.00000000000E+00  0.00000000000E+00  0.19139939656E+01  0.19139939656E+01  0.00000000000E+00 0.  1.
         -2   -1    0    0    0  501 -0.00000000000E+00 -0.00000000000E+00 -0.31234464617E+03  0.31234464617E+03  0.00000000000E+00 0. -1.
          2    1    1    2  502    0 -0.11752298546E+02 -0.18726700985E+02 -0.88115276742E+02  0.90846617142E+02  0.00000000000E+00 0.  1.
         -2    1    1    2    0  502  0.11752298546E+02  0.18726700985E+02 -0.22231537546E+03  0.22341202299E+03  0.00000000000E+00 0. -1.
</event>
<event>
 4    1  0.5841374E+003  0.1131421E+03  0.7546771E-02  0.1142799E+00
          2   -1    0    0  501    0  0.00000000000E+00  0.00000000000E+00  0.81353689510E+03  0.81353689510E+03  0.00000000000E+00 0.  1.
         -2   -1    0    0    0  501 -0.00000000000E+00 -0.00000000000E+00 -0.15739898807E+02  0.15739898807E+02  0.00000000000E+00 0.  1.
          2    1    1    2  502    0 -0.30539938175E+02 -0.10894237617E+03  0.39170016870E+03  0.40771332000E+03  0.00000000000E+00 0.  1.
         -2    1    1    2    0  502  0.30539938175E+02  0.10894237617E+03  0.40609682760E+03  0.42156347391E+03  0.00000000000E+00 0.  1.
</event>
<event>
 4    1  0.5841374E+003  0.3464609E+02  0.7546771E-02  0.1383068E+00
          2   -1    0    0  501    0  0.00000000000E+00  0.00000000000E+00  0.31333458858E+03  0.31333458858E+03  0.00000000000E+00 0. -1.
         -2   -1    0    0    0  501 -0.00000000000E+00 -0.00000000000E+00 -0.28447141353E+03  0.28447141353E+03  0.00000000000E+00 0.  1.
          2    1    1    2  502    0  0.23077493222E+02  0.25841458459E+02  0.31131514660E+03  0.31323708620E+03  0.00000000000E+00 0. -1.
         -2    1    1    2    0  502 -0.23077493222E+02 -0.25841458459E+02 -0.28245197155E+03  0.28456891591E+03  0.00000000000E+00 0.  1.
</event>
<event>
 4    1  0.5841374E+003  0.2014934E+02  0.7546771E-02  0.1531765E+00
          2   -1    0    0  501    0  0.00000000000E+00  0.00000000000E+00  0.64563300875E+03  0.64563300875E+03  0.00000000000E+00 0. -1.
         -2   -1    0    0    0  501 -0.00000000000E+00 -0.00000000000E+00 -0.61444810495E+01  0.61444810495E+01  0.00000000000E+00 0. -1.
          2    1    1    2  502    0 -0.19611043982E+02  0.46263208424E+01  0.62850708242E+03  0.62882998381E+03  0.00000000000E+00 0. -1.
         -2    1    1    2    0  502  0.19611043982E+02 -0.46263208424E+01  0.10981445284E+02  0.22947505990E+02  0.00000000000E+00 0. -1.
</event>
<event>
 4    1  0.5841374E+003  0.2914098E+02  0.7546771E-02  0.1427211E+00
          2   -1    0    0  501    0  0.00000000000E+00  0.00000000000E+00  0.52248173073E+03  0.52248173073E+03  0.00000000000E+00 0. -1.
         -2   -1    0    0    0  501 -0.00000000000E+00 -0.00000000000E+00 -0.36158376467E+02  0.36158376467E+02  0.00000000000E+00 0. -1.
          2    1    1    2  502    0  0.19849428081E+02 -0.21335348927E+02  0.51613185472E+03  0.51695385516E+03  0.00000000000E+00 0. -1.
         -2    1    1    2    0  502 -0.19849428081E+02  0.21335348927E+02 -0.29808500460E+02  0.41686252034E+02  0.00000000000E+00 0. -1.
</event>
<event>
 4    1  0.5841374E+003  0.2624201E+02  0.7546771E-02  0.1455374E+00
          2   -1    0    0  501    0  0.00000000000E+00  0.00000000000E+00  0.85475125631E+03  0.85475125631E+03  0.00000000000E+00 0. -1.
         -2   -1    0    0    0  501 -0.00000000000E+00 -0.00000000000E+00 -0.27148750218E+01  0.27148750218E+01  0.00000000000E+00 0.  1.
          2    1    1    2  502    0  0.16818732250E+02 -0.20143817811E+02  0.78555131921E+03  0.78598951537E+03  0.00000000000E+00 0. -1.
         -2    1    1    2    0  502 -0.16818732250E+02  0.20143817811E+02  0.66485062070E+02  0.71476615959E+02  0.00000000000E+00 0.  1.
</event>
<event>
 4    1  0.5841374E+003  0.2126733E+02  0.7546771E-02  0.1515482E+00
          2   -1    0    0  501    0  0.00000000000E+00  0.00000000000E+00  0.59393695357E+03  0.59393695357E+03  0.00000000000E+00 0. -1.
         -2   -1    0    0    0  501 -0.00000000000E+00 -0.00000000000E+00 -0.66357801196E+01  0.66357801196E+01  0.00000000000E+00 0.  1.
          2    1    1    2  502    0  0.20259453029E+02  0.64694663233E+01  0.57618146846E+03  0.57657383224E+03  0.00000000000E+00 0. -1.
         -2    1    1    2    0  502 -0.20259453029E+02 -0.64694663233E+01  0.11119704990E+02  0.23998901446E+02  0.00000000000E+00 0.  1.
</event>
<event>
 4    1  0.5841374E+003  0.3234649E+02  0.7546771E-02  0.1400244E+00
          2   -1    0    0  501    0  0.00000000000E+00  0.00000000000E+00  0.12728451964E+02  0.12728451964E+02  0.00000000000E+00 0.  1.
         -2   -1    0    0    0  501 -0.00000000000E+00 -0.00000000000E+00 -0.98552777388E+02  0.98552777388E+02  0.00000000000E+00 0. -1.
          2    1    1    2  502    0  0.29655649666E+02  0.12916575887E+02 -0.20248203256E+02  0.38161305334E+02  0.00000000000E+00 0.  1.
         -2    1    1    2    0  502 -0.29655649666E+02 -0.12916575887E+02 -0.65576122168E+02  0.73119924018E+02  0.00000000000E+00 0. -1.
</event>
<event>
 4    1  0.5841374E+003  0.2479281E+02  0.7546771E-02  0.1471135E+00
          2   -1    0    0  501    0  0.00000000000E+00  0.00000000000E+00  0.46338508038E+03  0.46338508038E+03  0.00000000000E+00 0. -1.
         -2   -1    0    0    0  501 -0.00000000000E+00 -0.00000000000E+00 -0.36606438055E+01  0.36606438055E+01  0.00000000000E+00 0.  1.
          2    1    1    2  502    0 -0.24456853983E+02 -0.40676533090E+01  0.41633430488E+03  0.41707186063E+03  0.00000000000E+00 0. -1.
         -2    1    1    2    0  502  0.24456853983E+02  0.40676533090E+01  0.43390131701E+02  0.49973863561E+02  0.00000000000E+00 0.  1.
</event>
<event>
 4    1  0.5841374E+003  0.6136966E+02  0.7546771E-02  0.1255249E+00
          2   -1    0    0  501    0  0.00000000000E+00  0.00000000000E+00  0.74671042358E+02  0.74671042358E+02  0.00000000000E+00 0.  1.
         -2   -1    0    0    0  501 -0.00000000000E+00 -0.00000000000E+00 -0.12462584689E+03  0.12462584689E+03  0.00000000000E+00 0.  1.
          2    1    1    2  502    0  0.36079345916E+02 -0.49643890613E+02  0.51906204091E+02  0.80377167778E+02  0.00000000000E+00 0.  1.
         -2    1    1    2    0  502 -0.36079345916E+02  0.49643890613E+02 -0.10186100862E+03  0.11891972147E+03  0.00000000000E+00 0.  1.
</event>
<event>
 4    1  0.5841374E+003  0.2128702E+02  0.7546771E-02  0.1515206E+00
          2   -1    0    0  501    0  0.00000000000E+00  0.00000000000E+00  0.40011028097E+01  0.40011028097E+01  0.00000000000E+00 0. -1.
         -2   -1    0    0    0  501 -0.00000000000E+00 -0.00000000000E+00 -0.17583675768E+03  0.17583675768E+03  0.00000000000E+00 0.  1.
          2    1    1    2  502    0 -0.21240515366E+02  0.14063193913E+01 -0.32273126432E+02  0.38661245672E+02  0.00000000000E+00 0. -1.
         -2    1    1    2    0  502  0.21240515366E+02 -0.14063193913E+01 -0.13956252844E+03  0.14117661482E+03  0.00000000000E+00 0.  1.
</event>
<event>
 4    1  0.5841374E+003  0.2490511E+02  0.7546771E-02  0.1469868E+00
          2   -1    0    0  501    0  0.00000000000E+00  0.00000000000E+00  0.75788010521E+03  0.75788010521E+03  0.00000000000E+00 0. -1.
         -2   -1    0    0    0  501 -0.00000000000E+00 -0.00000000000E+00 -0.90099394249E+00  0.90099394249E+00  0.00000000000E+00 0. -1.
          2    1    1    2  502    0  0.24619016980E+02  0.37640785539E+01  0.49334376437E+03  0.49397199731E+03  0.00000000000E+00 0. -1.
         -2    1    1    2    0  502 -0.24619016980E+02 -0.37640785539E+01  0.26363534689E+03  0.26480910184E+03  0.00000000000E+00 0. -1.
</event>
<event>
 4    1  0.5841374E+003  0.3696787E+02  0.7546771E-02  0.1367233E+00
          2   -1    0    0  501    0  0.00000000000E+00  0.00000000000E+00  0.15991142658E+03  0.15991142658E+03  0.00000000000E+00 0.  1.
         -2   -1    0    0    0  501 -0.00000000000E+00 -0.00000000000E+00 -0.23185781748E+02  0.23185781748E+02  0.00000000000E+00 0. -1.
          2    1    1    2  502    0 -0.34927899734E+02  0.12110529278E+02  0.14110834982E+03  0.14587045447E+03  0.00000000000E+00 0.  1.
         -2    1    1    2    0  502  0.34927899734E+02 -0.12110529278E+02 -0.43827049923E+01  0.37226753851E+02  0.00000000000E+00 0. -1.
</event>
<event>
 4    1  0.5841374E+003  0.2668846E+02  0.7546771E-02  0.1450763E+00
          2   -1    0    0  501    0  0.00000000000E+00  0.00000000000E+00  0.76892918381E+02  0.76892918381E+02  0.00000000000E+00 0.  1.
         -2   -1    0    0    0  501 -0.00000000000E+00 -0.00000000000E+00 -0.77725059044E+02  0.77725059044E+02  0.00000000000E+00 0. -1.
          2    1    1    2  502    0 -0.19648241746E+02 -0.18061569201E+02  0.72140014310E+02  0.76918498102E+02  0.00000000000E+00 0.  1.
         -2    1    1    2    0  502  0.19648241746E+02  0.18061569201E+02 -0.72972154973E+02  0.77699479323E+02  0.00000000000E+00 0. -1.
</event>
<event>
 4    1  0.5841374E+003  0.2725199E+02  0.7546771E-02  0.1445093E+00
          2   -1    0    0  501    0  0.00000000000E+00  0.00000000000E+00  0.19666953074E+03  0.19666953074E+03  0.00000000000E+00 0. -1.
         -2   -1    0    0    0  501 -0.00000000000E+00 -0.00000000000E+00 -0.16705180849E+04  0.16705180849E+04  0.00000000000E+00 0.  1.
          2    1    1    2  502    0  0.26778561360E+02 -0.50576402266E+01  0.19561373026E+03  0.19750291780E+03  0.00000000000E+00 0. -1.
         -2    1    1    2    0  502 -0.26778561360E+02  0.50576402266E+01 -0.16694622844E+04  0.16696846979E+04  0.00000000000E+00 0.  1.
</event>
<event>
 4    1  0.5841374E+003  0.3460258E+02  0.7546771E-02  0.1383379E+00
          2   -1    0    0  501    0  0.00000000000E+00  0.00000000000E+00  0.66433986172E+02  0.66433986172E+02  0.00000000000E+00 0. -1.
         -2   -1    0    0    0  501 -0.00000000000E+00 -0.00000000000E+00 -0.47286990981E+02  0.47286990981E+02  0.00000000000E+00 0. -1.
          2    1    1    2  502    0 -0.67267231401E+01  0.33942449324E+02  0.54304295297E+02  0.64391732063E+02  0.00000000000E+00 0. -1.
         -2    1    1    2    0  502  0.67267231401E+01 -0.33942449324E+02 -0.35157300107E+02  0.49329245090E+02  0.00000000000E+00 0. -1.
</event>
<event>
 4    1  0.5841374E+003  0.3205484E+02  0.7546771E-02  0.1402542E+00
          2   -1    0    0  501    0  0.00000000000E+00  0.00000000000E+00  0.10490482062E+04  0.10490482062E+04  0.00000000000E+00 0. -1.
         -2   -1    0    0    0  501 -0.00000000000E+00 -0.00000000000E+00 -0.36232580898E+01  0.36232580898E+01  0.00000000000E+00 0.  1.
          2    1    1    2  502    0  0.25576005467E+02  0.19323053726E+02  0.97231262169E+03  0.97284086405E+03  0.00000000000E+00 0. -1.
         -2    1    1    2    0  502 -0.25576005467E+02 -0.19323053726E+02  0.73112326445E+02  0.79830600268E+02  0.00000000000E+00 0.  1.
</event>
<event>
 4    1  0.5841374E+003  0.2098892E+02  0.7546771E-02  0.1519423E+00
          2   -1    0    0  501    0  0.00000000000E+00  0.00000000000E+00  0.44786360593E+02  0.44786360593E+02  0.00000000000E+00 0.  1.
         -2   -1    0    0    0  501 -0.00000000000E+00 -0.00000000000E+00 -0.20543505400E+02  0.20543505400E+02  0.00000000000E+00 0.  1.
          2    1    1    2  502    0 -0.16203643447E+02  0.13340783419E+02  0.35703471217E+02  0.41415847451E+02  0.00000000000E+00 0.  1.
         -2    1    1    2    0  502  0.16203643447E+02 -0.13340783419E+02 -0.11460616023E+02  0.23914018542E+02  0.00000000000E+00 0.  1.
</event>
<event>
 4    1  0.5841374E+003  0.2433264E+02  0.7546771E-02  0.1476409E+00
          2   -1    0    0  501    0  0.00000000000E+00  0.00000000000E+00  0.10161147214E+04  0.10161147214E+04  0.00000000000E+00 0.  1.
         -2   -1    0    0    0  501 -0.00000000000E+00 -0.00000000000E+00 -0.22754334191E+02  0.22754334191E+02  0.00000000000E+00 0. -1.
          2    1    1    2  502    0 -0.20184147281E+02  0.13589610434E+02  0.10094208128E+04  0.10097140460E+04  0.00000000000E+00 0.  1.
         -2    1    1    2    0  502  0.20184147281E+02 -0.13589610434E+02 -0.16060425621E+02  0.29155009593E+02  0.00000000000E+00 0. -1.
</event>
<event>
 4    1  0.5841374E+003  0.2127623E+02  0.7546771E-02  0.1515357E+00
          2   -1    0    0  501    0  0.00000000000E+00  0.00000000000E+00  0.94371890317E+01  0.94371890317E+01  0.00000000000E+00 0.  1.
         -2   -1    0    0    0  501 -0.00000000000E+00 -0.00000000000E+00 -0.60504411115E+02  0.60504411115E+02  0.00000000000E+00 0.  1.
          2    1    1    2  502    0 -0.18181574361E+02  0.11050248237E+02 -0.41452350217E+02  0.46593722441E+02  0.00000000000E+00 0.  1.
         -2    1    1    2    0  502  0.18181574361E+02 -0.11050248237E+02 -0.96148718660E+01  0.23347877706E+02  0.00000000000E+00 0.  1.
</event>
<event>
 4    1  0.5841374E+003  0.2422881E+02  0.7546771E-02  0.1477619E+00
          2   -1    0    0  501    0  0.00000000000E+00  0.00000000000E+00  0.14982152820E+04  0.14982152820E+04  0.00000000000E+00 0. -1.
         -2   -1    0    0    0  501 -0.00000000000E+00 -0.00000000000E+00 -0.71363382090E+00  0.71363382090E+00  0.00000000000E+00 0. -1.
          2    1    1    2  502    0  0.20914761736E+02 -0.12231432947E+02  0.12520354335E+04  0.12522698439E+04  0.00000000000E+00 0. -1.
         -2    1    1    2    0  502 -0.20914761736E+02  0.12231432947E+02  0.24546621474E+03  0.24665907198E+03  0.00000000000E+00 0. -1.
</event>
<event>
 4    1  0.5841374E+003  0.2394460E+02  0.7546771E-02  0.1480966E+00
          2   -1    0    0  501    0  0.00000000000E+00  0.00000000000E+00  0.99324652226E+03  0.99324652226E+03  0.00000000000E+00 0. -1.
         -2   -1    0    0    0  501 -0.00000000000E+00 -0.00000000000E+00 -0.86710295348E+01  0.86710295348E+01  0.00000000000E+00 0.  1.
          2    1    1    2  502    0  0.19296462985E+02  0.14177110238E+02  0.97628460995E+03  0.97657820145E+03  0.00000000000E+00 0. -1.
         -2    1    1    2    0  502 -0.19296462985E+02 -0.14177110238E+02  0.82908827792E+01  0.25339350340E+02  0.00000000000E+00 0.  1.
</event>
<event>
 4    1  0.5841374E+003  0.2648557E+02  0.7546771E-02  0.1452845E+00
          2   -1    0    0  501    0  0.00000000000E+00  0.00000000000E+00  0.18693209932E+03  0.18693209932E+03  0.00000000000E+00 0.  1.
         -2   -1    0    0    0  501 -0.00000000000E+00 -0.00000000000E+00 -0.52334826634E+02  0.52334826634E+02  0.00000000000E+00 0.  1.
          2    1    1    2  502    0  0.23124312675E+02 -0.12913224661E+02  0.18256322267E+03  0.18447443042E+03  0.00000000000E+00 0.  1.
         -2    1    1    2    0  502 -0.23124312675E+02  0.12913224661E+02 -0.47965949988E+02  0.54792495528E+02  0.00000000000E+00 0.  1.
</event>
<event>
 4    1  0.5841374E+003  0.8487268E+02  0.7546771E-02  0.1192966E+00
          2   -1    0    0  501    0  0.00000000000E+00  0.00000000000E+00  0.48107234048E+03  0.48107234048E+03  0.00000000000E+00 0.  1.
         -2   -1    0    0    0  501 -0.00000000000E+00 -0.00000000000E+00 -0.33593551479E+02  0.33593551479E+02  0.00000000000E+00 0.  1.
          2    1    1    2  502    0 -0.83969376504E+02 -0.12349703484E+02  0.41532242123E+03  0.42390575007E+03  0.00000000000E+00 0.  1.
         -2    1    1    2    0  502  0.83969376504E+02  0.12349703484E+02  0.32156367764E+02  0.90760141882E+02  0.00000000000E+00 0.  1.
</event>
<event>
 4    1  0.5841374E+003  0.2755272E+02  0.7546771E-02  0.1442134E+00
          2   -1    0    0  501    0  0.00000000000E+00  0.00000000000E+00  0.16083712260E+04  0.16083712260E+04  0.00000000000E+00 0.  1.
         -2   -1    0    0    0  501 -0.00000000000E+00 -0.00000000000E+00 -0.50496250580E+00  0.50496250580E+00  0.00000000000E+00 0.  1.
          2    1    1    2  502    0 -0.84437600587E+00  0.27539775989E+02  0.10094601965E+04  0.10098361454E+04  0.00000000000E+00 0.  1.
         -2    1    1    2    0  502  0.84437600587E+00 -0.27539775989E+02  0.59840606700E+03  0.59904004311E+03  0.00000000000E+00 0.  1.
</event>
<event>
 4    1  0.5841374E+003  0.2113953E+02  0.7546771E-02  0.1517282E+00
          2   -1    0    0  501    0  0.00000000000E+00  0.00000000000E+00  0.53563421126E+01  0.53563421126E+01  0.00000000000E+00 0.  1.
         -2   -1    0    0    0  501 -0.00000000000E+00 -0.00000000000E+00 -0.21568142201E+03  0.21568142201E+03  0.00000000000E+00 0.  1.
          2    1    1    2  502    0 -0.13573477303E+01  0.21095907704E+02 -0.18619875690E+02  0.28170542867E+02  0.00000000000E+00 0.  1.
         -2    1    1    2    0  502  0.13573477303E+01 -0.21095907704E+02 -0.19170520421E+03  0.19286722125E+03  0.00000000000E+00 0.  1.
</event>
<event>
 4    1  0.5841374E+003  0.2373161E+02  0.7546771E-02  0.1483510E+00
          2   -1    0    0  501    0  0.00000000000E+00  0.00000000000E+00  0.30799905645E+01  0.30799905645E+01  0.00000000000E+00 0.  1.
         -2   -1    0    0    0  501 -0.00000000000E+00 -0.00000000000E+00 -0.66243923422E+03  0.66243923422E+03  0.00000000000E+00 0. -1.
          2    1    1    2  502    0  0.41916661715E+01  0.23358489227E+02 -0.46546670360E+02  0.52247311949E+02  0.00000000000E+00 0.  1.
         -2    1    1    2    0  502 -0.41916661715E+01 -0.23358489227E+02 -0.61281257329E+03  0.61327191283E+03  0.00000000000E+00 0. -1.
</event>
<event>
 4    1  0.5841374E+003  0.3306909E+02  0.7546771E-02  0.1394671E+00
          2   -1    0    0  501    0  0.00000000000E+00  0.00000000000E+00  0.59138490824E+03  0.59138490824E+03  0.00000000000E+00 0.  1.
         -2   -1    0    0    0  501 -0.00000000000E+00 -0.00000000000E+00 -0.22381890650E+01  0.22381890650E+01  0.00000000000E+00 0.  1.
          2    1    1    2  502    0 -0.11944778751E+00 -0.33068878628E+02  0.41831724053E+03  0.41962230485E+03  0.00000000000E+00 0.  1.
         -2    1    1    2    0  502  0.11944778751E+00  0.33068878628E+02  0.17082947864E+03  0.17400079245E+03  0.00000000000E+00 0.  1.
</event>
<event>
 4    1  0.5841374E+003  0.2581518E+02  0.7546771E-02  0.1459887E+00
          2   -1    0    0  501    0  0.00000000000E+00  0.00000000000E+00  0.50634632813E+01  0.50634632813E+01  0.00000000000E+00 0.  1.
         -2   -1    0    0    0  501 -0.00000000000E+00 -0.00000000000E+00 -0.22270768007E+03  0.22270768007E+03  0.00000000000E+00 0. -1.
          2    1    1    2  502    0 -0.25508201039E+02  0.39692713658E+01 -0.35986313188E+02  0.44288126764E+02  0.00000000000E+00 0.  1.
         -2    1    1    2    0  502  0.25508201039E+02 -0.39692713658E+01 -0.18165790360E+03  0.18348301658E+03  0.00000000000E+00 0. -1.
</event>
<event>
 4    1  0.5841374E+003  0.3496709E+02  0.7546771E-02  0.1380795E+00
          2   -1    0    0  501    0  0.00000000000E+00  0.00000000000E+00  0.30703923569E+03  0.30703923569E+03  0.00000000000E+00 0. -1.
         -2   -1    0    0    0  501 -0.00000000000E+00 -0.00000000000E+00 -0.68839181517E+02  0.68839181517E+02  0.00000000000E+00 0. -1.
          2    1    1    2  502    0 -0.34928039401E+02  0.16521467723E+01  0.30152229339E+03  0.30354306274E+03  0.00000000000E+00 0. -1.
         -2    1    1    2    0  502  0.34928039401E+02 -0.16521467723E+01 -0.63322239222E+02  0.72335354464E+02  0.00000000000E+00 0. -1.
</event>
<event>
 4    1  0.5841374E+003  0.2940332E+02  0.7546771E-02  0.1424853E+00
          2   -1    0    0  501    0  0.00000000000E+00  0.00000000000E+00  0.19198496200E+03  0.19198496200E+03  0.00000000000E+00 0. -1.
         -2   -1    0    0    0  501 -0.00000000000E+00 -0.00000000000E+00 -0.19604764874E+02  0.19604764874E+02  0.00000000000E+00 0.  1.
          2    1    1    2  502    0  0.10366412271E+02  0.27515317408E+02  0.17904270558E+03  0.18144102517E+03  0.00000000000E+00 0. -1.
         -2    1    1    2    0  502 -0.10366412271E+02 -0.27515317408E+02 -0.66625084506E+01  0.30148701701E+02  0.00000000000E+00 0.  1.
</event>
<event>
 4    1  0.5841374E+003  0.2019094E+02  0.7546771E-02  0.1531137E+00
          2   -1    0    0  501    0  0.00000000000E+00  0.00000000000E+00  0.13582217688E+02  0.13582217688E+02  0.00000000000E+00 0. -1.
         -2   -1    0    0    0  501 -0.00000000000E+00 -0.00000000000E+00 -0.58502760618E+02  0.58502760618E+02  0.00000000000E+00 0.  1.
          2    1    1    2  502    0  0.20011646105E+01  0.20091530255E+02  0.26906277132E+01  0.20369431148E+02  0.00000000000E+00 0. -1.
         -2    1    1    2    0  502 -0.20011646105E+01 -0.20091530255E+02 -0.47611170643E+02  0.51715547157E+02  0.00000000000E+00 0.  1.
</event>
<event>
 4    1  0.5841374E+003  0.2040206E+02  0.7546771E-02  0.1527976E+00
          2   -1    0    0  501    0  0.00000000000E+00  0.00000000000E+00  0.17202193227E+04  0.17202193227E+04  0.00000000000E+00 0.  1.
         -2   -1    0    0    0  501 -0.00000000000E+00 -0.00000000000E+00 -0.36748258194E+00  0.36748258194E+00  0.00000000000E+00 0.  1.
          2    1    1    2  502    0 -0.47617211760E+01 -0.19838603767E+02  0.13626956363E+04  0.13628483560E+04  0.00000000000E+00 0.  1.
         -2    1    1    2    0  502  0.47617211760E+01  0.19838603767E+02  0.35715620375E+03  0.35773844924E+03  0.00000000000E+00 0.  1.
</event>
<event>
 4    1  0.5841374E+003  0.2966541E+02  0.7546771E-02  0.1422527E+00
          2   -1    0    0  501    0  0.00000000000E+00  0.00000000000E+00  0.93872812524E+03  0.93872812524E+03  0.00000000000E+00 0. -1.
         -2   -1    0    0    0  501 -0.00000000000E+00 -0.00000000000E+00 -0.15870095544E+01  0.15870095544E+01  0.00000000000E+00 0.  1.
          2    1    1    2  502    0  0.10714844820E+02 -0.27662769683E+02  0.76935396340E+03  0.76992568325E+03  0.00000000000E+00 0. -1.
         -2    1    1    2    0  502 -0.10714844820E+02  0.27662769683E+02  0.16778715229E+03  0.17038945155E+03  0.00000000000E+00 0.  1.
</event>
<event>
 4    1  0.5841374E+003  0.2864849E+02  0.7546771E-02  0.1431716E+00
          2   -1    0    0  501    0  0.00000000000E+00  0.00000000000E+00  0.69340958256E+03  0.69340958256E+03  0.00000000000E+00 0. -1.
         -2   -1    0    0    0  501 -0.00000000000E+00 -0.00000000000E+00 -0.62991546342E+01  0.62991546342E+01  0.00000000000E+00 0.  1.
          2    1    1    2  502    0  0.23690972194E+02 -0.16108195885E+02  0.65883165292E+03  0.65945423118E+03  0.00000000000E+00 0. -1.
         -2    1    1    2    0  502 -0.23690972194E+02  0.16108195885E+02  0.28278775003E+02  0.40254506006E+02  0.00000000000E+00 0.  1.
</event>
<event>
 4    1  0.5841374E+003  0.2261945E+02  0.7546771E-02  0.1497333E+00
          2   -1    0    0  501    0  0.00000000000E+00  0.00000000000E+00  0.10455851724E+03  0.10455851724E+03  0.00000000000E+00 0.  1.
         -2   -1    0    0    0  501 -0.00000000000E+00 -0.00000000000E+00 -0.10148111781E+03  0.10148111781E+03  0.00000000000E+00 0. -1.
          2    1    1    2  502    0 -0.76073213957E+01  0.21301834783E+02  0.10204406840E+03  0.10452096153E+03  0.00000000000E+00 0.  1.
         -2    1    1    2    0  502  0.76073213957E+01 -0.21301834783E+02 -0.98966668979E+02  0.10151867352E+03  0.00000000000E+00 0. -1.
</event>
<event>
 4    1  0.5841374E+003  0.2219333E+02  0.7546771E-02  0.1502884E+00
          2   -1    0    0  501    0  0.00000000000E+00  0.00000000000E+00  0.38001067581E+01  0.38001067581E+01  0.00000000000E+00 0. -1.
         -2   -1    0    0    0  501 -0.00000000000E+00 -0.00000000000E+00 -0.47934736492E+03  0.47934736492E+03  0.00000000000E+00 0. -1.
          2    1    1    2  502    0 -0.21828275516E+02  0.40087560313E+01 -0.31428787766E+02  0.38474828620E+02  0.00000000000E+00 0. -1.
         -2    1    1    2    0  502  0.21828275516E+02 -0.40087560313E+01 -0.44411847039E+03  0.44467264305E+03  0.00000000000E+00 0. -1.
</event>
<event>
 4    1  0.5841374E+003  0.2214879E+02  0.7546771E-02  0.1503473E+00
          2   -1    0    0  501    0  0.00000000000E+00  0.00000000000E+00  0.30925583671E+03  0.30925583671E+03  0.00000000000E+00 0. -1.
         -2   -1    0    0    0  501 -0.00000000000E+00 -0.00000000000E+00 -0.53231186281E+02  0.53231186281E+02  0.00000000000E+00 0.  1.
          2    1    1    2  502    0 -0.14789520665E+02  0.16487546276E+02  0.30653488474E+03  0.30733402784E+03  0.00000000000E+00 0. -1.
         -2    1    1    2    0  502  0.14789520665E+02 -0.16487546276E+02 -0.50510234314E+02  0.55152995151E+02  0.00000000000E+00 0.  1.
</event>
<event>
 4    1  0.5841374E+003  0.2119919E+02  0.7546771E-02  0.1516440E+00
          2   -1    0    0  501    0  0.00000000000E+00  0.00000000000E+00  0.22644029000E+02  0.22644029000E+02  0.00000000000E+00 0.  1.
         -2   -1    0    0    0  501 -0.00000000000E+00 -0.00000000000E+00 -0.21634321210E+02  0.21634321210E+02  0.00000000000E+00 0.  1.
          2    1    1    2  502    0 -0.10186349718E+02 -0.18591489719E+02 -0.58594252217E+01  0.21994046341E+02  0.00000000000E+00 0.  1.
         -2    1    1    2    0  502  0.10186349718E+02  0.18591489719E+02  0.68691330120E+01  0.22284303868E+02  0.00000000000E+00 0.  1.
</event>
<event>
 4    1  0.5841374E+003  0.9021572E+02  0.7546771E-02  0.1181935E+00
          2   -1    0    0  501    0  0.00000000000E+00  0.00000000000E+00  0.63335306382E+02  0.63335306382E+02  0.00000000000E+00 0.  1.
         -2   -1    0    0    0  501 -0.00000000000E+00 -0.00000000000E+00 -0.34741673675E+03  0.34741673675E+03  0.00000000000E+00 0.  1.
          2    1    1    2  502    0 -0.66559967269E+02 -0.60898658830E+02  0.20986205210E+02  0.92624492977E+02  0.00000000000E+00 0.  1.
         -2    1    1    2    0  502  0.66559967269E+02  0.60898658830E+02 -0.30506763557E+03  0.31812755015E+03  0.00000000000E+00 0.  1.
</event>
<event>
 4    1  0.5841374E+003  0.7118286E+02  0.7546771E-02  0.1225944E+00
          2   -1    0    0  501    0  0.00000000000E+00  0.00000000000E+00  0.15787530049E+02  0.15787530049E+02  0.00000000000E+00 0. -1.
         -2   -1    0    0    0  501 -0.00000000000E+00 -0.00000000000E+00 -0.46965876534E+03  0.46965876534E+03  0.00000000000E+00 0.  1.
          2    1    1    2  502    0 -0.33452039883E+02 -0.62832797795E+02 -0.90355012445E+02  0.11502620451E+03  0.00000000000E+00 0. -1.
         -2    1    1    2    0  502  0.33452039883E+02  0.62832797795E+02 -0.36351622284E+03  0.37042009087E+03  0.00000000000E+00 0.  1.
</event>
<event>
 4    1  0.5841374E+003  0.2348920E+02  0.7546771E-02  0.1486445E+00
          2   -1    0    0  501    0  0.00000000000E+00  0.00000000000E+00  0.75176308682E+01  0.75176308682E+01  0.00000000000E+00 0. -1.
         -2   -1    0    0    0  501 -0.00000000000E+00 -0.00000000000E+00 -0.12278467056E+04  0.12278467056E+04  0.00000000000E+00 0. -1.
          2    1    1    2  502    0  0.21890198713E+02 -0.85183302158E+01 -0.11227432989E+02  0.26034553979E+02  0.00000000000E+00 0. -1.
         -2    1    1    2    0  502 -0.21890198713E+02  0.85183302158E+01 -0.12091016417E+04  0.12093297825E+04  0.00000000000E+00 0. -1.
</event>
<event>
 4    1  0.5841374E+003  0.2582669E+02  0.7546771E-02  0.1459764E+00
          2   -1    0    0  501    0  0.00000000000E+00  0.00000000000E+00  0.25465981171E+03  0.25465981171E+03  0.00000000000E+00 0.  1.
         -2   -1    0    0    0  501 -0.00000000000E+00 -0.00000000000E+00 -0.85757668753E+01  0.85757668753E+01  0.00000000000E+00 0.  1.
          2    1    1    2  502    0 -0.25366434482E+02  0.48540858169E+01  0.23273384045E+03  0.23416246206E+03  0.00000000000E+00 0.  1.
         -2    1    1    2    0  502  0.25366434482E+02 -0.48540858169E+01  0.13350204388E+02  0.29073116528E+02  0.00000000000E+00 0.  1.
</event>
<event>
 4    1  0.5841374E+003  0.8963266E+02  0.7546771E-02  0.1183097E+00
          2   -1    0    0  501    0  0.00000000000E+00  0.00000000000E+00  0.11073125048E+04  0.11073125048E+04  0.00000000000E+00 0.  1.
         -2   -1    0    0    0  501 -0.00000000000E+00 -0.00000000000E+00 -0.73777502029E+01  0.73777502029E+01  0.00000000000E+00 0.  1.
          2    1    1    2  502    0  0.61450885321E+01  0.89421721087E+02  0.47819675999E+03  0.48652456009E+03  0.00000000000E+00 0.  1.
         -2    1    1    2    0  502 -0.61450885321E+01 -0.89421721087E+02  0.62173799461E+03  0.62816569491E+03  0.00000000000E+00 0.  1.
</event>
<event>
 4    1  0.5841374E+003  0.2637196E+02  0.7546771E-02  0.1454021E+00
          2   -1    0    0  501    0  0.00000000000E+00  0.00000000000E+00  0.11747716621E+03  0.11747716621E+03  0.00000000000E+00 0.  1.
         -2   -1    0    0    0  501 -0.00000000000E+00 -0.00000000000E+00 -0.39135876106E+02  0.39135876106E+02  0.00000000000E+00 0.  1.
          2    1    1    2  502    0 -0.18836932095E+02  0.18456717315E+02  0.11131168324E+03  0.11439305596E+03  0.00000000000E+00 0.  1.
         -2    1    1    2    0  502  0.18836932095E+02 -0.18456717315E+02 -0.32970393137E+02  0.42219986362E+02  0.00000000000E+00 0.  1.
</event>
<event>
 4    1  0.5841374E+003  0.2327512E+02  0.7546771E-02  0.1489072E+00
          2   -1    0    0  501    0  0.00000000000E+00  0.00000000000E+00  0.16757179982E+04  0.16757179982E+04  0.00000000000E+00 0. -1.
         -2   -1    0    0    0  501 -0.00000000000E+00 -0.00000000000E+00 -0.79932627192E+00  0.79932627192E+00  0.00000000000E+00 0. -1.
          2    1    1    2  502    0  0.21247927840E+02 -0.95003463563E+01  0.14843624705E+04  0.14845449387E+04  0.00000000000E+00 0. -1.
         -2    1    1    2    0  502 -0.21247927840E+02  0.95003463563E+01  0.19055620135E+03  0.19197238576E+03  0.00000000000E+00 0. -1.
</event>
<event>
 4    1  0.5841374E+003  0.3276464E+02  0.7546771E-02  0.1396998E+00
          2   -1    0    0  501    0  0.00000000000E+00  0.00000000000E+00  0.78522526100E+03  0.78522526100E+03  0.00000000000E+00 0. -1.
         -2   -1    0    0    0  501 -0.00000000000E+00 -0.00000000000E+00 -0.13704405346E+01  0.13704405346E+01  0.00000000000E+00 0. -1.
          2    1    1    2  502    0  0.31341844537E+02  0.95503975021E+01  0.41119709563E+03  0.41250039123E+03  0.00000000000E+00 0. -1.
         -2    1    1    2    0  502 -0.31341844537E+02 -0.95503975021E+01  0.37265772484E+03  0.37409531031E+03  0.00000000000E+00 0. -1.
</event>
<event>
 4    1  0.5841374E+003  0.3584304E+02  0.7546771E-02  0.1374731E+00
          2   -1    0    0  501    0  0.00000000000E+00  0.00000000000E+00  0.32148344925E+03  0.32148344925E+03  0.00000000000E+00 0.  1.
         -2   -1    0    0    0  501 -0.00000000000E+00 -0.00000000000E+00 -0.87232133697E+02  0.87232133697E+02  0.00000000000E+00 0.  1.
          2    1    1    2  502    0 -0.34668750789E+02  0.90994994175E+01  0.31674760667E+03  0.31876914767E+03  0.00000000000E+00 0.  1.
         -2    1    1    2    0  502  0.34668750789E+02 -0.90994994175E+01 -0.82496291121E+02  0.89946435280E+02  0.00000000000E+00 0.  1.
</event>
<event>
 4    1  0.5841374E+003  0.2885597E+02  0.7546771E-02  0.1429805E+00
          2   -1    0    0  501    0  0.00000000000E+00  0.00000000000E+00  0.12317303593E+04  0.12317303593E+04  0.00000000000E+00 0.  1.
         -2   -1    0    0    0  501 -0.00000000000E+00 -0.00000000000E+00 -0.83560475215E+00  0.83560475215E+00  0.00000000000E+00 0.  1.
          2    1    1    2  502    0  0.20367327660E+02 -0.20441110460E+02  0.88477662181E+03  0.88524704887E+03  0.00000000000E+00 0.  1.
         -2    1    1    2    0  502 -0.20367327660E+02  0.20441110460E+02  0.34611813273E+03  0.34731891517E+03  0.00000000000E+00 0.  1.
</event>
<event>
 4    1  0.5841374E+003  0.3713934E+02  0.7546771E-02  0.1366117E+00
          2   -1    0    0  501    0  0.00000000000E+00  0.00000000000E+00  0.30562574752E+02  0.30562574752E+02  0.00000000000E+00 0. -1.
         -2   -1    0    0    0  501 -0.00000000000E+00 -0.00000000000E+00 -0.21507248309E+03  0.21507248309E+03  0.00000000000E+00 0. -1.
          2    1    1    2  502    0 -0.11598292225E+02 -0.35281872086E+02  0.16918527160E+02  0.40811364125E+02  0.00000000000E+00 0. -1.
         -2    1    1    2    0  502  0.11598292225E+02  0.35281872086E+02 -0.20142843550E+03  0.20482369372E+03  0.00000000000E+00 0. -1.
</event>
<event>
 4    1  0.5841374E+003  0.2126960E+02  0.7546771E-02  0.1515450E+00
          2   -1    0    0  501    0  0.00000000000E+00  0.00000000000E+00  0.48493167403E+03  0.48493167403E+03  0.00000000000E+00 0.  1.
         -2   -1    0    0    0  501 -0.00000000000E+00 -0.00000000000E+00 -0.11336308289E+01  0.11336308289E+01  0.00000000000E+00 0.  1.
          2    1    1    2  502    0 -0.14671553763E+02  0.15399395786E+02  0.34416445842E+03  0.34482107001E+03  0.00000000000E+00 0.  1.
         -2    1    1    2    0  502  0.14671553763E+02 -0.15399395786E+02  0.13963358478E+03  0.14124423485E+03  0.00000000000E+00 0.  1.
</event>
<event>
 4    1  0.5841374E+003  0.2175185E+02  0.7546771E-02  0.1508795E+00
          2   -1    0    0  501    0  0.00000000000E+00  0.00000000000E+00  0.72908727135E+03  0.72908727135E+03  0.00000000000E+00 0. -1.
         -2   -1    0    0    0  501 -0.00000000000E+00 -0.00000000000E+00 -0.11061500257E+02  0.11061500257E+02  0.00000000000E+00 0.  1.
          2    1    1    2  502    0 -0.16831545799E+02  0.13778318386E+02  0.71806750103E+03  0.71839688128E+03  0.00000000000E+00 0. -1.
         -2    1    1    2    0  502  0.16831545799E+02 -0.13778318386E+02 -0.41729938942E-01  0.21751890330E+02  0.00000000000E+00 0.  1.
</event>
<event>
 4    1  0.5841374E+003  0.2301058E+02  0.7546771E-02  0.1492365E+00
          2   -1    0    0  501    0  0.00000000000E+00  0.00000000000E+00  0.66351397690E+03  0.66351397690E+03  0.00000000000E+00 0. -1.
         -2   -1    0    0    0  501 -0.00000000000E+00 -0.00000000000E+00 -0.51761543057E+01  0.51761543057E+01  0.00000000000E+00 0.  1.
          2    1    1    2  502    0 -0.19137218082E+02 -0.12777074084E+02  0.63666291387E+03  0.63707860789E+03  0.00000000000E+00 0. -1.
         -2    1    1    2    0  502  0.19137218082E+02  0.12777074084E+02  0.21674908732E+02  0.31611523320E+02  0.00000000000E+00 0.  1.
</event>
<event>
 4    1  0.5841374E+003  0.2482205E+02  0.7546771E-02  0.1470804E+00
          2   -1    0    0  501    0  0.00000000000E+00  0.00000000000E+00  0.38281074289E+03  0.38281074289E+03  0.00000000000E+00 0. -1.
         -2   -1    0    0    0  501 -0.00000000000E+00 -0.00000000000E+00 -0.42817174445E+03  0.42817174445E+03  0.00000000000E+00 0. -1.
          2    1    1    2  502    0 -0.93827765425E+01 -0.22980378718E+02  0.38204790289E+03  0.38285341112E+03  0.00000000000E+00 0. -1.
         -2    1    1    2    0  502  0.93827765425E+01  0.22980378718E+02 -0.42740890445E+03  0.42812907622E+03  0.00000000000E+00 0. -1.
</event>
<event>
 4    1  0.5841374E+003  0.2638255E+02  0.7546771E-02  0.1453911E+00
          2   -1    0    0  501    0  0.00000000000E+00  0.00000000000E+00  0.23805124492E+02  0.23805124492E+02  0.00000000000E+00 0.  1.
         -2   -1    0    0    0  501 -0.00000000000E+00 -0.00000000000E+00 -0.26978490518E+03  0.26978490518E+03  0.00000000000E+00 0.  1.
          2    1    1    2  502    0 -0.85560700591E+01  0.24956618491E+02  0.15622299921E+02  0.30660975134E+02  0.00000000000E+00 0.  1.
         -2    1    1    2    0  502  0.85560700591E+01 -0.24956618491E+02 -0.26160208061E+03  0.26292905454E+03  0.00000000000E+00 0.  1.
</event>
<event>
 4    1  0.5841374E+003  0.2146762E+02  0.7546771E-02  0.1512692E+00
          2   -1    0    0  501    0  0.00000000000E+00  0.00000000000E+00  0.39872592847E+02  0.39872592847E+02  0.00000000000E+00 0. -1.
         -2   -1    0    0    0  501 -0.00000000000E+00 -0.00000000000E+00 -0.15766599056E+03  0.15766599056E+03  0.00000000000E+00 0. -1.
          2    1    1    2  502    0 -0.18728585459E+02  0.10492798892E+02  0.36183370480E+02  0.42072497444E+02  0.00000000000E+00 0. -1.
         -2    1    1    2    0  502  0.18728585459E+02 -0.10492798892E+02 -0.15397676820E+03  0.15546608597E+03  0.00000000000E+00 0. -1.
</event>
<event>
 4    1  0.5841374E+003  0.2181562E+02  0.7546771E-02  0.1507931E+00
          2   -1    0    0  501    0  0.00000000000E+00  0.00000000000E+00  0.42701059899E+03  0.42701059899E+03  0.00000000000E+00 0. -1.
         -2   -1    0    0    0  501 -0.00000000000E+00 -0.00000000000E+00 -0.19313099257E+01  0.19313099257E+01  0.00000000000E+00 0.  1.
          2    1    1    2  502    0  0.18452319219E+02 -0.11637569277E+02  0.35201321705E+03  0.35268856811E+03  0.00000000000E+00 0. -1.
         -2    1    1    2    0  502 -0.18452319219E+02  0.11637569277E+02  0.73066072021E+02  0.76253340805E+02  0.00000000000E+00 0.  1.
</event>
<event>
 4    1  0.5841374E+003  0.3380926E+02  0.7546771E-02  0.1389133E+00
          2   -1    0    0  501    0  0.00000000000E+00  0.00000000000E+00  0.48253237814E+03  0.48253237814E+03  0.00000000000E+00 0.  1.
         -2   -1    0    0    0  501 -0.00000000000E+00 -0.00000000000E+00 -0.46011221034E+01  0.46011221034E+01  0.00000000000E+00 0.  1.
          2    1    1    2  502    0  0.33143287014E+02 -0.66774657871E+01  0.40861639115E+03  0.41001270851E+03  0.00000000000E+00 0.  1.
         -2    1    1    2    0  502 -0.33143287014E+02  0.66774657871E+01  0.69314864894E+02  0.77120791741E+02  0.00000000000E+00 0.  1.
</event>
<event>
 4    1  0.5841374E+003  0.2682976E+02  0.7546771E-02  0.1449326E+00
          2   -1    0    0  501    0  0.00000000000E+00  0.00000000000E+00  0.14231321699E+04  0.14231321699E+04  0.00000000000E+00 0.  1.
         -2   -1    0    0    0  501 -0.00000000000E+00 -0.00000000000E+00 -0.17513459099E+01  0.17513459099E+01  0.00000000000E+00 0.  1.
          2    1    1    2  502    0  0.21904690650E+02 -0.15492599992E+02  0.13115061849E+04  0.13117805873E+04  0.00000000000E+00 0.  1.
         -2    1    1    2    0  502 -0.21904690650E+02  0.15492599992E+02  0.10987463903E+03  0.11310292847E+03  0.00000000000E+00 0.  1.
</event>
<event>
 4    1  0.5841374E+003  0.2591077E+02  0.7546771E-02  0.1458867E+00
          2   -1    0    0  501    0  0.00000000000E+00  0.00000000000E+00  0.92128608378E+03  0.92128608378E+03  0.00000000000E+00 0.  1.
         -2   -1    0    0    0  501 -0.00000000000E+00 -0.00000000000E+00 -0.61574797352E+02  0.61574797352E+02  0.00000000000E+00 0. -1.
          2    1    1    2  502    0 -0.13334042911E+02 -0.22216464537E+02  0.91836942324E+03  0.91873487228E+03  0.00000000000E+00 0.  1.
         -2    1    1    2    0  502  0.13334042911E+02  0.22216464537E+02 -0.58658136813E+02  0.64126008852E+02  0.00000000000E+00 0. -1.
</event>
<event>
 4    1  0.5841374E+003  0.3301998E+02  0.7546771E-02  0.1395044E+00
          2   -1    0    0  501    0  0.00000000000E+00  0.00000000000E+00  0.21554797573E+03  0.21554797573E+03  0.00000000000E+00 0. -1.
         -2   -1    0    0    0  501 -0.00000000000E+00 -0.00000000000E+00 -0.77833482552E+01  0.77833482552E+01  0.00000000000E+00 0.  1.
          2    1    1    2  502    0 -0.92745979510E+01  0.31690703836E+02  0.16995452961E+03  0.17313249554E+03  0.00000000000E+00 0. -1.
         -2    1    1    2    0  502  0.92745979510E+01 -0.31690703836E+02  0.37810097863E+02  0.50198828444E+02  0.00000000000E+00 0.  1.
</event>
<event>
 4    1  0.5841374E+003  0.2377114E+02  0.7546771E-02  0.1483035E+00
          2   -1    0    0  501    0  0.00000000000E+00  0.00000000000E+00  0.16923237829E+04  0.16923237829E+04  0.00000000000E+00 0. -1.
         -2   -1    0    0    0  501 -0.00000000000E+00 -0.00000000000E+00 -0.86678031072E+00  0.86678031072E+00  0.00000000000E+00 0. -1.
          2    1    1    2  502    0 -0.23770755847E+02 -0.13437602831E+00  0.15095268486E+04  0.15097140039E+04  0.00000000000E+00 0. -1.
         -2    1    1    2    0  502  0.23770755847E+02  0.13437602831E+00  0.18193015399E+03  0.18347655932E+03  0.00000000000E+00 0. -1.
</event>
<event>
 4    1  0.5841374E+003  0.2791336E+02  0.7546771E-02  0.1438643E+00
          2   -1    0    0  501    0  0.00000000000E+00  0.00000000000E+00  0.10452571384E+02  0.10452571384E+02  0.00000000000E+00 0.  1.
         -2   -1    0    0    0  501 -0.00000000000E+00 -0.00000000000E+00 -0.23198787973E+03  0.23198787973E+03  0.00000000000E+00 0. -1.
          2    1    1    2  502    0 -0.24589561279E+02  0.13210196542E+02 -0.10903860974E+02  0.29967482388E+02  0.00000000000E+00 0.  1.
         -2    1    1    2    0  502  0.24589561279E+02 -0.13210196542E+02 -0.21063144737E+03  0.21247296872E+03  0.00000000000E+00 0. -1.
</event>
<event>
 4    1  0.5841374E+003  0.2064193E+02  0.7546771E-02  0.1524439E+00
          2   -1    0    0  501    0  0.00000000000E+00  0.00000000000E+00  0.96540291550E+03  0.96540291550E+03  0.00000000000E+00 0. -1.
         -2   -1    0    0    0  501 -0.00000000000E+00 -0.00000000000E+00 -0.92661348651E+01  0.92661348651E+01  0.00000000000E+00 0.  1.
          2    1    1    2  502    0  0.19134564235E+02 -0.77432268981E+01  0.95365510845E+03  0.95387848020E+03  0.00000000000E+00 0. -1.
         -2    1    1    2    0  502 -0.19134564235E+02  0.77432268981E+01  0.24816721905E+01  0.20790570173E+02  0.00000000000E+00 0.  1.
</event>
<event>
 4    1  0.5841374E+003  0.3320970E+02  0.7546771E-02  0.1393606E+00
          2   -1    0    0  501    0  0.00000000000E+00  0.00000000000E+00  0.23631167139E+02  0.23631167139E+02  0.00000000000E+00 0. -1.
         -2   -1    0    0    0  501 -0.00000000000E+00 -0.00000000000E+00 -0.85342266063E+02  0.85342266063E+02  0.00000000000E+00 0. -1.
          2    1    1    2  502    0  0.29792098290E+02 -0.14673626421E+02  0.58223215452E+01  0.33716225486E+02  0.00000000000E+00 0. -1.
         -2    1    1    2    0  502 -0.29792098290E+02  0.14673626421E+02 -0.67533420469E+02  0.75257207715E+02  0.00000000000E+00 0. -1.
</event>
<event>
 4    1  0.5841374E+003  0.2075741E+02  0.7546771E-02  0.1522757E+00
          2   -1    0    0  501    0  0.00000000000E+00  0.00000000000E+00  0.66777060618E+02  0.66777060618E+02  0.00000000000E+00 0. -1.
         -2   -1    0    0    0  501 -0.00000000000E+00 -0.00000000000E+00 -0.50673860014E+03  0.50673860014E+03  0.00000000000E+00 0.  1.
          2    1    1    2  502    0  0.15026096997E+02  0.14320834893E+02  0.64945550624E+02  0.68182068382E+02  0.00000000000E+00 0. -1.
         -2    1    1    2    0  502 -0.15026096997E+02 -0.14320834893E+02 -0.50490709015E+03  0.50533359238E+03  0.00000000000E+00 0.  1.
</event>
<event>
 4    1  0.5841374E+003  0.3039688E+02  0.7546771E-02  0.1416178E+00
          2   -1    0    0  501    0  0.00000000000E+00  0.00000000000E+00  0.38651961817E+03  0.38651961817E+03  0.00000000000E+00 0.  1.
         -2   -1    0    0    0  501 -0.00000000000E+00 -0.00000000000E+00 -0.26399606568E+01  0.26399606568E+01  0.00000000000E+00 0.  1.
          2    1    1    2  502    0 -0.29117115586E-01  0.30396870796E+02  0.25175485097E+03  0.25358327151E+03  0.00000000000E+00 0.  1.
         -2    1    1    2    0  502  0.29117115586E-01 -0.30396870796E+02  0.13212480655E+03  0.13557630732E+03  0.00000000000E+00 0.  1.
</event>
<event>
 4    1  0.5841374E+003  0.2217036E+02  0.7546771E-02  0.1503187E+00
          2   -1    0    0  501    0  0.00000000000E+00  0.00000000000E+00  0.37047780804E+02  0.37047780804E+02  0.00000000000E+00 0.  1.
         -2   -1    0    0    0  501 -0.00000000000E+00 -0.00000000000E+00 -0.33267194255E+02  0.33267194255E+02  0.00000000000E+00 0.  1.
          2    1    1    2  502    0  0.20484469911E+02  0.84800506341E+01  0.29150137890E+02  0.36623152586E+02  0.00000000000E+00 0.  1.
         -2    1    1    2    0  502 -0.20484469911E+02 -0.84800506341E+01 -0.25369551341E+02  0.33691822473E+02  0.00000000000E+00 0.  1.
</event>
<event>
 4    1  0.5841374E+003  0.2970347E+02  0.7546771E-02  0.1422191E+00
          2   -1    0    0  501    0  0.00000000000E+00  0.00000000000E+00  0.24648001476E+04  0.24648001476E+04  0.00000000000E+00 0.  1.
         -2   -1    0    0    0  501 -0.00000000000E+00 -0.00000000000E+00 -0.35849845620E+00  0.35849845620E+00  0.00000000000E+00 0.  1.
          2    1    1    2  502    0 -0.29388127409E+02 -0.43166522422E+01  0.11843737250E+04  0.11847461399E+04  0.00000000000E+00 0.  1.
         -2    1    1    2    0  502  0.29388127409E+02  0.43166522422E+01  0.12800679241E+04  0.12804125061E+04  0.00000000000E+00 0.  1.
</event>
<event>
 4    1  0.5841374E+003  0.2410757E+02  0.7546771E-02  0.1479040E+00
          2   -1    0    0  501    0  0.00000000000E+00  0.00000000000E+00  0.66496668467E+01  0.66496668467E+01  0.00000000000E+00 0.  1.
         -2   -1    0    0    0  501 -0.00000000000E+00 -0.00000000000E+00 -0.49500692874E+03  0.49500692874E+03  0.00000000000E+00 0.  1.
          2    1    1    2  502    0  0.22693006505E+02 -0.81364800953E+01 -0.16568203746E+02  0.29252012374E+02  0.00000000000E+00 0.  1.
         -2    1    1    2    0  502 -0.22693006505E+02  0.81364800953E+01 -0.47178905815E+03  0.47240458321E+03  0.00000000000E+00 0.  1.
</event>
<event>
 4    1  0.5841374E+003  0.2479634E+02  0.7546771E-02  0.1471095E+00
          2   -1    0    0  501    0  0.00000000000E+00  0.00000000000E+00  0.86426982292E+03  0.86426982292E+03  0.00000000000E+00 0. -1.
         -2   -1    0    0    0  501 -0.00000000000E+00 -0.00000000000E+00 -0.83532982580E+01  0.83532982580E+01  0.00000000000E+00 0. -1.
          2    1    1    2  502    0 -0.19579517641E+02 -0.15215158190E+02  0.84527691148E+03  0.84564053571E+03  0.00000000000E+00 0. -1.
         -2    1    1    2    0  502  0.19579517641E+02  0.15215158190E+02  0.10639613175E+02  0.26982585464E+02  0.00000000000E+00 0. -1.
</event>
<event>
 4    1  0.5841374E+003  0.2222013E+02  0.7546771E-02  0.1502530E+00
          2   -1    0    0  501    0  0.00000000000E+00  0.00000000000E+00  0.15270279190E+02  0.15270279190E+02  0.00000000000E+00 0.  1.
         -2   -1    0    0    0  501 -0.00000000000E+00 -0.00000000000E+00 -0.14572411658E+03  0.14572411658E+03  0.00000000000E+00 0. -1.
          2    1    1    2  502    0 -0.11391160759E+02  0.19078150588E+02  0.57806280603E+01  0.22959748127E+02  0.00000000000E+00 0.  1.
         -2    1    1    2    0  502  0.11391160759E+02 -0.19078150588E+02 -0.13623446545E+03  0.13803464764E+03  0.00000000000E+00 0. -1.
</event>
<event>
 4    1  0.5841374E+003  0.3495026E+02  0.7546771E-02  0.1380913E+00
          2   -1    0    0  501    0  0.00000000000E+00  0.00000000000E+00  0.85120876916E+02  0.85120876916E+02  0.00000000000E+00 0.  1.
         -2   -1    0    0    0  501 -0.00000000000E+00 -0.00000000000E+00 -0.29221675845E+02  0.29221675845E+02  0.00000000000E+00 0. -1.
          2    1    1    2  502    0  0.33592456206E+02 -0.96471437779E+01  0.68734474404E+02  0.77109976453E+02  0.00000000000E+00 0.  1.
         -2    1    1    2    0  502 -0.33592456206E+02  0.96471437779E+01 -0.12835273332E+02  0.37232576308E+02  0.00000000000E+00 0. -1.
</event>
<event>
 4    1  0.5841374E+003  0.4215522E+02  0.7546771E-02  0.1336299E+00
          2   -1    0    0  501    0  0.00000000000E+00  0.00000000000E+00  0.24529566229E+03  0.24529566229E+03  0.00000000000E+00 0.  1.
         -2   -1    0    0    0  501 -0.00000000000E+00 -0.00000000000E+00 -0.10306418771E+02  0.10306418771E+02  0.00000000000E+00 0.  1.
          2    1    1    2  502    0  0.36068799316E+02 -0.21819813137E+02  0.18715279736E+03  0.19184168497E+03  0.00000000000E+00 0.  1.
         -2    1    1    2    0  502 -0.36068799316E+02  0.21819813137E+02  0.47836446156E+02  0.63760396096E+02  0.00000000000E+00 0.  1.
</event>
<event>
 4    1  0.5841374E+003  0.2988140E+02  0.7546771E-02  0.1420630E+00
          2   -1    0    0  501    0  0.00000000000E+00  0.00000000000E+00  0.20711752458E+04  0.20711752458E+04  0.00000000000E+00 0. -1.
         -2   -1    0    0    0  501 -0.00000000000E+00 -0.00000000000E+00 -0.49116447882E+01  0.49116447882E+01  0.00000000000E+00 0. -1.
          2    1    1    2  502    0 -0.15413636687E+02 -0.25599175895E+02  0.20245733845E+04  0.20247938876E+04  0.00000000000E+00 0. -1.
         -2    1    1    2    0  502  0.15413636687E+02  0.25599175895E+02  0.41690216449E+02  0.51293002933E+02  0.00000000000E+00 0. -1.
</event>
<event>
 4    1  0.5841374E+003  0.3359557E+02  0.7546771E-02  0.1390715E+00
          2   -1    0    0  501    0  0.00000000000E+00  0.00000000000E+00  0.32434080506E+03  0.32434080506E+03  0.00000000000E+00 0. -1.
         -2   -1    0    0    0  501 -0.00000000000E+00 -0.00000000000E+00 -0.47282245228E+01  0.47282245228E+01  0.00000000000E+00 0.  1.
          2    1    1    2  502    0  0.31592871116E+02 -0.11425962497E+02  0.24434932975E+03  0.24664804291E+03  0.00000000000E+00 0. -1.
         -2    1    1    2    0  502 -0.31592871116E+02  0.11425962497E+02  0.75263250789E+02  0.82420986670E+02  0.00000000000E+00 0.  1.
</event>
<event>
 4    1  0.5841374E+003  0.3607443E+02  0.7546771E-02  0.1373163E+00
          2   -1    0    0  501    0  0.00000000000E+00  0.00000000000E+00  0.18325639424E+04  0.18325639424E+04  0.00000000000E+00 0.  1.
         -2   -1    0    0    0  501 -0.00000000000E+00 -0.00000000000E+00 -0.11522944708E+01  0.11522944708E+01  0.00000000000E+00 0.  1.
          2    1    1    2  502    0 -0.19707631309E+02  0.30215458121E+02  0.14836566127E+04  0.14840951145E+04  0.00000000000E+00 0.  1.
         -2    1    1    2    0  502  0.19707631309E+02 -0.30215458121E+02  0.34775503523E+03  0.34962112231E+03  0.00000000000E+00 0.  1.
</event>
<event>
 4    1  0.6890567E+003  0.2130525E+02  0.7546771E-02  0.1514951E+00
          2   -1    0    0  501    0  0.00000000000E+00  0.00000000000E+00  0.10171272139E+04  0.10171272139E+04  0.00000000000E+00 0. -1.
         -2   -1    0    0    0  501 -0.00000000000E+00 -0.00000000000E+00 -0.39394445312E+03  0.39394445312E+03  0.00000000000E+00 0.  1.
          2    1    1    2  502    0  0.82148895525E+01  0.19657809208E+02  0.10167274760E+04  0.10169506745E+04  0.00000000000E+00 0. -1.
         -2    1    1    2    0  502 -0.82148895525E+01 -0.19657809208E+02 -0.39354471522E+03  0.39412099253E+03  0.00000000000E+00 0.  1.
</event>
<event>
 4    1  0.5841374E+003  0.3374410E+02  0.7546771E-02  0.1389614E+00
          2   -1    0    0  501    0  0.00000000000E+00  0.00000000000E+00  0.49626976851E+03  0.49626976851E+03  0.00000000000E+00 0.  1.
         -2   -1    0    0    0  501 -0.00000000000E+00 -0.00000000000E+00 -0.47949106133E+01  0.47949106133E+01  0.00000000000E+00 0.  1.
          2    1    1    2  502    0  0.15799294340E+02  0.29816889336E+02  0.42665628024E+03  0.42798860506E+03  0.00000000000E+00 0.  1.
         -2    1    1    2    0  502 -0.15799294340E+02 -0.29816889336E+02  0.64818577656E+02  0.73076074065E+02  0.00000000000E+00 0.  1.
</event>
<event>
 4    1  0.5841374E+003  0.2992167E+02  0.7546771E-02  0.1420278E+00
          2   -1    0    0  501    0  0.00000000000E+00  0.00000000000E+00  0.77972402988E+03  0.77972402988E+03  0.00000000000E+00 0.  1.
         -2   -1    0    0    0  501 -0.00000000000E+00 -0.00000000000E+00 -0.82070481918E+02  0.82070481918E+02  0.00000000000E+00 0.  1.
          2    1    1    2  502    0  0.27633588274E+02  0.11475686432E+02  0.77669910444E+03  0.77727524431E+03  0.00000000000E+00 0.  1.
         -2    1    1    2    0  502 -0.27633588274E+02 -0.11475686432E+02 -0.79045556471E+02  0.84519267495E+02  0.00000000000E+00 0.  1.
</event>
<event>
 4    1  0.5841374E+003  0.2556339E+02  0.7546771E-02  0.1462598E+00
          2   -1    0    0  501    0  0.00000000000E+00  0.00000000000E+00  0.43957861305E+01  0.43957861305E+01  0.00000000000E+00 0. -1.
         -2   -1    0    0    0  501 -0.00000000000E+00 -0.00000000000E+00 -0.14972378929E+03  0.14972378929E+03  0.00000000000E+00 0. -1.
          2    1    1    2  502    0 -0.37877814145E+01  0.25281215489E+02 -0.66175193021E+02  0.70941125703E+02  0.00000000000E+00 0. -1.
         -2    1    1    2    0  502  0.37877814145E+01 -0.25281215489E+02 -0.79152810140E+02  0.83178449719E+02  0.00000000000E+00 0. -1.
</event>
<event>
 4    1  0.5841374E+003  0.2613700E+02  0.7546771E-02  0.1456475E+00
          2   -1    0    0  501    0  0.00000000000E+00  0.00000000000E+00  0.14998699815E+03  0.14998699815E+03  0.00000000000E+00 0. -1.
         -2   -1    0    0    0  501 -0.00000000000E+00 -0.00000000000E+00 -0.14990021258E+02  0.14990021258E+02  0.00000000000E+00 0. -1.
          2    1    1    2  502    0 -0.15084456352E+02 -0.21344835340E+02  0.13632339901E+03  0.13880638291E+03  0.00000000000E+00 0. -1.
         -2    1    1    2    0  502  0.15084456352E+02  0.21344835340E+02 -0.13264221162E+01  0.26170636499E+02  0.00000000000E+00 0. -1.
</event>
<event>
 4    1  0.5841374E+003  0.2204329E+02  0.7546771E-02  0.1504874E+00
          2   -1    0    0  501    0  0.00000000000E+00  0.00000000000E+00  0.38864734590E+01  0.38864734590E+01  0.00000000000E+00 0.  1.
         -2   -1    0    0    0  501 -0.00000000000E+00 -0.00000000000E+00 -0.52560727071E+03  0.52560727071E+03  0.00000000000E+00 0.  1.
          2    1    1    2  502    0 -0.21724441602E+02 -0.37356720529E+01 -0.29735900680E+02  0.37015272495E+02  0.00000000000E+00 0.  1.
         -2    1    1    2    0  502  0.21724441602E+02  0.37356720529E+01 -0.49198489657E+03  0.49247847167E+03  0.00000000000E+00 0.  1.
</event>
<event>
 4    1  0.5841374E+003  0.7620589E+02  0.7546771E-02  0.1212941E+00
          2   -1    0    0  501    0  0.00000000000E+00  0.00000000000E+00  0.42306637957E+02  0.42306637957E+02  0.00000000000E+00 0.  1.
         -2   -1    0    0    0  501 -0.00000000000E+00 -0.00000000000E+00 -0.17430418865E+03  0.17430418865E+03  0.00000000000E+00 0.  1.
          2    1    1    2  502    0 -0.48659062886E+02 -0.58648386961E+02 -0.16074615401E+02  0.77882802686E+02  0.00000000000E+00 0.  1.
         -2    1    1    2    0  502  0.48659062886E+02  0.58648386961E+02 -0.11592293530E+03  0.13872802392E+03  0.00000000000E+00 0.  1.
</event>
<event>
 4    1  0.5841374E+003  0.2175731E+02  0.7546771E-02  0.1508721E+00
          2   -1    0    0  501    0  0.00000000000E+00  0.00000000000E+00  0.65846052351E+03  0.65846052351E+03  0.00000000000E+00 0.  1.
         -2   -1    0    0    0  501 -0.00000000000E+00 -0.00000000000E+00 -0.31479166237E+01  0.31479166237E+01  0.00000000000E+00 0.  1.
          2    1    1    2  502    0  0.11902792442E+02 -0.18212739971E+02  0.61824110546E+03  0.61862383145E+03  0.00000000000E+00 0.  1.
         -2    1    1    2    0  502 -0.11902792442E+02  0.18212739971E+02  0.37071501429E+02  0.42984608680E+02  0.00000000000E+00 0.  1.
</event>
<event>
 4    1  0.5841374E+003  0.2055364E+02  0.7546771E-02  0.1525734E+00
          2   -1    0    0  501    0  0.00000000000E+00  0.00000000000E+00  0.94160971942E+02  0.94160971942E+02  0.00000000000E+00 0. -1.
         -2   -1    0    0    0  501 -0.00000000000E+00 -0.00000000000E+00 -0.13030582043E+02  0.13030582043E+02  0.00000000000E+00 0. -1.
          2    1    1    2  502    0  0.19951507127E+02 -0.49385535365E+01  0.83964393255E+02  0.86443457140E+02  0.00000000000E+00 0. -1.
         -2    1    1    2    0  502 -0.19951507127E+02  0.49385535365E+01 -0.28340033560E+01  0.20748096845E+02  0.00000000000E+00 0. -1.
</event>
<event>
 4    1  0.5841374E+003  0.2763299E+02  0.7546771E-02  0.1441351E+00
          2   -1    0    0  501    0  0.00000000000E+00  0.00000000000E+00  0.36102396510E+03  0.36102396510E+03  0.00000000000E+00 0. -1.
         -2   -1    0    0    0  501 -0.00000000000E+00 -0.00000000000E+00 -0.24317561583E+01  0.24317561583E+01  0.00000000000E+00 0.  1.
          2    1    1    2  502    0  0.15344083017E+02  0.22981321798E+02  0.24487936263E+03  0.24643352913E+03  0.00000000000E+00 0. -1.
         -2    1    1    2    0  502 -0.15344083017E+02 -0.22981321798E+02  0.11371284631E+03  0.11702219213E+03  0.00000000000E+00 0.  1.
</event>
<event>
 4    1  0.5841374E+003  0.2185425E+02  0.7546771E-02  0.1507409E+00
          2   -1    0    0  501    0  0.00000000000E+00  0.00000000000E+00  0.28710396431E+03  0.28710396431E+03  0.00000000000E+00 0.  1.
         -2   -1    0    0    0  501 -0.00000000000E+00 -0.00000000000E+00 -0.16637643385E+01  0.16637643385E+01  0.00000000000E+00 0.  1.
          2    1    1    2  502    0  0.11178832896E+02  0.18778746227E+02  0.14102650267E+03  0.14270978267E+03  0.00000000000E+00 0.  1.
         -2    1    1    2    0  502 -0.11178832896E+02 -0.18778746227E+02  0.14441369730E+03  0.14605794597E+03  0.00000000000E+00 0.  1.
</event>
<event>
 4    1  0.5841374E+003  0.2403696E+02  0.7546771E-02  0.1479872E+00
          2   -1    0    0  501    0  0.00000000000E+00  0.00000000000E+00  0.30885977284E+03  0.30885977284E+03  0.00000000000E+00 0. -1.
         -2   -1    0    0    0  501 -0.00000000000E+00 -0.00000000000E+00 -0.30773104352E+02  0.30773104352E+02  0.00000000000E+00 0. -1.
          2    1    1    2  502    0 -0.51329562708E+01  0.23482508057E+02  0.30361735065E+03  0.30456735058E+03  0.00000000000E+00 0. -1.
         -2    1    1    2    0  502  0.51329562708E+01 -0.23482508057E+02 -0.25530682163E+02  0.35065526610E+02  0.00000000000E+00 0. -1.
</event>
<event>
 4    1  0.5841374E+003  0.2474921E+02  0.7546771E-02  0.1471629E+00
          2   -1    0    0  501    0  0.00000000000E+00  0.00000000000E+00  0.20234186809E+02  0.20234186809E+02  0.00000000000E+00 0. -1.
         -2   -1    0    0    0  501 -0.00000000000E+00 -0.00000000000E+00 -0.47273318759E+02  0.47273318759E+02  0.00000000000E+00 0. -1.
          2    1    1    2  502    0  0.18617910654E+02 -0.16306341893E+02  0.67226969192E+01  0.25646014055E+02  0.00000000000E+00 0. -1.
         -2    1    1    2    0  502 -0.18617910654E+02  0.16306341893E+02 -0.33761828869E+02  0.41861491512E+02  0.00000000000E+00 0. -1.
</event>
<event>
 4    1  0.5841374E+003  0.2823829E+02  0.7546771E-02  0.1435551E+00
          2   -1    0    0  501    0  0.00000000000E+00  0.00000000000E+00  0.56001028153E+02  0.56001028153E+02  0.00000000000E+00 0.  1.
         -2   -1    0    0    0  501 -0.00000000000E+00 -0.00000000000E+00 -0.28442376754E+02  0.28442376754E+02  0.00000000000E+00 0. -1.
          2    1    1    2  502    0  0.23100212327E+02 -0.16241349519E+02  0.43615826707E+02  0.51959037550E+02  0.00000000000E+00 0.  1.
         -2    1    1    2    0  502 -0.23100212327E+02  0.16241349519E+02 -0.16057175307E+02  0.32484367357E+02  0.00000000000E+00 0. -1.
</event>
<event>
 4    1  0.5841374E+003  0.2621196E+02  0.7546771E-02  0.1455689E+00
          2   -1    0    0  501    0  0.00000000000E+00  0.00000000000E+00  0.23517092600E+03  0.23517092600E+03  0.00000000000E+00 0. -1.
         -2   -1    0    0    0  501 -0.00000000000E+00 -0.00000000000E+00 -0.19664081428E+02  0.19664081428E+02  0.00000000000E+00 0. -1.
          2    1    1    2  502    0 -0.20319693523E+02  0.16558286700E+02  0.22532508125E+03  0.22684457023E+03  0.00000000000E+00 0. -1.
         -2    1    1    2    0  502  0.20319693523E+02 -0.16558286700E+02 -0.98182366736E+01  0.27990437201E+02  0.00000000000E+00 0. -1.
</event>
<event>
 4    1  0.5841374E+003  0.2281060E+02  0.7546771E-02  0.1494890E+00
          2   -1    0    0  501    0  0.00000000000E+00  0.00000000000E+00  0.48210039464E+01  0.48210039464E+01  0.00000000000E+00 0. -1.
         -2   -1    0    0    0  501 -0.00000000000E+00 -0.00000000000E+00 -0.11909014201E+03  0.11909014201E+03  0.00000000000E+00 0. -1.
          2    1    1    2  502    0 -0.16315096362E+02 -0.15941787373E+02 -0.76102048605E+02  0.79447119242E+02  0.00000000000E+00 0. -1.
         -2    1    1    2    0  502  0.16315096362E+02  0.15941787373E+02 -0.38167089462E+02  0.44464026718E+02  0.00000000000E+00 0. -1.
</event>
<event>
 4    1  0.5841374E+003  0.2282058E+02  0.7546771E-02  0.1494764E+00
          2   -1    0    0  501    0  0.00000000000E+00  0.00000000000E+00  0.24053092639E+01  0.24053092639E+01  0.00000000000E+00 0.  1.
         -2   -1    0    0    0  501 -0.00000000000E+00 -0.00000000000E+00 -0.22976377827E+03  0.22976377827E+03  0.00000000000E+00 0.  1.
          2    1    1    2  502    0 -0.22478286221E+02 -0.39376834773E+01 -0.85800819035E+02  0.88783778078E+02  0.00000000000E+00 0.  1.
         -2    1    1    2    0  502  0.22478286221E+02  0.39376834773E+01 -0.14155764997E+03  0.14338530945E+03  0.00000000000E+00 0.  1.
</event>
<event>
 4    1  0.5841374E+003  0.3113635E+02  0.7546771E-02  0.1409972E+00
          2   -1    0    0  501    0  0.00000000000E+00  0.00000000000E+00  0.10939888203E+01  0.10939888203E+01  0.00000000000E+00 0.  1.
         -2   -1    0    0    0  501 -0.00000000000E+00 -0.00000000000E+00 -0.12430465209E+04  0.12430465209E+04  0.00000000000E+00 0. -1.
          2    1    1    2  502    0  0.33325464109E+01 -0.30957473499E+02 -0.95428649163E+03  0.95479431248E+03  0.00000000000E+00 0. -1.
         -2    1    1    2    0  502 -0.33325464109E+01  0.30957473499E+02 -0.28766604041E+03  0.28934619720E+03  0.00000000000E+00 0.  1.
</event>
<event>
 4    1  0.5841374E+003  0.2587382E+02  0.7546771E-02  0.1459261E+00
          2   -1    0    0  501    0  0.00000000000E+00  0.00000000000E+00  0.33863156438E+03  0.33863156438E+03  0.00000000000E+00 0.  1.
         -2   -1    0    0    0  501 -0.00000000000E+00 -0.00000000000E+00 -0.79928709074E+01  0.79928709074E+01  0.00000000000E+00 0. -1.
          2    1    1    2  502    0 -0.23259082149E+00 -0.25872775653E+02  0.31567825522E+03  0.31673682362E+03  0.00000000000E+00 0.  1.
         -2    1    1    2    0  502  0.23259082149E+00  0.25872775653E+02  0.14960438255E+02  0.29887611669E+02  0.00000000000E+00 0. -1.
</event>
<event>
 4    1  0.5841374E+003  0.2690225E+02  0.7546771E-02  0.1448593E+00
          2   -1    0    0  501    0  0.00000000000E+00  0.00000000000E+00  0.41960336495E+03  0.41960336495E+03  0.00000000000E+00 0.  1.
         -2   -1    0    0    0  501 -0.00000000000E+00 -0.00000000000E+00 -0.22477363206E+02  0.22477363206E+02  0.00000000000E+00 0. -1.
          2    1    1    2  502    0  0.22977220316E+02 -0.13992074012E+02  0.41095336307E+03  0.41183297271E+03  0.00000000000E+00 0.  1.
         -2    1    1    2    0  502 -0.22977220316E+02  0.13992074012E+02 -0.13827361325E+02  0.30247755452E+02  0.00000000000E+00 0. -1.
</event>
<event>
 4    1  0.5841374E+003  0.2796477E+02  0.7546771E-02  0.1438150E+00
          2   -1    0    0  501    0  0.00000000000E+00  0.00000000000E+00  0.12103409203E+02  0.12103409203E+02  0.00000000000E+00 0. -1.
         -2   -1    0    0    0  501 -0.00000000000E+00 -0.00000000000E+00 -0.24196880623E+03  0.24196880623E+03  0.00000000000E+00 0. -1.
          2    1    1    2  502    0  0.13445317580E+02  0.24520441355E+02 -0.61722222472E+01  0.28637823530E+02  0.00000000000E+00 0. -1.
         -2    1    1    2    0  502 -0.13445317580E+02 -0.24520441355E+02 -0.22369317478E+03  0.22543439191E+03  0.00000000000E+00 0. -1.
</event>
<event>
 4    1  0.5841374E+003  0.2005622E+02  0.7546771E-02  0.1533178E+00
          2   -1    0    0  501    0  0.00000000000E+00  0.00000000000E+00  0.71009066271E+02  0.71009066271E+02  0.00000000000E+00 0. -1.
         -2   -1    0    0    0  501 -0.00000000000E+00 -0.00000000000E+00 -0.11295467163E+02  0.11295467163E+02  0.00000000000E+00 0. -1.
          2    1    1    2  502    0 -0.51117022380E+01  0.19393872572E+02  0.58911860427E+02  0.62232299428E+02  0.00000000000E+00 0. -1.
         -2    1    1    2    0  502  0.51117022380E+01 -0.19393872572E+02  0.80173868094E+00  0.20072234007E+02  0.00000000000E+00 0. -1.
</event>
<event>
 4    1  0.5841374E+003  0.2192009E+02  0.7546771E-02  0.1506523E+00
          2   -1    0    0  501    0  0.00000000000E+00  0.00000000000E+00  0.61820882123E+03  0.61820882123E+03  0.00000000000E+00 0.  1.
         -2   -1    0    0    0  501 -0.00000000000E+00 -0.00000000000E+00 -0.16521649654E+02  0.16521649654E+02  0.00000000000E+00 0. -1.
          2    1    1    2  502    0  0.21418363807E+02 -0.46630343434E+01  0.61065397800E+03  0.61104727399E+03  0.00000000000E+00 0.  1.
         -2    1    1    2    0  502 -0.21418363807E+02  0.46630343434E+01 -0.89668064304E+01  0.23683196892E+02  0.00000000000E+00 0. -1.
</event>
<event>
 4    1  0.5841374E+003  0.2496550E+02  0.7546771E-02  0.1469190E+00
          2   -1    0    0  501    0  0.00000000000E+00  0.00000000000E+00  0.93796066371E+02  0.93796066371E+02  0.00000000000E+00 0.  1.
         -2   -1    0    0    0  501 -0.00000000000E+00 -0.00000000000E+00 -0.37571976904E+02  0.37571976904E+02  0.00000000000E+00 0.  1.
          2    1    1    2  502    0 -0.11748292720E+02  0.22028479832E+02  0.87705194302E+02  0.91189239569E+02  0.00000000000E+00 0.  1.
         -2    1    1    2    0  502  0.11748292720E+02 -0.22028479832E+02 -0.31481104835E+02  0.40178803706E+02  0.00000000000E+00 0.  1.
</event>
<event>
 4    1  0.5841374E+003  0.2209885E+02  0.7546771E-02  0.1504135E+00
          2   -1    0    0  501    0  0.00000000000E+00  0.00000000000E+00  0.63993711815E+03  0.63993711815E+03  0.00000000000E+00 0. -1.
         -2   -1    0    0    0  501 -0.00000000000E+00 -0.00000000000E+00 -0.84535924683E+01  0.84535924683E+01  0.00000000000E+00 0.  1.
          2    1    1    2  502    0  0.11222116147E+02  0.19037422054E+02  0.62495792217E+03  0.62534851388E+03  0.00000000000E+00 0. -1.
         -2    1    1    2    0  502 -0.11222116147E+02 -0.19037422054E+02  0.65256035106E+01  0.23042196737E+02  0.00000000000E+00 0.  1.
</event>
<event>
 4    1  0.5841374E+003  0.5955777E+02  0.7546771E-02  0.1261343E+00
          2   -1    0    0  501    0  0.00000000000E+00  0.00000000000E+00  0.12479088774E+03  0.12479088774E+03  0.00000000000E+00 0.  1.
         -2   -1    0    0    0  501 -0.00000000000E+00 -0.00000000000E+00 -0.86620466642E+02  0.86620466642E+02  0.00000000000E+00 0.  1.
          2    1    1    2  502    0  0.50943981524E+02 -0.30851890642E+02  0.10572835450E+03  0.12134913825E+03  0.00000000000E+00 0.  1.
         -2    1    1    2    0  502 -0.50943981524E+02  0.30851890642E+02 -0.67557933397E+02  0.90062216132E+02  0.00000000000E+00 0.  1.
</event>
<event>
 4    1  0.5841374E+003  0.2074879E+02  0.7546771E-02  0.1522882E+00
          2   -1    0    0  501    0  0.00000000000E+00  0.00000000000E+00  0.14513968534E+01  0.14513968534E+01  0.00000000000E+00 0. -1.
         -2   -1    0    0    0  501 -0.00000000000E+00 -0.00000000000E+00 -0.29731437340E+03  0.29731437340E+03  0.00000000000E+00 0. -1.
          2    1    1    2  502    0 -0.13302187352E+02  0.15923681495E+02 -0.15515611459E+03  0.15653731733E+03  0.00000000000E+00 0. -1.
         -2    1    1    2    0  502  0.13302187352E+02 -0.15923681495E+02 -0.14070686195E+03  0.14222845293E+03  0.00000000000E+00 0. -1.
</event>
<event>
 4    1  0.5841374E+003  0.2795335E+02  0.7546771E-02  0.1438260E+00
          2   -1    0    0  501    0  0.00000000000E+00  0.00000000000E+00  0.38788071501E+03  0.38788071501E+03  0.00000000000E+00 0.  1.
         -2   -1    0    0    0  501 -0.00000000000E+00 -0.00000000000E+00 -0.55211805833E+02  0.55211805833E+02  0.00000000000E+00 0. -1.
          2    1    1    2  502    0 -0.27259663083E+02  0.61887323938E+01  0.38380138550E+03  0.38481800004E+03  0.00000000000E+00 0.  1.
         -2    1    1    2    0  502  0.27259663083E+02 -0.61887323938E+01 -0.51132476325E+02  0.58274520806E+02  0.00000000000E+00 0. -1.
</event>
<event>
 4    1  0.5841374E+003  0.2158057E+02  0.7546771E-02  0.1511135E+00
          2   -1    0    0  501    0  0.00000000000E+00  0.00000000000E+00  0.33640734182E+01  0.33640734182E+01  0.00000000000E+00 0.  1.
         -2   -1    0    0    0  501 -0.00000000000E+00 -0.00000000000E+00 -0.18638359765E+03  0.18638359765E+03  0.00000000000E+00 0. -1.
          2    1    1    2  502    0  0.68703461141E+01 -0.20457743768E+02 -0.43391515654E+02  0.48461784600E+02  0.00000000000E+00 0.  1.
         -2    1    1    2    0  502 -0.68703461141E+01  0.20457743768E+02 -0.13962800858E+03  0.14128588647E+03  0.00000000000E+00 0. -1.
</event>
<event>
 4    1  0.5841374E+003  0.2975243E+02  0.7546771E-02  0.1421760E+00
          2   -1    0    0  501    0  0.00000000000E+00  0.00000000000E+00  0.11645685067E+04  0.11645685067E+04  0.00000000000E+00 0.  1.
         -2   -1    0    0    0  501 -0.00000000000E+00 -0.00000000000E+00 -0.77629510656E+00  0.77629510656E+00  0.00000000000E+00 0.  1.
          2    1    1    2  502    0 -0.27295289819E+02  0.11839512141E+02  0.66601456302E+03  0.66667878701E+03  0.00000000000E+00 0.  1.
         -2    1    1    2    0  502  0.27295289819E+02 -0.11839512141E+02  0.49777764854E+03  0.49866601476E+03  0.00000000000E+00 0.  1.
</event>
<event>
 4    1  0.5841374E+003  0.5961830E+02  0.7546771E-02  0.1261135E+00
          2   -1    0    0  501    0  0.00000000000E+00  0.00000000000E+00  0.29082059624E+02  0.29082059624E+02  0.00000000000E+00 0.  1.
         -2   -1    0    0    0  501 -0.00000000000E+00 -0.00000000000E+00 -0.18434325852E+03  0.18434325852E+03  0.00000000000E+00 0.  1.
          2    1    1    2  502    0 -0.40600237431E+02 -0.43657333834E+02 -0.15681141831E+02  0.61646088976E+02  0.00000000000E+00 0.  1.
         -2    1    1    2    0  502  0.40600237431E+02  0.43657333834E+02 -0.13958005707E+03  0.15177922917E+03  0.00000000000E+00 0.  1.
</event>
<event>
 4    1  0.5841374E+003  0.3101596E+02  0.7546771E-02  0.1410968E+00
          2   -1    0    0  501    0  0.00000000000E+00  0.00000000000E+00  0.22760739829E+04  0.22760739829E+04  0.00000000000E+00 0. -1.
         -2   -1    0    0    0  501 -0.00000000000E+00 -0.00000000000E+00 -0.63175977076E+02  0.63175977076E+02  0.00000000000E+00 0. -1.
          2    1    1    2  502    0 -0.28425338888E+02 -0.12409254987E+02  0.22721549688E+04  0.22723666499E+04  0.00000000000E+00 0. -1.
         -2    1    1    2    0  502  0.28425338888E+02  0.12409254987E+02 -0.59256962978E+02  0.66883310038E+02  0.00000000000E+00 0. -1.
</event>
<event>
 4    1  0.5841374E+003  0.2071359E+02  0.7546771E-02  0.1523394E+00
          2   -1    0    0  501    0  0.00000000000E+00  0.00000000000E+00  0.11688132877E+04  0.11688132877E+04  0.00000000000E+00 0.  1.
         -2   -1    0    0    0  501 -0.00000000000E+00 -0.00000000000E+00 -0.27350133128E+01  0.27350133128E+01  0.00000000000E+00 0.  1.
          2    1    1    2  502    0 -0.17323633131E+02 -0.11355369765E+02  0.11280872560E+04  0.11282774082E+04  0.00000000000E+00 0.  1.
         -2    1    1    2    0  502  0.17323633131E+02  0.11355369765E+02  0.37991018384E+02  0.43270892817E+02  0.00000000000E+00 0.  1.
</event>
<event>
 4    1  0.5841374E+003  0.2907325E+02  0.7546771E-02  0.1427824E+00
          2   -1    0    0  501    0  0.00000000000E+00  0.00000000000E+00  0.15193960388E+02  0.15193960388E+02  0.00000000000E+00 0. -1.
         -2   -1    0    0    0  501 -0.00000000000E+00 -0.00000000000E+00 -0.64106652806E+03  0.64106652806E+03  0.00000000000E+00 0. -1.
          2    1    1    2  502    0  0.25480601658E+02 -0.13999740499E+02  0.63355503174E+00  0.29080151080E+02  0.00000000000E+00 0. -1.
         -2    1    1    2    0  502 -0.25480601658E+02  0.13999740499E+02 -0.62650612271E+03  0.62718033737E+03  0.00000000000E+00 0. -1.
</event>
<event>
 4    1  0.5841374E+003  0.2012811E+02  0.7546771E-02  0.1532086E+00
          2   -1    0    0  501    0  0.00000000000E+00  0.00000000000E+00  0.14900227780E+02  0.14900227780E+02  0.00000000000E+00 0.  1.
         -2   -1    0    0    0  501 -0.00000000000E+00 -0.00000000000E+00 -0.15005665817E+03  0.15005665817E+03  0.00000000000E+00 0. -1.
          2    1    1    2  502    0 -0.74526269343E+01  0.18697574926E+02  0.70545263736E+01  0.21328555944E+02  0.00000000000E+00 0.  1.
         -2    1    1    2    0  502  0.74526269343E+01 -0.18697574926E+02 -0.14221095676E+03  0.14362833000E+03  0.00000000000E+00 0. -1.
</event>
<event>
 4    1  0.5841374E+003  0.2821390E+02  0.7546771E-02  0.1435781E+00
          2   -1    0    0  501    0  0.00000000000E+00  0.00000000000E+00  0.79443058936E+03  0.79443058936E+03  0.00000000000E+00 0. -1.
         -2   -1    0    0    0  501 -0.00000000000E+00 -0.00000000000E+00 -0.15290602783E+02  0.15290602783E+02  0.00000000000E+00 0. -1.
          2    1    1    2  502    0 -0.28014772033E+02  0.33461461787E+01  0.78094041365E+03  0.78144990487E+03  0.00000000000E+00 0. -1.
         -2    1    1    2    0  502  0.28014772033E+02 -0.33461461787E+01 -0.18004270776E+01  0.28271287271E+02  0.00000000000E+00 0. -1.
</event>
<event>
 4    1  0.5841374E+003  0.2032997E+02  0.7546771E-02  0.1529050E+00
          2   -1    0    0  501    0  0.00000000000E+00  0.00000000000E+00  0.30666372882E+03  0.30666372882E+03  0.00000000000E+00 0.  1.
         -2   -1    0    0    0  501 -0.00000000000E+00 -0.00000000000E+00 -0.28106911889E+02  0.28106911889E+02  0.00000000000E+00 0. -1.
          2    1    1    2  502    0  0.19360917739E+02  0.62018090156E+01  0.30260128287E+03  0.30328343833E+03  0.00000000000E+00 0.  1.
         -2    1    1    2    0  502 -0.19360917739E+02 -0.62018090156E+01 -0.24044465944E+02  0.31487202374E+02  0.00000000000E+00 0. -1.
</event>
<event>
 4    1  0.5841374E+003  0.2166180E+02  0.7546771E-02  0.1510022E+00
          2   -1    0    0  501    0  0.00000000000E+00  0.00000000000E+00  0.14489019167E+04  0.14489019167E+04  0.00000000000E+00 0. -1.
         -2   -1    0    0    0  501 -0.00000000000E+00 -0.00000000000E+00 -0.51866432702E+00  0.51866432702E+00  0.00000000000E+00 0. -1.
          2    1    1    2  502    0  0.20327294596E+02 -0.74856181281E+01  0.11683385777E+04  0.11685393727E+04  0.00000000000E+00 0. -1.
         -2    1    1    2    0  502 -0.20327294596E+02  0.74856181281E+01  0.28004467473E+03  0.28088120839E+03  0.00000000000E+00 0. -1.
</event>
<event>
 4    1  0.5841374E+003  0.3231350E+02  0.7546771E-02  0.1400502E+00
          2   -1    0    0  501    0  0.00000000000E+00  0.00000000000E+00  0.13605576560E+03  0.13605576560E+03  0.00000000000E+00 0.  1.
         -2   -1    0    0    0  501 -0.00000000000E+00 -0.00000000000E+00 -0.38563927812E+02  0.38563927812E+02  0.00000000000E+00 0. -1.
          2    1    1    2  502    0  0.66503307617E+01  0.31621753568E+02  0.12688663950E+03  0.13093655518E+03  0.00000000000E+00 0.  1.
         -2    1    1    2    0  502 -0.66503307617E+01 -0.31621753568E+02 -0.29394801715E+02  0.43683138232E+02  0.00000000000E+00 0. -1.
</event>
<event>
 4    1  0.5841374E+003  0.3030140E+02  0.7546771E-02  0.1416995E+00
          2   -1    0    0  501    0  0.00000000000E+00  0.00000000000E+00  0.18626470049E+03  0.18626470049E+03  0.00000000000E+00 0. -1.
         -2   -1    0    0    0  501 -0.00000000000E+00 -0.00000000000E+00 -0.40516477033E+03  0.40516477033E+03  0.00000000000E+00 0. -1.
          2    1    1    2  502    0 -0.11179201916E+02  0.28163807832E+02  0.18446029955E+03  0.18693254596E+03  0.00000000000E+00 0. -1.
         -2    1    1    2    0  502  0.11179201916E+02 -0.28163807832E+02 -0.40336036939E+03  0.40449692486E+03  0.00000000000E+00 0. -1.
</event>
<event>
 4    1  0.5841374E+003  0.3030823E+02  0.7546771E-02  0.1416936E+00
          2   -1    0    0  501    0  0.00000000000E+00  0.00000000000E+00  0.11476364804E+04  0.11476364804E+04  0.00000000000E+00 0. -1.
         -2   -1    0    0    0  501 -0.00000000000E+00 -0.00000000000E+00 -0.16451477791E+02  0.16451477791E+02  0.00000000000E+00 0.  1.
          2    1    1    2  502    0  0.78301937204E+01  0.29279291550E+02  0.11333007692E+04  0.11337059682E+04  0.00000000000E+00 0. -1.
         -2    1    1    2    0  502 -0.78301937204E+01 -0.29279291550E+02 -0.21157666003E+01  0.30381989988E+02  0.00000000000E+00 0.  1.
</event>
<event>
 4    1  0.5841374E+003  0.2174051E+02  0.7546771E-02  0.1508950E+00
          2   -1    0    0  501    0  0.00000000000E+00  0.00000000000E+00  0.11739076411E+03  0.11739076411E+03  0.00000000000E+00 0. -1.
         -2   -1    0    0    0  501 -0.00000000000E+00 -0.00000000000E+00 -0.98666761462E+02  0.98666761462E+02  0.00000000000E+00 0. -1.
          2    1    1    2  502    0 -0.14886351328E+02 -0.15844443445E+02  0.11516364182E+03  0.11719775698E+03  0.00000000000E+00 0. -1.
         -2    1    1    2    0  502  0.14886351328E+02  0.15844443445E+02 -0.96439639168E+02  0.98859768595E+02  0.00000000000E+00 0. -1.
</event>
<event>
 4    1  0.5841374E+003  0.2921851E+02  0.7546771E-02  0.1426511E+00
          2   -1    0    0  501    0  0.00000000000E+00  0.00000000000E+00  0.40498067820E+03  0.40498067820E+03  0.00000000000E+00 0.  1.
         -2   -1    0    0    0  501 -0.00000000000E+00 -0.00000000000E+00 -0.41104226664E+01  0.41104226664E+01  0.00000000000E+00 0.  1.
          2    1    1    2  502    0 -0.29215282104E+02 -0.43432954551E+00  0.34319914473E+03  0.34444066876E+03  0.00000000000E+00 0.  1.
         -2    1    1    2    0  502  0.29215282104E+02  0.43432954551E+00  0.57671110802E+02  0.64650432107E+02  0.00000000000E+00 0.  1.
</event>
<event>
 4    1  0.5841374E+003  0.4158402E+02  0.7546771E-02  0.1339445E+00
          2   -1    0    0  501    0  0.00000000000E+00  0.00000000000E+00  0.96507936178E+03  0.96507936178E+03  0.00000000000E+00 0. -1.
         -2   -1    0    0    0  501 -0.00000000000E+00 -0.00000000000E+00 -0.19155127731E+01  0.19155127731E+01  0.00000000000E+00 0. -1.
          2    1    1    2  502    0 -0.20364841515E+02 -0.36256089208E+02  0.60445481031E+03  0.60588352716E+03  0.00000000000E+00 0. -1.
         -2    1    1    2    0  502  0.20364841515E+02  0.36256089208E+02  0.35870903870E+03  0.36111134740E+03  0.00000000000E+00 0. -1.
</event>
<event>
 4    1  0.5841374E+003  0.2111376E+02  0.7546771E-02  0.1517647E+00
          2   -1    0    0  501    0  0.00000000000E+00  0.00000000000E+00  0.76081949129E+03  0.76081949129E+03  0.00000000000E+00 0.  1.
         -2   -1    0    0    0  501 -0.00000000000E+00 -0.00000000000E+00 -0.26163599890E+01  0.26163599890E+01  0.00000000000E+00 0. -1.
          2    1    1    2  502    0 -0.21066951610E+02 -0.14050034673E+01  0.42832187821E+02  0.47753395674E+02  0.00000000000E+00 0. -1.
         -2    1    1    2    0  502  0.21066951610E+02  0.14050034673E+01  0.71537094348E+03  0.71568245561E+03  0.00000000000E+00 0.  1.
</event>
<event>
 4    1  0.5841374E+003  0.2394621E+02  0.7546771E-02  0.1480946E+00
          2   -1    0    0  501    0  0.00000000000E+00  0.00000000000E+00  0.10024944938E+03  0.10024944938E+03  0.00000000000E+00 0. -1.
         -2   -1    0    0    0  501 -0.00000000000E+00 -0.00000000000E+00 -0.20467847927E+03  0.20467847927E+03  0.00000000000E+00 0.  1.
          2    1    1    2  502    0 -0.30926697493E+01  0.23745661604E+02  0.98103975831E+02  0.10098421226E+03  0.00000000000E+00 0. -1.
         -2    1    1    2    0  502  0.30926697493E+01 -0.23745661604E+02 -0.20253300572E+03  0.20394371639E+03  0.00000000000E+00 0.  1.
</event>
<event>
 4    1  0.5841374E+003  0.3336404E+02  0.7546771E-02  0.1392444E+00
          2   -1    0    0  501    0  0.00000000000E+00  0.00000000000E+00  0.99510654134E+02  0.99510654134E+02  0.00000000000E+00 0.  1.
         -2   -1    0    0    0  501 -0.00000000000E+00 -0.00000000000E+00 -0.11451608739E+02  0.11451608739E+02  0.00000000000E+00 0. -1.
          2    1    1    2  502    0 -0.17756795189E+02 -0.28246338637E+02  0.52473750487E+02  0.62182424462E+02  0.00000000000E+00 0.  1.
         -2    1    1    2    0  502  0.17756795189E+02  0.28246338637E+02  0.35585294908E+02  0.48779838411E+02  0.00000000000E+00 0. -1.
</event>
<event>
 4    1  0.5841374E+003  0.2037769E+02  0.7546771E-02  0.1528338E+00
          2   -1    0    0  501    0  0.00000000000E+00  0.00000000000E+00  0.36034893634E+01  0.36034893634E+01  0.00000000000E+00 0.  1.
         -2   -1    0    0    0  501 -0.00000000000E+00 -0.00000000000E+00 -0.15068067294E+03  0.15068067294E+03  0.00000000000E+00 0.  1.
          2    1    1    2  502    0  0.18856741584E+02  0.77248625972E+01 -0.36124035089E+02  0.41475247033E+02  0.00000000000E+00 0.  1.
         -2    1    1    2    0  502 -0.18856741584E+02 -0.77248625972E+01 -0.11095314849E+03  0.11280891527E+03  0.00000000000E+00 0.  1.
</event>
<event>
 4    1  0.5841374E+003  0.2017106E+02  0.7546771E-02  0.1531437E+00
          2   -1    0    0  501    0  0.00000000000E+00  0.00000000000E+00  0.97873468528E+03  0.97873468528E+03  0.00000000000E+00 0.  1.
         -2   -1    0    0    0  501 -0.00000000000E+00 -0.00000000000E+00 -0.59897971938E+00  0.59897971938E+00  0.00000000000E+00 0.  1.
          2    1    1    2  502    0  0.23902817623E+01  0.20028933331E+02  0.75992342944E+03  0.76019108797E+03  0.00000000000E+00 0.  1.
         -2    1    1    2    0  502 -0.23902817623E+01 -0.20028933331E+02  0.21821227612E+03  0.21914257702E+03  0.00000000000E+00 0.  1.
</event>
<event>
 4    1  0.5841374E+003  0.2076725E+02  0.7546771E-02  0.1522614E+00
          2   -1    0    0  501    0  0.00000000000E+00  0.00000000000E+00  0.73812618587E+03  0.73812618587E+03  0.00000000000E+00 0.  1.
         -2   -1    0    0    0  501 -0.00000000000E+00 -0.00000000000E+00 -0.11741996519E+01  0.11741996519E+01  0.00000000000E+00 0.  1.
          2    1    1    2  502    0 -0.92034161373E+01 -0.18616550727E+02  0.63048316113E+03  0.63082509090E+03  0.00000000000E+00 0.  1.
         -2    1    1    2    0  502  0.92034161373E+01  0.18616550727E+02  0.10646882509E+03  0.10847529463E+03  0.00000000000E+00 0.  1.
</event>
<event>
 4    1  0.5841374E+003  0.2012188E+02  0.7546771E-02  0.1532181E+00
          2   -1    0    0  501    0  0.00000000000E+00  0.00000000000E+00  0.21773539611E+03  0.21773539611E+03  0.00000000000E+00 0.  1.
         -2   -1    0    0    0  501 -0.00000000000E+00 -0.00000000000E+00 -0.11757643290E+03  0.11757643290E+03  0.00000000000E+00 0.  1.
          2    1    1    2  502    0 -0.97039002145E+01  0.17627377687E+02  0.21640431601E+03  0.21733779724E+03  0.00000000000E+00 0.  1.
         -2    1    1    2    0  502  0.97039002145E+01 -0.17627377687E+02 -0.11624535280E+03  0.11797403176E+03  0.00000000000E+00 0.  1.
</event>
<event>
 4    1  0.5841374E+003  0.2492917E+02  0.7546771E-02  0.1469597E+00
          2   -1    0    0  501    0  0.00000000000E+00  0.00000000000E+00  0.62674395615E+01  0.62674395615E+01  0.00000000000E+00 0.  1.
         -2   -1    0    0    0  501 -0.00000000000E+00 -0.00000000000E+00 -0.26709924564E+03  0.26709924564E+03  0.00000000000E+00 0.  1.
          2    1    1    2  502    0 -0.19155809644E+02 -0.15953633760E+02 -0.22033537454E+02  0.33270711534E+02  0.00000000000E+00 0.  1.
         -2    1    1    2    0  502  0.19155809644E+02  0.15953633760E+02 -0.23879826863E+03  0.24009597367E+03  0.00000000000E+00 0.  1.
</event>
<event>
 4    1  0.5841374E+003  0.2190869E+02  0.7546771E-02  0.1506676E+00
          2   -1    0    0  501    0  0.00000000000E+00  0.00000000000E+00  0.19793240106E+03  0.19793240106E+03  0.00000000000E+00 0. -1.
         -2   -1    0    0    0  501 -0.00000000000E+00 -0.00000000000E+00 -0.19919170387E+03  0.19919170387E+03  0.00000000000E+00 0.  1.
          2    1    1    2  502    0 -0.20700799595E+02 -0.71740865295E+01  0.19672002108E+03  0.19793624558E+03  0.00000000000E+00 0. -1.
         -2    1    1    2    0  502  0.20700799595E+02  0.71740865295E+01 -0.19797932389E+03  0.19918785935E+03  0.00000000000E+00 0.  1.
</event>
<event>
 4    1  0.5841374E+003  0.2538828E+02  0.7546771E-02  0.1464506E+00
          2   -1    0    0  501    0  0.00000000000E+00  0.00000000000E+00  0.18101958598E+03  0.18101958598E+03  0.00000000000E+00 0.  1.
         -2   -1    0    0    0  501 -0.00000000000E+00 -0.00000000000E+00 -0.27565532380E+03  0.27565532380E+03  0.00000000000E+00 0.  1.
          2    1    1    2  502    0  0.11264847166E+02 -0.22752316829E+02  0.17954003117E+03  0.18132619087E+03  0.00000000000E+00 0.  1.
         -2    1    1    2    0  502 -0.11264847166E+02  0.22752316829E+02 -0.27417576899E+03  0.27534871891E+03  0.00000000000E+00 0.  1.
</event>
<event>
 4    1  0.5841374E+003  0.2704251E+02  0.7546771E-02  0.1447182E+00
          2   -1    0    0  501    0  0.00000000000E+00  0.00000000000E+00  0.73559048890E+03  0.73559048890E+03  0.00000000000E+00 0.  1.
         -2   -1    0    0    0  501 -0.00000000000E+00 -0.00000000000E+00 -0.99884951313E+00  0.99884951313E+00  0.00000000000E+00 0.  1.
          2    1    1    2  502    0 -0.74180864448E+01 -0.26005168910E+02  0.34206843363E+03  0.34313570217E+03  0.00000000000E+00 0.  1.
         -2    1    1    2    0  502  0.74180864448E+01  0.26005168910E+02  0.39252320576E+03  0.39345363624E+03  0.00000000000E+00 0.  1.
</event>
<event>
 4    1  0.5841374E+003  0.3242302E+02  0.7546771E-02  0.1399646E+00
          2   -1    0    0  501    0  0.00000000000E+00  0.00000000000E+00  0.83658668592E+02  0.83658668592E+02  0.00000000000E+00 0.  1.
         -2   -1    0    0    0  501 -0.00000000000E+00 -0.00000000000E+00 -0.38144971284E+02  0.38144971284E+02  0.00000000000E+00 0.  1.
          2    1    1    2  502    0  0.54826416215E+01 -0.31956104295E+02  0.72628466039E+02  0.79537073369E+02  0.00000000000E+00 0.  1.
         -2    1    1    2    0  502 -0.54826416215E+01  0.31956104295E+02 -0.27114768731E+02  0.42266566506E+02  0.00000000000E+00 0.  1.
</event>
<event>
 4    1  0.5841374E+003  0.2428102E+02  0.7546771E-02  0.1477010E+00
          2   -1    0    0  501    0  0.00000000000E+00  0.00000000000E+00  0.54772701605E+03  0.54772701605E+03  0.00000000000E+00 0.  1.
         -2   -1    0    0    0  501 -0.00000000000E+00 -0.00000000000E+00 -0.83169360543E+01  0.83169360543E+01  0.00000000000E+00 0. -1.
          2    1    1    2  502    0 -0.20918377633E+02  0.12328395660E+02  0.52911288499E+03  0.52966972060E+03  0.00000000000E+00 0.  1.
         -2    1    1    2    0  502  0.20918377633E+02 -0.12328395660E+02  0.10297195009E+02  0.26374231503E+02  0.00000000000E+00 0. -1.
</event>
<event>
 4    1  0.5841374E+003  0.4196744E+02  0.7546771E-02  0.1337327E+00
          2   -1    0    0  501    0  0.00000000000E+00  0.00000000000E+00  0.98818130395E+03  0.98818130395E+03  0.00000000000E+00 0. -1.
         -2   -1    0    0    0  501 -0.00000000000E+00 -0.00000000000E+00 -0.22912345463E+01  0.22912345463E+01  0.00000000000E+00 0.  1.
          2    1    1    2  502    0 -0.35015614199E+02  0.23133796493E+02  0.72634220025E+03  0.72755361153E+03  0.00000000000E+00 0. -1.
         -2    1    1    2    0  502  0.35015614199E+02 -0.23133796493E+02  0.25954786915E+03  0.26291892697E+03  0.00000000000E+00 0.  1.
</event>
<event>
 4    1  0.5841374E+003  0.2454449E+02  0.7546771E-02  0.1473964E+00
          2   -1    0    0  501    0  0.00000000000E+00  0.00000000000E+00  0.54529290483E+00  0.54529290483E+00  0.00000000000E+00 0.  1.
         -2   -1    0    0    0  501 -0.00000000000E+00 -0.00000000000E+00 -0.11286791439E+04  0.11286791439E+04  0.00000000000E+00 0.  1.
          2    1    1    2  502    0  0.21713315014E+02  0.11443914580E+02 -0.64621813469E+03  0.64668408735E+03  0.00000000000E+00 0.  1.
         -2    1    1    2    0  502 -0.21713315014E+02 -0.11443914580E+02 -0.48191571631E+03  0.48254034946E+03  0.00000000000E+00 0.  1.
</event>
<event>
 4    1  0.5841374E+003  0.2252095E+02  0.7546771E-02  0.1498603E+00
          2   -1    0    0  501    0  0.00000000000E+00  0.00000000000E+00  0.20766621352E+03  0.20766621352E+03  0.00000000000E+00 0. -1.
         -2   -1    0    0    0  501 -0.00000000000E+00 -0.00000000000E+00 -0.56107672379E+01  0.56107672379E+01  0.00000000000E+00 0. -1.
          2    1    1    2  502    0  0.14519068697E+02 -0.17215975574E+02  0.18116308084E+03  0.18255753896E+03  0.00000000000E+00 0. -1.
         -2    1    1    2    0  502 -0.14519068697E+02  0.17215975574E+02  0.20892365443E+02  0.30719441801E+02  0.00000000000E+00 0. -1.
</event>
<event>
 4    1  0.5841374E+003  0.3943809E+02  0.7546771E-02  0.1351810E+00
          2   -1    0    0  501    0  0.00000000000E+00  0.00000000000E+00  0.88798490248E+03  0.88798490248E+03  0.00000000000E+00 0. -1.
         -2   -1    0    0    0  501 -0.00000000000E+00 -0.00000000000E+00 -0.63436805276E+01  0.63436805276E+01  0.00000000000E+00 0.  1.
          2    1    1    2  502    0  0.39259982348E+02  0.37438968318E+01  0.82127524857E+03  0.82222162273E+03  0.00000000000E+00 0. -1.
         -2    1    1    2    0  502 -0.39259982348E+02 -0.37438968318E+01  0.60365973381E+02  0.72106960273E+02  0.00000000000E+00 0.  1.
</event>
<event>
 4    1  0.5841374E+003  0.3869399E+02  0.7546771E-02  0.1356314E+00
          2   -1    0    0  501    0  0.00000000000E+00  0.00000000000E+00  0.20027661429E+04  0.20027661429E+04  0.00000000000E+00 0. -1.
         -2   -1    0    0    0  501 -0.00000000000E+00 -0.00000000000E+00 -0.10187437574E+01  0.10187437574E+01  0.00000000000E+00 0. -1.
          2    1    1    2  502    0  0.32107269919E+02 -0.21595099641E+02  0.15177725461E+04  0.15182656971E+04  0.00000000000E+00 0. -1.
         -2    1    1    2    0  502 -0.32107269919E+02  0.21595099641E+02  0.48397485306E+03  0.48551918964E+03  0.00000000000E+00 0. -1.
</event>
<event>
 4    1  0.5841374E+003  0.3010733E+02  0.7546771E-02  0.1418666E+00
          2   -1    0    0  501    0  0.00000000000E+00  0.00000000000E+00  0.67763152645E+01  0.67763152645E+01  0.00000000000E+00 0.  1.
         -2   -1    0    0    0  501 -0.00000000000E+00 -0.00000000000E+00 -0.25362393748E+03  0.25362393748E+03  0.00000000000E+00 0.  1.
          2    1    1    2  502    0  0.10041358324E+02 -0.28383489249E+02 -0.33918911246E+02  0.45353543181E+02  0.00000000000E+00 0.  1.
         -2    1    1    2    0  502 -0.10041358324E+02  0.28383489249E+02 -0.21292871097E+03  0.21504670957E+03  0.00000000000E+00 0.  1.
</event>
<event>
 4    1  0.5841374E+003  0.3899919E+02  0.7546771E-02  0.1354452E+00
          2   -1    0    0  501    0  0.00000000000E+00  0.00000000000E+00  0.45240388180E+03  0.45240388180E+03  0.00000000000E+00 0. -1.
         -2   -1    0    0    0  501 -0.00000000000E+00 -0.00000000000E+00 -0.62089009409E+01  0.62089009409E+01  0.00000000000E+00 0.  1.
          2    1    1    2  502    0  0.23343735449E+02 -0.31241103657E+02  0.37837287412E+03  0.38037740261E+03  0.00000000000E+00 0. -1.
         -2    1    1    2    0  502 -0.23343735449E+02  0.31241103657E+02  0.67822106734E+02  0.78235380132E+02  0.00000000000E+00 0.  1.
</event>
<event>
 4    1  0.5841374E+003  0.2340368E+02  0.7546771E-02  0.1487490E+00
          2   -1    0    0  501    0  0.00000000000E+00  0.00000000000E+00  0.35683074884E+03  0.35683074884E+03  0.00000000000E+00 0.  1.
         -2   -1    0    0    0  501 -0.00000000000E+00 -0.00000000000E+00 -0.55446235781E+01  0.55446235781E+01  0.00000000000E+00 0.  1.
          2    1    1    2  502    0  0.15185295560E+02 -0.17808393502E+02  0.32972258385E+03  0.33055213565E+03  0.00000000000E+00 0.  1.
         -2    1    1    2    0  502 -0.15185295560E+02  0.17808393502E+02  0.21563541414E+02  0.31823236773E+02  0.00000000000E+00 0.  1.
</event>
<event>
 4    1  0.5841374E+003  0.2002008E+02  0.7546771E-02  0.1533729E+00
          2   -1    0    0  501    0  0.00000000000E+00  0.00000000000E+00  0.53396433666E+03  0.53396433666E+03  0.00000000000E+00 0.  1.
         -2   -1    0    0    0  501 -0.00000000000E+00 -0.00000000000E+00 -0.23529894881E+03  0.23529894881E+03  0.00000000000E+00 0.  1.
          2    1    1    2  502    0 -0.14730745582E+02 -0.13557606666E+02  0.53335034691E+03  0.53372595601E+03  0.00000000000E+00 0.  1.
         -2    1    1    2    0  502  0.14730745582E+02  0.13557606666E+02 -0.23468495906E+03  0.23553732947E+03  0.00000000000E+00 0.  1.
</event>
<event>
 4    1  0.5841374E+003  0.2134640E+02  0.7546771E-02  0.1514376E+00
          2   -1    0    0  501    0  0.00000000000E+00  0.00000000000E+00  0.95586792517E+03  0.95586792517E+03  0.00000000000E+00 0.  1.
         -2   -1    0    0    0  501 -0.00000000000E+00 -0.00000000000E+00 -0.53550961080E+00  0.53550961080E+00  0.00000000000E+00 0. -1.
          2    1    1    2  502    0  0.18636730574E+02  0.10408708040E+02  0.63612845362E+03  0.63648651080E+03  0.00000000000E+00 0.  1.
         -2    1    1    2    0  502 -0.18636730574E+02 -0.10408708040E+02  0.31920396195E+03  0.31991692399E+03  0.00000000000E+00 0. -1.
</event>
<event>
 4    1  0.5841374E+003  0.2533955E+02  0.7546771E-02  0.1465040E+00
          2   -1    0    0  501    0  0.00000000000E+00  0.00000000000E+00  0.12792474177E+04  0.12792474177E+04  0.00000000000E+00 0.  1.
         -2   -1    0    0    0  501 -0.00000000000E+00 -0.00000000000E+00 -0.10596418999E+01  0.10596418999E+01  0.00000000000E+00 0.  1.
          2    1    1    2  502    0  0.23375446738E+01 -0.25231505913E+02  0.11035123035E+04  0.11038031966E+04  0.00000000000E+00 0.  1.
         -2    1    1    2    0  502 -0.23375446738E+01  0.25231505913E+02  0.17467547237E+03  0.17650386300E+03  0.00000000000E+00 0.  1.
</event>
<event>
 4    1  0.5841374E+003  0.2036127E+02  0.7546771E-02  0.1528583E+00
          2   -1    0    0  501    0  0.00000000000E+00  0.00000000000E+00  0.17250147752E+03  0.17250147752E+03  0.00000000000E+00 0.  1.
         -2   -1    0    0    0  501 -0.00000000000E+00 -0.00000000000E+00 -0.24542969016E+01  0.24542969016E+01  0.00000000000E+00 0. -1.
          2    1    1    2  502    0 -0.20017807737E+02  0.37240699179E+01  0.97627235279E+02  0.99727921825E+02  0.00000000000E+00 0.  1.
         -2    1    1    2    0  502  0.20017807737E+02 -0.37240699179E+01  0.72419945340E+02  0.75227852598E+02  0.00000000000E+00 0. -1.
</event>
<event>
 4    1  0.5841374E+003  0.2283805E+02  0.7546771E-02  0.1494542E+00
          2   -1    0    0  501    0  0.00000000000E+00  0.00000000000E+00  0.10058414326E+04  0.10058414326E+04  0.00000000000E+00 0. -1.
         -2   -1    0    0    0  501 -0.00000000000E+00 -0.00000000000E+00 -0.10598821748E+02  0.10598821748E+02  0.00000000000E+00 0. -1.
          2    1    1    2  502    0  0.11815329113E+02  0.19544171682E+02  0.99325319132E+03  0.99351571639E+03  0.00000000000E+00 0. -1.
         -2    1    1    2    0  502 -0.11815329113E+02 -0.19544171682E+02  0.19894194921E+01  0.22924537917E+02  0.00000000000E+00 0. -1.
</event>
<event>
 4    1  0.5841374E+003  0.3530791E+02  0.7546771E-02  0.1378411E+00
          2   -1    0    0  501    0  0.00000000000E+00  0.00000000000E+00  0.28636909962E+03  0.28636909962E+03  0.00000000000E+00 0. -1.
         -2   -1    0    0    0  501 -0.00000000000E+00 -0.00000000000E+00 -0.33673970934E+02  0.33673970934E+02  0.00000000000E+00 0. -1.
          2    1    1    2  502    0  0.31491133548E+02 -0.15967371662E+02  0.27566766501E+03  0.27791961065E+03  0.00000000000E+00 0. -1.
         -2    1    1    2    0  502 -0.31491133548E+02  0.15967371662E+02 -0.22972536320E+02  0.42123459911E+02  0.00000000000E+00 0. -1.
</event>
<event>
 4    1  0.5841374E+003  0.2295839E+02  0.7546771E-02  0.1493021E+00
          2   -1    0    0  501    0  0.00000000000E+00  0.00000000000E+00  0.34407713105E+03  0.34407713105E+03  0.00000000000E+00 0. -1.
         -2   -1    0    0    0  501 -0.00000000000E+00 -0.00000000000E+00 -0.16633553102E+01  0.16633553102E+01  0.00000000000E+00 0. -1.
          2    1    1    2  502    0 -0.18074497943E+02  0.14156273597E+02  0.21980696444E+03  0.22100269042E+03  0.00000000000E+00 0. -1.
         -2    1    1    2    0  502  0.18074497943E+02 -0.14156273597E+02  0.12260681130E+03  0.12473779593E+03  0.00000000000E+00 0. -1.
</event>
<event>
 4    1  0.5841374E+003  0.2700471E+02  0.7546771E-02  0.1447561E+00
          2   -1    0    0  501    0  0.00000000000E+00  0.00000000000E+00  0.27239665274E+02  0.27239665274E+02  0.00000000000E+00 0. -1.
         -2   -1    0    0    0  501 -0.00000000000E+00 -0.00000000000E+00 -0.40274631559E+02  0.40274631559E+02  0.00000000000E+00 0. -1.
          2    1    1    2  502    0 -0.20169105584E+02  0.17957211744E+02  0.13028735059E+02  0.29983365571E+02  0.00000000000E+00 0. -1.
         -2    1    1    2    0  502  0.20169105584E+02 -0.17957211744E+02 -0.26063701343E+02  0.37530931262E+02  0.00000000000E+00 0. -1.
</event>
<event>
 4    1  0.5841374E+003  0.2445604E+02  0.7546771E-02  0.1474982E+00
          2   -1    0    0  501    0  0.00000000000E+00  0.00000000000E+00  0.42757729040E+03  0.42757729040E+03  0.00000000000E+00 0.  1.
         -2   -1    0    0    0  501 -0.00000000000E+00 -0.00000000000E+00 -0.26558854244E+01  0.26558854244E+01  0.00000000000E+00 0.  1.
          2    1    1    2  502    0 -0.68693850573E+01 -0.23471455285E+02  0.36045691391E+03  0.36128559956E+03  0.00000000000E+00 0.  1.
         -2    1    1    2    0  502  0.68693850573E+01  0.23471455285E+02  0.64464491060E+02  0.68947576258E+02  0.00000000000E+00 0.  1.
</event>
<event>
 4    1  0.5841374E+003  0.2086995E+02  0.7546771E-02  0.1521130E+00
          2   -1    0    0  501    0  0.00000000000E+00  0.00000000000E+00  0.13552526089E+04  0.13552526089E+04  0.00000000000E+00 0. -1.
         -2   -1    0    0    0  501 -0.00000000000E+00 -0.00000000000E+00 -0.26245942050E+01  0.26245942050E+01  0.00000000000E+00 0. -1.
          2    1    1    2  502    0  0.38369584927E+01  0.20514202559E+02  0.13123274990E+04  0.13124934359E+04  0.00000000000E+00 0. -1.
         -2    1    1    2    0  502 -0.38369584927E+01 -0.20514202559E+02  0.40300515736E+02  0.45383767205E+02  0.00000000000E+00 0. -1.
</event>
<event>
 4    1  0.5841374E+003  0.2092805E+02  0.7546771E-02  0.1520295E+00
          2   -1    0    0  501    0  0.00000000000E+00  0.00000000000E+00  0.65335295821E+03  0.65335295821E+03  0.00000000000E+00 0. -1.
         -2   -1    0    0    0  501 -0.00000000000E+00 -0.00000000000E+00 -0.29852097167E+01  0.29852097167E+01  0.00000000000E+00 0.  1.
          2    1    1    2  502    0  0.78402613782E+01 -0.19403957027E+02  0.61416629082E+03  0.61452275469E+03  0.00000000000E+00 0. -1.
         -2    1    1    2    0  502 -0.78402613782E+01  0.19403957027E+02  0.36201457669E+02  0.41815413237E+02  0.00000000000E+00 0.  1.
</event>
<event>
 4    1  0.5841374E+003  0.2607794E+02  0.7546771E-02  0.1457097E+00
          2   -1    0    0  501    0  0.00000000000E+00  0.00000000000E+00  0.15623271357E+04  0.15623271357E+04  0.00000000000E+00 0.  1.
         -2   -1    0    0    0  501 -0.00000000000E+00 -0.00000000000E+00 -0.75013822763E+01  0.75013822763E+01  0.00000000000E+00 0.  1.
          2    1    1    2  502    0  0.25491054322E+01  0.25953051539E+02  0.15392135478E+04  0.15394344431E+04  0.00000000000E+00 0.  1.
         -2    1    1    2    0  502 -0.25491054322E+01 -0.25953051539E+02  0.15612205575E+02  0.30394074844E+02  0.00000000000E+00 0.  1.
</event>
<event>
 4    1  0.5841374E+003  0.2071076E+02  0.7546771E-02  0.1523435E+00
          2   -1    0    0  501    0  0.00000000000E+00  0.00000000000E+00  0.19542012099E+03  0.19542012099E+03  0.00000000000E+00 0. -1.
         -2   -1    0    0    0  501 -0.00000000000E+00 -0.00000000000E+00 -0.16673427159E+03  0.16673427159E+03  0.00000000000E+00 0. -1.
          2    1    1    2  502    0 -0.18573277010E+02 -0.91634545443E+01  0.19422429490E+03  0.19532540093E+03  0.00000000000E+00 0. -1.
         -2    1    1    2    0  502  0.18573277010E+02  0.91634545443E+01 -0.16553844550E+03  0.16682899165E+03  0.00000000000E+00 0. -1.
</event>
<event>
 4    1  0.5841374E+003  0.2045052E+02  0.7546771E-02  0.1527257E+00
          2   -1    0    0  501    0  0.00000000000E+00  0.00000000000E+00  0.10893157715E+04  0.10893157715E+04  0.00000000000E+00 0. -1.
         -2   -1    0    0    0  501 -0.00000000000E+00 -0.00000000000E+00 -0.70898431734E+01  0.70898431734E+01  0.00000000000E+00 0.  1.
          2    1    1    2  502    0 -0.11744166918E+01  0.20416768211E+02  0.10742659237E+04  0.10744605616E+04  0.00000000000E+00 0. -1.
         -2    1    1    2    0  502  0.11744166918E+01 -0.20416768211E+02  0.79600046053E+01  0.21945053020E+02  0.00000000000E+00 0.  1.
</event>
<event>
 4    1  0.5841374E+003  0.3294674E+02  0.7546771E-02  0.1395603E+00
          2   -1    0    0  501    0  0.00000000000E+00  0.00000000000E+00  0.10316574700E+04  0.10316574700E+04  0.00000000000E+00 0.  1.
         -2   -1    0    0    0  501 -0.00000000000E+00 -0.00000000000E+00 -0.78903967223E+02  0.78903967223E+02  0.00000000000E+00 0.  1.
          2    1    1    2  502    0  0.32760774897E+02  0.34956591870E+01  0.10279427304E+04  0.10284705854E+04  0.00000000000E+00 0.  1.
         -2    1    1    2    0  502 -0.32760774897E+02 -0.34956591870E+01 -0.75189227627E+02  0.82090851842E+02  0.00000000000E+00 0.  1.
</event>
<event>
 4    1  0.5841374E+003  0.2233477E+02  0.7546771E-02  0.1501025E+00
          2   -1    0    0  501    0  0.00000000000E+00  0.00000000000E+00  0.13015566451E+03  0.13015566451E+03  0.00000000000E+00 0. -1.
         -2   -1    0    0    0  501 -0.00000000000E+00 -0.00000000000E+00 -0.94190555172E+02  0.94190555172E+02  0.00000000000E+00 0.  1.
          2    1    1    2  502    0  0.22320689964E+02  0.79289632789E+00  0.12784977691E+03  0.12978600596E+03  0.00000000000E+00 0. -1.
         -2    1    1    2    0  502 -0.22320689964E+02 -0.79289632789E+00 -0.91884667574E+02  0.94560213727E+02  0.00000000000E+00 0.  1.
</event>
<event>
 4    1  0.5841374E+003  0.3287912E+02  0.7546771E-02  0.1396120E+00
          2   -1    0    0  501    0  0.00000000000E+00  0.00000000000E+00  0.92759723480E+03  0.92759723480E+03  0.00000000000E+00 0.  1.
         -2   -1    0    0    0  501 -0.00000000000E+00 -0.00000000000E+00 -0.22115470372E+02  0.22115470372E+02  0.00000000000E+00 0. -1.
          2    1    1    2  502    0  0.98235161415E+01 -0.31377304210E+02  0.91491618970E+03  0.91550678362E+03  0.00000000000E+00 0.  1.
         -2    1    1    2    0  502 -0.98235161415E+01  0.31377304210E+02 -0.94344252700E+01  0.34205921549E+02  0.00000000000E+00 0. -1.
</event>
<event>
 4    1  0.5841374E+003  0.2337078E+02  0.7546771E-02  0.1487894E+00
          2   -1    0    0  501    0  0.00000000000E+00  0.00000000000E+00  0.14042828077E+03  0.14042828077E+03  0.00000000000E+00 0. -1.
         -2   -1    0    0    0  501 -0.00000000000E+00 -0.00000000000E+00 -0.17395234249E+02  0.17395234249E+02  0.00000000000E+00 0. -1.
          2    1    1    2  502    0  0.19436301982E+02  0.12977802835E+02  0.13104872356E+03  0.13311634441E+03  0.00000000000E+00 0. -1.
         -2    1    1    2    0  502 -0.19436301982E+02 -0.12977802835E+02 -0.80156770418E+01  0.24707170611E+02  0.00000000000E+00 0. -1.
</event>
<event>
 4    1  0.5841374E+003  0.1197669E+03  0.7546771E-02  0.1133378E+00
          2   -1    0    0  501    0  0.00000000000E+00  0.00000000000E+00  0.45891888093E+03  0.45891888093E+03  0.00000000000E+00 0.  1.
         -2   -1    0    0    0  501 -0.00000000000E+00 -0.00000000000E+00 -0.16131666264E+03  0.16131666264E+03  0.00000000000E+00 0. -1.
          2    1    1    2  502    0  0.11976485162E+03  0.69920650147E+00  0.42725898909E+03  0.44372779080E+03  0.00000000000E+00 0.  1.
         -2    1    1    2    0  502 -0.11976485162E+03 -0.69920650147E+00 -0.12965677080E+03  0.17650775277E+03  0.00000000000E+00 0. -1.
</event>
<event>
 4    1  0.5841374E+003  0.2087411E+02  0.7546771E-02  0.1521070E+00
          2   -1    0    0  501    0  0.00000000000E+00  0.00000000000E+00  0.22434230000E+03  0.22434230000E+03  0.00000000000E+00 0.  1.
         -2   -1    0    0    0  501 -0.00000000000E+00 -0.00000000000E+00 -0.15385003309E+02  0.15385003309E+02  0.00000000000E+00 0.  1.
          2    1    1    2  502    0 -0.20450647219E+02 -0.41832590609E+01  0.21652116018E+03  0.21752503633E+03  0.00000000000E+00 0.  1.
         -2    1    1    2    0  502  0.20450647219E+02  0.41832590609E+01 -0.75638634840E+01  0.22202266975E+02  0.00000000000E+00 0.  1.
</event>
<event>
 4    1  0.5841374E+003  0.4637355E+02  0.7546771E-02  0.1314711E+00
          2   -1    0    0  501    0  0.00000000000E+00  0.00000000000E+00  0.10742511225E+04  0.10742511225E+04  0.00000000000E+00 0.  1.
         -2   -1    0    0    0  501 -0.00000000000E+00 -0.00000000000E+00 -0.23622697893E+03  0.23622697893E+03  0.00000000000E+00 0.  1.
          2    1    1    2  502    0  0.30893583231E+02  0.34584573916E+02  0.10714688594E+04  0.10724719218E+04  0.00000000000E+00 0.  1.
         -2    1    1    2    0  502 -0.30893583231E+02 -0.34584573916E+02 -0.23344471582E+03  0.23800617972E+03  0.00000000000E+00 0.  1.
</event>
<event>
 4    1  0.5841374E+003  0.2185872E+02  0.7546771E-02  0.1507349E+00
          2   -1    0    0  501    0  0.00000000000E+00  0.00000000000E+00  0.38398052159E+03  0.38398052159E+03  0.00000000000E+00 0.  1.
         -2   -1    0    0    0  501 -0.00000000000E+00 -0.00000000000E+00 -0.24747073530E+02  0.24747073530E+02  0.00000000000E+00 0. -1.
          2    1    1    2  502    0 -0.18504822851E+02 -0.11635079580E+02  0.37877630269E+03  0.37940649840E+03  0.00000000000E+00 0.  1.
         -2    1    1    2    0  502  0.18504822851E+02  0.11635079580E+02 -0.19542854635E+02  0.29321096720E+02  0.00000000000E+00 0. -1.
</event>
<event>
 4    1  0.5841374E+003  0.2482117E+02  0.7546771E-02  0.1470814E+00
          2   -1    0    0  501    0  0.00000000000E+00  0.00000000000E+00  0.12195418367E+04  0.12195418367E+04  0.00000000000E+00 0.  1.
         -2   -1    0    0    0  501 -0.00000000000E+00 -0.00000000000E+00 -0.60472151949E+01  0.60472151949E+01  0.00000000000E+00 0.  1.
          2    1    1    2  502    0  0.19082041854E+02 -0.15873442881E+02  0.11933873879E+04  0.11936454868E+04  0.00000000000E+00 0.  1.
         -2    1    1    2    0  502 -0.19082041854E+02  0.15873442881E+02  0.20107233655E+02  0.31943565165E+02  0.00000000000E+00 0.  1.
</event>
<event>
 4    1  0.5841374E+003  0.2618782E+02  0.7546771E-02  0.1455942E+00
          2   -1    0    0  501    0  0.00000000000E+00  0.00000000000E+00  0.10243264334E+04  0.10243264334E+04  0.00000000000E+00 0.  1.
         -2   -1    0    0    0  501 -0.00000000000E+00 -0.00000000000E+00 -0.16969692732E+01  0.16969692732E+01  0.00000000000E+00 0. -1.
          2    1    1    2  502    0  0.13629051179E+02 -0.22361820294E+02  0.91049724347E+03  0.91087377414E+03  0.00000000000E+00 0.  1.
         -2    1    1    2    0  502 -0.13629051179E+02  0.22361820294E+02  0.11213222068E+03  0.11514962856E+03  0.00000000000E+00 0. -1.
</event>
<event>
 4    1  0.5841374E+003  0.2513314E+02  0.7546771E-02  0.1467319E+00
          2   -1    0    0  501    0  0.00000000000E+00  0.00000000000E+00  0.95694849333E+02  0.95694849333E+02  0.00000000000E+00 0.  1.
         -2   -1    0    0    0  501 -0.00000000000E+00 -0.00000000000E+00 -0.88878851588E+02  0.88878851588E+02  0.00000000000E+00 0.  1.
          2    1    1    2  502    0 -0.22952541996E+02  0.10239910165E+02  0.92201721800E+02  0.95565853981E+02  0.00000000000E+00 0.  1.
         -2    1    1    2    0  502  0.22952541996E+02 -0.10239910165E+02 -0.85385724056E+02  0.89007846939E+02  0.00000000000E+00 0.  1.
</event>
<event>
 4    1  0.5841374E+003  0.5289631E+02  0.7546771E-02  0.1286081E+00
          2   -1    0    0  501    0  0.00000000000E+00  0.00000000000E+00  0.17751285924E+04  0.17751285924E+04  0.00000000000E+00 0.  1.
         -2   -1    0    0    0  501 -0.00000000000E+00 -0.00000000000E+00 -0.20610803065E+01  0.20610803065E+01  0.00000000000E+00 0.  1.
          2    1    1    2  502    0 -0.48203199289E+02 -0.21782369599E+02  0.13175145017E+04  0.13185759297E+04  0.00000000000E+00 0.  1.
         -2    1    1    2    0  502  0.48203199289E+02  0.21782369599E+02  0.45555301039E+03  0.45861374306E+03  0.00000000000E+00 0.  1.
</event>
<event>
 4    1  0.5841374E+003  0.2301795E+02  0.7546771E-02  0.1492273E+00
          2   -1    0    0  501    0  0.00000000000E+00  0.00000000000E+00  0.59383773914E+03  0.59383773914E+03  0.00000000000E+00 0.  1.
         -2   -1    0    0    0  501 -0.00000000000E+00 -0.00000000000E+00 -0.18625761432E+01  0.18625761432E+01  0.00000000000E+00 0. -1.
          2    1    1    2  502    0  0.80394748875E+01  0.21568328241E+02  0.51097319509E+03  0.51149138022E+03  0.00000000000E+00 0.  1.
         -2    1    1    2    0  502 -0.80394748875E+01 -0.21568328241E+02  0.81001967904E+02  0.84208935060E+02  0.00000000000E+00 0. -1.
</event>
<event>
 4    1  0.5841374E+003  0.4529223E+02  0.7546771E-02  0.1319985E+00
          2   -1    0    0  501    0  0.00000000000E+00  0.00000000000E+00  0.17405103078E+04  0.17405103078E+04  0.00000000000E+00 0. -1.
         -2   -1    0    0    0  501 -0.00000000000E+00 -0.00000000000E+00 -0.38925045761E+01  0.38925045761E+01  0.00000000000E+00 0. -1.
          2    1    1    2  502    0  0.18232481769E+01 -0.45255515826E+02  0.15965891992E+04  0.15972314976E+04  0.00000000000E+00 0. -1.
         -2    1    1    2    0  502 -0.18232481769E+01  0.45255515826E+02  0.14002860407E+03  0.14717131481E+03  0.00000000000E+00 0. -1.
</event>
<event>
 4    1  0.5841374E+003  0.2799140E+02  0.7546771E-02  0.1437896E+00
          2   -1    0    0  501    0  0.00000000000E+00  0.00000000000E+00  0.58422656689E+03  0.58422656689E+03  0.00000000000E+00 0.  1.
         -2   -1    0    0    0  501 -0.00000000000E+00 -0.00000000000E+00 -0.29977596628E+01  0.29977596628E+01  0.00000000000E+00 0.  1.
          2    1    1    2  502    0  0.19428505610E+02 -0.20150728666E+02  0.50888211435E+03  0.50965137594E+03  0.00000000000E+00 0.  1.
         -2    1    1    2    0  502 -0.19428505610E+02  0.20150728666E+02  0.72346692883E+02  0.77572950615E+02  0.00000000000E+00 0.  1.
</event>
<event>
 4    1  0.5841374E+003  0.3174432E+02  0.7546771E-02  0.1405020E+00
          2   -1    0    0  501    0  0.00000000000E+00  0.00000000000E+00  0.28395943566E+03  0.28395943566E+03  0.00000000000E+00 0. -1.
         -2   -1    0    0    0  501 -0.00000000000E+00 -0.00000000000E+00 -0.13144518777E+03  0.13144518777E+03  0.00000000000E+00 0.  1.
          2    1    1    2  502    0 -0.30170305683E+02  0.98718961249E+01  0.28113648221E+03  0.28292299890E+03  0.00000000000E+00 0. -1.
         -2    1    1    2    0  502  0.30170305683E+02 -0.98718961249E+01 -0.12862223431E+03  0.13248162453E+03  0.00000000000E+00 0.  1.
</event>
<event>
 4    1  0.5841374E+003  0.2645039E+02  0.7546771E-02  0.1453209E+00
          2   -1    0    0  501    0  0.00000000000E+00  0.00000000000E+00  0.29081381594E+03  0.29081381594E+03  0.00000000000E+00 0. -1.
         -2   -1    0    0    0  501 -0.00000000000E+00 -0.00000000000E+00 -0.73921538583E+02  0.73921538583E+02  0.00000000000E+00 0.  1.
          2    1    1    2  502    0  0.22144040991E+02 -0.14465984021E+02  0.28782173410E+03  0.28903455480E+03  0.00000000000E+00 0. -1.
         -2    1    1    2    0  502 -0.22144040991E+02  0.14465984021E+02 -0.70929456745E+02  0.75700799727E+02  0.00000000000E+00 0.  1.
</event>
<event>
 4    1  0.5841374E+003  0.8395836E+02  0.7546771E-02  0.1194945E+00
          2   -1    0    0  501    0  0.00000000000E+00  0.00000000000E+00  0.14554460164E+04  0.14554460164E+04  0.00000000000E+00 0. -1.
         -2   -1    0    0    0  501 -0.00000000000E+00 -0.00000000000E+00 -0.13312352336E+03  0.13312352336E+03  0.00000000000E+00 0. -1.
          2    1    1    2  502    0 -0.76383826769E+02 -0.34849918023E+02  0.14408636420E+04  0.14433076736E+04  0.00000000000E+00 0. -1.
         -2    1    1    2    0  502  0.76383826769E+02  0.34849918023E+02 -0.11854114894E+03  0.14526186620E+03  0.00000000000E+00 0. -1.
</event>
<event>
 4    1  0.5841374E+003  0.2698218E+02  0.7546771E-02  0.1447787E+00
          2   -1    0    0  501    0  0.00000000000E+00  0.00000000000E+00  0.13816899350E+04  0.13816899350E+04  0.00000000000E+00 0. -1.
         -2   -1    0    0    0  501 -0.00000000000E+00 -0.00000000000E+00 -0.30910276711E+01  0.30910276711E+01  0.00000000000E+00 0.  1.
          2    1    1    2  502    0  0.26831933762E+02  0.28434586968E+01  0.13199196887E+04  0.13201954487E+04  0.00000000000E+00 0. -1.
         -2    1    1    2    0  502 -0.26831933762E+02 -0.28434586968E+01  0.58679218611E+02  0.64585514038E+02  0.00000000000E+00 0.  1.
</event>
<event>
 4    1  0.5841374E+003  0.2461035E+02  0.7546771E-02  0.1473210E+00
          2   -1    0    0  501    0  0.00000000000E+00  0.00000000000E+00  0.25069087944E+03  0.25069087944E+03  0.00000000000E+00 0. -1.
         -2   -1    0    0    0  501 -0.00000000000E+00 -0.00000000000E+00 -0.47863494286E+02  0.47863494286E+02  0.00000000000E+00 0. -1.
          2    1    1    2  502    0  0.16164600443E+02 -0.18557348472E+02  0.24687457145E+03  0.24809821345E+03  0.00000000000E+00 0. -1.
         -2    1    1    2    0  502 -0.16164600443E+02  0.18557348472E+02 -0.44047186291E+02  0.50456160277E+02  0.00000000000E+00 0. -1.
</event>
<event>
 4    1  0.5841374E+003  0.2684873E+02  0.7546771E-02  0.1449134E+00
          2   -1    0    0  501    0  0.00000000000E+00  0.00000000000E+00  0.18376289727E+04  0.18376289727E+04  0.00000000000E+00 0.  1.
         -2   -1    0    0    0  501 -0.00000000000E+00 -0.00000000000E+00 -0.74592237701E+00  0.74592237701E+00  0.00000000000E+00 0.  1.
          2    1    1    2  502    0  0.26498034958E+02 -0.43253249622E+01  0.15513530830E+04  0.15515853964E+04  0.00000000000E+00 0.  1.
         -2    1    1    2    0  502 -0.26498034958E+02  0.43253249622E+01  0.28552996733E+03  0.28678949865E+03  0.00000000000E+00 0.  1.
</event>
<event>
 4    1  0.5841374E+003  0.2362038E+02  0.7546771E-02  0.1484852E+00
          2   -1    0    0  501    0  0.00000000000E+00  0.00000000000E+00  0.32409232298E+03  0.32409232298E+03  0.00000000000E+00 0.  1.
         -2   -1    0    0    0  501 -0.00000000000E+00 -0.00000000000E+00 -0.44987460311E+01  0.44987460311E+01  0.00000000000E+00 0. -1.
          2    1    1    2  502    0  0.20789520659E+02 -0.11212411434E+02  0.28888536884E+03  0.28984940688E+03  0.00000000000E+00 0.  1.
         -2    1    1    2    0  502 -0.20789520659E+02  0.11212411434E+02  0.30708208113E+02  0.38741662135E+02  0.00000000000E+00 0. -1.
</event>
<event>
 4    1  0.5841374E+003  0.2626445E+02  0.7546771E-02  0.1455140E+00
          2   -1    0    0  501    0  0.00000000000E+00  0.00000000000E+00  0.28136896179E+03  0.28136896179E+03  0.00000000000E+00 0.  1.
         -2   -1    0    0    0  501 -0.00000000000E+00 -0.00000000000E+00 -0.63338867039E+01  0.63338867039E+01  0.00000000000E+00 0.  1.
          2    1    1    2  502    0 -0.15432285173E+02 -0.21252427002E+02  0.25013855771E+03  0.25151365595E+03  0.00000000000E+00 0.  1.
         -2    1    1    2    0  502  0.15432285173E+02  0.21252427002E+02  0.24896517379E+02  0.36189192541E+02  0.00000000000E+00 0.  1.
</event>
<event>
 4    1  0.5841374E+003  0.2345385E+02  0.7546771E-02  0.1486876E+00
          2   -1    0    0  501    0  0.00000000000E+00  0.00000000000E+00  0.93195026738E+03  0.93195026738E+03  0.00000000000E+00 0.  1.
         -2   -1    0    0    0  501 -0.00000000000E+00 -0.00000000000E+00 -0.17931416506E+02  0.17931416506E+02  0.00000000000E+00 0. -1.
          2    1    1    2  502    0 -0.20625519892E+02 -0.11165612971E+02  0.92406803451E+03  0.92436562863E+03  0.00000000000E+00 0.  1.
         -2    1    1    2    0  502  0.20625519892E+02  0.11165612971E+02 -0.10049183641E+02  0.25516055254E+02  0.00000000000E+00 0. -1.
</event>
<event>
 4    1  0.5841374E+003  0.2445783E+02  0.7546771E-02  0.1474961E+00
          2   -1    0    0  501    0  0.00000000000E+00  0.00000000000E+00  0.17449638756E+04  0.17449638756E+04  0.00000000000E+00 0. -1.
         -2   -1    0    0    0  501 -0.00000000000E+00 -0.00000000000E+00 -0.69867291526E+00  0.69867291526E+00  0.00000000000E+00 0.  1.
          2    1    1    2  502    0  0.21147167574E+02  0.12287497145E+02  0.14950589967E+04  0.14952590374E+04  0.00000000000E+00 0. -1.
         -2    1    1    2    0  502 -0.21147167574E+02 -0.12287497145E+02  0.24920620592E+03  0.25040351106E+03  0.00000000000E+00 0.  1.
</event>
<event>
 4    1  0.5841374E+003  0.2244993E+02  0.7546771E-02  0.1499523E+00
          2   -1    0    0  501    0  0.00000000000E+00  0.00000000000E+00  0.14403677166E+03  0.14403677166E+03  0.00000000000E+00 0. -1.
         -2   -1    0    0    0  501 -0.00000000000E+00 -0.00000000000E+00 -0.30849033812E+03  0.30849033812E+03  0.00000000000E+00 0. -1.
          2    1    1    2  502    0 -0.22156988792E+02 -0.36148296406E+01  0.14274989700E+03  0.14450443674E+03  0.00000000000E+00 0. -1.
         -2    1    1    2    0  502  0.22156988792E+02  0.36148296406E+01 -0.30720346346E+03  0.30802267304E+03  0.00000000000E+00 0. -1.
</event>
<event>
 4    1  0.5841374E+003  0.2009174E+02  0.7546771E-02  0.1532638E+00
          2   -1    0    0  501    0  0.00000000000E+00  0.00000000000E+00  0.50903584239E+02  0.50903584239E+02  0.00000000000E+00 0. -1.
         -2   -1    0    0    0  501 -0.00000000000E+00 -0.00000000000E+00 -0.11035181584E+02  0.11035181584E+02  0.00000000000E+00 0.  1.
          2    1    1    2  502    0  0.58064633832E+00  0.20083343855E+02  0.36361616654E+02  0.41543290869E+02  0.00000000000E+00 0. -1.
         -2    1    1    2    0  502 -0.58064633832E+00 -0.20083343855E+02  0.35067860016E+01  0.20395474954E+02  0.00000000000E+00 0.  1.
</event>
<event>
 4    1  0.5841374E+003  0.2447832E+02  0.7546771E-02  0.1474725E+00
          2   -1    0    0  501    0  0.00000000000E+00  0.00000000000E+00  0.11972078376E+01  0.11972078376E+01  0.00000000000E+00 0.  1.
         -2   -1    0    0    0  501 -0.00000000000E+00 -0.00000000000E+00 -0.79907894510E+03  0.79907894510E+03  0.00000000000E+00 0. -1.
          2    1    1    2  502    0 -0.24459771585E+02 -0.95273812176E+00 -0.15434260747E+03  0.15627165008E+03  0.00000000000E+00 0.  1.
         -2    1    1    2    0  502  0.24459771585E+02  0.95273812176E+00 -0.64353912979E+03  0.64400450286E+03  0.00000000000E+00 0. -1.
</event>
<event>
 4    1  0.5841374E+003  0.2278962E+02  0.7546771E-02  0.1495157E+00
          2   -1    0    0  501    0  0.00000000000E+00  0.00000000000E+00  0.71380676418E+02  0.71380676418E+02  0.00000000000E+00 0.  1.
         -2   -1    0    0    0  501 -0.00000000000E+00 -0.00000000000E+00 -0.36683130860E+02  0.36683130860E+02  0.00000000000E+00 0. -1.
          2    1    1    2  502    0  0.19770655583E+02 -0.11335262713E+02  0.65726256339E+02  0.69565133331E+02  0.00000000000E+00 0.  1.
         -2    1    1    2    0  502 -0.19770655583E+02  0.11335262713E+02 -0.31028710781E+02  0.38498673947E+02  0.00000000000E+00 0. -1.
</event>
<event>
 4    1  0.5841374E+003  0.2650561E+02  0.7546771E-02  0.1452639E+00
          2   -1    0    0  501    0  0.00000000000E+00  0.00000000000E+00  0.43558625226E+01  0.43558625226E+01  0.00000000000E+00 0. -1.
         -2   -1    0    0    0  501 -0.00000000000E+00 -0.00000000000E+00 -0.44468890379E+03  0.44468890379E+03  0.00000000000E+00 0.  1.
          2    1    1    2  502    0  0.22614511203E+02 -0.13825014074E+02 -0.40927596838E+02  0.48760796898E+02  0.00000000000E+00 0. -1.
         -2    1    1    2    0  502 -0.22614511203E+02  0.13825014074E+02 -0.39940544443E+03  0.40028396942E+03  0.00000000000E+00 0.  1.
</event>
<event>
 4    1  0.5841374E+003  0.2261902E+02  0.7546771E-02  0.1497338E+00
          2   -1    0    0  501    0  0.00000000000E+00  0.00000000000E+00  0.87180055490E+02  0.87180055490E+02  0.00000000000E+00 0.  1.
         -2   -1    0    0    0  501 -0.00000000000E+00 -0.00000000000E+00 -0.10641064601E+02  0.10641064601E+02  0.00000000000E+00 0.  1.
          2    1    1    2  502    0 -0.92041146249E+01  0.20661660064E+02  0.71024980700E+02  0.74539706239E+02  0.00000000000E+00 0.  1.
         -2    1    1    2    0  502  0.92041146249E+01 -0.20661660064E+02  0.55140101879E+01  0.23281413853E+02  0.00000000000E+00 0.  1.
</event>
<event>
 4    1  0.5841374E+003  0.4912319E+02  0.7546771E-02  0.1302019E+00
          2   -1    0    0  501    0  0.00000000000E+00  0.00000000000E+00  0.14131307320E+03  0.14131307320E+03  0.00000000000E+00 0.  1.
         -2   -1    0    0    0  501 -0.00000000000E+00 -0.00000000000E+00 -0.32440097965E+02  0.32440097965E+02  0.00000000000E+00 0. -1.
          2    1    1    2  502    0 -0.53989951781E+01 -0.48825592053E+02  0.11422429737E+03  0.12433936503E+03  0.00000000000E+00 0.  1.
         -2    1    1    2    0  502  0.53989951781E+01  0.48825592053E+02 -0.53513221265E+01  0.49413806135E+02  0.00000000000E+00 0. -1.
</event>
<event>
 4    1  0.5841374E+003  0.2046948E+02  0.7546771E-02  0.1526976E+00
          2   -1    0    0  501    0  0.00000000000E+00  0.00000000000E+00  0.50610026837E+03  0.50610026837E+03  0.00000000000E+00 0.  1.
         -2   -1    0    0    0  501 -0.00000000000E+00 -0.00000000000E+00 -0.44946277688E+01  0.44946277688E+01  0.00000000000E+00 0. -1.
          2    1    1    2  502    0 -0.16634354958E+02  0.11928862737E+02  0.48139206417E+03  0.48182706335E+03  0.00000000000E+00 0.  1.
         -2    1    1    2    0  502  0.16634354958E+02 -0.11928862737E+02  0.20213576422E+02  0.28767832780E+02  0.00000000000E+00 0. -1.
</event>
<event>
 4    1  0.5841374E+003  0.2817201E+02  0.7546771E-02  0.1436177E+00
          2   -1    0    0  501    0  0.00000000000E+00  0.00000000000E+00  0.24964220559E+02  0.24964220559E+02  0.00000000000E+00 0.  1.
         -2   -1    0    0    0  501 -0.00000000000E+00 -0.00000000000E+00 -0.15328159763E+03  0.15328159763E+03  0.00000000000E+00 0.  1.
          2    1    1    2  502    0 -0.20406230343E+02 -0.19422844584E+02 -0.14350267008E+03  0.14624184575E+03  0.00000000000E+00 0.  1.
         -2    1    1    2    0  502  0.20406230343E+02  0.19422844584E+02  0.15185293004E+02  0.32003972443E+02  0.00000000000E+00 0.  1.
</event>
<event>
 4    1  0.5841374E+003  0.3460815E+02  0.7546771E-02  0.1383339E+00
          2   -1    0    0  501    0  0.00000000000E+00  0.00000000000E+00  0.62221150305E+02  0.62221150305E+02  0.00000000000E+00 0. -1.
         -2   -1    0    0    0  501 -0.00000000000E+00 -0.00000000000E+00 -0.28419320425E+02  0.28419320425E+02  0.00000000000E+00 0.  1.
          2    1    1    2  502    0 -0.13941144349E+02 -0.31675996559E+02  0.42644344353E+02  0.54920527757E+02  0.00000000000E+00 0. -1.
         -2    1    1    2    0  502  0.13941144349E+02  0.31675996559E+02 -0.88425144730E+01  0.35719942973E+02  0.00000000000E+00 0.  1.
</event>
<event>
 4    1  0.5841374E+003  0.3083326E+02  0.7546771E-02  0.1412491E+00
          2   -1    0    0  501    0  0.00000000000E+00  0.00000000000E+00  0.88216866659E+02  0.88216866659E+02  0.00000000000E+00 0. -1.
         -2   -1    0    0    0  501 -0.00000000000E+00 -0.00000000000E+00 -0.20813570318E+02  0.20813570318E+02  0.00000000000E+00 0.  1.
          2    1    1    2  502    0 -0.26123579799E+02  0.16378302166E+02  0.71558349058E+02  0.77918467151E+02  0.00000000000E+00 0. -1.
         -2    1    1    2    0  502  0.26123579799E+02 -0.16378302166E+02 -0.41550527171E+01  0.31111969825E+02  0.00000000000E+00 0.  1.
</event>
<event>
 4    1  0.6617185E+003  0.2800753E+02  0.7546771E-02  0.1437742E+00
          2   -1    0    0  501    0  0.00000000000E+00  0.00000000000E+00  0.99433057937E+03  0.99433057937E+03  0.00000000000E+00 0. -1.
         -2   -1    0    0    0  501 -0.00000000000E+00 -0.00000000000E+00 -0.10036502617E+03  0.10036502617E+03  0.00000000000E+00 0. -1.
          2    1    1    2  502    0 -0.59992531482E+01 -0.27357460105E+02  0.99217519016E+03  0.99257041545E+03  0.00000000000E+00 0. -1.
         -2    1    1    2    0  502  0.59992531482E+01  0.27357460105E+02 -0.98209636954E+02  0.10212519010E+03  0.00000000000E+00 0. -1.
</event>
<event>
 4    1  0.5841374E+003  0.2168002E+02  0.7546771E-02  0.1509773E+00
          2   -1    0    0  501    0  0.00000000000E+00  0.00000000000E+00  0.14941322021E+03  0.14941322021E+03  0.00000000000E+00 0.  1.
         -2   -1    0    0    0  501 -0.00000000000E+00 -0.00000000000E+00 -0.54712904849E+01  0.54712904849E+01  0.00000000000E+00 0. -1.
          2    1    1    2  502    0 -0.21498933125E+02 -0.27962434756E+01  0.12245929621E+03  0.12436358925E+03  0.00000000000E+00 0.  1.
         -2    1    1    2    0  502  0.21498933125E+02  0.27962434756E+01  0.21482633518E+02  0.30520921447E+02  0.00000000000E+00 0. -1.
</event>
<event>
 4    1  0.5841374E+003  0.2197582E+02  0.7546771E-02  0.1505775E+00
          2   -1    0    0  501    0  0.00000000000E+00  0.00000000000E+00  0.77881395890E+03  0.77881395890E+03  0.00000000000E+00 0.  1.
         -2   -1    0    0    0  501 -0.00000000000E+00 -0.00000000000E+00 -0.10216793402E+02  0.10216793402E+02  0.00000000000E+00 0. -1.
          2    1    1    2  502    0 -0.10739656454E+01  0.21949565117E+02  0.76665431462E+03  0.76696921381E+03  0.00000000000E+00 0.  1.
         -2    1    1    2    0  502  0.10739656454E+01 -0.21949565117E+02  0.19428508792E+01  0.22061538490E+02  0.00000000000E+00 0. -1.
</event>
<event>
 4    1  0.5841374E+003  0.2256597E+02  0.7546771E-02  0.1498021E+00
          2   -1    0    0  501    0  0.00000000000E+00  0.00000000000E+00  0.17781055955E+03  0.17781055955E+03  0.00000000000E+00 0. -1.
         -2   -1    0    0    0  501 -0.00000000000E+00 -0.00000000000E+00 -0.41695891581E+01  0.41695891581E+01  0.00000000000E+00 0.  1.
          2    1    1    2  502    0  0.11378339168E+02 -0.19487344364E+02  0.13773893901E+03  0.13957520737E+03  0.00000000000E+00 0. -1.
         -2    1    1    2    0  502 -0.11378339168E+02  0.19487344364E+02  0.35902031381E+02  0.42404941338E+02  0.00000000000E+00 0.  1.
</event>
<event>
 4    1  0.5841374E+003  0.6427910E+02  0.7546771E-02  0.1245948E+00
          2   -1    0    0  501    0  0.00000000000E+00  0.00000000000E+00  0.10408461310E+04  0.10408461310E+04  0.00000000000E+00 0.  1.
         -2   -1    0    0    0  501 -0.00000000000E+00 -0.00000000000E+00 -0.16915543097E+03  0.16915543097E+03  0.00000000000E+00 0.  1.
          2    1    1    2  502    0  0.53700320246E+01  0.64054398780E+02  0.10337050532E+04  0.10357016656E+04  0.00000000000E+00 0.  1.
         -2    1    1    2    0  502 -0.53700320246E+01 -0.64054398780E+02 -0.16201435313E+03  0.17429989635E+03  0.00000000000E+00 0.  1.
</event>
<event>
 4    1  0.5841374E+003  0.2907402E+02  0.7546771E-02  0.1427817E+00
          2   -1    0    0  501    0  0.00000000000E+00  0.00000000000E+00  0.83221125565E+03  0.83221125565E+03  0.00000000000E+00 0. -1.
         -2   -1    0    0    0  501 -0.00000000000E+00 -0.00000000000E+00 -0.24288781937E+02  0.24288781937E+02  0.00000000000E+00 0.  1.
          2    1    1    2  502    0  0.18572764005E+02 -0.22368527152E+02  0.82316119431E+03  0.82367448084E+03  0.00000000000E+00 0. -1.
         -2    1    1    2    0  502 -0.18572764005E+02  0.22368527152E+02 -0.15238720602E+02  0.32825556740E+02  0.00000000000E+00 0.  1.
</event>
<event>
 4    1  0.5841374E+003  0.2088949E+02  0.7546771E-02  0.1520848E+00
          2   -1    0    0  501    0  0.00000000000E+00  0.00000000000E+00  0.29460637744E+03  0.29460637744E+03  0.00000000000E+00 0.  1.
         -2   -1    0    0    0  501 -0.00000000000E+00 -0.00000000000E+00 -0.61150700758E+01  0.61150700758E+01  0.00000000000E+00 0. -1.
          2    1    1    2  502    0  0.98416593278E+01  0.18425869567E+02  0.27513539850E+03  0.27592727019E+03  0.00000000000E+00 0.  1.
         -2    1    1    2    0  502 -0.98416593278E+01 -0.18425869567E+02  0.13355908865E+02  0.24794177325E+02  0.00000000000E+00 0. -1.
</event>
<event>
 4    1  0.5841374E+003  0.2003303E+02  0.7546771E-02  0.1533531E+00
          2   -1    0    0  501    0  0.00000000000E+00  0.00000000000E+00  0.10544017105E+04  0.10544017105E+04  0.00000000000E+00 0. -1.
         -2   -1    0    0    0  501 -0.00000000000E+00 -0.00000000000E+00 -0.40869879590E+00  0.40869879590E+00  0.00000000000E+00 0.  1.
          2    1    1    2  502    0  0.17563057308E+02 -0.96364661450E+01  0.66524509292E+03  0.66554665961E+03  0.00000000000E+00 0. -1.
         -2    1    1    2    0  502 -0.17563057308E+02  0.96364661450E+01  0.38874791876E+03  0.38926374966E+03  0.00000000000E+00 0.  1.
</event>
<event>
 4    1  0.5841374E+003  0.2621709E+02  0.7546771E-02  0.1455635E+00
          2   -1    0    0  501    0  0.00000000000E+00  0.00000000000E+00  0.27986293105E+03  0.27986293105E+03  0.00000000000E+00 0.  1.
         -2   -1    0    0    0  501 -0.00000000000E+00 -0.00000000000E+00 -0.15206420980E+02  0.15206420980E+02  0.00000000000E+00 0.  1.
          2    1    1    2  502    0 -0.21093432687E+02  0.15569291330E+02  0.26742451576E+03  0.26870654507E+03  0.00000000000E+00 0.  1.
         -2    1    1    2    0  502  0.21093432687E+02 -0.15569291330E+02 -0.27680056927E+01  0.26362806955E+02  0.00000000000E+00 0.  1.
</event>
<event>
 4    1  0.5841374E+003  0.7847350E+02  0.7546771E-02  0.1207436E+00
          2   -1    0    0  501    0  0.00000000000E+00  0.00000000000E+00  0.30381999088E+02  0.30381999088E+02  0.00000000000E+00 0.  1.
         -2   -1    0    0    0  501 -0.00000000000E+00 -0.00000000000E+00 -0.20353595772E+03  0.20353595772E+03  0.00000000000E+00 0. -1.
          2    1    1    2  502    0 -0.32092325885E+02  0.71611223774E+02 -0.94123509441E+02  0.12254517445E+03  0.00000000000E+00 0.  1.
         -2    1    1    2    0  502  0.32092325885E+02 -0.71611223774E+02 -0.79030449188E+02  0.11137278236E+03  0.00000000000E+00 0. -1.
</event>
<event>
 4    1  0.5841374E+003  0.2643569E+02  0.7546771E-02  0.1453361E+00
          2   -1    0    0  501    0  0.00000000000E+00  0.00000000000E+00  0.14462352440E+04  0.14462352440E+04  0.00000000000E+00 0. -1.
         -2   -1    0    0    0  501 -0.00000000000E+00 -0.00000000000E+00 -0.48686719240E+00  0.48686719240E+00  0.00000000000E+00 0. -1.
          2    1    1    2  502    0  0.25853865589E+02  0.55157288377E+01  0.78550680613E+03  0.78595151766E+03  0.00000000000E+00 0. -1.
         -2    1    1    2    0  502 -0.25853865589E+02 -0.55157288377E+01  0.66024157069E+03  0.66077059355E+03  0.00000000000E+00 0. -1.
</event>
<event>
 4    1  0.5841374E+003  0.3732153E+02  0.7546771E-02  0.1364939E+00
          2   -1    0    0  501    0  0.00000000000E+00  0.00000000000E+00  0.59511463700E+03  0.59511463700E+03  0.00000000000E+00 0. -1.
         -2   -1    0    0    0  501 -0.00000000000E+00 -0.00000000000E+00 -0.44331951160E+02  0.44331951160E+02  0.00000000000E+00 0.  1.
          2    1    1    2  502    0 -0.34929807722E+02 -0.13145522830E+02  0.58656013434E+03  0.58774627811E+03  0.00000000000E+00 0. -1.
         -2    1    1    2    0  502  0.34929807722E+02  0.13145522830E+02 -0.35777448499E+02  0.51700310048E+02  0.00000000000E+00 0.  1.
</event>
<event>
 4    1  0.5841374E+003  0.5003490E+02  0.7546771E-02  0.1298021E+00
          2   -1    0    0  501    0  0.00000000000E+00  0.00000000000E+00  0.33040972313E+03  0.33040972313E+03  0.00000000000E+00 0.  1.
         -2   -1    0    0    0  501 -0.00000000000E+00 -0.00000000000E+00 -0.23349898548E+03  0.23349898548E+03  0.00000000000E+00 0.  1.
          2    1    1    2  502    0 -0.19388889563E+02  0.46125506906E+02  0.32579735540E+03  0.32961706299E+03  0.00000000000E+00 0.  1.
         -2    1    1    2    0  502  0.19388889563E+02 -0.46125506906E+02 -0.22888661775E+03  0.23429164563E+03  0.00000000000E+00 0.  1.
</event>
<event>
 4    1  0.5841374E+003  0.2407562E+02  0.7546771E-02  0.1479416E+00
          2   -1    0    0  501    0  0.00000000000E+00  0.00000000000E+00  0.24298342044E+03  0.24298342044E+03  0.00000000000E+00 0.  1.
         -2   -1    0    0    0  501 -0.00000000000E+00 -0.00000000000E+00 -0.73637407657E+01  0.73637407657E+01  0.00000000000E+00 0. -1.
          2    1    1    2  502    0 -0.21987610432E+02  0.98071645006E+01  0.22073028136E+03  0.22203939425E+03  0.00000000000E+00 0.  1.
         -2    1    1    2    0  502  0.21987610432E+02 -0.98071645006E+01  0.14889398314E+02  0.28307766959E+02  0.00000000000E+00 0. -1.
</event>
<event>
 4    1  0.5841374E+003  0.2063281E+02  0.7546771E-02  0.1524573E+00
          2   -1    0    0  501    0  0.00000000000E+00  0.00000000000E+00  0.44923301575E+03  0.44923301575E+03  0.00000000000E+00 0.  1.
         -2   -1    0    0    0  501 -0.00000000000E+00 -0.00000000000E+00 -0.44952891159E+01  0.44952891159E+01  0.00000000000E+00 0.  1.
          2    1    1    2  502    0  0.10512502176E+02  0.17753872937E+02  0.42390697421E+03  0.42440880704E+03  0.00000000000E+00 0.  1.
         -2    1    1    2    0  502 -0.10512502176E+02 -0.17753872937E+02  0.20830752415E+02  0.29319497821E+02  0.00000000000E+00 0.  1.
</event>
<event>
 4    1  0.5841374E+003  0.2512865E+02  0.7546771E-02  0.1467369E+00
          2   -1    0    0  501    0  0.00000000000E+00  0.00000000000E+00  0.11357206180E+02  0.11357206180E+02  0.00000000000E+00 0. -1.
         -2   -1    0    0    0  501 -0.00000000000E+00 -0.00000000000E+00 -0.24309927011E+03  0.24309927011E+03  0.00000000000E+00 0. -1.
          2    1    1    2  502    0 -0.25070866307E+02  0.17031928269E+01 -0.41351541991E+01  0.25466619396E+02  0.00000000000E+00 0. -1.
         -2    1    1    2    0  502  0.25070866307E+02 -0.17031928269E+01 -0.22760690973E+03  0.22898985689E+03  0.00000000000E+00 0. -1.
</event>
<event>
 4    1  0.5841374E+003  0.2742920E+02  0.7546771E-02  0.1443344E+00
          2   -1    0    0  501    0  0.00000000000E+00  0.00000000000E+00  0.14477193208E+04  0.14477193208E+04  0.00000000000E+00 0.  1.
         -2   -1    0    0    0  501 -0.00000000000E+00 -0.00000000000E+00 -0.50518571058E+01  0.50518571058E+01  0.00000000000E+00 0. -1.
          2    1    1    2  502    0  0.10530537981E+02  0.25327229766E+02  0.14093438025E+04  0.14096106960E+04  0.00000000000E+00 0.  1.
         -2    1    1    2    0  502 -0.10530537981E+02 -0.25327229766E+02  0.33323661188E+02  0.43160481841E+02  0.00000000000E+00 0. -1.
</event>
<event>
 4    1  0.5841374E+003  0.2088589E+02  0.7546771E-02  0.1520900E+00
          2   -1    0    0  501    0  0.00000000000E+00  0.00000000000E+00  0.53602522318E+03  0.53602522318E+03  0.00000000000E+00 0. -1.
         -2   -1    0    0    0  501 -0.00000000000E+00 -0.00000000000E+00 -0.17728443200E+02  0.17728443200E+02  0.00000000000E+00 0.  1.
          2    1    1    2  502    0 -0.14559815710E+02  0.14974389199E+02  0.52959569738E+03  0.53000738037E+03  0.00000000000E+00 0. -1.
         -2    1    1    2    0  502  0.14559815710E+02 -0.14974389199E+02 -0.11298917391E+02  0.23746286017E+02  0.00000000000E+00 0.  1.
</event>
<event>
 4    1  0.5841374E+003  0.2240459E+02  0.7546771E-02  0.1500113E+00
          2   -1    0    0  501    0  0.00000000000E+00  0.00000000000E+00  0.39332141987E+03  0.39332141987E+03  0.00000000000E+00 0. -1.
         -2   -1    0    0    0  501 -0.00000000000E+00 -0.00000000000E+00 -0.53726936095E+01  0.53726936095E+01  0.00000000000E+00 0. -1.
          2    1    1    2  502    0  0.76255248909E+01  0.21066970133E+02  0.36804227111E+03  0.36872358100E+03  0.00000000000E+00 0. -1.
         -2    1    1    2    0  502 -0.76255248909E+01 -0.21066970133E+02  0.19906455145E+02  0.29970532476E+02  0.00000000000E+00 0. -1.
</event>
<event>
 4    1  0.5841374E+003  0.2427067E+02  0.7546771E-02  0.1477130E+00
          2   -1    0    0  501    0  0.00000000000E+00  0.00000000000E+00  0.11168192896E+04  0.11168192896E+04  0.00000000000E+00 0. -1.
         -2   -1    0    0    0  501 -0.00000000000E+00 -0.00000000000E+00 -0.12745055229E+01  0.12745055229E+01  0.00000000000E+00 0. -1.
          2    1    1    2  502    0  0.23945708631E+02 -0.39583243808E+01  0.98578256557E+03  0.98608130084E+03  0.00000000000E+00 0. -1.
         -2    1    1    2    0  502 -0.23945708631E+02  0.39583243808E+01  0.12976221852E+03  0.13201249429E+03  0.00000000000E+00 0. -1.
</event>
<event>
 4    1  0.5841374E+003  0.2271545E+02  0.7546771E-02  0.1496103E+00
          2   -1    0    0  501    0  0.00000000000E+00  0.00000000000E+00  0.15728455853E+03  0.15728455853E+03  0.00000000000E+00 0. -1.
         -2   -1    0    0    0  501 -0.00000000000E+00 -0.00000000000E+00 -0.67914303505E+03  0.67914303505E+03  0.00000000000E+00 0. -1.
          2    1    1    2  502    0  0.11138838131E+02 -0.19796912104E+02  0.15627323772E+03  0.15791553525E+03  0.00000000000E+00 0. -1.
         -2    1    1    2    0  502 -0.11138838131E+02  0.19796912104E+02 -0.67813171424E+03  0.67851205833E+03  0.00000000000E+00 0. -1.
</event>
<event>
 4    1  0.5841374E+003  0.2031852E+02  0.7546771E-02  0.1529221E+00
          2   -1    0    0  501    0  0.00000000000E+00  0.00000000000E+00  0.61770534348E+03  0.61770534348E+03  0.00000000000E+00 0. -1.
         -2   -1    0    0    0  501 -0.00000000000E+00 -0.00000000000E+00 -0.67238278997E+00  0.67238278997E+00  0.00000000000E+00 0. -1.
          2    1    1    2  502    0  0.15762489216E+02  0.12821310323E+02  0.33246792887E+03  0.33308822524E+03  0.00000000000E+00 0. -1.
         -2    1    1    2    0  502 -0.15762489216E+02 -0.12821310323E+02  0.28456503183E+03  0.28528950104E+03  0.00000000000E+00 0. -1.
</event>
<event>
 4    1  0.5841374E+003  0.2002691E+02  0.7546771E-02  0.1533625E+00
          2   -1    0    0  501    0  0.00000000000E+00  0.00000000000E+00  0.78193634503E+03  0.78193634503E+03  0.00000000000E+00 0.  1.
         -2   -1    0    0    0  501 -0.00000000000E+00 -0.00000000000E+00 -0.16129949269E+01  0.16129949269E+01  0.00000000000E+00 0.  1.
          2    1    1    2  502    0  0.19935184128E+02  0.19145469798E+01  0.71370273502E+03  0.71398366300E+03  0.00000000000E+00 0.  1.
         -2    1    1    2    0  502 -0.19935184128E+02 -0.19145469798E+01  0.66620615081E+02  0.69565676954E+02  0.00000000000E+00 0.  1.
</event>
<event>
 4    1  0.5841374E+003  0.2047552E+02  0.7546771E-02  0.1526886E+00
          2   -1    0    0  501    0  0.00000000000E+00  0.00000000000E+00  0.81727296887E+02  0.81727296887E+02  0.00000000000E+00 0. -1.
         -2   -1    0    0    0  501 -0.00000000000E+00 -0.00000000000E+00 -0.82499774272E+02  0.82499774272E+02  0.00000000000E+00 0.  1.
          2    1    1    2  502    0 -0.20365345230E+02 -0.21212427996E+01  0.79133422348E+02  0.81739497734E+02  0.00000000000E+00 0. -1.
         -2    1    1    2    0  502  0.20365345230E+02  0.21212427996E+01 -0.79905899733E+02  0.82487573425E+02  0.00000000000E+00 0.  1.
</event>
<event>
 4    1  0.5841374E+003  0.2153064E+02  0.7546771E-02  0.1511822E+00
          2   -1    0    0  501    0  0.00000000000E+00  0.00000000000E+00  0.91023227264E+03  0.91023227264E+03  0.00000000000E+00 0. -1.
         -2   -1    0    0    0  501 -0.00000000000E+00 -0.00000000000E+00 -0.17854364673E+02  0.17854364673E+02  0.00000000000E+00 0. -1.
          2    1    1    2  502    0  0.16672633273E+02 -0.13623209850E+02  0.90356610049E+03  0.90382258574E+03  0.00000000000E+00 0. -1.
         -2    1    1    2    0  502 -0.16672633273E+02  0.13623209850E+02 -0.11188192519E+02  0.24264051573E+02  0.00000000000E+00 0. -1.
</event>
<event>
 4    1  0.5841374E+003  0.2999852E+02  0.7546771E-02  0.1419609E+00
          2   -1    0    0  501    0  0.00000000000E+00  0.00000000000E+00  0.45115091478E+03  0.45115091478E+03  0.00000000000E+00 0. -1.
         -2   -1    0    0    0  501 -0.00000000000E+00 -0.00000000000E+00 -0.31346098888E+02  0.31346098888E+02  0.00000000000E+00 0.  1.
          2    1    1    2  502    0 -0.18186490644E+02  0.23857126932E+02  0.44334886281E+03  0.44436260542E+03  0.00000000000E+00 0. -1.
         -2    1    1    2    0  502  0.18186490644E+02 -0.23857126932E+02 -0.23544046911E+02  0.38134408247E+02  0.00000000000E+00 0.  1.
</event>
<event>
 4    1  0.5841374E+003  0.3739937E+02  0.7546771E-02  0.1364438E+00
          2   -1    0    0  501    0  0.00000000000E+00  0.00000000000E+00  0.71136622813E+03  0.71136622813E+03  0.00000000000E+00 0.  1.
         -2   -1    0    0    0  501 -0.00000000000E+00 -0.00000000000E+00 -0.20032102197E+01  0.20032102197E+01  0.00000000000E+00 0. -1.
          2    1    1    2  502    0 -0.25718101448E+01 -0.37310840290E+02  0.40314090358E+03  0.40487195649E+03  0.00000000000E+00 0.  1.
         -2    1    1    2    0  502  0.25718101448E+01  0.37310840290E+02  0.30622211433E+03  0.30849748186E+03  0.00000000000E+00 0. -1.
</event>
<event>
 4    1  0.5841374E+003  0.2900644E+02  0.7546771E-02  0.1428431E+00
          2   -1    0    0  501    0  0.00000000000E+00  0.00000000000E+00  0.56256699502E+03  0.56256699502E+03  0.00000000000E+00 0.  1.
         -2   -1    0    0    0  501 -0.00000000000E+00 -0.00000000000E+00 -0.24863040152E+02  0.24863040152E+02  0.00000000000E+00 0.  1.
          2    1    1    2  502    0 -0.26945955695E+02 -0.10737266281E+02  0.55359601296E+03  0.55435540855E+03  0.00000000000E+00 0.  1.
         -2    1    1    2    0  502  0.26945955695E+02  0.10737266281E+02 -0.15892058099E+02  0.33074626622E+02  0.00000000000E+00 0.  1.
</event>
<event>
 4    1  0.5841374E+003  0.2677552E+02  0.7546771E-02  0.1449876E+00
          2   -1    0    0  501    0  0.00000000000E+00  0.00000000000E+00  0.14714658071E+04  0.14714658071E+04  0.00000000000E+00 0.  1.
         -2   -1    0    0    0  501 -0.00000000000E+00 -0.00000000000E+00 -0.19742140871E+01  0.19742140871E+01  0.00000000000E+00 0.  1.
          2    1    1    2  502    0  0.99500188690E+01  0.24858112219E+02  0.13741269926E+04  0.13743878348E+04  0.00000000000E+00 0.  1.
         -2    1    1    2    0  502 -0.99500188690E+01 -0.24858112219E+02  0.95364600395E+02  0.99052186382E+02  0.00000000000E+00 0.  1.
</event>
<event>
 4    1  0.5841374E+003  0.2012088E+02  0.7546771E-02  0.1532196E+00
          2   -1    0    0  501    0  0.00000000000E+00  0.00000000000E+00  0.15563333968E+03  0.15563333968E+03  0.00000000000E+00 0. -1.
         -2   -1    0    0    0  501 -0.00000000000E+00 -0.00000000000E+00 -0.27556117957E+02  0.27556117957E+02  0.00000000000E+00 0.  1.
          2    1    1    2  502    0  0.88144644418E+01  0.18087426337E+02  0.15120290624E+03  0.15253579458E+03  0.00000000000E+00 0. -1.
         -2    1    1    2    0  502 -0.88144644418E+01 -0.18087426337E+02 -0.23125684508E+02  0.30653663058E+02  0.00000000000E+00 0.  1.
</event>
<event>
 4    1  0.5841374E+003  0.3152349E+02  0.7546771E-02  0.1406804E+00
          2   -1    0    0  501    0  0.00000000000E+00  0.00000000000E+00  0.25602173651E+03  0.25602173651E+03  0.00000000000E+00 0. -1.
         -2   -1    0    0    0  501 -0.00000000000E+00 -0.00000000000E+00 -0.84951032194E+01  0.84951032194E+01  0.00000000000E+00 0.  1.
          2    1    1    2  502    0 -0.15577297389E+02 -0.27405810830E+02  0.22123138877E+03  0.22346601092E+03  0.00000000000E+00 0. -1.
         -2    1    1    2    0  502  0.15577297389E+02  0.27405810830E+02  0.26295244519E+02  0.41050828804E+02  0.00000000000E+00 0.  1.
</event>
<event>
 4    1  0.5841374E+003  0.2311232E+02  0.7546771E-02  0.1491093E+00
          2   -1    0    0  501    0  0.00000000000E+00  0.00000000000E+00  0.22202027299E+02  0.22202027299E+02  0.00000000000E+00 0. -1.
         -2   -1    0    0    0  501 -0.00000000000E+00 -0.00000000000E+00 -0.27237755658E+02  0.27237755658E+02  0.00000000000E+00 0.  1.
          2    1    1    2  502    0  0.17497660107E+01 -0.23045991200E+02  0.59256923280E+01  0.23859866325E+02  0.00000000000E+00 0. -1.
         -2    1    1    2    0  502 -0.17497660107E+01  0.23045991200E+02 -0.10961420687E+02  0.25579916633E+02  0.00000000000E+00 0.  1.
</event>
<event>
 4    1  0.5841374E+003  0.3240495E+02  0.7546771E-02  0.1399787E+00
          2   -1    0    0  501    0  0.00000000000E+00  0.00000000000E+00  0.24430201065E+03  0.24430201065E+03  0.00000000000E+00 0.  1.
         -2   -1    0    0    0  501 -0.00000000000E+00 -0.00000000000E+00 -0.45859668930E+02  0.45859668930E+02  0.00000000000E+00 0.  1.
          2    1    1    2  502    0  0.23243426012E+02 -0.22579285331E+02  0.23733576623E+03  0.23953777763E+03  0.00000000000E+00 0.  1.
         -2    1    1    2    0  502 -0.23243426012E+02  0.22579285331E+02 -0.38893424510E+02  0.50623901953E+02  0.00000000000E+00 0.  1.
</event>
<event>
 4    1  0.5841374E+003  0.2017579E+02  0.7546771E-02  0.1531365E+00
          2   -1    0    0  501    0  0.00000000000E+00  0.00000000000E+00  0.60317256846E+01  0.60317256846E+01  0.00000000000E+00 0.  1.
         -2   -1    0    0    0  501 -0.00000000000E+00 -0.00000000000E+00 -0.11915451004E+03  0.11915451004E+03  0.00000000000E+00 0.  1.
          2    1    1    2  502    0  0.16767563406E+02  0.11221013020E+02 -0.15343988177E+02  0.25347589411E+02  0.00000000000E+00 0.  1.
         -2    1    1    2    0  502 -0.16767563406E+02 -0.11221013020E+02 -0.97778796176E+02  0.99838646312E+02  0.00000000000E+00 0.  1.
</event>
<event>
 4    1  0.5841374E+003  0.3436542E+02  0.7546771E-02  0.1385080E+00
          2   -1    0    0  501    0  0.00000000000E+00  0.00000000000E+00  0.17502614169E+04  0.17502614169E+04  0.00000000000E+00 0.  1.
         -2   -1    0    0    0  501 -0.00000000000E+00 -0.00000000000E+00 -0.16984892456E+01  0.16984892456E+01  0.00000000000E+00 0. -1.
          2    1    1    2  502    0 -0.32543385154E+02 -0.11041285497E+02  0.15543587809E+04  0.15547386281E+04  0.00000000000E+00 0.  1.
         -2    1    1    2    0  502  0.32543385154E+02  0.11041285497E+02  0.19420414675E+03  0.19722127805E+03  0.00000000000E+00 0. -1.
</event>
<event>
 4    1  0.5841374E+003  0.2086546E+02  0.7546771E-02  0.1521194E+00
          2   -1    0    0  501    0  0.00000000000E+00  0.00000000000E+00  0.11823245417E+04  0.11823245417E+04  0.00000000000E+00 0. -1.
         -2   -1    0    0    0  501 -0.00000000000E+00 -0.00000000000E+00 -0.16551407739E+01  0.16551407739E+01  0.00000000000E+00 0. -1.
          2    1    1    2  502    0  0.98810178418E+01  0.18377515033E+02  0.11123352669E+04  0.11125309495E+04  0.00000000000E+00 0. -1.
         -2    1    1    2    0  502 -0.98810178418E+01 -0.18377515033E+02  0.68334133990E+02  0.71448732952E+02  0.00000000000E+00 0. -1.
</event>
<event>
 4    1  0.5841374E+003  0.2767262E+02  0.7546771E-02  0.1440966E+00
          2   -1    0    0  501    0  0.00000000000E+00  0.00000000000E+00  0.10331402475E+04  0.10331402475E+04  0.00000000000E+00 0. -1.
         -2   -1    0    0    0  501 -0.00000000000E+00 -0.00000000000E+00 -0.86229748148E+00  0.86229748148E+00  0.00000000000E+00 0.  1.
          2    1    1    2  502    0 -0.21298099017E+01  0.27590538972E+02  0.70987598495E+03  0.71041515182E+03  0.00000000000E+00 0. -1.
         -2    1    1    2    0  502  0.21298099017E+01 -0.27590538972E+02  0.32240196504E+03  0.32358739313E+03  0.00000000000E+00 0.  1.
</event>
<event>
 4    1  0.5841374E+003  0.2291023E+02  0.7546771E-02  0.1493629E+00
          2   -1    0    0  501    0  0.00000000000E+00  0.00000000000E+00  0.14615645179E+04  0.14615645179E+04  0.00000000000E+00 0.  1.
         -2   -1    0    0    0  501 -0.00000000000E+00 -0.00000000000E+00 -0.33571229110E+01  0.33571229110E+01  0.00000000000E+00 0.  1.
          2    1    1    2  502    0  0.22354860811E+02 -0.50138492302E+01  0.14212800087E+04  0.14214646466E+04  0.00000000000E+00 0.  1.
         -2    1    1    2    0  502 -0.22354860811E+02  0.50138492302E+01  0.36927386349E+02  0.43456994242E+02  0.00000000000E+00 0.  1.
</event>
<event>
 4    1  0.5841374E+003  0.3282057E+02  0.7546771E-02  0.1396569E+00
          2   -1    0    0  501    0  0.00000000000E+00  0.00000000000E+00  0.14832415333E+03  0.14832415333E+03  0.00000000000E+00 0. -1.
         -2   -1    0    0    0  501 -0.00000000000E+00 -0.00000000000E+00 -0.12051778386E+02  0.12051778386E+02  0.00000000000E+00 0.  1.
          2    1    1    2  502    0 -0.43478615678E+01  0.32531305898E+02  0.11868640992E+03  0.12314078797E+03  0.00000000000E+00 0. -1.
         -2    1    1    2    0  502  0.43478615678E+01 -0.32531305898E+02  0.17585965029E+02  0.37235143744E+02  0.00000000000E+00 0.  1.
</event>
<event>
 4    1  0.5841374E+003  0.2563098E+02  0.7546771E-02  0.1461867E+00
          2   -1    0    0  501    0  0.00000000000E+00  0.00000000000E+00  0.19357803388E+01  0.19357803388E+01  0.00000000000E+00 0.  1.
         -2   -1    0    0    0  501 -0.00000000000E+00 -0.00000000000E+00 -0.33951315091E+03  0.33951315091E+03  0.00000000000E+00 0. -1.
          2    1    1    2  502    0  0.76386088040E+00 -0.25619594723E+02 -0.16529157711E+03  0.16726700984E+03  0.00000000000E+00 0.  1.
         -2    1    1    2    0  502 -0.76386088040E+00  0.25619594723E+02 -0.17228579347E+03  0.17418192142E+03  0.00000000000E+00 0. -1.
</event>
<event>
 4    1  0.5841374E+003  0.2443926E+02  0.7546771E-02  0.1475175E+00
          2   -1    0    0  501    0  0.00000000000E+00  0.00000000000E+00  0.16162949867E+04  0.16162949867E+04  0.00000000000E+00 0. -1.
         -2   -1    0    0    0  501 -0.00000000000E+00 -0.00000000000E+00 -0.85104706778E+01  0.85104706778E+01  0.00000000000E+00 0. -1.
          2    1    1    2  502    0 -0.16512284535E+02 -0.18017272060E+02  0.15984614905E+04  0.15986483085E+04  0.00000000000E+00 0. -1.
         -2    1    1    2    0  502  0.16512284535E+02  0.18017272060E+02  0.93230255248E+01  0.26157148888E+02  0.00000000000E+00 0. -1.
</event>
<event>
 4    1  0.5841374E+003  0.2179295E+02  0.7546771E-02  0.1508238E+00
          2   -1    0    0  501    0  0.00000000000E+00  0.00000000000E+00  0.67398502896E+02  0.67398502896E+02  0.00000000000E+00 0. -1.
         -2   -1    0    0    0  501 -0.00000000000E+00 -0.00000000000E+00 -0.70572084315E+01  0.70572084315E+01  0.00000000000E+00 0. -1.
          2    1    1    2  502    0  0.83418093886E+01  0.20133233717E+02  0.31611395524E+02  0.38395484250E+02  0.00000000000E+00 0. -1.
         -2    1    1    2    0  502 -0.83418093886E+01 -0.20133233717E+02  0.28729898940E+02  0.36060227078E+02  0.00000000000E+00 0. -1.
</event>
<event>
 4    1  0.5841374E+003  0.2572713E+02  0.7546771E-02  0.1460831E+00
          2   -1    0    0  501    0  0.00000000000E+00  0.00000000000E+00  0.32903149852E+03  0.32903149852E+03  0.00000000000E+00 0. -1.
         -2   -1    0    0    0  501 -0.00000000000E+00 -0.00000000000E+00 -0.16464034880E+02  0.16464034880E+02  0.00000000000E+00 0. -1.
          2    1    1    2  502    0 -0.11611433897E+02 -0.22957777987E+02  0.31813442944E+03  0.31917299410E+03  0.00000000000E+00 0. -1.
         -2    1    1    2    0  502  0.11611433897E+02  0.22957777987E+02 -0.55669657959E+01  0.26322539304E+02  0.00000000000E+00 0. -1.
</event>
<event>
 4    1  0.5841374E+003  0.5170380E+02  0.7546771E-02  0.1290950E+00
          2   -1    0    0  501    0  0.00000000000E+00  0.00000000000E+00  0.94603477257E+03  0.94603477257E+03  0.00000000000E+00 0. -1.
         -2   -1    0    0    0  501 -0.00000000000E+00 -0.00000000000E+00 -0.71955053705E+01  0.71955053705E+01  0.00000000000E+00 0. -1.
          2    1    1    2  502    0 -0.33809181198E+02 -0.39118054353E+02  0.84083889615E+03  0.84242704858E+03  0.00000000000E+00 0. -1.
         -2    1    1    2    0  502  0.33809181198E+02  0.39118054353E+02  0.98000371049E+02  0.11080322935E+03  0.00000000000E+00 0. -1.
</event>
<event>
 4    1  0.5841374E+003  0.2607191E+02  0.7546771E-02  0.1457160E+00
          2   -1    0    0  501    0  0.00000000000E+00  0.00000000000E+00  0.62840526969E+02  0.62840526969E+02  0.00000000000E+00 0. -1.
         -2   -1    0    0    0  501 -0.00000000000E+00 -0.00000000000E+00 -0.15873318626E+03  0.15873318626E+03  0.00000000000E+00 0.  1.
          2    1    1    2  502    0  0.87375739933E+00  0.26057267069E+02  0.58999106369E+02  0.64503016762E+02  0.00000000000E+00 0. -1.
         -2    1    1    2    0  502 -0.87375739933E+00 -0.26057267069E+02 -0.15489176566E+03  0.15707069647E+03  0.00000000000E+00 0.  1.
</event>
<event>
 4    1  0.5841374E+003  0.3071227E+02  0.7546771E-02  0.1413506E+00
          2   -1    0    0  501    0  0.00000000000E+00  0.00000000000E+00  0.14809739738E+04  0.14809739738E+04  0.00000000000E+00 0. -1.
         -2   -1    0    0    0  501 -0.00000000000E+00 -0.00000000000E+00 -0.45564501333E+01  0.45564501333E+01  0.00000000000E+00 0.  1.
          2    1    1    2  502    0 -0.20976099074E+02 -0.22433158154E+02  0.14271083812E+04  0.14274388165E+04  0.00000000000E+00 0. -1.
         -2    1    1    2    0  502  0.20976099074E+02  0.22433158154E+02  0.49309142474E+02  0.58091607385E+02  0.00000000000E+00 0.  1.
</event>
<event>
 4    1  0.5841374E+003  0.2579989E+02  0.7546771E-02  0.1460051E+00
          2   -1    0    0  501    0  0.00000000000E+00  0.00000000000E+00  0.49295440779E+03  0.49295440779E+03  0.00000000000E+00 0.  1.
         -2   -1    0    0    0  501 -0.00000000000E+00 -0.00000000000E+00 -0.17017906532E+02  0.17017906532E+02  0.00000000000E+00 0.  1.
          2    1    1    2  502    0 -0.15174066326E+02  0.20865809472E+02  0.48262934975E+03  0.48331844940E+03  0.00000000000E+00 0.  1.
         -2    1    1    2    0  502  0.15174066326E+02 -0.20865809472E+02 -0.66928484969E+01  0.26653864913E+02  0.00000000000E+00 0.  1.
</event>
<event>
 4    1  0.5841374E+003  0.2058178E+02  0.7546771E-02  0.1525321E+00
          2   -1    0    0  501    0  0.00000000000E+00  0.00000000000E+00  0.66320012303E+03  0.66320012303E+03  0.00000000000E+00 0.  1.
         -2   -1    0    0    0  501 -0.00000000000E+00 -0.00000000000E+00 -0.43096559878E+01  0.43096559878E+01  0.00000000000E+00 0. -1.
          2    1    1    2  502    0 -0.10243984453E+01  0.20556266572E+02  0.63747580470E+03  0.63780797350E+03  0.00000000000E+00 0.  1.
         -2    1    1    2    0  502  0.10243984453E+01 -0.20556266572E+02  0.21414662344E+02  0.29701805516E+02  0.00000000000E+00 0. -1.
</event>
<event>
 4    1  0.5841374E+003  0.5182257E+02  0.7546771E-02  0.1290458E+00
          2   -1    0    0  501    0  0.00000000000E+00  0.00000000000E+00  0.25036526099E+03  0.25036526099E+03  0.00000000000E+00 0. -1.
         -2   -1    0    0    0  501 -0.00000000000E+00 -0.00000000000E+00 -0.11249667063E+02  0.11249667063E+02  0.00000000000E+00 0. -1.
          2    1    1    2  502    0  0.41889972635E+02  0.30509169979E+02  0.14776257721E+03  0.15658658463E+03  0.00000000000E+00 0. -1.
         -2    1    1    2    0  502 -0.41889972635E+02 -0.30509169979E+02  0.91353016711E+02  0.10502834342E+03  0.00000000000E+00 0. -1.
</event>
<event>
 4    1  0.5841374E+003  0.2579239E+02  0.7546771E-02  0.1460131E+00
          2   -1    0    0  501    0  0.00000000000E+00  0.00000000000E+00  0.55732112373E+01  0.55732112373E+01  0.00000000000E+00 0.  1.
         -2   -1    0    0    0  501 -0.00000000000E+00 -0.00000000000E+00 -0.19269468492E+03  0.19269468492E+03  0.00000000000E+00 0. -1.
          2    1    1    2  502    0 -0.18114842111E+02  0.18360273751E+02 -0.32406433880E+02  0.41417678758E+02  0.00000000000E+00 0.  1.
         -2    1    1    2    0  502  0.18114842111E+02 -0.18360273751E+02 -0.15471503980E+03  0.15685021740E+03  0.00000000000E+00 0. -1.
</event>
<event>
 4    1  0.5841374E+003  0.4096673E+02  0.7546771E-02  0.1342912E+00
          2   -1    0    0  501    0  0.00000000000E+00  0.00000000000E+00  0.39449060000E+03  0.39449060000E+03  0.00000000000E+00 0. -1.
         -2   -1    0    0    0  501 -0.00000000000E+00 -0.00000000000E+00 -0.11201892605E+02  0.11201892605E+02  0.00000000000E+00 0. -1.
          2    1    1    2  502    0  0.40174053148E+02 -0.80198677794E+01  0.35139371165E+03  0.35377367541E+03  0.00000000000E+00 0. -1.
         -2    1    1    2    0  502 -0.40174053148E+02  0.80198677794E+01  0.31894995746E+02  0.51918817198E+02  0.00000000000E+00 0. -1.
</event>
<event>
 4    1  0.5841374E+003  0.2670026E+02  0.7546771E-02  0.1450643E+00
          2   -1    0    0  501    0  0.00000000000E+00  0.00000000000E+00  0.44620307699E+01  0.44620307699E+01  0.00000000000E+00 0.  1.
         -2   -1    0    0    0  501 -0.00000000000E+00 -0.00000000000E+00 -0.18456804474E+03  0.18456804474E+03  0.00000000000E+00 0. -1.
          2    1    1    2  502    0  0.17848447729E+02  0.19857914571E+02 -0.55409554341E+02  0.61507093654E+02  0.00000000000E+00 0.  1.
         -2    1    1    2    0  502 -0.17848447729E+02 -0.19857914571E+02 -0.12469645962E+03  0.12752298185E+03  0.00000000000E+00 0. -1.
</event>
<event>
 4    1  0.5841374E+003  0.2023721E+02  0.7546771E-02  0.1530440E+00
          2   -1    0    0  501    0  0.00000000000E+00  0.00000000000E+00  0.69007204911E+03  0.69007204911E+03  0.00000000000E+00 0.  1.
         -2   -1    0    0    0  501 -0.00000000000E+00 -0.00000000000E+00 -0.22800514266E+01  0.22800514266E+01  0.00000000000E+00 0. -1.
          2    1    1    2  502    0  0.20230133487E+02 -0.53532031755E+00  0.64162894626E+03  0.64194801156E+03  0.00000000000E+00 0.  1.
         -2    1    1    2    0  502 -0.20230133487E+02  0.53532031755E+00  0.46163051428E+02  0.50404088979E+02  0.00000000000E+00 0. -1.
</event>
<event>
 4    1  0.5841374E+003  0.2374832E+02  0.7546771E-02  0.1483309E+00
          2   -1    0    0  501    0  0.00000000000E+00  0.00000000000E+00  0.16207892154E+03  0.16207892154E+03  0.00000000000E+00 0.  1.
         -2   -1    0    0    0  501 -0.00000000000E+00 -0.00000000000E+00 -0.50712674675E+03  0.50712674675E+03  0.00000000000E+00 0. -1.
          2    1    1    2  502    0 -0.81839287167E+01 -0.22293636925E+02  0.16092899675E+03  0.16267183202E+03  0.00000000000E+00 0.  1.
         -2    1    1    2    0  502  0.81839287167E+01  0.22293636925E+02 -0.50597682196E+03  0.50653383628E+03  0.00000000000E+00 0. -1.
</event>
<event>
 4    1  0.5841374E+003  0.2853195E+02  0.7546771E-02  0.1432798E+00
          2   -1    0    0  501    0  0.00000000000E+00  0.00000000000E+00  0.50345780529E+03  0.50345780529E+03  0.00000000000E+00 0.  1.
         -2   -1    0    0    0  501 -0.00000000000E+00 -0.00000000000E+00 -0.52153650894E+01  0.52153650894E+01  0.00000000000E+00 0.  1.
          2    1    1    2  502    0 -0.79560874950E+01 -0.27400229224E+02  0.46038323311E+03  0.46126650997E+03  0.00000000000E+00 0.  1.
         -2    1    1    2    0  502  0.79560874950E+01  0.27400229224E+02  0.37859207089E+02  0.47406660409E+02  0.00000000000E+00 0.  1.
</event>
<event>
 4    1  0.5841374E+003  0.2602672E+02  0.7546771E-02  0.1457638E+00
          2   -1    0    0  501    0  0.00000000000E+00  0.00000000000E+00  0.35002293121E+03  0.35002293121E+03  0.00000000000E+00 0. -1.
         -2   -1    0    0    0  501 -0.00000000000E+00 -0.00000000000E+00 -0.28861545494E+01  0.28861545494E+01  0.00000000000E+00 0. -1.
          2    1    1    2  502    0  0.69547689384E+01 -0.25080294271E+02  0.27485131311E+03  0.27608084738E+03  0.00000000000E+00 0. -1.
         -2    1    1    2    0  502 -0.69547689384E+01  0.25080294271E+02  0.72285463547E+02  0.76828238376E+02  0.00000000000E+00 0. -1.
</event>
<event>
 4    1  0.5841374E+003  0.2475644E+02  0.7546771E-02  0.1471547E+00
          2   -1    0    0  501    0  0.00000000000E+00  0.00000000000E+00  0.84509169787E+02  0.84509169787E+02  0.00000000000E+00 0.  1.
         -2   -1    0    0    0  501 -0.00000000000E+00 -0.00000000000E+00 -0.95652289199E+01  0.95652289199E+01  0.00000000000E+00 0. -1.
          2    1    1    2  502    0  0.11342038315E+01 -0.24730440730E+02  0.60602212335E+02  0.65463801119E+02  0.00000000000E+00 0.  1.
         -2    1    1    2    0  502 -0.11342038315E+01  0.24730440730E+02  0.14341728531E+02  0.28610597587E+02  0.00000000000E+00 0. -1.
</event>
<event>
 4    1  0.5841374E+003  0.2718955E+02  0.7546771E-02  0.1445713E+00
          2   -1    0    0  501    0  0.00000000000E+00  0.00000000000E+00  0.11988631079E+03  0.11988631079E+03  0.00000000000E+00 0.  1.
         -2   -1    0    0    0  501 -0.00000000000E+00 -0.00000000000E+00 -0.62109421893E+01  0.62109421893E+01  0.00000000000E+00 0.  1.
          2    1    1    2  502    0 -0.17164678702E+02 -0.21086623705E+02  0.62174489985E+02  0.67859701585E+02  0.00000000000E+00 0.  1.
         -2    1    1    2    0  502  0.17164678702E+02  0.21086623705E+02  0.51500878611E+02  0.58237551391E+02  0.00000000000E+00 0.  1.
</event>
<event>
 4    1  0.5841374E+003  0.2094448E+02  0.7546771E-02  0.1520059E+00
          2   -1    0    0  501    0  0.00000000000E+00  0.00000000000E+00  0.11094050548E+03  0.11094050548E+03  0.00000000000E+00 0.  1.
         -2   -1    0    0    0  501 -0.00000000000E+00 -0.00000000000E+00 -0.42899587050E+01  0.42899587050E+01  0.00000000000E+00 0. -1.
          2    1    1    2  502    0 -0.19545697431E+02  0.75257479469E+01  0.69445880223E+02  0.72535518542E+02  0.00000000000E+00 0.  1.
         -2    1    1    2    0  502  0.19545697431E+02 -0.75257479469E+01  0.37204666553E+02  0.42694945644E+02  0.00000000000E+00 0. -1.
</event>
<event>
 4    1  0.5841374E+003  0.2728891E+02  0.7546771E-02  0.1444727E+00
          2   -1    0    0  501    0  0.00000000000E+00  0.00000000000E+00  0.20264704093E+01  0.20264704093E+01  0.00000000000E+00 0.  1.
         -2   -1    0    0    0  501 -0.00000000000E+00 -0.00000000000E+00 -0.90147175034E+03  0.90147175034E+03  0.00000000000E+00 0. -1.
          2    1    1    2  502    0  0.10028933401E+02  0.25379229857E+02 -0.10203518006E+03  0.10562131784E+03  0.00000000000E+00 0.  1.
         -2    1    1    2    0  502 -0.10028933401E+02 -0.25379229857E+02 -0.79741009987E+03  0.79787690291E+03  0.00000000000E+00 0. -1.
</event>
<event>
 4    1  0.5841374E+003  0.3023960E+02  0.7546771E-02  0.1417525E+00
          2   -1    0    0  501    0  0.00000000000E+00  0.00000000000E+00  0.59209168688E+03  0.59209168688E+03  0.00000000000E+00 0.  1.
         -2   -1    0    0    0  501 -0.00000000000E+00 -0.00000000000E+00 -0.21782426132E+01  0.21782426132E+01  0.00000000000E+00 0. -1.
          2    1    1    2  502    0 -0.30213319196E+02 -0.12603649727E+01  0.45523971047E+03  0.45624294752E+03  0.00000000000E+00 0.  1.
         -2    1    1    2    0  502  0.30213319196E+02  0.12603649727E+01  0.13467373380E+03  0.13802698197E+03  0.00000000000E+00 0. -1.
</event>
<event>
 4    1  0.5841374E+003  0.2362096E+02  0.7546771E-02  0.1484845E+00
          2   -1    0    0  501    0  0.00000000000E+00  0.00000000000E+00  0.28618961263E+02  0.28618961263E+02  0.00000000000E+00 0.  1.
         -2   -1    0    0    0  501 -0.00000000000E+00 -0.00000000000E+00 -0.63532188404E+02  0.63532188404E+02  0.00000000000E+00 0.  1.
          2    1    1    2  502    0 -0.15469216595E+02 -0.17850850365E+02  0.20903484210E+02  0.31542117445E+02  0.00000000000E+00 0.  1.
         -2    1    1    2    0  502  0.15469216595E+02  0.17850850365E+02 -0.55816711351E+02  0.60609032222E+02  0.00000000000E+00 0.  1.
</event>
<event>
 4    1  0.5841374E+003  0.3175167E+02  0.7546771E-02  0.1404961E+00
          2   -1    0    0  501    0  0.00000000000E+00  0.00000000000E+00  0.33330819764E+01  0.33330819764E+01  0.00000000000E+00 0. -1.
         -2   -1    0    0    0  501 -0.00000000000E+00 -0.00000000000E+00 -0.30600895445E+03  0.30600895445E+03  0.00000000000E+00 0. -1.
          2    1    1    2  502    0 -0.95166603392E+01 -0.30291944432E+02 -0.13471265112E+03  0.13840399956E+03  0.00000000000E+00 0. -1.
         -2    1    1    2    0  502  0.95166603392E+01  0.30291944432E+02 -0.16796322136E+03  0.17093803688E+03  0.00000000000E+00 0. -1.
</event>
<event>
 4    1  0.5841374E+003  0.3772777E+02  0.7546771E-02  0.1362341E+00
          2   -1    0    0  501    0  0.00000000000E+00  0.00000000000E+00  0.14513954453E+04  0.14513954453E+04  0.00000000000E+00 0.  1.
         -2   -1    0    0    0  501 -0.00000000000E+00 -0.00000000000E+00 -0.10299064401E+01  0.10299064401E+01  0.00000000000E+00 0. -1.
          2    1    1    2  502    0 -0.30259750720E+02 -0.22532909599E+02  0.88391781617E+03  0.88472260640E+03  0.00000000000E+00 0.  1.
         -2    1    1    2    0  502  0.30259750720E+02  0.22532909599E+02  0.56644772273E+03  0.56770274539E+03  0.00000000000E+00 0. -1.
</event>
<event>
 4    1  0.5841374E+003  0.2938507E+02  0.7546771E-02  0.1425017E+00
          2   -1    0    0  501    0  0.00000000000E+00  0.00000000000E+00  0.59621761383E+03  0.59621761383E+03  0.00000000000E+00 0. -1.
         -2   -1    0    0    0  501 -0.00000000000E+00 -0.00000000000E+00 -0.86931348571E+03  0.86931348571E+03  0.00000000000E+00 0.  1.
          2    1    1    2  502    0 -0.20622677864E+02  0.20932927003E+02  0.59560696961E+03  0.59633140494E+03  0.00000000000E+00 0. -1.
         -2    1    1    2    0  502  0.20622677864E+02 -0.20932927003E+02 -0.86870284148E+03  0.86919969459E+03  0.00000000000E+00 0.  1.
</event>
<event>
 4    1  0.5841374E+003  0.2151516E+02  0.7546771E-02  0.1512035E+00
          2   -1    0    0  501    0  0.00000000000E+00  0.00000000000E+00  0.27787722897E+03  0.27787722897E+03  0.00000000000E+00 0.  1.
         -2   -1    0    0    0  501 -0.00000000000E+00 -0.00000000000E+00 -0.12303211953E+02  0.12303211953E+02  0.00000000000E+00 0.  1.
          2    1    1    2  502    0  0.61378538382E+01 -0.20621075216E+02  0.26769753611E+03  0.26856074328E+03  0.00000000000E+00 0.  1.
         -2    1    1    2    0  502 -0.61378538382E+01  0.20621075216E+02 -0.21235190917E+01  0.21619697642E+02  0.00000000000E+00 0.  1.
</event>
<event>
 4    1  0.5841374E+003  0.2337851E+02  0.7546771E-02  0.1487799E+00
          2   -1    0    0  501    0  0.00000000000E+00  0.00000000000E+00  0.20265298309E+01  0.20265298309E+01  0.00000000000E+00 0.  1.
         -2   -1    0    0    0  501 -0.00000000000E+00 -0.00000000000E+00 -0.27135177770E+03  0.27135177770E+03  0.00000000000E+00 0.  1.
          2    1    1    2  502    0 -0.54986853071E+01 -0.22722657340E+02 -0.12399741471E+03  0.12618206510E+03  0.00000000000E+00 0.  1.
         -2    1    1    2    0  502  0.54986853071E+01  0.22722657340E+02 -0.14532783315E+03  0.14719624243E+03  0.00000000000E+00 0.  1.
</event>
<event>
 4    1  0.5841374E+003  0.2533428E+02  0.7546771E-02  0.1465098E+00
          2   -1    0    0  501    0  0.00000000000E+00  0.00000000000E+00  0.30068186761E+03  0.30068186761E+03  0.00000000000E+00 0. -1.
         -2   -1    0    0    0  501 -0.00000000000E+00 -0.00000000000E+00 -0.21312902881E+02  0.21312902881E+02  0.00000000000E+00 0.  1.
          2    1    1    2  502    0 -0.24422021532E+02 -0.67372526948E+01  0.29240696509E+03  0.29350240024E+03  0.00000000000E+00 0. -1.
         -2    1    1    2    0  502  0.24422021532E+02  0.67372526948E+01 -0.13038000360E+02  0.28492370259E+02  0.00000000000E+00 0.  1.
</event>
<event>
 4    1  0.5841374E+003  0.3220485E+02  0.7546771E-02  0.1401356E+00
          2   -1    0    0  501    0  0.00000000000E+00  0.00000000000E+00  0.46667154892E+03  0.46667154892E+03  0.00000000000E+00 0. -1.
         -2   -1    0    0    0  501 -0.00000000000E+00 -0.00000000000E+00 -0.33839963065E+01  0.33839963065E+01  0.00000000000E+00 0. -1.
          2    1    1    2  502    0  0.21931928906E+02 -0.23582680289E+02  0.36934038913E+03  0.37074179069E+03  0.00000000000E+00 0. -1.
         -2    1    1    2    0  502 -0.21931928906E+02  0.23582680289E+02  0.93947163479E+02  0.99313754541E+02  0.00000000000E+00 0. -1.
</event>
<event>
 4    1  0.5841374E+003  0.2374879E+02  0.7546771E-02  0.1483304E+00
          2   -1    0    0  501    0  0.00000000000E+00  0.00000000000E+00  0.21545976620E+02  0.21545976620E+02  0.00000000000E+00 0.  1.
         -2   -1    0    0    0  501 -0.00000000000E+00 -0.00000000000E+00 -0.18284802242E+03  0.18284802242E+03  0.00000000000E+00 0. -1.
          2    1    1    2  502    0 -0.45296290284E+01 -0.23312819535E+02  0.13948207528E+02  0.27541924171E+02  0.00000000000E+00 0.  1.
         -2    1    1    2    0  502  0.45296290284E+01  0.23312819535E+02 -0.17525025333E+03  0.17685207487E+03  0.00000000000E+00 0. -1.
</event>
<event>
 4    1  0.5841374E+003  0.3210854E+02  0.7546771E-02  0.1402117E+00
          2   -1    0    0  501    0  0.00000000000E+00  0.00000000000E+00  0.27515203358E+02  0.27515203358E+02  0.00000000000E+00 0.  1.
         -2   -1    0    0    0  501 -0.00000000000E+00 -0.00000000000E+00 -0.13407435724E+03  0.13407435724E+03  0.00000000000E+00 0. -1.
          2    1    1    2  502    0  0.29843510404E+02  0.11845806745E+02  0.15302680367E+02  0.35568669881E+02  0.00000000000E+00 0.  1.
         -2    1    1    2    0  502 -0.29843510404E+02 -0.11845806745E+02 -0.12186183425E+03  0.12602089072E+03  0.00000000000E+00 0. -1.
</event>
<event>
 4    1  0.5841374E+003  0.2588218E+02  0.7546771E-02  0.1459172E+00
          2   -1    0    0  501    0  0.00000000000E+00  0.00000000000E+00  0.41887806889E+02  0.41887806889E+02  0.00000000000E+00 0.  1.
         -2   -1    0    0    0  501 -0.00000000000E+00 -0.00000000000E+00 -0.17225755067E+02  0.17225755067E+02  0.00000000000E+00 0. -1.
          2    1    1    2  502    0  0.15954231770E+02  0.20380129308E+02  0.20239805249E+02  0.32856306830E+02  0.00000000000E+00 0.  1.
         -2    1    1    2    0  502 -0.15954231770E+02 -0.20380129308E+02  0.44222465726E+01  0.26257255126E+02  0.00000000000E+00 0. -1.
</event>
<event>
 4    1  0.5841374E+003  0.2281008E+02  0.7546771E-02  0.1494897E+00
          2   -1    0    0  501    0  0.00000000000E+00  0.00000000000E+00  0.93235526245E+02  0.93235526245E+02  0.00000000000E+00 0.  1.
         -2   -1    0    0    0  501 -0.00000000000E+00 -0.00000000000E+00 -0.10414296738E+02  0.10414296738E+02  0.00000000000E+00 0.  1.
          2    1    1    2  502    0  0.10351262075E+02  0.20326123920E+02  0.76718217174E+02  0.80037396176E+02  0.00000000000E+00 0.  1.
         -2    1    1    2    0  502 -0.10351262075E+02 -0.20326123920E+02  0.61030123331E+01  0.23612426807E+02  0.00000000000E+00 0.  1.
</event>
<event>
 4    1  0.5841374E+003  0.2327445E+02  0.7546771E-02  0.1489080E+00
          2   -1    0    0  501    0  0.00000000000E+00  0.00000000000E+00  0.10840525244E+02  0.10840525244E+02  0.00000000000E+00 0.  1.
         -2   -1    0    0    0  501 -0.00000000000E+00 -0.00000000000E+00 -0.10191497172E+03  0.10191497172E+03  0.00000000000E+00 0. -1.
          2    1    1    2  502    0  0.73883017556E+01 -0.22070637388E+02 -0.52876870906E+01  0.23867544329E+02  0.00000000000E+00 0.  1.
         -2    1    1    2    0  502 -0.73883017556E+01  0.22070637388E+02 -0.85786759386E+02  0.88887952634E+02  0.00000000000E+00 0. -1.
</event>
<event>
 4    1  0.5841374E+003  0.2203261E+02  0.7546771E-02  0.1505017E+00
          2   -1    0    0  501    0  0.00000000000E+00  0.00000000000E+00  0.44218609860E+02  0.44218609860E+02  0.00000000000E+00 0.  1.
         -2   -1    0    0    0  501 -0.00000000000E+00 -0.00000000000E+00 -0.20664338743E+02  0.20664338743E+02  0.00000000000E+00 0. -1.
          2    1    1    2  502    0  0.18333775468E+02 -0.12219189349E+02  0.33988110315E+02  0.40504660893E+02  0.00000000000E+00 0.  1.
         -2    1    1    2    0  502 -0.18333775468E+02  0.12219189349E+02 -0.10433839198E+02  0.24378287710E+02  0.00000000000E+00 0. -1.
</event>
<event>
 4    1  0.5841374E+003  0.2238560E+02  0.7546771E-02  0.1500361E+00
          2   -1    0    0  501    0  0.00000000000E+00  0.00000000000E+00  0.12057092554E+04  0.12057092554E+04  0.00000000000E+00 0.  1.
         -2   -1    0    0    0  501 -0.00000000000E+00 -0.00000000000E+00 -0.55265887153E+00  0.55265887153E+00  0.00000000000E+00 0.  1.
          2    1    1    2  502    0  0.14343865634E+02  0.17186295417E+02  0.90291409721E+03  0.90319155343E+03  0.00000000000E+00 0.  1.
         -2    1    1    2    0  502 -0.14343865634E+02 -0.17186295417E+02  0.30224249932E+03  0.30307036086E+03  0.00000000000E+00 0.  1.
</event>
<event>
 4    1  0.5841374E+003  0.2087143E+02  0.7546771E-02  0.1521108E+00
          2   -1    0    0  501    0  0.00000000000E+00  0.00000000000E+00  0.36021129855E+03  0.36021129855E+03  0.00000000000E+00 0.  1.
         -2   -1    0    0    0  501 -0.00000000000E+00 -0.00000000000E+00 -0.22295837379E+01  0.22295837379E+01  0.00000000000E+00 0.  1.
          2    1    1    2  502    0  0.47907208212E+01 -0.20314170176E+02  0.30157889553E+03  0.30230025926E+03  0.00000000000E+00 0.  1.
         -2    1    1    2    0  502 -0.47907208212E+01  0.20314170176E+02  0.56402819281E+02  0.60140623033E+02  0.00000000000E+00 0.  1.
</event>
<event>
 4    1  0.5841374E+003  0.5435272E+02  0.7546771E-02  0.1280329E+00
          2   -1    0    0  501    0  0.00000000000E+00  0.00000000000E+00  0.11824258378E+04  0.11824258378E+04  0.00000000000E+00 0. -1.
         -2   -1    0    0    0  501 -0.00000000000E+00 -0.00000000000E+00 -0.23129163098E+02  0.23129163098E+02  0.00000000000E+00 0.  1.
          2    1    1    2  502    0 -0.78465703263E+01  0.53783352194E+02  0.11489393401E+04  0.11502242498E+04  0.00000000000E+00 0. -1.
         -2    1    1    2    0  502  0.78465703263E+01 -0.53783352194E+02  0.10357334647E+02  0.55330751126E+02  0.00000000000E+00 0.  1.
</event>
<event>
 4    1  0.5841374E+003  0.4328003E+02  0.7546771E-02  0.1330267E+00
          2   -1    0    0  501    0  0.00000000000E+00  0.00000000000E+00  0.10887109358E+04  0.10887109358E+04  0.00000000000E+00 0.  1.
         -2   -1    0    0    0  501 -0.00000000000E+00 -0.00000000000E+00 -0.14144994236E+02  0.14144994236E+02  0.00000000000E+00 0. -1.
          2    1    1    2  502    0  0.35105488966E+02  0.25313347637E+02  0.10540873883E+04  0.10549755367E+04  0.00000000000E+00 0.  1.
         -2    1    1    2    0  502 -0.35105488966E+02 -0.25313347637E+02  0.20478553352E+02  0.47880393394E+02  0.00000000000E+00 0. -1.
</event>
<event>
 4    1  0.5841374E+003  0.3223862E+02  0.7546771E-02  0.1401090E+00
          2   -1    0    0  501    0  0.00000000000E+00  0.00000000000E+00  0.51443596577E+03  0.51443596577E+03  0.00000000000E+00 0.  1.
         -2   -1    0    0    0  501 -0.00000000000E+00 -0.00000000000E+00 -0.19950179243E+02  0.19950179243E+02  0.00000000000E+00 0. -1.
          2    1    1    2  502    0  0.41191751991E+01  0.31974380566E+02  0.50054578884E+03  0.50158290973E+03  0.00000000000E+00 0.  1.
         -2    1    1    2    0  502 -0.41191751991E+01 -0.31974380566E+02 -0.60600023069E+01  0.32803235281E+02  0.00000000000E+00 0. -1.
</event>
<event>
 4    1  0.5841374E+003  0.2457230E+02  0.7546771E-02  0.1473645E+00
          2   -1    0    0  501    0  0.00000000000E+00  0.00000000000E+00  0.12052715839E+04  0.12052715839E+04  0.00000000000E+00 0. -1.
         -2   -1    0    0    0  501 -0.00000000000E+00 -0.00000000000E+00 -0.13477811321E+02  0.13477811321E+02  0.00000000000E+00 0.  1.
          2    1    1    2  502    0 -0.75736424684E+01 -0.23376006784E+02  0.11938392553E+04  0.11940921092E+04  0.00000000000E+00 0. -1.
         -2    1    1    2    0  502  0.75736424684E+01  0.23376006784E+02 -0.20454827408E+01  0.24657286003E+02  0.00000000000E+00 0.  1.
</event>
<event>
 4    1  0.5841374E+003  0.2188354E+02  0.7546771E-02  0.1507014E+00
          2   -1    0    0  501    0  0.00000000000E+00  0.00000000000E+00  0.19975711541E+03  0.19975711541E+03  0.00000000000E+00 0.  1.
         -2   -1    0    0    0  501 -0.00000000000E+00 -0.00000000000E+00 -0.77586493642E+01  0.77586493642E+01  0.00000000000E+00 0. -1.
          2    1    1    2  502    0  0.15186672137E+02  0.15756092812E+02  0.18224994942E+03  0.18355907369E+03  0.00000000000E+00 0.  1.
         -2    1    1    2    0  502 -0.15186672137E+02 -0.15756092812E+02  0.97485166304E+01  0.23956691086E+02  0.00000000000E+00 0. -1.
</event>
<event>
 4    1  0.5841374E+003  0.2006447E+02  0.7546771E-02  0.1533052E+00
          2   -1    0    0  501    0  0.00000000000E+00  0.00000000000E+00  0.21981945665E+01  0.21981945665E+01  0.00000000000E+00 0.  1.
         -2   -1    0    0    0  501 -0.00000000000E+00 -0.00000000000E+00 -0.28365727294E+03  0.28365727294E+03  0.00000000000E+00 0.  1.
          2    1    1    2  502    0 -0.18868507183E+02 -0.68236585624E+01 -0.55648171341E+02  0.59154897118E+02  0.00000000000E+00 0.  1.
         -2    1    1    2    0  502  0.18868507183E+02  0.68236585624E+01 -0.22581090703E+03  0.22670057039E+03  0.00000000000E+00 0.  1.
</event>
<event>
 4    1  0.5841374E+003  0.2196949E+02  0.7546771E-02  0.1505860E+00
          2   -1    0    0  501    0  0.00000000000E+00  0.00000000000E+00  0.13710582396E+04  0.13710582396E+04  0.00000000000E+00 0.  1.
         -2   -1    0    0    0  501 -0.00000000000E+00 -0.00000000000E+00 -0.29510473688E+02  0.29510473688E+02  0.00000000000E+00 0. -1.
          2    1    1    2  502    0 -0.68335029893E+01 -0.20879700934E+02  0.13668688237E+04  0.13670453686E+04  0.00000000000E+00 0.  1.
         -2    1    1    2    0  502  0.68335029893E+01  0.20879700934E+02 -0.25321057752E+02  0.33523344700E+02  0.00000000000E+00 0. -1.
</event>
<event>
 4    1  0.5841374E+003  0.2312838E+02  0.7546771E-02  0.1490892E+00
          2   -1    0    0  501    0  0.00000000000E+00  0.00000000000E+00  0.90805798533E+03  0.90805798533E+03  0.00000000000E+00 0.  1.
         -2   -1    0    0    0  501 -0.00000000000E+00 -0.00000000000E+00 -0.24060852161E+02  0.24060852161E+02  0.00000000000E+00 0.  1.
          2    1    1    2  502    0 -0.22244901333E+02  0.63313650118E+01  0.90231734978E+03  0.90261371667E+03  0.00000000000E+00 0.  1.
         -2    1    1    2    0  502  0.22244901333E+02 -0.63313650118E+01 -0.18320216604E+02  0.29505120821E+02  0.00000000000E+00 0.  1.
</event>
<event>
 4    1  0.5841374E+003  0.4394877E+02  0.7546771E-02  0.1326780E+00
          2   -1    0    0  501    0  0.00000000000E+00  0.00000000000E+00  0.17937584219E+04  0.17937584219E+04  0.00000000000E+00 0. -1.
         -2   -1    0    0    0  501 -0.00000000000E+00 -0.00000000000E+00 -0.19404573997E+02  0.19404573997E+02  0.00000000000E+00 0.  1.
          2    1    1    2  502    0  0.42399770421E+02 -0.11565183412E+02  0.17682457211E+04  0.17687917979E+04  0.00000000000E+00 0. -1.
         -2    1    1    2    0  502 -0.42399770421E+02  0.11565183412E+02  0.61081267672E+01  0.44371197998E+02  0.00000000000E+00 0.  1.
</event>
<event>
 4    1  0.5841374E+003  0.2159260E+02  0.7546771E-02  0.1510970E+00
          2   -1    0    0  501    0  0.00000000000E+00  0.00000000000E+00  0.18048859165E+02  0.18048859165E+02  0.00000000000E+00 0.  1.
         -2   -1    0    0    0  501 -0.00000000000E+00 -0.00000000000E+00 -0.83120657402E+02  0.83120657402E+02  0.00000000000E+00 0.  1.
          2    1    1    2  502    0  0.20149046582E+02  0.77624942000E+01  0.94592416173E+01  0.23573664254E+02  0.00000000000E+00 0.  1.
         -2    1    1    2    0  502 -0.20149046582E+02 -0.77624942000E+01 -0.74531039855E+02  0.77595852313E+02  0.00000000000E+00 0.  1.
</event>
<event>
 4    1  0.5841374E+003  0.4569037E+02  0.7546771E-02  0.1318023E+00
          2   -1    0    0  501    0  0.00000000000E+00  0.00000000000E+00  0.10199624245E+03  0.10199624245E+03  0.00000000000E+00 0.  1.
         -2   -1    0    0    0  501 -0.00000000000E+00 -0.00000000000E+00 -0.32521088817E+02  0.32521088817E+02  0.00000000000E+00 0.  1.
          2    1    1    2  502    0  0.33278315618E+02  0.31307568322E+02  0.75684713246E+02  0.88406933799E+02  0.00000000000E+00 0.  1.
         -2    1    1    2    0  502 -0.33278315618E+02 -0.31307568322E+02 -0.62095596083E+01  0.46110397473E+02  0.00000000000E+00 0.  1.
</event>
<event>
 4    1  0.5841374E+003  0.2109270E+02  0.7546771E-02  0.1517945E+00
          2   -1    0    0  501    0  0.00000000000E+00  0.00000000000E+00  0.87329769848E+03  0.87329769848E+03  0.00000000000E+00 0.  1.
         -2   -1    0    0    0  501 -0.00000000000E+00 -0.00000000000E+00 -0.42345335531E+02  0.42345335531E+02  0.00000000000E+00 0. -1.
          2    1    1    2  502    0  0.15295636279E+02 -0.14523969426E+02  0.87053537199E+03  0.87079086816E+03  0.00000000000E+00 0.  1.
         -2    1    1    2    0  502 -0.15295636279E+02  0.14523969426E+02 -0.39583009042E+02  0.44852165855E+02  0.00000000000E+00 0. -1.
</event>
<event>
 4    1  0.5841374E+003  0.3111158E+02  0.7546771E-02  0.1410176E+00
          2   -1    0    0  501    0  0.00000000000E+00  0.00000000000E+00  0.10156857383E+04  0.10156857383E+04  0.00000000000E+00 0. -1.
         -2   -1    0    0    0  501 -0.00000000000E+00 -0.00000000000E+00 -0.12112818390E+01  0.12112818390E+01  0.00000000000E+00 0. -1.
          2    1    1    2  502    0 -0.21761303490E+02 -0.22234573834E+02  0.74203076174E+03  0.74268269266E+03  0.00000000000E+00 0. -1.
         -2    1    1    2    0  502  0.21761303490E+02  0.22234573834E+02  0.27244369467E+03  0.27421432744E+03  0.00000000000E+00 0. -1.
</event>
<event>
 4    1  0.5841374E+003  0.2888902E+02  0.7546771E-02  0.1429503E+00
          2   -1    0    0  501    0  0.00000000000E+00  0.00000000000E+00  0.15481399637E+03  0.15481399637E+03  0.00000000000E+00 0. -1.
         -2   -1    0    0    0  501 -0.00000000000E+00 -0.00000000000E+00 -0.60609573135E+01  0.60609573135E+01  0.00000000000E+00 0. -1.
          2    1    1    2  502    0  0.27893756804E+02 -0.75175152143E+01  0.47629889779E+02  0.55706203461E+02  0.00000000000E+00 0. -1.
         -2    1    1    2    0  502 -0.27893756804E+02  0.75175152143E+01  0.10112314928E+03  0.10516875023E+03  0.00000000000E+00 0. -1.
</event>
<event>
 4    1  0.5841374E+003  0.4245179E+02  0.7546771E-02  0.1334688E+00
          2   -1    0    0  501    0  0.00000000000E+00  0.00000000000E+00  0.18323695194E+04  0.18323695194E+04  0.00000000000E+00 0.  1.
         -2   -1    0    0    0  501 -0.00000000000E+00 -0.00000000000E+00 -0.40218838962E+02  0.40218838962E+02  0.00000000000E+00 0.  1.
          2    1    1    2  502    0  0.31350848301E+02  0.28623039660E+02  0.18208506090E+04  0.18213454077E+04  0.00000000000E+00 0.  1.
         -2    1    1    2    0  502 -0.31350848301E+02 -0.28623039660E+02 -0.28699928549E+02  0.51242950611E+02  0.00000000000E+00 0.  1.
</event>
<event>
 4    1  0.5841374E+003  0.2025667E+02  0.7546771E-02  0.1530148E+00
          2   -1    0    0  501    0  0.00000000000E+00  0.00000000000E+00  0.58151490660E+03  0.58151490660E+03  0.00000000000E+00 0.  1.
         -2   -1    0    0    0  501 -0.00000000000E+00 -0.00000000000E+00 -0.12210347023E+01  0.12210347023E+01  0.00000000000E+00 0.  1.
          2    1    1    2  502    0 -0.73301011980E+01  0.18883920658E+02  0.47944801764E+03  0.47987574898E+03  0.00000000000E+00 0.  1.
         -2    1    1    2    0  502  0.73301011980E+01 -0.18883920658E+02  0.10084585426E+03  0.10286019232E+03  0.00000000000E+00 0.  1.
</event>
<event>
 4    1  0.5841374E+003  0.2002300E+02  0.7546771E-02  0.1533684E+00
          2   -1    0    0  501    0  0.00000000000E+00  0.00000000000E+00  0.70759105954E+03  0.70759105954E+03  0.00000000000E+00 0.  1.
         -2   -1    0    0    0  501 -0.00000000000E+00 -0.00000000000E+00 -0.44174866627E+03  0.44174866627E+03  0.00000000000E+00 0.  1.
          2    1    1    2  502    0 -0.17617167818E+02  0.95160942480E+01  0.70722239736E+03  0.70750578794E+03  0.00000000000E+00 0.  1.
         -2    1    1    2    0  502  0.17617167818E+02 -0.95160942480E+01 -0.44138000408E+03  0.44183393787E+03  0.00000000000E+00 0.  1.
</event>
<event>
 4    1  0.5841374E+003  0.2078492E+02  0.7546771E-02  0.1522358E+00
          2   -1    0    0  501    0  0.00000000000E+00  0.00000000000E+00  0.29251778503E+03  0.29251778503E+03  0.00000000000E+00 0. -1.
         -2   -1    0    0    0  501 -0.00000000000E+00 -0.00000000000E+00 -0.11114727031E+02  0.11114727031E+02  0.00000000000E+00 0.  1.
          2    1    1    2  502    0  0.10060489739E+02  0.18187887227E+02  0.28207208488E+03  0.28283683240E+03  0.00000000000E+00 0. -1.
         -2    1    1    2    0  502 -0.10060489739E+02 -0.18187887227E+02 -0.66902687732E+00  0.20795679660E+02  0.00000000000E+00 0.  1.
</event>
<event>
 4    1  0.5841374E+003  0.2460077E+02  0.7546771E-02  0.1473319E+00
          2   -1    0    0  501    0  0.00000000000E+00  0.00000000000E+00  0.98995004211E+02  0.98995004211E+02  0.00000000000E+00 0.  1.
         -2   -1    0    0    0  501 -0.00000000000E+00 -0.00000000000E+00 -0.82184001755E+01  0.82184001755E+01  0.00000000000E+00 0. -1.
          2    1    1    2  502    0 -0.20079625874E+02  0.14212896628E+02  0.72518295933E+02  0.76577418674E+02  0.00000000000E+00 0.  1.
         -2    1    1    2    0  502  0.20079625874E+02 -0.14212896628E+02  0.18258308102E+02  0.30635985712E+02  0.00000000000E+00 0. -1.
</event>
<event>
 4    1  0.5841374E+003  0.2221999E+02  0.7546771E-02  0.1502532E+00
          2   -1    0    0  501    0  0.00000000000E+00  0.00000000000E+00  0.78960608037E+03  0.78960608037E+03  0.00000000000E+00 0.  1.
         -2   -1    0    0    0  501 -0.00000000000E+00 -0.00000000000E+00 -0.72465624740E+01  0.72465624740E+01  0.00000000000E+00 0.  1.
          2    1    1    2  502    0  0.61222022471E+01  0.21359930854E+02  0.77202885566E+03  0.77234854954E+03  0.00000000000E+00 0.  1.
         -2    1    1    2    0  502 -0.61222022471E+01 -0.21359930854E+02  0.10330662238E+02  0.24504093305E+02  0.00000000000E+00 0.  1.
</event>
<event>
 4    1  0.5841374E+003  0.2058691E+02  0.7546771E-02  0.1525245E+00
          2   -1    0    0  501    0  0.00000000000E+00  0.00000000000E+00  0.44030387333E+02  0.44030387333E+02  0.00000000000E+00 0. -1.
         -2   -1    0    0    0  501 -0.00000000000E+00 -0.00000000000E+00 -0.21396006808E+02  0.21396006808E+02  0.00000000000E+00 0.  1.
          2    1    1    2  502    0 -0.20135099101E+02 -0.42893467431E+01  0.35580587155E+02  0.41107163532E+02  0.00000000000E+00 0. -1.
         -2    1    1    2    0  502  0.20135099101E+02  0.42893467431E+01 -0.12946206630E+02  0.24319230609E+02  0.00000000000E+00 0.  1.
</event>
<event>
 4    1  0.5841374E+003  0.3029118E+02  0.7546771E-02  0.1417083E+00
          2   -1    0    0  501    0  0.00000000000E+00  0.00000000000E+00  0.45232918006E+02  0.45232918006E+02  0.00000000000E+00 0.  1.
         -2   -1    0    0    0  501 -0.00000000000E+00 -0.00000000000E+00 -0.65696784532E+03  0.65696784532E+03  0.00000000000E+00 0. -1.
          2    1    1    2  502    0 -0.10226206682E+02  0.28512804294E+02  0.39769973955E+02  0.49992060771E+02  0.00000000000E+00 0.  1.
         -2    1    1    2    0  502  0.10226206682E+02 -0.28512804294E+02 -0.65150490127E+03  0.65220870256E+03  0.00000000000E+00 0. -1.
</event>
<event>
 4    1  0.5841374E+003  0.3199785E+02  0.7546771E-02  0.1402994E+00
          2   -1    0    0  501    0  0.00000000000E+00  0.00000000000E+00  0.81451786429E+01  0.81451786429E+01  0.00000000000E+00 0.  1.
         -2   -1    0    0    0  501 -0.00000000000E+00 -0.00000000000E+00 -0.41720826190E+03  0.41720826190E+03  0.00000000000E+00 0.  1.
          2    1    1    2  502    0 -0.19422629402E+02  0.25428799624E+02 -0.26757760248E+02  0.41711390730E+02  0.00000000000E+00 0.  1.
         -2    1    1    2    0  502  0.19422629402E+02 -0.25428799624E+02 -0.38230532301E+03  0.38364204981E+03  0.00000000000E+00 0.  1.
</event>
<event>
 4    1  0.5841374E+003  0.2120978E+02  0.7546771E-02  0.1516291E+00
          2   -1    0    0  501    0  0.00000000000E+00  0.00000000000E+00  0.96120817984E+03  0.96120817984E+03  0.00000000000E+00 0. -1.
         -2   -1    0    0    0  501 -0.00000000000E+00 -0.00000000000E+00 -0.50149894747E+00  0.50149894747E+00  0.00000000000E+00 0. -1.
          2    1    1    2  502    0  0.19328971124E+02  0.87318413187E+01  0.35609213935E+03  0.35672323430E+03  0.00000000000E+00 0. -1.
         -2    1    1    2    0  502 -0.19328971124E+02 -0.87318413187E+01  0.60461454154E+03  0.60498644450E+03  0.00000000000E+00 0. -1.
</event>
<event>
 4    1  0.5841374E+003  0.5655836E+02  0.7546771E-02  0.1271997E+00
          2   -1    0    0  501    0  0.00000000000E+00  0.00000000000E+00  0.24576366465E+04  0.24576366465E+04  0.00000000000E+00 0. -1.
         -2   -1    0    0    0  501 -0.00000000000E+00 -0.00000000000E+00 -0.13038391816E+01  0.13038391816E+01  0.00000000000E+00 0. -1.
          2    1    1    2  502    0 -0.83403591690E+01 -0.55940028288E+02  0.12791703873E+04  0.12804201373E+04  0.00000000000E+00 0. -1.
         -2    1    1    2    0  502  0.83403591690E+01  0.55940028288E+02  0.11771624201E+04  0.11785203484E+04  0.00000000000E+00 0. -1.
</event>
<event>
 4    1  0.5841374E+003  0.2322209E+02  0.7546771E-02  0.1489728E+00
          2   -1    0    0  501    0  0.00000000000E+00  0.00000000000E+00  0.10156102509E+04  0.10156102509E+04  0.00000000000E+00 0.  1.
         -2   -1    0    0    0  501 -0.00000000000E+00 -0.00000000000E+00 -0.94501611931E+00  0.94501611931E+00  0.00000000000E+00 0. -1.
          2    1    1    2  502    0  0.13218012233E+02 -0.19093181398E+02  0.84376842599E+03  0.84408792322E+03  0.00000000000E+00 0.  1.
         -2    1    1    2    0  502 -0.13218012233E+02  0.19093181398E+02  0.17089680878E+03  0.17246734379E+03  0.00000000000E+00 0. -1.
</event>
