<event>
 4    1  0.5784609E+003  0.8156306E+02  0.7546771E-02  0.1200265E+00
          2   -1    0    0  501    0  0.00000000000E+00  0.00000000000E+00  0.82241923069E+03  0.82241923069E+03  0.00000000000E+00 0. -1.
         -2   -1    0    0    0  501 -0.00000000000E+00 -0.00000000000E+00 -0.38030707073E+03  0.38030707073E+03  0.00000000000E+00 0.  1.
          2    1    1    2  502    0 -0.52449736254E+02 -0.62462451165E+02  0.81598948003E+03  0.82005570796E+03  0.00000000000E+00 0. -1.
         -2    1    1    2    0  502  0.52449736254E+02  0.62462451165E+02 -0.37387732007E+03  0.38267059347E+03  0.00000000000E+00 0.  1.
</event>
<event>
 4    1  0.5784609E+003  0.2568850E+02  0.7546771E-02  0.1461247E+00
          2   -1    0    0  501    0  0.00000000000E+00  0.00000000000E+00  0.20248962116E+04  0.20248962116E+04  0.00000000000E+00 0.  1.
         -2   -1    0    0    0  501 -0.00000000000E+00 -0.00000000000E+00 -0.33699139981E+00  0.33699139981E+00  0.00000000000E+00 0.  1.
          2    1    1    2  502    0 -0.19755660547E+02  0.16419895744E+02  0.11960475276E+04  0.11963233623E+04  0.00000000000E+00 0.  1.
         -2    1    1    2    0  502  0.19755660547E+02 -0.16419895744E+02  0.82851169262E+03  0.82890984064E+03  0.00000000000E+00 0.  1.
</event>
<event>
 4    1  0.5784609E+003  0.2285179E+02  0.7546771E-02  0.1494368E+00
          2   -1    0    0  501    0  0.00000000000E+00  0.00000000000E+00  0.25559214275E+01  0.25559214275E+01  0.00000000000E+00 0. -1.
         -2   -1    0    0    0  501 -0.00000000000E+00 -0.00000000000E+00 -0.21462494914E+03  0.21462494914E+03  0.00000000000E+00 0. -1.
          2    1    1    2  502    0  0.20687855164E+02 -0.97065529434E+01 -0.82230494115E+02  0.85346696970E+02  0.00000000000E+00 0. -1.
         -2    1    1    2    0  502 -0.20687855164E+02  0.97065529434E+01 -0.12983853359E+03  0.13183417359E+03  0.00000000000E+00 0. -1.
</event>
<event>
 4    1  0.5784609E+003  0.2072850E+02  0.7546771E-02  0.1523177E+00
          2   -1    0    0  501    0  0.00000000000E+00  0.00000000000E+00  0.31398707643E+01  0.31398707643E+01  0.00000000000E+00 0.  1.
         -2   -1    0    0    0  501 -0.00000000000E+00 -0.00000000000E+00 -0.20435975537E+03  0.20435975537E+03  0.00000000000E+00 0.  1.
          2    1    1    2  502    0  0.16051077670E+02  0.13116163516E+02 -0.40975951200E+02  0.45920577267E+02  0.00000000000E+00 0.  1.
         -2    1    1    2    0  502 -0.16051077670E+02 -0.13116163516E+02 -0.16024393341E+03  0.16157904887E+03  0.00000000000E+00 0.  1.
</event>
<event>
 4    1  0.5784609E+003  0.2087842E+02  0.7546771E-02  0.1521008E+00
          2   -1    0    0  501    0  0.00000000000E+00  0.00000000000E+00  0.11960987784E+02  0.11960987784E+02  0.00000000000E+00 0.  1.
         -2   -1    0    0    0  501 -0.00000000000E+00 -0.00000000000E+00 -0.13036065892E+03  0.13036065892E+03  0.00000000000E+00 0.  1.
          2    1    1    2  502    0 -0.19720657996E+02 -0.68559488251E+01  0.12003944993E+01  0.20912898724E+02  0.00000000000E+00 0.  1.
         -2    1    1    2    0  502  0.19720657996E+02  0.68559488251E+01 -0.11960006564E+03  0.12140874798E+03  0.00000000000E+00 0.  1.
</event>
<event>
 4    1  0.5784609E+003  0.2448683E+02  0.7546771E-02  0.1474627E+00
          2   -1    0    0  501    0  0.00000000000E+00  0.00000000000E+00  0.38580517371E+02  0.38580517371E+02  0.00000000000E+00 0.  1.
         -2   -1    0    0    0  501 -0.00000000000E+00 -0.00000000000E+00 -0.15779212237E+02  0.15779212237E+02  0.00000000000E+00 0.  1.
          2    1    1    2  502    0  0.62822715490E+01  0.23667218330E+02  0.80655374190E+01  0.25780943604E+02  0.00000000000E+00 0.  1.
         -2    1    1    2    0  502 -0.62822715490E+01 -0.23667218330E+02  0.14735767715E+02  0.28578786003E+02  0.00000000000E+00 0.  1.
</event>
<event>
 4    1  0.5784609E+003  0.2638747E+02  0.7546771E-02  0.1453860E+00
          2   -1    0    0  501    0  0.00000000000E+00  0.00000000000E+00  0.28678936106E+02  0.28678936106E+02  0.00000000000E+00 0.  1.
         -2   -1    0    0    0  501 -0.00000000000E+00 -0.00000000000E+00 -0.36218658613E+02  0.36218658613E+02  0.00000000000E+00 0. -1.
          2    1    1    2  502    0 -0.15782090409E+02 -0.21147676299E+02  0.14860731224E+02  0.30284318105E+02  0.00000000000E+00 0.  1.
         -2    1    1    2    0  502  0.15782090409E+02  0.21147676299E+02 -0.22400453732E+02  0.34613276614E+02  0.00000000000E+00 0. -1.
</event>
<event>
 4    1  0.5784609E+003  0.3428666E+02  0.7546771E-02  0.1385649E+00
          2   -1    0    0  501    0  0.00000000000E+00  0.00000000000E+00  0.19384180225E+03  0.19384180225E+03  0.00000000000E+00 0. -1.
         -2   -1    0    0    0  501 -0.00000000000E+00 -0.00000000000E+00 -0.31846839395E+03  0.31846839395E+03  0.00000000000E+00 0. -1.
          2    1    1    2  502    0  0.11991563803E+02 -0.32121297582E+02  0.19139109067E+03  0.19443797198E+03  0.00000000000E+00 0. -1.
         -2    1    1    2    0  502 -0.11991563803E+02  0.32121297582E+02 -0.31601768237E+03  0.31787222422E+03  0.00000000000E+00 0. -1.
</event>
<event>
 4    1  0.5784609E+003  0.2729942E+02  0.7546771E-02  0.1444623E+00
          2   -1    0    0  501    0  0.00000000000E+00  0.00000000000E+00  0.41873716669E+03  0.41873716669E+03  0.00000000000E+00 0. -1.
         -2   -1    0    0    0  501 -0.00000000000E+00 -0.00000000000E+00 -0.18607268759E+03  0.18607268759E+03  0.00000000000E+00 0.  1.
          2    1    1    2  502    0  0.25869657571E+02 -0.87188999705E+01  0.41728744762E+03  0.41817947383E+03  0.00000000000E+00 0. -1.
         -2    1    1    2    0  502 -0.25869657571E+02  0.87188999705E+01 -0.18462296851E+03  0.18663038044E+03  0.00000000000E+00 0.  1.
</event>
<event>
 4    1  0.5784609E+003  0.3425278E+02  0.7546771E-02  0.1385894E+00
          2   -1    0    0  501    0  0.00000000000E+00  0.00000000000E+00  0.45956430742E+03  0.45956430742E+03  0.00000000000E+00 0.  1.
         -2   -1    0    0    0  501 -0.00000000000E+00 -0.00000000000E+00 -0.72168607228E+02  0.72168607228E+02  0.00000000000E+00 0.  1.
          2    1    1    2  502    0 -0.29154125890E+02 -0.17980273109E+02  0.45481944650E+03  0.45610742396E+03  0.00000000000E+00 0.  1.
         -2    1    1    2    0  502  0.29154125890E+02  0.17980273109E+02 -0.67423746301E+02  0.75625490694E+02  0.00000000000E+00 0.  1.
</event>
<event>
 4    1  0.5784609E+003  0.2024432E+02  0.7546771E-02  0.1530333E+00
          2   -1    0    0  501    0  0.00000000000E+00  0.00000000000E+00  0.54998168576E+02  0.54998168576E+02  0.00000000000E+00 0. -1.
         -2   -1    0    0    0  501 -0.00000000000E+00 -0.00000000000E+00 -0.31169634726E+02  0.31169634726E+02  0.00000000000E+00 0.  1.
          2    1    1    2  502    0 -0.27533845786E+01 -0.20056202621E+02  0.49496898083E+02  0.53476867056E+02  0.00000000000E+00 0. -1.
         -2    1    1    2    0  502  0.27533845786E+01  0.20056202621E+02 -0.25668364234E+02  0.32690936246E+02  0.00000000000E+00 0.  1.
</event>
<event>
 4    1  0.5784609E+003  0.6108270E+02  0.7546771E-02  0.1256198E+00
          2   -1    0    0  501    0  0.00000000000E+00  0.00000000000E+00  0.89862917679E+03  0.89862917679E+03  0.00000000000E+00 0. -1.
         -2   -1    0    0    0  501 -0.00000000000E+00 -0.00000000000E+00 -0.60472805146E+02  0.60472805146E+02  0.00000000000E+00 0. -1.
          2    1    1    2  502    0 -0.57156246825E+02  0.21546693979E+02  0.88187377734E+03  0.88398668300E+03  0.00000000000E+00 0. -1.
         -2    1    1    2    0  502  0.57156246825E+02 -0.21546693979E+02 -0.43717405696E+02  0.75115298930E+02  0.00000000000E+00 0. -1.
</event>
<event>
 4    1  0.5784609E+003  0.3941448E+02  0.7546771E-02  0.1351951E+00
          2   -1    0    0  501    0  0.00000000000E+00  0.00000000000E+00  0.15316780370E+04  0.15316780370E+04  0.00000000000E+00 0.  1.
         -2   -1    0    0    0  501 -0.00000000000E+00 -0.00000000000E+00 -0.40248678793E+02  0.40248678793E+02  0.00000000000E+00 0.  1.
          2    1    1    2  502    0 -0.25487757451E+02 -0.30064522502E+02  0.15217118958E+04  0.15222222555E+04  0.00000000000E+00 0.  1.
         -2    1    1    2    0  502  0.25487757451E+02  0.30064522502E+02 -0.30282537578E+02  0.49704460316E+02  0.00000000000E+00 0.  1.
</event>
<event>
 4    1  0.5784609E+003  0.2697718E+02  0.7546771E-02  0.1447837E+00
          2   -1    0    0  501    0  0.00000000000E+00  0.00000000000E+00  0.82633145504E+03  0.82633145504E+03  0.00000000000E+00 0.  1.
         -2   -1    0    0    0  501 -0.00000000000E+00 -0.00000000000E+00 -0.15566222493E+01  0.15566222493E+01  0.00000000000E+00 0.  1.
          2    1    1    2  502    0  0.14250752698E+02  0.22905986071E+02  0.68515413178E+03  0.68568502422E+03  0.00000000000E+00 0.  1.
         -2    1    1    2    0  502 -0.14250752698E+02 -0.22905986071E+02  0.13962070102E+03  0.14220305307E+03  0.00000000000E+00 0.  1.
</event>
<event>
 4    1  0.5784609E+003  0.2070981E+02  0.7546771E-02  0.1523449E+00
          2   -1    0    0  501    0  0.00000000000E+00  0.00000000000E+00  0.19329654881E+03  0.19329654881E+03  0.00000000000E+00 0.  1.
         -2   -1    0    0    0  501 -0.00000000000E+00 -0.00000000000E+00 -0.20112808670E+02  0.20112808670E+02  0.00000000000E+00 0. -1.
          2    1    1    2  502    0  0.20656062465E+02  0.14910446605E+01  0.18723874883E+03  0.18838058604E+03  0.00000000000E+00 0.  1.
         -2    1    1    2    0  502 -0.20656062465E+02 -0.14910446605E+01 -0.14055008691E+02  0.25028771445E+02  0.00000000000E+00 0. -1.
</event>
<event>
 4    1  0.5784609E+003  0.2178393E+02  0.7546771E-02  0.1508360E+00
          2   -1    0    0  501    0  0.00000000000E+00  0.00000000000E+00  0.10861726246E+03  0.10861726246E+03  0.00000000000E+00 0.  1.
         -2   -1    0    0    0  501 -0.00000000000E+00 -0.00000000000E+00 -0.65763269259E+02  0.65763269259E+02  0.00000000000E+00 0. -1.
          2    1    1    2  502    0  0.75551378742E+01 -0.20431828964E+02  0.10567129490E+03  0.10789329131E+03  0.00000000000E+00 0.  1.
         -2    1    1    2    0  502 -0.75551378742E+01  0.20431828964E+02 -0.62817301707E+02  0.66487240406E+02  0.00000000000E+00 0. -1.
</event>
<event>
 4    1  0.5784609E+003  0.2134574E+02  0.7546771E-02  0.1514385E+00
          2   -1    0    0  501    0  0.00000000000E+00  0.00000000000E+00  0.49417380598E+03  0.49417380598E+03  0.00000000000E+00 0.  1.
         -2   -1    0    0    0  501 -0.00000000000E+00 -0.00000000000E+00 -0.54245513001E+01  0.54245513001E+01  0.00000000000E+00 0. -1.
          2    1    1    2  502    0 -0.14253129032E+02 -0.15889902789E+02  0.47195626363E+03  0.47243873198E+03  0.00000000000E+00 0.  1.
         -2    1    1    2    0  502  0.14253129032E+02  0.15889902789E+02  0.16792991049E+02  0.27159625296E+02  0.00000000000E+00 0. -1.
</event>
<event>
 4    1  0.5784609E+003  0.2039058E+02  0.7546771E-02  0.1528146E+00
          2   -1    0    0  501    0  0.00000000000E+00  0.00000000000E+00  0.52275759183E+02  0.52275759183E+02  0.00000000000E+00 0.  1.
         -2   -1    0    0    0  501 -0.00000000000E+00 -0.00000000000E+00 -0.79640942283E+01  0.79640942283E+01  0.00000000000E+00 0. -1.
          2    1    1    2  502    0 -0.57734176592E+01  0.19556153861E+02  0.21057533654E+02  0.29312032152E+02  0.00000000000E+00 0.  1.
         -2    1    1    2    0  502  0.57734176592E+01 -0.19556153861E+02  0.23254131301E+02  0.30927821260E+02  0.00000000000E+00 0. -1.
</event>
<event>
 4    1  0.5784609E+003  0.2027794E+02  0.7546771E-02  0.1529828E+00
          2   -1    0    0  501    0  0.00000000000E+00  0.00000000000E+00  0.49405682179E+02  0.49405682179E+02  0.00000000000E+00 0.  1.
         -2   -1    0    0    0  501 -0.00000000000E+00 -0.00000000000E+00 -0.17409887750E+02  0.17409887750E+02  0.00000000000E+00 0.  1.
          2    1    1    2  502    0 -0.14427733977E+02 -0.14249049362E+02  0.40133682097E+02  0.44965624137E+02  0.00000000000E+00 0.  1.
         -2    1    1    2    0  502  0.14427733977E+02  0.14249049362E+02 -0.81378876670E+01  0.21849945792E+02  0.00000000000E+00 0.  1.
</event>
<event>
 4    1  0.5784609E+003  0.2097510E+02  0.7546771E-02  0.1519621E+00
          2   -1    0    0  501    0  0.00000000000E+00  0.00000000000E+00  0.51367622846E+03  0.51367622846E+03  0.00000000000E+00 0. -1.
         -2   -1    0    0    0  501 -0.00000000000E+00 -0.00000000000E+00 -0.30052645375E+02  0.30052645375E+02  0.00000000000E+00 0.  1.
          2    1    1    2  502    0  0.75824393115E+01 -0.19556623015E+02  0.50977423743E+03  0.51020557429E+03  0.00000000000E+00 0. -1.
         -2    1    1    2    0  502 -0.75824393115E+01  0.19556623015E+02 -0.26150654345E+02  0.33523299544E+02  0.00000000000E+00 0.  1.
</event>
<event>
 4    1  0.5784609E+003  0.2121921E+02  0.7546771E-02  0.1516158E+00
          2   -1    0    0  501    0  0.00000000000E+00  0.00000000000E+00  0.83278505751E+03  0.83278505751E+03  0.00000000000E+00 0.  1.
         -2   -1    0    0    0  501 -0.00000000000E+00 -0.00000000000E+00 -0.54792860143E+02  0.54792860143E+02  0.00000000000E+00 0.  1.
          2    1    1    2  502    0 -0.13587772541E+02 -0.16298082658E+02  0.83059011308E+03  0.83086111415E+03  0.00000000000E+00 0.  1.
         -2    1    1    2    0  502  0.13587772541E+02  0.16298082658E+02 -0.52597915719E+02  0.56716803497E+02  0.00000000000E+00 0.  1.
</event>
<event>
 4    1  0.5784609E+003  0.2978814E+02  0.7546771E-02  0.1421447E+00
          2   -1    0    0  501    0  0.00000000000E+00  0.00000000000E+00  0.39698450527E+03  0.39698450527E+03  0.00000000000E+00 0. -1.
         -2   -1    0    0    0  501 -0.00000000000E+00 -0.00000000000E+00 -0.24169485657E+02  0.24169485657E+02  0.00000000000E+00 0. -1.
          2    1    1    2  502    0 -0.12827021129E+02 -0.26884958175E+02  0.38701129606E+03  0.38815599535E+03  0.00000000000E+00 0. -1.
         -2    1    1    2    0  502  0.12827021129E+02  0.26884958175E+02 -0.14196276448E+02  0.32997995578E+02  0.00000000000E+00 0. -1.
</event>
<event>
 4    1  0.5784609E+003  0.2512122E+02  0.7546771E-02  0.1467452E+00
          2   -1    0    0  501    0  0.00000000000E+00  0.00000000000E+00  0.20288075897E+04  0.20288075897E+04  0.00000000000E+00 0. -1.
         -2   -1    0    0    0  501 -0.00000000000E+00 -0.00000000000E+00 -0.83245319869E+00  0.83245319869E+00  0.00000000000E+00 0. -1.
          2    1    1    2  502    0 -0.24306572876E+02  0.63455556337E+01  0.18171305861E+04  0.18173042240E+04  0.00000000000E+00 0. -1.
         -2    1    1    2    0  502  0.24306572876E+02 -0.63455556337E+01  0.21084455041E+03  0.21233581893E+03  0.00000000000E+00 0. -1.
</event>
<event>
 4    1  0.5784609E+003  0.3184239E+02  0.7546771E-02  0.1404234E+00
          2   -1    0    0  501    0  0.00000000000E+00  0.00000000000E+00  0.77659210763E+03  0.77659210763E+03  0.00000000000E+00 0. -1.
         -2   -1    0    0    0  501 -0.00000000000E+00 -0.00000000000E+00 -0.18784927639E+02  0.18784927639E+02  0.00000000000E+00 0. -1.
          2    1    1    2  502    0  0.20380700197E+02 -0.24465591373E+02  0.76252279332E+03  0.76318736129E+03  0.00000000000E+00 0. -1.
         -2    1    1    2    0  502 -0.20380700197E+02  0.24465591373E+02 -0.47156133294E+01  0.32189673978E+02  0.00000000000E+00 0. -1.
</event>
<event>
 4    1  0.5784609E+003  0.2033739E+02  0.7546771E-02  0.1528939E+00
          2   -1    0    0  501    0  0.00000000000E+00  0.00000000000E+00  0.13341667070E+04  0.13341667070E+04  0.00000000000E+00 0.  1.
         -2   -1    0    0    0  501 -0.00000000000E+00 -0.00000000000E+00 -0.17744400011E+01  0.17744400011E+01  0.00000000000E+00 0.  1.
          2    1    1    2  502    0  0.76945106868E+01  0.18825614909E+02  0.12730170015E+04  0.12731794436E+04  0.00000000000E+00 0.  1.
         -2    1    1    2    0  502 -0.76945106868E+01 -0.18825614909E+02  0.59375265427E+02  0.62761703417E+02  0.00000000000E+00 0.  1.
</event>
<event>
 4    1  0.5784609E+003  0.2257602E+02  0.7546771E-02  0.1497892E+00
          2   -1    0    0  501    0  0.00000000000E+00  0.00000000000E+00  0.10916120289E+04  0.10916120289E+04  0.00000000000E+00 0.  1.
         -2   -1    0    0    0  501 -0.00000000000E+00 -0.00000000000E+00 -0.55029834369E+00  0.55029834369E+00  0.00000000000E+00 0. -1.
          2    1    1    2  502    0  0.20462457405E+02 -0.95375292911E+01  0.75811444599E+03  0.75845051905E+03  0.00000000000E+00 0.  1.
         -2    1    1    2    0  502 -0.20462457405E+02  0.95375292911E+01  0.33294728457E+03  0.33371180820E+03  0.00000000000E+00 0. -1.
</event>
<event>
 4    1  0.5784609E+003  0.2921504E+02  0.7546771E-02  0.1426543E+00
          2   -1    0    0  501    0  0.00000000000E+00  0.00000000000E+00  0.97324568675E+02  0.97324568675E+02  0.00000000000E+00 0. -1.
         -2   -1    0    0    0  501 -0.00000000000E+00 -0.00000000000E+00 -0.35963867213E+02  0.35963867213E+02  0.00000000000E+00 0. -1.
          2    1    1    2  502    0 -0.19316355406E+02 -0.21917962644E+02  0.88632057281E+02  0.93322881709E+02  0.00000000000E+00 0. -1.
         -2    1    1    2    0  502  0.19316355406E+02  0.21917962644E+02 -0.27271355819E+02  0.39965554179E+02  0.00000000000E+00 0. -1.
</event>
<event>
 4    1  0.5784609E+003  0.2622031E+02  0.7546771E-02  0.1455601E+00
          2   -1    0    0  501    0  0.00000000000E+00  0.00000000000E+00  0.14244563693E+02  0.14244563693E+02  0.00000000000E+00 0.  1.
         -2   -1    0    0    0  501 -0.00000000000E+00 -0.00000000000E+00 -0.60704543810E+02  0.60704543810E+02  0.00000000000E+00 0. -1.
          2    1    1    2  502    0 -0.23564114465E+02  0.11499441275E+02 -0.62655549267E+01  0.26958520336E+02  0.00000000000E+00 0.  1.
         -2    1    1    2    0  502  0.23564114465E+02 -0.11499441275E+02 -0.40194425190E+02  0.47990587166E+02  0.00000000000E+00 0. -1.
</event>
<event>
 4    1  0.5784609E+003  0.2017996E+02  0.7546771E-02  0.1531302E+00
          2   -1    0    0  501    0  0.00000000000E+00  0.00000000000E+00  0.11274113656E+03  0.11274113656E+03  0.00000000000E+00 0. -1.
         -2   -1    0    0    0  501 -0.00000000000E+00 -0.00000000000E+00 -0.38936767077E+01  0.38936767077E+01  0.00000000000E+00 0.  1.
          2    1    1    2  502    0  0.12757922621E+02  0.15635419345E+02  0.70106606713E+02  0.72953185212E+02  0.00000000000E+00 0. -1.
         -2    1    1    2    0  502 -0.12757922621E+02 -0.15635419345E+02  0.38740853141E+02  0.43681628058E+02  0.00000000000E+00 0.  1.
</event>
<event>
 4    1  0.5784609E+003  0.2395792E+02  0.7546771E-02  0.1480808E+00
          2   -1    0    0  501    0  0.00000000000E+00  0.00000000000E+00  0.53088688459E+03  0.53088688459E+03  0.00000000000E+00 0.  1.
         -2   -1    0    0    0  501 -0.00000000000E+00 -0.00000000000E+00 -0.14240146437E+03  0.14240146437E+03  0.00000000000E+00 0.  1.
          2    1    1    2  502    0 -0.21204294380E+02  0.11151664367E+02  0.52960647354E+03  0.53014809114E+03  0.00000000000E+00 0.  1.
         -2    1    1    2    0  502  0.21204294380E+02 -0.11151664367E+02 -0.14112105332E+03  0.14314025782E+03  0.00000000000E+00 0.  1.
</event>
<event>
 4    1  0.5784609E+003  0.2561230E+02  0.7546771E-02  0.1462069E+00
          2   -1    0    0  501    0  0.00000000000E+00  0.00000000000E+00  0.18898379760E+04  0.18898379760E+04  0.00000000000E+00 0.  1.
         -2   -1    0    0    0  501 -0.00000000000E+00 -0.00000000000E+00 -0.55960313461E+00  0.55960313461E+00  0.00000000000E+00 0.  1.
          2    1    1    2  502    0 -0.78192870263E+01  0.24389516022E+02  0.15270791540E+04  0.15272939247E+04  0.00000000000E+00 0.  1.
         -2    1    1    2    0  502  0.78192870263E+01 -0.24389516022E+02  0.36219921879E+03  0.36310365440E+03  0.00000000000E+00 0.  1.
</event>
<event>
 4    1  0.5784609E+003  0.3857319E+02  0.7546771E-02  0.1357056E+00
          2   -1    0    0  501    0  0.00000000000E+00  0.00000000000E+00  0.38401881322E+02  0.38401881322E+02  0.00000000000E+00 0. -1.
         -2   -1    0    0    0  501 -0.00000000000E+00 -0.00000000000E+00 -0.29333512902E+03  0.29333512902E+03  0.00000000000E+00 0.  1.
          2    1    1    2  502    0 -0.85260957503E+01  0.37619100650E+02  0.27059691080E+02  0.47118127338E+02  0.00000000000E+00 0. -1.
         -2    1    1    2    0  502  0.85260957503E+01 -0.37619100650E+02 -0.28199293878E+03  0.28461888301E+03  0.00000000000E+00 0.  1.
</event>
<event>
 4    1  0.5784609E+003  0.3537554E+02  0.7546771E-02  0.1377942E+00
          2   -1    0    0  501    0  0.00000000000E+00  0.00000000000E+00  0.95085830122E+02  0.95085830122E+02  0.00000000000E+00 0.  1.
         -2   -1    0    0    0  501 -0.00000000000E+00 -0.00000000000E+00 -0.22966797817E+02  0.22966797817E+02  0.00000000000E+00 0.  1.
          2    1    1    2  502    0  0.23533244240E+02 -0.26412404714E+02  0.74628300723E+02  0.82588207245E+02  0.00000000000E+00 0.  1.
         -2    1    1    2    0  502 -0.23533244240E+02  0.26412404714E+02 -0.25092684178E+01  0.35464420695E+02  0.00000000000E+00 0.  1.
</event>
<event>
 4    1  0.5784609E+003  0.2107743E+02  0.7546771E-02  0.1518162E+00
          2   -1    0    0  501    0  0.00000000000E+00  0.00000000000E+00  0.11078029918E+04  0.11078029918E+04  0.00000000000E+00 0. -1.
         -2   -1    0    0    0  501 -0.00000000000E+00 -0.00000000000E+00 -0.26623915949E+01  0.26623915949E+01  0.00000000000E+00 0. -1.
          2    1    1    2  502    0  0.87170296533E+01  0.19190398349E+02  0.10642809266E+04  0.10644896189E+04  0.00000000000E+00 0. -1.
         -2    1    1    2    0  502 -0.87170296533E+01 -0.19190398349E+02  0.40859673590E+02  0.45975764492E+02  0.00000000000E+00 0. -1.
</event>
<event>
 4    1  0.5784609E+003  0.3998674E+02  0.7546771E-02  0.1348564E+00
          2   -1    0    0  501    0  0.00000000000E+00  0.00000000000E+00  0.21796175700E+04  0.21796175700E+04  0.00000000000E+00 0.  1.
         -2   -1    0    0    0  501 -0.00000000000E+00 -0.00000000000E+00 -0.16588539624E+03  0.16588539624E+03  0.00000000000E+00 0. -1.
          2    1    1    2  502    0 -0.28509602805E+02 -0.28038217613E+02  0.21770215956E+04  0.21773887955E+04  0.00000000000E+00 0.  1.
         -2    1    1    2    0  502  0.28509602805E+02  0.28038217613E+02 -0.16328942187E+03  0.16811417071E+03  0.00000000000E+00 0. -1.
</event>
<event>
 4    1  0.5784609E+003  0.2264312E+02  0.7546771E-02  0.1497029E+00
          2   -1    0    0  501    0  0.00000000000E+00  0.00000000000E+00  0.76581796702E+03  0.76581796702E+03  0.00000000000E+00 0.  1.
         -2   -1    0    0    0  501 -0.00000000000E+00 -0.00000000000E+00 -0.71707264560E+01  0.71707264560E+01  0.00000000000E+00 0.  1.
          2    1    1    2  502    0  0.11816527663E+02  0.19315292731E+02  0.74733343494E+03  0.74767638309E+03  0.00000000000E+00 0.  1.
         -2    1    1    2    0  502 -0.11816527663E+02 -0.19315292731E+02  0.11313805630E+02  0.25312310387E+02  0.00000000000E+00 0.  1.
</event>
<event>
 4    1  0.5784609E+003  0.2401040E+02  0.7546771E-02  0.1480186E+00
          2   -1    0    0  501    0  0.00000000000E+00  0.00000000000E+00  0.16921801614E+04  0.16921801614E+04  0.00000000000E+00 0.  1.
         -2   -1    0    0    0  501 -0.00000000000E+00 -0.00000000000E+00 -0.98263935257E+00  0.98263935257E+00  0.00000000000E+00 0.  1.
          2    1    1    2  502    0 -0.20977710528E+02 -0.11680529259E+02  0.15298632138E+04  0.15300516174E+04  0.00000000000E+00 0.  1.
         -2    1    1    2    0  502  0.20977710528E+02  0.11680529259E+02  0.16133430823E+03  0.16311118329E+03  0.00000000000E+00 0.  1.
</event>
<event>
 4    1  0.5784609E+003  0.4163746E+02  0.7546771E-02  0.1339149E+00
          2   -1    0    0  501    0  0.00000000000E+00  0.00000000000E+00  0.25968711118E+03  0.25968711118E+03  0.00000000000E+00 0.  1.
         -2   -1    0    0    0  501 -0.00000000000E+00 -0.00000000000E+00 -0.73242651329E+02  0.73242651329E+02  0.00000000000E+00 0. -1.
          2    1    1    2  502    0 -0.30884122119E+02  0.27925778204E+02  0.25191928392E+03  0.25533703942E+03  0.00000000000E+00 0.  1.
         -2    1    1    2    0  502  0.30884122119E+02 -0.27925778204E+02 -0.65474824079E+02  0.77592723083E+02  0.00000000000E+00 0. -1.
</event>
<event>
 4    1  0.5784609E+003  0.5322527E+02  0.7546771E-02  0.1284763E+00
          2   -1    0    0  501    0  0.00000000000E+00  0.00000000000E+00  0.82405730580E+02  0.82405730580E+02  0.00000000000E+00 0.  1.
         -2   -1    0    0    0  501 -0.00000000000E+00 -0.00000000000E+00 -0.34386353429E+02  0.34386353429E+02  0.00000000000E+00 0. -1.
          2    1    1    2  502    0  0.44858251939E+02  0.28647228701E+02  0.23087873442E+02  0.58017035252E+02  0.00000000000E+00 0.  1.
         -2    1    1    2    0  502 -0.44858251939E+02 -0.28647228701E+02  0.24931503709E+02  0.58775048758E+02  0.00000000000E+00 0. -1.
</event>
<event>
 4    1  0.5784609E+003  0.4907395E+02  0.7546771E-02  0.1302238E+00
          2   -1    0    0  501    0  0.00000000000E+00  0.00000000000E+00  0.27224655725E+04  0.27224655725E+04  0.00000000000E+00 0.  1.
         -2   -1    0    0    0  501 -0.00000000000E+00 -0.00000000000E+00 -0.18606358934E+01  0.18606358934E+01  0.00000000000E+00 0. -1.
          2    1    1    2  502    0 -0.10875991781E+02 -0.47853579255E+02  0.23468877770E+04  0.23474007945E+04  0.00000000000E+00 0.  1.
         -2    1    1    2    0  502  0.10875991781E+02  0.47853579255E+02  0.37371715955E+03  0.37692541383E+03  0.00000000000E+00 0. -1.
</event>
<event>
 4    1  0.5784609E+003  0.1417482E+03  0.7546771E-02  0.1106389E+00
          2   -1    0    0  501    0  0.00000000000E+00  0.00000000000E+00  0.92115800015E+03  0.92115800015E+03  0.00000000000E+00 0. -1.
         -2   -1    0    0    0  501 -0.00000000000E+00 -0.00000000000E+00 -0.34084448832E+02  0.34084448832E+02  0.00000000000E+00 0.  1.
          2    1    1    2  502    0 -0.74108173297E+02  0.12083260154E+03  0.73013036557E+03  0.74376265682E+03  0.00000000000E+00 0. -1.
         -2    1    1    2    0  502  0.74108173297E+02 -0.12083260154E+03  0.15694318575E+03  0.21147979217E+03  0.00000000000E+00 0.  1.
</event>
<event>
 4    1  0.5784609E+003  0.2022092E+02  0.7546771E-02  0.1530685E+00
          2   -1    0    0  501    0  0.00000000000E+00  0.00000000000E+00  0.35332839721E+03  0.35332839721E+03  0.00000000000E+00 0. -1.
         -2   -1    0    0    0  501 -0.00000000000E+00 -0.00000000000E+00 -0.48483658734E+01  0.48483658734E+01  0.00000000000E+00 0. -1.
          2    1    1    2  502    0 -0.19016383606E+02  0.68747850373E+01  0.33050050736E+03  0.33111851485E+03  0.00000000000E+00 0. -1.
         -2    1    1    2    0  502  0.19016383606E+02 -0.68747850373E+01  0.17979523976E+02  0.27058248228E+02  0.00000000000E+00 0. -1.
</event>
<event>
 4    1  0.5784609E+003  0.2874332E+02  0.7546771E-02  0.1430841E+00
          2   -1    0    0  501    0  0.00000000000E+00  0.00000000000E+00  0.10893873632E+04  0.10893873632E+04  0.00000000000E+00 0.  1.
         -2   -1    0    0    0  501 -0.00000000000E+00 -0.00000000000E+00 -0.11294723512E+01  0.11294723512E+01  0.00000000000E+00 0.  1.
          2    1    1    2  502    0 -0.21487235729E+02  0.19091286219E+02  0.85666547604E+03  0.85714754643E+03  0.00000000000E+00 0.  1.
         -2    1    1    2    0  502  0.21487235729E+02 -0.19091286219E+02  0.23159241479E+03  0.23336928910E+03  0.00000000000E+00 0.  1.
</event>
<event>
 4    1  0.5784609E+003  0.2836133E+02  0.7546771E-02  0.1434393E+00
          2   -1    0    0  501    0  0.00000000000E+00  0.00000000000E+00  0.55688628569E+03  0.55688628569E+03  0.00000000000E+00 0.  1.
         -2   -1    0    0    0  501 -0.00000000000E+00 -0.00000000000E+00 -0.17271272220E+01  0.17271272220E+01  0.00000000000E+00 0.  1.
          2    1    1    2  502    0  0.27327764887E+02 -0.75867183422E+01  0.39058651819E+03  0.39161485316E+03  0.00000000000E+00 0.  1.
         -2    1    1    2    0  502 -0.27327764887E+02  0.75867183422E+01  0.16457264028E+03  0.16699855975E+03  0.00000000000E+00 0.  1.
</event>
<event>
 4    1  0.5784609E+003  0.2082668E+02  0.7546771E-02  0.1521754E+00
          2   -1    0    0  501    0  0.00000000000E+00  0.00000000000E+00  0.30684745105E+03  0.30684745105E+03  0.00000000000E+00 0. -1.
         -2   -1    0    0    0  501 -0.00000000000E+00 -0.00000000000E+00 -0.23677029655E+02  0.23677029655E+02  0.00000000000E+00 0.  1.
          2    1    1    2  502    0  0.15136609364E+02  0.14305026909E+02  0.30183827439E+03  0.30255593635E+03  0.00000000000E+00 0. -1.
         -2    1    1    2    0  502 -0.15136609364E+02 -0.14305026909E+02 -0.18667852991E+02  0.27968544353E+02  0.00000000000E+00 0.  1.
</event>
<event>
 4    1  0.5784609E+003  0.2491981E+02  0.7546771E-02  0.1469703E+00
          2   -1    0    0  501    0  0.00000000000E+00  0.00000000000E+00  0.38419346811E+03  0.38419346811E+03  0.00000000000E+00 0. -1.
         -2   -1    0    0    0  501 -0.00000000000E+00 -0.00000000000E+00 -0.56419549011E+02  0.56419549011E+02  0.00000000000E+00 0. -1.
          2    1    1    2  502    0  0.81675894018E+01 -0.23543307236E+02  0.38101475292E+03  0.38182880821E+03  0.00000000000E+00 0. -1.
         -2    1    1    2    0  502 -0.81675894018E+01  0.23543307236E+02 -0.53240833819E+02  0.58784208917E+02  0.00000000000E+00 0. -1.
</event>
<event>
 4    1  0.5784609E+003  0.2682890E+02  0.7546771E-02  0.1449334E+00
          2   -1    0    0  501    0  0.00000000000E+00  0.00000000000E+00  0.48111640173E+02  0.48111640173E+02  0.00000000000E+00 0.  1.
         -2   -1    0    0    0  501 -0.00000000000E+00 -0.00000000000E+00 -0.27467094991E+02  0.27467094991E+02  0.00000000000E+00 0.  1.
          2    1    1    2  502    0 -0.25164626230E+02  0.93022171451E+01  0.35821511697E+02  0.44754556834E+02  0.00000000000E+00 0.  1.
         -2    1    1    2    0  502  0.25164626230E+02 -0.93022171451E+01 -0.15176966516E+02  0.30824178330E+02  0.00000000000E+00 0.  1.
</event>
<event>
 4    1  0.5784609E+003  0.2572099E+02  0.7546771E-02  0.1460897E+00
          2   -1    0    0  501    0  0.00000000000E+00  0.00000000000E+00  0.54608884746E+03  0.54608884746E+03  0.00000000000E+00 0.  1.
         -2   -1    0    0    0  501 -0.00000000000E+00 -0.00000000000E+00 -0.25618780351E+02  0.25618780351E+02  0.00000000000E+00 0.  1.
          2    1    1    2  502    0 -0.22663317908E+02 -0.12163203129E+02  0.53924822719E+03  0.53986129702E+03  0.00000000000E+00 0.  1.
         -2    1    1    2    0  502  0.22663317908E+02  0.12163203129E+02 -0.18778160081E+02  0.31846330793E+02  0.00000000000E+00 0.  1.
</event>
<event>
 4    1  0.5784609E+003  0.3512465E+02  0.7546771E-02  0.1379689E+00
          2   -1    0    0  501    0  0.00000000000E+00  0.00000000000E+00  0.14623842415E+03  0.14623842415E+03  0.00000000000E+00 0.  1.
         -2   -1    0    0    0  501 -0.00000000000E+00 -0.00000000000E+00 -0.11276823144E+02  0.11276823144E+02  0.00000000000E+00 0. -1.
          2    1    1    2  502    0  0.35123575396E+02 -0.27437044929E+00  0.10700680411E+03  0.11262414019E+03  0.00000000000E+00 0.  1.
         -2    1    1    2    0  502 -0.35123575396E+02  0.27437044929E+00  0.27954796905E+02  0.44891107112E+02  0.00000000000E+00 0. -1.
</event>
<event>
 4    1  0.5784609E+003  0.2192387E+02  0.7546771E-02  0.1506472E+00
          2   -1    0    0  501    0  0.00000000000E+00  0.00000000000E+00  0.38575684558E+03  0.38575684558E+03  0.00000000000E+00 0.  1.
         -2   -1    0    0    0  501 -0.00000000000E+00 -0.00000000000E+00 -0.19582244104E+01  0.19582244104E+01  0.00000000000E+00 0.  1.
          2    1    1    2  502    0 -0.20729170053E+02 -0.71384512554E+01  0.30881089695E+03  0.30958815554E+03  0.00000000000E+00 0.  1.
         -2    1    1    2    0  502  0.20729170053E+02  0.71384512554E+01  0.74987724216E+02  0.78126914443E+02  0.00000000000E+00 0.  1.
</event>
<event>
 4    1  0.5784609E+003  0.2982684E+02  0.7546771E-02  0.1421107E+00
          2   -1    0    0  501    0  0.00000000000E+00  0.00000000000E+00  0.40679611485E+02  0.40679611485E+02  0.00000000000E+00 0.  1.
         -2   -1    0    0    0  501 -0.00000000000E+00 -0.00000000000E+00 -0.56889746256E+02  0.56889746256E+02  0.00000000000E+00 0. -1.
          2    1    1    2  502    0 -0.22814306546E+02  0.19213214449E+02  0.30170923445E+02  0.42425520789E+02  0.00000000000E+00 0.  1.
         -2    1    1    2    0  502  0.22814306546E+02 -0.19213214449E+02 -0.46381058216E+02  0.55143836953E+02  0.00000000000E+00 0. -1.
</event>
<event>
 4    1  0.5784609E+003  0.3656902E+02  0.7546771E-02  0.1369856E+00
          2   -1    0    0  501    0  0.00000000000E+00  0.00000000000E+00  0.21036636081E+03  0.21036636081E+03  0.00000000000E+00 0.  1.
         -2   -1    0    0    0  501 -0.00000000000E+00 -0.00000000000E+00 -0.74035586293E+01  0.74035586293E+01  0.00000000000E+00 0. -1.
          2    1    1    2  502    0  0.36538460368E+02 -0.14947453042E+01  0.14242018574E+03  0.14704013960E+03  0.00000000000E+00 0.  1.
         -2    1    1    2    0  502 -0.36538460368E+02  0.14947453042E+01  0.60542616443E+02  0.70729779834E+02  0.00000000000E+00 0. -1.
</event>
<event>
 4    1  0.5784609E+003  0.2436784E+02  0.7546771E-02  0.1476001E+00
          2   -1    0    0  501    0  0.00000000000E+00  0.00000000000E+00  0.49768037807E+01  0.49768037807E+01  0.00000000000E+00 0. -1.
         -2   -1    0    0    0  501 -0.00000000000E+00 -0.00000000000E+00 -0.18496317920E+03  0.18496317920E+03  0.00000000000E+00 0. -1.
          2    1    1    2  502    0  0.20019861748E+02  0.13892321336E+02 -0.33412833839E+02  0.41354672308E+02  0.00000000000E+00 0. -1.
         -2    1    1    2    0  502 -0.20019861748E+02 -0.13892321336E+02 -0.14657354158E+03  0.14858531068E+03  0.00000000000E+00 0. -1.
</event>
<event>
 4    1  0.5784609E+003  0.2322081E+02  0.7546771E-02  0.1489744E+00
          2   -1    0    0  501    0  0.00000000000E+00  0.00000000000E+00  0.42588393075E+03  0.42588393075E+03  0.00000000000E+00 0. -1.
         -2   -1    0    0    0  501 -0.00000000000E+00 -0.00000000000E+00 -0.37314985393E+01  0.37314985393E+01  0.00000000000E+00 0. -1.
          2    1    1    2  502    0  0.22762095642E+02 -0.45927047176E+01  0.38567973206E+03  0.38637813300E+03  0.00000000000E+00 0. -1.
         -2    1    1    2    0  502 -0.22762095642E+02  0.45927047176E+01  0.36472700154E+02  0.43237296297E+02  0.00000000000E+00 0. -1.
</event>
<event>
 4    1  0.5784609E+003  0.3317371E+02  0.7546771E-02  0.1393878E+00
          2   -1    0    0  501    0  0.00000000000E+00  0.00000000000E+00  0.20741090054E+04  0.20741090054E+04  0.00000000000E+00 0. -1.
         -2   -1    0    0    0  501 -0.00000000000E+00 -0.00000000000E+00 -0.11711389642E+03  0.11711389642E+03  0.00000000000E+00 0.  1.
          2    1    1    2  502    0  0.29273136806E+02 -0.15607009641E+02  0.20716243425E+04  0.20718899371E+04  0.00000000000E+00 0. -1.
         -2    1    1    2    0  502 -0.29273136806E+02  0.15607009641E+02 -0.11462923349E+03  0.11933296468E+03  0.00000000000E+00 0.  1.
</event>
<event>
 4    1  0.5784609E+003  0.2820411E+02  0.7546771E-02  0.1435874E+00
          2   -1    0    0  501    0  0.00000000000E+00  0.00000000000E+00  0.20213620889E+03  0.20213620889E+03  0.00000000000E+00 0.  1.
         -2   -1    0    0    0  501 -0.00000000000E+00 -0.00000000000E+00 -0.85076097247E+01  0.85076097247E+01  0.00000000000E+00 0.  1.
          2    1    1    2  502    0  0.47246649233E+01  0.27805565942E+02  0.17402571462E+03  0.17629640185E+03  0.00000000000E+00 0.  1.
         -2    1    1    2    0  502 -0.47246649233E+01 -0.27805565942E+02  0.19602884546E+02  0.34347416766E+02  0.00000000000E+00 0.  1.
</event>
<event>
 4    1  0.5784609E+003  0.2262204E+02  0.7546771E-02  0.1497300E+00
          2   -1    0    0  501    0  0.00000000000E+00  0.00000000000E+00  0.16385099367E+03  0.16385099367E+03  0.00000000000E+00 0.  1.
         -2   -1    0    0    0  501 -0.00000000000E+00 -0.00000000000E+00 -0.14091875974E+03  0.14091875974E+03  0.00000000000E+00 0. -1.
          2    1    1    2  502    0 -0.10911350459E+02 -0.19816632063E+02  0.16215281263E+03  0.16372321497E+03  0.00000000000E+00 0.  1.
         -2    1    1    2    0  502  0.10911350459E+02  0.19816632063E+02 -0.13922057869E+03  0.14104653844E+03  0.00000000000E+00 0. -1.
</event>
<event>
 4    1  0.5784609E+003  0.3860467E+02  0.7546771E-02  0.1356862E+00
          2   -1    0    0  501    0  0.00000000000E+00  0.00000000000E+00  0.91432038388E+01  0.91432038388E+01  0.00000000000E+00 0.  1.
         -2   -1    0    0    0  501 -0.00000000000E+00 -0.00000000000E+00 -0.18823339456E+03  0.18823339456E+03  0.00000000000E+00 0.  1.
          2    1    1    2  502    0  0.36171500212E+01  0.38434833315E+02 -0.53410274250E+02  0.65901271472E+02  0.00000000000E+00 0.  1.
         -2    1    1    2    0  502 -0.36171500212E+01 -0.38434833315E+02 -0.12567991647E+03  0.13147532693E+03  0.00000000000E+00 0.  1.
</event>
<event>
 4    1  0.5784609E+003  0.2219691E+02  0.7546771E-02  0.1502837E+00
          2   -1    0    0  501    0  0.00000000000E+00  0.00000000000E+00  0.24135944716E+02  0.24135944716E+02  0.00000000000E+00 0.  1.
         -2   -1    0    0    0  501 -0.00000000000E+00 -0.00000000000E+00 -0.26263744058E+02  0.26263744058E+02  0.00000000000E+00 0.  1.
          2    1    1    2  502    0  0.19441651494E+02 -0.10710967875E+02  0.10829365201E+02  0.24697728565E+02  0.00000000000E+00 0.  1.
         -2    1    1    2    0  502 -0.19441651494E+02  0.10710967875E+02 -0.12957164542E+02  0.25701960209E+02  0.00000000000E+00 0.  1.
</event>
<event>
 4    1  0.5784609E+003  0.4313752E+02  0.7546771E-02  0.1331020E+00
          2   -1    0    0  501    0  0.00000000000E+00  0.00000000000E+00  0.11006843159E+04  0.11006843159E+04  0.00000000000E+00 0.  1.
         -2   -1    0    0    0  501 -0.00000000000E+00 -0.00000000000E+00 -0.24119024224E+02  0.24119024224E+02  0.00000000000E+00 0. -1.
          2    1    1    2  502    0  0.11380015227E+02  0.41609380188E+02  0.10806154398E+04  0.10814761088E+04  0.00000000000E+00 0.  1.
         -2    1    1    2    0  502 -0.11380015227E+02 -0.41609380188E+02 -0.40501481708E+01  0.43327231234E+02  0.00000000000E+00 0. -1.
</event>
<event>
 4    1  0.5784609E+003  0.2062401E+02  0.7546771E-02  0.1524701E+00
          2   -1    0    0  501    0  0.00000000000E+00  0.00000000000E+00  0.18582684247E+02  0.18582684247E+02  0.00000000000E+00 0.  1.
         -2   -1    0    0    0  501 -0.00000000000E+00 -0.00000000000E+00 -0.13618458021E+03  0.13618458021E+03  0.00000000000E+00 0.  1.
          2    1    1    2  502    0 -0.19482270183E+02 -0.67668861901E+01  0.11780496038E+02  0.23751414423E+02  0.00000000000E+00 0.  1.
         -2    1    1    2    0  502  0.19482270183E+02  0.67668861901E+01 -0.12938239200E+03  0.13101585004E+03  0.00000000000E+00 0.  1.
</event>
<event>
 4    1  0.5784609E+003  0.2282911E+02  0.7546771E-02  0.1494655E+00
          2   -1    0    0  501    0  0.00000000000E+00  0.00000000000E+00  0.17753355694E+01  0.17753355694E+01  0.00000000000E+00 0.  1.
         -2   -1    0    0    0  501 -0.00000000000E+00 -0.00000000000E+00 -0.31574835813E+03  0.31574835813E+03  0.00000000000E+00 0.  1.
          2    1    1    2  502    0  0.80718413166E+01 -0.21354479119E+02 -0.11490093639E+03  0.11714688892E+03  0.00000000000E+00 0.  1.
         -2    1    1    2    0  502 -0.80718413166E+01  0.21354479119E+02 -0.19907208617E+03  0.20037680478E+03  0.00000000000E+00 0.  1.
</event>
<event>
 4    1  0.5784609E+003  0.2589099E+02  0.7546771E-02  0.1459078E+00
          2   -1    0    0  501    0  0.00000000000E+00  0.00000000000E+00  0.85033960456E+01  0.85033960456E+01  0.00000000000E+00 0.  1.
         -2   -1    0    0    0  501 -0.00000000000E+00 -0.00000000000E+00 -0.37542026284E+03  0.37542026284E+03  0.00000000000E+00 0.  1.
          2    1    1    2  502    0 -0.25169829179E+02 -0.60681897914E+01 -0.12837346835E+02  0.28898801048E+02  0.00000000000E+00 0.  1.
         -2    1    1    2    0  502  0.25169829179E+02  0.60681897914E+01 -0.35407951996E+03  0.35502485784E+03  0.00000000000E+00 0.  1.
</event>
<event>
 4    1  0.5784609E+003  0.2118134E+02  0.7546771E-02  0.1516691E+00
          2   -1    0    0  501    0  0.00000000000E+00  0.00000000000E+00  0.11192681544E+02  0.11192681544E+02  0.00000000000E+00 0. -1.
         -2   -1    0    0    0  501 -0.00000000000E+00 -0.00000000000E+00 -0.87716198435E+02  0.87716198435E+02  0.00000000000E+00 0.  1.
          2    1    1    2  502    0  0.14210467727E+02 -0.15707064707E+02 -0.18186883375E+01  0.21259278022E+02  0.00000000000E+00 0. -1.
         -2    1    1    2    0  502 -0.14210467727E+02  0.15707064707E+02 -0.74704828554E+02  0.77649601956E+02  0.00000000000E+00 0.  1.
</event>
<event>
 4    1  0.5784609E+003  0.3502956E+02  0.7546771E-02  0.1380355E+00
          2   -1    0    0  501    0  0.00000000000E+00  0.00000000000E+00  0.16121693913E+03  0.16121693913E+03  0.00000000000E+00 0.  1.
         -2   -1    0    0    0  501 -0.00000000000E+00 -0.00000000000E+00 -0.19789184160E+03  0.19789184160E+03  0.00000000000E+00 0. -1.
          2    1    1    2  502    0  0.39339049695E+01 -0.34807966824E+02  0.15773008028E+03  0.16157304351E+03  0.00000000000E+00 0.  1.
         -2    1    1    2    0  502 -0.39339049695E+01  0.34807966824E+02 -0.19440498275E+03  0.19753573722E+03  0.00000000000E+00 0. -1.
</event>
<event>
 4    1  0.5784609E+003  0.2197143E+02  0.7546771E-02  0.1505834E+00
          2   -1    0    0  501    0  0.00000000000E+00  0.00000000000E+00  0.11246381834E+04  0.11246381834E+04  0.00000000000E+00 0.  1.
         -2   -1    0    0    0  501 -0.00000000000E+00 -0.00000000000E+00 -0.18255697161E+01  0.18255697161E+01  0.00000000000E+00 0. -1.
          2    1    1    2  502    0 -0.21456595554E+02  0.47284329707E+01  0.10539916313E+04  0.10542206137E+04  0.00000000000E+00 0.  1.
         -2    1    1    2    0  502  0.21456595554E+02 -0.47284329707E+01  0.68820982328E+02  0.72243139326E+02  0.00000000000E+00 0. -1.
</event>
<event>
 4    1  0.5784609E+003  0.2232145E+02  0.7546771E-02  0.1501199E+00
          2   -1    0    0  501    0  0.00000000000E+00  0.00000000000E+00  0.48752582518E+01  0.48752582518E+01  0.00000000000E+00 0. -1.
         -2   -1    0    0    0  501 -0.00000000000E+00 -0.00000000000E+00 -0.19371608631E+03  0.19371608631E+03  0.00000000000E+00 0. -1.
          2    1    1    2  502    0 -0.18901545615E+02  0.11873440329E+02 -0.26171093905E+02  0.34397284312E+02  0.00000000000E+00 0. -1.
         -2    1    1    2    0  502  0.18901545615E+02 -0.11873440329E+02 -0.16266973416E+03  0.16419406025E+03  0.00000000000E+00 0. -1.
</event>
<event>
 4    1  0.5784609E+003  0.2734996E+02  0.7546771E-02  0.1444124E+00
          2   -1    0    0  501    0  0.00000000000E+00  0.00000000000E+00  0.75336045289E+03  0.75336045289E+03  0.00000000000E+00 0.  1.
         -2   -1    0    0    0  501 -0.00000000000E+00 -0.00000000000E+00 -0.11436312672E+02  0.11436312672E+02  0.00000000000E+00 0. -1.
          2    1    1    2  502    0 -0.23738779611E+02  0.13582736842E+02  0.73638350061E+03  0.73689122695E+03  0.00000000000E+00 0.  1.
         -2    1    1    2    0  502  0.23738779611E+02 -0.13582736842E+02  0.55406396081E+01  0.27905538604E+02  0.00000000000E+00 0. -1.
</event>
<event>
 4    1  0.5784609E+003  0.2204026E+02  0.7546771E-02  0.1504915E+00
          2   -1    0    0  501    0  0.00000000000E+00  0.00000000000E+00  0.11960457275E+03  0.11960457275E+03  0.00000000000E+00 0.  1.
         -2   -1    0    0    0  501 -0.00000000000E+00 -0.00000000000E+00 -0.15070928985E+02  0.15070928985E+02  0.00000000000E+00 0. -1.
          2    1    1    2  502    0  0.21319742276E+02  0.55894212877E+01  0.10982024317E+03  0.11201008371E+03  0.00000000000E+00 0.  1.
         -2    1    1    2    0  502 -0.21319742276E+02 -0.55894212877E+01 -0.52865994105E+01  0.22665418028E+02  0.00000000000E+00 0. -1.
</event>
<event>
 4    1  0.5784609E+003  0.2271268E+02  0.7546771E-02  0.1496138E+00
          2   -1    0    0  501    0  0.00000000000E+00  0.00000000000E+00  0.87292762120E+03  0.87292762120E+03  0.00000000000E+00 0. -1.
         -2   -1    0    0    0  501 -0.00000000000E+00 -0.00000000000E+00 -0.42528784392E+01  0.42528784392E+01  0.00000000000E+00 0. -1.
          2    1    1    2  502    0 -0.11583104228E+02  0.19537076672E+02  0.84131618094E+03  0.84162270762E+03  0.00000000000E+00 0. -1.
         -2    1    1    2    0  502  0.11583104228E+02 -0.19537076672E+02  0.27358561822E+02  0.35557792021E+02  0.00000000000E+00 0. -1.
</event>
<event>
 4    1  0.5784609E+003  0.2722558E+02  0.7546771E-02  0.1445355E+00
          2   -1    0    0  501    0  0.00000000000E+00  0.00000000000E+00  0.14154593674E+04  0.14154593674E+04  0.00000000000E+00 0.  1.
         -2   -1    0    0    0  501 -0.00000000000E+00 -0.00000000000E+00 -0.23704902982E+02  0.23704902982E+02  0.00000000000E+00 0. -1.
          2    1    1    2  502    0  0.13031127747E+01 -0.27194376017E+02  0.14074667745E+04  0.14077300712E+04  0.00000000000E+00 0.  1.
         -2    1    1    2    0  502 -0.13031127747E+01  0.27194376017E+02 -0.15712310049E+02  0.31434199161E+02  0.00000000000E+00 0. -1.
</event>
<event>
 4    1  0.5784609E+003  0.2202660E+02  0.7546771E-02  0.1505097E+00
          2   -1    0    0  501    0  0.00000000000E+00  0.00000000000E+00  0.19192314199E+01  0.19192314199E+01  0.00000000000E+00 0.  1.
         -2   -1    0    0    0  501 -0.00000000000E+00 -0.00000000000E+00 -0.39812054029E+03  0.39812054029E+03  0.00000000000E+00 0.  1.
          2    1    1    2  502    0 -0.14000354512E+02  0.17004745926E+02 -0.77253208603E+02  0.80331995804E+02  0.00000000000E+00 0.  1.
         -2    1    1    2    0  502  0.14000354512E+02 -0.17004745926E+02 -0.31894810026E+03  0.31970777590E+03  0.00000000000E+00 0.  1.
</event>
<event>
 4    1  0.5784609E+003  0.2034569E+02  0.7546771E-02  0.1528815E+00
          2   -1    0    0  501    0  0.00000000000E+00  0.00000000000E+00  0.99099398746E+01  0.99099398746E+01  0.00000000000E+00 0. -1.
         -2   -1    0    0    0  501 -0.00000000000E+00 -0.00000000000E+00 -0.42699263291E+02  0.42699263291E+02  0.00000000000E+00 0.  1.
          2    1    1    2  502    0 -0.16191168405E+02  0.12320433780E+02 -0.12515994528E+02  0.23887175259E+02  0.00000000000E+00 0. -1.
         -2    1    1    2    0  502  0.16191168405E+02 -0.12320433780E+02 -0.20273328888E+02  0.28722027906E+02  0.00000000000E+00 0.  1.
</event>
<event>
 4    1  0.5784609E+003  0.2399818E+02  0.7546771E-02  0.1480330E+00
          2   -1    0    0  501    0  0.00000000000E+00  0.00000000000E+00  0.51311679525E+03  0.51311679525E+03  0.00000000000E+00 0.  1.
         -2   -1    0    0    0  501 -0.00000000000E+00 -0.00000000000E+00 -0.15553828847E+01  0.15553828847E+01  0.00000000000E+00 0.  1.
          2    1    1    2  502    0  0.16375248262E+02 -0.17543198573E+02  0.39155792309E+03  0.39229264549E+03  0.00000000000E+00 0.  1.
         -2    1    1    2    0  502 -0.16375248262E+02  0.17543198573E+02  0.12000348927E+03  0.12237953264E+03  0.00000000000E+00 0.  1.
</event>
<event>
 4    1  0.5784609E+003  0.2961484E+02  0.7546771E-02  0.1422973E+00
          2   -1    0    0  501    0  0.00000000000E+00  0.00000000000E+00  0.19481104106E+04  0.19481104106E+04  0.00000000000E+00 0. -1.
         -2   -1    0    0    0  501 -0.00000000000E+00 -0.00000000000E+00 -0.71982211619E+00  0.71982211619E+00  0.00000000000E+00 0. -1.
          2    1    1    2  502    0 -0.29437788023E+02 -0.32334751595E+01  0.15700565446E+04  0.15703358214E+04  0.00000000000E+00 0. -1.
         -2    1    1    2    0  502  0.29437788023E+02  0.32334751595E+01  0.37733404394E+03  0.37849441137E+03  0.00000000000E+00 0. -1.
</event>
<event>
 4    1  0.5784609E+003  0.2087055E+02  0.7546771E-02  0.1521121E+00
          2   -1    0    0  501    0  0.00000000000E+00  0.00000000000E+00  0.10418831521E+04  0.10418831521E+04  0.00000000000E+00 0. -1.
         -2   -1    0    0    0  501 -0.00000000000E+00 -0.00000000000E+00 -0.42075885696E+00  0.42075885696E+00  0.00000000000E+00 0. -1.
          2    1    1    2  502    0 -0.19045430760E+02 -0.85352955134E+01  0.56239525656E+03  0.56278237739E+03  0.00000000000E+00 0. -1.
         -2    1    1    2    0  502  0.19045430760E+02  0.85352955134E+01  0.47906713664E+03  0.47952153352E+03  0.00000000000E+00 0. -1.
</event>
<event>
 4    1  0.5784609E+003  0.3230830E+02  0.7546771E-02  0.1400543E+00
          2   -1    0    0  501    0  0.00000000000E+00  0.00000000000E+00  0.26100658165E+03  0.26100658165E+03  0.00000000000E+00 0.  1.
         -2   -1    0    0    0  501 -0.00000000000E+00 -0.00000000000E+00 -0.53031829844E+02  0.53031829844E+02  0.00000000000E+00 0. -1.
          2    1    1    2  502    0 -0.23983657595E+02 -0.21647407790E+02  0.25496998220E+03  0.25700878958E+03  0.00000000000E+00 0.  1.
         -2    1    1    2    0  502  0.23983657595E+02  0.21647407790E+02 -0.46995230398E+02  0.57029621915E+02  0.00000000000E+00 0. -1.
</event>
<event>
 4    1  0.5784609E+003  0.2926554E+02  0.7546771E-02  0.1426088E+00
          2   -1    0    0  501    0  0.00000000000E+00  0.00000000000E+00  0.21091455280E+03  0.21091455280E+03  0.00000000000E+00 0.  1.
         -2   -1    0    0    0  501 -0.00000000000E+00 -0.00000000000E+00 -0.98512529361E+01  0.98512529361E+01  0.00000000000E+00 0.  1.
          2    1    1    2  502    0 -0.76829184443E+01 -0.28239064814E+02  0.18515965167E+03  0.18745817833E+03  0.00000000000E+00 0.  1.
         -2    1    1    2    0  502  0.76829184443E+01  0.28239064814E+02  0.15903648195E+02  0.33307627404E+02  0.00000000000E+00 0.  1.
</event>
<event>
 4    1  0.5784609E+003  0.3151051E+02  0.7546771E-02  0.1406909E+00
          2   -1    0    0  501    0  0.00000000000E+00  0.00000000000E+00  0.28600343311E+03  0.28600343311E+03  0.00000000000E+00 0.  1.
         -2   -1    0    0    0  501 -0.00000000000E+00 -0.00000000000E+00 -0.36287332901E+01  0.36287332901E+01  0.00000000000E+00 0.  1.
          2    1    1    2  502    0 -0.31111836704E+02 -0.49964744169E+01  0.11105944873E+03  0.11544311280E+03  0.00000000000E+00 0.  1.
         -2    1    1    2    0  502  0.31111836704E+02  0.49964744169E+01  0.17131525109E+03  0.17418905360E+03  0.00000000000E+00 0.  1.
</event>
<event>
 4    1  0.5784609E+003  0.2164879E+02  0.7546771E-02  0.1510200E+00
          2   -1    0    0  501    0  0.00000000000E+00  0.00000000000E+00  0.59128132663E+03  0.59128132663E+03  0.00000000000E+00 0.  1.
         -2   -1    0    0    0  501 -0.00000000000E+00 -0.00000000000E+00 -0.16343550213E+01  0.16343550213E+01  0.00000000000E+00 0.  1.
          2    1    1    2  502    0  0.10369337234E+02  0.19003868248E+02  0.50757546928E+03  0.50803693485E+03  0.00000000000E+00 0.  1.
         -2    1    1    2    0  502 -0.10369337234E+02 -0.19003868248E+02  0.82071502333E+02  0.84878746800E+02  0.00000000000E+00 0.  1.
</event>
<event>
 4    1  0.5784609E+003  0.2964535E+02  0.7546771E-02  0.1422704E+00
          2   -1    0    0  501    0  0.00000000000E+00  0.00000000000E+00  0.17483368782E+03  0.17483368782E+03  0.00000000000E+00 0. -1.
         -2   -1    0    0    0  501 -0.00000000000E+00 -0.00000000000E+00 -0.52744438176E+01  0.52744438176E+01  0.00000000000E+00 0.  1.
          2    1    1    2  502    0  0.18907955971E+02  0.22832784021E+02  0.10429444543E+03  0.10842591099E+03  0.00000000000E+00 0. -1.
         -2    1    1    2    0  502 -0.18907955971E+02 -0.22832784021E+02  0.65264798570E+02  0.71682220651E+02  0.00000000000E+00 0.  1.
</event>
<event>
 4    1  0.5784609E+003  0.3536024E+02  0.7546771E-02  0.1378048E+00
          2   -1    0    0  501    0  0.00000000000E+00  0.00000000000E+00  0.10375836099E+02  0.10375836099E+02  0.00000000000E+00 0.  1.
         -2   -1    0    0    0  501 -0.00000000000E+00 -0.00000000000E+00 -0.26544223198E+03  0.26544223198E+03  0.00000000000E+00 0. -1.
          2    1    1    2  502    0 -0.32600147210E+02  0.13695882060E+02 -0.25627908492E+02  0.43670773718E+02  0.00000000000E+00 0.  1.
         -2    1    1    2    0  502  0.32600147210E+02 -0.13695882060E+02 -0.22943848739E+03  0.23214729436E+03  0.00000000000E+00 0. -1.
</event>
<event>
 4    1  0.5784609E+003  0.2009278E+02  0.7546771E-02  0.1532622E+00
          2   -1    0    0  501    0  0.00000000000E+00  0.00000000000E+00  0.25849344069E+01  0.25849344069E+01  0.00000000000E+00 0. -1.
         -2   -1    0    0    0  501 -0.00000000000E+00 -0.00000000000E+00 -0.15656054340E+03  0.15656054340E+03  0.00000000000E+00 0. -1.
          2    1    1    2  502    0  0.15851021941E+02  0.12347652261E+02 -0.80902168806E+02  0.83359944401E+02  0.00000000000E+00 0. -1.
         -2    1    1    2    0  502 -0.15851021941E+02 -0.12347652261E+02 -0.73073440191E+02  0.75785533410E+02  0.00000000000E+00 0. -1.
</event>
<event>
 4    1  0.5784609E+003  0.2727580E+02  0.7546771E-02  0.1444857E+00
          2   -1    0    0  501    0  0.00000000000E+00  0.00000000000E+00  0.33835155687E+02  0.33835155687E+02  0.00000000000E+00 0. -1.
         -2   -1    0    0    0  501 -0.00000000000E+00 -0.00000000000E+00 -0.88231866559E+02  0.88231866559E+02  0.00000000000E+00 0.  1.
          2    1    1    2  502    0 -0.23063425734E+02 -0.14561853930E+02  0.25686130158E+02  0.37466604849E+02  0.00000000000E+00 0. -1.
         -2    1    1    2    0  502  0.23063425734E+02  0.14561853930E+02 -0.80082841029E+02  0.84600417397E+02  0.00000000000E+00 0.  1.
</event>
<event>
 4    1  0.5784609E+003  0.2605013E+02  0.7546771E-02  0.1457390E+00
          2   -1    0    0  501    0  0.00000000000E+00  0.00000000000E+00  0.14196045983E+04  0.14196045983E+04  0.00000000000E+00 0.  1.
         -2   -1    0    0    0  501 -0.00000000000E+00 -0.00000000000E+00 -0.31980697112E+01  0.31980697112E+01  0.00000000000E+00 0.  1.
          2    1    1    2  502    0 -0.15663106025E+02 -0.20815294910E+02  0.13642859402E+04  0.13645346225E+04  0.00000000000E+00 0.  1.
         -2    1    1    2    0  502  0.15663106025E+02  0.20815294910E+02  0.52120588362E+02  0.58268045478E+02  0.00000000000E+00 0.  1.
</event>
<event>
 4    1  0.5784609E+003  0.3997582E+02  0.7546771E-02  0.1348628E+00
          2   -1    0    0  501    0  0.00000000000E+00  0.00000000000E+00  0.27208549964E+03  0.27208549964E+03  0.00000000000E+00 0.  1.
         -2   -1    0    0    0  501 -0.00000000000E+00 -0.00000000000E+00 -0.59323266050E+01  0.59323266050E+01  0.00000000000E+00 0. -1.
          2    1    1    2  502    0  0.37824251202E+02  0.12938009703E+02  0.14693131484E+03  0.15227237883E+03  0.00000000000E+00 0.  1.
         -2    1    1    2    0  502 -0.37824251202E+02 -0.12938009703E+02  0.11922185820E+03  0.12574544742E+03  0.00000000000E+00 0. -1.
</event>
<event>
 4    1  0.5784609E+003  0.3330506E+02  0.7546771E-02  0.1392887E+00
          2   -1    0    0  501    0  0.00000000000E+00  0.00000000000E+00  0.14052054537E+04  0.14052054537E+04  0.00000000000E+00 0.  1.
         -2   -1    0    0    0  501 -0.00000000000E+00 -0.00000000000E+00 -0.79362537429E+02  0.79362537429E+02  0.00000000000E+00 0.  1.
          2    1    1    2  502    0  0.23960397336E+01 -0.33218755337E+02  0.14015047100E+04  0.14019003812E+04  0.00000000000E+00 0.  1.
         -2    1    1    2    0  502 -0.23960397336E+01  0.33218755337E+02 -0.75661793683E+02  0.82667609956E+02  0.00000000000E+00 0.  1.
</event>
<event>
 4    1  0.5784609E+003  0.2107426E+02  0.7546771E-02  0.1518207E+00
          2   -1    0    0  501    0  0.00000000000E+00  0.00000000000E+00  0.10642349820E+01  0.10642349820E+01  0.00000000000E+00 0.  1.
         -2   -1    0    0    0  501 -0.00000000000E+00 -0.00000000000E+00 -0.50551318148E+03  0.50551318148E+03  0.00000000000E+00 0. -1.
          2    1    1    2  502    0  0.20899116769E+02 -0.27113124141E+01 -0.14642773272E+03  0.14793649045E+03  0.00000000000E+00 0.  1.
         -2    1    1    2    0  502 -0.20899116769E+02  0.27113124141E+01 -0.35802121377E+03  0.35864092601E+03  0.00000000000E+00 0. -1.
</event>
<event>
 4    1  0.5784609E+003  0.2568847E+02  0.7546771E-02  0.1461247E+00
          2   -1    0    0  501    0  0.00000000000E+00  0.00000000000E+00  0.19218545080E+02  0.19218545080E+02  0.00000000000E+00 0.  1.
         -2   -1    0    0    0  501 -0.00000000000E+00 -0.00000000000E+00 -0.50646545294E+02  0.50646545294E+02  0.00000000000E+00 0.  1.
          2    1    1    2  502    0  0.25390344163E+02  0.39023277938E+01  0.41096117147E+01  0.26015123436E+02  0.00000000000E+00 0.  1.
         -2    1    1    2    0  502 -0.25390344163E+02 -0.39023277938E+01 -0.35537611928E+02  0.43849966938E+02  0.00000000000E+00 0.  1.
</event>
<event>
 4    1  0.5784609E+003  0.2268794E+02  0.7546771E-02  0.1496454E+00
          2   -1    0    0  501    0  0.00000000000E+00  0.00000000000E+00  0.80309394535E+02  0.80309394535E+02  0.00000000000E+00 0.  1.
         -2   -1    0    0    0  501 -0.00000000000E+00 -0.00000000000E+00 -0.13801987062E+03  0.13801987062E+03  0.00000000000E+00 0. -1.
          2    1    1    2  502    0  0.22306921908E+02 -0.41405184264E+01  0.77744518739E+02  0.80987362297E+02  0.00000000000E+00 0.  1.
         -2    1    1    2    0  502 -0.22306921908E+02  0.41405184264E+01 -0.13545499482E+03  0.13734190285E+03  0.00000000000E+00 0. -1.
</event>
<event>
 4    1  0.5784609E+003  0.2597863E+02  0.7546771E-02  0.1458147E+00
          2   -1    0    0  501    0  0.00000000000E+00  0.00000000000E+00  0.75365180168E+02  0.75365180168E+02  0.00000000000E+00 0.  1.
         -2   -1    0    0    0  501 -0.00000000000E+00 -0.00000000000E+00 -0.17145001411E+02  0.17145001411E+02  0.00000000000E+00 0.  1.
          2    1    1    2  502    0 -0.15274272411E+02  0.21013944601E+02  0.61079515999E+02  0.66374667909E+02  0.00000000000E+00 0.  1.
         -2    1    1    2    0  502  0.15274272411E+02 -0.21013944601E+02 -0.28593372419E+01  0.26135513671E+02  0.00000000000E+00 0.  1.
</event>
<event>
 4    1  0.5784609E+003  0.3414312E+02  0.7546771E-02  0.1386689E+00
          2   -1    0    0  501    0  0.00000000000E+00  0.00000000000E+00  0.37338973823E+03  0.37338973823E+03  0.00000000000E+00 0. -1.
         -2   -1    0    0    0  501 -0.00000000000E+00 -0.00000000000E+00 -0.11981035914E+02  0.11981035914E+02  0.00000000000E+00 0.  1.
          2    1    1    2  502    0 -0.19757172308E+01 -0.34085913005E+02  0.34639303417E+03  0.34807166941E+03  0.00000000000E+00 0. -1.
         -2    1    1    2    0  502  0.19757172308E+01  0.34085913005E+02  0.15015668142E+02  0.37299104731E+02  0.00000000000E+00 0.  1.
</event>
<event>
 4    1  0.5784609E+003  0.2205847E+02  0.7546771E-02  0.1504672E+00
          2   -1    0    0  501    0  0.00000000000E+00  0.00000000000E+00  0.94316082681E+03  0.94316082681E+03  0.00000000000E+00 0.  1.
         -2   -1    0    0    0  501 -0.00000000000E+00 -0.00000000000E+00 -0.54512639094E+00  0.54512639094E+00  0.00000000000E+00 0.  1.
          2    1    1    2  502    0 -0.19076895728E+02 -0.11074672154E+02  0.58056465589E+03  0.58098355913E+03  0.00000000000E+00 0.  1.
         -2    1    1    2    0  502  0.19076895728E+02  0.11074672154E+02  0.36205104453E+03  0.36272239407E+03  0.00000000000E+00 0.  1.
</event>
<event>
 4    1  0.5784609E+003  0.2250525E+02  0.7546771E-02  0.1498806E+00
          2   -1    0    0  501    0  0.00000000000E+00  0.00000000000E+00  0.11959272445E+04  0.11959272445E+04  0.00000000000E+00 0.  1.
         -2   -1    0    0    0  501 -0.00000000000E+00 -0.00000000000E+00 -0.16362707298E+01  0.16362707298E+01  0.00000000000E+00 0. -1.
          2    1    1    2  502    0 -0.68920988847E+01  0.21423940395E+02  0.11126454959E+04  0.11128730771E+04  0.00000000000E+00 0.  1.
         -2    1    1    2    0  502  0.68920988847E+01 -0.21423940395E+02  0.81645477843E+02  0.84690438075E+02  0.00000000000E+00 0. -1.
</event>
<event>
 4    1  0.5784609E+003  0.2716808E+02  0.7546771E-02  0.1445927E+00
          2   -1    0    0  501    0  0.00000000000E+00  0.00000000000E+00  0.91169401776E+01  0.91169401776E+01  0.00000000000E+00 0. -1.
         -2   -1    0    0    0  501 -0.00000000000E+00 -0.00000000000E+00 -0.85857744770E+02  0.85857744770E+02  0.00000000000E+00 0.  1.
          2    1    1    2  502    0 -0.64006625495E+01  0.26403337539E+02 -0.27028141313E+02  0.38322645226E+02  0.00000000000E+00 0. -1.
         -2    1    1    2    0  502  0.64006625495E+01 -0.26403337539E+02 -0.49712663280E+02  0.56652039722E+02  0.00000000000E+00 0.  1.
</event>
<event>
 4    1  0.5784609E+003  0.3358574E+02  0.7546771E-02  0.1390788E+00
          2   -1    0    0  501    0  0.00000000000E+00  0.00000000000E+00  0.26321722899E+03  0.26321722899E+03  0.00000000000E+00 0. -1.
         -2   -1    0    0    0  501 -0.00000000000E+00 -0.00000000000E+00 -0.11417766068E+02  0.11417766068E+02  0.00000000000E+00 0. -1.
          2    1    1    2  502    0 -0.30176147481E+02  0.14744563599E+02  0.23442999547E+03  0.23682361539E+03  0.00000000000E+00 0. -1.
         -2    1    1    2    0  502  0.30176147481E+02 -0.14744563599E+02  0.17369467452E+02  0.37811379664E+02  0.00000000000E+00 0. -1.
</event>
<event>
 4    1  0.5784609E+003  0.2513501E+02  0.7546771E-02  0.1467299E+00
          2   -1    0    0  501    0  0.00000000000E+00  0.00000000000E+00  0.40951503836E+02  0.40951503836E+02  0.00000000000E+00 0. -1.
         -2   -1    0    0    0  501 -0.00000000000E+00 -0.00000000000E+00 -0.50870568637E+03  0.50870568637E+03  0.00000000000E+00 0. -1.
          2    1    1    2  502    0  0.36343435615E+01  0.24870873382E+02  0.36752131437E+02  0.44525138529E+02  0.00000000000E+00 0. -1.
         -2    1    1    2    0  502 -0.36343435615E+01 -0.24870873382E+02 -0.50450631397E+03  0.50513205167E+03  0.00000000000E+00 0. -1.
</event>
<event>
 4    1  0.5784609E+003  0.2270303E+02  0.7546771E-02  0.1496261E+00
          2   -1    0    0  501    0  0.00000000000E+00  0.00000000000E+00  0.35711804288E+02  0.35711804288E+02  0.00000000000E+00 0.  1.
         -2   -1    0    0    0  501 -0.00000000000E+00 -0.00000000000E+00 -0.18080726608E+03  0.18080726608E+03  0.00000000000E+00 0. -1.
          2    1    1    2  502    0 -0.22700848017E+02 -0.31484383835E+00  0.31301031578E+02  0.38667585975E+02  0.00000000000E+00 0.  1.
         -2    1    1    2    0  502  0.22700848017E+02  0.31484383835E+00 -0.17639649337E+03  0.17785148440E+03  0.00000000000E+00 0. -1.
</event>
<event>
 4    1  0.5784609E+003  0.2897510E+02  0.7546771E-02  0.1428717E+00
          2   -1    0    0  501    0  0.00000000000E+00  0.00000000000E+00  0.59907979873E+03  0.59907979873E+03  0.00000000000E+00 0.  1.
         -2   -1    0    0    0  501 -0.00000000000E+00 -0.00000000000E+00 -0.41523256567E+01  0.41523256567E+01  0.00000000000E+00 0.  1.
          2    1    1    2  502    0  0.74642930686E+01  0.27997157298E+02  0.54296141576E+03  0.54373399332E+03  0.00000000000E+00 0.  1.
         -2    1    1    2    0  502 -0.74642930686E+01 -0.27997157298E+02  0.51966057318E+02  0.59498131071E+02  0.00000000000E+00 0.  1.
</event>
<event>
 4    1  0.5784609E+003  0.4062827E+02  0.7546771E-02  0.1344843E+00
          2   -1    0    0  501    0  0.00000000000E+00  0.00000000000E+00  0.15956633216E+04  0.15956633216E+04  0.00000000000E+00 0. -1.
         -2   -1    0    0    0  501 -0.00000000000E+00 -0.00000000000E+00 -0.79986844163E+01  0.79986844163E+01  0.00000000000E+00 0. -1.
          2    1    1    2  502    0 -0.16708271168E+02 -0.37033637672E+02  0.15420187188E+04  0.15425538518E+04  0.00000000000E+00 0. -1.
         -2    1    1    2    0  502  0.16708271168E+02  0.37033637672E+02  0.45645918412E+02  0.61108154221E+02  0.00000000000E+00 0. -1.
</event>
<event>
 4    1  0.5784609E+003  0.4808645E+02  0.7546771E-02  0.1306689E+00
          2   -1    0    0  501    0  0.00000000000E+00  0.00000000000E+00  0.12727718551E+04  0.12727718551E+04  0.00000000000E+00 0.  1.
         -2   -1    0    0    0  501 -0.00000000000E+00 -0.00000000000E+00 -0.60494678659E+02  0.60494678659E+02  0.00000000000E+00 0. -1.
          2    1    1    2  502    0  0.21189290942E+02  0.43166196273E+02  0.12626855375E+04  0.12636008362E+04  0.00000000000E+00 0.  1.
         -2    1    1    2    0  502 -0.21189290942E+02 -0.43166196273E+02 -0.50408361080E+02  0.69665697571E+02  0.00000000000E+00 0. -1.
</event>
<event>
 4    1  0.5784609E+003  0.2883553E+02  0.7546771E-02  0.1429993E+00
          2   -1    0    0  501    0  0.00000000000E+00  0.00000000000E+00  0.77412092718E+01  0.77412092718E+01  0.00000000000E+00 0.  1.
         -2   -1    0    0    0  501 -0.00000000000E+00 -0.00000000000E+00 -0.32209102878E+03  0.32209102878E+03  0.00000000000E+00 0. -1.
          2    1    1    2  502    0  0.16915572663E+02 -0.23352752642E+02 -0.22536164679E+02  0.36597354725E+02  0.00000000000E+00 0.  1.
         -2    1    1    2    0  502 -0.16915572663E+02  0.23352752642E+02 -0.29181365483E+03  0.29323488333E+03  0.00000000000E+00 0. -1.
</event>
<event>
 4    1  0.5784609E+003  0.2884570E+02  0.7546771E-02  0.1429900E+00
          2   -1    0    0  501    0  0.00000000000E+00  0.00000000000E+00  0.34514583847E+03  0.34514583847E+03  0.00000000000E+00 0.  1.
         -2   -1    0    0    0  501 -0.00000000000E+00 -0.00000000000E+00 -0.36110907816E+02  0.36110907816E+02  0.00000000000E+00 0. -1.
          2    1    1    2  502    0 -0.23677413873E+02 -0.16475883777E+02  0.33867268705E+03  0.33989890207E+03  0.00000000000E+00 0.  1.
         -2    1    1    2    0  502  0.23677413873E+02  0.16475883777E+02 -0.29637756398E+02  0.41357844216E+02  0.00000000000E+00 0. -1.
</event>
<event>
 4    1  0.5784609E+003  0.4487808E+02  0.7546771E-02  0.1322050E+00
          2   -1    0    0  501    0  0.00000000000E+00  0.00000000000E+00  0.20354449186E+03  0.20354449186E+03  0.00000000000E+00 0.  1.
         -2   -1    0    0    0  501 -0.00000000000E+00 -0.00000000000E+00 -0.12129045222E+02  0.12129045222E+02  0.00000000000E+00 0. -1.
          2    1    1    2  502    0  0.89280779022E+01 -0.43981032236E+02  0.14198995892E+03  0.14891336477E+03  0.00000000000E+00 0.  1.
         -2    1    1    2    0  502 -0.89280779022E+01  0.43981032236E+02  0.49425487717E+02  0.66760172316E+02  0.00000000000E+00 0. -1.
</event>
<event>
 4    1  0.5784609E+003  0.6161121E+02  0.7546771E-02  0.1254454E+00
          2   -1    0    0  501    0  0.00000000000E+00  0.00000000000E+00  0.12993263193E+04  0.12993263193E+04  0.00000000000E+00 0.  1.
         -2   -1    0    0    0  501 -0.00000000000E+00 -0.00000000000E+00 -0.12547180067E+02  0.12547180067E+02  0.00000000000E+00 0.  1.
          2    1    1    2  502    0  0.16419331642E+02  0.59383045896E+02  0.12179097997E+04  0.12194671872E+04  0.00000000000E+00 0.  1.
         -2    1    1    2    0  502 -0.16419331642E+02 -0.59383045896E+02  0.68869339565E+02  0.92406312141E+02  0.00000000000E+00 0.  1.
</event>
<event>
 4    1  0.5784609E+003  0.2055799E+02  0.7546771E-02  0.1525670E+00
          2   -1    0    0  501    0  0.00000000000E+00  0.00000000000E+00  0.58797968413E+02  0.58797968413E+02  0.00000000000E+00 0. -1.
         -2   -1    0    0    0  501 -0.00000000000E+00 -0.00000000000E+00 -0.10502338475E+02  0.10502338475E+02  0.00000000000E+00 0.  1.
          2    1    1    2  502    0  0.12617662234E+02  0.16230392582E+02  0.43613529024E+02  0.48215878687E+02  0.00000000000E+00 0. -1.
         -2    1    1    2    0  502 -0.12617662234E+02 -0.16230392582E+02  0.46821009146E+01  0.21084428202E+02  0.00000000000E+00 0.  1.
</event>
<event>
 4    1  0.5784609E+003  0.2075550E+02  0.7546771E-02  0.1522784E+00
          2   -1    0    0  501    0  0.00000000000E+00  0.00000000000E+00  0.65643383458E+02  0.65643383458E+02  0.00000000000E+00 0. -1.
         -2   -1    0    0    0  501 -0.00000000000E+00 -0.00000000000E+00 -0.10146239032E+02  0.10146239032E+02  0.00000000000E+00 0.  1.
          2    1    1    2  502    0 -0.74387117076E+01 -0.19376697415E+02  0.50269679154E+02  0.54385949259E+02  0.00000000000E+00 0. -1.
         -2    1    1    2    0  502  0.74387117076E+01  0.19376697415E+02  0.52274652729E+01  0.21403673231E+02  0.00000000000E+00 0.  1.
</event>
<event>
 4    1  0.5784609E+003  0.2018966E+02  0.7546771E-02  0.1531156E+00
          2   -1    0    0  501    0  0.00000000000E+00  0.00000000000E+00  0.18841758426E+02  0.18841758426E+02  0.00000000000E+00 0.  1.
         -2   -1    0    0    0  501 -0.00000000000E+00 -0.00000000000E+00 -0.83810892112E+03  0.83810892112E+03  0.00000000000E+00 0. -1.
          2    1    1    2  502    0  0.19118766019E+02 -0.64880769834E+01  0.13275516768E+02  0.24163230382E+02  0.00000000000E+00 0.  1.
         -2    1    1    2    0  502 -0.19118766019E+02  0.64880769834E+01 -0.83254267947E+03  0.83278744917E+03  0.00000000000E+00 0. -1.
</event>
<event>
 4    1  0.5784609E+003  0.2553863E+02  0.7546771E-02  0.1462867E+00
          2   -1    0    0  501    0  0.00000000000E+00  0.00000000000E+00  0.19011970702E+04  0.19011970702E+04  0.00000000000E+00 0. -1.
         -2   -1    0    0    0  501 -0.00000000000E+00 -0.00000000000E+00 -0.32017551679E+01  0.32017551679E+01  0.00000000000E+00 0.  1.
          2    1    1    2  502    0 -0.24809779775E+02  0.60577782833E+01  0.18487394341E+04  0.18489158221E+04  0.00000000000E+00 0. -1.
         -2    1    1    2    0  502  0.24809779775E+02 -0.60577782833E+01  0.49255880934E+02  0.55483003315E+02  0.00000000000E+00 0.  1.
</event>
<event>
 4    1  0.5784609E+003  0.2291335E+02  0.7546771E-02  0.1493589E+00
          2   -1    0    0  501    0  0.00000000000E+00  0.00000000000E+00  0.35587020544E+01  0.35587020544E+01  0.00000000000E+00 0.  1.
         -2   -1    0    0    0  501 -0.00000000000E+00 -0.00000000000E+00 -0.15542753146E+03  0.15542753146E+03  0.00000000000E+00 0.  1.
          2    1    1    2  502    0 -0.13401193717E+02 -0.18585737607E+02 -0.58017534634E+02  0.62378329254E+02  0.00000000000E+00 0.  1.
         -2    1    1    2    0  502  0.13401193717E+02  0.18585737607E+02 -0.93851294774E+02  0.96607904263E+02  0.00000000000E+00 0.  1.
</event>
<event>
 4    1  0.5784609E+003  0.2209890E+02  0.7546771E-02  0.1504134E+00
          2   -1    0    0  501    0  0.00000000000E+00  0.00000000000E+00  0.17465903473E+03  0.17465903473E+03  0.00000000000E+00 0. -1.
         -2   -1    0    0    0  501 -0.00000000000E+00 -0.00000000000E+00 -0.46879730864E+01  0.46879730864E+01  0.00000000000E+00 0. -1.
          2    1    1    2  502    0 -0.17134877395E+02  0.13955551264E+02  0.14195200674E+03  0.14366187264E+03  0.00000000000E+00 0. -1.
         -2    1    1    2    0  502  0.17134877395E+02 -0.13955551264E+02  0.28019054900E+02  0.35685135167E+02  0.00000000000E+00 0. -1.
</event>
<event>
 4    1  0.5784609E+003  0.2001324E+02  0.7546771E-02  0.1533833E+00
          2   -1    0    0  501    0  0.00000000000E+00  0.00000000000E+00  0.94017079134E+03  0.94017079134E+03  0.00000000000E+00 0. -1.
         -2   -1    0    0    0  501 -0.00000000000E+00 -0.00000000000E+00 -0.98171142655E+00  0.98171142655E+00  0.00000000000E+00 0. -1.
          2    1    1    2  502    0  0.19555907245E+02  0.42539484324E+01  0.82363732786E+03  0.82388043879E+03  0.00000000000E+00 0. -1.
         -2    1    1    2    0  502 -0.19555907245E+02 -0.42539484324E+01  0.11555175206E+03  0.11727206397E+03  0.00000000000E+00 0. -1.
</event>
<event>
 4    1  0.5784609E+003  0.3571114E+02  0.7546771E-02  0.1375631E+00
          2   -1    0    0  501    0  0.00000000000E+00  0.00000000000E+00  0.14564456652E+04  0.14564456652E+04  0.00000000000E+00 0. -1.
         -2   -1    0    0    0  501 -0.00000000000E+00 -0.00000000000E+00 -0.14197603151E+01  0.14197603151E+01  0.00000000000E+00 0.  1.
          2    1    1    2  502    0  0.15889714989E+02 -0.31981284061E+02  0.11787839246E+04  0.11793247333E+04  0.00000000000E+00 0. -1.
         -2    1    1    2    0  502 -0.15889714989E+02  0.31981284061E+02  0.27624198026E+03  0.27854069223E+03  0.00000000000E+00 0.  1.
</event>
<event>
 4    1  0.5784609E+003  0.2057262E+02  0.7546771E-02  0.1525455E+00
          2   -1    0    0  501    0  0.00000000000E+00  0.00000000000E+00  0.15399915949E+04  0.15399915949E+04  0.00000000000E+00 0.  1.
         -2   -1    0    0    0  501 -0.00000000000E+00 -0.00000000000E+00 -0.27198429208E+01  0.27198429208E+01  0.00000000000E+00 0. -1.
          2    1    1    2  502    0  0.41709053191E+01 -0.20145380093E+02  0.14999829873E+04  0.15001240599E+04  0.00000000000E+00 0.  1.
         -2    1    1    2    0  502 -0.41709053191E+01  0.20145380093E+02  0.37288764704E+02  0.42587377983E+02  0.00000000000E+00 0. -1.
</event>
<event>
 4    1  0.5784609E+003  0.2178772E+02  0.7546771E-02  0.1508309E+00
          2   -1    0    0  501    0  0.00000000000E+00  0.00000000000E+00  0.60814375822E+03  0.60814375822E+03  0.00000000000E+00 0.  1.
         -2   -1    0    0    0  501 -0.00000000000E+00 -0.00000000000E+00 -0.21363609505E+01  0.21363609505E+01  0.00000000000E+00 0. -1.
          2    1    1    2  502    0 -0.18237840248E+02 -0.11919983252E+02  0.54608787245E+03  0.54652234104E+03  0.00000000000E+00 0.  1.
         -2    1    1    2    0  502  0.18237840248E+02  0.11919983252E+02  0.59919524817E+02  0.63757778129E+02  0.00000000000E+00 0. -1.
</event>
<event>
 4    1  0.5784609E+003  0.5175554E+02  0.7546771E-02  0.1290735E+00
          2   -1    0    0  501    0  0.00000000000E+00  0.00000000000E+00  0.58446469820E+02  0.58446469820E+02  0.00000000000E+00 0. -1.
         -2   -1    0    0    0  501 -0.00000000000E+00 -0.00000000000E+00 -0.95260017891E+02  0.95260017891E+02  0.00000000000E+00 0.  1.
          2    1    1    2  502    0 -0.48799449708E+02  0.17240926180E+02  0.36953686377E+02  0.63594109509E+02  0.00000000000E+00 0. -1.
         -2    1    1    2    0  502  0.48799449708E+02 -0.17240926180E+02 -0.73767234447E+02  0.90112378203E+02  0.00000000000E+00 0.  1.
</event>
<event>
 4    1  0.5784609E+003  0.2210798E+02  0.7546771E-02  0.1504014E+00
          2   -1    0    0  501    0  0.00000000000E+00  0.00000000000E+00  0.96094121869E+01  0.96094121869E+01  0.00000000000E+00 0.  1.
         -2   -1    0    0    0  501 -0.00000000000E+00 -0.00000000000E+00 -0.56047941690E+02  0.56047941690E+02  0.00000000000E+00 0. -1.
          2    1    1    2  502    0 -0.18539416108E+02  0.12043782457E+02 -0.13234235345E+02  0.25766405078E+02  0.00000000000E+00 0.  1.
         -2    1    1    2    0  502  0.18539416108E+02 -0.12043782457E+02 -0.33204294159E+02  0.39890948799E+02  0.00000000000E+00 0. -1.
</event>
<event>
 4    1  0.5784609E+003  0.2390435E+02  0.7546771E-02  0.1481444E+00
          2   -1    0    0  501    0  0.00000000000E+00  0.00000000000E+00  0.64919064814E+03  0.64919064814E+03  0.00000000000E+00 0.  1.
         -2   -1    0    0    0  501 -0.00000000000E+00 -0.00000000000E+00 -0.80686310990E+01  0.80686310990E+01  0.00000000000E+00 0. -1.
          2    1    1    2  502    0 -0.21609773733E+02 -0.10219381476E+02  0.63074818243E+03  0.63120098837E+03  0.00000000000E+00 0.  1.
         -2    1    1    2    0  502  0.21609773733E+02  0.10219381476E+02  0.10373834610E+02  0.26058290870E+02  0.00000000000E+00 0. -1.
</event>
<event>
 4    1  0.5784609E+003  0.2095799E+02  0.7546771E-02  0.1519865E+00
          2   -1    0    0  501    0  0.00000000000E+00  0.00000000000E+00  0.11737121015E+04  0.11737121015E+04  0.00000000000E+00 0. -1.
         -2   -1    0    0    0  501 -0.00000000000E+00 -0.00000000000E+00 -0.78036964933E+00  0.78036964933E+00  0.00000000000E+00 0.  1.
          2    1    1    2  502    0  0.28414360880E+01  0.20764480460E+02  0.10101167806E+04  0.10103341763E+04  0.00000000000E+00 0. -1.
         -2    1    1    2    0  502 -0.28414360880E+01 -0.20764480460E+02  0.16281495128E+03  0.16415829485E+03  0.00000000000E+00 0.  1.
</event>
<event>
 4    1  0.5784609E+003  0.4232231E+02  0.7546771E-02  0.1335389E+00
          2   -1    0    0  501    0  0.00000000000E+00  0.00000000000E+00  0.13098013488E+03  0.13098013488E+03  0.00000000000E+00 0.  1.
         -2   -1    0    0    0  501 -0.00000000000E+00 -0.00000000000E+00 -0.15964151939E+02  0.15964151939E+02  0.00000000000E+00 0.  1.
          2    1    1    2  502    0 -0.11951514107E+01  0.42305436276E+02  0.85328752151E+02  0.95247962021E+02  0.00000000000E+00 0.  1.
         -2    1    1    2    0  502  0.11951514107E+01 -0.42305436276E+02  0.29687230785E+02  0.51696324793E+02  0.00000000000E+00 0.  1.
</event>
<event>
 4    1  0.5784609E+003  0.6844989E+02  0.7546771E-02  0.1233543E+00
          2   -1    0    0  501    0  0.00000000000E+00  0.00000000000E+00  0.12742239102E+02  0.12742239102E+02  0.00000000000E+00 0.  1.
         -2   -1    0    0    0  501 -0.00000000000E+00 -0.00000000000E+00 -0.55312761337E+03  0.55312761337E+03  0.00000000000E+00 0. -1.
          2    1    1    2  502    0 -0.17891692009E+02  0.66070225497E+02 -0.10637717355E+03  0.12649699757E+03  0.00000000000E+00 0.  1.
         -2    1    1    2    0  502  0.17891692009E+02 -0.66070225497E+02 -0.43400820072E+03  0.43937285491E+03  0.00000000000E+00 0. -1.
</event>
<event>
 4    1  0.5784609E+003  0.2390549E+02  0.7546771E-02  0.1481430E+00
          2   -1    0    0  501    0  0.00000000000E+00  0.00000000000E+00  0.19058072080E+02  0.19058072080E+02  0.00000000000E+00 0.  1.
         -2   -1    0    0    0  501 -0.00000000000E+00 -0.00000000000E+00 -0.36511695885E+02  0.36511695885E+02  0.00000000000E+00 0.  1.
          2    1    1    2  502    0  0.52759719775E+00 -0.23899663517E+02  0.30197661316E+01  0.24095461451E+02  0.00000000000E+00 0.  1.
         -2    1    1    2    0  502 -0.52759719775E+00  0.23899663517E+02 -0.20473389937E+02  0.31474306514E+02  0.00000000000E+00 0.  1.
</event>
<event>
 4    1  0.5784609E+003  0.2508636E+02  0.7546771E-02  0.1467840E+00
          2   -1    0    0  501    0  0.00000000000E+00  0.00000000000E+00  0.33878480657E+03  0.33878480657E+03  0.00000000000E+00 0.  1.
         -2   -1    0    0    0  501 -0.00000000000E+00 -0.00000000000E+00 -0.25828665301E+01  0.25828665301E+01  0.00000000000E+00 0.  1.
          2    1    1    2  502    0 -0.20441598728E+02  0.14541890082E+02  0.25854735875E+03  0.25976154881E+03  0.00000000000E+00 0.  1.
         -2    1    1    2    0  502  0.20441598728E+02 -0.14541890082E+02  0.77654581295E+02  0.81606124291E+02  0.00000000000E+00 0.  1.
</event>
<event>
 4    1  0.5784609E+003  0.2134624E+02  0.7546771E-02  0.1514379E+00
          2   -1    0    0  501    0  0.00000000000E+00  0.00000000000E+00  0.22036264535E+04  0.22036264535E+04  0.00000000000E+00 0.  1.
         -2   -1    0    0    0  501 -0.00000000000E+00 -0.00000000000E+00 -0.24030948693E+00  0.24030948693E+00  0.00000000000E+00 0.  1.
          2    1    1    2  502    0  0.16653299973E+02  0.13354002259E+02  0.15133120497E+04  0.15134625934E+04  0.00000000000E+00 0.  1.
         -2    1    1    2    0  502 -0.16653299973E+02 -0.13354002259E+02  0.69007409422E+03  0.69040416952E+03  0.00000000000E+00 0.  1.
</event>
<event>
 4    1  0.5784609E+003  0.2381535E+02  0.7546771E-02  0.1482506E+00
          2   -1    0    0  501    0  0.00000000000E+00  0.00000000000E+00  0.50737274257E+03  0.50737274257E+03  0.00000000000E+00 0. -1.
         -2   -1    0    0    0  501 -0.00000000000E+00 -0.00000000000E+00 -0.11328090318E+01  0.11328090318E+01  0.00000000000E+00 0. -1.
          2    1    1    2  502    0  0.38970759898E+01 -0.23494323448E+02  0.22391007749E+03  0.22517302955E+03  0.00000000000E+00 0. -1.
         -2    1    1    2    0  502 -0.38970759898E+01  0.23494323448E+02  0.28232985606E+03  0.28333252206E+03  0.00000000000E+00 0. -1.
</event>
<event>
 4    1  0.5784609E+003  0.4153686E+02  0.7546771E-02  0.1339708E+00
          2   -1    0    0  501    0  0.00000000000E+00  0.00000000000E+00  0.22810387786E+04  0.22810387786E+04  0.00000000000E+00 0.  1.
         -2   -1    0    0    0  501 -0.00000000000E+00 -0.00000000000E+00 -0.20431961303E+03  0.20431961303E+03  0.00000000000E+00 0. -1.
          2    1    1    2  502    0  0.37841852439E+02 -0.17126159994E+02  0.22787365087E+04  0.22791150448E+04  0.00000000000E+00 0.  1.
         -2    1    1    2    0  502 -0.37841852439E+02  0.17126159994E+02 -0.20201734320E+03  0.20624334681E+03  0.00000000000E+00 0. -1.
</event>
<event>
 4    1  0.5784609E+003  0.1108061E+03  0.7546771E-02  0.1146294E+00
          2   -1    0    0  501    0  0.00000000000E+00  0.00000000000E+00  0.14867576482E+03  0.14867576482E+03  0.00000000000E+00 0.  1.
         -2   -1    0    0    0  501 -0.00000000000E+00 -0.00000000000E+00 -0.10311118254E+03  0.10311118254E+03  0.00000000000E+00 0. -1.
          2    1    1    2  502    0  0.54645761954E+02  0.96394107992E+02  0.78956015614E+02  0.13605894222E+03  0.00000000000E+00 0. -1.
         -2    1    1    2    0  502 -0.54645761954E+02 -0.96394107992E+02 -0.33391433340E+02  0.11572800515E+03  0.00000000000E+00 0.  1.
</event>
<event>
 4    1  0.5784609E+003  0.2633861E+02  0.7546771E-02  0.1454367E+00
          2   -1    0    0  501    0  0.00000000000E+00  0.00000000000E+00  0.22523213442E+03  0.22523213442E+03  0.00000000000E+00 0.  1.
         -2   -1    0    0    0  501 -0.00000000000E+00 -0.00000000000E+00 -0.86460455436E+01  0.86460455436E+01  0.00000000000E+00 0.  1.
          2    1    1    2  502    0  0.23010230197E+02 -0.12816064746E+02  0.20211901703E+03  0.20382791579E+03  0.00000000000E+00 0.  1.
         -2    1    1    2    0  502 -0.23010230197E+02  0.12816064746E+02  0.14467071848E+02  0.30050264178E+02  0.00000000000E+00 0.  1.
</event>
<event>
 4    1  0.5784609E+003  0.3124532E+02  0.7546771E-02  0.1409075E+00
          2   -1    0    0  501    0  0.00000000000E+00  0.00000000000E+00  0.22989004870E+02  0.22989004870E+02  0.00000000000E+00 0. -1.
         -2   -1    0    0    0  501 -0.00000000000E+00 -0.00000000000E+00 -0.47253303108E+02  0.47253303108E+02  0.00000000000E+00 0. -1.
          2    1    1    2  502    0 -0.10469923987E+02  0.29438926833E+02 -0.95421947218E+00  0.31259882536E+02  0.00000000000E+00 0. -1.
         -2    1    1    2    0  502  0.10469923987E+02 -0.29438926833E+02 -0.23310078765E+02  0.38982425442E+02  0.00000000000E+00 0. -1.
</event>
<event>
 4    1  0.5784609E+003  0.2964828E+02  0.7546771E-02  0.1422678E+00
          2   -1    0    0  501    0  0.00000000000E+00  0.00000000000E+00  0.87117149660E+03  0.87117149660E+03  0.00000000000E+00 0.  1.
         -2   -1    0    0    0  501 -0.00000000000E+00 -0.00000000000E+00 -0.78577577593E+01  0.78577577593E+01  0.00000000000E+00 0.  1.
          2    1    1    2  502    0 -0.14880816551E+02 -0.25643357882E+02  0.84198341090E+03  0.84250524315E+03  0.00000000000E+00 0.  1.
         -2    1    1    2    0  502  0.14880816551E+02  0.25643357882E+02  0.21330327940E+02  0.36524011208E+02  0.00000000000E+00 0.  1.
</event>
<event>
 4    1  0.5784609E+003  0.2104978E+02  0.7546771E-02  0.1518555E+00
          2   -1    0    0  501    0  0.00000000000E+00  0.00000000000E+00  0.91463653362E+03  0.91463653362E+03  0.00000000000E+00 0.  1.
         -2   -1    0    0    0  501 -0.00000000000E+00 -0.00000000000E+00 -0.49124316788E+00  0.49124316788E+00  0.00000000000E+00 0.  1.
          2    1    1    2  502    0 -0.70547982522E+01 -0.19832369186E+02  0.51089110921E+03  0.51132457257E+03  0.00000000000E+00 0.  1.
         -2    1    1    2    0  502  0.70547982522E+01  0.19832369186E+02  0.40325418124E+03  0.40380320421E+03  0.00000000000E+00 0.  1.
</event>
<event>
 4    1  0.5784609E+003  0.2002768E+02  0.7546771E-02  0.1533613E+00
          2   -1    0    0  501    0  0.00000000000E+00  0.00000000000E+00  0.13058928736E+04  0.13058928736E+04  0.00000000000E+00 0. -1.
         -2   -1    0    0    0  501 -0.00000000000E+00 -0.00000000000E+00 -0.30886484619E+00  0.30886484619E+00  0.00000000000E+00 0. -1.
          2    1    1    2  502    0 -0.91553217515E+01 -0.17812569915E+02  0.60415581612E+03  0.60448768202E+03  0.00000000000E+00 0. -1.
         -2    1    1    2    0  502  0.91553217515E+01  0.17812569915E+02  0.70142819262E+03  0.70171405642E+03  0.00000000000E+00 0. -1.
</event>
<event>
 4    1  0.5784609E+003  0.2526121E+02  0.7546771E-02  0.1465902E+00
          2   -1    0    0  501    0  0.00000000000E+00  0.00000000000E+00  0.10724542829E+04  0.10724542829E+04  0.00000000000E+00 0. -1.
         -2   -1    0    0    0  501 -0.00000000000E+00 -0.00000000000E+00 -0.28292517881E+01  0.28292517881E+01  0.00000000000E+00 0.  1.
          2    1    1    2  502    0 -0.25190498989E+02  0.18887507894E+01  0.10125855091E+04  0.10129005587E+04  0.00000000000E+00 0. -1.
         -2    1    1    2    0  502  0.25190498989E+02 -0.18887507894E+01  0.57039521986E+02  0.62382975941E+02  0.00000000000E+00 0.  1.
</event>
<event>
 4    1  0.5784609E+003  0.2362679E+02  0.7546771E-02  0.1484774E+00
          2   -1    0    0  501    0  0.00000000000E+00  0.00000000000E+00  0.20868893906E+03  0.20868893906E+03  0.00000000000E+00 0. -1.
         -2   -1    0    0    0  501 -0.00000000000E+00 -0.00000000000E+00 -0.99162437921E+02  0.99162437921E+02  0.00000000000E+00 0. -1.
          2    1    1    2  502    0 -0.83425962967E+01 -0.22104895631E+02  0.20659866669E+03  0.20794526781E+03  0.00000000000E+00 0. -1.
         -2    1    1    2    0  502  0.83425962967E+01  0.22104895631E+02 -0.97072165557E+02  0.99906109171E+02  0.00000000000E+00 0. -1.
</event>
<event>
 4    1  0.5784609E+003  0.2600008E+02  0.7546771E-02  0.1457920E+00
          2   -1    0    0  501    0  0.00000000000E+00  0.00000000000E+00  0.18632967241E+01  0.18632967241E+01  0.00000000000E+00 0. -1.
         -2   -1    0    0    0  501 -0.00000000000E+00 -0.00000000000E+00 -0.11033651275E+04  0.11033651275E+04  0.00000000000E+00 0. -1.
          2    1    1    2  502    0 -0.25178707114E+02 -0.64835890099E+01 -0.98015961860E+02  0.10140578385E+03  0.00000000000E+00 0. -1.
         -2    1    1    2    0  502  0.25178707114E+02  0.64835890099E+01 -0.10034858690E+04  0.10038226404E+04  0.00000000000E+00 0. -1.
</event>
<event>
 4    1  0.5784609E+003  0.5236354E+02  0.7546771E-02  0.1288238E+00
          2   -1    0    0  501    0  0.00000000000E+00  0.00000000000E+00  0.37035615072E+01  0.37035615072E+01  0.00000000000E+00 0.  1.
         -2   -1    0    0    0  501 -0.00000000000E+00 -0.00000000000E+00 -0.78001351377E+03  0.78001351377E+03  0.00000000000E+00 0. -1.
          2    1    1    2  502    0  0.52240000540E+02 -0.35948038818E+01 -0.29979384572E+03  0.30433253227E+03  0.00000000000E+00 0.  1.
         -2    1    1    2    0  502 -0.52240000540E+02  0.35948038818E+01 -0.47651610655E+03  0.47938454300E+03  0.00000000000E+00 0. -1.
</event>
<event>
 4    1  0.5784609E+003  0.2045072E+02  0.7546771E-02  0.1527253E+00
          2   -1    0    0  501    0  0.00000000000E+00  0.00000000000E+00  0.58506491350E+03  0.58506491350E+03  0.00000000000E+00 0.  1.
         -2   -1    0    0    0  501 -0.00000000000E+00 -0.00000000000E+00 -0.11243752917E+01  0.11243752917E+01  0.00000000000E+00 0.  1.
          2    1    1    2  502    0 -0.20414257583E+02 -0.12207286944E+01  0.46885649513E+03  0.46930229610E+03  0.00000000000E+00 0.  1.
         -2    1    1    2    0  502  0.20414257583E+02  0.12207286944E+01  0.11508404307E+03  0.11688699270E+03  0.00000000000E+00 0.  1.
</event>
<event>
 4    1  0.5784609E+003  0.2058493E+02  0.7546771E-02  0.1525274E+00
          2   -1    0    0  501    0  0.00000000000E+00  0.00000000000E+00  0.11561881125E+04  0.11561881125E+04  0.00000000000E+00 0. -1.
         -2   -1    0    0    0  501 -0.00000000000E+00 -0.00000000000E+00 -0.57302208592E+00  0.57302208592E+00  0.00000000000E+00 0. -1.
          2    1    1    2  502    0  0.12804596643E+02  0.16117748675E+02  0.92503525757E+03  0.92526426888E+03  0.00000000000E+00 0. -1.
         -2    1    1    2    0  502 -0.12804596643E+02 -0.16117748675E+02  0.23057983287E+03  0.23149686573E+03  0.00000000000E+00 0. -1.
</event>
<event>
 4    1  0.5784609E+003  0.3908601E+02  0.7546771E-02  0.1353927E+00
          2   -1    0    0  501    0  0.00000000000E+00  0.00000000000E+00  0.80645044823E+03  0.80645044823E+03  0.00000000000E+00 0.  1.
         -2   -1    0    0    0  501 -0.00000000000E+00 -0.00000000000E+00 -0.39777927266E+02  0.39777927266E+02  0.00000000000E+00 0.  1.
          2    1    1    2  502    0 -0.39016404900E+02 -0.23316684848E+01  0.79625242321E+03  0.79721116274E+03  0.00000000000E+00 0.  1.
         -2    1    1    2    0  502  0.39016404900E+02  0.23316684848E+01 -0.29579902247E+02  0.49017212754E+02  0.00000000000E+00 0.  1.
</event>
<event>
 4    1  0.5784609E+003  0.4239361E+02  0.7546771E-02  0.1335003E+00
          2   -1    0    0  501    0  0.00000000000E+00  0.00000000000E+00  0.25596180721E+03  0.25596180721E+03  0.00000000000E+00 0.  1.
         -2   -1    0    0    0  501 -0.00000000000E+00 -0.00000000000E+00 -0.33550140292E+03  0.33550140292E+03  0.00000000000E+00 0.  1.
          2    1    1    2  502    0 -0.34088511858E+02  0.25203014267E+02  0.25285088305E+03  0.25638016231E+03  0.00000000000E+00 0.  1.
         -2    1    1    2    0  502  0.34088511858E+02 -0.25203014267E+02 -0.33239047876E+03  0.33508304782E+03  0.00000000000E+00 0.  1.
</event>
<event>
 4    1  0.5784609E+003  0.2232984E+02  0.7546771E-02  0.1501089E+00
          2   -1    0    0  501    0  0.00000000000E+00  0.00000000000E+00  0.19560247656E+03  0.19560247656E+03  0.00000000000E+00 0.  1.
         -2   -1    0    0    0  501 -0.00000000000E+00 -0.00000000000E+00 -0.66832089551E+02  0.66832089551E+02  0.00000000000E+00 0. -1.
          2    1    1    2  502    0  0.14590020755E+02 -0.16904226950E+02  0.19307565511E+03  0.19436262550E+03  0.00000000000E+00 0.  1.
         -2    1    1    2    0  502 -0.14590020755E+02  0.16904226950E+02 -0.64305268097E+02  0.68071940617E+02  0.00000000000E+00 0. -1.
</event>
<event>
 4    1  0.5784609E+003  0.2501404E+02  0.7546771E-02  0.1468646E+00
          2   -1    0    0  501    0  0.00000000000E+00  0.00000000000E+00  0.25289609093E+03  0.25289609093E+03  0.00000000000E+00 0. -1.
         -2   -1    0    0    0  501 -0.00000000000E+00 -0.00000000000E+00 -0.27477905916E+03  0.27477905916E+03  0.00000000000E+00 0.  1.
          2    1    1    2  502    0  0.13201639499E+02 -0.21246624239E+02  0.25170559038E+03  0.25294546162E+03  0.00000000000E+00 0. -1.
         -2    1    1    2    0  502 -0.13201639499E+02  0.21246624239E+02 -0.27358855860E+03  0.27472968847E+03  0.00000000000E+00 0.  1.
</event>
<event>
 4    1  0.5784609E+003  0.2370348E+02  0.7546771E-02  0.1483849E+00
          2   -1    0    0  501    0  0.00000000000E+00  0.00000000000E+00  0.26812410146E+03  0.26812410146E+03  0.00000000000E+00 0. -1.
         -2   -1    0    0    0  501 -0.00000000000E+00 -0.00000000000E+00 -0.17850521787E+02  0.17850521787E+02  0.00000000000E+00 0.  1.
          2    1    1    2  502    0 -0.78013753505E+01 -0.22382880366E+02  0.25946941729E+03  0.26054986720E+03  0.00000000000E+00 0. -1.
         -2    1    1    2    0  502  0.78013753505E+01  0.22382880366E+02 -0.91958376112E+01  0.25424756050E+02  0.00000000000E+00 0.  1.
</event>
<event>
 4    1  0.5784609E+003  0.2369049E+02  0.7546771E-02  0.1484005E+00
          2   -1    0    0  501    0  0.00000000000E+00  0.00000000000E+00  0.37540800176E+03  0.37540800176E+03  0.00000000000E+00 0. -1.
         -2   -1    0    0    0  501 -0.00000000000E+00 -0.00000000000E+00 -0.43884244781E+01  0.43884244781E+01  0.00000000000E+00 0.  1.
          2    1    1    2  502    0  0.17135647990E+02 -0.16358759000E+02  0.33970530538E+03  0.34053037152E+03  0.00000000000E+00 0. -1.
         -2    1    1    2    0  502 -0.17135647990E+02  0.16358759000E+02  0.31314271909E+02  0.39266054720E+02  0.00000000000E+00 0.  1.
</event>
<event>
 4    1  0.5784609E+003  0.2516945E+02  0.7546771E-02  0.1466917E+00
          2   -1    0    0  501    0  0.00000000000E+00  0.00000000000E+00  0.53808022075E+01  0.53808022075E+01  0.00000000000E+00 0.  1.
         -2   -1    0    0    0  501 -0.00000000000E+00 -0.00000000000E+00 -0.11811608795E+03  0.11811608795E+03  0.00000000000E+00 0. -1.
          2    1    1    2  502    0 -0.24859104592E+02  0.39403144792E+01 -0.52853768527E+02  0.58540772174E+02  0.00000000000E+00 0.  1.
         -2    1    1    2    0  502  0.24859104592E+02 -0.39403144792E+01 -0.59881517212E+02  0.64956117979E+02  0.00000000000E+00 0. -1.
</event>
<event>
 4    1  0.5784609E+003  0.2024486E+02  0.7546771E-02  0.1530325E+00
          2   -1    0    0  501    0  0.00000000000E+00  0.00000000000E+00  0.22376039151E+02  0.22376039151E+02  0.00000000000E+00 0. -1.
         -2   -1    0    0    0  501 -0.00000000000E+00 -0.00000000000E+00 -0.31377619778E+02  0.31377619778E+02  0.00000000000E+00 0. -1.
          2    1    1    2  502    0  0.20239739418E+02 -0.45510959811E+00  0.12839472538E+02  0.23973031337E+02  0.00000000000E+00 0. -1.
         -2    1    1    2    0  502 -0.20239739418E+02  0.45510959811E+00 -0.21841053165E+02  0.29780627592E+02  0.00000000000E+00 0. -1.
</event>
<event>
 4    1  0.5784609E+003  0.2332160E+02  0.7546771E-02  0.1488499E+00
          2   -1    0    0  501    0  0.00000000000E+00  0.00000000000E+00  0.33212423291E+02  0.33212423291E+02  0.00000000000E+00 0.  1.
         -2   -1    0    0    0  501 -0.00000000000E+00 -0.00000000000E+00 -0.73921277040E+02  0.73921277040E+02  0.00000000000E+00 0. -1.
          2    1    1    2  502    0  0.17794151183E+02  0.15075311185E+02  0.26907896273E+02  0.35608028666E+02  0.00000000000E+00 0.  1.
         -2    1    1    2    0  502 -0.17794151183E+02 -0.15075311185E+02 -0.67616750022E+02  0.71525671665E+02  0.00000000000E+00 0. -1.
</event>
<event>
 4    1  0.5784609E+003  0.4197886E+02  0.7546771E-02  0.1337264E+00
          2   -1    0    0  501    0  0.00000000000E+00  0.00000000000E+00  0.90433547551E+03  0.90433547551E+03  0.00000000000E+00 0. -1.
         -2   -1    0    0    0  501 -0.00000000000E+00 -0.00000000000E+00 -0.13475458001E+02  0.13475458001E+02  0.00000000000E+00 0. -1.
          2    1    1    2  502    0  0.40496758450E+02 -0.11056100714E+02  0.86986010392E+03  0.87087245059E+03  0.00000000000E+00 0. -1.
         -2    1    1    2    0  502 -0.40496758450E+02  0.11056100714E+02  0.20999913587E+02  0.46938482918E+02  0.00000000000E+00 0. -1.
</event>
<event>
 4    1  0.5784609E+003  0.2120541E+02  0.7546771E-02  0.1516352E+00
          2   -1    0    0  501    0  0.00000000000E+00  0.00000000000E+00  0.81126933416E+03  0.81126933416E+03  0.00000000000E+00 0. -1.
         -2   -1    0    0    0  501 -0.00000000000E+00 -0.00000000000E+00 -0.63973584619E+01  0.63973584619E+01  0.00000000000E+00 0. -1.
          2    1    1    2  502    0 -0.14282710826E+02  0.15673979529E+02  0.79315709151E+03  0.79344050897E+03  0.00000000000E+00 0. -1.
         -2    1    1    2    0  502  0.14282710826E+02 -0.15673979529E+02  0.11714884190E+02  0.24226183653E+02  0.00000000000E+00 0. -1.
</event>
<event>
 4    1  0.5784609E+003  0.6089448E+02  0.7546771E-02  0.1256823E+00
          2   -1    0    0  501    0  0.00000000000E+00  0.00000000000E+00  0.10227509422E+04  0.10227509422E+04  0.00000000000E+00 0.  1.
         -2   -1    0    0    0  501 -0.00000000000E+00 -0.00000000000E+00 -0.55606591931E+01  0.55606591931E+01  0.00000000000E+00 0.  1.
          2    1    1    2  502    0  0.44812962940E+02  0.41230281125E+02  0.81189557556E+03  0.81417600268E+03  0.00000000000E+00 0.  1.
         -2    1    1    2    0  502 -0.44812962940E+02 -0.41230281125E+02  0.20529470741E+03  0.21413559868E+03  0.00000000000E+00 0.  1.
</event>
<event>
 4    1  0.5784609E+003  0.3036331E+02  0.7546771E-02  0.1416465E+00
          2   -1    0    0  501    0  0.00000000000E+00  0.00000000000E+00  0.10961698934E+03  0.10961698934E+03  0.00000000000E+00 0. -1.
         -2   -1    0    0    0  501 -0.00000000000E+00 -0.00000000000E+00 -0.12560509981E+02  0.12560509981E+02  0.00000000000E+00 0. -1.
          2    1    1    2  502    0 -0.16685416942E+01 -0.30317429413E+02  0.83642511371E+02  0.88983145966E+02  0.00000000000E+00 0. -1.
         -2    1    1    2    0  502  0.16685416942E+01  0.30317429413E+02  0.13413967991E+02  0.33194353358E+02  0.00000000000E+00 0. -1.
</event>
<event>
 4    1  0.5784609E+003  0.2912236E+02  0.7546771E-02  0.1427379E+00
          2   -1    0    0  501    0  0.00000000000E+00  0.00000000000E+00  0.10447006737E+03  0.10447006737E+03  0.00000000000E+00 0. -1.
         -2   -1    0    0    0  501 -0.00000000000E+00 -0.00000000000E+00 -0.56760775143E+02  0.56760775143E+02  0.00000000000E+00 0.  1.
          2    1    1    2  502    0  0.10597502212E+02 -0.27125723044E+02  0.98482700573E+02  0.10269836521E+03  0.00000000000E+00 0. -1.
         -2    1    1    2    0  502 -0.10597502212E+02  0.27125723044E+02 -0.50773408349E+02  0.58532477303E+02  0.00000000000E+00 0.  1.
</event>
<event>
 4    1  0.5784609E+003  0.3284559E+02  0.7546771E-02  0.1396377E+00
          2   -1    0    0  501    0  0.00000000000E+00  0.00000000000E+00  0.25034374958E+03  0.25034374958E+03  0.00000000000E+00 0. -1.
         -2   -1    0    0    0  501 -0.00000000000E+00 -0.00000000000E+00 -0.12998998550E+02  0.12998998550E+02  0.00000000000E+00 0.  1.
          2    1    1    2  502    0 -0.24534881145E+02  0.21837401811E+02  0.22632786034E+03  0.22869878197E+03  0.00000000000E+00 0. -1.
         -2    1    1    2    0  502  0.24534881145E+02 -0.21837401811E+02  0.11016890693E+02  0.34643966159E+02  0.00000000000E+00 0.  1.
</event>
<event>
 4    1  0.5784609E+003  0.2266783E+02  0.7546771E-02  0.1496712E+00
          2   -1    0    0  501    0  0.00000000000E+00  0.00000000000E+00  0.81030562072E+03  0.81030562072E+03  0.00000000000E+00 0.  1.
         -2   -1    0    0    0  501 -0.00000000000E+00 -0.00000000000E+00 -0.36675822699E+01  0.36675822699E+01  0.00000000000E+00 0.  1.
          2    1    1    2  502    0  0.50440192946E+01 -0.22099509399E+02  0.77345348521E+03  0.77378558027E+03  0.00000000000E+00 0.  1.
         -2    1    1    2    0  502 -0.50440192946E+01  0.22099509399E+02  0.33184553238E+02  0.40187622720E+02  0.00000000000E+00 0.  1.
</event>
<event>
 4    1  0.5784609E+003  0.3164404E+02  0.7546771E-02  0.1405828E+00
          2   -1    0    0  501    0  0.00000000000E+00  0.00000000000E+00  0.24465608450E+02  0.24465608450E+02  0.00000000000E+00 0.  1.
         -2   -1    0    0    0  501 -0.00000000000E+00 -0.00000000000E+00 -0.72930791998E+02  0.72930791998E+02  0.00000000000E+00 0. -1.
          2    1    1    2  502    0  0.30974640705E+02 -0.64743132597E+01  0.80261003323E+01  0.32646031696E+02  0.00000000000E+00 0.  1.
         -2    1    1    2    0  502 -0.30974640705E+02  0.64743132597E+01 -0.56491283880E+02  0.64750368751E+02  0.00000000000E+00 0. -1.
</event>
<event>
 4    1  0.5784609E+003  0.2037607E+02  0.7546771E-02  0.1528362E+00
          2   -1    0    0  501    0  0.00000000000E+00  0.00000000000E+00  0.19001949626E+03  0.19001949626E+03  0.00000000000E+00 0. -1.
         -2   -1    0    0    0  501 -0.00000000000E+00 -0.00000000000E+00 -0.22730427758E+02  0.22730427758E+02  0.00000000000E+00 0.  1.
          2    1    1    2  502    0 -0.16265224251E+02  0.12273004833E+02  0.18477771734E+03  0.18589779179E+03  0.00000000000E+00 0. -1.
         -2    1    1    2    0  502  0.16265224251E+02 -0.12273004833E+02 -0.17488648831E+02  0.26852132234E+02  0.00000000000E+00 0.  1.
</event>
<event>
 4    1  0.5784609E+003  0.7346374E+02  0.7546771E-02  0.1219893E+00
          2   -1    0    0  501    0  0.00000000000E+00  0.00000000000E+00  0.99811717932E+02  0.99811717932E+02  0.00000000000E+00 0.  1.
         -2   -1    0    0    0  501 -0.00000000000E+00 -0.00000000000E+00 -0.58249962037E+02  0.58249962037E+02  0.00000000000E+00 0.  1.
          2    1    1    2  502    0  0.68450296656E+02  0.26673551085E+02  0.41948980249E+02  0.84596917105E+02  0.00000000000E+00 0.  1.
         -2    1    1    2    0  502 -0.68450296656E+02 -0.26673551085E+02 -0.38722435397E+00  0.73464762863E+02  0.00000000000E+00 0.  1.
</event>
<event>
 4    1  0.5784609E+003  0.2028536E+02  0.7546771E-02  0.1529717E+00
          2   -1    0    0  501    0  0.00000000000E+00  0.00000000000E+00  0.32116233489E+03  0.32116233489E+03  0.00000000000E+00 0.  1.
         -2   -1    0    0    0  501 -0.00000000000E+00 -0.00000000000E+00 -0.23712421793E+01  0.23712421793E+01  0.00000000000E+00 0. -1.
          2    1    1    2  502    0  0.19905138642E+02 -0.39091028732E+01  0.26907092347E+03  0.26983450018E+03  0.00000000000E+00 0.  1.
         -2    1    1    2    0  502 -0.19905138642E+02  0.39091028732E+01  0.49720169245E+02  0.53699076895E+02  0.00000000000E+00 0. -1.
</event>
<event>
 4    1  0.5784609E+003  0.3597392E+02  0.7546771E-02  0.1373843E+00
          2   -1    0    0  501    0  0.00000000000E+00  0.00000000000E+00  0.27469063492E+01  0.27469063492E+01  0.00000000000E+00 0. -1.
         -2   -1    0    0    0  501 -0.00000000000E+00 -0.00000000000E+00 -0.69380106491E+03  0.69380106491E+03  0.00000000000E+00 0.  1.
          2    1    1    2  502    0 -0.27587540130E+02  0.23087892247E+02 -0.14821894965E+03  0.15252206455E+03  0.00000000000E+00 0. -1.
         -2    1    1    2    0  502  0.27587540130E+02 -0.23087892247E+02 -0.54283520891E+03  0.54402590671E+03  0.00000000000E+00 0.  1.
</event>
<event>
 4    1  0.5784609E+003  0.2005138E+02  0.7546771E-02  0.1533252E+00
          2   -1    0    0  501    0  0.00000000000E+00  0.00000000000E+00  0.45705954088E+03  0.45705954088E+03  0.00000000000E+00 0.  1.
         -2   -1    0    0    0  501 -0.00000000000E+00 -0.00000000000E+00 -0.56933314798E+01  0.56933314798E+01  0.00000000000E+00 0.  1.
          2    1    1    2  502    0  0.10673229596E+02 -0.16974689909E+02  0.43843528730E+03  0.43889356236E+03  0.00000000000E+00 0.  1.
         -2    1    1    2    0  502 -0.10673229596E+02  0.16974689909E+02  0.12930922100E+02  0.23859310004E+02  0.00000000000E+00 0.  1.
</event>
<event>
 4    1  0.5784609E+003  0.2899154E+02  0.7546771E-02  0.1428567E+00
          2   -1    0    0  501    0  0.00000000000E+00  0.00000000000E+00  0.13628435665E+04  0.13628435665E+04  0.00000000000E+00 0. -1.
         -2   -1    0    0    0  501 -0.00000000000E+00 -0.00000000000E+00 -0.10281041698E+02  0.10281041698E+02  0.00000000000E+00 0. -1.
          2    1    1    2  502    0  0.26043905090E+02  0.12736739197E+02  0.13419326002E+04  0.13422457349E+04  0.00000000000E+00 0. -1.
         -2    1    1    2    0  502 -0.26043905090E+02 -0.12736739197E+02  0.10629924646E+02  0.30878873290E+02  0.00000000000E+00 0. -1.
</event>
<event>
 4    1  0.5784609E+003  0.2401959E+02  0.7546771E-02  0.1480077E+00
          2   -1    0    0  501    0  0.00000000000E+00  0.00000000000E+00  0.11578415065E+03  0.11578415065E+03  0.00000000000E+00 0. -1.
         -2   -1    0    0    0  501 -0.00000000000E+00 -0.00000000000E+00 -0.67209750718E+01  0.67209750718E+01  0.00000000000E+00 0. -1.
          2    1    1    2  502    0  0.10017247568E+02 -0.21831063619E+02  0.85680484224E+02  0.88983627508E+02  0.00000000000E+00 0. -1.
         -2    1    1    2    0  502 -0.10017247568E+02  0.21831063619E+02  0.23382691356E+02  0.33521498216E+02  0.00000000000E+00 0. -1.
</event>
<event>
 4    1  0.5784609E+003  0.2738212E+02  0.7546771E-02  0.1443807E+00
          2   -1    0    0  501    0  0.00000000000E+00  0.00000000000E+00  0.22385015753E+03  0.22385015753E+03  0.00000000000E+00 0. -1.
         -2   -1    0    0    0  501 -0.00000000000E+00 -0.00000000000E+00 -0.86586689997E+02  0.86586689997E+02  0.00000000000E+00 0.  1.
          2    1    1    2  502    0 -0.25984230003E+02  0.86371306446E+01  0.22081835443E+03  0.22250960852E+03  0.00000000000E+00 0. -1.
         -2    1    1    2    0  502  0.25984230003E+02 -0.86371306446E+01 -0.83554886894E+02  0.87927239002E+02  0.00000000000E+00 0.  1.
</event>
<event>
 4    1  0.5784609E+003  0.2502887E+02  0.7546771E-02  0.1468481E+00
          2   -1    0    0  501    0  0.00000000000E+00  0.00000000000E+00  0.26378066578E+02  0.26378066578E+02  0.00000000000E+00 0. -1.
         -2   -1    0    0    0  501 -0.00000000000E+00 -0.00000000000E+00 -0.30919668058E+02  0.30919668058E+02  0.00000000000E+00 0. -1.
          2    1    1    2  502    0  0.23370185435E+02  0.89598454349E+01  0.11526031670E+02  0.27555286308E+02  0.00000000000E+00 0. -1.
         -2    1    1    2    0  502 -0.23370185435E+02 -0.89598454349E+01 -0.16067633150E+02  0.29742448328E+02  0.00000000000E+00 0. -1.
</event>
<event>
 4    1  0.5784609E+003  0.3503315E+02  0.7546771E-02  0.1380330E+00
          2   -1    0    0  501    0  0.00000000000E+00  0.00000000000E+00  0.62841789138E+02  0.62841789138E+02  0.00000000000E+00 0. -1.
         -2   -1    0    0    0  501 -0.00000000000E+00 -0.00000000000E+00 -0.83503964241E+02  0.83503964241E+02  0.00000000000E+00 0.  1.
          2    1    1    2  502    0  0.28224762361E+02  0.20752940813E+02  0.53715654981E+02  0.64130284209E+02  0.00000000000E+00 0. -1.
         -2    1    1    2    0  502 -0.28224762361E+02 -0.20752940813E+02 -0.74377830084E+02  0.82215469169E+02  0.00000000000E+00 0.  1.
</event>
<event>
 4    1  0.5784609E+003  0.6552060E+02  0.7546771E-02  0.1242147E+00
          2   -1    0    0  501    0  0.00000000000E+00  0.00000000000E+00  0.26912904082E+03  0.26912904082E+03  0.00000000000E+00 0.  1.
         -2   -1    0    0    0  501 -0.00000000000E+00 -0.00000000000E+00 -0.11682823829E+03  0.11682823829E+03  0.00000000000E+00 0.  1.
          2    1    1    2  502    0  0.40586437523E+02  0.51436276511E+02  0.25547147956E+03  0.26373969424E+03  0.00000000000E+00 0.  1.
         -2    1    1    2    0  502 -0.40586437523E+02 -0.51436276511E+02 -0.10317067703E+03  0.12221758487E+03  0.00000000000E+00 0.  1.
</event>
<event>
 4    1  0.5784609E+003  0.2084152E+02  0.7546771E-02  0.1521540E+00
          2   -1    0    0  501    0  0.00000000000E+00  0.00000000000E+00  0.37332531050E+03  0.37332531050E+03  0.00000000000E+00 0. -1.
         -2   -1    0    0    0  501 -0.00000000000E+00 -0.00000000000E+00 -0.23374111532E+03  0.23374111532E+03  0.00000000000E+00 0. -1.
          2    1    1    2  502    0  0.30190045649E+01 -0.20621705224E+02  0.37256890604E+03  0.37315138867E+03  0.00000000000E+00 0. -1.
         -2    1    1    2    0  502 -0.30190045649E+01  0.20621705224E+02 -0.23298471086E+03  0.23391503716E+03  0.00000000000E+00 0. -1.
</event>
<event>
 4    1  0.5784609E+003  0.2192005E+02  0.7546771E-02  0.1506523E+00
          2   -1    0    0  501    0  0.00000000000E+00  0.00000000000E+00  0.99994351672E+03  0.99994351672E+03  0.00000000000E+00 0. -1.
         -2   -1    0    0    0  501 -0.00000000000E+00 -0.00000000000E+00 -0.26591455178E+01  0.26591455178E+01  0.00000000000E+00 0. -1.
          2    1    1    2  502    0  0.19765509608E+02 -0.94769792616E+01  0.95239520992E+03  0.95264742921E+03  0.00000000000E+00 0. -1.
         -2    1    1    2    0  502 -0.19765509608E+02  0.94769792616E+01  0.44889161280E+02  0.49955233024E+02  0.00000000000E+00 0. -1.
</event>
<event>
 4    1  0.5784609E+003  0.2271436E+02  0.7546771E-02  0.1496116E+00
          2   -1    0    0  501    0  0.00000000000E+00  0.00000000000E+00  0.86326222910E+02  0.86326222910E+02  0.00000000000E+00 0.  1.
         -2   -1    0    0    0  501 -0.00000000000E+00 -0.00000000000E+00 -0.16465064816E+02  0.16465064816E+02  0.00000000000E+00 0.  1.
          2    1    1    2  502    0  0.22707468460E+02  0.55966976753E+00  0.75950927043E+02  0.79274748015E+02  0.00000000000E+00 0.  1.
         -2    1    1    2    0  502 -0.22707468460E+02 -0.55966976753E+00 -0.60897689498E+01  0.23516539711E+02  0.00000000000E+00 0.  1.
</event>
<event>
 4    1  0.5784609E+003  0.4768156E+02  0.7546771E-02  0.1308550E+00
          2   -1    0    0  501    0  0.00000000000E+00  0.00000000000E+00  0.18261959337E+04  0.18261959337E+04  0.00000000000E+00 0. -1.
         -2   -1    0    0    0  501 -0.00000000000E+00 -0.00000000000E+00 -0.25117376322E+01  0.25117376322E+01  0.00000000000E+00 0.  1.
          2    1    1    2  502    0  0.12538427770E+02  0.46003469882E+02  0.15611911901E+04  0.15619191603E+04  0.00000000000E+00 0. -1.
         -2    1    1    2    0  502 -0.12538427770E+02 -0.46003469882E+02  0.26249300600E+03  0.26678851102E+03  0.00000000000E+00 0.  1.
</event>
<event>
 4    1  0.5784609E+003  0.3219924E+02  0.7546771E-02  0.1401400E+00
          2   -1    0    0  501    0  0.00000000000E+00  0.00000000000E+00  0.16698196993E+03  0.16698196993E+03  0.00000000000E+00 0. -1.
         -2   -1    0    0    0  501 -0.00000000000E+00 -0.00000000000E+00 -0.71027497460E+01  0.71027497460E+01  0.00000000000E+00 0. -1.
          2    1    1    2  502    0  0.22030369687E+02  0.23483051673E+02  0.11081593339E+03  0.11539914210E+03  0.00000000000E+00 0. -1.
         -2    1    1    2    0  502 -0.22030369687E+02 -0.23483051673E+02  0.49063286798E+02  0.58685577580E+02  0.00000000000E+00 0. -1.
</event>
<event>
 4    1  0.5784609E+003  0.3247769E+02  0.7546771E-02  0.1399219E+00
          2   -1    0    0  501    0  0.00000000000E+00  0.00000000000E+00  0.26505602457E+03  0.26505602457E+03  0.00000000000E+00 0.  1.
         -2   -1    0    0    0  501 -0.00000000000E+00 -0.00000000000E+00 -0.89728771449E+01  0.89728771449E+01  0.00000000000E+00 0.  1.
          2    1    1    2  502    0 -0.18407547993E+02 -0.26757474413E+02  0.23025220924E+03  0.23253146050E+03  0.00000000000E+00 0.  1.
         -2    1    1    2    0  502  0.18407547993E+02  0.26757474413E+02  0.25830938178E+02  0.41497441213E+02  0.00000000000E+00 0.  1.
</event>
<event>
 4    1  0.5784609E+003  0.2211954E+02  0.7546771E-02  0.1503860E+00
          2   -1    0    0  501    0  0.00000000000E+00  0.00000000000E+00  0.17957626081E+03  0.17957626081E+03  0.00000000000E+00 0. -1.
         -2   -1    0    0    0  501 -0.00000000000E+00 -0.00000000000E+00 -0.49114278535E+02  0.49114278535E+02  0.00000000000E+00 0. -1.
          2    1    1    2  502    0  0.92654667055E+01 -0.20085450983E+02  0.17635937053E+03  0.17774110889E+03  0.00000000000E+00 0. -1.
         -2    1    1    2    0  502 -0.92654667055E+01  0.20085450983E+02 -0.45897388260E+02  0.50949430454E+02  0.00000000000E+00 0. -1.
</event>
<event>
 4    1  0.5784609E+003  0.4826641E+02  0.7546771E-02  0.1305869E+00
          2   -1    0    0  501    0  0.00000000000E+00  0.00000000000E+00  0.64678805735E+03  0.64678805735E+03  0.00000000000E+00 0.  1.
         -2   -1    0    0    0  501 -0.00000000000E+00 -0.00000000000E+00 -0.35707771047E+02  0.35707771047E+02  0.00000000000E+00 0.  1.
          2    1    1    2  502    0  0.84545264771E+01 -0.47520175468E+02  0.62911969594E+03  0.63096849202E+03  0.00000000000E+00 0.  1.
         -2    1    1    2    0  502 -0.84545264771E+01  0.47520175468E+02 -0.18039409639E+02  0.51527336381E+02  0.00000000000E+00 0.  1.
</event>
<event>
 4    1  0.5784609E+003  0.2056329E+02  0.7546771E-02  0.1525592E+00
          2   -1    0    0  501    0  0.00000000000E+00  0.00000000000E+00  0.68290563777E+03  0.68290563777E+03  0.00000000000E+00 0. -1.
         -2   -1    0    0    0  501 -0.00000000000E+00 -0.00000000000E+00 -0.90158024013E+01  0.90158024013E+01  0.00000000000E+00 0. -1.
          2    1    1    2  502    0 -0.16787259347E+02 -0.11875895725E+02  0.67081432720E+03  0.67112942906E+03  0.00000000000E+00 0. -1.
         -2    1    1    2    0  502  0.16787259347E+02  0.11875895725E+02  0.30755081732E+01  0.20792011114E+02  0.00000000000E+00 0. -1.
</event>
<event>
 4    1  0.5784609E+003  0.2003991E+02  0.7546771E-02  0.1533426E+00
          2   -1    0    0  501    0  0.00000000000E+00  0.00000000000E+00  0.12186769940E+04  0.12186769940E+04  0.00000000000E+00 0.  1.
         -2   -1    0    0    0  501 -0.00000000000E+00 -0.00000000000E+00 -0.50931919989E+00  0.50931919989E+00  0.00000000000E+00 0.  1.
          2    1    1    2  502    0 -0.28274139825E+01  0.19839448747E+02  0.97125974559E+03  0.97146646437E+03  0.00000000000E+00 0.  1.
         -2    1    1    2    0  502  0.28274139825E+01 -0.19839448747E+02  0.24690792926E+03  0.24771984888E+03  0.00000000000E+00 0.  1.
</event>
<event>
 4    1  0.5784609E+003  0.2105703E+02  0.7546771E-02  0.1518452E+00
          2   -1    0    0  501    0  0.00000000000E+00  0.00000000000E+00  0.72940304328E+02  0.72940304328E+02  0.00000000000E+00 0.  1.
         -2   -1    0    0    0  501 -0.00000000000E+00 -0.00000000000E+00 -0.78495704347E+01  0.78495704347E+01  0.00000000000E+00 0. -1.
          2    1    1    2  502    0 -0.20496408123E+02  0.48265798054E+01  0.51730721565E+02  0.55852181445E+02  0.00000000000E+00 0.  1.
         -2    1    1    2    0  502  0.20496408123E+02 -0.48265798054E+01  0.13360012328E+02  0.24937693317E+02  0.00000000000E+00 0. -1.
</event>
<event>
 4    1  0.5784609E+003  0.2067654E+02  0.7546771E-02  0.1523934E+00
          2   -1    0    0  501    0  0.00000000000E+00  0.00000000000E+00  0.58353290652E+03  0.58353290652E+03  0.00000000000E+00 0.  1.
         -2   -1    0    0    0  501 -0.00000000000E+00 -0.00000000000E+00 -0.11761254894E+02  0.11761254894E+02  0.00000000000E+00 0. -1.
          2    1    1    2  502    0 -0.13780820391E+02 -0.15414542686E+02  0.57411324705E+03  0.57448545636E+03  0.00000000000E+00 0.  1.
         -2    1    1    2    0  502  0.13780820391E+02  0.15414542686E+02 -0.23415954192E+01  0.20808705053E+02  0.00000000000E+00 0. -1.
</event>
<event>
 4    1  0.5784609E+003  0.2877222E+02  0.7546771E-02  0.1430574E+00
          2   -1    0    0  501    0  0.00000000000E+00  0.00000000000E+00  0.31763288146E+01  0.31763288146E+01  0.00000000000E+00 0. -1.
         -2   -1    0    0    0  501 -0.00000000000E+00 -0.00000000000E+00 -0.30870401925E+03  0.30870401925E+03  0.00000000000E+00 0. -1.
          2    1    1    2  502    0 -0.76136487611E+00  0.28762144841E+02 -0.91224833571E+02  0.95654643967E+02  0.00000000000E+00 0. -1.
         -2    1    1    2    0  502  0.76136487611E+00 -0.28762144841E+02 -0.21430285686E+03  0.21622570410E+03  0.00000000000E+00 0. -1.
</event>
<event>
 4    1  0.5784609E+003  0.2833678E+02  0.7546771E-02  0.1434623E+00
          2   -1    0    0  501    0  0.00000000000E+00  0.00000000000E+00  0.14152327724E+04  0.14152327724E+04  0.00000000000E+00 0.  1.
         -2   -1    0    0    0  501 -0.00000000000E+00 -0.00000000000E+00 -0.16611291642E+01  0.16611291642E+01  0.00000000000E+00 0. -1.
          2    1    1    2  502    0 -0.16216804052E+02 -0.23237644774E+02  0.12816493653E+04  0.12819625847E+04  0.00000000000E+00 0.  1.
         -2    1    1    2    0  502  0.16216804052E+02  0.23237644774E+02  0.13192227791E+03  0.13493131689E+03  0.00000000000E+00 0. -1.
</event>
<event>
 4    1  0.5784609E+003  0.4831091E+02  0.7546771E-02  0.1305667E+00
          2   -1    0    0  501    0  0.00000000000E+00  0.00000000000E+00  0.79636428861E+03  0.79636428861E+03  0.00000000000E+00 0.  1.
         -2   -1    0    0    0  501 -0.00000000000E+00 -0.00000000000E+00 -0.66378061846E+01  0.66378061846E+01  0.00000000000E+00 0. -1.
          2    1    1    2  502    0 -0.12111911372E+02 -0.46768000049E+02  0.69491005090E+03  0.69658734059E+03  0.00000000000E+00 0.  1.
         -2    1    1    2    0  502  0.12111911372E+02  0.46768000049E+02  0.94816431528E+02  0.10641475421E+03  0.00000000000E+00 0. -1.
</event>
<event>
 4    1  0.5784609E+003  0.2763113E+02  0.7546771E-02  0.1441369E+00
          2   -1    0    0  501    0  0.00000000000E+00  0.00000000000E+00  0.15534993653E+02  0.15534993653E+02  0.00000000000E+00 0.  1.
         -2   -1    0    0    0  501 -0.00000000000E+00 -0.00000000000E+00 -0.56614063908E+02  0.56614063908E+02  0.00000000000E+00 0. -1.
          2    1    1    2  502    0  0.38599461544E+01  0.27360192196E+02 -0.74371892732E+01  0.28614525780E+02  0.00000000000E+00 0.  1.
         -2    1    1    2    0  502 -0.38599461544E+01 -0.27360192196E+02 -0.33641880982E+02  0.43534531780E+02  0.00000000000E+00 0. -1.
</event>
<event>
 4    1  0.5784609E+003  0.2910832E+02  0.7546771E-02  0.1427507E+00
          2   -1    0    0  501    0  0.00000000000E+00  0.00000000000E+00  0.26562333123E+02  0.26562333123E+02  0.00000000000E+00 0. -1.
         -2   -1    0    0    0  501 -0.00000000000E+00 -0.00000000000E+00 -0.53500632314E+02  0.53500632314E+02  0.00000000000E+00 0.  1.
          2    1    1    2  502    0  0.42409673825E+01 -0.28797715029E+02  0.11968219412E+02  0.31472725830E+02  0.00000000000E+00 0. -1.
         -2    1    1    2    0  502 -0.42409673825E+01  0.28797715029E+02 -0.38906518603E+02  0.48590239607E+02  0.00000000000E+00 0.  1.
</event>
<event>
 4    1  0.5784609E+003  0.2260882E+02  0.7546771E-02  0.1497469E+00
          2   -1    0    0  501    0  0.00000000000E+00  0.00000000000E+00  0.94934202320E+01  0.94934202320E+01  0.00000000000E+00 0. -1.
         -2   -1    0    0    0  501 -0.00000000000E+00 -0.00000000000E+00 -0.84990723261E+02  0.84990723261E+02  0.00000000000E+00 0. -1.
          2    1    1    2  502    0 -0.14709264240E+02  0.17169633831E+02 -0.91495110236E+01  0.24390004763E+02  0.00000000000E+00 0. -1.
         -2    1    1    2    0  502  0.14709264240E+02 -0.17169633831E+02 -0.66347792005E+02  0.70094138730E+02  0.00000000000E+00 0. -1.
</event>
<event>
 4    1  0.5784609E+003  0.2721097E+02  0.7546771E-02  0.1445500E+00
          2   -1    0    0  501    0  0.00000000000E+00  0.00000000000E+00  0.80327084930E+03  0.80327084930E+03  0.00000000000E+00 0.  1.
         -2   -1    0    0    0  501 -0.00000000000E+00 -0.00000000000E+00 -0.73121415776E+01  0.73121415776E+01  0.00000000000E+00 0.  1.
          2    1    1    2  502    0 -0.27164583603E+02 -0.15881583635E+01  0.77686486862E+03  0.77734127701E+03  0.00000000000E+00 0.  1.
         -2    1    1    2    0  502  0.27164583603E+02  0.15881583635E+01  0.19093839109E+02  0.33241713873E+02  0.00000000000E+00 0.  1.
</event>
<event>
 4    1  0.5784609E+003  0.2065026E+02  0.7546771E-02  0.1524317E+00
          2   -1    0    0  501    0  0.00000000000E+00  0.00000000000E+00  0.19886795523E+04  0.19886795523E+04  0.00000000000E+00 0. -1.
         -2   -1    0    0    0  501 -0.00000000000E+00 -0.00000000000E+00 -0.26013197531E+00  0.26013197531E+00  0.00000000000E+00 0. -1.
          2    1    1    2  502    0 -0.32545775002E+01  0.20392181883E+02  0.14110410091E+04  0.14111921069E+04  0.00000000000E+00 0. -1.
         -2    1    1    2    0  502  0.32545775002E+01 -0.20392181883E+02  0.57737841124E+03  0.57774757734E+03  0.00000000000E+00 0. -1.
</event>
<event>
 4    1  0.5784609E+003  0.2032658E+02  0.7546771E-02  0.1529101E+00
          2   -1    0    0  501    0  0.00000000000E+00  0.00000000000E+00  0.93351926362E+03  0.93351926362E+03  0.00000000000E+00 0. -1.
         -2   -1    0    0    0  501 -0.00000000000E+00 -0.00000000000E+00 -0.11530135926E+02  0.11530135926E+02  0.00000000000E+00 0. -1.
          2    1    1    2  502    0 -0.17111767034E+02 -0.10970741870E+02  0.92436139697E+03  0.92458485925E+03  0.00000000000E+00 0. -1.
         -2    1    1    2    0  502  0.17111767034E+02  0.10970741870E+02 -0.23722692698E+01  0.20464540301E+02  0.00000000000E+00 0. -1.
</event>
<event>
 4    1  0.5784609E+003  0.2392541E+02  0.7546771E-02  0.1481194E+00
          2   -1    0    0  501    0  0.00000000000E+00  0.00000000000E+00  0.39279508715E+02  0.39279508715E+02  0.00000000000E+00 0. -1.
         -2   -1    0    0    0  501 -0.00000000000E+00 -0.00000000000E+00 -0.25188404661E+02  0.25188404661E+02  0.00000000000E+00 0.  1.
          2    1    1    2  502    0  0.23838584184E+02 -0.20364115608E+01  0.27971207518E+02  0.36807791538E+02  0.00000000000E+00 0. -1.
         -2    1    1    2    0  502 -0.23838584184E+02  0.20364115608E+01 -0.13880103464E+02  0.27660121838E+02  0.00000000000E+00 0.  1.
</event>
<event>
 4    1  0.5784609E+003  0.2014991E+02  0.7546771E-02  0.1531756E+00
          2   -1    0    0  501    0  0.00000000000E+00  0.00000000000E+00  0.92642681397E+03  0.92642681397E+03  0.00000000000E+00 0. -1.
         -2   -1    0    0    0  501 -0.00000000000E+00 -0.00000000000E+00 -0.92366692885E+00  0.92366692885E+00  0.00000000000E+00 0. -1.
          2    1    1    2  502    0  0.39252438362E+01  0.19763884739E+02  0.79888198840E+03  0.79913606480E+03  0.00000000000E+00 0. -1.
         -2    1    1    2    0  502 -0.39252438362E+01 -0.19763884739E+02  0.12662115865E+03  0.12821441610E+03  0.00000000000E+00 0. -1.
</event>
<event>
 4    1  0.5784609E+003  0.2085744E+02  0.7546771E-02  0.1521310E+00
          2   -1    0    0  501    0  0.00000000000E+00  0.00000000000E+00  0.90715024989E+03  0.90715024989E+03  0.00000000000E+00 0.  1.
         -2   -1    0    0    0  501 -0.00000000000E+00 -0.00000000000E+00 -0.23376474965E+02  0.23376474965E+02  0.00000000000E+00 0. -1.
          2    1    1    2  502    0 -0.64469045353E+01 -0.19836080755E+02  0.90235316755E+03  0.90259418992E+03  0.00000000000E+00 0.  1.
         -2    1    1    2    0  502  0.64469045353E+01  0.19836080755E+02 -0.18579392627E+02  0.27932534940E+02  0.00000000000E+00 0. -1.
</event>
<event>
 4    1  0.5784609E+003  0.2203967E+02  0.7546771E-02  0.1504922E+00
          2   -1    0    0  501    0  0.00000000000E+00  0.00000000000E+00  0.23161408488E+03  0.23161408488E+03  0.00000000000E+00 0.  1.
         -2   -1    0    0    0  501 -0.00000000000E+00 -0.00000000000E+00 -0.41753604610E+01  0.41753604610E+01  0.00000000000E+00 0. -1.
          2    1    1    2  502    0  0.20951168666E+02 -0.68407458964E+01  0.19689269678E+03  0.19812238974E+03  0.00000000000E+00 0.  1.
         -2    1    1    2    0  502 -0.20951168666E+02  0.68407458964E+01  0.30546027647E+02  0.37667055605E+02  0.00000000000E+00 0. -1.
</event>
<event>
 4    1  0.5784609E+003  0.2014273E+02  0.7546771E-02  0.1531865E+00
          2   -1    0    0  501    0  0.00000000000E+00  0.00000000000E+00  0.19747190288E+03  0.19747190288E+03  0.00000000000E+00 0.  1.
         -2   -1    0    0    0  501 -0.00000000000E+00 -0.00000000000E+00 -0.95666109546E+01  0.95666109546E+01  0.00000000000E+00 0. -1.
          2    1    1    2  502    0  0.20361554890E+01 -0.20039554334E+02  0.18568438471E+03  0.18677371441E+03  0.00000000000E+00 0.  1.
         -2    1    1    2    0  502 -0.20361554890E+01  0.20039554334E+02  0.22209072144E+01  0.20264799430E+02  0.00000000000E+00 0. -1.
</event>
<event>
 4    1  0.5784609E+003  0.2399306E+02  0.7546771E-02  0.1480391E+00
          2   -1    0    0  501    0  0.00000000000E+00  0.00000000000E+00  0.12673822654E+04  0.12673822654E+04  0.00000000000E+00 0.  1.
         -2   -1    0    0    0  501 -0.00000000000E+00 -0.00000000000E+00 -0.12433147430E+02  0.12433147430E+02  0.00000000000E+00 0.  1.
          2    1    1    2  502    0 -0.94582676689E+01 -0.22050126382E+02  0.12555847145E+04  0.12558139361E+04  0.00000000000E+00 0.  1.
         -2    1    1    2    0  502  0.94582676689E+01  0.22050126382E+02 -0.63559652752E+00  0.24001476698E+02  0.00000000000E+00 0.  1.
</event>
<event>
 4    1  0.5784609E+003  0.2202590E+02  0.7546771E-02  0.1505106E+00
          2   -1    0    0  501    0  0.00000000000E+00  0.00000000000E+00  0.96997892310E+03  0.96997892310E+03  0.00000000000E+00 0. -1.
         -2   -1    0    0    0  501 -0.00000000000E+00 -0.00000000000E+00 -0.17919713864E+01  0.17919713864E+01  0.00000000000E+00 0.  1.
          2    1    1    2  502    0 -0.20937906216E+02  0.68369872109E+01  0.89663594524E+03  0.89690643805E+03  0.00000000000E+00 0. -1.
         -2    1    1    2    0  502  0.20937906216E+02 -0.68369872109E+01  0.71551006474E+02  0.74864456442E+02  0.00000000000E+00 0.  1.
</event>
<event>
 4    1  0.5784609E+003  0.2814744E+02  0.7546771E-02  0.1436410E+00
          2   -1    0    0  501    0  0.00000000000E+00  0.00000000000E+00  0.40453768556E+03  0.40453768556E+03  0.00000000000E+00 0. -1.
         -2   -1    0    0    0  501 -0.00000000000E+00 -0.00000000000E+00 -0.10280864363E+02  0.10280864363E+02  0.00000000000E+00 0. -1.
          2    1    1    2  502    0 -0.19971157054E+01 -0.28076497416E+02  0.38373943381E+03  0.38477036170E+03  0.00000000000E+00 0. -1.
         -2    1    1    2    0  502  0.19971157054E+01  0.28076497416E+02  0.10517387386E+02  0.30048188227E+02  0.00000000000E+00 0. -1.
</event>
<event>
 4    1  0.5784609E+003  0.2744942E+02  0.7546771E-02  0.1443145E+00
          2   -1    0    0  501    0  0.00000000000E+00  0.00000000000E+00  0.88235292749E+01  0.88235292749E+01  0.00000000000E+00 0. -1.
         -2   -1    0    0    0  501 -0.00000000000E+00 -0.00000000000E+00 -0.93158219019E+02  0.93158219019E+02  0.00000000000E+00 0. -1.
          2    1    1    2  502    0 -0.24324579961E+02 -0.12719491778E+02 -0.27445944198E+02  0.38816884397E+02  0.00000000000E+00 0. -1.
         -2    1    1    2    0  502  0.24324579961E+02  0.12719491778E+02 -0.56888745545E+02  0.63164863897E+02  0.00000000000E+00 0. -1.
</event>
<event>
 4    1  0.5784609E+003  0.2226112E+02  0.7546771E-02  0.1501991E+00
          2   -1    0    0  501    0  0.00000000000E+00  0.00000000000E+00  0.51977006056E+03  0.51977006056E+03  0.00000000000E+00 0. -1.
         -2   -1    0    0    0  501 -0.00000000000E+00 -0.00000000000E+00 -0.27521238208E+01  0.27521238208E+01  0.00000000000E+00 0. -1.
          2    1    1    2  502    0  0.71671329478E+01 -0.21075803940E+02  0.46972214827E+03  0.47024935288E+03  0.00000000000E+00 0. -1.
         -2    1    1    2    0  502 -0.71671329478E+01  0.21075803940E+02  0.47295788469E+02  0.52272831503E+02  0.00000000000E+00 0. -1.
</event>
<event>
 4    1  0.6605717E+003  0.2102542E+02  0.7546771E-02  0.1518902E+00
          2   -1    0    0  501    0  0.00000000000E+00  0.00000000000E+00  0.12060325788E+04  0.12060325788E+04  0.00000000000E+00 0.  1.
         -2   -1    0    0    0  501 -0.00000000000E+00 -0.00000000000E+00 -0.25938036595E+03  0.25938036595E+03  0.00000000000E+00 0.  1.
          2    1    1    2  502    0  0.20928887400E+02  0.20124482247E+01  0.12055146778E+04  0.12056980164E+04  0.00000000000E+00 0.  1.
         -2    1    1    2    0  502 -0.20928887400E+02 -0.20124482247E+01 -0.25886246494E+03  0.25971492840E+03  0.00000000000E+00 0.  1.
</event>
<event>
 4    1  0.5784609E+003  0.3435857E+02  0.7546771E-02  0.1385130E+00
          2   -1    0    0  501    0  0.00000000000E+00  0.00000000000E+00  0.96538555845E+03  0.96538555845E+03  0.00000000000E+00 0.  1.
         -2   -1    0    0    0  501 -0.00000000000E+00 -0.00000000000E+00 -0.93361416518E+02  0.93361416518E+02  0.00000000000E+00 0.  1.
          2    1    1    2  502    0 -0.28355376376E+02  0.19403192595E+02  0.96190728906E+03  0.96252072393E+03  0.00000000000E+00 0.  1.
         -2    1    1    2    0  502  0.28355376376E+02 -0.19403192595E+02 -0.89883147124E+02  0.96226251040E+02  0.00000000000E+00 0.  1.
</event>
<event>
 4    1  0.5784609E+003  0.4673564E+02  0.7546771E-02  0.1312982E+00
          2   -1    0    0  501    0  0.00000000000E+00  0.00000000000E+00  0.47809378503E+03  0.47809378503E+03  0.00000000000E+00 0.  1.
         -2   -1    0    0    0  501 -0.00000000000E+00 -0.00000000000E+00 -0.24180438267E+02  0.24180438267E+02  0.00000000000E+00 0. -1.
          2    1    1    2  502    0  0.30040873240E+02 -0.35801763139E+02  0.45312820467E+03  0.45553198590E+03  0.00000000000E+00 0.  1.
         -2    1    1    2    0  502 -0.30040873240E+02  0.35801763139E+02  0.78514209275E+00  0.46742237398E+02  0.00000000000E+00 0. -1.
</event>
<event>
 4    1  0.5784609E+003  0.2232575E+02  0.7546771E-02  0.1501143E+00
          2   -1    0    0  501    0  0.00000000000E+00  0.00000000000E+00  0.25258516072E+02  0.25258516072E+02  0.00000000000E+00 0. -1.
         -2   -1    0    0    0  501 -0.00000000000E+00 -0.00000000000E+00 -0.97583280981E+03  0.97583280981E+03  0.00000000000E+00 0.  1.
          2    1    1    2  502    0 -0.11973626314E+02  0.18843343025E+02  0.20171592891E+02  0.30088743131E+02  0.00000000000E+00 0. -1.
         -2    1    1    2    0  502  0.11973626314E+02 -0.18843343025E+02 -0.97074588663E+03  0.97100258275E+03  0.00000000000E+00 0.  1.
</event>
<event>
 4    1  0.5784609E+003  0.2375263E+02  0.7546771E-02  0.1483258E+00
          2   -1    0    0  501    0  0.00000000000E+00  0.00000000000E+00  0.48080067405E+00  0.48080067405E+00  0.00000000000E+00 0.  1.
         -2   -1    0    0    0  501 -0.00000000000E+00 -0.00000000000E+00 -0.14142472154E+04  0.14142472154E+04  0.00000000000E+00 0. -1.
          2    1    1    2  502    0 -0.61351765685E+01  0.22946616911E+02 -0.41499207680E+03  0.41567127809E+03  0.00000000000E+00 0.  1.
         -2    1    1    2    0  502  0.61351765685E+01 -0.22946616911E+02 -0.99877433792E+03  0.99905673798E+03  0.00000000000E+00 0. -1.
</event>
<event>
 4    1  0.5784609E+003  0.2200525E+02  0.7546771E-02  0.1505382E+00
          2   -1    0    0  501    0  0.00000000000E+00  0.00000000000E+00  0.10534291509E+02  0.10534291509E+02  0.00000000000E+00 0. -1.
         -2   -1    0    0    0  501 -0.00000000000E+00 -0.00000000000E+00 -0.55537853941E+03  0.55537853941E+03  0.00000000000E+00 0. -1.
          2    1    1    2  502    0 -0.10881410635E+02  0.19126582092E+02 -0.14283405690E+01  0.22051562228E+02  0.00000000000E+00 0. -1.
         -2    1    1    2    0  502  0.10881410635E+02 -0.19126582092E+02 -0.54341590733E+03  0.54386126869E+03  0.00000000000E+00 0. -1.
</event>
<event>
 4    1  0.5784609E+003  0.1017995E+03  0.7546771E-02  0.1160726E+00
          2   -1    0    0  501    0  0.00000000000E+00  0.00000000000E+00  0.41500814024E+03  0.41500814024E+03  0.00000000000E+00 0.  1.
         -2   -1    0    0    0  501 -0.00000000000E+00 -0.00000000000E+00 -0.14221799673E+04  0.14221799673E+04  0.00000000000E+00 0. -1.
          2    1    1    2  502    0  0.67693260209E+02 -0.76031370566E+02  0.40690798864E+03  0.41944875492E+03  0.00000000000E+00 0.  1.
         -2    1    1    2    0  502 -0.67693260209E+02  0.76031370566E+02 -0.14140798157E+04  0.14177393526E+04  0.00000000000E+00 0. -1.
</event>
<event>
 4    1  0.5784609E+003  0.2643242E+02  0.7546771E-02  0.1453394E+00
          2   -1    0    0  501    0  0.00000000000E+00  0.00000000000E+00  0.31872702778E+02  0.31872702778E+02  0.00000000000E+00 0. -1.
         -2   -1    0    0    0  501 -0.00000000000E+00 -0.00000000000E+00 -0.36645837590E+03  0.36645837590E+03  0.00000000000E+00 0.  1.
          2    1    1    2  502    0 -0.24794864328E+02 -0.91590085822E+01  0.25824033918E+02  0.36953395826E+02  0.00000000000E+00 0. -1.
         -2    1    1    2    0  502  0.24794864328E+02  0.91590085822E+01 -0.36040970704E+03  0.36137768285E+03  0.00000000000E+00 0.  1.
</event>
<event>
 4    1  0.5784609E+003  0.2081575E+02  0.7546771E-02  0.1521912E+00
          2   -1    0    0  501    0  0.00000000000E+00  0.00000000000E+00  0.21616244486E+02  0.21616244486E+02  0.00000000000E+00 0.  1.
         -2   -1    0    0    0  501 -0.00000000000E+00 -0.00000000000E+00 -0.20228859331E+02  0.20228859331E+02  0.00000000000E+00 0.  1.
          2    1    1    2  502    0  0.13182300092E+02  0.16109699505E+02  0.26889096570E+01  0.20988703843E+02  0.00000000000E+00 0.  1.
         -2    1    1    2    0  502 -0.13182300092E+02 -0.16109699505E+02 -0.13015245022E+01  0.20856399974E+02  0.00000000000E+00 0.  1.
</event>
<event>
 4    1  0.5784609E+003  0.6965890E+02  0.7546771E-02  0.1230132E+00
          2   -1    0    0  501    0  0.00000000000E+00  0.00000000000E+00  0.15262977976E+03  0.15262977976E+03  0.00000000000E+00 0.  1.
         -2   -1    0    0    0  501 -0.00000000000E+00 -0.00000000000E+00 -0.32427943488E+02  0.32427943488E+02  0.00000000000E+00 0.  1.
          2    1    1    2  502    0 -0.68818355544E+02 -0.10788714047E+02  0.73061490421E+02  0.10094723272E+03  0.00000000000E+00 0.  1.
         -2    1    1    2    0  502  0.68818355544E+02  0.10788714047E+02  0.47140345850E+02  0.84110490531E+02  0.00000000000E+00 0.  1.
</event>
<event>
 4    1  0.5784609E+003  0.3835530E+02  0.7546771E-02  0.1358403E+00
          2   -1    0    0  501    0  0.00000000000E+00  0.00000000000E+00  0.19997143171E+03  0.19997143171E+03  0.00000000000E+00 0.  1.
         -2   -1    0    0    0  501 -0.00000000000E+00 -0.00000000000E+00 -0.70233467912E+02  0.70233467912E+02  0.00000000000E+00 0.  1.
          2    1    1    2  502    0  0.74039586899E+01 -0.37633899143E+02  0.19270001158E+03  0.19648008406E+03  0.00000000000E+00 0.  1.
         -2    1    1    2    0  502 -0.74039586899E+01  0.37633899143E+02 -0.62962047781E+02  0.73724815563E+02  0.00000000000E+00 0.  1.
</event>
<event>
 4    1  0.5784609E+003  0.2167727E+02  0.7546771E-02  0.1509811E+00
          2   -1    0    0  501    0  0.00000000000E+00  0.00000000000E+00  0.12646939739E+04  0.12646939739E+04  0.00000000000E+00 0.  1.
         -2   -1    0    0    0  501 -0.00000000000E+00 -0.00000000000E+00 -0.36335329337E+02  0.36335329337E+02  0.00000000000E+00 0. -1.
          2    1    1    2  502    0  0.94457582640E+01  0.19511067794E+02  0.12613594309E+04  0.12615456861E+04  0.00000000000E+00 0.  1.
         -2    1    1    2    0  502 -0.94457582640E+01 -0.19511067794E+02 -0.33000786408E+02  0.39483617098E+02  0.00000000000E+00 0. -1.
</event>
<event>
 4    1  0.5784609E+003  0.2341381E+02  0.7546771E-02  0.1487366E+00
          2   -1    0    0  501    0  0.00000000000E+00  0.00000000000E+00  0.15892117876E+03  0.15892117876E+03  0.00000000000E+00 0. -1.
         -2   -1    0    0    0  501 -0.00000000000E+00 -0.00000000000E+00 -0.41339711200E+01  0.41339711200E+01  0.00000000000E+00 0.  1.
          2    1    1    2  502    0  0.77015139987E+01  0.22110925442E+02  0.11056646464E+03  0.11301835888E+03  0.00000000000E+00 0. -1.
         -2    1    1    2    0  502 -0.77015139987E+01 -0.22110925442E+02  0.44220743002E+02  0.50036790998E+02  0.00000000000E+00 0.  1.
</event>
<event>
 4    1  0.5784609E+003  0.2113456E+02  0.7546771E-02  0.1517352E+00
          2   -1    0    0  501    0  0.00000000000E+00  0.00000000000E+00  0.20690620550E+03  0.20690620550E+03  0.00000000000E+00 0. -1.
         -2   -1    0    0    0  501 -0.00000000000E+00 -0.00000000000E+00 -0.19136520810E+02  0.19136520810E+02  0.00000000000E+00 0. -1.
          2    1    1    2  502    0 -0.51449795768E+01 -0.20498753303E+02  0.20034049029E+03  0.20145218229E+03  0.00000000000E+00 0. -1.
         -2    1    1    2    0  502  0.51449795768E+01  0.20498753303E+02 -0.12570805596E+02  0.24590544019E+02  0.00000000000E+00 0. -1.
</event>
<event>
 4    1  0.5784609E+003  0.2029509E+02  0.7546771E-02  0.1529572E+00
          2   -1    0    0  501    0  0.00000000000E+00  0.00000000000E+00  0.80470820927E+02  0.80470820927E+02  0.00000000000E+00 0. -1.
         -2   -1    0    0    0  501 -0.00000000000E+00 -0.00000000000E+00 -0.82374317644E+02  0.82374317644E+02  0.00000000000E+00 0.  1.
          2    1    1    2  502    0 -0.10770793041E+02 -0.17201177415E+02  0.77900569404E+02  0.80500864596E+02  0.00000000000E+00 0. -1.
         -2    1    1    2    0  502  0.10770793041E+02  0.17201177415E+02 -0.79804066121E+02  0.82344273976E+02  0.00000000000E+00 0.  1.
</event>
<event>
 4    1  0.5784609E+003  0.2396197E+02  0.7546771E-02  0.1480759E+00
          2   -1    0    0  501    0  0.00000000000E+00  0.00000000000E+00  0.62632556050E+03  0.62632556050E+03  0.00000000000E+00 0. -1.
         -2   -1    0    0    0  501 -0.00000000000E+00 -0.00000000000E+00 -0.98944605244E+00  0.98944605244E+00  0.00000000000E+00 0. -1.
          2    1    1    2  502    0 -0.17132023471E+02  0.16753208197E+02  0.39769409998E+03  0.39841532773E+03  0.00000000000E+00 0. -1.
         -2    1    1    2    0  502  0.17132023471E+02 -0.16753208197E+02  0.22764201447E+03  0.22889967882E+03  0.00000000000E+00 0. -1.
</event>
<event>
 4    1  0.5784609E+003  0.2097120E+02  0.7546771E-02  0.1519676E+00
          2   -1    0    0  501    0  0.00000000000E+00  0.00000000000E+00  0.50531666170E+02  0.50531666170E+02  0.00000000000E+00 0.  1.
         -2   -1    0    0    0  501 -0.00000000000E+00 -0.00000000000E+00 -0.10249925026E+02  0.10249925026E+02  0.00000000000E+00 0.  1.
          2    1    1    2  502    0 -0.18369847033E+01  0.20890593825E+02  0.31946157299E+02  0.38214504959E+02  0.00000000000E+00 0.  1.
         -2    1    1    2    0  502  0.18369847033E+01 -0.20890593825E+02  0.83355838452E+01  0.22567086236E+02  0.00000000000E+00 0.  1.
</event>
<event>
 4    1  0.5784609E+003  0.2362072E+02  0.7546771E-02  0.1484847E+00
          2   -1    0    0  501    0  0.00000000000E+00  0.00000000000E+00  0.38539524456E+03  0.38539524456E+03  0.00000000000E+00 0. -1.
         -2   -1    0    0    0  501 -0.00000000000E+00 -0.00000000000E+00 -0.49158057939E+03  0.49158057939E+03  0.00000000000E+00 0. -1.
          2    1    1    2  502    0  0.22647178316E+02 -0.67114585362E+01  0.38474909525E+03  0.38547348113E+03  0.00000000000E+00 0. -1.
         -2    1    1    2    0  502 -0.22647178316E+02  0.67114585362E+01 -0.49093443008E+03  0.49150234282E+03  0.00000000000E+00 0. -1.
</event>
<event>
 4    1  0.5784609E+003  0.2463311E+02  0.7546771E-02  0.1472950E+00
          2   -1    0    0  501    0  0.00000000000E+00  0.00000000000E+00  0.14974761231E+03  0.14974761231E+03  0.00000000000E+00 0.  1.
         -2   -1    0    0    0  501 -0.00000000000E+00 -0.00000000000E+00 -0.18081871042E+02  0.18081871042E+02  0.00000000000E+00 0. -1.
          2    1    1    2  502    0 -0.12147575414E+01 -0.24603141616E+02  0.13974948827E+03  0.14190387481E+03  0.00000000000E+00 0.  1.
         -2    1    1    2    0  502  0.12147575414E+01  0.24603141616E+02 -0.80837469960E+01  0.25925608551E+02  0.00000000000E+00 0. -1.
</event>
<event>
 4    1  0.5784609E+003  0.2272043E+02  0.7546771E-02  0.1496039E+00
          2   -1    0    0  501    0  0.00000000000E+00  0.00000000000E+00  0.45326383631E+03  0.45326383631E+03  0.00000000000E+00 0.  1.
         -2   -1    0    0    0  501 -0.00000000000E+00 -0.00000000000E+00 -0.25512147032E+02  0.25512147032E+02  0.00000000000E+00 0. -1.
          2    1    1    2  502    0 -0.15002873151E+02  0.17062588224E+02  0.44785955943E+03  0.44843550606E+03  0.00000000000E+00 0.  1.
         -2    1    1    2    0  502  0.15002873151E+02 -0.17062588224E+02 -0.20107870153E+02  0.30340477283E+02  0.00000000000E+00 0. -1.
</event>
<event>
 4    1  0.5784609E+003  0.2204940E+02  0.7546771E-02  0.1504793E+00
          2   -1    0    0  501    0  0.00000000000E+00  0.00000000000E+00  0.63121723007E+03  0.63121723007E+03  0.00000000000E+00 0.  1.
         -2   -1    0    0    0  501 -0.00000000000E+00 -0.00000000000E+00 -0.18006555266E+01  0.18006555266E+01  0.00000000000E+00 0. -1.
          2    1    1    2  502    0 -0.15264374737E+02  0.15911469237E+02  0.55413969917E+03  0.55457820205E+03  0.00000000000E+00 0.  1.
         -2    1    1    2    0  502  0.15264374737E+02 -0.15911469237E+02  0.75276875378E+02  0.78439683554E+02  0.00000000000E+00 0. -1.
</event>
<event>
 4    1  0.6051425E+003  0.2228969E+02  0.7546771E-02  0.1501616E+00
          2   -1    0    0  501    0  0.00000000000E+00  0.00000000000E+00  0.73236078530E+03  0.73236078530E+03  0.00000000000E+00 0.  1.
         -2   -1    0    0    0  501 -0.00000000000E+00 -0.00000000000E+00 -0.28980211735E+03  0.28980211735E+03  0.00000000000E+00 0.  1.
          2    1    1    2  502    0 -0.92613168054E+01 -0.20274568884E+02  0.73176224169E+03  0.73210163809E+03  0.00000000000E+00 0.  1.
         -2    1    1    2    0  502  0.92613168054E+01  0.20274568884E+02 -0.28920357374E+03  0.29006126456E+03  0.00000000000E+00 0.  1.
</event>
<event>
 4    1  0.5784609E+003  0.2267050E+02  0.7546771E-02  0.1496678E+00
          2   -1    0    0  501    0  0.00000000000E+00  0.00000000000E+00  0.18467069322E+04  0.18467069322E+04  0.00000000000E+00 0.  1.
         -2   -1    0    0    0  501 -0.00000000000E+00 -0.00000000000E+00 -0.28208576157E+00  0.28208576157E+00  0.00000000000E+00 0.  1.
          2    1    1    2  502    0 -0.22555435056E+02 -0.22810597757E+01  0.81632254378E+03  0.81663727956E+03  0.00000000000E+00 0.  1.
         -2    1    1    2    0  502  0.22555435056E+02  0.22810597757E+01  0.10301023027E+04  0.10303517384E+04  0.00000000000E+00 0.  1.
</event>
<event>
 4    1  0.5784609E+003  0.8870042E+02  0.7546771E-02  0.1184974E+00
          2   -1    0    0  501    0  0.00000000000E+00  0.00000000000E+00  0.67575308304E+03  0.67575308304E+03  0.00000000000E+00 0. -1.
         -2   -1    0    0    0  501 -0.00000000000E+00 -0.00000000000E+00 -0.61342179089E+02  0.61342179089E+02  0.00000000000E+00 0.  1.
          2    1    1    2  502    0 -0.77086247712E+02 -0.43880240454E+02  0.63893855664E+03  0.64506607743E+03  0.00000000000E+00 0. -1.
         -2    1    1    2    0  502  0.77086247712E+02  0.43880240454E+02 -0.24527652694E+02  0.92029184694E+02  0.00000000000E+00 0.  1.
</event>
<event>
 4    1  0.5784609E+003  0.3287845E+02  0.7546771E-02  0.1396125E+00
          2   -1    0    0  501    0  0.00000000000E+00  0.00000000000E+00  0.11922157315E+04  0.11922157315E+04  0.00000000000E+00 0. -1.
         -2   -1    0    0    0  501 -0.00000000000E+00 -0.00000000000E+00 -0.52519975729E+02  0.52519975729E+02  0.00000000000E+00 0.  1.
          2    1    1    2  502    0  0.45070231620E+01  0.32568068183E+02  0.11868200404E+04  0.11872753685E+04  0.00000000000E+00 0. -1.
         -2    1    1    2    0  502 -0.45070231620E+01 -0.32568068183E+02 -0.47124284646E+02  0.57460338725E+02  0.00000000000E+00 0.  1.
</event>
<event>
 4    1  0.5784609E+003  0.2554245E+02  0.7546771E-02  0.1462826E+00
          2   -1    0    0  501    0  0.00000000000E+00  0.00000000000E+00  0.41003314213E+01  0.41003314213E+01  0.00000000000E+00 0. -1.
         -2   -1    0    0    0  501 -0.00000000000E+00 -0.00000000000E+00 -0.32025646879E+03  0.32025646879E+03  0.00000000000E+00 0.  1.
          2    1    1    2  502    0 -0.38042158546E+01 -0.25257566553E+02 -0.43037721769E+02  0.50046600499E+02  0.00000000000E+00 0. -1.
         -2    1    1    2    0  502  0.38042158546E+01  0.25257566553E+02 -0.27311841560E+03  0.27431019971E+03  0.00000000000E+00 0.  1.
</event>
<event>
 4    1  0.5784609E+003  0.3154458E+02  0.7546771E-02  0.1406633E+00
          2   -1    0    0  501    0  0.00000000000E+00  0.00000000000E+00  0.17640693021E+03  0.17640693021E+03  0.00000000000E+00 0. -1.
         -2   -1    0    0    0  501 -0.00000000000E+00 -0.00000000000E+00 -0.21163715217E+02  0.21163715217E+02  0.00000000000E+00 0. -1.
          2    1    1    2  502    0 -0.21764228169E+02 -0.22833717934E+02  0.16222433662E+03  0.16526280796E+03  0.00000000000E+00 0. -1.
         -2    1    1    2    0  502  0.21764228169E+02  0.22833717934E+02 -0.69811216313E+01  0.32307837465E+02  0.00000000000E+00 0. -1.
</event>
<event>
 4    1  0.5784609E+003  0.2185516E+02  0.7546771E-02  0.1507397E+00
          2   -1    0    0  501    0  0.00000000000E+00  0.00000000000E+00  0.16169198411E+03  0.16169198411E+03  0.00000000000E+00 0. -1.
         -2   -1    0    0    0  501 -0.00000000000E+00 -0.00000000000E+00 -0.45542048943E+02  0.45542048943E+02  0.00000000000E+00 0.  1.
          2    1    1    2  502    0  0.97533899310E+01  0.19558107401E+02  0.15827511387E+03  0.15977690650E+03  0.00000000000E+00 0. -1.
         -2    1    1    2    0  502 -0.97533899310E+01 -0.19558107401E+02 -0.42125178701E+02  0.47457126554E+02  0.00000000000E+00 0.  1.
</event>
<event>
 4    1  0.5784609E+003  0.2819937E+02  0.7546771E-02  0.1435918E+00
          2   -1    0    0  501    0  0.00000000000E+00  0.00000000000E+00  0.35385038496E+02  0.35385038496E+02  0.00000000000E+00 0. -1.
         -2   -1    0    0    0  501 -0.00000000000E+00 -0.00000000000E+00 -0.43666491577E+02  0.43666491577E+02  0.00000000000E+00 0. -1.
          2    1    1    2  502    0 -0.28185006523E+02  0.89992835220E+00  0.23395752351E+02  0.36641038356E+02  0.00000000000E+00 0. -1.
         -2    1    1    2    0  502  0.28185006523E+02 -0.89992835220E+00 -0.31677205432E+02  0.42410491717E+02  0.00000000000E+00 0. -1.
</event>
<event>
 4    1  0.5784609E+003  0.2442931E+02  0.7546771E-02  0.1475290E+00
          2   -1    0    0  501    0  0.00000000000E+00  0.00000000000E+00  0.40093256333E+02  0.40093256333E+02  0.00000000000E+00 0. -1.
         -2   -1    0    0    0  501 -0.00000000000E+00 -0.00000000000E+00 -0.34437248068E+02  0.34437248068E+02  0.00000000000E+00 0.  1.
          2    1    1    2  502    0 -0.23989367911E+02 -0.46153365554E+01  0.30907374681E+02  0.39396153543E+02  0.00000000000E+00 0. -1.
         -2    1    1    2    0  502  0.23989367911E+02  0.46153365554E+01 -0.25251366417E+02  0.35134350858E+02  0.00000000000E+00 0.  1.
</event>
<event>
 4    1  0.5784609E+003  0.2277877E+02  0.7546771E-02  0.1495295E+00
          2   -1    0    0  501    0  0.00000000000E+00  0.00000000000E+00  0.61052923428E+02  0.61052923428E+02  0.00000000000E+00 0. -1.
         -2   -1    0    0    0  501 -0.00000000000E+00 -0.00000000000E+00 -0.18940021468E+02  0.18940021468E+02  0.00000000000E+00 0.  1.
          2    1    1    2  502    0  0.19365352464E+02  0.11993977101E+02  0.50753175383E+02  0.55630541740E+02  0.00000000000E+00 0. -1.
         -2    1    1    2    0  502 -0.19365352464E+02 -0.11993977101E+02 -0.86402734232E+01  0.24362403157E+02  0.00000000000E+00 0.  1.
</event>
<event>
 4    1  0.5784609E+003  0.2294018E+02  0.7546771E-02  0.1493251E+00
          2   -1    0    0  501    0  0.00000000000E+00  0.00000000000E+00  0.10060106103E+02  0.10060106103E+02  0.00000000000E+00 0. -1.
         -2   -1    0    0    0  501 -0.00000000000E+00 -0.00000000000E+00 -0.37608425049E+03  0.37608425049E+03  0.00000000000E+00 0. -1.
          2    1    1    2  502    0 -0.20614586119E+02 -0.10064337100E+02 -0.38699353022E+01  0.23264316912E+02  0.00000000000E+00 0. -1.
         -2    1    1    2    0  502  0.20614586119E+02  0.10064337100E+02 -0.36215420908E+03  0.36288003968E+03  0.00000000000E+00 0. -1.
</event>
<event>
 4    1  0.5784609E+003  0.3023956E+02  0.7546771E-02  0.1417526E+00
          2   -1    0    0  501    0  0.00000000000E+00  0.00000000000E+00  0.13531063494E+03  0.13531063494E+03  0.00000000000E+00 0. -1.
         -2   -1    0    0    0  501 -0.00000000000E+00 -0.00000000000E+00 -0.12395489891E+02  0.12395489891E+02  0.00000000000E+00 0. -1.
          2    1    1    2  502    0 -0.22677132196E+02  0.20004460511E+02  0.11126328116E+03  0.11529938638E+03  0.00000000000E+00 0. -1.
         -2    1    1    2    0  502  0.22677132196E+02 -0.20004460511E+02  0.11651863889E+02  0.32406738452E+02  0.00000000000E+00 0. -1.
</event>
<event>
 4    1  0.5784609E+003  0.2844438E+02  0.7546771E-02  0.1433615E+00
          2   -1    0    0  501    0  0.00000000000E+00  0.00000000000E+00  0.11289172865E+03  0.11289172865E+03  0.00000000000E+00 0. -1.
         -2   -1    0    0    0  501 -0.00000000000E+00 -0.00000000000E+00 -0.10020726449E+03  0.10020726449E+03  0.00000000000E+00 0.  1.
          2    1    1    2  502    0  0.28443061158E+02  0.27392086560E+00  0.10901080379E+03  0.11266072121E+03  0.00000000000E+00 0. -1.
         -2    1    1    2    0  502 -0.28443061158E+02 -0.27392086560E+00 -0.96326339636E+02  0.10043827193E+03  0.00000000000E+00 0.  1.
</event>
<event>
 4    1  0.5784609E+003  0.3008439E+02  0.7546771E-02  0.1418865E+00
          2   -1    0    0  501    0  0.00000000000E+00  0.00000000000E+00  0.94280285697E+01  0.94280285697E+01  0.00000000000E+00 0. -1.
         -2   -1    0    0    0  501 -0.00000000000E+00 -0.00000000000E+00 -0.28464939651E+03  0.28464939651E+03  0.00000000000E+00 0. -1.
          2    1    1    2  502    0  0.63334579946E+01 -0.29410160457E+02 -0.17907205051E+02  0.35010544426E+02  0.00000000000E+00 0. -1.
         -2    1    1    2    0  502 -0.63334579946E+01  0.29410160457E+02 -0.25731416289E+03  0.25906688066E+03  0.00000000000E+00 0. -1.
</event>
<event>
 4    1  0.5784609E+003  0.4846746E+02  0.7546771E-02  0.1304957E+00
          2   -1    0    0  501    0  0.00000000000E+00  0.00000000000E+00  0.31311449210E+02  0.31311449210E+02  0.00000000000E+00 0. -1.
         -2   -1    0    0    0  501 -0.00000000000E+00 -0.00000000000E+00 -0.98505253381E+03  0.98505253381E+03  0.00000000000E+00 0. -1.
          2    1    1    2  502    0  0.30919369700E+02 -0.37324082100E+02  0.11576178932E+02  0.49830737963E+02  0.00000000000E+00 0. -1.
         -2    1    1    2    0  502 -0.30919369700E+02  0.37324082100E+02 -0.96531726353E+03  0.96653324506E+03  0.00000000000E+00 0. -1.
</event>
<event>
 4    1  0.5784609E+003  0.2422142E+02  0.7546771E-02  0.1477705E+00
          2   -1    0    0  501    0  0.00000000000E+00  0.00000000000E+00  0.32282669774E+03  0.32282669774E+03  0.00000000000E+00 0. -1.
         -2   -1    0    0    0  501 -0.00000000000E+00 -0.00000000000E+00 -0.50835695116E+01  0.50835695116E+01  0.00000000000E+00 0.  1.
          2    1    1    2  502    0  0.83154736204E+01  0.22749288653E+02  0.29029286562E+03  0.29130160498E+03  0.00000000000E+00 0. -1.
         -2    1    1    2    0  502 -0.83154736204E+01 -0.22749288653E+02  0.27450262604E+02  0.36608662264E+02  0.00000000000E+00 0.  1.
</event>
<event>
 4    1  0.5784609E+003  0.2576199E+02  0.7546771E-02  0.1460457E+00
          2   -1    0    0  501    0  0.00000000000E+00  0.00000000000E+00  0.19357059751E+03  0.19357059751E+03  0.00000000000E+00 0.  1.
         -2   -1    0    0    0  501 -0.00000000000E+00 -0.00000000000E+00 -0.25882290471E+02  0.25882290471E+02  0.00000000000E+00 0.  1.
          2    1    1    2  502    0  0.16784564811E+02 -0.19543765454E+02  0.18604479121E+03  0.18781997956E+03  0.00000000000E+00 0.  1.
         -2    1    1    2    0  502 -0.16784564811E+02  0.19543765454E+02 -0.18356484174E+02  0.31632908422E+02  0.00000000000E+00 0.  1.
</event>
<event>
 4    1  0.5784609E+003  0.3053619E+02  0.7546771E-02  0.1414993E+00
          2   -1    0    0  501    0  0.00000000000E+00  0.00000000000E+00  0.12761816484E+03  0.12761816484E+03  0.00000000000E+00 0. -1.
         -2   -1    0    0    0  501 -0.00000000000E+00 -0.00000000000E+00 -0.14364437140E+02  0.14364437140E+02  0.00000000000E+00 0.  1.
          2    1    1    2  502    0  0.80267336002E+01  0.29462355639E+02  0.10638861878E+03  0.11068422227E+03  0.00000000000E+00 0. -1.
         -2    1    1    2    0  502 -0.80267336002E+01 -0.29462355639E+02  0.68651089132E+01  0.31298379711E+02  0.00000000000E+00 0.  1.
</event>
<event>
 4    1  0.5784609E+003  0.2244908E+02  0.7546771E-02  0.1499534E+00
          2   -1    0    0  501    0  0.00000000000E+00  0.00000000000E+00  0.22975017829E+03  0.22975017829E+03  0.00000000000E+00 0.  1.
         -2   -1    0    0    0  501 -0.00000000000E+00 -0.00000000000E+00 -0.21989583797E+01  0.21989583797E+01  0.00000000000E+00 0. -1.
          2    1    1    2  502    0  0.20494883579E+02  0.91608005292E+01  0.10800557170E+03  0.11031393401E+03  0.00000000000E+00 0.  1.
         -2    1    1    2    0  502 -0.20494883579E+02 -0.91608005292E+01  0.11954564821E+03  0.12163520266E+03  0.00000000000E+00 0. -1.
</event>
<event>
 4    1  0.5784609E+003  0.2593027E+02  0.7546771E-02  0.1458660E+00
          2   -1    0    0  501    0  0.00000000000E+00  0.00000000000E+00  0.46999482713E+03  0.46999482713E+03  0.00000000000E+00 0.  1.
         -2   -1    0    0    0  501 -0.00000000000E+00 -0.00000000000E+00 -0.33157176333E+02  0.33157176333E+02  0.00000000000E+00 0.  1.
          2    1    1    2  502    0  0.25819398950E+02 -0.23953448031E+01  0.46450770055E+03  0.46523089204E+03  0.00000000000E+00 0.  1.
         -2    1    1    2    0  502 -0.25819398950E+02  0.23953448031E+01 -0.27670049747E+02  0.37921111427E+02  0.00000000000E+00 0.  1.
</event>
<event>
 4    1  0.6277198E+003  0.2306682E+02  0.7546771E-02  0.1491661E+00
          2   -1    0    0  501    0  0.00000000000E+00  0.00000000000E+00  0.10865134624E+04  0.10865134624E+04  0.00000000000E+00 0.  1.
         -2   -1    0    0    0  501 -0.00000000000E+00 -0.00000000000E+00 -0.19307641097E+03  0.19307641097E+03  0.00000000000E+00 0. -1.
          2    1    1    2  502    0  0.21273249549E+02 -0.89177917016E+01  0.10857015717E+04  0.10859465829E+04  0.00000000000E+00 0.  1.
         -2    1    1    2    0  502 -0.21273249549E+02  0.89177917016E+01 -0.19226452031E+03  0.19364329042E+03  0.00000000000E+00 0. -1.
</event>
<event>
 4    1  0.5784609E+003  0.2285811E+02  0.7546771E-02  0.1494288E+00
          2   -1    0    0  501    0  0.00000000000E+00  0.00000000000E+00  0.25520018211E+02  0.25520018211E+02  0.00000000000E+00 0. -1.
         -2   -1    0    0    0  501 -0.00000000000E+00 -0.00000000000E+00 -0.27917867201E+02  0.27917867201E+02  0.00000000000E+00 0.  1.
          2    1    1    2  502    0 -0.22351199711E+02 -0.47871805281E+01  0.12597978293E+02  0.26099852164E+02  0.00000000000E+00 0. -1.
         -2    1    1    2    0  502  0.22351199711E+02  0.47871805281E+01 -0.14995827283E+02  0.27338033247E+02  0.00000000000E+00 0.  1.
</event>
<event>
 4    1  0.5784609E+003  0.2775121E+02  0.7546771E-02  0.1440205E+00
          2   -1    0    0  501    0  0.00000000000E+00  0.00000000000E+00  0.63798021788E+00  0.63798021788E+00  0.00000000000E+00 0. -1.
         -2   -1    0    0    0  501 -0.00000000000E+00 -0.00000000000E+00 -0.12397768984E+04  0.12397768984E+04  0.00000000000E+00 0. -1.
          2    1    1    2  502    0  0.26261349370E+02 -0.89705422230E+01 -0.72020330278E+03  0.72073776537E+03  0.00000000000E+00 0. -1.
         -2    1    1    2    0  502 -0.26261349370E+02  0.89705422230E+01 -0.51893561539E+03  0.51967711324E+03  0.00000000000E+00 0. -1.
</event>
<event>
 4    1  0.5784609E+003  0.2489055E+02  0.7546771E-02  0.1470032E+00
          2   -1    0    0  501    0  0.00000000000E+00  0.00000000000E+00  0.23136230987E+02  0.23136230987E+02  0.00000000000E+00 0. -1.
         -2   -1    0    0    0  501 -0.00000000000E+00 -0.00000000000E+00 -0.50257455719E+02  0.50257455719E+02  0.00000000000E+00 0. -1.
          2    1    1    2  502    0  0.23400670864E+02 -0.84822151018E+01  0.11522043518E+02  0.27428030494E+02  0.00000000000E+00 0. -1.
         -2    1    1    2    0  502 -0.23400670864E+02  0.84822151018E+01 -0.38643268250E+02  0.45965656212E+02  0.00000000000E+00 0. -1.
</event>
<event>
 4    1  0.5784609E+003  0.2401351E+02  0.7546771E-02  0.1480149E+00
          2   -1    0    0  501    0  0.00000000000E+00  0.00000000000E+00  0.22858118156E+03  0.22858118156E+03  0.00000000000E+00 0. -1.
         -2   -1    0    0    0  501 -0.00000000000E+00 -0.00000000000E+00 -0.23101188658E+03  0.23101188658E+03  0.00000000000E+00 0. -1.
          2    1    1    2  502    0  0.22946640848E+02  0.70781468381E+01  0.22732300849E+03  0.22858783581E+03  0.00000000000E+00 0. -1.
         -2    1    1    2    0  502 -0.22946640848E+02 -0.70781468381E+01 -0.22975371351E+03  0.23100523233E+03  0.00000000000E+00 0. -1.
</event>
<event>
 4    1  0.5784609E+003  0.2367221E+02  0.7546771E-02  0.1484225E+00
          2   -1    0    0  501    0  0.00000000000E+00  0.00000000000E+00  0.39618486360E+03  0.39618486360E+03  0.00000000000E+00 0.  1.
         -2   -1    0    0    0  501 -0.00000000000E+00 -0.00000000000E+00 -0.92637989953E+02  0.92637989953E+02  0.00000000000E+00 0.  1.
          2    1    1    2  502    0 -0.14369266849E+02 -0.18812167079E+02  0.39431181359E+03  0.39502174598E+03  0.00000000000E+00 0.  1.
         -2    1    1    2    0  502  0.14369266849E+02  0.18812167079E+02 -0.90764939941E+02  0.93801107576E+02  0.00000000000E+00 0.  1.
</event>
<event>
 4    1  0.5784609E+003  0.2226807E+02  0.7546771E-02  0.1501899E+00
          2   -1    0    0  501    0  0.00000000000E+00  0.00000000000E+00  0.14347521048E+04  0.14347521048E+04  0.00000000000E+00 0. -1.
         -2   -1    0    0    0  501 -0.00000000000E+00 -0.00000000000E+00 -0.15714623216E+02  0.15714623216E+02  0.00000000000E+00 0. -1.
          2    1    1    2  502    0  0.13294561401E+02  0.17863969246E+02  0.14267327445E+04  0.14269065109E+04  0.00000000000E+00 0. -1.
         -2    1    1    2    0  502 -0.13294561401E+02 -0.17863969246E+02 -0.76952628649E+01  0.23560217118E+02  0.00000000000E+00 0. -1.
</event>
<event>
 4    1  0.5784609E+003  0.2604565E+02  0.7546771E-02  0.1457438E+00
          2   -1    0    0  501    0  0.00000000000E+00  0.00000000000E+00  0.34358847118E+03  0.34358847118E+03  0.00000000000E+00 0.  1.
         -2   -1    0    0    0  501 -0.00000000000E+00 -0.00000000000E+00 -0.21499567775E+02  0.21499567775E+02  0.00000000000E+00 0. -1.
          2    1    1    2  502    0 -0.18413114067E+02 -0.18420989759E+02  0.33500481582E+03  0.33601577679E+03  0.00000000000E+00 0.  1.
         -2    1    1    2    0  502  0.18413114067E+02  0.18420989759E+02 -0.12915912417E+02  0.29072262157E+02  0.00000000000E+00 0. -1.
</event>
<event>
 4    1  0.5784609E+003  0.2291657E+02  0.7546771E-02  0.1493548E+00
          2   -1    0    0  501    0  0.00000000000E+00  0.00000000000E+00  0.45379374400E+02  0.45379374400E+02  0.00000000000E+00 0. -1.
         -2   -1    0    0    0  501 -0.00000000000E+00 -0.00000000000E+00 -0.67059484799E+02  0.67059484799E+02  0.00000000000E+00 0. -1.
          2    1    1    2  502    0 -0.22362691295E+02 -0.50079198003E+01  0.40298738117E+02  0.46359006854E+02  0.00000000000E+00 0. -1.
         -2    1    1    2    0  502  0.22362691295E+02  0.50079198003E+01 -0.61978848515E+02  0.66079852345E+02  0.00000000000E+00 0. -1.
</event>
<event>
 4    1  0.5784609E+003  0.2262887E+02  0.7546771E-02  0.1497212E+00
          2   -1    0    0  501    0  0.00000000000E+00  0.00000000000E+00  0.10137869970E+04  0.10137869970E+04  0.00000000000E+00 0.  1.
         -2   -1    0    0    0  501 -0.00000000000E+00 -0.00000000000E+00 -0.47548841712E+01  0.47548841712E+01  0.00000000000E+00 0.  1.
          2    1    1    2  502    0 -0.15625623250E+02 -0.16367818786E+02  0.98597834086E+03  0.98623798053E+03  0.00000000000E+00 0.  1.
         -2    1    1    2    0  502  0.15625623250E+02  0.16367818786E+02  0.23053771921E+02  0.32303900594E+02  0.00000000000E+00 0.  1.
</event>
<event>
 4    1  0.5784609E+003  0.3076035E+02  0.7546771E-02  0.1413102E+00
          2   -1    0    0  501    0  0.00000000000E+00  0.00000000000E+00  0.45405089253E+02  0.45405089253E+02  0.00000000000E+00 0. -1.
         -2   -1    0    0    0  501 -0.00000000000E+00 -0.00000000000E+00 -0.32618477751E+02  0.32618477751E+02  0.00000000000E+00 0.  1.
          2    1    1    2  502    0  0.23903613927E+02 -0.19360178557E+02  0.29836992841E+02  0.42853767796E+02  0.00000000000E+00 0. -1.
         -2    1    1    2    0  502 -0.23903613927E+02  0.19360178557E+02 -0.17050381339E+02  0.35169799208E+02  0.00000000000E+00 0.  1.
</event>
<event>
 4    1  0.5784609E+003  0.2091971E+02  0.7546771E-02  0.1520414E+00
          2   -1    0    0  501    0  0.00000000000E+00  0.00000000000E+00  0.21087207186E+03  0.21087207186E+03  0.00000000000E+00 0.  1.
         -2   -1    0    0    0  501 -0.00000000000E+00 -0.00000000000E+00 -0.20210765127E+02  0.20210765127E+02  0.00000000000E+00 0.  1.
          2    1    1    2  502    0 -0.51771151224E+01 -0.20268983178E+02  0.20477920533E+03  0.20584498326E+03  0.00000000000E+00 0.  1.
         -2    1    1    2    0  502  0.51771151224E+01  0.20268983178E+02 -0.14117898592E+02  0.25237853727E+02  0.00000000000E+00 0.  1.
</event>
<event>
 4    1  0.5784609E+003  0.2168174E+02  0.7546771E-02  0.1509750E+00
          2   -1    0    0  501    0  0.00000000000E+00  0.00000000000E+00  0.17318184513E+02  0.17318184513E+02  0.00000000000E+00 0.  1.
         -2   -1    0    0    0  501 -0.00000000000E+00 -0.00000000000E+00 -0.28139425747E+03  0.28139425747E+03  0.00000000000E+00 0. -1.
          2    1    1    2  502    0  0.12529381861E+02  0.17694986932E+02  0.99316922482E+01  0.23848196646E+02  0.00000000000E+00 0.  1.
         -2    1    1    2    0  502 -0.12529381861E+02 -0.17694986932E+02 -0.27400776520E+03  0.27486424533E+03  0.00000000000E+00 0. -1.
</event>
<event>
 4    1  0.5784609E+003  0.4193670E+02  0.7546771E-02  0.1337496E+00
          2   -1    0    0  501    0  0.00000000000E+00  0.00000000000E+00  0.71594744329E+02  0.71594744329E+02  0.00000000000E+00 0. -1.
         -2   -1    0    0    0  501 -0.00000000000E+00 -0.00000000000E+00 -0.73920050078E+02  0.73920050078E+02  0.00000000000E+00 0.  1.
          2    1    1    2  502    0 -0.39831832764E+02 -0.13119142376E+02  0.58289032082E+02  0.71807367721E+02  0.00000000000E+00 0. -1.
         -2    1    1    2    0  502  0.39831832764E+02  0.13119142376E+02 -0.60614337831E+02  0.73707426686E+02  0.00000000000E+00 0.  1.
</event>
<event>
 4    1  0.5784609E+003  0.2351334E+02  0.7546771E-02  0.1486151E+00
          2   -1    0    0  501    0  0.00000000000E+00  0.00000000000E+00  0.40462626614E+03  0.40462626614E+03  0.00000000000E+00 0. -1.
         -2   -1    0    0    0  501 -0.00000000000E+00 -0.00000000000E+00 -0.23517634870E+02  0.23517634870E+02  0.00000000000E+00 0. -1.
          2    1    1    2  502    0 -0.22507545442E+02  0.68035050875E+01  0.39831435241E+03  0.39900777012E+03  0.00000000000E+00 0. -1.
         -2    1    1    2    0  502  0.22507545442E+02 -0.68035050875E+01 -0.17205721138E+02  0.29136130889E+02  0.00000000000E+00 0. -1.
</event>
<event>
 4    1  0.5784609E+003  0.2022195E+02  0.7546771E-02  0.1530669E+00
          2   -1    0    0  501    0  0.00000000000E+00  0.00000000000E+00  0.13831175130E+03  0.13831175130E+03  0.00000000000E+00 0.  1.
         -2   -1    0    0    0  501 -0.00000000000E+00 -0.00000000000E+00 -0.67895388635E+01  0.67895388635E+01  0.00000000000E+00 0.  1.
          2    1    1    2  502    0  0.22397585079E+01  0.20097529353E+02  0.12027274822E+03  0.12196090016E+03  0.00000000000E+00 0.  1.
         -2    1    1    2    0  502 -0.22397585079E+01 -0.20097529353E+02  0.11249464220E+02  0.23140390004E+02  0.00000000000E+00 0.  1.
</event>
<event>
 4    1  0.5784609E+003  0.3124614E+02  0.7546771E-02  0.1409068E+00
          2   -1    0    0  501    0  0.00000000000E+00  0.00000000000E+00  0.39477983387E+02  0.39477983387E+02  0.00000000000E+00 0. -1.
         -2   -1    0    0    0  501 -0.00000000000E+00 -0.00000000000E+00 -0.13554868386E+03  0.13554868386E+03  0.00000000000E+00 0.  1.
          2    1    1    2  502    0 -0.29222900552E+02  0.11060881455E+02  0.31092898837E+02  0.44080487444E+02  0.00000000000E+00 0. -1.
         -2    1    1    2    0  502  0.29222900552E+02 -0.11060881455E+02 -0.12716359931E+03  0.13094617980E+03  0.00000000000E+00 0.  1.
</event>
<event>
 4    1  0.5784609E+003  0.2358596E+02  0.7546771E-02  0.1485268E+00
          2   -1    0    0  501    0  0.00000000000E+00  0.00000000000E+00  0.11282820304E+03  0.11282820304E+03  0.00000000000E+00 0. -1.
         -2   -1    0    0    0  501 -0.00000000000E+00 -0.00000000000E+00 -0.19826154886E+02  0.19826154886E+02  0.00000000000E+00 0.  1.
          2    1    1    2  502    0 -0.18882282988E+02  0.14133532203E+02  0.10399235366E+03  0.10663351707E+03  0.00000000000E+00 0. -1.
         -2    1    1    2    0  502  0.18882282988E+02 -0.14133532203E+02 -0.10990305510E+02  0.26020840851E+02  0.00000000000E+00 0.  1.
</event>
<event>
 4    1  0.5784609E+003  0.3404883E+02  0.7546771E-02  0.1387376E+00
          2   -1    0    0  501    0  0.00000000000E+00  0.00000000000E+00  0.97999276324E+03  0.97999276324E+03  0.00000000000E+00 0.  1.
         -2   -1    0    0    0  501 -0.00000000000E+00 -0.00000000000E+00 -0.66694296352E+01  0.66694296352E+01  0.00000000000E+00 0. -1.
          2    1    1    2  502    0  0.10262510194E+00  0.34048671690E+02  0.93410640859E+03  0.93472675426E+03  0.00000000000E+00 0.  1.
         -2    1    1    2    0  502 -0.10262510194E+00 -0.34048671690E+02  0.39216925018E+02  0.51935438610E+02  0.00000000000E+00 0. -1.
</event>
<event>
 4    1  0.5784609E+003  0.2119693E+02  0.7546771E-02  0.1516472E+00
          2   -1    0    0  501    0  0.00000000000E+00  0.00000000000E+00  0.46919406079E+03  0.46919406079E+03  0.00000000000E+00 0. -1.
         -2   -1    0    0    0  501 -0.00000000000E+00 -0.00000000000E+00 -0.30731453097E+01  0.30731453097E+01  0.00000000000E+00 0. -1.
          2    1    1    2  502    0  0.16705473024E+02  0.13047489972E+02  0.42897889745E+03  0.42950227506E+03  0.00000000000E+00 0. -1.
         -2    1    1    2    0  502 -0.16705473024E+02 -0.13047489972E+02  0.37142018030E+02  0.42764931041E+02  0.00000000000E+00 0. -1.
</event>
<event>
 4    1  0.5784609E+003  0.2070411E+02  0.7546771E-02  0.1523532E+00
          2   -1    0    0  501    0  0.00000000000E+00  0.00000000000E+00  0.31748975329E+03  0.31748975329E+03  0.00000000000E+00 0. -1.
         -2   -1    0    0    0  501 -0.00000000000E+00 -0.00000000000E+00 -0.18515549472E+01  0.18515549472E+01  0.00000000000E+00 0.  1.
          2    1    1    2  502    0  0.15673238192E+02 -0.13528114941E+02  0.24090915769E+03  0.24179719301E+03  0.00000000000E+00 0. -1.
         -2    1    1    2    0  502 -0.15673238192E+02  0.13528114941E+02  0.74729040654E+02  0.77544115227E+02  0.00000000000E+00 0.  1.
</event>
<event>
 4    1  0.5784609E+003  0.2318524E+02  0.7546771E-02  0.1490185E+00
          2   -1    0    0  501    0  0.00000000000E+00  0.00000000000E+00  0.99760619850E+02  0.99760619850E+02  0.00000000000E+00 0. -1.
         -2   -1    0    0    0  501 -0.00000000000E+00 -0.00000000000E+00 -0.39794414073E+02  0.39794414073E+02  0.00000000000E+00 0. -1.
          2    1    1    2  502    0 -0.23112747846E+02  0.18320397940E+01  0.94864664765E+02  0.97656848729E+02  0.00000000000E+00 0. -1.
         -2    1    1    2    0  502  0.23112747846E+02 -0.18320397940E+01 -0.34898458988E+02  0.41898185193E+02  0.00000000000E+00 0. -1.
</event>
<event>
 4    1  0.5784609E+003  0.2366692E+02  0.7546771E-02  0.1484289E+00
          2   -1    0    0  501    0  0.00000000000E+00  0.00000000000E+00  0.31429436369E+02  0.31429436369E+02  0.00000000000E+00 0.  1.
         -2   -1    0    0    0  501 -0.00000000000E+00 -0.00000000000E+00 -0.37267237394E+02  0.37267237394E+02  0.00000000000E+00 0. -1.
          2    1    1    2  502    0  0.88212481644E+01 -0.21961532132E+02  0.21892600505E+02  0.32239870807E+02  0.00000000000E+00 0.  1.
         -2    1    1    2    0  502 -0.88212481644E+01  0.21961532132E+02 -0.27730401531E+02  0.36456802957E+02  0.00000000000E+00 0. -1.
</event>
<event>
 4    1  0.5784609E+003  0.3059249E+02  0.7546771E-02  0.1414516E+00
          2   -1    0    0  501    0  0.00000000000E+00  0.00000000000E+00  0.19508998977E+04  0.19508998977E+04  0.00000000000E+00 0.  1.
         -2   -1    0    0    0  501 -0.00000000000E+00 -0.00000000000E+00 -0.39164815489E+01  0.39164815489E+01  0.00000000000E+00 0. -1.
          2    1    1    2  502    0  0.20334201865E+02 -0.22856524991E+02  0.18890840513E+04  0.18893317479E+04  0.00000000000E+00 0.  1.
         -2    1    1    2    0  502 -0.20334201865E+02  0.22856524991E+02  0.57899364778E+02  0.65484631341E+02  0.00000000000E+00 0. -1.
</event>
<event>
 4    1  0.5784609E+003  0.2726523E+02  0.7546771E-02  0.1444962E+00
          2   -1    0    0  501    0  0.00000000000E+00  0.00000000000E+00  0.44551695437E+01  0.44551695437E+01  0.00000000000E+00 0. -1.
         -2   -1    0    0    0  501 -0.00000000000E+00 -0.00000000000E+00 -0.18444845303E+03  0.18444845303E+03  0.00000000000E+00 0.  1.
          2    1    1    2  502    0 -0.20201266947E+01  0.27190291060E+02 -0.60830592945E+02  0.66661487216E+02  0.00000000000E+00 0. -1.
         -2    1    1    2    0  502  0.20201266947E+01 -0.27190291060E+02 -0.11916269054E+03  0.12224213536E+03  0.00000000000E+00 0.  1.
</event>
<event>
 4    1  0.5784609E+003  0.2211577E+02  0.7546771E-02  0.1503910E+00
          2   -1    0    0  501    0  0.00000000000E+00  0.00000000000E+00  0.76896882231E+03  0.76896882231E+03  0.00000000000E+00 0. -1.
         -2   -1    0    0    0  501 -0.00000000000E+00 -0.00000000000E+00 -0.29654103395E+02  0.29654103395E+02  0.00000000000E+00 0. -1.
          2    1    1    2  502    0 -0.20505104442E+02 -0.82854077515E+01  0.76466315806E+03  0.76498290999E+03  0.00000000000E+00 0. -1.
         -2    1    1    2    0  502  0.20505104442E+02  0.82854077515E+01 -0.25348439146E+02  0.33640015709E+02  0.00000000000E+00 0. -1.
</event>
<event>
 4    1  0.5784609E+003  0.6328969E+02  0.7546771E-02  0.1249047E+00
          2   -1    0    0  501    0  0.00000000000E+00  0.00000000000E+00  0.61096235072E+02  0.61096235072E+02  0.00000000000E+00 0.  1.
         -2   -1    0    0    0  501 -0.00000000000E+00 -0.00000000000E+00 -0.19580258084E+03  0.19580258084E+03  0.00000000000E+00 0.  1.
          2    1    1    2  502    0  0.60131843304E+02 -0.19742001909E+02  0.37407005879E+02  0.73517816258E+02  0.00000000000E+00 0.  1.
         -2    1    1    2    0  502 -0.60131843304E+02  0.19742001909E+02 -0.17211335164E+03  0.18338099965E+03  0.00000000000E+00 0.  1.
</event>
<event>
 4    1  0.5784609E+003  0.2184389E+02  0.7546771E-02  0.1507549E+00
          2   -1    0    0  501    0  0.00000000000E+00  0.00000000000E+00  0.11635988896E+04  0.11635988896E+04  0.00000000000E+00 0.  1.
         -2   -1    0    0    0  501 -0.00000000000E+00 -0.00000000000E+00 -0.42385419103E+00  0.42385419103E+00  0.00000000000E+00 0. -1.
          2    1    1    2  502    0 -0.23891557136E+01  0.21712844619E+02  0.68654939962E+03  0.68689681452E+03  0.00000000000E+00 0.  1.
         -2    1    1    2    0  502  0.23891557136E+01 -0.21712844619E+02  0.47662563582E+03  0.47712592930E+03  0.00000000000E+00 0. -1.
</event>
<event>
 4    1  0.5784609E+003  0.2697584E+02  0.7546771E-02  0.1447851E+00
          2   -1    0    0  501    0  0.00000000000E+00  0.00000000000E+00  0.41623444108E+01  0.41623444108E+01  0.00000000000E+00 0.  1.
         -2   -1    0    0    0  501 -0.00000000000E+00 -0.00000000000E+00 -0.21837713978E+03  0.21837713978E+03  0.00000000000E+00 0.  1.
          2    1    1    2  502    0 -0.37155388875E+01  0.26718728615E+02 -0.57418234755E+02  0.63439336145E+02  0.00000000000E+00 0.  1.
         -2    1    1    2    0  502  0.37155388875E+01 -0.26718728615E+02 -0.15679656061E+03  0.15910014804E+03  0.00000000000E+00 0.  1.
</event>
<event>
 4    1  0.5784609E+003  0.2911301E+02  0.7546771E-02  0.1427464E+00
          2   -1    0    0  501    0  0.00000000000E+00  0.00000000000E+00  0.69757613998E+01  0.69757613998E+01  0.00000000000E+00 0. -1.
         -2   -1    0    0    0  501 -0.00000000000E+00 -0.00000000000E+00 -0.13982232070E+03  0.13982232070E+03  0.00000000000E+00 0. -1.
          2    1    1    2  502    0  0.29105643824E+02  0.65498936895E+00 -0.39854529216E+02  0.49355354446E+02  0.00000000000E+00 0. -1.
         -2    1    1    2    0  502 -0.29105643824E+02 -0.65498936895E+00 -0.92992030085E+02  0.97442727655E+02  0.00000000000E+00 0. -1.
</event>
<event>
 4    1  0.5784609E+003  0.2166429E+02  0.7546771E-02  0.1509988E+00
          2   -1    0    0  501    0  0.00000000000E+00  0.00000000000E+00  0.45219797206E+02  0.45219797206E+02  0.00000000000E+00 0.  1.
         -2   -1    0    0    0  501 -0.00000000000E+00 -0.00000000000E+00 -0.36226416475E+02  0.36226416475E+02  0.00000000000E+00 0.  1.
          2    1    1    2  502    0  0.11993130304E+02  0.18041791819E+02  0.38894899227E+02  0.44521394996E+02  0.00000000000E+00 0.  1.
         -2    1    1    2    0  502 -0.11993130304E+02 -0.18041791819E+02 -0.29901518496E+02  0.36924818685E+02  0.00000000000E+00 0.  1.
</event>
<event>
 4    1  0.5784609E+003  0.2401862E+02  0.7546771E-02  0.1480089E+00
          2   -1    0    0  501    0  0.00000000000E+00  0.00000000000E+00  0.63042660809E+03  0.63042660809E+03  0.00000000000E+00 0.  1.
         -2   -1    0    0    0  501 -0.00000000000E+00 -0.00000000000E+00 -0.19064431092E+01  0.19064431092E+01  0.00000000000E+00 0. -1.
          2    1    1    2  502    0 -0.23811998215E+02 -0.31437276790E+01  0.54225182711E+03  0.54278350960E+03  0.00000000000E+00 0.  1.
         -2    1    1    2    0  502  0.23811998215E+02  0.31437276790E+01  0.86268337865E+02  0.89549541600E+02  0.00000000000E+00 0. -1.
</event>
<event>
 4    1  0.5784609E+003  0.2899387E+02  0.7546771E-02  0.1428546E+00
          2   -1    0    0  501    0  0.00000000000E+00  0.00000000000E+00  0.14919778143E+02  0.14919778143E+02  0.00000000000E+00 0. -1.
         -2   -1    0    0    0  501 -0.00000000000E+00 -0.00000000000E+00 -0.58015226932E+02  0.58015226932E+02  0.00000000000E+00 0.  1.
          2    1    1    2  502    0  0.18388567544E+02 -0.22416620080E+02 -0.15358797510E+02  0.32810622260E+02  0.00000000000E+00 0. -1.
         -2    1    1    2    0  502 -0.18388567544E+02  0.22416620080E+02 -0.27736651279E+02  0.40124382815E+02  0.00000000000E+00 0.  1.
</event>
<event>
 4    1  0.5784609E+003  0.2183847E+02  0.7546771E-02  0.1507622E+00
          2   -1    0    0  501    0  0.00000000000E+00  0.00000000000E+00  0.19405100934E+03  0.19405100934E+03  0.00000000000E+00 0. -1.
         -2   -1    0    0    0  501 -0.00000000000E+00 -0.00000000000E+00 -0.28347259945E+01  0.28347259945E+01  0.00000000000E+00 0. -1.
          2    1    1    2  502    0 -0.89870941411E+01  0.19903543006E+02  0.13150985645E+03  0.13331076937E+03  0.00000000000E+00 0. -1.
         -2    1    1    2    0  502  0.89870941411E+01 -0.19903543006E+02  0.59706426891E+02  0.63574965964E+02  0.00000000000E+00 0. -1.
</event>
<event>
 4    1  0.5784609E+003  0.2316710E+02  0.7546771E-02  0.1490410E+00
          2   -1    0    0  501    0  0.00000000000E+00  0.00000000000E+00  0.31056709659E+01  0.31056709659E+01  0.00000000000E+00 0.  1.
         -2   -1    0    0    0  501 -0.00000000000E+00 -0.00000000000E+00 -0.17602832361E+03  0.17602832361E+03  0.00000000000E+00 0. -1.
          2    1    1    2  502    0 -0.21345068568E+02 -0.90057010715E+01 -0.74364869716E+02  0.77889976581E+02  0.00000000000E+00 0.  1.
         -2    1    1    2    0  502  0.21345068568E+02  0.90057010715E+01 -0.98557782924E+02  0.10124401799E+03  0.00000000000E+00 0. -1.
</event>
<event>
 4    1  0.5784609E+003  0.2079345E+02  0.7546771E-02  0.1522234E+00
          2   -1    0    0  501    0  0.00000000000E+00  0.00000000000E+00  0.78346543656E+02  0.78346543656E+02  0.00000000000E+00 0.  1.
         -2   -1    0    0    0  501 -0.00000000000E+00 -0.00000000000E+00 -0.38506360944E+02  0.38506360944E+02  0.00000000000E+00 0. -1.
          2    1    1    2  502    0  0.16879192031E+02 -0.12143322714E+02  0.73997932575E+02  0.76863915042E+02  0.00000000000E+00 0.  1.
         -2    1    1    2    0  502 -0.16879192031E+02  0.12143322714E+02 -0.34157749863E+02  0.39988989558E+02  0.00000000000E+00 0. -1.
</event>
<event>
 4    1  0.5784609E+003  0.3033680E+02  0.7546771E-02  0.1416692E+00
          2   -1    0    0  501    0  0.00000000000E+00  0.00000000000E+00  0.74424055729E+03  0.74424055729E+03  0.00000000000E+00 0.  1.
         -2   -1    0    0    0  501 -0.00000000000E+00 -0.00000000000E+00 -0.23296572534E+02  0.23296572534E+02  0.00000000000E+00 0.  1.
          2    1    1    2  502    0  0.28437150551E+02  0.10566446515E+02  0.73391639377E+03  0.73454311948E+03  0.00000000000E+00 0.  1.
         -2    1    1    2    0  502 -0.28437150551E+02 -0.10566446515E+02 -0.12972409012E+02  0.32994010350E+02  0.00000000000E+00 0.  1.
</event>
<event>
 4    1  0.5784609E+003  0.2223282E+02  0.7546771E-02  0.1502363E+00
          2   -1    0    0  501    0  0.00000000000E+00  0.00000000000E+00  0.10192306917E+03  0.10192306917E+03  0.00000000000E+00 0. -1.
         -2   -1    0    0    0  501 -0.00000000000E+00 -0.00000000000E+00 -0.97229345686E+02  0.97229345686E+02  0.00000000000E+00 0.  1.
          2    1    1    2  502    0 -0.16235427458E+02 -0.15189107295E+02  0.99407916129E+02  0.10186379079E+03  0.00000000000E+00 0. -1.
         -2    1    1    2    0  502  0.16235427458E+02  0.15189107295E+02 -0.94714192643E+02  0.97288624068E+02  0.00000000000E+00 0.  1.
</event>
<event>
 4    1  0.5784609E+003  0.2684079E+02  0.7546771E-02  0.1449214E+00
          2   -1    0    0  501    0  0.00000000000E+00  0.00000000000E+00  0.38420861405E+02  0.38420861405E+02  0.00000000000E+00 0. -1.
         -2   -1    0    0    0  501 -0.00000000000E+00 -0.00000000000E+00 -0.57261024298E+02  0.57261024298E+02  0.00000000000E+00 0. -1.
          2    1    1    2  502    0  0.25736702252E+02  0.76190631675E+01  0.29813441396E+02  0.40115698352E+02  0.00000000000E+00 0. -1.
         -2    1    1    2    0  502 -0.25736702252E+02 -0.76190631675E+01 -0.48653604289E+02  0.55566187351E+02  0.00000000000E+00 0. -1.
</event>
<event>
 4    1  0.5784609E+003  0.2587724E+02  0.7546771E-02  0.1459224E+00
          2   -1    0    0  501    0  0.00000000000E+00  0.00000000000E+00  0.80972122135E+03  0.80972122135E+03  0.00000000000E+00 0. -1.
         -2   -1    0    0    0  501 -0.00000000000E+00 -0.00000000000E+00 -0.22833429474E+02  0.22833429474E+02  0.00000000000E+00 0. -1.
          2    1    1    2  502    0 -0.22730315959E+02 -0.12367873322E+02  0.80211324987E+03  0.80253055840E+03  0.00000000000E+00 0. -1.
         -2    1    1    2    0  502  0.22730315959E+02  0.12367873322E+02 -0.15225458000E+02  0.30024092416E+02  0.00000000000E+00 0. -1.
</event>
<event>
 4    1  0.5784609E+003  0.3071222E+02  0.7546771E-02  0.1413506E+00
          2   -1    0    0  501    0  0.00000000000E+00  0.00000000000E+00  0.44082512585E+02  0.44082512585E+02  0.00000000000E+00 0. -1.
         -2   -1    0    0    0  501 -0.00000000000E+00 -0.00000000000E+00 -0.24822702533E+02  0.24822702533E+02  0.00000000000E+00 0. -1.
          2    1    1    2  502    0 -0.28847327829E+02  0.10539041426E+02 -0.31687249008E+01  0.30875241449E+02  0.00000000000E+00 0. -1.
         -2    1    1    2    0  502  0.28847327829E+02 -0.10539041426E+02  0.22428534953E+02  0.38029973668E+02  0.00000000000E+00 0. -1.
</event>
<event>
 4    1  0.5784609E+003  0.2278533E+02  0.7546771E-02  0.1495212E+00
          2   -1    0    0  501    0  0.00000000000E+00  0.00000000000E+00  0.99407510408E+03  0.99407510408E+03  0.00000000000E+00 0.  1.
         -2   -1    0    0    0  501 -0.00000000000E+00 -0.00000000000E+00 -0.46076805441E+01  0.46076805441E+01  0.00000000000E+00 0. -1.
          2    1    1    2  502    0  0.55723360980E+01 -0.22093441598E+02  0.96492489506E+03  0.96519387907E+03  0.00000000000E+00 0.  1.
         -2    1    1    2    0  502 -0.55723360980E+01  0.22093441598E+02  0.24542528484E+02  0.33488905560E+02  0.00000000000E+00 0. -1.
</event>
<event>
 4    1  0.5784609E+003  0.2075682E+02  0.7546771E-02  0.1522765E+00
          2   -1    0    0  501    0  0.00000000000E+00  0.00000000000E+00  0.53110354567E+03  0.53110354567E+03  0.00000000000E+00 0.  1.
         -2   -1    0    0    0  501 -0.00000000000E+00 -0.00000000000E+00 -0.14595089505E+01  0.14595089505E+01  0.00000000000E+00 0. -1.
          2    1    1    2  502    0  0.14027625441E+02 -0.15299383932E+02  0.44228987066E+03  0.44277666505E+03  0.00000000000E+00 0.  1.
         -2    1    1    2    0  502 -0.14027625441E+02  0.15299383932E+02  0.87354166062E+02  0.89786389573E+02  0.00000000000E+00 0. -1.
</event>
<event>
 4    1  0.5784609E+003  0.2127939E+02  0.7546771E-02  0.1515313E+00
          2   -1    0    0  501    0  0.00000000000E+00  0.00000000000E+00  0.10914453519E+03  0.10914453519E+03  0.00000000000E+00 0. -1.
         -2   -1    0    0    0  501 -0.00000000000E+00 -0.00000000000E+00 -0.71022017063E+01  0.71022017063E+01  0.00000000000E+00 0. -1.
          2    1    1    2  502    0  0.11550057670E+02 -0.17872006028E+02  0.88502916498E+02  0.91025153997E+02  0.00000000000E+00 0. -1.
         -2    1    1    2    0  502 -0.11550057670E+02  0.17872006028E+02  0.13539416987E+02  0.25221582900E+02  0.00000000000E+00 0. -1.
</event>
<event>
 4    1  0.5784609E+003  0.3318843E+02  0.7546771E-02  0.1393767E+00
          2   -1    0    0  501    0  0.00000000000E+00  0.00000000000E+00  0.35379375940E+03  0.35379375940E+03  0.00000000000E+00 0. -1.
         -2   -1    0    0    0  501 -0.00000000000E+00 -0.00000000000E+00 -0.48508816600E+01  0.48508816600E+01  0.00000000000E+00 0. -1.
          2    1    1    2  502    0 -0.26441164766E+01  0.33082918050E+02  0.67147906215E+02  0.74902016847E+02  0.00000000000E+00 0. -1.
         -2    1    1    2    0  502  0.26441164766E+01 -0.33082918050E+02  0.28179497153E+03  0.28374262421E+03  0.00000000000E+00 0. -1.
</event>
<event>
 4    1  0.5784609E+003  0.2062035E+02  0.7546771E-02  0.1524755E+00
          2   -1    0    0  501    0  0.00000000000E+00  0.00000000000E+00  0.13782268690E+04  0.13782268690E+04  0.00000000000E+00 0. -1.
         -2   -1    0    0    0  501 -0.00000000000E+00 -0.00000000000E+00 -0.11376520585E+01  0.11376520585E+01  0.00000000000E+00 0.  1.
          2    1    1    2  502    0  0.11940122523E+02 -0.16811667998E+02  0.12773319061E+04  0.12774983354E+04  0.00000000000E+00 0. -1.
         -2    1    1    2    0  502 -0.11940122523E+02  0.16811667998E+02  0.99757310907E+02  0.10186618569E+03  0.00000000000E+00 0.  1.
</event>
<event>
 4    1  0.5784609E+003  0.2123555E+02  0.7546771E-02  0.1515928E+00
          2   -1    0    0  501    0  0.00000000000E+00  0.00000000000E+00  0.73221140691E+03  0.73221140691E+03  0.00000000000E+00 0.  1.
         -2   -1    0    0    0  501 -0.00000000000E+00 -0.00000000000E+00 -0.10793060919E+02  0.10793060919E+02  0.00000000000E+00 0. -1.
          2    1    1    2  502    0 -0.11017071692E+02  0.18154140240E+02  0.72145642255E+03  0.72176888151E+03  0.00000000000E+00 0.  1.
         -2    1    1    2    0  502  0.11017071692E+02 -0.18154140240E+02 -0.38076558909E-01  0.21235586320E+02  0.00000000000E+00 0. -1.
</event>
<event>
 4    1  0.5784609E+003  0.2384770E+02  0.7546771E-02  0.1482119E+00
          2   -1    0    0  501    0  0.00000000000E+00  0.00000000000E+00  0.26208641521E+03  0.26208641521E+03  0.00000000000E+00 0.  1.
         -2   -1    0    0    0  501 -0.00000000000E+00 -0.00000000000E+00 -0.22686168519E+02  0.22686168519E+02  0.00000000000E+00 0.  1.
          2    1    1    2  502    0  0.23804520113E+02  0.14344253218E+01  0.25510563053E+03  0.25621786722E+03  0.00000000000E+00 0.  1.
         -2    1    1    2    0  502 -0.23804520113E+02 -0.14344253218E+01 -0.15705383836E+02  0.28554716515E+02  0.00000000000E+00 0.  1.
</event>
<event>
 4    1  0.5784609E+003  0.3622863E+02  0.7546771E-02  0.1372125E+00
          2   -1    0    0  501    0  0.00000000000E+00  0.00000000000E+00  0.41214563285E+03  0.41214563285E+03  0.00000000000E+00 0.  1.
         -2   -1    0    0    0  501 -0.00000000000E+00 -0.00000000000E+00 -0.78914941539E+01  0.78914941539E+01  0.00000000000E+00 0. -1.
          2    1    1    2  502    0  0.36228341130E+02  0.14519413059E+00  0.36432520659E+03  0.36612206972E+03  0.00000000000E+00 0.  1.
         -2    1    1    2    0  502 -0.36228341130E+02 -0.14519413059E+00  0.39928932107E+02  0.53915057281E+02  0.00000000000E+00 0. -1.
</event>
<event>
 4    1  0.5784609E+003  0.4796057E+02  0.7546771E-02  0.1307265E+00
          2   -1    0    0  501    0  0.00000000000E+00  0.00000000000E+00  0.22390114337E+03  0.22390114337E+03  0.00000000000E+00 0. -1.
         -2   -1    0    0    0  501 -0.00000000000E+00 -0.00000000000E+00 -0.52968213208E+02  0.52968213208E+02  0.00000000000E+00 0.  1.
          2    1    1    2  502    0 -0.43401621198E+02 -0.20408719916E+02  0.20975326539E+03  0.21516656086E+03  0.00000000000E+00 0. -1.
         -2    1    1    2    0  502  0.43401621198E+02  0.20408719916E+02 -0.38820335232E+02  0.61702795713E+02  0.00000000000E+00 0.  1.
</event>
<event>
 4    1  0.5784609E+003  0.2096533E+02  0.7546771E-02  0.1519760E+00
          2   -1    0    0  501    0  0.00000000000E+00  0.00000000000E+00  0.51262263839E+03  0.51262263839E+03  0.00000000000E+00 0.  1.
         -2   -1    0    0    0  501 -0.00000000000E+00 -0.00000000000E+00 -0.18593852890E+01  0.18593852890E+01  0.00000000000E+00 0.  1.
          2    1    1    2  502    0 -0.18251619707E+02 -0.10316180770E+02  0.44421408611E+03  0.44470855570E+03  0.00000000000E+00 0.  1.
         -2    1    1    2    0  502  0.18251619707E+02  0.10316180770E+02  0.66549166984E+02  0.69773467979E+02  0.00000000000E+00 0.  1.
</event>
<event>
 4    1  0.5784609E+003  0.2405403E+02  0.7546771E-02  0.1479670E+00
          2   -1    0    0  501    0  0.00000000000E+00  0.00000000000E+00  0.51271125202E+02  0.51271125202E+02  0.00000000000E+00 0. -1.
         -2   -1    0    0    0  501 -0.00000000000E+00 -0.00000000000E+00 -0.31009934883E+02  0.31009934883E+02  0.00000000000E+00 0.  1.
          2    1    1    2  502    0  0.64182183042E+01 -0.23181953564E+02  0.42942152781E+02  0.49220168454E+02  0.00000000000E+00 0. -1.
         -2    1    1    2    0  502 -0.64182183042E+01  0.23181953564E+02 -0.22680962462E+02  0.33060891631E+02  0.00000000000E+00 0.  1.
</event>
<event>
 4    1  0.5784609E+003  0.2807924E+02  0.7546771E-02  0.1437058E+00
          2   -1    0    0  501    0  0.00000000000E+00  0.00000000000E+00  0.54380223427E+02  0.54380223427E+02  0.00000000000E+00 0.  1.
         -2   -1    0    0    0  501 -0.00000000000E+00 -0.00000000000E+00 -0.23212522799E+02  0.23212522799E+02  0.00000000000E+00 0. -1.
          2    1    1    2  502    0 -0.23093646705E+02  0.15972700307E+02  0.39354103135E+02  0.48344483726E+02  0.00000000000E+00 0.  1.
         -2    1    1    2    0  502  0.23093646705E+02 -0.15972700307E+02 -0.81864025064E+01  0.29248262499E+02  0.00000000000E+00 0. -1.
</event>
<event>
 4    1  0.5784609E+003  0.2661465E+02  0.7546771E-02  0.1451518E+00
          2   -1    0    0  501    0  0.00000000000E+00  0.00000000000E+00  0.54754870231E+01  0.54754870231E+01  0.00000000000E+00 0.  1.
         -2   -1    0    0    0  501 -0.00000000000E+00 -0.00000000000E+00 -0.45089506940E+03  0.45089506940E+03  0.00000000000E+00 0. -1.
          2    1    1    2  502    0 -0.26070525978E+02  0.53541604576E+01 -0.30019289220E+02  0.40118537913E+02  0.00000000000E+00 0.  1.
         -2    1    1    2    0  502  0.26070525978E+02 -0.53541604576E+01 -0.41540029316E+03  0.41625201851E+03  0.00000000000E+00 0. -1.
</event>
<event>
 4    1  0.5784609E+003  0.2398246E+02  0.7546771E-02  0.1480517E+00
          2   -1    0    0  501    0  0.00000000000E+00  0.00000000000E+00  0.33708991601E+02  0.33708991601E+02  0.00000000000E+00 0. -1.
         -2   -1    0    0    0  501 -0.00000000000E+00 -0.00000000000E+00 -0.37303270638E+02  0.37303270638E+02  0.00000000000E+00 0. -1.
          2    1    1    2  502    0 -0.23148433377E+02 -0.62696312116E+01  0.24357206950E+02  0.34182331310E+02  0.00000000000E+00 0. -1.
         -2    1    1    2    0  502  0.23148433377E+02  0.62696312116E+01 -0.27951485988E+02  0.36829930930E+02  0.00000000000E+00 0. -1.
</event>
<event>
 4    1  0.5784609E+003  0.2811279E+02  0.7546771E-02  0.1436739E+00
          2   -1    0    0  501    0  0.00000000000E+00  0.00000000000E+00  0.47490401317E+02  0.47490401317E+02  0.00000000000E+00 0.  1.
         -2   -1    0    0    0  501 -0.00000000000E+00 -0.00000000000E+00 -0.46106103435E+02  0.46106103435E+02  0.00000000000E+00 0. -1.
          2    1    1    2  502    0  0.23611602463E+02 -0.15258487301E+02  0.38103033731E+02  0.47351561591E+02  0.00000000000E+00 0.  1.
         -2    1    1    2    0  502 -0.23611602463E+02  0.15258487301E+02 -0.36718735849E+02  0.46244943161E+02  0.00000000000E+00 0. -1.
</event>
<event>
 4    1  0.5784609E+003  0.2121851E+02  0.7546771E-02  0.1516168E+00
          2   -1    0    0  501    0  0.00000000000E+00  0.00000000000E+00  0.12974998547E+04  0.12974998547E+04  0.00000000000E+00 0.  1.
         -2   -1    0    0    0  501 -0.00000000000E+00 -0.00000000000E+00 -0.45503636751E+02  0.45503636751E+02  0.00000000000E+00 0.  1.
          2    1    1    2  502    0  0.19752436965E+02 -0.77502635693E+01  0.12949346384E+04  0.12951084677E+04  0.00000000000E+00 0.  1.
         -2    1    1    2    0  502 -0.19752436965E+02  0.77502635693E+01 -0.42938420445E+02  0.47895023768E+02  0.00000000000E+00 0.  1.
</event>
<event>
 4    1  0.5784609E+003  0.2583333E+02  0.7546771E-02  0.1459693E+00
          2   -1    0    0  501    0  0.00000000000E+00  0.00000000000E+00  0.91511487920E+03  0.91511487920E+03  0.00000000000E+00 0. -1.
         -2   -1    0    0    0  501 -0.00000000000E+00 -0.00000000000E+00 -0.23190952907E+02  0.23190952907E+02  0.00000000000E+00 0. -1.
          2    1    1    2  502    0  0.25630601356E+02 -0.32300604139E+01  0.90767944657E+03  0.90804699149E+03  0.00000000000E+00 0. -1.
         -2    1    1    2    0  502 -0.25630601356E+02  0.32300604139E+01 -0.15755520284E+02  0.30258840618E+02  0.00000000000E+00 0. -1.
</event>
<event>
 4    1  0.5784609E+003  0.2572043E+02  0.7546771E-02  0.1460903E+00
          2   -1    0    0  501    0  0.00000000000E+00  0.00000000000E+00  0.90837372299E+03  0.90837372299E+03  0.00000000000E+00 0. -1.
         -2   -1    0    0    0  501 -0.00000000000E+00 -0.00000000000E+00 -0.14899617764E+01  0.14899617764E+01  0.00000000000E+00 0. -1.
          2    1    1    2  502    0 -0.22264147483E+02 -0.12878209447E+02  0.77871535860E+03  0.77914000684E+03  0.00000000000E+00 0. -1.
         -2    1    1    2    0  502  0.22264147483E+02  0.12878209447E+02  0.12816840262E+03  0.13072367793E+03  0.00000000000E+00 0. -1.
</event>
<event>
 4    1  0.5784609E+003  0.2021496E+02  0.7546771E-02  0.1530775E+00
          2   -1    0    0  501    0  0.00000000000E+00  0.00000000000E+00  0.11297198270E+04  0.11297198270E+04  0.00000000000E+00 0. -1.
         -2   -1    0    0    0  501 -0.00000000000E+00 -0.00000000000E+00 -0.13420688644E+02  0.13420688644E+02  0.00000000000E+00 0.  1.
          2    1    1    2  502    0 -0.18545503477E+02  0.80441926271E+01  0.11219645673E+04  0.11221466637E+04  0.00000000000E+00 0. -1.
         -2    1    1    2    0  502  0.18545503477E+02 -0.80441926271E+01 -0.56654288902E+01  0.20993851927E+02  0.00000000000E+00 0.  1.
</event>
<event>
 4    1  0.5784609E+003  0.2281346E+02  0.7546771E-02  0.1494854E+00
          2   -1    0    0  501    0  0.00000000000E+00  0.00000000000E+00  0.31593866701E+01  0.31593866701E+01  0.00000000000E+00 0. -1.
         -2   -1    0    0    0  501 -0.00000000000E+00 -0.00000000000E+00 -0.53549694771E+03  0.53549694771E+03  0.00000000000E+00 0.  1.
          2    1    1    2  502    0 -0.21233427924E+02  0.83423827211E+01 -0.42063396500E+02  0.47851678508E+02  0.00000000000E+00 0. -1.
         -2    1    1    2    0  502  0.21233427924E+02 -0.83423827211E+01 -0.49027416454E+03  0.49080465587E+03  0.00000000000E+00 0.  1.
</event>
<event>
 4    1  0.5784609E+003  0.2620589E+02  0.7546771E-02  0.1455752E+00
          2   -1    0    0  501    0  0.00000000000E+00  0.00000000000E+00  0.35899235602E+03  0.35899235602E+03  0.00000000000E+00 0. -1.
         -2   -1    0    0    0  501 -0.00000000000E+00 -0.00000000000E+00 -0.19139561688E+01  0.19139561688E+01  0.00000000000E+00 0. -1.
          2    1    1    2  502    0 -0.23318642908E+02 -0.11957822418E+02  0.18259453801E+03  0.18446548169E+03  0.00000000000E+00 0. -1.
         -2    1    1    2    0  502  0.23318642908E+02  0.11957822418E+02  0.17448386184E+03  0.17644083049E+03  0.00000000000E+00 0. -1.
</event>
<event>
 4    1  0.5784609E+003  0.2588795E+02  0.7546771E-02  0.1459110E+00
          2   -1    0    0  501    0  0.00000000000E+00  0.00000000000E+00  0.15369151707E+02  0.15369151707E+02  0.00000000000E+00 0. -1.
         -2   -1    0    0    0  501 -0.00000000000E+00 -0.00000000000E+00 -0.95509848301E+02  0.95509848301E+02  0.00000000000E+00 0.  1.
          2    1    1    2  502    0 -0.24485293026E+02 -0.84057483927E+01  0.79877222790E+00  0.25900274471E+02  0.00000000000E+00 0. -1.
         -2    1    1    2    0  502  0.24485293026E+02  0.84057483927E+01 -0.80939468823E+02  0.84978725537E+02  0.00000000000E+00 0.  1.
</event>
<event>
 4    1  0.5784609E+003  0.2022149E+02  0.7546771E-02  0.1530676E+00
          2   -1    0    0  501    0  0.00000000000E+00  0.00000000000E+00  0.17587163789E+02  0.17587163789E+02  0.00000000000E+00 0. -1.
         -2   -1    0    0    0  501 -0.00000000000E+00 -0.00000000000E+00 -0.23311607046E+02  0.23311607046E+02  0.00000000000E+00 0. -1.
          2    1    1    2  502    0 -0.19724815539E+02  0.44542341931E+01 -0.18143611291E+01  0.20302720424E+02  0.00000000000E+00 0. -1.
         -2    1    1    2    0  502  0.19724815539E+02 -0.44542341931E+01 -0.39100821275E+01  0.20596050411E+02  0.00000000000E+00 0. -1.
</event>
<event>
 4    1  0.5784609E+003  0.2582269E+02  0.7546771E-02  0.1459807E+00
          2   -1    0    0  501    0  0.00000000000E+00  0.00000000000E+00  0.92345258389E+00  0.92345258389E+00  0.00000000000E+00 0.  1.
         -2   -1    0    0    0  501 -0.00000000000E+00 -0.00000000000E+00 -0.78693484306E+03  0.78693484306E+03  0.00000000000E+00 0.  1.
          2    1    1    2  502    0  0.25601843600E+02 -0.33699766083E+01 -0.27992105194E+03  0.28110959866E+03  0.00000000000E+00 0.  1.
         -2    1    1    2    0  502 -0.25601843600E+02  0.33699766083E+01 -0.50609033854E+03  0.50674869699E+03  0.00000000000E+00 0.  1.
</event>
<event>
 4    1  0.5784609E+003  0.2180362E+02  0.7546771E-02  0.1508094E+00
          2   -1    0    0  501    0  0.00000000000E+00  0.00000000000E+00  0.92944499987E+02  0.92944499987E+02  0.00000000000E+00 0.  1.
         -2   -1    0    0    0  501 -0.00000000000E+00 -0.00000000000E+00 -0.35499218618E+02  0.35499218618E+02  0.00000000000E+00 0.  1.
          2    1    1    2  502    0 -0.21041863082E+02  0.57129546319E+01  0.88137973469E+02  0.90794824851E+02  0.00000000000E+00 0.  1.
         -2    1    1    2    0  502  0.21041863082E+02 -0.57129546319E+01 -0.30692692099E+02  0.37648893754E+02  0.00000000000E+00 0.  1.
</event>
<event>
 4    1  0.5784609E+003  0.2100414E+02  0.7546771E-02  0.1519206E+00
          2   -1    0    0  501    0  0.00000000000E+00  0.00000000000E+00  0.25646533987E+03  0.25646533987E+03  0.00000000000E+00 0. -1.
         -2   -1    0    0    0  501 -0.00000000000E+00 -0.00000000000E+00 -0.56393177290E+01  0.56393177290E+01  0.00000000000E+00 0. -1.
          2    1    1    2  502    0  0.94141110597E+01  0.18776269118E+02  0.23466394638E+03  0.23560208297E+03  0.00000000000E+00 0. -1.
         -2    1    1    2    0  502 -0.94141110597E+01 -0.18776269118E+02  0.16162075759E+02  0.26502574628E+02  0.00000000000E+00 0. -1.
</event>
<event>
 4    1  0.5784609E+003  0.3013818E+02  0.7546771E-02  0.1418399E+00
          2   -1    0    0  501    0  0.00000000000E+00  0.00000000000E+00  0.53145895938E+03  0.53145895938E+03  0.00000000000E+00 0.  1.
         -2   -1    0    0    0  501 -0.00000000000E+00 -0.00000000000E+00 -0.19728235478E+01  0.19728235478E+01  0.00000000000E+00 0. -1.
          2    1    1    2  502    0  0.14637444515E+02 -0.26344924919E+02  0.36226213514E+03  0.36351363717E+03  0.00000000000E+00 0.  1.
         -2    1    1    2    0  502 -0.14637444515E+02  0.26344924919E+02  0.16722400069E+03  0.16991814576E+03  0.00000000000E+00 0. -1.
</event>
<event>
 4    1  0.5784609E+003  0.3853166E+02  0.7546771E-02  0.1357312E+00
          2   -1    0    0  501    0  0.00000000000E+00  0.00000000000E+00  0.39104683582E+02  0.39104683582E+02  0.00000000000E+00 0.  1.
         -2   -1    0    0    0  501 -0.00000000000E+00 -0.00000000000E+00 -0.14788002693E+03  0.14788002693E+03  0.00000000000E+00 0. -1.
          2    1    1    2  502    0  0.37834008302E+02 -0.72990824389E+01  0.26214336127E+02  0.46603435573E+02  0.00000000000E+00 0.  1.
         -2    1    1    2    0  502 -0.37834008302E+02  0.72990824389E+01 -0.13498967947E+03  0.14038127494E+03  0.00000000000E+00 0. -1.
</event>
<event>
 4    1  0.5784609E+003  0.5996444E+02  0.7546771E-02  0.1259953E+00
          2   -1    0    0  501    0  0.00000000000E+00  0.00000000000E+00  0.22812068844E+04  0.22812068844E+04  0.00000000000E+00 0.  1.
         -2   -1    0    0    0  501 -0.00000000000E+00 -0.00000000000E+00 -0.25895909493E+01  0.25895909493E+01  0.00000000000E+00 0.  1.
          2    1    1    2  502    0  0.45863195189E+02  0.38630323733E+02  0.18536261366E+04  0.18545958020E+04  0.00000000000E+00 0.  1.
         -2    1    1    2    0  502 -0.45863195189E+02 -0.38630323733E+02  0.42499115683E+03  0.42920067331E+03  0.00000000000E+00 0.  1.
</event>
<event>
 4    1  0.5784609E+003  0.2845321E+02  0.7546771E-02  0.1433532E+00
          2   -1    0    0  501    0  0.00000000000E+00  0.00000000000E+00  0.90317435958E+01  0.90317435958E+01  0.00000000000E+00 0. -1.
         -2   -1    0    0    0  501 -0.00000000000E+00 -0.00000000000E+00 -0.80402000363E+03  0.80402000363E+03  0.00000000000E+00 0. -1.
          2    1    1    2  502    0  0.84199890402E+01  0.27178830004E+02 -0.14298896023E+02  0.31844048790E+02  0.00000000000E+00 0. -1.
         -2    1    1    2    0  502 -0.84199890402E+01 -0.27178830004E+02 -0.78068936401E+03  0.78120769843E+03  0.00000000000E+00 0. -1.
</event>
<event>
 4    1  0.5784609E+003  0.2183421E+02  0.7546771E-02  0.1507680E+00
          2   -1    0    0  501    0  0.00000000000E+00  0.00000000000E+00  0.59144260692E+03  0.59144260692E+03  0.00000000000E+00 0.  1.
         -2   -1    0    0    0  501 -0.00000000000E+00 -0.00000000000E+00 -0.40918625186E+02  0.40918625186E+02  0.00000000000E+00 0. -1.
          2    1    1    2  502    0  0.10646530380E+02  0.19062636339E+02  0.58831291701E+03  0.58871794692E+03  0.00000000000E+00 0.  1.
         -2    1    1    2    0  502 -0.10646530380E+02 -0.19062636339E+02 -0.37788935267E+02  0.43643285187E+02  0.00000000000E+00 0. -1.
</event>
<event>
 4    1  0.5784609E+003  0.4118154E+02  0.7546771E-02  0.1341698E+00
          2   -1    0    0  501    0  0.00000000000E+00  0.00000000000E+00  0.12031669995E+02  0.12031669995E+02  0.00000000000E+00 0.  1.
         -2   -1    0    0    0  501 -0.00000000000E+00 -0.00000000000E+00 -0.16123533498E+03  0.16123533498E+03  0.00000000000E+00 0. -1.
          2    1    1    2  502    0  0.41172203626E+02  0.87582868012E+00 -0.10532735033E+03  0.11309185716E+03  0.00000000000E+00 0. -1.
         -2    1    1    2    0  502 -0.41172203626E+02 -0.87582868012E+00 -0.43876314655E+02  0.60175147819E+02  0.00000000000E+00 0.  1.
</event>
<event>
 4    1  0.5784609E+003  0.2365673E+02  0.7546771E-02  0.1484412E+00
          2   -1    0    0  501    0  0.00000000000E+00  0.00000000000E+00  0.29169692945E+03  0.29169692945E+03  0.00000000000E+00 0. -1.
         -2   -1    0    0    0  501 -0.00000000000E+00 -0.00000000000E+00 -0.19579109853E+01  0.19579109853E+01  0.00000000000E+00 0. -1.
          2    1    1    2  502    0 -0.23514338294E+02 -0.25915571728E+01  0.12405593660E+03  0.12629139194E+03  0.00000000000E+00 0. -1.
         -2    1    1    2    0  502  0.23514338294E+02  0.25915571728E+01  0.16568308187E+03  0.16736344849E+03  0.00000000000E+00 0. -1.
</event>
<event>
 4    1  0.5784609E+003  0.2001427E+02  0.7546771E-02  0.1533818E+00
          2   -1    0    0  501    0  0.00000000000E+00  0.00000000000E+00  0.97962682095E+03  0.97962682095E+03  0.00000000000E+00 0. -1.
         -2   -1    0    0    0  501 -0.00000000000E+00 -0.00000000000E+00 -0.89272801592E+00  0.89272801592E+00  0.00000000000E+00 0.  1.
          2    1    1    2  502    0  0.18558317925E+02 -0.74939948007E+01  0.85028742106E+03  0.85052293886E+03  0.00000000000E+00 0. -1.
         -2    1    1    2    0  502 -0.18558317925E+02  0.74939948007E+01  0.12844667188E+03  0.12999661010E+03  0.00000000000E+00 0.  1.
</event>
<event>
 4    1  0.5784609E+003  0.6487493E+02  0.7546771E-02  0.1244112E+00
          2   -1    0    0  501    0  0.00000000000E+00  0.00000000000E+00  0.19016314852E+03  0.19016314852E+03  0.00000000000E+00 0. -1.
         -2   -1    0    0    0  501 -0.00000000000E+00 -0.00000000000E+00 -0.13038660105E+03  0.13038660105E+03  0.00000000000E+00 0. -1.
          2    1    1    2  502    0 -0.10078272246E+02  0.64087325683E+02  0.17592814756E+03  0.18750858644E+03  0.00000000000E+00 0. -1.
         -2    1    1    2    0  502  0.10078272246E+02 -0.64087325683E+02 -0.11615160009E+03  0.13304116313E+03  0.00000000000E+00 0. -1.
</event>
<event>
 4    1  0.5784609E+003  0.2391059E+02  0.7546771E-02  0.1481370E+00
          2   -1    0    0  501    0  0.00000000000E+00  0.00000000000E+00  0.90926248446E+03  0.90926248446E+03  0.00000000000E+00 0. -1.
         -2   -1    0    0    0  501 -0.00000000000E+00 -0.00000000000E+00 -0.14678114235E+01  0.14678114235E+01  0.00000000000E+00 0. -1.
          2    1    1    2  502    0 -0.14320260726E+02  0.19148016283E+02  0.79818108445E+03  0.79853914116E+03  0.00000000000E+00 0. -1.
         -2    1    1    2    0  502  0.14320260726E+02 -0.19148016283E+02  0.10961358859E+03  0.11219115473E+03  0.00000000000E+00 0. -1.
</event>
<event>
 4    1  0.5784609E+003  0.2275347E+02  0.7546771E-02  0.1495617E+00
          2   -1    0    0  501    0  0.00000000000E+00  0.00000000000E+00  0.12103463392E+01  0.12103463392E+01  0.00000000000E+00 0.  1.
         -2   -1    0    0    0  501 -0.00000000000E+00 -0.00000000000E+00 -0.43225186160E+03  0.43225186160E+03  0.00000000000E+00 0. -1.
          2    1    1    2  502    0 -0.12545545515E+02 -0.18982346363E+02 -0.19339152285E+03  0.19472545107E+03  0.00000000000E+00 0.  1.
         -2    1    1    2    0  502  0.12545545515E+02  0.18982346363E+02 -0.23764999241E+03  0.23873675687E+03  0.00000000000E+00 0. -1.
</event>
<event>
 4    1  0.5784609E+003  0.3698992E+02  0.7546771E-02  0.1367089E+00
          2   -1    0    0  501    0  0.00000000000E+00  0.00000000000E+00  0.18812087014E+02  0.18812087014E+02  0.00000000000E+00 0.  1.
         -2   -1    0    0    0  501 -0.00000000000E+00 -0.00000000000E+00 -0.21670870319E+03  0.21670870319E+03  0.00000000000E+00 0.  1.
          2    1    1    2  502    0  0.25932644831E+02 -0.26377118053E+02 -0.29627066402E+01  0.37108382548E+02  0.00000000000E+00 0.  1.
         -2    1    1    2    0  502 -0.25932644831E+02  0.26377118053E+02 -0.19493390953E+03  0.19841240765E+03  0.00000000000E+00 0.  1.
</event>
<event>
 4    1  0.5784609E+003  0.2120346E+02  0.7546771E-02  0.1516380E+00
          2   -1    0    0  501    0  0.00000000000E+00  0.00000000000E+00  0.54763765480E+03  0.54763765480E+03  0.00000000000E+00 0. -1.
         -2   -1    0    0    0  501 -0.00000000000E+00 -0.00000000000E+00 -0.15012112464E+03  0.15012112464E+03  0.00000000000E+00 0. -1.
          2    1    1    2  502    0  0.21203136612E+02 -0.11769810437E+00  0.54668240098E+03  0.54709344211E+03  0.00000000000E+00 0. -1.
         -2    1    1    2    0  502 -0.21203136612E+02  0.11769810437E+00 -0.14916587083E+03  0.15066533734E+03  0.00000000000E+00 0. -1.
</event>
<event>
 4    1  0.5784609E+003  0.2115947E+02  0.7546771E-02  0.1517000E+00
          2   -1    0    0  501    0  0.00000000000E+00  0.00000000000E+00  0.61363305974E+02  0.61363305974E+02  0.00000000000E+00 0.  1.
         -2   -1    0    0    0  501 -0.00000000000E+00 -0.00000000000E+00 -0.10011703070E+02  0.10011703070E+02  0.00000000000E+00 0. -1.
          2    1    1    2  502    0  0.15064117177E+02 -0.14859188983E+02  0.44261629482E+02  0.49059300525E+02  0.00000000000E+00 0.  1.
         -2    1    1    2    0  502 -0.15064117177E+02  0.14859188983E+02  0.70899734218E+01  0.22315708519E+02  0.00000000000E+00 0. -1.
</event>
<event>
 4    1  0.5784609E+003  0.2023158E+02  0.7546771E-02  0.1530525E+00
          2   -1    0    0  501    0  0.00000000000E+00  0.00000000000E+00  0.35342415731E+03  0.35342415731E+03  0.00000000000E+00 0. -1.
         -2   -1    0    0    0  501 -0.00000000000E+00 -0.00000000000E+00 -0.15356680848E+01  0.15356680848E+01  0.00000000000E+00 0. -1.
          2    1    1    2  502    0  0.20228956841E+02 -0.32586297631E+00  0.26394198765E+03  0.26471624379E+03  0.00000000000E+00 0. -1.
         -2    1    1    2    0  502 -0.20228956841E+02  0.32586297631E+00  0.87946501570E+02  0.90243581600E+02  0.00000000000E+00 0. -1.
</event>
<event>
 4    1  0.5784609E+003  0.2108270E+02  0.7546771E-02  0.1518087E+00
          2   -1    0    0  501    0  0.00000000000E+00  0.00000000000E+00  0.14930091238E+01  0.14930091238E+01  0.00000000000E+00 0. -1.
         -2   -1    0    0    0  501 -0.00000000000E+00 -0.00000000000E+00 -0.30756084631E+03  0.30756084631E+03  0.00000000000E+00 0.  1.
          2    1    1    2  502    0  0.10593833464E+02 -0.18227749992E+02 -0.12537545153E+03  0.12713569139E+03  0.00000000000E+00 0. -1.
         -2    1    1    2    0  502 -0.10593833464E+02  0.18227749992E+02 -0.18069238566E+03  0.18191816405E+03  0.00000000000E+00 0.  1.
</event>
<event>
 4    1  0.5784609E+003  0.2295566E+02  0.7546771E-02  0.1493056E+00
          2   -1    0    0  501    0  0.00000000000E+00  0.00000000000E+00  0.64844138780E+03  0.64844138780E+03  0.00000000000E+00 0. -1.
         -2   -1    0    0    0  501 -0.00000000000E+00 -0.00000000000E+00 -0.30965462208E+01  0.30965462208E+01  0.00000000000E+00 0. -1.
          2    1    1    2  502    0 -0.21100445047E+02 -0.90406503866E+01  0.60244696332E+03  0.60288415616E+03  0.00000000000E+00 0. -1.
         -2    1    1    2    0  502  0.21100445047E+02  0.90406503866E+01  0.42897878263E+02  0.48653777860E+02  0.00000000000E+00 0. -1.
</event>
<event>
 4    1  0.5784609E+003  0.2390774E+02  0.7546771E-02  0.1481404E+00
          2   -1    0    0  501    0  0.00000000000E+00  0.00000000000E+00  0.33726930009E+02  0.33726930009E+02  0.00000000000E+00 0. -1.
         -2   -1    0    0    0  501 -0.00000000000E+00 -0.00000000000E+00 -0.19410030579E+03  0.19410030579E+03  0.00000000000E+00 0. -1.
          2    1    1    2  502    0  0.15478988536E+02  0.18220344382E+02  0.28640350760E+02  0.37307502290E+02  0.00000000000E+00 0. -1.
         -2    1    1    2    0  502 -0.15478988536E+02 -0.18220344382E+02 -0.18901372654E+03  0.19051973351E+03  0.00000000000E+00 0. -1.
</event>
<event>
 4    1  0.5784609E+003  0.2226489E+02  0.7546771E-02  0.1501941E+00
          2   -1    0    0  501    0  0.00000000000E+00  0.00000000000E+00  0.13226979203E+04  0.13226979203E+04  0.00000000000E+00 0.  1.
         -2   -1    0    0    0  501 -0.00000000000E+00 -0.00000000000E+00 -0.38569929464E+01  0.38569929464E+01  0.00000000000E+00 0.  1.
          2    1    1    2  502    0  0.21379356286E+02  0.62167755910E+01  0.12896492958E+04  0.12898414753E+04  0.00000000000E+00 0.  1.
         -2    1    1    2    0  502 -0.21379356286E+02 -0.62167755910E+01  0.29191631475E+02  0.36713437896E+02  0.00000000000E+00 0.  1.
</event>
<event>
 4    1  0.5784609E+003  0.2145483E+02  0.7546771E-02  0.1512869E+00
          2   -1    0    0  501    0  0.00000000000E+00  0.00000000000E+00  0.11152510385E+03  0.11152510385E+03  0.00000000000E+00 0. -1.
         -2   -1    0    0    0  501 -0.00000000000E+00 -0.00000000000E+00 -0.81855544437E+02  0.81855544437E+02  0.00000000000E+00 0. -1.
          2    1    1    2  502    0  0.20029833231E+02  0.76886685195E+01  0.10905586171E+03  0.11114625867E+03  0.00000000000E+00 0. -1.
         -2    1    1    2    0  502 -0.20029833231E+02 -0.76886685195E+01 -0.79386302299E+02  0.82234389616E+02  0.00000000000E+00 0. -1.
</event>
<event>
 4    1  0.5784609E+003  0.2097282E+02  0.7546771E-02  0.1519653E+00
          2   -1    0    0  501    0  0.00000000000E+00  0.00000000000E+00  0.47968563953E+03  0.47968563953E+03  0.00000000000E+00 0.  1.
         -2   -1    0    0    0  501 -0.00000000000E+00 -0.00000000000E+00 -0.32303100049E+02  0.32303100049E+02  0.00000000000E+00 0.  1.
          2    1    1    2  502    0  0.11126755907E+02  0.17777925077E+02  0.47602608130E+03  0.47648786909E+03  0.00000000000E+00 0.  1.
         -2    1    1    2    0  502 -0.11126755907E+02 -0.17777925077E+02 -0.28643541820E+02  0.35500870483E+02  0.00000000000E+00 0.  1.
</event>
<event>
 4    1  0.5784609E+003  0.3302379E+02  0.7546771E-02  0.1395015E+00
          2   -1    0    0  501    0  0.00000000000E+00  0.00000000000E+00  0.39837954267E+03  0.39837954267E+03  0.00000000000E+00 0.  1.
         -2   -1    0    0    0  501 -0.00000000000E+00 -0.00000000000E+00 -0.29735536752E+03  0.29735536752E+03  0.00000000000E+00 0. -1.
          2    1    1    2  502    0  0.33000406808E+02  0.12424288828E+01  0.39677456959E+03  0.39814649258E+03  0.00000000000E+00 0.  1.
         -2    1    1    2    0  502 -0.33000406808E+02 -0.12424288828E+01 -0.29575039444E+03  0.29758841761E+03  0.00000000000E+00 0. -1.
</event>
<event>
 4    1  0.5784609E+003  0.3535375E+02  0.7546771E-02  0.1378093E+00
          2   -1    0    0  501    0  0.00000000000E+00  0.00000000000E+00  0.54342574304E+02  0.54342574304E+02  0.00000000000E+00 0.  1.
         -2   -1    0    0    0  501 -0.00000000000E+00 -0.00000000000E+00 -0.31005040948E+02  0.31005040948E+02  0.00000000000E+00 0.  1.
          2    1    1    2  502    0  0.23992734782E+02 -0.25966066896E+02  0.33351930692E+02  0.48602872685E+02  0.00000000000E+00 0.  1.
         -2    1    1    2    0  502 -0.23992734782E+02  0.25966066896E+02 -0.10014397336E+02  0.36744742568E+02  0.00000000000E+00 0.  1.
</event>
<event>
 4    1  0.5784609E+003  0.2686318E+02  0.7546771E-02  0.1448987E+00
          2   -1    0    0  501    0  0.00000000000E+00  0.00000000000E+00  0.14804905568E+03  0.14804905568E+03  0.00000000000E+00 0. -1.
         -2   -1    0    0    0  501 -0.00000000000E+00 -0.00000000000E+00 -0.65246680223E+01  0.65246680223E+01  0.00000000000E+00 0. -1.
          2    1    1    2  502    0 -0.22336988393E+00 -0.26862250397E+02  0.10963280915E+03  0.11287596392E+03  0.00000000000E+00 0. -1.
         -2    1    1    2    0  502  0.22336988393E+00  0.26862250397E+02  0.31891578509E+02  0.41697759776E+02  0.00000000000E+00 0. -1.
</event>
<event>
 4    1  0.5784609E+003  0.2098964E+02  0.7546771E-02  0.1519413E+00
          2   -1    0    0  501    0  0.00000000000E+00  0.00000000000E+00  0.15204425625E+04  0.15204425625E+04  0.00000000000E+00 0.  1.
         -2   -1    0    0    0  501 -0.00000000000E+00 -0.00000000000E+00 -0.82799407294E+00  0.82799407294E+00  0.00000000000E+00 0. -1.
          2    1    1    2  502    0  0.20588987643E+02 -0.40815088036E+01  0.13730720244E+04  0.13732324455E+04  0.00000000000E+00 0.  1.
         -2    1    1    2    0  502 -0.20588987643E+02  0.40815088036E+01  0.14654254400E+03  0.14803811107E+03  0.00000000000E+00 0. -1.
</event>
<event>
 4    1  0.5784609E+003  0.2066789E+02  0.7546771E-02  0.1524060E+00
          2   -1    0    0  501    0  0.00000000000E+00  0.00000000000E+00  0.55664999854E+02  0.55664999854E+02  0.00000000000E+00 0.  1.
         -2   -1    0    0    0  501 -0.00000000000E+00 -0.00000000000E+00 -0.84625098909E+01  0.84625098909E+01  0.00000000000E+00 0. -1.
          2    1    1    2  502    0  0.16890169548E+02  0.11911499236E+02  0.33389957578E+02  0.39268956040E+02  0.00000000000E+00 0.  1.
         -2    1    1    2    0  502 -0.16890169548E+02 -0.11911499236E+02  0.13812532385E+02  0.24858553705E+02  0.00000000000E+00 0. -1.
</event>
<event>
 4    1  0.5784609E+003  0.2385321E+02  0.7546771E-02  0.1482054E+00
          2   -1    0    0  501    0  0.00000000000E+00  0.00000000000E+00  0.12113848645E+04  0.12113848645E+04  0.00000000000E+00 0.  1.
         -2   -1    0    0    0  501 -0.00000000000E+00 -0.00000000000E+00 -0.56901089069E+00  0.56901089069E+00  0.00000000000E+00 0.  1.
          2    1    1    2  502    0 -0.18264187221E+02  0.15342583506E+02  0.85858013274E+03  0.85891141554E+03  0.00000000000E+00 0.  1.
         -2    1    1    2    0  502  0.18264187221E+02 -0.15342583506E+02  0.35223572090E+03  0.35304245988E+03  0.00000000000E+00 0.  1.
</event>
<event>
 4    1  0.7424384E+003  0.2905234E+02  0.7546771E-02  0.1428014E+00
          2   -1    0    0  501    0  0.00000000000E+00  0.00000000000E+00  0.10949919501E+04  0.10949919501E+04  0.00000000000E+00 0. -1.
         -2   -1    0    0    0  501 -0.00000000000E+00 -0.00000000000E+00 -0.21004995385E+03  0.21004995385E+03  0.00000000000E+00 0. -1.
          2    1    1    2  502    0  0.60506193963E+01  0.28415288839E+02  0.10937935764E+04  0.10941793393E+04  0.00000000000E+00 0. -1.
         -2    1    1    2    0  502 -0.60506193963E+01 -0.28415288839E+02 -0.20885158019E+03  0.21086256468E+03  0.00000000000E+00 0. -1.
</event>
<event>
 4    1  0.5784609E+003  0.3171416E+02  0.7546771E-02  0.1405263E+00
          2   -1    0    0  501    0  0.00000000000E+00  0.00000000000E+00  0.11095698117E+03  0.11095698117E+03  0.00000000000E+00 0. -1.
         -2   -1    0    0    0  501 -0.00000000000E+00 -0.00000000000E+00 -0.58709164655E+03  0.58709164655E+03  0.00000000000E+00 0. -1.
          2    1    1    2  502    0  0.26947477084E+02 -0.16721893457E+02  0.10825203972E+03  0.11280200506E+03  0.00000000000E+00 0. -1.
         -2    1    1    2    0  502 -0.26947477084E+02  0.16721893457E+02 -0.58438670510E+03  0.58524662266E+03  0.00000000000E+00 0. -1.
</event>
<event>
 4    1  0.5784609E+003  0.2106981E+02  0.7546771E-02  0.1518270E+00
          2   -1    0    0  501    0  0.00000000000E+00  0.00000000000E+00  0.27598900233E+01  0.27598900233E+01  0.00000000000E+00 0.  1.
         -2   -1    0    0    0  501 -0.00000000000E+00 -0.00000000000E+00 -0.17928637767E+03  0.17928637767E+03  0.00000000000E+00 0. -1.
          2    1    1    2  502    0 -0.16972672034E+02 -0.12484592909E+02 -0.11744962941E+03  0.11932456622E+03  0.00000000000E+00 0.  1.
         -2    1    1    2    0  502  0.16972672034E+02  0.12484592909E+02 -0.59076858243E+02  0.62721701475E+02  0.00000000000E+00 0. -1.
</event>
<event>
 4    1  0.5784609E+003  0.4896665E+02  0.7546771E-02  0.1302716E+00
          2   -1    0    0  501    0  0.00000000000E+00  0.00000000000E+00  0.67613888516E+03  0.67613888516E+03  0.00000000000E+00 0.  1.
         -2   -1    0    0    0  501 -0.00000000000E+00 -0.00000000000E+00 -0.45116719228E+01  0.45116719228E+01  0.00000000000E+00 0.  1.
          2    1    1    2  502    0 -0.13185108597E+02  0.47158088420E+02  0.49324538110E+03  0.49566998938E+03  0.00000000000E+00 0.  1.
         -2    1    1    2    0  502  0.13185108597E+02 -0.47158088420E+02  0.17838183213E+03  0.18498056770E+03  0.00000000000E+00 0.  1.
</event>
<event>
 4    1  0.5784609E+003  0.2967660E+02  0.7546771E-02  0.1422428E+00
          2   -1    0    0  501    0  0.00000000000E+00  0.00000000000E+00  0.70337631990E+03  0.70337631990E+03  0.00000000000E+00 0.  1.
         -2   -1    0    0    0  501 -0.00000000000E+00 -0.00000000000E+00 -0.24928940037E+01  0.24928940037E+01  0.00000000000E+00 0. -1.
          2    1    1    2  502    0 -0.27015371864E+02  0.12282933297E+02  0.59943713723E+03  0.60017129409E+03  0.00000000000E+00 0.  1.
         -2    1    1    2    0  502  0.27015371864E+02 -0.12282933297E+02  0.10144628867E+03  0.10569791981E+03  0.00000000000E+00 0. -1.
</event>
<event>
 4    1  0.5784609E+003  0.4697569E+02  0.7546771E-02  0.1311846E+00
          2   -1    0    0  501    0  0.00000000000E+00  0.00000000000E+00  0.10617564195E+04  0.10617564195E+04  0.00000000000E+00 0. -1.
         -2   -1    0    0    0  501 -0.00000000000E+00 -0.00000000000E+00 -0.13507262655E+02  0.13507262655E+02  0.00000000000E+00 0.  1.
          2    1    1    2  502    0 -0.46857671738E+02  0.33277884662E+01  0.10186669571E+04  0.10197495207E+04  0.00000000000E+00 0. -1.
         -2    1    1    2    0  502  0.46857671738E+02 -0.33277884662E+01  0.29582199778E+02  0.55514161441E+02  0.00000000000E+00 0.  1.
</event>
<event>
 4    1  0.5784609E+003  0.2031649E+02  0.7546771E-02  0.1529251E+00
          2   -1    0    0  501    0  0.00000000000E+00  0.00000000000E+00  0.43573690373E+02  0.43573690373E+02  0.00000000000E+00 0.  1.
         -2   -1    0    0    0  501 -0.00000000000E+00 -0.00000000000E+00 -0.93029168031E+02  0.93029168031E+02  0.00000000000E+00 0.  1.
          2    1    1    2  502    0  0.47561225349E+01  0.19751941349E+02  0.40002960057E+02  0.44866431794E+02  0.00000000000E+00 0.  1.
         -2    1    1    2    0  502 -0.47561225349E+01 -0.19751941349E+02 -0.89458437716E+02  0.91736426610E+02  0.00000000000E+00 0.  1.
</event>
<event>
 4    1  0.5784609E+003  0.2054903E+02  0.7546771E-02  0.1525802E+00
          2   -1    0    0  501    0  0.00000000000E+00  0.00000000000E+00  0.19646168171E+02  0.19646168171E+02  0.00000000000E+00 0.  1.
         -2   -1    0    0    0  501 -0.00000000000E+00 -0.00000000000E+00 -0.51876340321E+02  0.51876340321E+02  0.00000000000E+00 0. -1.
          2    1    1    2  502    0  0.20546207326E+02 -0.34078763484E+00  0.11252912746E+02  0.23428419003E+02  0.00000000000E+00 0.  1.
         -2    1    1    2    0  502 -0.20546207326E+02  0.34078763484E+00 -0.43483084896E+02  0.48094089489E+02  0.00000000000E+00 0. -1.
</event>
<event>
 4    1  0.5784609E+003  0.2683857E+02  0.7546771E-02  0.1449236E+00
          2   -1    0    0  501    0  0.00000000000E+00  0.00000000000E+00  0.11457824746E+03  0.11457824746E+03  0.00000000000E+00 0. -1.
         -2   -1    0    0    0  501 -0.00000000000E+00 -0.00000000000E+00 -0.85169853961E+01  0.85169853961E+01  0.00000000000E+00 0. -1.
          2    1    1    2  502    0 -0.22738580000E+02 -0.14257139798E+02  0.84526748076E+02  0.88685287370E+02  0.00000000000E+00 0. -1.
         -2    1    1    2    0  502  0.22738580000E+02  0.14257139798E+02  0.21534513988E+02  0.34409945486E+02  0.00000000000E+00 0. -1.
</event>
<event>
 4    1  0.5784609E+003  0.1157885E+03  0.7546771E-02  0.1138951E+00
          2   -1    0    0  501    0  0.00000000000E+00  0.00000000000E+00  0.60255780002E+03  0.60255780002E+03  0.00000000000E+00 0. -1.
         -2   -1    0    0    0  501 -0.00000000000E+00 -0.00000000000E+00 -0.28637112133E+02  0.28637112133E+02  0.00000000000E+00 0. -1.
          2    1    1    2  502    0 -0.98303407558E+02 -0.61183441859E+02  0.43600541928E+03  0.45111827622E+03  0.00000000000E+00 0. -1.
         -2    1    1    2    0  502  0.98303407558E+02  0.61183441859E+02  0.13791526861E+03  0.18007663594E+03  0.00000000000E+00 0. -1.
</event>
<event>
 4    1  0.5784609E+003  0.2471161E+02  0.7546771E-02  0.1472056E+00
          2   -1    0    0  501    0  0.00000000000E+00  0.00000000000E+00  0.11671352315E+03  0.11671352315E+03  0.00000000000E+00 0.  1.
         -2   -1    0    0    0  501 -0.00000000000E+00 -0.00000000000E+00 -0.87870285406E+01  0.87870285406E+01  0.00000000000E+00 0. -1.
          2    1    1    2  502    0  0.19164184436E+02 -0.15601209978E+02  0.93875519304E+02  0.97073564077E+02  0.00000000000E+00 0.  1.
         -2    1    1    2    0  502 -0.19164184436E+02  0.15601209978E+02  0.14050975308E+02  0.28426987617E+02  0.00000000000E+00 0. -1.
</event>
<event>
 4    1  0.5784609E+003  0.2653233E+02  0.7546771E-02  0.1452363E+00
          2   -1    0    0  501    0  0.00000000000E+00  0.00000000000E+00  0.14963427781E+03  0.14963427781E+03  0.00000000000E+00 0.  1.
         -2   -1    0    0    0  501 -0.00000000000E+00 -0.00000000000E+00 -0.71050677839E+02  0.71050677839E+02  0.00000000000E+00 0. -1.
          2    1    1    2  502    0  0.73044676043E+01  0.25507043187E+02  0.14591859467E+03  0.14831116199E+03  0.00000000000E+00 0.  1.
         -2    1    1    2    0  502 -0.73044676043E+01 -0.25507043187E+02 -0.67334994695E+02  0.72373793667E+02  0.00000000000E+00 0. -1.
</event>
<event>
 4    1  0.5784609E+003  0.2069442E+02  0.7546771E-02  0.1523673E+00
          2   -1    0    0  501    0  0.00000000000E+00  0.00000000000E+00  0.10180195423E+04  0.10180195423E+04  0.00000000000E+00 0.  1.
         -2   -1    0    0    0  501 -0.00000000000E+00 -0.00000000000E+00 -0.34023032631E+01  0.34023032631E+01  0.00000000000E+00 0.  1.
          2    1    1    2  502    0  0.14343902673E+02  0.14916823315E+02  0.98540462221E+03  0.98562189943E+03  0.00000000000E+00 0.  1.
         -2    1    1    2    0  502 -0.14343902673E+02 -0.14916823315E+02  0.29212616855E+02  0.35799946162E+02  0.00000000000E+00 0.  1.
</event>
<event>
 4    1  0.5784609E+003  0.2168047E+02  0.7546771E-02  0.1509767E+00
          2   -1    0    0  501    0  0.00000000000E+00  0.00000000000E+00  0.26057710743E+03  0.26057710743E+03  0.00000000000E+00 0.  1.
         -2   -1    0    0    0  501 -0.00000000000E+00 -0.00000000000E+00 -0.28662367258E+02  0.28662367258E+02  0.00000000000E+00 0. -1.
          2    1    1    2  502    0  0.21479505984E+02  0.29450665230E+01  0.25595237463E+03  0.25686895623E+03  0.00000000000E+00 0.  1.
         -2    1    1    2    0  502 -0.21479505984E+02 -0.29450665230E+01 -0.24037634467E+02  0.32370518453E+02  0.00000000000E+00 0. -1.
</event>
<event>
 4    1  0.5784609E+003  0.2237391E+02  0.7546771E-02  0.1500513E+00
          2   -1    0    0  501    0  0.00000000000E+00  0.00000000000E+00  0.23957578176E+02  0.23957578176E+02  0.00000000000E+00 0.  1.
         -2   -1    0    0    0  501 -0.00000000000E+00 -0.00000000000E+00 -0.41253895239E+02  0.41253895239E+02  0.00000000000E+00 0.  1.
          2    1    1    2  502    0  0.22010753464E+02  0.40148208319E+01  0.14257317755E+02  0.26530419596E+02  0.00000000000E+00 0.  1.
         -2    1    1    2    0  502 -0.22010753464E+02 -0.40148208319E+01 -0.31553634818E+02  0.38681053819E+02  0.00000000000E+00 0.  1.
</event>
<event>
 4    1  0.5784609E+003  0.3671616E+02  0.7546771E-02  0.1368883E+00
          2   -1    0    0  501    0  0.00000000000E+00  0.00000000000E+00  0.10500333671E+04  0.10500333671E+04  0.00000000000E+00 0.  1.
         -2   -1    0    0    0  501 -0.00000000000E+00 -0.00000000000E+00 -0.71216569873E+01  0.71216569873E+01  0.00000000000E+00 0. -1.
          2    1    1    2  502    0  0.36640279788E+02  0.23592710911E+01  0.10000235115E+04  0.10006973068E+04  0.00000000000E+00 0.  1.
         -2    1    1    2    0  502 -0.36640279788E+02 -0.23592710911E+01  0.42888198642E+02  0.56457717327E+02  0.00000000000E+00 0. -1.
</event>
<event>
 4    1  0.5784609E+003  0.2013687E+02  0.7546771E-02  0.1531954E+00
          2   -1    0    0  501    0  0.00000000000E+00  0.00000000000E+00  0.63266759125E+03  0.63266759125E+03  0.00000000000E+00 0. -1.
         -2   -1    0    0    0  501 -0.00000000000E+00 -0.00000000000E+00 -0.44430674114E+02  0.44430674114E+02  0.00000000000E+00 0.  1.
          2    1    1    2  502    0 -0.68041809197E+01  0.18952479899E+02  0.63021688235E+03  0.63053850966E+03  0.00000000000E+00 0. -1.
         -2    1    1    2    0  502  0.68041809197E+01 -0.18952479899E+02 -0.41979965209E+02  0.46559755704E+02  0.00000000000E+00 0.  1.
</event>
<event>
 4    1  0.5784609E+003  0.2337014E+02  0.7546771E-02  0.1487902E+00
          2   -1    0    0  501    0  0.00000000000E+00  0.00000000000E+00  0.61805412217E+03  0.61805412217E+03  0.00000000000E+00 0. -1.
         -2   -1    0    0    0  501 -0.00000000000E+00 -0.00000000000E+00 -0.84280386483E+01  0.84280386483E+01  0.00000000000E+00 0.  1.
          2    1    1    2  502    0  0.16361375206E+02  0.16687387548E+02  0.60117779401E+03  0.60163186711E+03  0.00000000000E+00 0. -1.
         -2    1    1    2    0  502 -0.16361375206E+02 -0.16687387548E+02  0.84482895026E+01  0.24850293707E+02  0.00000000000E+00 0.  1.
</event>
<event>
 4    1  0.5784609E+003  0.3188814E+02  0.7546771E-02  0.1403868E+00
          2   -1    0    0  501    0  0.00000000000E+00  0.00000000000E+00  0.38091170513E+03  0.38091170513E+03  0.00000000000E+00 0.  1.
         -2   -1    0    0    0  501 -0.00000000000E+00 -0.00000000000E+00 -0.37188279979E+01  0.37188279979E+01  0.00000000000E+00 0.  1.
          2    1    1    2  502    0 -0.10083003759E+02 -0.30252046854E+02  0.29075180377E+03  0.29249523877E+03  0.00000000000E+00 0.  1.
         -2    1    1    2    0  502  0.10083003759E+02  0.30252046854E+02  0.86441073359E+02  0.92135294362E+02  0.00000000000E+00 0.  1.
</event>
<event>
 4    1  0.5784609E+003  0.4710615E+02  0.7546771E-02  0.1311231E+00
          2   -1    0    0  501    0  0.00000000000E+00  0.00000000000E+00  0.10299227780E+04  0.10299227780E+04  0.00000000000E+00 0. -1.
         -2   -1    0    0    0  501 -0.00000000000E+00 -0.00000000000E+00 -0.46525312466E+01  0.46525312466E+01  0.00000000000E+00 0. -1.
          2    1    1    2  502    0  0.22287044836E+02  0.41500326884E+02  0.89167476786E+03  0.89291818277E+03  0.00000000000E+00 0. -1.
         -2    1    1    2    0  502 -0.22287044836E+02 -0.41500326884E+02  0.13359547893E+03  0.14165712651E+03  0.00000000000E+00 0. -1.
</event>
<event>
 4    1  0.5784609E+003  0.2454700E+02  0.7546771E-02  0.1473935E+00
          2   -1    0    0  501    0  0.00000000000E+00  0.00000000000E+00  0.26608124678E+01  0.26608124678E+01  0.00000000000E+00 0.  1.
         -2   -1    0    0    0  501 -0.00000000000E+00 -0.00000000000E+00 -0.27321062911E+03  0.27321062911E+03  0.00000000000E+00 0.  1.
          2    1    1    2  502    0 -0.10904210319E+02 -0.21992105044E+02 -0.19233658874E+03  0.19389666799E+03  0.00000000000E+00 0.  1.
         -2    1    1    2    0  502  0.10904210319E+02  0.21992105044E+02 -0.78213227897E+02  0.81974773589E+02  0.00000000000E+00 0.  1.
</event>
<event>
 4    1  0.5784609E+003  0.2710262E+02  0.7546771E-02  0.1446580E+00
          2   -1    0    0  501    0  0.00000000000E+00  0.00000000000E+00  0.22530625521E+04  0.22530625521E+04  0.00000000000E+00 0. -1.
         -2   -1    0    0    0  501 -0.00000000000E+00 -0.00000000000E+00 -0.40530758193E+00  0.40530758193E+00  0.00000000000E+00 0. -1.
          2    1    1    2  502    0 -0.17827558386E+02  0.20413969336E+02  0.16246634356E+04  0.16248894826E+04  0.00000000000E+00 0. -1.
         -2    1    1    2    0  502  0.17827558386E+02 -0.20413969336E+02  0.62799380901E+03  0.62857837708E+03  0.00000000000E+00 0. -1.
</event>
<event>
 4    1  0.5784609E+003  0.2148170E+02  0.7546771E-02  0.1512497E+00
          2   -1    0    0  501    0  0.00000000000E+00  0.00000000000E+00  0.45411971613E+01  0.45411971613E+01  0.00000000000E+00 0. -1.
         -2   -1    0    0    0  501 -0.00000000000E+00 -0.00000000000E+00 -0.10198668698E+03  0.10198668698E+03  0.00000000000E+00 0. -1.
          2    1    1    2  502    0  0.14619391197E+02  0.15739661923E+02 -0.45516586953E+02  0.50331135933E+02  0.00000000000E+00 0. -1.
         -2    1    1    2    0  502 -0.14619391197E+02 -0.15739661923E+02 -0.51928902869E+02  0.56196748212E+02  0.00000000000E+00 0. -1.
</event>
<event>
 4    1  0.5784609E+003  0.3731220E+02  0.7546771E-02  0.1364999E+00
          2   -1    0    0  501    0  0.00000000000E+00  0.00000000000E+00  0.33537840889E+03  0.33537840889E+03  0.00000000000E+00 0.  1.
         -2   -1    0    0    0  501 -0.00000000000E+00 -0.00000000000E+00 -0.31176139012E+02  0.31176139012E+02  0.00000000000E+00 0. -1.
          2    1    1    2  502    0 -0.16008607065E+02  0.33703483489E+02  0.32274094283E+03  0.32489062233E+03  0.00000000000E+00 0.  1.
         -2    1    1    2    0  502  0.16008607065E+02 -0.33703483489E+02 -0.18538672951E+02  0.41663925574E+02  0.00000000000E+00 0. -1.
</event>
<event>
 4    1  0.5784609E+003  0.5831699E+02  0.7546771E-02  0.1265661E+00
          2   -1    0    0  501    0  0.00000000000E+00  0.00000000000E+00  0.73647975263E+03  0.73647975263E+03  0.00000000000E+00 0. -1.
         -2   -1    0    0    0  501 -0.00000000000E+00 -0.00000000000E+00 -0.51735321369E+01  0.51735321369E+01  0.00000000000E+00 0.  1.
          2    1    1    2  502    0 -0.57766881926E+02  0.79911718417E+01  0.48719719784E+03  0.49067502592E+03  0.00000000000E+00 0. -1.
         -2    1    1    2    0  502  0.57766881926E+02 -0.79911718417E+01  0.24410902265E+03  0.25097825884E+03  0.00000000000E+00 0.  1.
</event>
<event>
 4    1  0.5784609E+003  0.2098101E+02  0.7546771E-02  0.1519536E+00
          2   -1    0    0  501    0  0.00000000000E+00  0.00000000000E+00  0.20182003152E+03  0.20182003152E+03  0.00000000000E+00 0. -1.
         -2   -1    0    0    0  501 -0.00000000000E+00 -0.00000000000E+00 -0.25920516286E+01  0.25920516286E+01  0.00000000000E+00 0.  1.
          2    1    1    2  502    0  0.20974869790E+02  0.50764016194E+00  0.14030660122E+03  0.14186664586E+03  0.00000000000E+00 0. -1.
         -2    1    1    2    0  502 -0.20974869790E+02 -0.50764016194E+00  0.58921378670E+02  0.62545437288E+02  0.00000000000E+00 0.  1.
</event>
<event>
 4    1  0.5784609E+003  0.2205234E+02  0.7546771E-02  0.1504753E+00
          2   -1    0    0  501    0  0.00000000000E+00  0.00000000000E+00  0.14612316596E+02  0.14612316596E+02  0.00000000000E+00 0. -1.
         -2   -1    0    0    0  501 -0.00000000000E+00 -0.00000000000E+00 -0.45281616922E+02  0.45281616922E+02  0.00000000000E+00 0.  1.
          2    1    1    2  502    0  0.16351202574E+02 -0.14796758908E+02  0.82419946109E-01  0.22052498563E+02  0.00000000000E+00 0. -1.
         -2    1    1    2    0  502 -0.16351202574E+02  0.14796758908E+02 -0.30751720271E+02  0.37841434955E+02  0.00000000000E+00 0.  1.
</event>
<event>
 4    1  0.5784609E+003  0.2307980E+02  0.7546771E-02  0.1491499E+00
          2   -1    0    0  501    0  0.00000000000E+00  0.00000000000E+00  0.84920665738E+02  0.84920665738E+02  0.00000000000E+00 0. -1.
         -2   -1    0    0    0  501 -0.00000000000E+00 -0.00000000000E+00 -0.11665287384E+02  0.11665287384E+02  0.00000000000E+00 0. -1.
          2    1    1    2  502    0 -0.20631628608E+02  0.10344705205E+02  0.69462698306E+02  0.73196608396E+02  0.00000000000E+00 0. -1.
         -2    1    1    2    0  502  0.20631628608E+02 -0.10344705205E+02  0.37926800484E+01  0.23389344726E+02  0.00000000000E+00 0. -1.
</event>
<event>
 4    1  0.5784609E+003  0.4519637E+02  0.7546771E-02  0.1320460E+00
          2   -1    0    0  501    0  0.00000000000E+00  0.00000000000E+00  0.37818249698E+02  0.37818249698E+02  0.00000000000E+00 0. -1.
         -2   -1    0    0    0  501 -0.00000000000E+00 -0.00000000000E+00 -0.21066483671E+03  0.21066483671E+03  0.00000000000E+00 0.  1.
          2    1    1    2  502    0 -0.30610871715E+02  0.33251866187E+02  0.20713162501E+02  0.49716668964E+02  0.00000000000E+00 0. -1.
         -2    1    1    2    0  502  0.30610871715E+02 -0.33251866187E+02 -0.19355974951E+03  0.19876641744E+03  0.00000000000E+00 0.  1.
</event>
<event>
 4    1  0.5784609E+003  0.2342850E+02  0.7546771E-02  0.1487186E+00
          2   -1    0    0  501    0  0.00000000000E+00  0.00000000000E+00  0.10743694551E+04  0.10743694551E+04  0.00000000000E+00 0.  1.
         -2   -1    0    0    0  501 -0.00000000000E+00 -0.00000000000E+00 -0.28281219263E+01  0.28281219263E+01  0.00000000000E+00 0.  1.
          2    1    1    2  502    0 -0.11624617873E+01 -0.23399647626E+02  0.10232993458E+04  0.10235675092E+04  0.00000000000E+00 0.  1.
         -2    1    1    2    0  502  0.11624617873E+01  0.23399647626E+02  0.48241987356E+02  0.53630067784E+02  0.00000000000E+00 0.  1.
</event>
<event>
 4    1  0.5784609E+003  0.2684338E+02  0.7546771E-02  0.1449188E+00
          2   -1    0    0  501    0  0.00000000000E+00  0.00000000000E+00  0.27766547179E+03  0.27766547179E+03  0.00000000000E+00 0.  1.
         -2   -1    0    0    0  501 -0.00000000000E+00 -0.00000000000E+00 -0.27705743894E+01  0.27705743894E+01  0.00000000000E+00 0. -1.
          2    1    1    2  502    0  0.18905105562E+02  0.19056861268E+02  0.17273632116E+03  0.17480962109E+03  0.00000000000E+00 0.  1.
         -2    1    1    2    0  502 -0.18905105562E+02 -0.19056861268E+02  0.10215857625E+03  0.10562642509E+03  0.00000000000E+00 0. -1.
</event>
<event>
 4    1  0.5784609E+003  0.2013984E+02  0.7546771E-02  0.1531909E+00
          2   -1    0    0  501    0  0.00000000000E+00  0.00000000000E+00  0.19831594098E+03  0.19831594098E+03  0.00000000000E+00 0. -1.
         -2   -1    0    0    0  501 -0.00000000000E+00 -0.00000000000E+00 -0.25037123301E+02  0.25037123301E+02  0.00000000000E+00 0.  1.
          2    1    1    2  502    0 -0.64210360263E+01 -0.19088833833E+02  0.19365733287E+03  0.19470176131E+03  0.00000000000E+00 0. -1.
         -2    1    1    2    0  502  0.64210360263E+01  0.19088833833E+02 -0.20378515191E+02  0.28651302975E+02  0.00000000000E+00 0.  1.
</event>
<event>
 4    1  0.5784609E+003  0.4877852E+02  0.7546771E-02  0.1303557E+00
          2   -1    0    0  501    0  0.00000000000E+00  0.00000000000E+00  0.41978637838E+02  0.41978637838E+02  0.00000000000E+00 0.  1.
         -2   -1    0    0    0  501 -0.00000000000E+00 -0.00000000000E+00 -0.46831349119E+03  0.46831349119E+03  0.00000000000E+00 0. -1.
          2    1    1    2  502    0  0.19166379251E+01 -0.48740848943E+02  0.26040715273E+02  0.55294327996E+02  0.00000000000E+00 0.  1.
         -2    1    1    2    0  502 -0.19166379251E+01  0.48740848943E+02 -0.45237556862E+03  0.45499780103E+03  0.00000000000E+00 0. -1.
</event>
<event>
 4    1  0.5784609E+003  0.2522913E+02  0.7546771E-02  0.1466256E+00
          2   -1    0    0  501    0  0.00000000000E+00  0.00000000000E+00  0.10542924359E+04  0.10542924359E+04  0.00000000000E+00 0.  1.
         -2   -1    0    0    0  501 -0.00000000000E+00 -0.00000000000E+00 -0.10836278572E+02  0.10836278572E+02  0.00000000000E+00 0.  1.
          2    1    1    2  502    0 -0.23834616781E+02 -0.82716318092E+01  0.10392442277E+04  0.10395504190E+04  0.00000000000E+00 0.  1.
         -2    1    1    2    0  502  0.23834616781E+02  0.82716318092E+01  0.42119296789E+01  0.25578295516E+02  0.00000000000E+00 0.  1.
</event>
<event>
 4    1  0.5784609E+003  0.2161624E+02  0.7546771E-02  0.1510646E+00
          2   -1    0    0  501    0  0.00000000000E+00  0.00000000000E+00  0.56213454508E+01  0.56213454508E+01  0.00000000000E+00 0. -1.
         -2   -1    0    0    0  501 -0.00000000000E+00 -0.00000000000E+00 -0.91903744746E+02  0.91903744746E+02  0.00000000000E+00 0. -1.
          2    1    1    2  502    0 -0.14533688915E+02  0.16001047862E+02 -0.28068472969E+02  0.35427402120E+02  0.00000000000E+00 0. -1.
         -2    1    1    2    0  502  0.14533688915E+02 -0.16001047862E+02 -0.58213926326E+02  0.62097688076E+02  0.00000000000E+00 0. -1.
</event>
<event>
 4    1  0.5784609E+003  0.3454661E+02  0.7546771E-02  0.1383779E+00
          2   -1    0    0  501    0  0.00000000000E+00  0.00000000000E+00  0.11544053250E+04  0.11544053250E+04  0.00000000000E+00 0. -1.
         -2   -1    0    0    0  501 -0.00000000000E+00 -0.00000000000E+00 -0.27704836893E+02  0.27704836893E+02  0.00000000000E+00 0. -1.
          2    1    1    2  502    0 -0.29518129960E+02  0.17948495056E+02  0.11432725241E+04  0.11437943578E+04  0.00000000000E+00 0. -1.
         -2    1    1    2    0  502  0.29518129960E+02 -0.17948495056E+02 -0.16572035980E+02  0.38315804150E+02  0.00000000000E+00 0. -1.
</event>
<event>
 4    1  0.5784609E+003  0.2192671E+02  0.7546771E-02  0.1506434E+00
          2   -1    0    0  501    0  0.00000000000E+00  0.00000000000E+00  0.61501954412E+03  0.61501954412E+03  0.00000000000E+00 0. -1.
         -2   -1    0    0    0  501 -0.00000000000E+00 -0.00000000000E+00 -0.11255920929E+02  0.11255920929E+02  0.00000000000E+00 0. -1.
          2    1    1    2  502    0 -0.12490610284E+02 -0.18021249926E+02  0.60395005911E+03  0.60434795829E+03  0.00000000000E+00 0. -1.
         -2    1    1    2    0  502  0.12490610284E+02  0.18021249926E+02 -0.18643591945E+00  0.21927506756E+02  0.00000000000E+00 0. -1.
</event>
<event>
 4    1  0.5784609E+003  0.2194152E+02  0.7546771E-02  0.1506235E+00
          2   -1    0    0  501    0  0.00000000000E+00  0.00000000000E+00  0.29771060607E+03  0.29771060607E+03  0.00000000000E+00 0. -1.
         -2   -1    0    0    0  501 -0.00000000000E+00 -0.00000000000E+00 -0.37385884295E+01  0.37385884295E+01  0.00000000000E+00 0. -1.
          2    1    1    2  502    0  0.20366446920E+02 -0.81632243283E+01  0.26052623454E+03  0.26144855952E+03  0.00000000000E+00 0. -1.
         -2    1    1    2    0  502 -0.20366446920E+02  0.81632243283E+01  0.33445783103E+02  0.40000634981E+02  0.00000000000E+00 0. -1.
</event>
<event>
 4    1  0.5784609E+003  0.2758510E+02  0.7546771E-02  0.1441818E+00
          2   -1    0    0  501    0  0.00000000000E+00  0.00000000000E+00  0.13592363238E+02  0.13592363238E+02  0.00000000000E+00 0. -1.
         -2   -1    0    0    0  501 -0.00000000000E+00 -0.00000000000E+00 -0.68486679037E+02  0.68486679037E+02  0.00000000000E+00 0. -1.
          2    1    1    2  502    0 -0.23391032646E+02 -0.14621810496E+02 -0.99114768479E+01  0.29311689200E+02  0.00000000000E+00 0. -1.
         -2    1    1    2    0  502  0.23391032646E+02  0.14621810496E+02 -0.44982838951E+02  0.52767353075E+02  0.00000000000E+00 0. -1.
</event>
<event>
 4    1  0.5784609E+003  0.3607510E+02  0.7546771E-02  0.1373158E+00
          2   -1    0    0  501    0  0.00000000000E+00  0.00000000000E+00  0.28827353750E+03  0.28827353750E+03  0.00000000000E+00 0. -1.
         -2   -1    0    0    0  501 -0.00000000000E+00 -0.00000000000E+00 -0.44503005553E+02  0.44503005553E+02  0.00000000000E+00 0. -1.
          2    1    1    2  502    0  0.25508473558E+02  0.25509425286E+02  0.27960846829E+03  0.28192606929E+03  0.00000000000E+00 0. -1.
         -2    1    1    2    0  502 -0.25508473558E+02 -0.25509425286E+02 -0.35837936341E+02  0.50850473773E+02  0.00000000000E+00 0. -1.
</event>
<event>
 4    1  0.5784609E+003  0.2596081E+02  0.7546771E-02  0.1458336E+00
          2   -1    0    0  501    0  0.00000000000E+00  0.00000000000E+00  0.36529012445E+03  0.36529012445E+03  0.00000000000E+00 0.  1.
         -2   -1    0    0    0  501 -0.00000000000E+00 -0.00000000000E+00 -0.26032797109E+01  0.26032797109E+01  0.00000000000E+00 0.  1.
          2    1    1    2  502    0  0.23728845623E+02 -0.10531176961E+02  0.28061925656E+03  0.28181754905E+03  0.00000000000E+00 0.  1.
         -2    1    1    2    0  502 -0.23728845623E+02  0.10531176961E+02  0.82067588181E+02  0.86075855108E+02  0.00000000000E+00 0.  1.
</event>
<event>
 4    1  0.5784609E+003  0.2210673E+02  0.7546771E-02  0.1504030E+00
          2   -1    0    0  501    0  0.00000000000E+00  0.00000000000E+00  0.32517086663E+03  0.32517086663E+03  0.00000000000E+00 0. -1.
         -2   -1    0    0    0  501 -0.00000000000E+00 -0.00000000000E+00 -0.22139663976E+01  0.22139663976E+01  0.00000000000E+00 0.  1.
          2    1    1    2  502    0  0.21334959647E+02  0.57902114082E+01  0.68712020573E+02  0.72180667928E+02  0.00000000000E+00 0.  1.
         -2    1    1    2    0  502 -0.21334959647E+02 -0.57902114082E+01  0.25424487966E+03  0.25520416510E+03  0.00000000000E+00 0. -1.
</event>
<event>
 4    1  0.5784609E+003  0.2194387E+02  0.7546771E-02  0.1506204E+00
          2   -1    0    0  501    0  0.00000000000E+00  0.00000000000E+00  0.55078856694E+03  0.55078856694E+03  0.00000000000E+00 0.  1.
         -2   -1    0    0    0  501 -0.00000000000E+00 -0.00000000000E+00 -0.23637645442E+02  0.23637645442E+02  0.00000000000E+00 0.  1.
          2    1    1    2  502    0  0.20114134606E+02  0.87724052770E+01  0.54542709284E+03  0.54586834229E+03  0.00000000000E+00 0.  1.
         -2    1    1    2    0  502 -0.20114134606E+02 -0.87724052770E+01 -0.18276171345E+02  0.28557870094E+02  0.00000000000E+00 0.  1.
</event>
<event>
 4    1  0.5784609E+003  0.3397655E+02  0.7546771E-02  0.1387905E+00
          2   -1    0    0  501    0  0.00000000000E+00  0.00000000000E+00  0.10389043520E+04  0.10389043520E+04  0.00000000000E+00 0. -1.
         -2   -1    0    0    0  501 -0.00000000000E+00 -0.00000000000E+00 -0.15128251922E+01  0.15128251922E+01  0.00000000000E+00 0.  1.
          2    1    1    2  502    0  0.32389243920E+02  0.10263681933E+02  0.78673984685E+03  0.78747316964E+03  0.00000000000E+00 0. -1.
         -2    1    1    2    0  502 -0.32389243920E+02 -0.10263681933E+02  0.25065167996E+03  0.25294400755E+03  0.00000000000E+00 0.  1.
</event>
<event>
 4    1  0.5784609E+003  0.2493464E+02  0.7546771E-02  0.1469536E+00
          2   -1    0    0  501    0  0.00000000000E+00  0.00000000000E+00  0.19048463956E+04  0.19048463956E+04  0.00000000000E+00 0.  1.
         -2   -1    0    0    0  501 -0.00000000000E+00 -0.00000000000E+00 -0.43998153841E+00  0.43998153841E+00  0.00000000000E+00 0. -1.
          2    1    1    2  502    0 -0.17525461243E+02 -0.17736809889E+02  0.14362335418E+04  0.14364499723E+04  0.00000000000E+00 0.  1.
         -2    1    1    2    0  502  0.17525461243E+02  0.17736809889E+02  0.46817287223E+03  0.46883640484E+03  0.00000000000E+00 0. -1.
</event>
<event>
 4    1  0.5784609E+003  0.2354787E+03  0.7546771E-02  0.1032484E+00
          2   -1    0    0  501    0  0.00000000000E+00  0.00000000000E+00  0.64334722385E+02  0.64334722385E+02  0.00000000000E+00 0. -1.
         -2   -1    0    0    0  501 -0.00000000000E+00 -0.00000000000E+00 -0.12001803287E+04  0.12001803287E+04  0.00000000000E+00 0.  1.
          2    1    1    2  502    0 -0.17977128923E+03 -0.15209367220E+03 -0.23225623675E+03  0.33074636969E+03  0.00000000000E+00 0. -1.
         -2    1    1    2    0  502  0.17977128923E+03  0.15209367220E+03 -0.90358936955E+03  0.93376868137E+03  0.00000000000E+00 0.  1.
</event>
<event>
 4    1  0.5784609E+003  0.2196516E+02  0.7546771E-02  0.1505918E+00
          2   -1    0    0  501    0  0.00000000000E+00  0.00000000000E+00  0.29474190747E+01  0.29474190747E+01  0.00000000000E+00 0. -1.
         -2   -1    0    0    0  501 -0.00000000000E+00 -0.00000000000E+00 -0.10437800942E+04  0.10437800942E+04  0.00000000000E+00 0.  1.
          2    1    1    2  502    0  0.39221503004E+01 -0.21612145841E+02 -0.39840114437E+02  0.45493986737E+02  0.00000000000E+00 0. -1.
         -2    1    1    2    0  502 -0.39221503004E+01  0.21612145841E+02 -0.10009925607E+04  0.10012335265E+04  0.00000000000E+00 0.  1.
</event>
<event>
 4    1  0.5784609E+003  0.2142975E+02  0.7546771E-02  0.1513217E+00
          2   -1    0    0  501    0  0.00000000000E+00  0.00000000000E+00  0.44982083433E+03  0.44982083433E+03  0.00000000000E+00 0.  1.
         -2   -1    0    0    0  501 -0.00000000000E+00 -0.00000000000E+00 -0.52793179801E+01  0.52793179801E+01  0.00000000000E+00 0. -1.
          2    1    1    2  502    0 -0.30926975161E+01  0.21205408896E+02  0.42663779670E+03  0.42717565909E+03  0.00000000000E+00 0.  1.
         -2    1    1    2    0  502  0.30926975161E+01 -0.21205408896E+02  0.17903719648E+02  0.27924493220E+02  0.00000000000E+00 0. -1.
</event>
<event>
 4    1  0.5784609E+003  0.3157491E+02  0.7546771E-02  0.1406387E+00
          2   -1    0    0  501    0  0.00000000000E+00  0.00000000000E+00  0.10980876198E+02  0.10980876198E+02  0.00000000000E+00 0. -1.
         -2   -1    0    0    0  501 -0.00000000000E+00 -0.00000000000E+00 -0.22137204100E+03  0.22137204100E+03  0.00000000000E+00 0.  1.
          2    1    1    2  502    0  0.11474859611E+02  0.29416029674E+02 -0.15968801226E+02  0.35383298567E+02  0.00000000000E+00 0. -1.
         -2    1    1    2    0  502 -0.11474859611E+02 -0.29416029674E+02 -0.19442236357E+03  0.19696961863E+03  0.00000000000E+00 0.  1.
</event>
<event>
 4    1  0.5784609E+003  0.2923847E+02  0.7546771E-02  0.1426332E+00
          2   -1    0    0  501    0  0.00000000000E+00  0.00000000000E+00  0.14165449922E+03  0.14165449922E+03  0.00000000000E+00 0.  1.
         -2   -1    0    0    0  501 -0.00000000000E+00 -0.00000000000E+00 -0.16603241600E+02  0.16603241600E+02  0.00000000000E+00 0.  1.
          2    1    1    2  502    0 -0.27305042187E+02  0.10455754651E+02  0.12565615659E+03  0.12901301417E+03  0.00000000000E+00 0.  1.
         -2    1    1    2    0  502  0.27305042187E+02 -0.10455754651E+02 -0.60489897697E+00  0.29244726651E+02  0.00000000000E+00 0.  1.
</event>
<event>
 4    1  0.5784609E+003  0.2228547E+02  0.7546771E-02  0.1501671E+00
          2   -1    0    0  501    0  0.00000000000E+00  0.00000000000E+00  0.27140461038E+03  0.27140461038E+03  0.00000000000E+00 0.  1.
         -2   -1    0    0    0  501 -0.00000000000E+00 -0.00000000000E+00 -0.59712086115E+02  0.59712086115E+02  0.00000000000E+00 0.  1.
          2    1    1    2  502    0 -0.19215861727E+02 -0.11286845700E+02  0.26884807715E+03  0.26977014441E+03  0.00000000000E+00 0.  1.
         -2    1    1    2    0  502  0.19215861727E+02  0.11286845700E+02 -0.57155552882E+02  0.61346552087E+02  0.00000000000E+00 0.  1.
</event>
<event>
 4    1  0.5784609E+003  0.2184829E+02  0.7546771E-02  0.1507490E+00
          2   -1    0    0  501    0  0.00000000000E+00  0.00000000000E+00  0.14653351377E+04  0.14653351377E+04  0.00000000000E+00 0.  1.
         -2   -1    0    0    0  501 -0.00000000000E+00 -0.00000000000E+00 -0.63817493446E+00  0.63817493446E+00  0.00000000000E+00 0. -1.
          2    1    1    2  502    0 -0.17299715614E+02  0.13344199596E+02  0.12452003858E+04  0.12453920462E+04  0.00000000000E+00 0.  1.
         -2    1    1    2    0  502  0.17299715614E+02 -0.13344199596E+02  0.21949657695E+03  0.22058126647E+03  0.00000000000E+00 0. -1.
</event>
<event>
 4    1  0.5784609E+003  0.2717878E+02  0.7546771E-02  0.1445820E+00
          2   -1    0    0  501    0  0.00000000000E+00  0.00000000000E+00  0.14076538669E+03  0.14076538669E+03  0.00000000000E+00 0.  1.
         -2   -1    0    0    0  501 -0.00000000000E+00 -0.00000000000E+00 -0.53849530122E+01  0.53849530122E+01  0.00000000000E+00 0. -1.
          2    1    1    2  502    0  0.26241411397E+02  0.70763182672E+01  0.79359282582E+02  0.83884335155E+02  0.00000000000E+00 0.  1.
         -2    1    1    2    0  502 -0.26241411397E+02 -0.70763182672E+01  0.56021151099E+02  0.62266004551E+02  0.00000000000E+00 0. -1.
</event>
<event>
 4    1  0.5784609E+003  0.2092840E+02  0.7546771E-02  0.1520289E+00
          2   -1    0    0  501    0  0.00000000000E+00  0.00000000000E+00  0.12944005604E+02  0.12944005604E+02  0.00000000000E+00 0.  1.
         -2   -1    0    0    0  501 -0.00000000000E+00 -0.00000000000E+00 -0.71127774278E+02  0.71127774278E+02  0.00000000000E+00 0. -1.
          2    1    1    2  502    0 -0.15105190362E+02 -0.14485556403E+02  0.13447080056E+01  0.20971560738E+02  0.00000000000E+00 0.  1.
         -2    1    1    2    0  502  0.15105190362E+02  0.14485556403E+02 -0.59528476680E+02  0.63100219144E+02  0.00000000000E+00 0. -1.
</event>
<event>
 4    1  0.5784609E+003  0.4939646E+02  0.7546771E-02  0.1300811E+00
          2   -1    0    0  501    0  0.00000000000E+00  0.00000000000E+00  0.18284579012E+04  0.18284579012E+04  0.00000000000E+00 0. -1.
         -2   -1    0    0    0  501 -0.00000000000E+00 -0.00000000000E+00 -0.11072887099E+02  0.11072887099E+02  0.00000000000E+00 0. -1.
          2    1    1    2  502    0  0.49395278537E+02  0.34223203334E+00  0.17712557675E+04  0.17719444135E+04  0.00000000000E+00 0. -1.
         -2    1    1    2    0  502 -0.49395278537E+02 -0.34223203334E+00  0.46129246581E+02  0.67586374771E+02  0.00000000000E+00 0. -1.
</event>
<event>
 4    1  0.5784609E+003  0.2046039E+02  0.7546771E-02  0.1527110E+00
          2   -1    0    0  501    0  0.00000000000E+00  0.00000000000E+00  0.59439784408E+03  0.59439784408E+03  0.00000000000E+00 0.  1.
         -2   -1    0    0    0  501 -0.00000000000E+00 -0.00000000000E+00 -0.95666315542E+00  0.95666315542E+00  0.00000000000E+00 0. -1.
          2    1    1    2  502    0  0.17282491029E+02 -0.10951853869E+02  0.44961406404E+03  0.45007936431E+03  0.00000000000E+00 0. -1.
         -2    1    1    2    0  502 -0.17282491029E+02  0.10951853869E+02  0.14382711689E+03  0.14527514293E+03  0.00000000000E+00 0.  1.
</event>
<event>
 4    1  0.5784609E+003  0.2058773E+02  0.7546771E-02  0.1525233E+00
          2   -1    0    0  501    0  0.00000000000E+00  0.00000000000E+00  0.24330087773E+03  0.24330087773E+03  0.00000000000E+00 0. -1.
         -2   -1    0    0    0  501 -0.00000000000E+00 -0.00000000000E+00 -0.69467217631E+02  0.69467217631E+02  0.00000000000E+00 0. -1.
          2    1    1    2  502    0 -0.95548633421E+01 -0.18236203554E+02  0.24132752606E+03  0.24220410684E+03  0.00000000000E+00 0. -1.
         -2    1    1    2    0  502  0.95548633421E+01  0.18236203554E+02 -0.67493865964E+02  0.70563988524E+02  0.00000000000E+00 0. -1.
</event>
<event>
 4    1  0.5784609E+003  0.2551540E+02  0.7546771E-02  0.1463119E+00
          2   -1    0    0  501    0  0.00000000000E+00  0.00000000000E+00  0.32230770443E+02  0.32230770443E+02  0.00000000000E+00 0. -1.
         -2   -1    0    0    0  501 -0.00000000000E+00 -0.00000000000E+00 -0.20391995655E+02  0.20391995655E+02  0.00000000000E+00 0. -1.
          2    1    1    2  502    0 -0.93284106869E+01 -0.23749026289E+02  0.84778101740E+01  0.26886962658E+02  0.00000000000E+00 0. -1.
         -2    1    1    2    0  502  0.93284106869E+01  0.23749026289E+02  0.33609646141E+01  0.25735803441E+02  0.00000000000E+00 0. -1.
</event>
<event>
 4    1  0.5784609E+003  0.2866216E+02  0.7546771E-02  0.1431590E+00
          2   -1    0    0  501    0  0.00000000000E+00  0.00000000000E+00  0.34467002420E+03  0.34467002420E+03  0.00000000000E+00 0.  1.
         -2   -1    0    0    0  501 -0.00000000000E+00 -0.00000000000E+00 -0.43758550573E+01  0.43758550573E+01  0.00000000000E+00 0.  1.
          2    1    1    2  502    0 -0.13997269158E+02  0.25011909589E+02  0.28790903898E+03  0.28933222062E+03  0.00000000000E+00 0.  1.
         -2    1    1    2    0  502  0.13997269158E+02 -0.25011909589E+02  0.52385130167E+02  0.59713658637E+02  0.00000000000E+00 0.  1.
</event>
<event>
 4    1  0.5784609E+003  0.3085919E+02  0.7546771E-02  0.1412274E+00
          2   -1    0    0  501    0  0.00000000000E+00  0.00000000000E+00  0.54211734810E+02  0.54211734810E+02  0.00000000000E+00 0.  1.
         -2   -1    0    0    0  501 -0.00000000000E+00 -0.00000000000E+00 -0.18548308395E+02  0.18548308395E+02  0.00000000000E+00 0. -1.
          2    1    1    2  502    0 -0.26560748853E+02  0.15710388900E+02  0.26203318982E+02  0.40483374670E+02  0.00000000000E+00 0.  1.
         -2    1    1    2    0  502  0.26560748853E+02 -0.15710388900E+02  0.94601074327E+01  0.32276668534E+02  0.00000000000E+00 0. -1.
</event>
<event>
 4    1  0.5784609E+003  0.3179059E+02  0.7546771E-02  0.1404649E+00
          2   -1    0    0  501    0  0.00000000000E+00  0.00000000000E+00  0.27748534779E+03  0.27748534779E+03  0.00000000000E+00 0. -1.
         -2   -1    0    0    0  501 -0.00000000000E+00 -0.00000000000E+00 -0.29913016135E+03  0.29913016135E+03  0.00000000000E+00 0. -1.
          2    1    1    2  502    0  0.28356889510E+02  0.14371098540E+02  0.27572478586E+03  0.27755143522E+03  0.00000000000E+00 0. -1.
         -2    1    1    2    0  502 -0.28356889510E+02 -0.14371098540E+02 -0.29736959941E+03  0.29906407392E+03  0.00000000000E+00 0. -1.
</event>
<event>
 4    1  0.5784609E+003  0.2502486E+02  0.7546771E-02  0.1468525E+00
          2   -1    0    0  501    0  0.00000000000E+00  0.00000000000E+00  0.21259026407E+02  0.21259026407E+02  0.00000000000E+00 0.  1.
         -2   -1    0    0    0  501 -0.00000000000E+00 -0.00000000000E+00 -0.34679429385E+02  0.34679429385E+02  0.00000000000E+00 0.  1.
          2    1    1    2  502    0  0.84605849355E+01 -0.23551263384E+02  0.41427731240E+01  0.25365450392E+02  0.00000000000E+00 0.  1.
         -2    1    1    2    0  502 -0.84605849355E+01  0.23551263384E+02 -0.17563176102E+02  0.30573005400E+02  0.00000000000E+00 0.  1.
</event>
<event>
 4    1  0.5784609E+003  0.3560515E+02  0.7546771E-02  0.1376358E+00
          2   -1    0    0  501    0  0.00000000000E+00  0.00000000000E+00  0.28881033349E+03  0.28881033349E+03  0.00000000000E+00 0. -1.
         -2   -1    0    0    0  501 -0.00000000000E+00 -0.00000000000E+00 -0.52170389541E+01  0.52170389541E+01  0.00000000000E+00 0.  1.
          2    1    1    2  502    0 -0.80760405713E+01 -0.34677144160E+02  0.20034916631E+03  0.20348836625E+03  0.00000000000E+00 0. -1.
         -2    1    1    2    0  502  0.80760405713E+01  0.34677144160E+02  0.83244128229E+02  0.90539006196E+02  0.00000000000E+00 0.  1.
</event>
<event>
 4    1  0.5784609E+003  0.2094884E+02  0.7546771E-02  0.1519997E+00
          2   -1    0    0  501    0  0.00000000000E+00  0.00000000000E+00  0.16883978135E+02  0.16883978135E+02  0.00000000000E+00 0. -1.
         -2   -1    0    0    0  501 -0.00000000000E+00 -0.00000000000E+00 -0.26038287353E+03  0.26038287353E+03  0.00000000000E+00 0. -1.
          2    1    1    2  502    0 -0.18803645184E+02 -0.92345420161E+01  0.97826649814E+01  0.23120431929E+02  0.00000000000E+00 0. -1.
         -2    1    1    2    0  502  0.18803645184E+02  0.92345420161E+01 -0.25328156038E+03  0.25414641974E+03  0.00000000000E+00 0. -1.
</event>
<event>
 4    1  0.5784609E+003  0.2071143E+02  0.7546771E-02  0.1523425E+00
          2   -1    0    0  501    0  0.00000000000E+00  0.00000000000E+00  0.38328062517E+02  0.38328062517E+02  0.00000000000E+00 0.  1.
         -2   -1    0    0    0  501 -0.00000000000E+00 -0.00000000000E+00 -0.23678623971E+02  0.23678623971E+02  0.00000000000E+00 0. -1.
          2    1    1    2  502    0 -0.19474250844E+02  0.70510110819E+01  0.29838832403E+02  0.36322432771E+02  0.00000000000E+00 0.  1.
         -2    1    1    2    0  502  0.19474250844E+02 -0.70510110819E+01 -0.15189393857E+02  0.25684253716E+02  0.00000000000E+00 0. -1.
</event>
<event>
 4    1  0.5784609E+003  0.3778493E+02  0.7546771E-02  0.1361979E+00
          2   -1    0    0  501    0  0.00000000000E+00  0.00000000000E+00  0.45847096900E+03  0.45847096900E+03  0.00000000000E+00 0.  1.
         -2   -1    0    0    0  501 -0.00000000000E+00 -0.00000000000E+00 -0.21965925199E+02  0.21965925199E+02  0.00000000000E+00 0.  1.
          2    1    1    2  502    0 -0.92022855559E+01  0.36647221293E+02  0.44079293960E+03  0.44240944440E+03  0.00000000000E+00 0.  1.
         -2    1    1    2    0  502  0.92022855559E+01 -0.36647221293E+02 -0.42878958039E+01  0.38027449801E+02  0.00000000000E+00 0.  1.
</event>
<event>
 4    1  0.5784609E+003  0.2044240E+02  0.7546771E-02  0.1527377E+00
          2   -1    0    0  501    0  0.00000000000E+00  0.00000000000E+00  0.10780819796E+04  0.10780819796E+04  0.00000000000E+00 0.  1.
         -2   -1    0    0    0  501 -0.00000000000E+00 -0.00000000000E+00 -0.80172513944E+00  0.80172513944E+00  0.00000000000E+00 0.  1.
          2    1    1    2  502    0  0.16884475454E+02 -0.11524151649E+02  0.92633008216E+03  0.92655561770E+03  0.00000000000E+00 0.  1.
         -2    1    1    2    0  502 -0.16884475454E+02  0.11524151649E+02  0.15095017230E+03  0.15232808703E+03  0.00000000000E+00 0.  1.
</event>
<event>
 4    1  0.5784609E+003  0.2047846E+02  0.7546771E-02  0.1526843E+00
          2   -1    0    0  501    0  0.00000000000E+00  0.00000000000E+00  0.81670552650E+03  0.81670552650E+03  0.00000000000E+00 0.  1.
         -2   -1    0    0    0  501 -0.00000000000E+00 -0.00000000000E+00 -0.63790153966E+00  0.63790153966E+00  0.00000000000E+00 0.  1.
          2    1    1    2  502    0  0.20469612269E+02 -0.60177750328E+00  0.58851602587E+03  0.58887221013E+03  0.00000000000E+00 0.  1.
         -2    1    1    2    0  502 -0.20469612269E+02  0.60177750328E+00  0.22755159909E+03  0.22847121790E+03  0.00000000000E+00 0.  1.
</event>
<event>
 4    1  0.5784609E+003  0.2962328E+02  0.7546771E-02  0.1422899E+00
          2   -1    0    0  501    0  0.00000000000E+00  0.00000000000E+00  0.74557314615E+03  0.74557314615E+03  0.00000000000E+00 0. -1.
         -2   -1    0    0    0  501 -0.00000000000E+00 -0.00000000000E+00 -0.89073770876E+01  0.89073770876E+01  0.00000000000E+00 0. -1.
          2    1    1    2  502    0 -0.27770651952E+02 -0.10311618128E+02  0.71976665833E+03  0.72037599976E+03  0.00000000000E+00 0. -1.
         -2    1    1    2    0  502  0.27770651952E+02  0.10311618128E+02  0.16899110726E+02  0.34104523477E+02  0.00000000000E+00 0. -1.
</event>
<event>
 4    1  0.5784609E+003  0.2019691E+02  0.7546771E-02  0.1531047E+00
          2   -1    0    0  501    0  0.00000000000E+00  0.00000000000E+00  0.31043232284E+02  0.31043232284E+02  0.00000000000E+00 0. -1.
         -2   -1    0    0    0  501 -0.00000000000E+00 -0.00000000000E+00 -0.60102134658E+02  0.60102134658E+02  0.00000000000E+00 0.  1.
          2    1    1    2  502    0  0.17976358842E+02 -0.92068396862E+01  0.25754538912E+02  0.32729369819E+02  0.00000000000E+00 0. -1.
         -2    1    1    2    0  502 -0.17976358842E+02  0.92068396862E+01 -0.54813441286E+02  0.58415997122E+02  0.00000000000E+00 0.  1.
</event>
<event>
 4    1  0.5784609E+003  0.3559008E+02  0.7546771E-02  0.1376462E+00
          2   -1    0    0  501    0  0.00000000000E+00  0.00000000000E+00  0.16878620308E+04  0.16878620308E+04  0.00000000000E+00 0. -1.
         -2   -1    0    0    0  501 -0.00000000000E+00 -0.00000000000E+00 -0.27181092790E+01  0.27181092790E+01  0.00000000000E+00 0. -1.
          2    1    1    2  502    0  0.85329056348E+01 -0.34552033415E+02  0.15617682328E+04  0.15621736992E+04  0.00000000000E+00 0. -1.
         -2    1    1    2    0  502 -0.85329056348E+01  0.34552033415E+02  0.12337568873E+03  0.12840644089E+03  0.00000000000E+00 0. -1.
</event>
<event>
 4    1  0.5784609E+003  0.2261418E+02  0.7546771E-02  0.1497401E+00
          2   -1    0    0  501    0  0.00000000000E+00  0.00000000000E+00  0.33967005251E+03  0.33967005251E+03  0.00000000000E+00 0.  1.
         -2   -1    0    0    0  501 -0.00000000000E+00 -0.00000000000E+00 -0.76577663911E+01  0.76577663911E+01  0.00000000000E+00 0.  1.
          2    1    1    2  502    0  0.16835230931E+02 -0.15098884700E+02  0.32166476001E+03  0.32245870922E+03  0.00000000000E+00 0.  1.
         -2    1    1    2    0  502 -0.16835230931E+02  0.15098884700E+02  0.10347526107E+02  0.24869109679E+02  0.00000000000E+00 0.  1.
</event>
<event>
 4    1  0.5784609E+003  0.2445315E+02  0.7546771E-02  0.1475015E+00
          2   -1    0    0  501    0  0.00000000000E+00  0.00000000000E+00  0.14897107904E+02  0.14897107904E+02  0.00000000000E+00 0.  1.
         -2   -1    0    0    0  501 -0.00000000000E+00 -0.00000000000E+00 -0.50741084645E+02  0.50741084645E+02  0.00000000000E+00 0. -1.
          2    1    1    2  502    0 -0.21358010441E+02  0.11907647318E+02 -0.29203015337E+01  0.24626912834E+02  0.00000000000E+00 0.  1.
         -2    1    1    2    0  502  0.21358010441E+02 -0.11907647318E+02 -0.32923675207E+02  0.41011279715E+02  0.00000000000E+00 0. -1.
</event>
<event>
 4    1  0.5784609E+003  0.4052863E+02  0.7546771E-02  0.1345416E+00
          2   -1    0    0  501    0  0.00000000000E+00  0.00000000000E+00  0.82278630252E+01  0.82278630252E+01  0.00000000000E+00 0.  1.
         -2   -1    0    0    0  501 -0.00000000000E+00 -0.00000000000E+00 -0.26926485403E+03  0.26926485403E+03  0.00000000000E+00 0.  1.
          2    1    1    2  502    0 -0.38496407628E+02 -0.12672667304E+02 -0.59963247023E+02  0.72375140002E+02  0.00000000000E+00 0.  1.
         -2    1    1    2    0  502  0.38496407628E+02  0.12672667304E+02 -0.20107374398E+03  0.20511757705E+03  0.00000000000E+00 0.  1.
</event>
<event>
 4    1  0.5784609E+003  0.3082066E+02  0.7546771E-02  0.1412596E+00
          2   -1    0    0  501    0  0.00000000000E+00  0.00000000000E+00  0.23914225533E+02  0.23914225533E+02  0.00000000000E+00 0. -1.
         -2   -1    0    0    0  501 -0.00000000000E+00 -0.00000000000E+00 -0.73123426576E+02  0.73123426576E+02  0.00000000000E+00 0.  1.
          2    1    1    2  502    0  0.23097932279E+02  0.20405843570E+02  0.81873072146E+01  0.31889573952E+02  0.00000000000E+00 0. -1.
         -2    1    1    2    0  502 -0.23097932279E+02 -0.20405843570E+02 -0.57396508258E+02  0.65148078158E+02  0.00000000000E+00 0.  1.
</event>
<event>
 4    1  0.5784609E+003  0.2094892E+02  0.7546771E-02  0.1519995E+00
          2   -1    0    0  501    0  0.00000000000E+00  0.00000000000E+00  0.77530297510E+03  0.77530297510E+03  0.00000000000E+00 0. -1.
         -2   -1    0    0    0  501 -0.00000000000E+00 -0.00000000000E+00 -0.74682314745E+00  0.74682314745E+00  0.00000000000E+00 0.  1.
          2    1    1    2  502    0  0.20734495750E+01  0.20846054044E+02  0.57818533915E+03  0.57856472721E+03  0.00000000000E+00 0. -1.
         -2    1    1    2    0  502 -0.20734495750E+01 -0.20846054044E+02  0.19637081280E+03  0.19748507104E+03  0.00000000000E+00 0.  1.
</event>
<event>
 4    1  0.5784609E+003  0.2585735E+02  0.7546771E-02  0.1459437E+00
          2   -1    0    0  501    0  0.00000000000E+00  0.00000000000E+00  0.61128119062E+03  0.61128119062E+03  0.00000000000E+00 0.  1.
         -2   -1    0    0    0  501 -0.00000000000E+00 -0.00000000000E+00 -0.10515069814E+02  0.10515069814E+02  0.00000000000E+00 0. -1.
          2    1    1    2  502    0 -0.20413584941E+02 -0.15870986501E+02  0.59466755510E+03  0.59522945471E+03  0.00000000000E+00 0.  1.
         -2    1    1    2    0  502  0.20413584941E+02  0.15870986501E+02  0.60985657011E+01  0.26566805722E+02  0.00000000000E+00 0. -1.
</event>
<event>
 4    1  0.5784609E+003  0.2012196E+02  0.7546771E-02  0.1532179E+00
          2   -1    0    0  501    0  0.00000000000E+00  0.00000000000E+00  0.35696003102E+03  0.35696003102E+03  0.00000000000E+00 0.  1.
         -2   -1    0    0    0  501 -0.00000000000E+00 -0.00000000000E+00 -0.19638273403E+03  0.19638273403E+03  0.00000000000E+00 0. -1.
          2    1    1    2  502    0  0.19149648653E+02 -0.61793501858E+01  0.35615986421E+03  0.35672782663E+03  0.00000000000E+00 0.  1.
         -2    1    1    2    0  502 -0.19149648653E+02  0.61793501858E+01 -0.19558256722E+03  0.19661493843E+03  0.00000000000E+00 0. -1.
</event>
<event>
 4    1  0.5784609E+003  0.3324925E+02  0.7546771E-02  0.1393308E+00
          2   -1    0    0  501    0  0.00000000000E+00  0.00000000000E+00  0.15498111437E+04  0.15498111437E+04  0.00000000000E+00 0. -1.
         -2   -1    0    0    0  501 -0.00000000000E+00 -0.00000000000E+00 -0.28517681773E+03  0.28517681773E+03  0.00000000000E+00 0.  1.
          2    1    1    2  502    0 -0.23192505032E+02  0.23824777335E+02  0.15486629487E+04  0.15490198323E+04  0.00000000000E+00 0. -1.
         -2    1    1    2    0  502  0.23192505032E+02 -0.23824777335E+02 -0.28402862275E+03  0.28596812907E+03  0.00000000000E+00 0.  1.
</event>
<event>
 4    1  0.5784609E+003  0.3245770E+02  0.7546771E-02  0.1399375E+00
          2   -1    0    0  501    0  0.00000000000E+00  0.00000000000E+00  0.37722943352E+02  0.37722943352E+02  0.00000000000E+00 0.  1.
         -2   -1    0    0    0  501 -0.00000000000E+00 -0.00000000000E+00 -0.35227137709E+02  0.35227137709E+02  0.00000000000E+00 0.  1.
          2    1    1    2  502    0 -0.10846858657E+01 -0.32439567759E+02  0.17851875741E+02  0.37043104180E+02  0.00000000000E+00 0.  1.
         -2    1    1    2    0  502  0.10846858657E+01  0.32439567759E+02 -0.15356070098E+02  0.35906976880E+02  0.00000000000E+00 0.  1.
</event>
<event>
 4    1  0.5784609E+003  0.2521060E+02  0.7546771E-02  0.1466461E+00
          2   -1    0    0  501    0  0.00000000000E+00  0.00000000000E+00  0.18249306714E+04  0.18249306714E+04  0.00000000000E+00 0. -1.
         -2   -1    0    0    0  501 -0.00000000000E+00 -0.00000000000E+00 -0.60260818258E+00  0.60260818258E+00  0.00000000000E+00 0.  1.
          2    1    1    2  502    0  0.24826128124E+02 -0.43860614983E+01  0.15051513743E+04  0.15053624924E+04  0.00000000000E+00 0. -1.
         -2    1    1    2    0  502 -0.24826128124E+02  0.43860614983E+01  0.31917668891E+03  0.32017078711E+03  0.00000000000E+00 0.  1.
</event>
<event>
 4    1  0.5784609E+003  0.2725674E+02  0.7546771E-02  0.1445046E+00
          2   -1    0    0  501    0  0.00000000000E+00  0.00000000000E+00  0.61964956864E+02  0.61964956864E+02  0.00000000000E+00 0. -1.
         -2   -1    0    0    0  501 -0.00000000000E+00 -0.00000000000E+00 -0.18814012034E+02  0.18814012034E+02  0.00000000000E+00 0.  1.
          2    1    1    2  502    0  0.96601132454E+01  0.25487485645E+02  0.45901038756E+02  0.53383846539E+02  0.00000000000E+00 0. -1.
         -2    1    1    2    0  502 -0.96601132454E+01 -0.25487485645E+02 -0.27500939263E+01  0.27395122359E+02  0.00000000000E+00 0.  1.
</event>
<event>
 4    1  0.5784609E+003  0.4660772E+02  0.7546771E-02  0.1313590E+00
          2   -1    0    0  501    0  0.00000000000E+00  0.00000000000E+00  0.36846222134E+04  0.36846222134E+04  0.00000000000E+00 0.  1.
         -2   -1    0    0    0  501 -0.00000000000E+00 -0.00000000000E+00 -0.10385957003E+01  0.10385957003E+01  0.00000000000E+00 0. -1.
          2    1    1    2  502    0  0.12833336400E+02 -0.44806083837E+02  0.30535221506E+04  0.30538778305E+04  0.00000000000E+00 0.  1.
         -2    1    1    2    0  502 -0.12833336400E+02  0.44806083837E+02  0.63006146713E+03  0.63178297858E+03  0.00000000000E+00 0. -1.
</event>
<event>
 4    1  0.5784609E+003  0.2349242E+02  0.7546771E-02  0.1486406E+00
          2   -1    0    0  501    0  0.00000000000E+00  0.00000000000E+00  0.56093373004E+02  0.56093373004E+02  0.00000000000E+00 0.  1.
         -2   -1    0    0    0  501 -0.00000000000E+00 -0.00000000000E+00 -0.84484677756E+02  0.84484677756E+02  0.00000000000E+00 0.  1.
          2    1    1    2  502    0  0.19246174145E+02 -0.13471394310E+02  0.51873897156E+02  0.56945543197E+02  0.00000000000E+00 0.  1.
         -2    1    1    2    0  502 -0.19246174145E+02  0.13471394310E+02 -0.80265201908E+02  0.83632507563E+02  0.00000000000E+00 0.  1.
</event>
<event>
 4    1  0.5784609E+003  0.2157559E+02  0.7546771E-02  0.1511203E+00
          2   -1    0    0  501    0  0.00000000000E+00  0.00000000000E+00  0.23621916022E+02  0.23621916022E+02  0.00000000000E+00 0.  1.
         -2   -1    0    0    0  501 -0.00000000000E+00 -0.00000000000E+00 -0.14899402241E+03  0.14899402241E+03  0.00000000000E+00 0. -1.
          2    1    1    2  502    0  0.21574318285E+02  0.23408153340E+00  0.17711851621E+02  0.27914435181E+02  0.00000000000E+00 0.  1.
         -2    1    1    2    0  502 -0.21574318285E+02 -0.23408153340E+00 -0.14308395801E+03  0.14470150325E+03  0.00000000000E+00 0. -1.
</event>
<event>
 4    1  0.5784609E+003  0.2039094E+02  0.7546771E-02  0.1528141E+00
          2   -1    0    0  501    0  0.00000000000E+00  0.00000000000E+00  0.11788880981E+04  0.11788880981E+04  0.00000000000E+00 0. -1.
         -2   -1    0    0    0  501 -0.00000000000E+00 -0.00000000000E+00 -0.17220108879E+01  0.17220108879E+01  0.00000000000E+00 0. -1.
          2    1    1    2  502    0 -0.19063453213E+02 -0.72370838066E+01  0.11149759362E+04  0.11151623778E+04  0.00000000000E+00 0. -1.
         -2    1    1    2    0  502  0.19063453213E+02  0.72370838066E+01  0.62190151029E+02  0.65447731171E+02  0.00000000000E+00 0. -1.
</event>
<event>
 4    1  0.5784609E+003  0.5113098E+02  0.7546771E-02  0.1293342E+00
          2   -1    0    0  501    0  0.00000000000E+00  0.00000000000E+00  0.19940049499E+04  0.19940049499E+04  0.00000000000E+00 0. -1.
         -2   -1    0    0    0  501 -0.00000000000E+00 -0.00000000000E+00 -0.65793357414E+02  0.65793357414E+02  0.00000000000E+00 0. -1.
          2    1    1    2  502    0 -0.56228934292E+01  0.50820859035E+02  0.19836914857E+04  0.19843503438E+04  0.00000000000E+00 0. -1.
         -2    1    1    2    0  502  0.56228934292E+01 -0.50820859035E+02 -0.55479893208E+02  0.75447963485E+02  0.00000000000E+00 0. -1.
</event>
<event>
 4    1  0.5784609E+003  0.6448618E+02  0.7546771E-02  0.1245307E+00
          2   -1    0    0  501    0  0.00000000000E+00  0.00000000000E+00  0.59897229879E+03  0.59897229879E+03  0.00000000000E+00 0.  1.
         -2   -1    0    0    0  501 -0.00000000000E+00 -0.00000000000E+00 -0.97006889476E+01  0.97006889476E+01  0.00000000000E+00 0.  1.
          2    1    1    2  502    0  0.44575449890E+02 -0.46599323078E+02  0.45691067972E+03  0.46143887665E+03  0.00000000000E+00 0.  1.
         -2    1    1    2    0  502 -0.44575449890E+02  0.46599323078E+02  0.13236093012E+03  0.14723411109E+03  0.00000000000E+00 0.  1.
</event>
<event>
 4    1  0.5784609E+003  0.4436844E+02  0.7546771E-02  0.1324628E+00
          2   -1    0    0  501    0  0.00000000000E+00  0.00000000000E+00  0.16042180233E+02  0.16042180233E+02  0.00000000000E+00 0. -1.
         -2   -1    0    0    0  501 -0.00000000000E+00 -0.00000000000E+00 -0.14470139787E+03  0.14470139787E+03  0.00000000000E+00 0. -1.
          2    1    1    2  502    0 -0.44139880481E+02  0.44977227174E+01 -0.32998211382E+02  0.55294127291E+02  0.00000000000E+00 0. -1.
         -2    1    1    2    0  502  0.44139880481E+02 -0.44977227174E+01 -0.95661006251E+02  0.10544945081E+03  0.00000000000E+00 0. -1.
</event>
<event>
 4    1  0.5784609E+003  0.2220371E+02  0.7546771E-02  0.1502747E+00
          2   -1    0    0  501    0  0.00000000000E+00  0.00000000000E+00  0.36285989680E+01  0.36285989680E+01  0.00000000000E+00 0.  1.
         -2   -1    0    0    0  501 -0.00000000000E+00 -0.00000000000E+00 -0.69294825036E+03  0.69294825036E+03  0.00000000000E+00 0.  1.
          2    1    1    2  502    0  0.18346088931E+02 -0.12507034856E+02 -0.32376985459E+02  0.39259063761E+02  0.00000000000E+00 0.  1.
         -2    1    1    2    0  502 -0.18346088931E+02  0.12507034856E+02 -0.65694266593E+03  0.65731778557E+03  0.00000000000E+00 0.  1.
</event>
<event>
 4    1  0.5784609E+003  0.2249242E+02  0.7546771E-02  0.1498972E+00
          2   -1    0    0  501    0  0.00000000000E+00  0.00000000000E+00  0.45571479428E+03  0.45571479428E+03  0.00000000000E+00 0. -1.
         -2   -1    0    0    0  501 -0.00000000000E+00 -0.00000000000E+00 -0.10101592628E+03  0.10101592628E+03  0.00000000000E+00 0. -1.
          2    1    1    2  502    0 -0.29532396521E+01 -0.22297694137E+02  0.45418098066E+03  0.45473758585E+03  0.00000000000E+00 0. -1.
         -2    1    1    2    0  502  0.29532396521E+01  0.22297694137E+02 -0.99482112665E+02  0.10199313471E+03  0.00000000000E+00 0. -1.
</event>
<event>
 4    1  0.5784609E+003  0.3293074E+02  0.7546771E-02  0.1395725E+00
          2   -1    0    0  501    0  0.00000000000E+00  0.00000000000E+00  0.13796271824E+04  0.13796271824E+04  0.00000000000E+00 0. -1.
         -2   -1    0    0    0  501 -0.00000000000E+00 -0.00000000000E+00 -0.25665578526E+01  0.25665578526E+01  0.00000000000E+00 0. -1.
          2    1    1    2  502    0  0.28141856186E+02 -0.17101746468E+02  0.12641522025E+04  0.12645810472E+04  0.00000000000E+00 0. -1.
         -2    1    1    2    0  502 -0.28141856186E+02  0.17101746468E+02  0.11290842198E+03  0.11761269301E+03  0.00000000000E+00 0. -1.
</event>
<event>
 4    1  0.5784609E+003  0.2697152E+02  0.7546771E-02  0.1447894E+00
          2   -1    0    0  501    0  0.00000000000E+00  0.00000000000E+00  0.45678950866E+03  0.45678950866E+03  0.00000000000E+00 0. -1.
         -2   -1    0    0    0  501 -0.00000000000E+00 -0.00000000000E+00 -0.19116093308E+01  0.19116093308E+01  0.00000000000E+00 0. -1.
          2    1    1    2  502    0 -0.51843103757E+01 -0.26468578470E+02  0.32113733366E+03  0.32226797823E+03  0.00000000000E+00 0. -1.
         -2    1    1    2    0  502  0.51843103757E+01  0.26468578470E+02  0.13374056567E+03  0.13643313977E+03  0.00000000000E+00 0. -1.
</event>
<event>
 4    1  0.5784609E+003  0.2546097E+02  0.7546771E-02  0.1463712E+00
          2   -1    0    0  501    0  0.00000000000E+00  0.00000000000E+00  0.39608271063E+02  0.39608271063E+02  0.00000000000E+00 0. -1.
         -2   -1    0    0    0  501 -0.00000000000E+00 -0.00000000000E+00 -0.70346055972E+03  0.70346055972E+03  0.00000000000E+00 0.  1.
          2    1    1    2  502    0 -0.17736879607E+01 -0.25399113104E+02  0.35260750250E+02  0.43492314536E+02  0.00000000000E+00 0. -1.
         -2    1    1    2    0  502  0.17736879607E+01  0.25399113104E+02 -0.69911303891E+03  0.69957651625E+03  0.00000000000E+00 0.  1.
</event>
<event>
 4    1  0.5784609E+003  0.2094829E+02  0.7546771E-02  0.1520004E+00
          2   -1    0    0  501    0  0.00000000000E+00  0.00000000000E+00  0.41648119943E+01  0.41648119943E+01  0.00000000000E+00 0. -1.
         -2   -1    0    0    0  501 -0.00000000000E+00 -0.00000000000E+00 -0.24861120139E+03  0.24861120139E+03  0.00000000000E+00 0. -1.
          2    1    1    2  502    0  0.19393810727E+02 -0.79190371013E+01 -0.26286439133E+02  0.33612615569E+02  0.00000000000E+00 0. -1.
         -2    1    1    2    0  502 -0.19393810727E+02  0.79190371013E+01 -0.21815995027E+03  0.21916339782E+03  0.00000000000E+00 0. -1.
</event>
<event>
 4    1  0.5784609E+003  0.3767227E+02  0.7546771E-02  0.1362694E+00
          2   -1    0    0  501    0  0.00000000000E+00  0.00000000000E+00  0.67309447565E+03  0.67309447565E+03  0.00000000000E+00 0. -1.
         -2   -1    0    0    0  501 -0.00000000000E+00 -0.00000000000E+00 -0.62963384266E+02  0.62963384266E+02  0.00000000000E+00 0.  1.
          2    1    1    2  502    0 -0.37671483388E+02  0.24300737168E+00  0.66687986756E+03  0.66794307951E+03  0.00000000000E+00 0. -1.
         -2    1    1    2    0  502  0.37671483388E+02 -0.24300737168E+00 -0.56748776170E+02  0.68114780408E+02  0.00000000000E+00 0.  1.
</event>
<event>
 4    1  0.5784609E+003  0.7817720E+02  0.7546771E-02  0.1208144E+00
          2   -1    0    0  501    0  0.00000000000E+00  0.00000000000E+00  0.21381386637E+04  0.21381386637E+04  0.00000000000E+00 0. -1.
         -2   -1    0    0    0  501 -0.00000000000E+00 -0.00000000000E+00 -0.83257054842E+02  0.83257054842E+02  0.00000000000E+00 0.  1.
          2    1    1    2  502    0  0.51680151162E+02 -0.58658649274E+02  0.21189057181E+04  0.21203474048E+04  0.00000000000E+00 0. -1.
         -2    1    1    2    0  502 -0.51680151162E+02  0.58658649274E+02 -0.64024109158E+02  0.10104831375E+03  0.00000000000E+00 0.  1.
</event>
<event>
 4    1  0.5784609E+003  0.2032365E+02  0.7546771E-02  0.1529144E+00
          2   -1    0    0  501    0  0.00000000000E+00  0.00000000000E+00  0.91501026670E+02  0.91501026670E+02  0.00000000000E+00 0. -1.
         -2   -1    0    0    0  501 -0.00000000000E+00 -0.00000000000E+00 -0.43579277993E+02  0.43579277993E+02  0.00000000000E+00 0. -1.
          2    1    1    2  502    0 -0.18145956547E+02 -0.91528616613E+01  0.87907343539E+02  0.90226114089E+02  0.00000000000E+00 0. -1.
         -2    1    1    2    0  502  0.18145956547E+02  0.91528616613E+01 -0.39985594862E+02  0.44854190574E+02  0.00000000000E+00 0. -1.
</event>
<event>
 4    1  0.5784609E+003  0.3890243E+02  0.7546771E-02  0.1355040E+00
          2   -1    0    0  501    0  0.00000000000E+00  0.00000000000E+00  0.36896684287E+03  0.36896684287E+03  0.00000000000E+00 0.  1.
         -2   -1    0    0    0  501 -0.00000000000E+00 -0.00000000000E+00 -0.10673525099E+03  0.10673525099E+03  0.00000000000E+00 0.  1.
          2    1    1    2  502    0  0.35941120917E+02  0.14887395071E+02  0.36435189261E+03  0.36642284366E+03  0.00000000000E+00 0.  1.
         -2    1    1    2    0  502 -0.35941120917E+02 -0.14887395071E+02 -0.10212030073E+03  0.10927925021E+03  0.00000000000E+00 0.  1.
</event>
<event>
 4    1  0.5784609E+003  0.2258952E+02  0.7546771E-02  0.1497718E+00
          2   -1    0    0  501    0  0.00000000000E+00  0.00000000000E+00  0.82553068715E+01  0.82553068715E+01  0.00000000000E+00 0.  1.
         -2   -1    0    0    0  501 -0.00000000000E+00 -0.00000000000E+00 -0.83782134671E+02  0.83782134671E+02  0.00000000000E+00 0.  1.
          2    1    1    2  502    0 -0.17469823072E+02  0.14321028481E+02 -0.14198613760E+02  0.26681214508E+02  0.00000000000E+00 0.  1.
         -2    1    1    2    0  502  0.17469823072E+02 -0.14321028481E+02 -0.61328214039E+02  0.65356227034E+02  0.00000000000E+00 0.  1.
</event>
<event>
 4    1  0.5784609E+003  0.5247760E+02  0.7546771E-02  0.1287774E+00
          2   -1    0    0  501    0  0.00000000000E+00  0.00000000000E+00  0.32296933839E+02  0.32296933839E+02  0.00000000000E+00 0.  1.
         -2   -1    0    0    0  501 -0.00000000000E+00 -0.00000000000E+00 -0.18072998577E+03  0.18072998577E+03  0.00000000000E+00 0. -1.
          2    1    1    2  502    0  0.52472693171E+02  0.71728925306E+00  0.31947810057E+01  0.52574753049E+02  0.00000000000E+00 0.  1.
         -2    1    1    2    0  502 -0.52472693171E+02 -0.71728925306E+00 -0.15162783293E+03  0.16045216656E+03  0.00000000000E+00 0. -1.
</event>
<event>
 4    1  0.5784609E+003  0.2402210E+02  0.7546771E-02  0.1480047E+00
          2   -1    0    0  501    0  0.00000000000E+00  0.00000000000E+00  0.13863604175E+04  0.13863604175E+04  0.00000000000E+00 0. -1.
         -2   -1    0    0    0  501 -0.00000000000E+00 -0.00000000000E+00 -0.41887919231E+01  0.41887919231E+01  0.00000000000E+00 0. -1.
          2    1    1    2  502    0 -0.23517342428E+02  0.48985575939E+01  0.13509118939E+04  0.13511254592E+04  0.00000000000E+00 0. -1.
         -2    1    1    2    0  502  0.23517342428E+02 -0.48985575939E+01  0.31259731656E+02  0.39423750260E+02  0.00000000000E+00 0. -1.
</event>
<event>
 4    1  0.6549427E+003  0.2710884E+02  0.7546771E-02  0.1446518E+00
          2   -1    0    0  501    0  0.00000000000E+00  0.00000000000E+00  0.12269715368E+04  0.12269715368E+04  0.00000000000E+00 0.  1.
         -2   -1    0    0    0  501 -0.00000000000E+00 -0.00000000000E+00 -0.12872230855E+03  0.12872230855E+03  0.00000000000E+00 0. -1.
          2    1    1    2  502    0 -0.18327989404E+02 -0.19974339578E+02  0.12253926849E+04  0.12256925069E+04  0.00000000000E+00 0.  1.
         -2    1    1    2    0  502  0.18327989404E+02  0.19974339578E+02 -0.12714345660E+03  0.13000133843E+03  0.00000000000E+00 0. -1.
</event>
<event>
 4    1  0.5784609E+003  0.3344167E+02  0.7546771E-02  0.1391863E+00
          2   -1    0    0  501    0  0.00000000000E+00  0.00000000000E+00  0.11774445955E+02  0.11774445955E+02  0.00000000000E+00 0. -1.
         -2   -1    0    0    0  501 -0.00000000000E+00 -0.00000000000E+00 -0.14493469563E+03  0.14493469563E+03  0.00000000000E+00 0.  1.
          2    1    1    2  502    0 -0.47135004801E+01  0.33107825828E+02 -0.20579552645E+02  0.39266565993E+02  0.00000000000E+00 0. -1.
         -2    1    1    2    0  502  0.47135004801E+01 -0.33107825828E+02 -0.11258069703E+03  0.11744257559E+03  0.00000000000E+00 0.  1.
</event>
<event>
 4    1  0.5784609E+003  0.3194889E+02  0.7546771E-02  0.1403384E+00
          2   -1    0    0  501    0  0.00000000000E+00  0.00000000000E+00  0.38325145964E+02  0.38325145964E+02  0.00000000000E+00 0. -1.
         -2   -1    0    0    0  501 -0.00000000000E+00 -0.00000000000E+00 -0.31306764200E+02  0.31306764200E+02  0.00000000000E+00 0. -1.
          2    1    1    2  502    0  0.31036347303E+02  0.75813590508E+01  0.16960684193E+02  0.36171766162E+02  0.00000000000E+00 0. -1.
         -2    1    1    2    0  502 -0.31036347303E+02 -0.75813590508E+01 -0.99423024295E+01  0.33460144001E+02  0.00000000000E+00 0. -1.
</event>
<event>
 4    1  0.5784609E+003  0.3927882E+02  0.7546771E-02  0.1352764E+00
          2   -1    0    0  501    0  0.00000000000E+00  0.00000000000E+00  0.58952694430E+03  0.58952694430E+03  0.00000000000E+00 0. -1.
         -2   -1    0    0    0  501 -0.00000000000E+00 -0.00000000000E+00 -0.40671140608E+01  0.40671140608E+01  0.00000000000E+00 0. -1.
          2    1    1    2  502    0 -0.28876463856E+00 -0.39277757030E+02  0.46994836285E+03  0.47158699021E+03  0.00000000000E+00 0. -1.
         -2    1    1    2    0  502  0.28876463856E+00  0.39277757030E+02  0.11551146739E+03  0.12200706816E+03  0.00000000000E+00 0. -1.
</event>
<event>
 4    1  0.5784609E+003  0.2355171E+02  0.7546771E-02  0.1485684E+00
          2   -1    0    0  501    0  0.00000000000E+00  0.00000000000E+00  0.15924017312E+04  0.15924017312E+04  0.00000000000E+00 0.  1.
         -2   -1    0    0    0  501 -0.00000000000E+00 -0.00000000000E+00 -0.49240808845E+00  0.49240808845E+00  0.00000000000E+00 0.  1.
          2    1    1    2  502    0 -0.22000028926E+02 -0.84072492895E+01  0.12267704170E+04  0.12269964707E+04  0.00000000000E+00 0.  1.
         -2    1    1    2    0  502  0.22000028926E+02  0.84072492895E+01  0.36513890613E+03  0.36589766860E+03  0.00000000000E+00 0.  1.
</event>
<event>
 4    1  0.5784609E+003  0.2121791E+02  0.7546771E-02  0.1516176E+00
          2   -1    0    0  501    0  0.00000000000E+00  0.00000000000E+00  0.12627184066E+04  0.12627184066E+04  0.00000000000E+00 0.  1.
         -2   -1    0    0    0  501 -0.00000000000E+00 -0.00000000000E+00 -0.36007097050E+00  0.36007097050E+00  0.00000000000E+00 0.  1.
          2    1    1    2  502    0  0.11563456488E+02 -0.17790055074E+02  0.69378885342E+03  0.69411322759E+03  0.00000000000E+00 0.  1.
         -2    1    1    2    0  502 -0.11563456488E+02  0.17790055074E+02  0.56856948225E+03  0.56896525002E+03  0.00000000000E+00 0.  1.
</event>
<event>
 4    1  0.5784609E+003  0.3411839E+02  0.7546771E-02  0.1386869E+00
          2   -1    0    0  501    0  0.00000000000E+00  0.00000000000E+00  0.13802651613E+02  0.13802651613E+02  0.00000000000E+00 0. -1.
         -2   -1    0    0    0  501 -0.00000000000E+00 -0.00000000000E+00 -0.17229529731E+03  0.17229529731E+03  0.00000000000E+00 0.  1.
          2    1    1    2  502    0 -0.19020553901E+02 -0.28324597982E+02 -0.12762641706E+02  0.36427315916E+02  0.00000000000E+00 0. -1.
         -2    1    1    2    0  502  0.19020553901E+02  0.28324597982E+02 -0.14573000399E+03  0.14967063301E+03  0.00000000000E+00 0.  1.
</event>
<event>
 4    1  0.5784609E+003  0.9652130E+02  0.7546771E-02  0.1169976E+00
          2   -1    0    0  501    0  0.00000000000E+00  0.00000000000E+00  0.11753172758E+03  0.11753172758E+03  0.00000000000E+00 0. -1.
         -2   -1    0    0    0  501 -0.00000000000E+00 -0.00000000000E+00 -0.24658672938E+03  0.24658672938E+03  0.00000000000E+00 0.  1.
          2    1    1    2  502    0  0.62124426435E+02 -0.73870954474E+02  0.85441570554E+02  0.12890548574E+03  0.00000000000E+00 0. -1.
         -2    1    1    2    0  502 -0.62124426435E+02  0.73870954474E+02 -0.21449657236E+03  0.23521297122E+03  0.00000000000E+00 0.  1.
</event>
<event>
 4    1  0.5784609E+003  0.3151885E+02  0.7546771E-02  0.1406841E+00
          2   -1    0    0  501    0  0.00000000000E+00  0.00000000000E+00  0.75442215179E+02  0.75442215179E+02  0.00000000000E+00 0. -1.
         -2   -1    0    0    0  501 -0.00000000000E+00 -0.00000000000E+00 -0.10359576224E+03  0.10359576224E+03  0.00000000000E+00 0. -1.
          2    1    1    2  502    0 -0.25623234199E+02  0.18354503694E+02  0.69559484060E+02  0.76367268901E+02  0.00000000000E+00 0. -1.
         -2    1    1    2    0  502  0.25623234199E+02 -0.18354503694E+02 -0.97713031119E+02  0.10267070852E+03  0.00000000000E+00 0. -1.
</event>
<event>
 4    1  0.5784609E+003  0.2370289E+02  0.7546771E-02  0.1483856E+00
          2   -1    0    0  501    0  0.00000000000E+00  0.00000000000E+00  0.41442878116E+03  0.41442878116E+03  0.00000000000E+00 0.  1.
         -2   -1    0    0    0  501 -0.00000000000E+00 -0.00000000000E+00 -0.27166862494E+03  0.27166862494E+03  0.00000000000E+00 0. -1.
          2    1    1    2  502    0  0.34276105537E+01 -0.23453750972E+02  0.41357177928E+03  0.41425045995E+03  0.00000000000E+00 0.  1.
         -2    1    1    2    0  502 -0.34276105537E+01  0.23453750972E+02 -0.27081162306E+03  0.27184694615E+03  0.00000000000E+00 0. -1.
</event>
<event>
 4    1  0.5784609E+003  0.2425494E+02  0.7546771E-02  0.1477314E+00
          2   -1    0    0  501    0  0.00000000000E+00  0.00000000000E+00  0.54895323732E+03  0.54895323732E+03  0.00000000000E+00 0.  1.
         -2   -1    0    0    0  501 -0.00000000000E+00 -0.00000000000E+00 -0.21684606779E+02  0.21684606779E+02  0.00000000000E+00 0.  1.
          2    1    1    2  502    0 -0.24024766717E+02 -0.33336005791E+01  0.54181349825E+03  0.54235612765E+03  0.00000000000E+00 0.  1.
         -2    1    1    2    0  502  0.24024766717E+02  0.33336005791E+01 -0.14544867712E+02  0.28281716450E+02  0.00000000000E+00 0.  1.
</event>
<event>
 4    1  0.5784609E+003  0.2022678E+02  0.7546771E-02  0.1530597E+00
          2   -1    0    0  501    0  0.00000000000E+00  0.00000000000E+00  0.12302617685E+02  0.12302617685E+02  0.00000000000E+00 0.  1.
         -2   -1    0    0    0  501 -0.00000000000E+00 -0.00000000000E+00 -0.29465275978E+03  0.29465275978E+03  0.00000000000E+00 0.  1.
          2    1    1    2  502    0  0.13123681523E+02 -0.15391280140E+02  0.33825504997E+01  0.20507661226E+02  0.00000000000E+00 0.  1.
         -2    1    1    2    0  502 -0.13123681523E+02  0.15391280140E+02 -0.28573269260E+03  0.28644771624E+03  0.00000000000E+00 0.  1.
</event>
<event>
 4    1  0.5784609E+003  0.2586842E+02  0.7546771E-02  0.1459319E+00
          2   -1    0    0  501    0  0.00000000000E+00  0.00000000000E+00  0.94337924994E+02  0.94337924994E+02  0.00000000000E+00 0.  1.
         -2   -1    0    0    0  501 -0.00000000000E+00 -0.00000000000E+00 -0.52994551427E+02  0.52994551427E+02  0.00000000000E+00 0. -1.
          2    1    1    2  502    0  0.26819479544E+01  0.25729015510E+02  0.89230730405E+02  0.92904781000E+02  0.00000000000E+00 0.  1.
         -2    1    1    2    0  502 -0.26819479544E+01 -0.25729015510E+02 -0.47887356838E+02  0.54427695422E+02  0.00000000000E+00 0. -1.
</event>
<event>
 4    1  0.5784609E+003  0.2485642E+02  0.7546771E-02  0.1470416E+00
          2   -1    0    0  501    0  0.00000000000E+00  0.00000000000E+00  0.92453579616E+01  0.92453579616E+01  0.00000000000E+00 0. -1.
         -2   -1    0    0    0  501 -0.00000000000E+00 -0.00000000000E+00 -0.74238645822E+03  0.74238645822E+03  0.00000000000E+00 0. -1.
          2    1    1    2  502    0  0.85156993912E+01  0.23352185041E+02 -0.80683265479E+01  0.26133112628E+02  0.00000000000E+00 0. -1.
         -2    1    1    2    0  502 -0.85156993912E+01 -0.23352185041E+02 -0.72507277371E+03  0.72549870355E+03  0.00000000000E+00 0. -1.
</event>
<event>
 4    1  0.5784609E+003  0.2113463E+02  0.7546771E-02  0.1517351E+00
          2   -1    0    0  501    0  0.00000000000E+00  0.00000000000E+00  0.16364445891E+02  0.16364445891E+02  0.00000000000E+00 0. -1.
         -2   -1    0    0    0  501 -0.00000000000E+00 -0.00000000000E+00 -0.19024004874E+03  0.19024004874E+03  0.00000000000E+00 0.  1.
          2    1    1    2  502    0  0.97387376772E+01  0.18757118004E+02  0.86668401280E+01  0.22842648821E+02  0.00000000000E+00 0. -1.
         -2    1    1    2    0  502 -0.97387376772E+01 -0.18757118004E+02 -0.18254244298E+03  0.18376184581E+03  0.00000000000E+00 0.  1.
</event>
<event>
 4    1  0.5784609E+003  0.2401818E+02  0.7546771E-02  0.1480094E+00
          2   -1    0    0  501    0  0.00000000000E+00  0.00000000000E+00  0.13224398157E+04  0.13224398157E+04  0.00000000000E+00 0.  1.
         -2   -1    0    0    0  501 -0.00000000000E+00 -0.00000000000E+00 -0.31100533547E+02  0.31100533547E+02  0.00000000000E+00 0. -1.
          2    1    1    2  502    0 -0.10534220152E+02  0.21584786574E+02  0.13176768389E+04  0.13178957184E+04  0.00000000000E+00 0.  1.
         -2    1    1    2    0  502  0.10534220152E+02 -0.21584786574E+02 -0.26337556804E+02  0.35644630789E+02  0.00000000000E+00 0. -1.
</event>
<event>
 4    1  0.5784609E+003  0.2115510E+02  0.7546771E-02  0.1517062E+00
          2   -1    0    0  501    0  0.00000000000E+00  0.00000000000E+00  0.53344318377E+01  0.53344318377E+01  0.00000000000E+00 0.  1.
         -2   -1    0    0    0  501 -0.00000000000E+00 -0.00000000000E+00 -0.14736354383E+03  0.14736354383E+03  0.00000000000E+00 0.  1.
          2    1    1    2  502    0 -0.20446342989E+02  0.54299998094E+01 -0.12111988051E+03  0.12295350054E+03  0.00000000000E+00 0.  1.
         -2    1    1    2    0  502  0.20446342989E+02 -0.54299998094E+01 -0.20909231478E+02  0.29744475127E+02  0.00000000000E+00 0.  1.
</event>
<event>
 4    1  0.5784609E+003  0.2156262E+02  0.7546771E-02  0.1511382E+00
          2   -1    0    0  501    0  0.00000000000E+00  0.00000000000E+00  0.61091781023E+02  0.61091781023E+02  0.00000000000E+00 0.  1.
         -2   -1    0    0    0  501 -0.00000000000E+00 -0.00000000000E+00 -0.26400961484E+02  0.26400961484E+02  0.00000000000E+00 0.  1.
          2    1    1    2  502    0  0.11456833684E+02 -0.18267115824E+02  0.54251620378E+02  0.58379661460E+02  0.00000000000E+00 0.  1.
         -2    1    1    2    0  502 -0.11456833684E+02  0.18267115824E+02 -0.19560800839E+02  0.29113081047E+02  0.00000000000E+00 0.  1.
</event>
<event>
 4    1  0.5784609E+003  0.2613020E+02  0.7546771E-02  0.1456547E+00
          2   -1    0    0  501    0  0.00000000000E+00  0.00000000000E+00  0.65917183850E+03  0.65917183850E+03  0.00000000000E+00 0.  1.
         -2   -1    0    0    0  501 -0.00000000000E+00 -0.00000000000E+00 -0.21363487400E+02  0.21363487400E+02  0.00000000000E+00 0. -1.
          2    1    1    2  502    0 -0.20371588769E+02  0.16364163759E+02  0.65082026897E+03  0.65134461692E+03  0.00000000000E+00 0.  1.
         -2    1    1    2    0  502  0.20371588769E+02 -0.16364163759E+02 -0.13011917867E+02  0.29190708985E+02  0.00000000000E+00 0. -1.
</event>
<event>
 4    1  0.5784609E+003  0.2244794E+02  0.7546771E-02  0.1499549E+00
          2   -1    0    0  501    0  0.00000000000E+00  0.00000000000E+00  0.11100229379E+02  0.11100229379E+02  0.00000000000E+00 0.  1.
         -2   -1    0    0    0  501 -0.00000000000E+00 -0.00000000000E+00 -0.21029976354E+03  0.21029976354E+03  0.00000000000E+00 0. -1.
          2    1    1    2  502    0 -0.15695375586E+02 -0.16048843826E+02 -0.15733788321E+01  0.22503015885E+02  0.00000000000E+00 0.  1.
         -2    1    1    2    0  502  0.15695375586E+02  0.16048843826E+02 -0.19762615533E+03  0.19889697703E+03  0.00000000000E+00 0. -1.
</event>
<event>
 4    1  0.5784609E+003  0.2728185E+02  0.7546771E-02  0.1444797E+00
          2   -1    0    0  501    0  0.00000000000E+00  0.00000000000E+00  0.17196416212E+03  0.17196416212E+03  0.00000000000E+00 0.  1.
         -2   -1    0    0    0  501 -0.00000000000E+00 -0.00000000000E+00 -0.18951847344E+02  0.18951847344E+02  0.00000000000E+00 0.  1.
          2    1    1    2  502    0  0.27192865512E+02  0.22016977160E+01  0.16035828267E+03  0.16266246717E+03  0.00000000000E+00 0.  1.
         -2    1    1    2    0  502 -0.27192865512E+02 -0.22016977160E+01 -0.73459678917E+01  0.28253542289E+02  0.00000000000E+00 0.  1.
</event>
<event>
 4    1  0.5784609E+003  0.3380646E+02  0.7546771E-02  0.1389154E+00
          2   -1    0    0  501    0  0.00000000000E+00  0.00000000000E+00  0.51934058127E+01  0.51934058127E+01  0.00000000000E+00 0. -1.
         -2   -1    0    0    0  501 -0.00000000000E+00 -0.00000000000E+00 -0.25574761157E+03  0.25574761157E+03  0.00000000000E+00 0. -1.
          2    1    1    2  502    0 -0.33355032742E+02  0.55062285058E+01 -0.76541459936E+02  0.83674798182E+02  0.00000000000E+00 0. -1.
         -2    1    1    2    0  502  0.33355032742E+02 -0.55062285058E+01 -0.17401274582E+03  0.17726621920E+03  0.00000000000E+00 0. -1.
</event>
<event>
 4    1  0.5784609E+003  0.2062978E+02  0.7546771E-02  0.1524617E+00
          2   -1    0    0  501    0  0.00000000000E+00  0.00000000000E+00  0.57372905710E+01  0.57372905710E+01  0.00000000000E+00 0. -1.
         -2   -1    0    0    0  501 -0.00000000000E+00 -0.00000000000E+00 -0.17045776655E+03  0.17045776655E+03  0.00000000000E+00 0.  1.
          2    1    1    2  502    0 -0.20499353554E+02 -0.23161401540E+01 -0.16150786802E+02  0.26199922055E+02  0.00000000000E+00 0. -1.
         -2    1    1    2    0  502  0.20499353554E+02  0.23161401540E+01 -0.14856968918E+03  0.14999513507E+03  0.00000000000E+00 0.  1.
</event>
<event>
 4    1  0.5784609E+003  0.2555922E+02  0.7546771E-02  0.1462644E+00
          2   -1    0    0  501    0  0.00000000000E+00  0.00000000000E+00  0.29526948466E+01  0.29526948466E+01  0.00000000000E+00 0. -1.
         -2   -1    0    0    0  501 -0.00000000000E+00 -0.00000000000E+00 -0.29108376764E+03  0.29108376764E+03  0.00000000000E+00 0. -1.
          2    1    1    2  502    0 -0.14362868966E+01  0.25518828496E+02 -0.72053401692E+02  0.76452378794E+02  0.00000000000E+00 0. -1.
         -2    1    1    2    0  502  0.14362868966E+01 -0.25518828496E+02 -0.21607767110E+03  0.21758408369E+03  0.00000000000E+00 0. -1.
</event>
<event>
 4    1  0.5784609E+003  0.2151014E+02  0.7546771E-02  0.1512105E+00
          2   -1    0    0  501    0  0.00000000000E+00  0.00000000000E+00  0.40817733577E+03  0.40817733577E+03  0.00000000000E+00 0.  1.
         -2   -1    0    0    0  501 -0.00000000000E+00 -0.00000000000E+00 -0.10765675712E+02  0.10765675712E+02  0.00000000000E+00 0. -1.
          2    1    1    2  502    0 -0.19332075085E+02 -0.94316960344E+01  0.39684282254E+03  0.39742535377E+03  0.00000000000E+00 0.  1.
         -2    1    1    2    0  502  0.19332075085E+02  0.94316960344E+01  0.56883751588E+00  0.21517657710E+02  0.00000000000E+00 0. -1.
</event>
<event>
 4    1  0.5784609E+003  0.5826530E+02  0.7546771E-02  0.1265843E+00
          2   -1    0    0  501    0  0.00000000000E+00  0.00000000000E+00  0.25686244027E+03  0.25686244027E+03  0.00000000000E+00 0.  1.
         -2   -1    0    0    0  501 -0.00000000000E+00 -0.00000000000E+00 -0.29671929260E+02  0.29671929260E+02  0.00000000000E+00 0. -1.
          2    1    1    2  502    0 -0.28110608974E+02 -0.51035666275E+02  0.22028612496E+03  0.22786141055E+03  0.00000000000E+00 0.  1.
         -2    1    1    2    0  502  0.28110608974E+02  0.51035666275E+02  0.69043860559E+01  0.58672958983E+02  0.00000000000E+00 0. -1.
</event>
<event>
 4    1  0.5784609E+003  0.2169283E+02  0.7546771E-02  0.1509599E+00
          2   -1    0    0  501    0  0.00000000000E+00  0.00000000000E+00  0.28846226714E+03  0.28846226714E+03  0.00000000000E+00 0. -1.
         -2   -1    0    0    0  501 -0.00000000000E+00 -0.00000000000E+00 -0.47088464440E+01  0.47088464440E+01  0.00000000000E+00 0.  1.
          2    1    1    2  502    0 -0.72517167594E+01 -0.20444838297E+02  0.26038089927E+03  0.26128297211E+03  0.00000000000E+00 0. -1.
         -2    1    1    2    0  502  0.72517167594E+01  0.20444838297E+02  0.23372521425E+02  0.31888141475E+02  0.00000000000E+00 0.  1.
</event>
<event>
 4    1  0.5784609E+003  0.2063348E+02  0.7546771E-02  0.1524563E+00
          2   -1    0    0  501    0  0.00000000000E+00  0.00000000000E+00  0.41407272509E+03  0.41407272509E+03  0.00000000000E+00 0. -1.
         -2   -1    0    0    0  501 -0.00000000000E+00 -0.00000000000E+00 -0.10517403978E+01  0.10517403978E+01  0.00000000000E+00 0. -1.
          2    1    1    2  502    0  0.20016755078E+02 -0.50070039764E+01  0.23757764354E+03  0.23847196330E+03  0.00000000000E+00 0. -1.
         -2    1    1    2    0  502 -0.20016755078E+02  0.50070039764E+01  0.17544334115E+03  0.17665250218E+03  0.00000000000E+00 0. -1.
</event>
<event>
 4    1  0.5784609E+003  0.2200774E+02  0.7546771E-02  0.1505349E+00
          2   -1    0    0  501    0  0.00000000000E+00  0.00000000000E+00  0.47083513079E+03  0.47083513079E+03  0.00000000000E+00 0. -1.
         -2   -1    0    0    0  501 -0.00000000000E+00 -0.00000000000E+00 -0.10902618105E+01  0.10902618105E+01  0.00000000000E+00 0.  1.
          2    1    1    2  502    0 -0.27307200861E+01 -0.21837667515E+02  0.29095012943E+03  0.29178128517E+03  0.00000000000E+00 0. -1.
         -2    1    1    2    0  502  0.27307200861E+01  0.21837667515E+02  0.17879473954E+03  0.18014410743E+03  0.00000000000E+00 0.  1.
</event>
<event>
 4    1  0.5784609E+003  0.3576996E+02  0.7546771E-02  0.1375230E+00
          2   -1    0    0  501    0  0.00000000000E+00  0.00000000000E+00  0.70005894907E+03  0.70005894907E+03  0.00000000000E+00 0.  1.
         -2   -1    0    0    0  501 -0.00000000000E+00 -0.00000000000E+00 -0.47016681403E+01  0.47016681403E+01  0.00000000000E+00 0.  1.
          2    1    1    2  502    0  0.35715499611E+02  0.19730870125E+01  0.62318235423E+03  0.62420808758E+03  0.00000000000E+00 0.  1.
         -2    1    1    2    0  502 -0.35715499611E+02 -0.19730870125E+01  0.72174926706E+02  0.80552529630E+02  0.00000000000E+00 0.  1.
</event>
<event>
 4    1  0.5784609E+003  0.3105971E+02  0.7546771E-02  0.1410606E+00
          2   -1    0    0  501    0  0.00000000000E+00  0.00000000000E+00  0.39394562476E+02  0.39394562476E+02  0.00000000000E+00 0. -1.
         -2   -1    0    0    0  501 -0.00000000000E+00 -0.00000000000E+00 -0.50901459145E+02  0.50901459145E+02  0.00000000000E+00 0.  1.
          2    1    1    2  502    0 -0.53102483401E+01 -0.30602402337E+02  0.26769034928E+02  0.41003499816E+02  0.00000000000E+00 0. -1.
         -2    1    1    2    0  502  0.53102483401E+01  0.30602402337E+02 -0.38275931597E+02  0.49292521804E+02  0.00000000000E+00 0.  1.
</event>
<event>
 4    1  0.5784609E+003  0.2320808E+02  0.7546771E-02  0.1489902E+00
          2   -1    0    0  501    0  0.00000000000E+00  0.00000000000E+00  0.21508567460E+02  0.21508567460E+02  0.00000000000E+00 0. -1.
         -2   -1    0    0    0  501 -0.00000000000E+00 -0.00000000000E+00 -0.31978192003E+02  0.31978192003E+02  0.00000000000E+00 0. -1.
          2    1    1    2  502    0 -0.65451834084E+01 -0.22266013407E+02  0.72204798970E+01  0.24305351444E+02  0.00000000000E+00 0. -1.
         -2    1    1    2    0  502  0.65451834084E+01  0.22266013407E+02 -0.17690104440E+02  0.29181408019E+02  0.00000000000E+00 0. -1.
</event>
<event>
 4    1  0.5784609E+003  0.2677617E+02  0.7546771E-02  0.1449870E+00
          2   -1    0    0  501    0  0.00000000000E+00  0.00000000000E+00  0.85900665187E+03  0.85900665187E+03  0.00000000000E+00 0. -1.
         -2   -1    0    0    0  501 -0.00000000000E+00 -0.00000000000E+00 -0.24115218786E+01  0.24115218786E+01  0.00000000000E+00 0. -1.
          2    1    1    2  502    0  0.25068047200E+02 -0.94104324482E+01  0.77658491823E+03  0.77704639401E+03  0.00000000000E+00 0. -1.
         -2    1    1    2    0  502 -0.25068047200E+02  0.94104324482E+01  0.80010211760E+02  0.84371779732E+02  0.00000000000E+00 0. -1.
</event>
<event>
 4    1  0.5784609E+003  0.2092744E+02  0.7546771E-02  0.1520303E+00
          2   -1    0    0  501    0  0.00000000000E+00  0.00000000000E+00  0.24752453899E+03  0.24752453899E+03  0.00000000000E+00 0.  1.
         -2   -1    0    0    0  501 -0.00000000000E+00 -0.00000000000E+00 -0.81519083849E+02  0.81519083849E+02  0.00000000000E+00 0.  1.
          2    1    1    2  502    0 -0.11170417010E+02 -0.17696883762E+02  0.24572929166E+03  0.24661882063E+03  0.00000000000E+00 0.  1.
         -2    1    1    2    0  502  0.11170417010E+02  0.17696883762E+02 -0.79723836514E+02  0.82424802211E+02  0.00000000000E+00 0.  1.
</event>
<event>
 4    1  0.5784609E+003  0.2633170E+02  0.7546771E-02  0.1454439E+00
          2   -1    0    0  501    0  0.00000000000E+00  0.00000000000E+00  0.76361259535E+03  0.76361259535E+03  0.00000000000E+00 0.  1.
         -2   -1    0    0    0  501 -0.00000000000E+00 -0.00000000000E+00 -0.42493268993E+02  0.42493268993E+02  0.00000000000E+00 0. -1.
          2    1    1    2  502    0  0.16762705980E+02  0.20306896651E+02  0.75928311831E+03  0.75973956861E+03  0.00000000000E+00 0.  1.
         -2    1    1    2    0  502 -0.16762705980E+02 -0.20306896651E+02 -0.38163791955E+02  0.46366295730E+02  0.00000000000E+00 0. -1.
</event>
<event>
 4    1  0.5784609E+003  0.6373758E+02  0.7546771E-02  0.1247636E+00
          2   -1    0    0  501    0  0.00000000000E+00  0.00000000000E+00  0.78971308092E+02  0.78971308092E+02  0.00000000000E+00 0. -1.
         -2   -1    0    0    0  501 -0.00000000000E+00 -0.00000000000E+00 -0.28414009486E+03  0.28414009486E+03  0.00000000000E+00 0.  1.
          2    1    1    2  502    0  0.23977757689E+02  0.59055451913E+02  0.61716379012E+02  0.88720858330E+02  0.00000000000E+00 0. -1.
         -2    1    1    2    0  502 -0.23977757689E+02 -0.59055451913E+02 -0.26688516578E+03  0.27439054462E+03  0.00000000000E+00 0.  1.
</event>
<event>
 4    1  0.5784609E+003  0.4312642E+02  0.7546771E-02  0.1331079E+00
          2   -1    0    0  501    0  0.00000000000E+00  0.00000000000E+00  0.10183587864E+04  0.10183587864E+04  0.00000000000E+00 0. -1.
         -2   -1    0    0    0  501 -0.00000000000E+00 -0.00000000000E+00 -0.87704076217E+01  0.87704076217E+01  0.00000000000E+00 0.  1.
          2    1    1    2  502    0 -0.37408862463E+02 -0.21458460845E+02  0.96176827360E+03  0.96273469899E+03  0.00000000000E+00 0. -1.
         -2    1    1    2    0  502  0.37408862463E+02  0.21458460845E+02  0.47820105218E+02  0.64394495073E+02  0.00000000000E+00 0.  1.
</event>
<event>
 4    1  0.5784609E+003  0.2772762E+02  0.7546771E-02  0.1440433E+00
          2   -1    0    0  501    0  0.00000000000E+00  0.00000000000E+00  0.16585831946E+01  0.16585831946E+01  0.00000000000E+00 0.  1.
         -2   -1    0    0    0  501 -0.00000000000E+00 -0.00000000000E+00 -0.77220992761E+03  0.77220992761E+03  0.00000000000E+00 0. -1.
          2    1    1    2  502    0  0.89802051100E+01  0.26233128340E+02 -0.14064211334E+03  0.14334931166E+03  0.00000000000E+00 0.  1.
         -2    1    1    2    0  502 -0.89802051100E+01 -0.26233128340E+02 -0.62990923107E+03  0.63051919915E+03  0.00000000000E+00 0. -1.
</event>
<event>
 4    1  0.5784609E+003  0.3611499E+02  0.7546771E-02  0.1372889E+00
          2   -1    0    0  501    0  0.00000000000E+00  0.00000000000E+00  0.71449539255E+02  0.71449539255E+02  0.00000000000E+00 0. -1.
         -2   -1    0    0    0  501 -0.00000000000E+00 -0.00000000000E+00 -0.61222986865E+02  0.61222986865E+02  0.00000000000E+00 0. -1.
          2    1    1    2  502    0 -0.34725374207E+02  0.99217366979E+01  0.60686754982E+02  0.70619931344E+02  0.00000000000E+00 0. -1.
         -2    1    1    2    0  502  0.34725374207E+02 -0.99217366979E+01 -0.50460202591E+02  0.62052594776E+02  0.00000000000E+00 0. -1.
</event>
<event>
 4    1  0.5784609E+003  0.3616705E+02  0.7546771E-02  0.1372539E+00
          2   -1    0    0  501    0  0.00000000000E+00  0.00000000000E+00  0.13049882495E+04  0.13049882495E+04  0.00000000000E+00 0. -1.
         -2   -1    0    0    0  501 -0.00000000000E+00 -0.00000000000E+00 -0.18716576409E+02  0.18716576409E+02  0.00000000000E+00 0. -1.
          2    1    1    2  502    0 -0.26686454602E+00 -0.36166068949E+02  0.12870219205E+04  0.12875299917E+04  0.00000000000E+00 0. -1.
         -2    1    1    2    0  502  0.26686454602E+00  0.36166068949E+02 -0.75024736328E+00  0.36174834223E+02  0.00000000000E+00 0. -1.
</event>
<event>
 4    1  0.5784609E+003  0.4731750E+02  0.7546771E-02  0.1310241E+00
          2   -1    0    0  501    0  0.00000000000E+00  0.00000000000E+00  0.20296400105E+03  0.20296400105E+03  0.00000000000E+00 0.  1.
         -2   -1    0    0    0  501 -0.00000000000E+00 -0.00000000000E+00 -0.10935434669E+03  0.10935434669E+03  0.00000000000E+00 0. -1.
          2    1    1    2  502    0  0.11750668427E+02  0.45835225199E+02  0.19487829851E+03  0.20054051288E+03  0.00000000000E+00 0.  1.
         -2    1    1    2    0  502 -0.11750668427E+02 -0.45835225199E+02 -0.10126864415E+03  0.11177783486E+03  0.00000000000E+00 0. -1.
</event>
<event>
 4    1  0.5784609E+003  0.5224953E+02  0.7546771E-02  0.1288703E+00
          2   -1    0    0  501    0  0.00000000000E+00  0.00000000000E+00  0.21597175517E+03  0.21597175517E+03  0.00000000000E+00 0. -1.
         -2   -1    0    0    0  501 -0.00000000000E+00 -0.00000000000E+00 -0.26558972793E+02  0.26558972793E+02  0.00000000000E+00 0. -1.
          2    1    1    2  502    0 -0.45779618345E+02  0.25184117185E+02  0.18249240384E+03  0.18982489477E+03  0.00000000000E+00 0. -1.
         -2    1    1    2    0  502  0.45779618345E+02 -0.25184117185E+02  0.69203785427E+01  0.52705833201E+02  0.00000000000E+00 0. -1.
</event>
<event>
 4    1  0.5784609E+003  0.2764598E+02  0.7546771E-02  0.1441225E+00
          2   -1    0    0  501    0  0.00000000000E+00  0.00000000000E+00  0.17975500373E+02  0.17975500373E+02  0.00000000000E+00 0.  1.
         -2   -1    0    0    0  501 -0.00000000000E+00 -0.00000000000E+00 -0.49777572547E+02  0.49777572547E+02  0.00000000000E+00 0. -1.
          2    1    1    2  502    0 -0.71908535912E+01 -0.26694414465E+02 -0.29647972830E+01  0.27804498951E+02  0.00000000000E+00 0.  1.
         -2    1    1    2    0  502  0.71908535912E+01  0.26694414465E+02 -0.28837274891E+02  0.39948573969E+02  0.00000000000E+00 0. -1.
</event>
<event>
 4    1  0.5784609E+003  0.2163119E+02  0.7546771E-02  0.1510441E+00
          2   -1    0    0  501    0  0.00000000000E+00  0.00000000000E+00  0.54693390938E+03  0.54693390938E+03  0.00000000000E+00 0.  1.
         -2   -1    0    0    0  501 -0.00000000000E+00 -0.00000000000E+00 -0.62098651204E+01  0.62098651204E+01  0.00000000000E+00 0.  1.
          2    1    1    2  502    0  0.20932739346E+02 -0.54524248785E+01  0.52717706276E+03  0.52762066299E+03  0.00000000000E+00 0.  1.
         -2    1    1    2    0  502 -0.20932739346E+02  0.54524248785E+01  0.13546981506E+02  0.25523111517E+02  0.00000000000E+00 0.  1.
</event>
<event>
 4    1  0.5784609E+003  0.3233319E+02  0.7546771E-02  0.1400348E+00
          2   -1    0    0  501    0  0.00000000000E+00  0.00000000000E+00  0.17036756643E+04  0.17036756643E+04  0.00000000000E+00 0. -1.
         -2   -1    0    0    0  501 -0.00000000000E+00 -0.00000000000E+00 -0.37390088866E+01  0.37390088866E+01  0.00000000000E+00 0.  1.
          2    1    1    2  502    0 -0.91491849100E+01 -0.31011731653E+02  0.16304842228E+04  0.16308047816E+04  0.00000000000E+00 0. -1.
         -2    1    1    2    0  502  0.91491849100E+01  0.31011731653E+02  0.69452432672E+02  0.76609891585E+02  0.00000000000E+00 0.  1.
</event>
<event>
 4    1  0.5784609E+003  0.2502457E+02  0.7546771E-02  0.1468529E+00
          2   -1    0    0  501    0  0.00000000000E+00  0.00000000000E+00  0.17212422444E+04  0.17212422444E+04  0.00000000000E+00 0.  1.
         -2   -1    0    0    0  501 -0.00000000000E+00 -0.00000000000E+00 -0.39202014295E+00  0.39202014295E+00  0.00000000000E+00 0.  1.
          2    1    1    2  502    0 -0.11873340332E+02 -0.22028453714E+02  0.10912872440E+04  0.10915741285E+04  0.00000000000E+00 0.  1.
         -2    1    1    2    0  502  0.11873340332E+02  0.22028453714E+02  0.62956298026E+03  0.63006013609E+03  0.00000000000E+00 0.  1.
</event>
<event>
 4    1  0.5784609E+003  0.2015301E+02  0.7546771E-02  0.1531710E+00
          2   -1    0    0  501    0  0.00000000000E+00  0.00000000000E+00  0.17839327606E+03  0.17839327606E+03  0.00000000000E+00 0. -1.
         -2   -1    0    0    0  501 -0.00000000000E+00 -0.00000000000E+00 -0.29038491908E+02  0.29038491908E+02  0.00000000000E+00 0. -1.
          2    1    1    2  502    0  0.57564159441E+01  0.19313397143E+02  0.17424453296E+03  0.17540610280E+03  0.00000000000E+00 0. -1.
         -2    1    1    2    0  502 -0.57564159441E+01 -0.19313397143E+02 -0.24889748807E+02  0.32025665167E+02  0.00000000000E+00 0. -1.
</event>
<event>
 4    1  0.5784609E+003  0.2141276E+02  0.7546771E-02  0.1513453E+00
          2   -1    0    0  501    0  0.00000000000E+00  0.00000000000E+00  0.23740784819E+02  0.23740784819E+02  0.00000000000E+00 0.  1.
         -2   -1    0    0    0  501 -0.00000000000E+00 -0.00000000000E+00 -0.26840151417E+03  0.26840151417E+03  0.00000000000E+00 0. -1.
          2    1    1    2  502    0  0.12589009038E+02 -0.17321180747E+02  0.18387356183E+02  0.28224126530E+02  0.00000000000E+00 0.  1.
         -2    1    1    2    0  502 -0.12589009038E+02  0.17321180747E+02 -0.26304808554E+03  0.26391817246E+03  0.00000000000E+00 0. -1.
</event>
<event>
 4    1  0.5784609E+003  0.2066515E+02  0.7546771E-02  0.1524100E+00
          2   -1    0    0  501    0  0.00000000000E+00  0.00000000000E+00  0.11380695389E+03  0.11380695389E+03  0.00000000000E+00 0. -1.
         -2   -1    0    0    0  501 -0.00000000000E+00 -0.00000000000E+00 -0.15276916293E+02  0.15276916293E+02  0.00000000000E+00 0. -1.
          2    1    1    2  502    0  0.16930199585E+02 -0.11849762043E+02  0.10532276087E+03  0.10733094836E+03  0.00000000000E+00 0. -1.
         -2    1    1    2    0  502 -0.16930199585E+02  0.11849762043E+02 -0.67927232722E+01  0.21752921825E+02  0.00000000000E+00 0. -1.
</event>
<event>
 4    1  0.5784609E+003  0.3166231E+02  0.7546771E-02  0.1405681E+00
          2   -1    0    0  501    0  0.00000000000E+00  0.00000000000E+00  0.12443203081E+04  0.12443203081E+04  0.00000000000E+00 0.  1.
         -2   -1    0    0    0  501 -0.00000000000E+00 -0.00000000000E+00 -0.69213083828E+01  0.69213083828E+01  0.00000000000E+00 0. -1.
          2    1    1    2  502    0  0.11026303428E+02  0.29680337299E+02  0.12067820083E+04  0.12071972984E+04  0.00000000000E+00 0.  1.
         -2    1    1    2    0  502 -0.11026303428E+02 -0.29680337299E+02  0.30616991437E+02  0.44044318069E+02  0.00000000000E+00 0. -1.
</event>
<event>
 4    1  0.5784609E+003  0.2353349E+02  0.7546771E-02  0.1485906E+00
          2   -1    0    0  501    0  0.00000000000E+00  0.00000000000E+00  0.33836608243E+03  0.33836608243E+03  0.00000000000E+00 0. -1.
         -2   -1    0    0    0  501 -0.00000000000E+00 -0.00000000000E+00 -0.17506135507E+02  0.17506135507E+02  0.00000000000E+00 0.  1.
          2    1    1    2  502    0  0.23302521100E+02 -0.32890010883E+01  0.32984379005E+03  0.33068225059E+03  0.00000000000E+00 0. -1.
         -2    1    1    2    0  502 -0.23302521100E+02  0.32890010883E+01 -0.89838431281E+01  0.25189967350E+02  0.00000000000E+00 0.  1.
</event>
<event>
 4    1  0.5784609E+003  0.2193980E+02  0.7546771E-02  0.1506258E+00
          2   -1    0    0  501    0  0.00000000000E+00  0.00000000000E+00  0.10701821118E+04  0.10701821118E+04  0.00000000000E+00 0.  1.
         -2   -1    0    0    0  501 -0.00000000000E+00 -0.00000000000E+00 -0.58155011115E+00  0.58155011115E+00  0.00000000000E+00 0.  1.
          2    1    1    2  502    0 -0.28948688567E+01 -0.21747980434E+02  0.78963908886E+03  0.78994382432E+03  0.00000000000E+00 0.  1.
         -2    1    1    2    0  502  0.28948688567E+01  0.21747980434E+02  0.27996147279E+03  0.28081983755E+03  0.00000000000E+00 0.  1.
</event>
<event>
 4    1  0.5784609E+003  0.2270198E+02  0.7546771E-02  0.1496275E+00
          2   -1    0    0  501    0  0.00000000000E+00  0.00000000000E+00  0.56263181906E+03  0.56263181906E+03  0.00000000000E+00 0. -1.
         -2   -1    0    0    0  501 -0.00000000000E+00 -0.00000000000E+00 -0.26878215105E+02  0.26878215105E+02  0.00000000000E+00 0.  1.
          2    1    1    2  502    0  0.91013231767E-01 -0.22701797208E+02  0.55756561853E+03  0.55802759685E+03  0.00000000000E+00 0. -1.
         -2    1    1    2    0  502 -0.91013231767E-01  0.22701797208E+02 -0.21812014570E+02  0.31482437318E+02  0.00000000000E+00 0.  1.
</event>
<event>
 4    1  0.5784609E+003  0.6009261E+02  0.7546771E-02  0.1259518E+00
          2   -1    0    0  501    0  0.00000000000E+00  0.00000000000E+00  0.14710486574E+03  0.14710486574E+03  0.00000000000E+00 0.  1.
         -2   -1    0    0    0  501 -0.00000000000E+00 -0.00000000000E+00 -0.25956431215E+02  0.25956431215E+02  0.00000000000E+00 0. -1.
          2    1    1    2  502    0  0.41584335596E+02  0.43380422720E+02  0.40417116021E+02  0.72420033898E+02  0.00000000000E+00 0.  1.
         -2    1    1    2    0  502 -0.41584335596E+02 -0.43380422720E+02  0.80731318505E+02  0.10064126306E+03  0.00000000000E+00 0. -1.
</event>
<event>
 4    1  0.5784609E+003  0.3419378E+02  0.7546771E-02  0.1386321E+00
          2   -1    0    0  501    0  0.00000000000E+00  0.00000000000E+00  0.17797340304E+03  0.17797340304E+03  0.00000000000E+00 0.  1.
         -2   -1    0    0    0  501 -0.00000000000E+00 -0.00000000000E+00 -0.12901842686E+02  0.12901842686E+02  0.00000000000E+00 0.  1.
          2    1    1    2  502    0  0.30118334410E+02 -0.16189516420E+02  0.14939671324E+03  0.15325988528E+03  0.00000000000E+00 0.  1.
         -2    1    1    2    0  502 -0.30118334410E+02  0.16189516420E+02  0.15674847120E+02  0.37615360450E+02  0.00000000000E+00 0.  1.
</event>
<event>
 4    1  0.5784609E+003  0.2313875E+02  0.7546771E-02  0.1490763E+00
          2   -1    0    0  501    0  0.00000000000E+00  0.00000000000E+00  0.13092686706E+03  0.13092686706E+03  0.00000000000E+00 0.  1.
         -2   -1    0    0    0  501 -0.00000000000E+00 -0.00000000000E+00 -0.75668660813E+02  0.75668660813E+02  0.00000000000E+00 0. -1.
          2    1    1    2  502    0 -0.22889040575E+02  0.33901984081E+01  0.12809687002E+03  0.13016992637E+03  0.00000000000E+00 0.  1.
         -2    1    1    2    0  502  0.22889040575E+02 -0.33901984081E+01 -0.72838663774E+02  0.76425601496E+02  0.00000000000E+00 0. -1.
</event>
<event>
 4    1  0.5784609E+003  0.6006448E+02  0.7546771E-02  0.1259614E+00
          2   -1    0    0  501    0  0.00000000000E+00  0.00000000000E+00  0.50492897922E+03  0.50492897922E+03  0.00000000000E+00 0.  1.
         -2   -1    0    0    0  501 -0.00000000000E+00 -0.00000000000E+00 -0.92385690717E+01  0.92385690717E+01  0.00000000000E+00 0. -1.
          2    1    1    2  502    0 -0.53925352871E+02  0.26453699102E+02  0.37022534985E+03  0.37506606292E+03  0.00000000000E+00 0.  1.
         -2    1    1    2    0  502  0.53925352871E+02 -0.26453699102E+02  0.12546506029E+03  0.13910148537E+03  0.00000000000E+00 0. -1.
</event>
<event>
 4    1  0.5784609E+003  0.3255552E+02  0.7546771E-02  0.1398614E+00
          2   -1    0    0  501    0  0.00000000000E+00  0.00000000000E+00  0.25797917036E+04  0.25797917036E+04  0.00000000000E+00 0.  1.
         -2   -1    0    0    0  501 -0.00000000000E+00 -0.00000000000E+00 -0.48888415814E+00  0.48888415814E+00  0.00000000000E+00 0.  1.
          2    1    1    2  502    0  0.16135283180E+02  0.28275684996E+02  0.18051477862E+04  0.18054413288E+04  0.00000000000E+00 0.  1.
         -2    1    1    2    0  502 -0.16135283180E+02 -0.28275684996E+02  0.77415503324E+03  0.77483925895E+03  0.00000000000E+00 0.  1.
</event>
<event>
 4    1  0.5784609E+003  0.3924551E+02  0.7546771E-02  0.1352965E+00
          2   -1    0    0  501    0  0.00000000000E+00  0.00000000000E+00  0.56953422844E+03  0.56953422844E+03  0.00000000000E+00 0. -1.
         -2   -1    0    0    0  501 -0.00000000000E+00 -0.00000000000E+00 -0.42032146763E+01  0.42032146763E+01  0.00000000000E+00 0.  1.
          2    1    1    2  502    0 -0.18289663237E+01  0.39202870072E+02  0.45397289942E+03  0.45566610972E+03  0.00000000000E+00 0. -1.
         -2    1    1    2    0  502  0.18289663237E+01 -0.39202870072E+02  0.11135811434E+03  0.11807133339E+03  0.00000000000E+00 0.  1.
</event>
<event>
 4    1  0.5784609E+003  0.2410499E+02  0.7546771E-02  0.1479070E+00
          2   -1    0    0  501    0  0.00000000000E+00  0.00000000000E+00  0.10035655929E+04  0.10035655929E+04  0.00000000000E+00 0. -1.
         -2   -1    0    0    0  501 -0.00000000000E+00 -0.00000000000E+00 -0.53121413062E+01  0.53121413062E+01  0.00000000000E+00 0. -1.
          2    1    1    2  502    0 -0.23463386383E+02  0.55244764698E+01  0.97528256400E+03  0.97558040672E+03  0.00000000000E+00 0. -1.
         -2    1    1    2    0  502  0.23463386383E+02 -0.55244764698E+01  0.22970887604E+02  0.33297327492E+02  0.00000000000E+00 0. -1.
</event>
<event>
 4    1  0.5784609E+003  0.2789502E+02  0.7546771E-02  0.1438819E+00
          2   -1    0    0  501    0  0.00000000000E+00  0.00000000000E+00  0.79695050241E+01  0.79695050241E+01  0.00000000000E+00 0.  1.
         -2   -1    0    0    0  501 -0.00000000000E+00 -0.00000000000E+00 -0.12064939895E+03  0.12064939895E+03  0.00000000000E+00 0.  1.
          2    1    1    2  502    0  0.35238447341E+01  0.27671548772E+02 -0.28254770762E+02  0.39704712113E+02  0.00000000000E+00 0.  1.
         -2    1    1    2    0  502 -0.35238447341E+01 -0.27671548772E+02 -0.84425123166E+02  0.88914191863E+02  0.00000000000E+00 0.  1.
</event>
<event>
 4    1  0.5784609E+003  0.2037943E+02  0.7546771E-02  0.1528312E+00
          2   -1    0    0  501    0  0.00000000000E+00  0.00000000000E+00  0.11154289974E+04  0.11154289974E+04  0.00000000000E+00 0. -1.
         -2   -1    0    0    0  501 -0.00000000000E+00 -0.00000000000E+00 -0.31581159531E+01  0.31581159531E+01  0.00000000000E+00 0.  1.
          2    1    1    2  502    0 -0.19660091335E+02  0.53667477033E+01  0.10814249282E+04  0.10816169361E+04  0.00000000000E+00 0. -1.
         -2    1    1    2    0  502  0.19660091335E+02 -0.53667477033E+01  0.30845953195E+02  0.36970177179E+02  0.00000000000E+00 0.  1.
</event>
<event>
 4    1  0.5784609E+003  0.2003440E+02  0.7546771E-02  0.1533510E+00
          2   -1    0    0  501    0  0.00000000000E+00  0.00000000000E+00  0.47054449195E+03  0.47054449195E+03  0.00000000000E+00 0. -1.
         -2   -1    0    0    0  501 -0.00000000000E+00 -0.00000000000E+00 -0.11836592604E+02  0.11836592604E+02  0.00000000000E+00 0. -1.
          2    1    1    2  502    0  0.18640687315E+01  0.19947492489E+02  0.46169129136E+03  0.46212576830E+03  0.00000000000E+00 0. -1.
         -2    1    1    2    0  502 -0.18640687315E+01 -0.19947492489E+02 -0.29833920105E+01  0.20255316258E+02  0.00000000000E+00 0. -1.
</event>
<event>
 4    1  0.7246785E+003  0.2912732E+02  0.7546771E-02  0.1427335E+00
          2   -1    0    0  501    0  0.00000000000E+00  0.00000000000E+00  0.72614002423E+03  0.72614002423E+03  0.00000000000E+00 0.  1.
         -2   -1    0    0    0  501 -0.00000000000E+00 -0.00000000000E+00 -0.24770336946E+03  0.24770336946E+03  0.00000000000E+00 0.  1.
          2    1    1    2  502    0  0.28958865417E+02  0.31280463769E+01  0.72499030759E+03  0.72557518332E+03  0.00000000000E+00 0.  1.
         -2    1    1    2    0  502 -0.28958865417E+02 -0.31280463769E+01 -0.24655365282E+03  0.24826821037E+03  0.00000000000E+00 0.  1.
</event>
<event>
 4    1  0.5784609E+003  0.5631871E+02  0.7546771E-02  0.1272881E+00
          2   -1    0    0  501    0  0.00000000000E+00  0.00000000000E+00  0.14754124469E+03  0.14754124469E+03  0.00000000000E+00 0.  1.
         -2   -1    0    0    0  501 -0.00000000000E+00 -0.00000000000E+00 -0.39973409855E+02  0.39973409855E+02  0.00000000000E+00 0.  1.
          2    1    1    2  502    0  0.56305546139E+02 -0.12175896785E+01  0.11752511459E+03  0.13032248313E+03  0.00000000000E+00 0.  1.
         -2    1    1    2    0  502 -0.56305546139E+02  0.12175896785E+01 -0.99572797544E+01  0.57192171412E+02  0.00000000000E+00 0.  1.
</event>
<event>
 4    1  0.5784609E+003  0.2119803E+02  0.7546771E-02  0.1516456E+00
          2   -1    0    0  501    0  0.00000000000E+00  0.00000000000E+00  0.34190908166E+02  0.34190908166E+02  0.00000000000E+00 0.  1.
         -2   -1    0    0    0  501 -0.00000000000E+00 -0.00000000000E+00 -0.30095308833E+02  0.30095308833E+02  0.00000000000E+00 0.  1.
          2    1    1    2  502    0 -0.20699367759E+02 -0.45708627160E+01  0.26172300169E+02  0.33680052074E+02  0.00000000000E+00 0.  1.
         -2    1    1    2    0  502  0.20699367759E+02  0.45708627160E+01 -0.22076700836E+02  0.30606164925E+02  0.00000000000E+00 0.  1.
</event>
<event>
 4    1  0.5784609E+003  0.2469628E+02  0.7546771E-02  0.1472230E+00
          2   -1    0    0  501    0  0.00000000000E+00  0.00000000000E+00  0.12163433103E+02  0.12163433103E+02  0.00000000000E+00 0.  1.
         -2   -1    0    0    0  501 -0.00000000000E+00 -0.00000000000E+00 -0.62271592565E+02  0.62271592565E+02  0.00000000000E+00 0. -1.
          2    1    1    2  502    0 -0.14093704851E+02 -0.20279880182E+02 -0.86287204245E+01  0.26160291909E+02  0.00000000000E+00 0.  1.
         -2    1    1    2    0  502  0.14093704851E+02  0.20279880182E+02 -0.41479439038E+02  0.48274733759E+02  0.00000000000E+00 0. -1.
</event>
<event>
 4    1  0.5784609E+003  0.2366878E+02  0.7546771E-02  0.1484267E+00
          2   -1    0    0  501    0  0.00000000000E+00  0.00000000000E+00  0.36672435802E+03  0.36672435802E+03  0.00000000000E+00 0. -1.
         -2   -1    0    0    0  501 -0.00000000000E+00 -0.00000000000E+00 -0.10574933440E+02  0.10574933440E+02  0.00000000000E+00 0. -1.
          2    1    1    2  502    0  0.15649099168E+02 -0.17757164821E+02  0.35256741503E+03  0.35336099579E+03  0.00000000000E+00 0. -1.
         -2    1    1    2    0  502 -0.15649099168E+02  0.17757164821E+02  0.35820095572E+01  0.23938295673E+02  0.00000000000E+00 0. -1.
</event>
<event>
 4    1  0.5784609E+003  0.2419647E+02  0.7546771E-02  0.1477997E+00
          2   -1    0    0  501    0  0.00000000000E+00  0.00000000000E+00  0.73381630452E+02  0.73381630452E+02  0.00000000000E+00 0.  1.
         -2   -1    0    0    0  501 -0.00000000000E+00 -0.00000000000E+00 -0.29749259576E+02  0.29749259576E+02  0.00000000000E+00 0. -1.
          2    1    1    2  502    0  0.21417036082E+02 -0.11259649086E+02  0.65928345438E+02  0.70228312412E+02  0.00000000000E+00 0.  1.
         -2    1    1    2    0  502 -0.21417036082E+02  0.11259649086E+02 -0.22295974562E+02  0.32902577616E+02  0.00000000000E+00 0. -1.
</event>
<event>
 4    1  0.5784609E+003  0.4902916E+02  0.7546771E-02  0.1302437E+00
          2   -1    0    0  501    0  0.00000000000E+00  0.00000000000E+00  0.14431487131E+03  0.14431487131E+03  0.00000000000E+00 0.  1.
         -2   -1    0    0    0  501 -0.00000000000E+00 -0.00000000000E+00 -0.86713876581E+03  0.86713876581E+03  0.00000000000E+00 0.  1.
          2    1    1    2  502    0 -0.23174264760E+02 -0.43206622176E+02  0.13943401476E+03  0.14780292020E+03  0.00000000000E+00 0.  1.
         -2    1    1    2    0  502  0.23174264760E+02  0.43206622176E+02 -0.86225790927E+03  0.86365071692E+03  0.00000000000E+00 0.  1.
</event>
<event>
 4    1  0.5784609E+003  0.2001179E+02  0.7546771E-02  0.1533855E+00
          2   -1    0    0  501    0  0.00000000000E+00  0.00000000000E+00  0.12088960279E+03  0.12088960279E+03  0.00000000000E+00 0. -1.
         -2   -1    0    0    0  501 -0.00000000000E+00 -0.00000000000E+00 -0.50991683932E+01  0.50991683932E+01  0.00000000000E+00 0. -1.
          2    1    1    2  502    0  0.97238527433E+01  0.17490524137E+02  0.95181498525E+02  0.97262476877E+02  0.00000000000E+00 0. -1.
         -2    1    1    2    0  502 -0.97238527433E+01 -0.17490524137E+02  0.20608935869E+02  0.28726294303E+02  0.00000000000E+00 0. -1.
</event>
<event>
 4    1  0.5784609E+003  0.3311229E+02  0.7546771E-02  0.1394343E+00
          2   -1    0    0  501    0  0.00000000000E+00  0.00000000000E+00  0.19782006508E+03  0.19782006508E+03  0.00000000000E+00 0. -1.
         -2   -1    0    0    0  501 -0.00000000000E+00 -0.00000000000E+00 -0.59148083932E+01  0.59148083932E+01  0.00000000000E+00 0. -1.
          2    1    1    2  502    0 -0.33095244931E+02  0.10623357637E+01  0.12150895991E+03  0.12593987110E+03  0.00000000000E+00 0. -1.
         -2    1    1    2    0  502  0.33095244931E+02 -0.10623357637E+01  0.70396296774E+02  0.77795002370E+02  0.00000000000E+00 0. -1.
</event>
<event>
 4    1  0.5784609E+003  0.2161315E+02  0.7546771E-02  0.1510688E+00
          2   -1    0    0  501    0  0.00000000000E+00  0.00000000000E+00  0.17537645491E+02  0.17537645491E+02  0.00000000000E+00 0.  1.
         -2   -1    0    0    0  501 -0.00000000000E+00 -0.00000000000E+00 -0.86638113823E+02  0.86638113823E+02  0.00000000000E+00 0.  1.
          2    1    1    2  502    0 -0.19980622087E+02  0.82403252930E+01  0.87974988166E+01  0.23335042433E+02  0.00000000000E+00 0.  1.
         -2    1    1    2    0  502  0.19980622087E+02 -0.82403252930E+01 -0.77897967148E+02  0.80840716880E+02  0.00000000000E+00 0.  1.
</event>
<event>
 4    1  0.5784609E+003  0.2134232E+02  0.7546771E-02  0.1514433E+00
          2   -1    0    0  501    0  0.00000000000E+00  0.00000000000E+00  0.16601988263E+04  0.16601988263E+04  0.00000000000E+00 0.  1.
         -2   -1    0    0    0  501 -0.00000000000E+00 -0.00000000000E+00 -0.53596553964E+00  0.53596553964E+00  0.00000000000E+00 0. -1.
          2    1    1    2  502    0  0.21265647488E+02  0.18074135075E+01  0.14099598543E+04  0.14101213725E+04  0.00000000000E+00 0.  1.
         -2    1    1    2    0  502 -0.21265647488E+02 -0.18074135075E+01  0.24970300652E+03  0.25061341938E+03  0.00000000000E+00 0. -1.
</event>
<event>
 4    1  0.5784609E+003  0.2187466E+02  0.7546771E-02  0.1507134E+00
          2   -1    0    0  501    0  0.00000000000E+00  0.00000000000E+00  0.92835210256E+01  0.92835210256E+01  0.00000000000E+00 0.  1.
         -2   -1    0    0    0  501 -0.00000000000E+00 -0.00000000000E+00 -0.27861190193E+03  0.27861190193E+03  0.00000000000E+00 0.  1.
          2    1    1    2  502    0  0.20872908798E+02 -0.65438940162E+01 -0.47119634448E+01  0.22376404315E+02  0.00000000000E+00 0.  1.
         -2    1    1    2    0  502 -0.20872908798E+02  0.65438940162E+01 -0.26461641746E+03  0.26551901864E+03  0.00000000000E+00 0.  1.
</event>
<event>
 4    1  0.5784609E+003  0.2187555E+02  0.7546771E-02  0.1507122E+00
          2   -1    0    0  501    0  0.00000000000E+00  0.00000000000E+00  0.57264527147E+03  0.57264527147E+03  0.00000000000E+00 0. -1.
         -2   -1    0    0    0  501 -0.00000000000E+00 -0.00000000000E+00 -0.65126752205E+01  0.65126752205E+01  0.00000000000E+00 0. -1.
          2    1    1    2  502    0 -0.21482067558E+02  0.41304281547E+01  0.55342923046E+03  0.55386140215E+03  0.00000000000E+00 0. -1.
         -2    1    1    2    0  502  0.21482067558E+02 -0.41304281547E+01  0.12703365787E+02  0.25296544539E+02  0.00000000000E+00 0. -1.
</event>
<event>
 4    1  0.5784609E+003  0.2369029E+02  0.7546771E-02  0.1484007E+00
          2   -1    0    0  501    0  0.00000000000E+00  0.00000000000E+00  0.54836257931E+01  0.54836257931E+01  0.00000000000E+00 0.  1.
         -2   -1    0    0    0  501 -0.00000000000E+00 -0.00000000000E+00 -0.91284440784E+03  0.91284440784E+03  0.00000000000E+00 0.  1.
          2    1    1    2  502    0  0.23623749092E+02 -0.17743366079E+01 -0.21021710469E+02  0.31672418642E+02  0.00000000000E+00 0.  1.
         -2    1    1    2    0  502 -0.23623749092E+02  0.17743366079E+01 -0.88633907157E+03  0.88665561499E+03  0.00000000000E+00 0.  1.
</event>
<event>
 4    1  0.5784609E+003  0.2443180E+02  0.7546771E-02  0.1475261E+00
          2   -1    0    0  501    0  0.00000000000E+00  0.00000000000E+00  0.53079880006E+02  0.53079880006E+02  0.00000000000E+00 0. -1.
         -2   -1    0    0    0  501 -0.00000000000E+00 -0.00000000000E+00 -0.26048980867E+02  0.26048980867E+02  0.00000000000E+00 0. -1.
          2    1    1    2  502    0  0.20951785325E+02  0.12567238714E+02  0.43341149361E+02  0.49753070509E+02  0.00000000000E+00 0. -1.
         -2    1    1    2    0  502 -0.20951785325E+02 -0.12567238714E+02 -0.16310250221E+02  0.29375790364E+02  0.00000000000E+00 0. -1.
</event>
<event>
 4    1  0.5784609E+003  0.5226152E+02  0.7546771E-02  0.1288654E+00
          2   -1    0    0  501    0  0.00000000000E+00  0.00000000000E+00  0.91492976119E+03  0.91492976119E+03  0.00000000000E+00 0. -1.
         -2   -1    0    0    0  501 -0.00000000000E+00 -0.00000000000E+00 -0.30845852509E+01  0.30845852509E+01  0.00000000000E+00 0. -1.
          2    1    1    2  502    0  0.21717515556E+02  0.47535394102E+02  0.37353833729E+03  0.37717655495E+03  0.00000000000E+00 0. -1.
         -2    1    1    2    0  502 -0.21717515556E+02 -0.47535394102E+02  0.53830683865E+03  0.54083779149E+03  0.00000000000E+00 0. -1.
</event>
<event>
 4    1  0.7032390E+003  0.3122911E+02  0.7546771E-02  0.1409208E+00
          2   -1    0    0  501    0  0.00000000000E+00  0.00000000000E+00  0.10910278673E+04  0.10910278673E+04  0.00000000000E+00 0.  1.
         -2   -1    0    0    0  501 -0.00000000000E+00 -0.00000000000E+00 -0.42224063579E+03  0.42224063579E+03  0.00000000000E+00 0.  1.
          2    1    1    2  502    0 -0.32897433389E+01  0.31055349392E+02  0.10902265411E+04  0.10906737221E+04  0.00000000000E+00 0.  1.
         -2    1    1    2    0  502  0.32897433389E+01 -0.31055349392E+02 -0.42143930966E+03  0.42259478093E+03  0.00000000000E+00 0.  1.
</event>
<event>
 4    1  0.5784609E+003  0.2724293E+02  0.7546771E-02  0.1445183E+00
          2   -1    0    0  501    0  0.00000000000E+00  0.00000000000E+00  0.16008418015E+04  0.16008418015E+04  0.00000000000E+00 0.  1.
         -2   -1    0    0    0  501 -0.00000000000E+00 -0.00000000000E+00 -0.18705306003E+02  0.18705306003E+02  0.00000000000E+00 0.  1.
          2    1    1    2  502    0 -0.20348504900E+02  0.18113957857E+02  0.15907435935E+04  0.15909768563E+04  0.00000000000E+00 0.  1.
         -2    1    1    2    0  502  0.20348504900E+02 -0.18113957857E+02 -0.86070979358E+01  0.28570251238E+02  0.00000000000E+00 0.  1.
</event>
<event>
 4    1  0.5784609E+003  0.2329602E+02  0.7546771E-02  0.1488814E+00
          2   -1    0    0  501    0  0.00000000000E+00  0.00000000000E+00  0.26496503415E+03  0.26496503415E+03  0.00000000000E+00 0.  1.
         -2   -1    0    0    0  501 -0.00000000000E+00 -0.00000000000E+00 -0.13110378588E+02  0.13110378588E+02  0.00000000000E+00 0. -1.
          2    1    1    2  502    0  0.17084078864E+02 -0.15837892602E+02  0.25364325870E+03  0.25471083070E+03  0.00000000000E+00 0.  1.
         -2    1    1    2    0  502 -0.17084078864E+02  0.15837892602E+02 -0.17886031348E+01  0.23364582039E+02  0.00000000000E+00 0. -1.
</event>
<event>
 4    1  0.5784609E+003  0.3624134E+02  0.7546771E-02  0.1372040E+00
          2   -1    0    0  501    0  0.00000000000E+00  0.00000000000E+00  0.67407587676E+03  0.67407587676E+03  0.00000000000E+00 0. -1.
         -2   -1    0    0    0  501 -0.00000000000E+00 -0.00000000000E+00 -0.43532022850E+01  0.43532022850E+01  0.00000000000E+00 0.  1.
          2    1    1    2  502    0  0.36184170451E+02  0.20348291429E+01  0.58697766767E+03  0.58809541493E+03  0.00000000000E+00 0. -1.
         -2    1    1    2    0  502 -0.36184170451E+02 -0.20348291429E+01  0.82745006802E+02  0.90333664110E+02  0.00000000000E+00 0.  1.
</event>
<event>
 4    1  0.5784609E+003  0.2016380E+02  0.7546771E-02  0.1531546E+00
          2   -1    0    0  501    0  0.00000000000E+00  0.00000000000E+00  0.72236059310E+03  0.72236059310E+03  0.00000000000E+00 0. -1.
         -2   -1    0    0    0  501 -0.00000000000E+00 -0.00000000000E+00 -0.11747649126E+01  0.11747649126E+01  0.00000000000E+00 0.  1.
          2    1    1    2  502    0 -0.16741832893E+02 -0.11237882390E+02  0.62168916112E+03  0.62201607055E+03  0.00000000000E+00 0. -1.
         -2    1    1    2    0  502  0.16741832893E+02  0.11237882390E+02  0.99496667066E+02  0.10151928746E+03  0.00000000000E+00 0.  1.
</event>
<event>
 4    1  0.5784609E+003  0.2097198E+02  0.7546771E-02  0.1519665E+00
          2   -1    0    0  501    0  0.00000000000E+00  0.00000000000E+00  0.11824568707E+03  0.11824568707E+03  0.00000000000E+00 0. -1.
         -2   -1    0    0    0  501 -0.00000000000E+00 -0.00000000000E+00 -0.24027257309E+02  0.24027257309E+02  0.00000000000E+00 0.  1.
          2    1    1    2  502    0  0.81616350561E+01  0.19318683664E+02  0.11250810730E+03  0.11444604858E+03  0.00000000000E+00 0. -1.
         -2    1    1    2    0  502 -0.81616350561E+01 -0.19318683664E+02 -0.18289677544E+02  0.27826895802E+02  0.00000000000E+00 0.  1.
</event>
<event>
 4    1  0.5784609E+003  0.2099289E+02  0.7546771E-02  0.1519366E+00
          2   -1    0    0  501    0  0.00000000000E+00  0.00000000000E+00  0.13322503504E+04  0.13322503504E+04  0.00000000000E+00 0. -1.
         -2   -1    0    0    0  501 -0.00000000000E+00 -0.00000000000E+00 -0.83150018355E+02  0.83150018355E+02  0.00000000000E+00 0.  1.
          2    1    1    2  502    0 -0.19157711786E+02  0.85838994628E+01  0.13308412304E+04  0.13310067925E+04  0.00000000000E+00 0. -1.
         -2    1    1    2    0  502  0.19157711786E+02 -0.85838994628E+01 -0.81740898331E+02  0.84393576241E+02  0.00000000000E+00 0.  1.
</event>
<event>
 4    1  0.5784609E+003  0.3996340E+02  0.7546771E-02  0.1348700E+00
          2   -1    0    0  501    0  0.00000000000E+00  0.00000000000E+00  0.10520855365E+02  0.10520855365E+02  0.00000000000E+00 0. -1.
         -2   -1    0    0    0  501 -0.00000000000E+00 -0.00000000000E+00 -0.15244870363E+03  0.15244870363E+03  0.00000000000E+00 0.  1.
          2    1    1    2  502    0  0.22616982758E+02 -0.32947592617E+02 -0.76277039302E+02  0.86111895189E+02  0.00000000000E+00 0.  1.
         -2    1    1    2    0  502 -0.22616982758E+02  0.32947592617E+02 -0.65650808964E+02  0.76857663807E+02  0.00000000000E+00 0. -1.
</event>
<event>
 4    1  0.5784609E+003  0.2044483E+02  0.7546771E-02  0.1527341E+00
          2   -1    0    0  501    0  0.00000000000E+00  0.00000000000E+00  0.49753511907E+03  0.49753511907E+03  0.00000000000E+00 0.  1.
         -2   -1    0    0    0  501 -0.00000000000E+00 -0.00000000000E+00 -0.12159761422E+01  0.12159761422E+01  0.00000000000E+00 0. -1.
          2    1    1    2  502    0 -0.16529423279E+02  0.12032012544E+02  0.38680319320E+03  0.38734313138E+03  0.00000000000E+00 0.  1.
         -2    1    1    2    0  502  0.16529423279E+02 -0.12032012544E+02  0.10951594973E+03  0.11140796383E+03  0.00000000000E+00 0. -1.
</event>
<event>
 4    1  0.5784609E+003  0.4744740E+02  0.7546771E-02  0.1309636E+00
          2   -1    0    0  501    0  0.00000000000E+00  0.00000000000E+00  0.11209918131E+04  0.11209918131E+04  0.00000000000E+00 0. -1.
         -2   -1    0    0    0  501 -0.00000000000E+00 -0.00000000000E+00 -0.28012666622E+01  0.28012666622E+01  0.00000000000E+00 0. -1.
          2    1    1    2  502    0  0.19511515418E+02 -0.43249931698E+02  0.85805619290E+03  0.85936702636E+03  0.00000000000E+00 0. -1.
         -2    1    1    2    0  502 -0.19511515418E+02  0.43249931698E+02  0.26013435354E+03  0.26442605341E+03  0.00000000000E+00 0. -1.
</event>
<event>
 4    1  0.5784609E+003  0.2275824E+02  0.7546771E-02  0.1495556E+00
          2   -1    0    0  501    0  0.00000000000E+00  0.00000000000E+00  0.40017122421E+03  0.40017122421E+03  0.00000000000E+00 0. -1.
         -2   -1    0    0    0  501 -0.00000000000E+00 -0.00000000000E+00 -0.57999746332E+02  0.57999746332E+02  0.00000000000E+00 0.  1.
          2    1    1    2  502    0 -0.13960878884E+02  0.17973077844E+02  0.39760073064E+03  0.39825152689E+03  0.00000000000E+00 0. -1.
         -2    1    1    2    0  502  0.13960878884E+02 -0.17973077844E+02 -0.55429252758E+02  0.59919443653E+02  0.00000000000E+00 0.  1.
</event>
<event>
 4    1  0.5784609E+003  0.2161662E+02  0.7546771E-02  0.1510640E+00
          2   -1    0    0  501    0  0.00000000000E+00  0.00000000000E+00  0.21119446598E+03  0.21119446598E+03  0.00000000000E+00 0. -1.
         -2   -1    0    0    0  501 -0.00000000000E+00 -0.00000000000E+00 -0.22164889800E+01  0.22164889800E+01  0.00000000000E+00 0. -1.
          2    1    1    2  502    0 -0.18228285336E+02 -0.11619290512E+02  0.10898730853E+03  0.11111035829E+03  0.00000000000E+00 0. -1.
         -2    1    1    2    0  502  0.18228285336E+02  0.11619290512E+02  0.99990668465E+02  0.10230059667E+03  0.00000000000E+00 0. -1.
</event>
<event>
 4    1  0.5784609E+003  0.2245125E+02  0.7546771E-02  0.1499506E+00
          2   -1    0    0  501    0  0.00000000000E+00  0.00000000000E+00  0.23280197592E+03  0.23280197592E+03  0.00000000000E+00 0.  1.
         -2   -1    0    0    0  501 -0.00000000000E+00 -0.00000000000E+00 -0.60234456900E+02  0.60234456900E+02  0.00000000000E+00 0. -1.
          2    1    1    2  502    0 -0.18562426152E+02  0.12629124064E+02  0.23014451237E+03  0.23123701047E+03  0.00000000000E+00 0.  1.
         -2    1    1    2    0  502  0.18562426152E+02 -0.12629124064E+02 -0.57576993348E+02  0.61799422346E+02  0.00000000000E+00 0. -1.
</event>
<event>
 4    1  0.5784609E+003  0.3510347E+02  0.7546771E-02  0.1379837E+00
          2   -1    0    0  501    0  0.00000000000E+00  0.00000000000E+00  0.94961079693E+02  0.94961079693E+02  0.00000000000E+00 0.  1.
         -2   -1    0    0    0  501 -0.00000000000E+00 -0.00000000000E+00 -0.43474109647E+02  0.43474109647E+02  0.00000000000E+00 0. -1.
          2    1    1    2  502    0 -0.33489881052E+02 -0.10520528846E+02  0.83717678424E+02  0.90779421351E+02  0.00000000000E+00 0.  1.
         -2    1    1    2    0  502  0.33489881052E+02  0.10520528846E+02 -0.32230708378E+02  0.47655767989E+02  0.00000000000E+00 0. -1.
</event>
<event>
 4    1  0.5784609E+003  0.2511421E+02  0.7546771E-02  0.1467530E+00
          2   -1    0    0  501    0  0.00000000000E+00  0.00000000000E+00  0.62085068600E+03  0.62085068600E+03  0.00000000000E+00 0.  1.
         -2   -1    0    0    0  501 -0.00000000000E+00 -0.00000000000E+00 -0.13460196617E+02  0.13460196617E+02  0.00000000000E+00 0. -1.
          2    1    1    2  502    0 -0.25104697974E+02 -0.69120903064E+00  0.60864732626E+03  0.60916524146E+03  0.00000000000E+00 0.  1.
         -2    1    1    2    0  502  0.25104697974E+02  0.69120903064E+00 -0.12568368835E+01  0.25145641158E+02  0.00000000000E+00 0. -1.
</event>
<event>
 4    1  0.5784609E+003  0.3335133E+02  0.7546771E-02  0.1392540E+00
          2   -1    0    0  501    0  0.00000000000E+00  0.00000000000E+00  0.74803560440E+03  0.74803560440E+03  0.00000000000E+00 0. -1.
         -2   -1    0    0    0  501 -0.00000000000E+00 -0.00000000000E+00 -0.30044132235E+01  0.30044132235E+01  0.00000000000E+00 0. -1.
          2    1    1    2  502    0  0.22763348261E+02 -0.24375016002E+02  0.63939098918E+03  0.64026021934E+03  0.00000000000E+00 0. -1.
         -2    1    1    2    0  502 -0.22763348261E+02  0.24375016002E+02  0.10564020200E+03  0.11077979828E+03  0.00000000000E+00 0. -1.
</event>
<event>
 4    1  0.5784609E+003  0.2000992E+02  0.7546771E-02  0.1533884E+00
          2   -1    0    0  501    0  0.00000000000E+00  0.00000000000E+00  0.18074618716E+03  0.18074618716E+03  0.00000000000E+00 0. -1.
         -2   -1    0    0    0  501 -0.00000000000E+00 -0.00000000000E+00 -0.22255167860E+02  0.22255167860E+02  0.00000000000E+00 0. -1.
          2    1    1    2  502    0  0.16302761299E+02  0.11602451587E+02  0.17556219702E+03  0.17669884530E+03  0.00000000000E+00 0. -1.
         -2    1    1    2    0  502 -0.16302761299E+02 -0.11602451587E+02 -0.17071177718E+02  0.26302509718E+02  0.00000000000E+00 0. -1.
</event>
<event>
 4    1  0.5784609E+003  0.2222806E+02  0.7546771E-02  0.1502426E+00
          2   -1    0    0  501    0  0.00000000000E+00  0.00000000000E+00  0.33930718383E+03  0.33930718383E+03  0.00000000000E+00 0.  1.
         -2   -1    0    0    0  501 -0.00000000000E+00 -0.00000000000E+00 -0.63913817933E+01  0.63913817933E+01  0.00000000000E+00 0. -1.
          2    1    1    2  502    0  0.18945240112E+02 -0.11626031162E+02  0.31834587408E+03  0.31912095241E+03  0.00000000000E+00 0.  1.
         -2    1    1    2    0  502 -0.18945240112E+02  0.11626031162E+02  0.14569927958E+02  0.26577613215E+02  0.00000000000E+00 0. -1.
</event>
<event>
 4    1  0.5784609E+003  0.2339914E+02  0.7546771E-02  0.1487546E+00
          2   -1    0    0  501    0  0.00000000000E+00  0.00000000000E+00  0.24045320008E+03  0.24045320008E+03  0.00000000000E+00 0.  1.
         -2   -1    0    0    0  501 -0.00000000000E+00 -0.00000000000E+00 -0.60300918713E+01  0.60300918713E+01  0.00000000000E+00 0. -1.
          2    1    1    2  502    0  0.10974324930E+02 -0.20666010357E+02  0.21443885581E+03  0.21571171195E+03  0.00000000000E+00 0.  1.
         -2    1    1    2    0  502 -0.10974324930E+02  0.20666010357E+02  0.19984252399E+02  0.30771580000E+02  0.00000000000E+00 0. -1.
</event>
<event>
 4    1  0.5784609E+003  0.6926660E+02  0.7546771E-02  0.1231230E+00
          2   -1    0    0  501    0  0.00000000000E+00  0.00000000000E+00  0.51746888510E+03  0.51746888510E+03  0.00000000000E+00 0. -1.
         -2   -1    0    0    0  501 -0.00000000000E+00 -0.00000000000E+00 -0.13113422288E+02  0.13113422288E+02  0.00000000000E+00 0. -1.
          2    1    1    2  502    0  0.69022681988E+02 -0.58078552027E+01  0.39576725452E+03  0.40178300308E+03  0.00000000000E+00 0. -1.
         -2    1    1    2    0  502 -0.69022681988E+02  0.58078552027E+01  0.10858820829E+03  0.12879930431E+03  0.00000000000E+00 0. -1.
</event>
<event>
 4    1  0.5784609E+003  0.2907652E+02  0.7546771E-02  0.1427795E+00
          2   -1    0    0  501    0  0.00000000000E+00  0.00000000000E+00  0.10513831752E+03  0.10513831752E+03  0.00000000000E+00 0. -1.
         -2   -1    0    0    0  501 -0.00000000000E+00 -0.00000000000E+00 -0.82852213405E+01  0.82852213405E+01  0.00000000000E+00 0. -1.
          2    1    1    2  502    0  0.27335337628E+02 -0.99107746852E+01  0.58158167337E+02  0.65021662284E+02  0.00000000000E+00 0. -1.
         -2    1    1    2    0  502 -0.27335337628E+02  0.99107746852E+01  0.38694928844E+02  0.48401876578E+02  0.00000000000E+00 0. -1.
</event>
<event>
 4    1  0.5784609E+003  0.2021469E+02  0.7546771E-02  0.1530779E+00
          2   -1    0    0  501    0  0.00000000000E+00  0.00000000000E+00  0.21445411170E+03  0.21445411170E+03  0.00000000000E+00 0. -1.
         -2   -1    0    0    0  501 -0.00000000000E+00 -0.00000000000E+00 -0.16637145470E+02  0.16637145470E+02  0.00000000000E+00 0. -1.
          2    1    1    2  502    0  0.20094107147E+02  0.22047092790E+01  0.20763621310E+03  0.20861790642E+03  0.00000000000E+00 0. -1.
         -2    1    1    2    0  502 -0.20094107147E+02 -0.22047092790E+01 -0.98192468724E+01  0.22473350756E+02  0.00000000000E+00 0. -1.
</event>
<event>
 4    1  0.5784609E+003  0.3297803E+02  0.7546771E-02  0.1395364E+00
          2   -1    0    0  501    0  0.00000000000E+00  0.00000000000E+00  0.10954833645E+04  0.10954833645E+04  0.00000000000E+00 0. -1.
         -2   -1    0    0    0  501 -0.00000000000E+00 -0.00000000000E+00 -0.17048838594E+01  0.17048838594E+01  0.00000000000E+00 0. -1.
          2    1    1    2  502    0 -0.32467379319E+02  0.57809646641E+01  0.90144293844E+03  0.90204596421E+03  0.00000000000E+00 0. -1.
         -2    1    1    2    0  502  0.32467379319E+02 -0.57809646641E+01  0.19233554224E+03  0.19514228420E+03  0.00000000000E+00 0. -1.
</event>
<event>
 4    1  0.5784609E+003  0.2072072E+02  0.7546771E-02  0.1523290E+00
          2   -1    0    0  501    0  0.00000000000E+00  0.00000000000E+00  0.72070053111E+03  0.72070053111E+03  0.00000000000E+00 0.  1.
         -2   -1    0    0    0  501 -0.00000000000E+00 -0.00000000000E+00 -0.87302010542E+03  0.87302010542E+03  0.00000000000E+00 0.  1.
          2    1    1    2  502    0 -0.95285804143E+01 -0.18399851613E+02  0.72042860115E+03  0.72072652077E+03  0.00000000000E+00 0.  1.
         -2    1    1    2    0  502  0.95285804143E+01  0.18399851613E+02 -0.87274817547E+03  0.87299411577E+03  0.00000000000E+00 0.  1.
</event>
<event>
 4    1  0.5784609E+003  0.3301539E+02  0.7546771E-02  0.1395079E+00
          2   -1    0    0  501    0  0.00000000000E+00  0.00000000000E+00  0.60639745175E+03  0.60639745175E+03  0.00000000000E+00 0.  1.
         -2   -1    0    0    0  501 -0.00000000000E+00 -0.00000000000E+00 -0.54780619372E+02  0.54780619372E+02  0.00000000000E+00 0. -1.
          2    1    1    2  502    0 -0.23341190974E+02 -0.23349626295E+02  0.60092836997E+03  0.60183463017E+03  0.00000000000E+00 0.  1.
         -2    1    1    2    0  502  0.23341190974E+02  0.23349626295E+02 -0.49311537589E+02  0.59343440949E+02  0.00000000000E+00 0. -1.
</event>
<event>
 4    1  0.5784609E+003  0.5016453E+02  0.7546771E-02  0.1297461E+00
          2   -1    0    0  501    0  0.00000000000E+00  0.00000000000E+00  0.40180821573E+03  0.40180821573E+03  0.00000000000E+00 0.  1.
         -2   -1    0    0    0  501 -0.00000000000E+00 -0.00000000000E+00 -0.73272468179E+02  0.73272468179E+02  0.00000000000E+00 0. -1.
          2    1    1    2  502    0 -0.36091181456E+01  0.50034530612E+02  0.39142973286E+03  0.39463111352E+03  0.00000000000E+00 0.  1.
         -2    1    1    2    0  502  0.36091181456E+01 -0.50034530612E+02 -0.62893985313E+02  0.80449570390E+02  0.00000000000E+00 0. -1.
</event>
<event>
 4    1  0.5816205E+003  0.3244668E+02  0.7546771E-02  0.1399461E+00
          2   -1    0    0  501    0  0.00000000000E+00  0.00000000000E+00  0.95113332277E+03  0.95113332277E+03  0.00000000000E+00 0. -1.
         -2   -1    0    0    0  501 -0.00000000000E+00 -0.00000000000E+00 -0.18970761331E+03  0.18970761331E+03  0.00000000000E+00 0. -1.
          2    1    1    2  502    0  0.18202155113E+02 -0.26860164605E+02  0.94946678832E+03  0.95002103609E+03  0.00000000000E+00 0. -1.
         -2    1    1    2    0  502 -0.18202155113E+02  0.26860164605E+02 -0.18804107886E+03  0.19081989999E+03  0.00000000000E+00 0. -1.
</event>
<event>
 4    1  0.5784609E+003  0.5280668E+02  0.7546771E-02  0.1286442E+00
          2   -1    0    0  501    0  0.00000000000E+00  0.00000000000E+00  0.79458143085E+02  0.79458143085E+02  0.00000000000E+00 0. -1.
         -2   -1    0    0    0  501 -0.00000000000E+00 -0.00000000000E+00 -0.82722853637E+02  0.82722853637E+02  0.00000000000E+00 0.  1.
          2    1    1    2  502    0 -0.51011448753E+02 -0.13652018131E+02  0.59898068034E+02  0.79851888250E+02  0.00000000000E+00 0. -1.
         -2    1    1    2    0  502  0.51011448753E+02  0.13652018131E+02 -0.63162778586E+02  0.82329108471E+02  0.00000000000E+00 0.  1.
</event>
<event>
 4    1  0.5784609E+003  0.2328795E+02  0.7546771E-02  0.1488914E+00
          2   -1    0    0  501    0  0.00000000000E+00  0.00000000000E+00  0.20365238105E+04  0.20365238105E+04  0.00000000000E+00 0.  1.
         -2   -1    0    0    0  501 -0.00000000000E+00 -0.00000000000E+00 -0.38136238684E+00  0.38136238684E+00  0.00000000000E+00 0.  1.
          2    1    1    2  502    0 -0.10046491276E+02  0.21009442322E+02  0.15774891601E+04  0.15776610469E+04  0.00000000000E+00 0.  1.
         -2    1    1    2    0  502  0.10046491276E+02 -0.21009442322E+02  0.45865328801E+03  0.45924412599E+03  0.00000000000E+00 0.  1.
</event>
<event>
 4    1  0.5784609E+003  0.2240023E+02  0.7546771E-02  0.1500170E+00
          2   -1    0    0  501    0  0.00000000000E+00  0.00000000000E+00  0.46453975277E+02  0.46453975277E+02  0.00000000000E+00 0.  1.
         -2   -1    0    0    0  501 -0.00000000000E+00 -0.00000000000E+00 -0.37933129608E+03  0.37933129608E+03  0.00000000000E+00 0. -1.
          2    1    1    2  502    0 -0.19769784468E+02 -0.10532135767E+02  0.43401028885E+02  0.48840757263E+02  0.00000000000E+00 0.  1.
         -2    1    1    2    0  502  0.19769784468E+02  0.10532135767E+02 -0.37627834968E+03  0.37694451409E+03  0.00000000000E+00 0. -1.
</event>
<event>
 4    1  0.5784609E+003  0.2606900E+02  0.7546771E-02  0.1457191E+00
          2   -1    0    0  501    0  0.00000000000E+00  0.00000000000E+00  0.13146484162E+04  0.13146484162E+04  0.00000000000E+00 0.  1.
         -2   -1    0    0    0  501 -0.00000000000E+00 -0.00000000000E+00 -0.50335384957E+01  0.50335384957E+01  0.00000000000E+00 0. -1.
          2    1    1    2  502    0 -0.65239390833E+01  0.25239473917E+02  0.12798482631E+04  0.12801137330E+04  0.00000000000E+00 0.  1.
         -2    1    1    2    0  502  0.65239390833E+01 -0.25239473917E+02  0.29766614639E+02  0.39568221742E+02  0.00000000000E+00 0. -1.
</event>
<event>
 4    1  0.5784609E+003  0.9287440E+02  0.7546771E-02  0.1176763E+00
          2   -1    0    0  501    0  0.00000000000E+00  0.00000000000E+00  0.15492836692E+04  0.15492836692E+04  0.00000000000E+00 0.  1.
         -2   -1    0    0    0  501 -0.00000000000E+00 -0.00000000000E+00 -0.57428386159E+01  0.57428386159E+01  0.00000000000E+00 0.  1.
          2    1    1    2  502    0 -0.10840420474E+02 -0.92239527679E+02  0.63591510963E+03  0.64266139750E+03  0.00000000000E+00 0.  1.
         -2    1    1    2    0  502  0.10840420474E+02  0.92239527679E+02  0.90762572099E+03  0.91236511035E+03  0.00000000000E+00 0.  1.
</event>
<event>
 4    1  0.5784609E+003  0.3440746E+02  0.7546771E-02  0.1384777E+00
          2   -1    0    0  501    0  0.00000000000E+00  0.00000000000E+00  0.41957848797E+03  0.41957848797E+03  0.00000000000E+00 0.  1.
         -2   -1    0    0    0  501 -0.00000000000E+00 -0.00000000000E+00 -0.92217194648E+02  0.92217194648E+02  0.00000000000E+00 0.  1.
          2    1    1    2  502    0 -0.33303496323E+02  0.86458342047E+01  0.41563321049E+03  0.41705495918E+03  0.00000000000E+00 0.  1.
         -2    1    1    2    0  502  0.33303496323E+02 -0.86458342047E+01 -0.88271917168E+02  0.94740723435E+02  0.00000000000E+00 0.  1.
</event>
<event>
 4    1  0.6300741E+003  0.2246953E+02  0.7546771E-02  0.1499269E+00
          2   -1    0    0  501    0  0.00000000000E+00  0.00000000000E+00  0.78733362160E+03  0.78733362160E+03  0.00000000000E+00 0.  1.
         -2   -1    0    0    0  501 -0.00000000000E+00 -0.00000000000E+00 -0.55952222354E+03  0.55952222354E+03  0.00000000000E+00 0. -1.
          2    1    1    2  502    0  0.22469512373E+02 -0.30624251780E-01  0.78694761247E+03  0.78726833081E+03  0.00000000000E+00 0.  1.
         -2    1    1    2    0  502 -0.22469512373E+02  0.30624251780E-01 -0.55913621442E+03  0.55958751433E+03  0.00000000000E+00 0. -1.
</event>
<event>
 4    1  0.5784609E+003  0.2336403E+02  0.7546771E-02  0.1487977E+00
          2   -1    0    0  501    0  0.00000000000E+00  0.00000000000E+00  0.41575340661E+03  0.41575340661E+03  0.00000000000E+00 0.  1.
         -2   -1    0    0    0  501 -0.00000000000E+00 -0.00000000000E+00 -0.15816967198E+01  0.15816967198E+01  0.00000000000E+00 0.  1.
          2    1    1    2  502    0 -0.11373418395E+01  0.23336333483E+02  0.29309340527E+03  0.29402316612E+03  0.00000000000E+00 0.  1.
         -2    1    1    2    0  502  0.11373418395E+01 -0.23336333483E+02  0.12107830462E+03  0.12331193721E+03  0.00000000000E+00 0.  1.
</event>
<event>
 4    1  0.5784609E+003  0.2183905E+02  0.7546771E-02  0.1507614E+00
          2   -1    0    0  501    0  0.00000000000E+00  0.00000000000E+00  0.55330566173E+03  0.55330566173E+03  0.00000000000E+00 0. -1.
         -2   -1    0    0    0  501 -0.00000000000E+00 -0.00000000000E+00 -0.90568107320E+00  0.90568107320E+00  0.00000000000E+00 0. -1.
          2    1    1    2  502    0 -0.18725052090E+02  0.11239070170E+02  0.33706268689E+03  0.33776944677E+03  0.00000000000E+00 0. -1.
         -2    1    1    2    0  502  0.18725052090E+02 -0.11239070170E+02  0.21533729377E+03  0.21644189604E+03  0.00000000000E+00 0. -1.
</event>
<event>
 4    1  0.5784609E+003  0.2598999E+02  0.7546771E-02  0.1458026E+00
          2   -1    0    0  501    0  0.00000000000E+00  0.00000000000E+00  0.28357429434E+03  0.28357429434E+03  0.00000000000E+00 0. -1.
         -2   -1    0    0    0  501 -0.00000000000E+00 -0.00000000000E+00 -0.57583456123E+01  0.57583456123E+01  0.00000000000E+00 0. -1.
          2    1    1    2  502    0  0.22810291394E+01  0.25889699072E+02  0.24968271413E+03  0.25103174570E+03  0.00000000000E+00 0. -1.
         -2    1    1    2    0  502 -0.22810291394E+01 -0.25889699072E+02  0.28133234601E+02  0.38300894260E+02  0.00000000000E+00 0. -1.
</event>
<event>
 4    1  0.5784609E+003  0.2959109E+02  0.7546771E-02  0.1423184E+00
          2   -1    0    0  501    0  0.00000000000E+00  0.00000000000E+00  0.74413398860E+03  0.74413398860E+03  0.00000000000E+00 0. -1.
         -2   -1    0    0    0  501 -0.00000000000E+00 -0.00000000000E+00 -0.13386668204E+01  0.13386668204E+01  0.00000000000E+00 0. -1.
          2    1    1    2  502    0 -0.21472480047E+01  0.29513076300E+02  0.50104413061E+03  0.50191717760E+03  0.00000000000E+00 0. -1.
         -2    1    1    2    0  502  0.21472480047E+01 -0.29513076300E+02  0.24175119117E+03  0.24355547783E+03  0.00000000000E+00 0. -1.
</event>
<event>
 4    1  0.5784609E+003  0.2094019E+02  0.7546771E-02  0.1520120E+00
          2   -1    0    0  501    0  0.00000000000E+00  0.00000000000E+00  0.20495969861E+03  0.20495969861E+03  0.00000000000E+00 0. -1.
         -2   -1    0    0    0  501 -0.00000000000E+00 -0.00000000000E+00 -0.43811522441E+01  0.43811522441E+01  0.00000000000E+00 0. -1.
          2    1    1    2  502    0 -0.84108783555E+01  0.19176778915E+02  0.17516191838E+03  0.17640915332E+03  0.00000000000E+00 0. -1.
         -2    1    1    2    0  502  0.84108783555E+01 -0.19176778915E+02  0.25416627981E+02  0.32931697529E+02  0.00000000000E+00 0. -1.
</event>
<event>
 4    1  0.5784609E+003  0.2752700E+02  0.7546771E-02  0.1442385E+00
          2   -1    0    0  501    0  0.00000000000E+00  0.00000000000E+00  0.90558533668E+02  0.90558533668E+02  0.00000000000E+00 0.  1.
         -2   -1    0    0    0  501 -0.00000000000E+00 -0.00000000000E+00 -0.63880812008E+02  0.63880812008E+02  0.00000000000E+00 0.  1.
          2    1    1    2  502    0  0.25819895939E+02  0.95429859175E+01  0.85323837948E+02  0.89654296767E+02  0.00000000000E+00 0.  1.
         -2    1    1    2    0  502 -0.25819895939E+02 -0.95429859175E+01 -0.58646116288E+02  0.64785048909E+02  0.00000000000E+00 0.  1.
</event>
<event>
 4    1  0.5784609E+003  0.3412292E+02  0.7546771E-02  0.1386836E+00
          2   -1    0    0  501    0  0.00000000000E+00  0.00000000000E+00  0.31920794771E+03  0.31920794771E+03  0.00000000000E+00 0.  1.
         -2   -1    0    0    0  501 -0.00000000000E+00 -0.00000000000E+00 -0.10337251806E+02  0.10337251806E+02  0.00000000000E+00 0.  1.
          2    1    1    2  502    0  0.14225604842E+01 -0.34093257341E+02  0.28698575149E+03  0.28900725844E+03  0.00000000000E+00 0.  1.
         -2    1    1    2    0  502 -0.14225604842E+01  0.34093257341E+02  0.21884944416E+02  0.40537941074E+02  0.00000000000E+00 0.  1.
</event>
<event>
 4    1  0.5784609E+003  0.7590349E+02  0.7546771E-02  0.1213691E+00
          2   -1    0    0  501    0  0.00000000000E+00  0.00000000000E+00  0.26040996793E+03  0.26040996793E+03  0.00000000000E+00 0. -1.
         -2   -1    0    0    0  501 -0.00000000000E+00 -0.00000000000E+00 -0.45777077164E+02  0.45777077164E+02  0.00000000000E+00 0.  1.
          2    1    1    2  502    0 -0.65198363673E+02 -0.38865317115E+02  0.21736277824E+03  0.23023448236E+03  0.00000000000E+00 0. -1.
         -2    1    1    2    0  502  0.65198363673E+02  0.38865317115E+02 -0.27298874818E+01  0.75952562734E+02  0.00000000000E+00 0.  1.
</event>
<event>
 4    1  0.5784609E+003  0.3020197E+02  0.7546771E-02  0.1417849E+00
          2   -1    0    0  501    0  0.00000000000E+00  0.00000000000E+00  0.21648247542E+03  0.21648247542E+03  0.00000000000E+00 0. -1.
         -2   -1    0    0    0  501 -0.00000000000E+00 -0.00000000000E+00 -0.16448493892E+02  0.16448493892E+02  0.00000000000E+00 0.  1.
          2    1    1    2  502    0  0.12583435498E+02 -0.27455712877E+02  0.20046358570E+03  0.20272594360E+03  0.00000000000E+00 0. -1.
         -2    1    1    2    0  502 -0.12583435498E+02  0.27455712877E+02 -0.42960416771E+00  0.30205025712E+02  0.00000000000E+00 0.  1.
</event>
<event>
 4    1  0.5784609E+003  0.2723706E+02  0.7546771E-02  0.1445241E+00
          2   -1    0    0  501    0  0.00000000000E+00  0.00000000000E+00  0.19985531259E+04  0.19985531259E+04  0.00000000000E+00 0. -1.
         -2   -1    0    0    0  501 -0.00000000000E+00 -0.00000000000E+00 -0.99601148496E+02  0.99601148496E+02  0.00000000000E+00 0. -1.
          2    1    1    2  502    0 -0.16470558691E+02 -0.21692818230E+02  0.19965964308E+04  0.19967822027E+04  0.00000000000E+00 0. -1.
         -2    1    1    2    0  502  0.16470558691E+02  0.21692818230E+02 -0.97644453316E+02  0.10137207174E+03  0.00000000000E+00 0. -1.
</event>
<event>
 4    1  0.5784609E+003  0.2078528E+02  0.7546771E-02  0.1522353E+00
          2   -1    0    0  501    0  0.00000000000E+00  0.00000000000E+00  0.47787497378E+01  0.47787497378E+01  0.00000000000E+00 0.  1.
         -2   -1    0    0    0  501 -0.00000000000E+00 -0.00000000000E+00 -0.10230526298E+03  0.10230526298E+03  0.00000000000E+00 0.  1.
          2    1    1    2  502    0  0.47142048121E+01  0.20243608288E+02 -0.67023502504E+02  0.70172482437E+02  0.00000000000E+00 0.  1.
         -2    1    1    2    0  502 -0.47142048121E+01 -0.20243608288E+02 -0.30503010736E+02  0.36911530278E+02  0.00000000000E+00 0.  1.
</event>
<event>
 4    1  0.5784609E+003  0.2336120E+02  0.7546771E-02  0.1488012E+00
          2   -1    0    0  501    0  0.00000000000E+00  0.00000000000E+00  0.41336751216E+03  0.41336751216E+03  0.00000000000E+00 0.  1.
         -2   -1    0    0    0  501 -0.00000000000E+00 -0.00000000000E+00 -0.48331300745E+01  0.48331300745E+01  0.00000000000E+00 0. -1.
          2    1    1    2  502    0 -0.33198652870E+01  0.23124106788E+02  0.38253483073E+03  0.38324749515E+03  0.00000000000E+00 0.  1.
         -2    1    1    2    0  502  0.33198652870E+01 -0.23124106788E+02  0.25999551363E+02  0.34953147088E+02  0.00000000000E+00 0. -1.
</event>
<event>
 4    1  0.5784609E+003  0.2559378E+02  0.7546771E-02  0.1462269E+00
          2   -1    0    0  501    0  0.00000000000E+00  0.00000000000E+00  0.10101404332E+04  0.10101404332E+04  0.00000000000E+00 0.  1.
         -2   -1    0    0    0  501 -0.00000000000E+00 -0.00000000000E+00 -0.74627367428E+00  0.74627367428E+00  0.00000000000E+00 0.  1.
          2    1    1    2  502    0  0.17336767960E+02  0.18827581395E+02  0.68768007579E+03  0.68815617993E+03  0.00000000000E+00 0.  1.
         -2    1    1    2    0  502 -0.17336767960E+02 -0.18827581395E+02  0.32171408375E+03  0.32273052695E+03  0.00000000000E+00 0.  1.
</event>
<event>
 4    1  0.5784609E+003  0.3104032E+02  0.7546771E-02  0.1410766E+00
          2   -1    0    0  501    0  0.00000000000E+00  0.00000000000E+00  0.22668022661E+03  0.22668022661E+03  0.00000000000E+00 0. -1.
         -2   -1    0    0    0  501 -0.00000000000E+00 -0.00000000000E+00 -0.22849715719E+03  0.22849715719E+03  0.00000000000E+00 0. -1.
          2    1    1    2  502    0 -0.20322003465E+02  0.23463111549E+02  0.22455349580E+03  0.22668871588E+03  0.00000000000E+00 0. -1.
         -2    1    1    2    0  502  0.20322003465E+02 -0.23463111549E+02 -0.22637042638E+03  0.22848866792E+03  0.00000000000E+00 0. -1.
</event>
<event>
 4    1  0.5784609E+003  0.2000131E+02  0.7546771E-02  0.1534015E+00
          2   -1    0    0  501    0  0.00000000000E+00  0.00000000000E+00  0.29440604589E+03  0.29440604589E+03  0.00000000000E+00 0. -1.
         -2   -1    0    0    0  501 -0.00000000000E+00 -0.00000000000E+00 -0.49852763700E+01  0.49852763700E+01  0.00000000000E+00 0. -1.
          2    1    1    2  502    0  0.18170831871E+02 -0.83590315111E+01  0.27238491017E+03  0.27311827442E+03  0.00000000000E+00 0. -1.
         -2    1    1    2    0  502 -0.18170831871E+02  0.83590315111E+01  0.17035859358E+02  0.26273047839E+02  0.00000000000E+00 0. -1.
</event>
<event>
 4    1  0.5784609E+003  0.2073395E+02  0.7546771E-02  0.1523098E+00
          2   -1    0    0  501    0  0.00000000000E+00  0.00000000000E+00  0.82803807123E+03  0.82803807123E+03  0.00000000000E+00 0. -1.
         -2   -1    0    0    0  501 -0.00000000000E+00 -0.00000000000E+00 -0.17033867887E+02  0.17033867887E+02  0.00000000000E+00 0. -1.
          2    1    1    2  502    0  0.18336939106E+02  0.96774594091E+01  0.82154901158E+03  0.82181060774E+03  0.00000000000E+00 0. -1.
         -2    1    1    2    0  502 -0.18336939106E+02 -0.96774594091E+01 -0.10544808244E+02  0.23261331375E+02  0.00000000000E+00 0. -1.
</event>
<event>
 4    1  0.5784609E+003  0.3313747E+02  0.7546771E-02  0.1394152E+00
          2   -1    0    0  501    0  0.00000000000E+00  0.00000000000E+00  0.14027630381E+02  0.14027630381E+02  0.00000000000E+00 0. -1.
         -2   -1    0    0    0  501 -0.00000000000E+00 -0.00000000000E+00 -0.10559021806E+03  0.10559021806E+03  0.00000000000E+00 0. -1.
          2    1    1    2  502    0  0.33021406935E+02  0.27710151629E+01 -0.15364623777E+02  0.36526202989E+02  0.00000000000E+00 0. -1.
         -2    1    1    2    0  502 -0.33021406935E+02 -0.27710151629E+01 -0.76197963899E+02  0.83091645448E+02  0.00000000000E+00 0. -1.
</event>
<event>
 4    1  0.5784609E+003  0.5737494E+02  0.7546771E-02  0.1269022E+00
          2   -1    0    0  501    0  0.00000000000E+00  0.00000000000E+00  0.16604796755E+03  0.16604796755E+03  0.00000000000E+00 0. -1.
         -2   -1    0    0    0  501 -0.00000000000E+00 -0.00000000000E+00 -0.47467792764E+02  0.47467792764E+02  0.00000000000E+00 0.  1.
          2    1    1    2  502    0 -0.33183163249E+02 -0.46805565733E+02  0.14075905572E+03  0.15200327324E+03  0.00000000000E+00 0. -1.
         -2    1    1    2    0  502  0.33183163249E+02  0.46805565733E+02 -0.22178880937E+02  0.61512487078E+02  0.00000000000E+00 0.  1.
</event>
<event>
 4    1  0.5784609E+003  0.4030188E+02  0.7546771E-02  0.1346726E+00
          2   -1    0    0  501    0  0.00000000000E+00  0.00000000000E+00  0.21566560186E+04  0.21566560186E+04  0.00000000000E+00 0. -1.
         -2   -1    0    0    0  501 -0.00000000000E+00 -0.00000000000E+00 -0.96299977693E+00  0.96299977693E+00  0.00000000000E+00 0. -1.
          2    1    1    2  502    0  0.15047363913E+02  0.37387408287E+02  0.15814712413E+04  0.15819846802E+04  0.00000000000E+00 0. -1.
         -2    1    1    2    0  502 -0.15047363913E+02 -0.37387408287E+02  0.57422177754E+03  0.57563433816E+03  0.00000000000E+00 0. -1.
</event>
<event>
 4    1  0.5784609E+003  0.2132214E+02  0.7546771E-02  0.1514715E+00
          2   -1    0    0  501    0  0.00000000000E+00  0.00000000000E+00  0.26598971568E+02  0.26598971568E+02  0.00000000000E+00 0. -1.
         -2   -1    0    0    0  501 -0.00000000000E+00 -0.00000000000E+00 -0.20092734171E+03  0.20092734171E+03  0.00000000000E+00 0.  1.
          2    1    1    2  502    0 -0.17646139443E+01  0.21248993746E+02  0.21652738030E+02  0.30388725899E+02  0.00000000000E+00 0. -1.
         -2    1    1    2    0  502  0.17646139443E+01 -0.21248993746E+02 -0.19598110817E+03  0.19713758738E+03  0.00000000000E+00 0.  1.
</event>
<event>
 4    1  0.5784609E+003  0.2786930E+02  0.7546771E-02  0.1439066E+00
          2   -1    0    0  501    0  0.00000000000E+00  0.00000000000E+00  0.12480746974E+04  0.12480746974E+04  0.00000000000E+00 0.  1.
         -2   -1    0    0    0  501 -0.00000000000E+00 -0.00000000000E+00 -0.47315693271E+01  0.47315693271E+01  0.00000000000E+00 0. -1.
          2    1    1    2  502    0 -0.12859483195E+02  0.24725120176E+02  0.12054294118E+04  0.12057515352E+04  0.00000000000E+00 0.  1.
         -2    1    1    2    0  502  0.12859483195E+02 -0.24725120176E+02  0.37913716331E+02  0.47054731556E+02  0.00000000000E+00 0. -1.
</event>
<event>
 4    1  0.5784609E+003  0.2365677E+02  0.7546771E-02  0.1484412E+00
          2   -1    0    0  501    0  0.00000000000E+00  0.00000000000E+00  0.57062858216E+03  0.57062858216E+03  0.00000000000E+00 0.  1.
         -2   -1    0    0    0  501 -0.00000000000E+00 -0.00000000000E+00 -0.16887966547E+02  0.16887966547E+02  0.00000000000E+00 0. -1.
          2    1    1    2  502    0 -0.20502629552E+02  0.11801908760E+02  0.56197118369E+03  0.56246889174E+03  0.00000000000E+00 0.  1.
         -2    1    1    2    0  502  0.20502629552E+02 -0.11801908760E+02 -0.82305680791E+01  0.25047656973E+02  0.00000000000E+00 0. -1.
</event>
<event>
 4    1  0.5784609E+003  0.3524144E+02  0.7546771E-02  0.1378874E+00
          2   -1    0    0  501    0  0.00000000000E+00  0.00000000000E+00  0.37092473775E+03  0.37092473775E+03  0.00000000000E+00 0.  1.
         -2   -1    0    0    0  501 -0.00000000000E+00 -0.00000000000E+00 -0.52171309209E+01  0.52171309209E+01  0.00000000000E+00 0. -1.
          2    1    1    2  502    0  0.30179098877E+02  0.18198386195E+02  0.29541620116E+03  0.29751082531E+03  0.00000000000E+00 0.  1.
         -2    1    1    2    0  502 -0.30179098877E+02 -0.18198386195E+02  0.70291405678E+02  0.78631043369E+02  0.00000000000E+00 0. -1.
</event>
<event>
 4    1  0.5784609E+003  0.2537680E+02  0.7546771E-02  0.1464632E+00
          2   -1    0    0  501    0  0.00000000000E+00  0.00000000000E+00  0.71660935099E+03  0.71660935099E+03  0.00000000000E+00 0. -1.
         -2   -1    0    0    0  501 -0.00000000000E+00 -0.00000000000E+00 -0.10036313986E+01  0.10036313986E+01  0.00000000000E+00 0. -1.
          2    1    1    2  502    0 -0.25014621403E+02  0.42720900263E+01  0.47384783379E+03  0.47452687134E+03  0.00000000000E+00 0. -1.
         -2    1    1    2    0  502  0.25014621403E+02 -0.42720900263E+01  0.24175788580E+03  0.24308611105E+03  0.00000000000E+00 0. -1.
</event>
<event>
 4    1  0.5784609E+003  0.2494889E+02  0.7546771E-02  0.1469376E+00
          2   -1    0    0  501    0  0.00000000000E+00  0.00000000000E+00  0.50814295297E+02  0.50814295297E+02  0.00000000000E+00 0. -1.
         -2   -1    0    0    0  501 -0.00000000000E+00 -0.00000000000E+00 -0.27761994508E+02  0.27761994508E+02  0.00000000000E+00 0.  1.
          2    1    1    2  502    0  0.22526035252E+02  0.10724959326E+02  0.40894379080E+02  0.47904042179E+02  0.00000000000E+00 0. -1.
         -2    1    1    2    0  502 -0.22526035252E+02 -0.10724959326E+02 -0.17842078290E+02  0.30672247626E+02  0.00000000000E+00 0.  1.
</event>
<event>
 4    1  0.5784609E+003  0.2458067E+02  0.7546771E-02  0.1473549E+00
          2   -1    0    0  501    0  0.00000000000E+00  0.00000000000E+00  0.12322001413E+04  0.12322001413E+04  0.00000000000E+00 0. -1.
         -2   -1    0    0    0  501 -0.00000000000E+00 -0.00000000000E+00 -0.63613314039E+00  0.63613314039E+00  0.00000000000E+00 0.  1.
          2    1    1    2  502    0  0.22990118365E+02 -0.86984877609E+01  0.91087247040E+03  0.91120407514E+03  0.00000000000E+00 0. -1.
         -2    1    1    2    0  502 -0.22990118365E+02  0.86984877609E+01  0.32069153778E+03  0.32163219931E+03  0.00000000000E+00 0.  1.
</event>
<event>
 4    1  0.5784609E+003  0.2029353E+02  0.7546771E-02  0.1529595E+00
          2   -1    0    0  501    0  0.00000000000E+00  0.00000000000E+00  0.66225925229E+03  0.66225925229E+03  0.00000000000E+00 0.  1.
         -2   -1    0    0    0  501 -0.00000000000E+00 -0.00000000000E+00 -0.11059844720E+01  0.11059844720E+01  0.00000000000E+00 0.  1.
          2    1    1    2  502    0 -0.47301437077E+01 -0.19734569583E+02  0.55002387829E+03  0.55039812335E+03  0.00000000000E+00 0.  1.
         -2    1    1    2    0  502  0.47301437077E+01  0.19734569583E+02  0.11112938952E+03  0.11296711341E+03  0.00000000000E+00 0.  1.
</event>
<event>
 4    1  0.5784609E+003  0.2268705E+02  0.7546771E-02  0.1496466E+00
          2   -1    0    0  501    0  0.00000000000E+00  0.00000000000E+00  0.26847817501E+03  0.26847817501E+03  0.00000000000E+00 0.  1.
         -2   -1    0    0    0  501 -0.00000000000E+00 -0.00000000000E+00 -0.36652643988E+02  0.36652643988E+02  0.00000000000E+00 0. -1.
          2    1    1    2  502    0  0.22358896225E+02  0.38447384731E+01  0.26443463706E+03  0.26540606536E+03  0.00000000000E+00 0.  1.
         -2    1    1    2    0  502 -0.22358896225E+02 -0.38447384731E+01 -0.32609106041E+02  0.39724753632E+02  0.00000000000E+00 0. -1.
</event>
<event>
 4    1  0.5784609E+003  0.6535931E+02  0.7546771E-02  0.1242636E+00
          2   -1    0    0  501    0  0.00000000000E+00  0.00000000000E+00  0.99038455223E+03  0.99038455223E+03  0.00000000000E+00 0.  1.
         -2   -1    0    0    0  501 -0.00000000000E+00 -0.00000000000E+00 -0.63271891233E+01  0.63271891233E+01  0.00000000000E+00 0.  1.
          2    1    1    2  502    0  0.87955819109E+01 -0.64764781634E+02  0.77318670255E+03  0.77594427390E+03  0.00000000000E+00 0.  1.
         -2    1    1    2    0  502 -0.87955819109E+01  0.64764781634E+02  0.21087066056E+03  0.22076746745E+03  0.00000000000E+00 0.  1.
</event>
<event>
 4    1  0.5784609E+003  0.3032727E+02  0.7546771E-02  0.1416773E+00
          2   -1    0    0  501    0  0.00000000000E+00  0.00000000000E+00  0.15506180482E+02  0.15506180482E+02  0.00000000000E+00 0.  1.
         -2   -1    0    0    0  501 -0.00000000000E+00 -0.00000000000E+00 -0.59835675431E+02  0.59835675431E+02  0.00000000000E+00 0.  1.
          2    1    1    2  502    0  0.25783632742E+02  0.15967070185E+02 -0.18649366839E+02  0.35602555121E+02  0.00000000000E+00 0.  1.
         -2    1    1    2    0  502 -0.25783632742E+02 -0.15967070185E+02 -0.25680128110E+02  0.39739300792E+02  0.00000000000E+00 0.  1.
</event>
<event>
 4    1  0.5784609E+003  0.2372650E+02  0.7546771E-02  0.1483572E+00
          2   -1    0    0  501    0  0.00000000000E+00  0.00000000000E+00  0.31831188016E+02  0.31831188016E+02  0.00000000000E+00 0.  1.
         -2   -1    0    0    0  501 -0.00000000000E+00 -0.00000000000E+00 -0.17967678105E+02  0.17967678105E+02  0.00000000000E+00 0.  1.
          2    1    1    2  502    0 -0.23722445624E+02  0.43862750876E+00  0.10052752913E+02  0.25768287906E+02  0.00000000000E+00 0.  1.
         -2    1    1    2    0  502  0.23722445624E+02 -0.43862750876E+00  0.38107569993E+01  0.24030578215E+02  0.00000000000E+00 0.  1.
</event>
<event>
 4    1  0.5784609E+003  0.2140766E+02  0.7546771E-02  0.1513523E+00
          2   -1    0    0  501    0  0.00000000000E+00  0.00000000000E+00  0.77912027829E+03  0.77912027829E+03  0.00000000000E+00 0. -1.
         -2   -1    0    0    0  501 -0.00000000000E+00 -0.00000000000E+00 -0.65134920017E+00  0.65134920017E+00  0.00000000000E+00 0. -1.
          2    1    1    2  502    0 -0.12886689648E+02  0.17094470767E+02  0.51062197853E+03  0.51107053589E+03  0.00000000000E+00 0. -1.
         -2    1    1    2    0  502  0.12886689648E+02 -0.17094470767E+02  0.26784695056E+03  0.26870109160E+03  0.00000000000E+00 0. -1.
</event>
<event>
 4    1  0.5784609E+003  0.2194845E+02  0.7546771E-02  0.1506142E+00
          2   -1    0    0  501    0  0.00000000000E+00  0.00000000000E+00  0.69279440292E+03  0.69279440292E+03  0.00000000000E+00 0.  1.
         -2   -1    0    0    0  501 -0.00000000000E+00 -0.00000000000E+00 -0.41674976473E+01  0.41674976473E+01  0.00000000000E+00 0.  1.
          2    1    1    2  502    0  0.12548816831E+02  0.18007270074E+02  0.66239644896E+03  0.66275997931E+03  0.00000000000E+00 0.  1.
         -2    1    1    2    0  502 -0.12548816831E+02 -0.18007270074E+02  0.26230456315E+02  0.34201921260E+02  0.00000000000E+00 0.  1.
</event>
<event>
 4    1  0.5784609E+003  0.3172312E+02  0.7546771E-02  0.1405191E+00
          2   -1    0    0  501    0  0.00000000000E+00  0.00000000000E+00  0.48829904033E+03  0.48829904033E+03  0.00000000000E+00 0.  1.
         -2   -1    0    0    0  501 -0.00000000000E+00 -0.00000000000E+00 -0.34146845134E+02  0.34146845134E+02  0.00000000000E+00 0.  1.
          2    1    1    2  502    0  0.31499536940E+02  0.37597044337E+01  0.48029327085E+03  0.48133977836E+03  0.00000000000E+00 0.  1.
         -2    1    1    2    0  502 -0.31499536940E+02 -0.37597044337E+01 -0.26141075656E+02  0.41106107105E+02  0.00000000000E+00 0.  1.
</event>
<event>
 4    1  0.5784609E+003  0.3207833E+02  0.7546771E-02  0.1402356E+00
          2   -1    0    0  501    0  0.00000000000E+00  0.00000000000E+00  0.12239200949E+04  0.12239200949E+04  0.00000000000E+00 0. -1.
         -2   -1    0    0    0  501 -0.00000000000E+00 -0.00000000000E+00 -0.77055380356E+02  0.77055380356E+02  0.00000000000E+00 0.  1.
          2    1    1    2  502    0  0.30674981664E+02  0.93842727801E+01  0.12203616025E+04  0.12207831339E+04  0.00000000000E+00 0. -1.
         -2    1    1    2    0  502 -0.30674981664E+02 -0.93842727801E+01 -0.73496887964E+02  0.80192341381E+02  0.00000000000E+00 0.  1.
</event>
<event>
 4    1  0.5784609E+003  0.2371296E+02  0.7546771E-02  0.1483734E+00
          2   -1    0    0  501    0  0.00000000000E+00  0.00000000000E+00  0.39037876037E+03  0.39037876037E+03  0.00000000000E+00 0.  1.
         -2   -1    0    0    0  501 -0.00000000000E+00 -0.00000000000E+00 -0.17661296726E+01  0.17661296726E+01  0.00000000000E+00 0.  1.
          2    1    1    2  502    0  0.16041856364E+02  0.17463200911E+02  0.27850956481E+03  0.27951723065E+03  0.00000000000E+00 0.  1.
         -2    1    1    2    0  502 -0.16041856364E+02 -0.17463200911E+02  0.11010306589E+03  0.11262765939E+03  0.00000000000E+00 0.  1.
</event>
<event>
 4    1  0.5784609E+003  0.3229182E+02  0.7546771E-02  0.1400672E+00
          2   -1    0    0  501    0  0.00000000000E+00  0.00000000000E+00  0.18845436111E+03  0.18845436111E+03  0.00000000000E+00 0. -1.
         -2   -1    0    0    0  501 -0.00000000000E+00 -0.00000000000E+00 -0.14692015310E+03  0.14692015310E+03  0.00000000000E+00 0.  1.
          2    1    1    2  502    0  0.29911424433E+02  0.12168335315E+02  0.18526638099E+03  0.18805954807E+03  0.00000000000E+00 0. -1.
         -2    1    1    2    0  502 -0.29911424433E+02 -0.12168335315E+02 -0.14373217298E+03  0.14731496613E+03  0.00000000000E+00 0.  1.
</event>
<event>
 4    1  0.5784609E+003  0.2613401E+02  0.7546771E-02  0.1456507E+00
          2   -1    0    0  501    0  0.00000000000E+00  0.00000000000E+00  0.10352316217E+04  0.10352316217E+04  0.00000000000E+00 0.  1.
         -2   -1    0    0    0  501 -0.00000000000E+00 -0.00000000000E+00 -0.68326629634E+00  0.68326629634E+00  0.00000000000E+00 0.  1.
          2    1    1    2  502    0  0.85296729206E+01 -0.24702854230E+02  0.61338062563E+03  0.61393711259E+03  0.00000000000E+00 0.  1.
         -2    1    1    2    0  502 -0.85296729206E+01  0.24702854230E+02  0.42116772981E+03  0.42197777543E+03  0.00000000000E+00 0.  1.
</event>
<event>
 4    1  0.5784609E+003  0.3673910E+02  0.7546771E-02  0.1368732E+00
          2   -1    0    0  501    0  0.00000000000E+00  0.00000000000E+00  0.17125898413E+03  0.17125898413E+03  0.00000000000E+00 0. -1.
         -2   -1    0    0    0  501 -0.00000000000E+00 -0.00000000000E+00 -0.10948683172E+03  0.10948683172E+03  0.00000000000E+00 0. -1.
          2    1    1    2  502    0 -0.31918464128E+02 -0.18192667305E+02  0.16611226357E+03  0.17012655761E+03  0.00000000000E+00 0. -1.
         -2    1    1    2    0  502  0.31918464128E+02  0.18192667305E+02 -0.10434011116E+03  0.11061925823E+03  0.00000000000E+00 0. -1.
</event>
<event>
 4    1  0.5784609E+003  0.2032519E+02  0.7546771E-02  0.1529121E+00
          2   -1    0    0  501    0  0.00000000000E+00  0.00000000000E+00  0.14612992914E+03  0.14612992914E+03  0.00000000000E+00 0. -1.
         -2   -1    0    0    0  501 -0.00000000000E+00 -0.00000000000E+00 -0.64924860115E+01  0.64924860115E+01  0.00000000000E+00 0. -1.
          2    1    1    2  502    0  0.17705347259E+02  0.99816900510E+01  0.12715729931E+03  0.12877147287E+03  0.00000000000E+00 0. -1.
         -2    1    1    2    0  502 -0.17705347259E+02 -0.99816900510E+01  0.12480143815E+02  0.23850942276E+02  0.00000000000E+00 0. -1.
</event>
<event>
 4    1  0.5784609E+003  0.2142356E+02  0.7546771E-02  0.1513303E+00
          2   -1    0    0  501    0  0.00000000000E+00  0.00000000000E+00  0.54656645852E+02  0.54656645852E+02  0.00000000000E+00 0. -1.
         -2   -1    0    0    0  501 -0.00000000000E+00 -0.00000000000E+00 -0.72648243578E+02  0.72648243578E+02  0.00000000000E+00 0.  1.
          2    1    1    2  502    0 -0.21421082802E+02 -0.32602551247E+00  0.50864962009E+02  0.55192512547E+02  0.00000000000E+00 0. -1.
         -2    1    1    2    0  502  0.21421082802E+02  0.32602551247E+00 -0.68856559735E+02  0.72112376882E+02  0.00000000000E+00 0.  1.
</event>
<event>
 4    1  0.5784609E+003  0.2147543E+02  0.7546771E-02  0.1512584E+00
          2   -1    0    0  501    0  0.00000000000E+00  0.00000000000E+00  0.14604073457E+04  0.14604073457E+04  0.00000000000E+00 0.  1.
         -2   -1    0    0    0  501 -0.00000000000E+00 -0.00000000000E+00 -0.49857629286E+02  0.49857629286E+02  0.00000000000E+00 0.  1.
          2    1    1    2  502    0  0.20991810453E+02  0.45318766673E+01  0.14580120423E+04  0.14581701922E+04  0.00000000000E+00 0.  1.
         -2    1    1    2    0  502 -0.20991810453E+02 -0.45318766673E+01 -0.47462325885E+02  0.52094782759E+02  0.00000000000E+00 0.  1.
</event>
<event>
 4    1  0.5784609E+003  0.2765384E+02  0.7546771E-02  0.1441148E+00
          2   -1    0    0  501    0  0.00000000000E+00  0.00000000000E+00  0.14145389959E+02  0.14145389959E+02  0.00000000000E+00 0. -1.
         -2   -1    0    0    0  501 -0.00000000000E+00 -0.00000000000E+00 -0.10186149509E+03  0.10186149509E+03  0.00000000000E+00 0. -1.
          2    1    1    2  502    0  0.75761641354E+01  0.26595803643E+02 -0.41244297102E+01  0.27959720221E+02  0.00000000000E+00 0. -1.
         -2    1    1    2    0  502 -0.75761641354E+01 -0.26595803643E+02 -0.83591675426E+02  0.88047164832E+02  0.00000000000E+00 0. -1.
</event>
<event>
 4    1  0.5784609E+003  0.2556288E+02  0.7546771E-02  0.1462604E+00
          2   -1    0    0  501    0  0.00000000000E+00  0.00000000000E+00  0.63594510465E+02  0.63594510465E+02  0.00000000000E+00 0. -1.
         -2   -1    0    0    0  501 -0.00000000000E+00 -0.00000000000E+00 -0.36591103620E+03  0.36591103620E+03  0.00000000000E+00 0.  1.
          2    1    1    2  502    0 -0.24480371914E+02 -0.73601827608E+01  0.60557720109E+02  0.65732019321E+02  0.00000000000E+00 0. -1.
         -2    1    1    2    0  502  0.24480371914E+02  0.73601827608E+01 -0.36287424584E+03  0.36377352734E+03  0.00000000000E+00 0.  1.
</event>
<event>
 4    1  0.5784609E+003  0.2004781E+02  0.7546771E-02  0.1533306E+00
          2   -1    0    0  501    0  0.00000000000E+00  0.00000000000E+00  0.61329946592E+02  0.61329946592E+02  0.00000000000E+00 0. -1.
         -2   -1    0    0    0  501 -0.00000000000E+00 -0.00000000000E+00 -0.61814472590E+02  0.61814472590E+02  0.00000000000E+00 0. -1.
          2    1    1    2  502    0 -0.13605655400E+02 -0.14724157117E+02  0.57974711416E+02  0.61343148154E+02  0.00000000000E+00 0. -1.
         -2    1    1    2    0  502  0.13605655400E+02  0.14724157117E+02 -0.58459237413E+02  0.61801271028E+02  0.00000000000E+00 0. -1.
</event>
<event>
 4    1  0.5784609E+003  0.8350678E+02  0.7546771E-02  0.1195932E+00
          2   -1    0    0  501    0  0.00000000000E+00  0.00000000000E+00  0.24565399523E+04  0.24565399523E+04  0.00000000000E+00 0.  1.
         -2   -1    0    0    0  501 -0.00000000000E+00 -0.00000000000E+00 -0.13425357653E+02  0.13425357653E+02  0.00000000000E+00 0. -1.
          2    1    1    2  502    0  0.26431845340E+02 -0.79213251939E+02  0.23182307886E+04  0.23197343320E+04  0.00000000000E+00 0.  1.
         -2    1    1    2    0  502 -0.26431845340E+02  0.79213251939E+02  0.12488380603E+03  0.15023097796E+03  0.00000000000E+00 0. -1.
</event>
<event>
 4    1  0.5784609E+003  0.4070979E+02  0.7546771E-02  0.1344376E+00
          2   -1    0    0  501    0  0.00000000000E+00  0.00000000000E+00  0.16205490933E+03  0.16205490933E+03  0.00000000000E+00 0.  1.
         -2   -1    0    0    0  501 -0.00000000000E+00 -0.00000000000E+00 -0.43901540549E+02  0.43901540549E+02  0.00000000000E+00 0.  1.
          2    1    1    2  502    0  0.35710519787E+02  0.19545987311E+02  0.14926666618E+03  0.15471853307E+03  0.00000000000E+00 0.  1.
         -2    1    1    2    0  502 -0.35710519787E+02 -0.19545987311E+02 -0.31113297400E+02  0.51237916805E+02  0.00000000000E+00 0.  1.
</event>
<event>
 4    1  0.5784609E+003  0.2893172E+02  0.7546771E-02  0.1429112E+00
          2   -1    0    0  501    0  0.00000000000E+00  0.00000000000E+00  0.70406177262E+03  0.70406177262E+03  0.00000000000E+00 0. -1.
         -2   -1    0    0    0  501 -0.00000000000E+00 -0.00000000000E+00 -0.28081227749E+01  0.28081227749E+01  0.00000000000E+00 0.  1.
          2    1    1    2  502    0  0.22965120483E+02  0.17596800649E+02  0.61901141884E+03  0.61968716366E+03  0.00000000000E+00 0. -1.
         -2    1    1    2    0  502 -0.22965120483E+02 -0.17596800649E+02  0.82242231007E+02  0.87182731736E+02  0.00000000000E+00 0.  1.
</event>
<event>
 4    1  0.5784609E+003  0.2153476E+02  0.7546771E-02  0.1511765E+00
          2   -1    0    0  501    0  0.00000000000E+00  0.00000000000E+00  0.11218711355E+04  0.11218711355E+04  0.00000000000E+00 0.  1.
         -2   -1    0    0    0  501 -0.00000000000E+00 -0.00000000000E+00 -0.63001141300E+02  0.63001141300E+02  0.00000000000E+00 0.  1.
          2    1    1    2  502    0 -0.13271571632E+02  0.16959107327E+02  0.11199243665E+04  0.11201313908E+04  0.00000000000E+00 0.  1.
         -2    1    1    2    0  502  0.13271571632E+02 -0.16959107327E+02 -0.61054372342E+02  0.64740885976E+02  0.00000000000E+00 0.  1.
</event>
<event>
 4    1  0.5784609E+003  0.3270757E+02  0.7546771E-02  0.1397438E+00
          2   -1    0    0  501    0  0.00000000000E+00  0.00000000000E+00  0.18472523172E+04  0.18472523172E+04  0.00000000000E+00 0.  1.
         -2   -1    0    0    0  501 -0.00000000000E+00 -0.00000000000E+00 -0.98514244289E+01  0.98514244289E+01  0.00000000000E+00 0. -1.
          2    1    1    2  502    0 -0.25283148995E+02  0.20749632467E+02  0.18195462154E+04  0.18198401619E+04  0.00000000000E+00 0.  1.
         -2    1    1    2    0  502  0.25283148995E+02 -0.20749632467E+02  0.17854677374E+02  0.37263579736E+02  0.00000000000E+00 0. -1.
</event>
<event>
 4    1  0.6789315E+003  0.3147789E+02  0.7546771E-02  0.1407174E+00
          2   -1    0    0  501    0  0.00000000000E+00  0.00000000000E+00  0.15576109764E+04  0.15576109764E+04  0.00000000000E+00 0. -1.
         -2   -1    0    0    0  501 -0.00000000000E+00 -0.00000000000E+00 -0.33948069179E+03  0.33948069179E+03  0.00000000000E+00 0.  1.
          2    1    1    2  502    0  0.29977739181E+02 -0.96017062239E+01  0.15567218386E+04  0.15570400574E+04  0.00000000000E+00 0. -1.
         -2    1    1    2    0  502 -0.29977739181E+02  0.96017062239E+01 -0.33859155395E+03  0.34005161081E+03  0.00000000000E+00 0.  1.
</event>
<event>
 4    1  0.5784609E+003  0.2212115E+02  0.7546771E-02  0.1503839E+00
          2   -1    0    0  501    0  0.00000000000E+00  0.00000000000E+00  0.18442506624E+04  0.18442506624E+04  0.00000000000E+00 0. -1.
         -2   -1    0    0    0  501 -0.00000000000E+00 -0.00000000000E+00 -0.42901078633E+00  0.42901078633E+00  0.00000000000E+00 0. -1.
          2    1    1    2  502    0 -0.18681175569E+02 -0.11847318934E+02  0.14916135981E+04  0.14917776212E+04  0.00000000000E+00 0. -1.
         -2    1    1    2    0  502  0.18681175569E+02  0.11847318934E+02  0.35220805351E+03  0.35290205192E+03  0.00000000000E+00 0. -1.
</event>
<event>
 4    1  0.5784609E+003  0.4194121E+02  0.7546771E-02  0.1337471E+00
          2   -1    0    0  501    0  0.00000000000E+00  0.00000000000E+00  0.89361174294E+01  0.89361174294E+01  0.00000000000E+00 0.  1.
         -2   -1    0    0    0  501 -0.00000000000E+00 -0.00000000000E+00 -0.29855519676E+03  0.29855519676E+03  0.00000000000E+00 0.  1.
          2    1    1    2  502    0 -0.37092328627E+02  0.19576108568E+02 -0.55074003071E+02  0.69225794932E+02  0.00000000000E+00 0.  1.
         -2    1    1    2    0  502  0.37092328627E+02 -0.19576108568E+02 -0.23454507626E+03  0.23826551926E+03  0.00000000000E+00 0.  1.
</event>
<event>
 4    1  0.5784609E+003  0.2229290E+02  0.7546771E-02  0.1501573E+00
          2   -1    0    0  501    0  0.00000000000E+00  0.00000000000E+00  0.96028686076E+03  0.96028686076E+03  0.00000000000E+00 0. -1.
         -2   -1    0    0    0  501 -0.00000000000E+00 -0.00000000000E+00 -0.61066682472E+02  0.61066682472E+02  0.00000000000E+00 0.  1.
          2    1    1    2  502    0 -0.20875989433E+02 -0.78208945547E+01  0.95811832320E+03  0.95837763673E+03  0.00000000000E+00 0. -1.
         -2    1    1    2    0  502  0.20875989433E+02  0.78208945547E+01 -0.58898144911E+02  0.62975906507E+02  0.00000000000E+00 0.  1.
</event>
<event>
 4    1  0.5784609E+003  0.2103376E+02  0.7546771E-02  0.1518783E+00
          2   -1    0    0  501    0  0.00000000000E+00  0.00000000000E+00  0.14722479972E+04  0.14722479972E+04  0.00000000000E+00 0.  1.
         -2   -1    0    0    0  501 -0.00000000000E+00 -0.00000000000E+00 -0.96255510831E+01  0.96255510831E+01  0.00000000000E+00 0.  1.
          2    1    1    2  502    0 -0.14637666221E+00  0.21033252817E+02  0.14605904144E+04  0.14607418587E+04  0.00000000000E+00 0.  1.
         -2    1    1    2    0  502  0.14637666221E+00 -0.21033252817E+02  0.20320316874E+01  0.21131689544E+02  0.00000000000E+00 0.  1.
</event>
<event>
 4    1  0.5784609E+003  0.2115716E+02  0.7546771E-02  0.1517033E+00
          2   -1    0    0  501    0  0.00000000000E+00  0.00000000000E+00  0.15973889538E+03  0.15973889538E+03  0.00000000000E+00 0.  1.
         -2   -1    0    0    0  501 -0.00000000000E+00 -0.00000000000E+00 -0.14381263631E+02  0.14381263631E+02  0.00000000000E+00 0. -1.
          2    1    1    2  502    0 -0.13611792826E+02 -0.16197059103E+02  0.15079780850E+03  0.15227476703E+03  0.00000000000E+00 0.  1.
         -2    1    1    2    0  502  0.13611792826E+02  0.16197059103E+02 -0.54401767502E+01  0.21845391976E+02  0.00000000000E+00 0. -1.
</event>
<event>
 4    1  0.5784609E+003  0.2141800E+02  0.7546771E-02  0.1513380E+00
          2   -1    0    0  501    0  0.00000000000E+00  0.00000000000E+00  0.16083166233E+03  0.16083166233E+03  0.00000000000E+00 0.  1.
         -2   -1    0    0    0  501 -0.00000000000E+00 -0.00000000000E+00 -0.31473991772E+01  0.31473991772E+01  0.00000000000E+00 0.  1.
          2    1    1    2  502    0  0.10094810987E+02  0.18889828101E+02  0.10394996257E+03  0.10613352690E+03  0.00000000000E+00 0.  1.
         -2    1    1    2    0  502 -0.10094810987E+02 -0.18889828101E+02  0.53734300585E+02  0.57845534607E+02  0.00000000000E+00 0.  1.
</event>
<event>
 4    1  0.5784609E+003  0.2349278E+02  0.7546771E-02  0.1486401E+00
          2   -1    0    0  501    0  0.00000000000E+00  0.00000000000E+00  0.15798559368E+03  0.15798559368E+03  0.00000000000E+00 0. -1.
         -2   -1    0    0    0  501 -0.00000000000E+00 -0.00000000000E+00 -0.36402068567E+01  0.36402068567E+01  0.00000000000E+00 0. -1.
          2    1    1    2  502    0  0.61500237485E+01  0.22673505693E+02  0.93400336343E+02  0.96309571080E+02  0.00000000000E+00 0. -1.
         -2    1    1    2    0  502 -0.61500237485E+01 -0.22673505693E+02  0.60945050481E+02  0.65316229459E+02  0.00000000000E+00 0. -1.
</event>
<event>
 4    1  0.5784609E+003  0.2991284E+02  0.7546771E-02  0.1420355E+00
          2   -1    0    0  501    0  0.00000000000E+00  0.00000000000E+00  0.13063072620E+04  0.13063072620E+04  0.00000000000E+00 0.  1.
         -2   -1    0    0    0  501 -0.00000000000E+00 -0.00000000000E+00 -0.69791573842E+00  0.69791573842E+00  0.00000000000E+00 0. -1.
          2    1    1    2  502    0  0.22591166484E+02 -0.19606561882E+02  0.74181706812E+03  0.74241992203E+03  0.00000000000E+00 0.  1.
         -2    1    1    2    0  502 -0.22591166484E+02  0.19606561882E+02  0.56379227812E+03  0.56458525569E+03  0.00000000000E+00 0. -1.
</event>
<event>
 4    1  0.5784609E+003  0.4698369E+02  0.7546771E-02  0.1311808E+00
          2   -1    0    0  501    0  0.00000000000E+00  0.00000000000E+00  0.42546077730E+03  0.42546077730E+03  0.00000000000E+00 0.  1.
         -2   -1    0    0    0  501 -0.00000000000E+00 -0.00000000000E+00 -0.54542103185E+01  0.54542103185E+01  0.00000000000E+00 0.  1.
          2    1    1    2  502    0 -0.44555507476E+02  0.14908862994E+02  0.25756621667E+03  0.26181639256E+03  0.00000000000E+00 0.  1.
         -2    1    1    2    0  502  0.44555507476E+02 -0.14908862994E+02  0.16244035031E+03  0.16909859506E+03  0.00000000000E+00 0.  1.
</event>
<event>
 4    1  0.5784609E+003  0.2504066E+02  0.7546771E-02  0.1468349E+00
          2   -1    0    0  501    0  0.00000000000E+00  0.00000000000E+00  0.19720154189E+04  0.19720154189E+04  0.00000000000E+00 0.  1.
         -2   -1    0    0    0  501 -0.00000000000E+00 -0.00000000000E+00 -0.10260475371E+01  0.10260475371E+01  0.00000000000E+00 0.  1.
          2    1    1    2  502    0 -0.23947765660E+02 -0.73170433983E+01  0.18050230600E+04  0.18051967432E+04  0.00000000000E+00 0.  1.
         -2    1    1    2    0  502  0.23947765660E+02  0.73170433983E+01  0.16596631140E+03  0.16784472325E+03  0.00000000000E+00 0.  1.
</event>
<event>
 4    1  0.5784609E+003  0.2370363E+02  0.7546771E-02  0.1483847E+00
          2   -1    0    0  501    0  0.00000000000E+00  0.00000000000E+00  0.38591830986E+00  0.38591830986E+00  0.00000000000E+00 0. -1.
         -2   -1    0    0    0  501 -0.00000000000E+00 -0.00000000000E+00 -0.17209636026E+04  0.17209636026E+04  0.00000000000E+00 0. -1.
          2    1    1    2  502    0  0.89308882627E+01  0.21956801348E+02 -0.52251889505E+03  0.52305626616E+03  0.00000000000E+00 0. -1.
         -2    1    1    2    0  502 -0.89308882627E+01 -0.21956801348E+02 -0.11980587892E+04  0.11982932547E+04  0.00000000000E+00 0. -1.
</event>
<event>
 4    1  0.5784609E+003  0.5530808E+02  0.7546771E-02  0.1276665E+00
          2   -1    0    0  501    0  0.00000000000E+00  0.00000000000E+00  0.15031952176E+03  0.15031952176E+03  0.00000000000E+00 0.  1.
         -2   -1    0    0    0  501 -0.00000000000E+00 -0.00000000000E+00 -0.44210555505E+03  0.44210555505E+03  0.00000000000E+00 0.  1.
          2    1    1    2  502    0  0.26252843477E+02  0.48680299446E+02  0.14342196442E+03  0.15371676299E+03  0.00000000000E+00 0.  1.
         -2    1    1    2    0  502 -0.26252843477E+02 -0.48680299446E+02 -0.43520799771E+03  0.43870831382E+03  0.00000000000E+00 0.  1.
</event>
<event>
 4    1  0.5784609E+003  0.2229877E+02  0.7546771E-02  0.1501496E+00
          2   -1    0    0  501    0  0.00000000000E+00  0.00000000000E+00  0.41435998140E+02  0.41435998140E+02  0.00000000000E+00 0.  1.
         -2   -1    0    0    0  501 -0.00000000000E+00 -0.00000000000E+00 -0.23461360877E+03  0.23461360877E+03  0.00000000000E+00 0.  1.
          2    1    1    2  502    0 -0.84468222186E+01 -0.20637018898E+02  0.37859803567E+02  0.43938594432E+02  0.00000000000E+00 0.  1.
         -2    1    1    2    0  502  0.84468222186E+01  0.20637018898E+02 -0.23103741420E+03  0.23211101248E+03  0.00000000000E+00 0.  1.
</event>
<event>
 4    1  0.5784609E+003  0.2440026E+02  0.7546771E-02  0.1475626E+00
          2   -1    0    0  501    0  0.00000000000E+00  0.00000000000E+00  0.14040042463E+03  0.14040042463E+03  0.00000000000E+00 0. -1.
         -2   -1    0    0    0  501 -0.00000000000E+00 -0.00000000000E+00 -0.33190708585E+02  0.33190708585E+02  0.00000000000E+00 0.  1.
          2    1    1    2  502    0 -0.21515662776E+02 -0.11508652692E+02  0.13466640190E+03  0.13685909774E+03  0.00000000000E+00 0. -1.
         -2    1    1    2    0  502  0.21515662776E+02  0.11508652692E+02 -0.27456685863E+02  0.36732035474E+02  0.00000000000E+00 0.  1.
</event>
<event>
 4    1  0.5784609E+003  0.3591503E+02  0.7546771E-02  0.1374242E+00
          2   -1    0    0  501    0  0.00000000000E+00  0.00000000000E+00  0.10664968122E+03  0.10664968122E+03  0.00000000000E+00 0.  1.
         -2   -1    0    0    0  501 -0.00000000000E+00 -0.00000000000E+00 -0.19155386514E+02  0.19155386514E+02  0.00000000000E+00 0.  1.
          2    1    1    2  502    0  0.35785557370E+02  0.30468233174E+01  0.81937007081E+02  0.89462631182E+02  0.00000000000E+00 0.  1.
         -2    1    1    2    0  502 -0.35785557370E+02 -0.30468233174E+01  0.55572876226E+01  0.36342436549E+02  0.00000000000E+00 0.  1.
</event>
<event>
 4    1  0.5784609E+003  0.3116868E+02  0.7546771E-02  0.1409705E+00
          2   -1    0    0  501    0  0.00000000000E+00  0.00000000000E+00  0.20454043425E+04  0.20454043425E+04  0.00000000000E+00 0. -1.
         -2   -1    0    0    0  501 -0.00000000000E+00 -0.00000000000E+00 -0.11693499741E+01  0.11693499741E+01  0.00000000000E+00 0.  1.
          2    1    1    2  502    0  0.20566157194E+02  0.23420497177E+02  0.18106628263E+04  0.18109310746E+04  0.00000000000E+00 0. -1.
         -2    1    1    2    0  502 -0.20566157194E+02 -0.23420497177E+02  0.23357216623E+03  0.23564261785E+03  0.00000000000E+00 0.  1.
</event>
<event>
 4    1  0.5784609E+003  0.1727663E+03  0.7546771E-02  0.1076327E+00
          2   -1    0    0  501    0  0.00000000000E+00  0.00000000000E+00  0.53065441953E+03  0.53065441953E+03  0.00000000000E+00 0. -1.
         -2   -1    0    0    0  501 -0.00000000000E+00 -0.00000000000E+00 -0.11114352782E+03  0.11114352782E+03  0.00000000000E+00 0.  1.
          2    1    1    2  502    0 -0.87658768726E+02 -0.14887620705E+03  0.43528071334E+03  0.46831344649E+03  0.00000000000E+00 0. -1.
         -2    1    1    2    0  502  0.87658768726E+02  0.14887620705E+03 -0.15769821626E+02  0.17348450085E+03  0.00000000000E+00 0.  1.
</event>
<event>
 4    1  0.5784609E+003  0.1438410E+03  0.7546771E-02  0.1104102E+00
          2   -1    0    0  501    0  0.00000000000E+00  0.00000000000E+00  0.16515376186E+04  0.16515376186E+04  0.00000000000E+00 0.  1.
         -2   -1    0    0    0  501 -0.00000000000E+00 -0.00000000000E+00 -0.14520491594E+03  0.14520491594E+03  0.00000000000E+00 0. -1.
          2    1    1    2  502    0  0.12231746119E+03  0.75687940693E+02  0.16119091594E+04  0.16183143588E+04  0.00000000000E+00 0.  1.
         -2    1    1    2    0  502 -0.12231746119E+03 -0.75687940693E+02 -0.10557645675E+03  0.17842817574E+03  0.00000000000E+00 0. -1.
</event>
<event>
 4    1  0.5784609E+003  0.2501885E+02  0.7546771E-02  0.1468593E+00
          2   -1    0    0  501    0  0.00000000000E+00  0.00000000000E+00  0.14428733238E+04  0.14428733238E+04  0.00000000000E+00 0.  1.
         -2   -1    0    0    0  501 -0.00000000000E+00 -0.00000000000E+00 -0.44951328215E+00  0.44951328215E+00  0.00000000000E+00 0.  1.
          2    1    1    2  502    0  0.53490594265E+01  0.24440345851E+02  0.85606501130E+03  0.85643052638E+03  0.00000000000E+00 0.  1.
         -2    1    1    2    0  502 -0.53490594265E+01 -0.24440345851E+02  0.58635879919E+03  0.58689231068E+03  0.00000000000E+00 0.  1.
</event>
<event>
 4    1  0.5784609E+003  0.2250540E+02  0.7546771E-02  0.1498804E+00
          2   -1    0    0  501    0  0.00000000000E+00  0.00000000000E+00  0.15276361497E+04  0.15276361497E+04  0.00000000000E+00 0.  1.
         -2   -1    0    0    0  501 -0.00000000000E+00 -0.00000000000E+00 -0.60346316587E+00  0.60346316587E+00  0.00000000000E+00 0. -1.
          2    1    1    2  502    0  0.19888482979E+02  0.10532870700E+02  0.12764348774E+04  0.12766332634E+04  0.00000000000E+00 0.  1.
         -2    1    1    2    0  502 -0.19888482979E+02 -0.10532870700E+02  0.25059780918E+03  0.25160634945E+03  0.00000000000E+00 0. -1.
</event>
<event>
 4    1  0.5784609E+003  0.2071775E+02  0.7546771E-02  0.1523333E+00
          2   -1    0    0  501    0  0.00000000000E+00  0.00000000000E+00  0.13082112167E+03  0.13082112167E+03  0.00000000000E+00 0.  1.
         -2   -1    0    0    0  501 -0.00000000000E+00 -0.00000000000E+00 -0.40910468457E+01  0.40910468457E+01  0.00000000000E+00 0.  1.
          2    1    1    2  502    0  0.19949707509E+02  0.55887701180E+01  0.93381309513E+02  0.95651942728E+02  0.00000000000E+00 0.  1.
         -2    1    1    2    0  502 -0.19949707509E+02 -0.55887701180E+01  0.33348765310E+02  0.39260225787E+02  0.00000000000E+00 0.  1.
</event>
<event>
 4    1  0.5784609E+003  0.2218621E+02  0.7546771E-02  0.1502978E+00
          2   -1    0    0  501    0  0.00000000000E+00  0.00000000000E+00  0.99830156852E+03  0.99830156852E+03  0.00000000000E+00 0.  1.
         -2   -1    0    0    0  501 -0.00000000000E+00 -0.00000000000E+00 -0.31809350796E+01  0.31809350796E+01  0.00000000000E+00 0. -1.
          2    1    1    2  502    0  0.94972390693E+01  0.20050690083E+02  0.95785938034E+03  0.95811628742E+03  0.00000000000E+00 0.  1.
         -2    1    1    2    0  502 -0.94972390693E+01 -0.20050690083E+02  0.37261253101E+02  0.43366216176E+02  0.00000000000E+00 0. -1.
</event>
<event>
 4    1  0.5784609E+003  0.2262901E+02  0.7546771E-02  0.1497210E+00
          2   -1    0    0  501    0  0.00000000000E+00  0.00000000000E+00  0.16395150782E+04  0.16395150782E+04  0.00000000000E+00 0.  1.
         -2   -1    0    0    0  501 -0.00000000000E+00 -0.00000000000E+00 -0.39175979688E+00  0.39175979688E+00  0.00000000000E+00 0.  1.
          2    1    1    2  502    0 -0.21304422334E+02 -0.76284715869E+01  0.11887663669E+04  0.11889817270E+04  0.00000000000E+00 0.  1.
         -2    1    1    2    0  502  0.21304422334E+02  0.76284715869E+01  0.45035695147E+03  0.45092511100E+03  0.00000000000E+00 0.  1.
</event>
<event>
 4    1  0.5784609E+003  0.2006769E+02  0.7546771E-02  0.1533003E+00
          2   -1    0    0  501    0  0.00000000000E+00  0.00000000000E+00  0.74285850657E+03  0.74285850657E+03  0.00000000000E+00 0. -1.
         -2   -1    0    0    0  501 -0.00000000000E+00 -0.00000000000E+00 -0.17598242945E+01  0.17598242945E+01  0.00000000000E+00 0. -1.
          2    1    1    2  502    0 -0.13760824929E+02 -0.14606569156E+02  0.68024955243E+03  0.68054549131E+03  0.00000000000E+00 0. -1.
         -2    1    1    2    0  502  0.13760824929E+02  0.14606569156E+02  0.60849129844E+02  0.64072839550E+02  0.00000000000E+00 0. -1.
</event>
<event>
 4    1  0.5784609E+003  0.2145085E+02  0.7546771E-02  0.1512924E+00
          2   -1    0    0  501    0  0.00000000000E+00  0.00000000000E+00  0.80410741190E+03  0.80410741190E+03  0.00000000000E+00 0.  1.
         -2   -1    0    0    0  501 -0.00000000000E+00 -0.00000000000E+00 -0.12923367509E+01  0.12923367509E+01  0.00000000000E+00 0.  1.
          2    1    1    2  502    0  0.19785996873E+02 -0.82857238685E+01  0.70200852119E+03  0.70233617500E+03  0.00000000000E+00 0.  1.
         -2    1    1    2    0  502 -0.19785996873E+02  0.82857238685E+01  0.10080655396E+03  0.10306357365E+03  0.00000000000E+00 0.  1.
</event>
<event>
 4    1  0.5784609E+003  0.3300063E+02  0.7546771E-02  0.1395192E+00
          2   -1    0    0  501    0  0.00000000000E+00  0.00000000000E+00  0.34227739680E+03  0.34227739680E+03  0.00000000000E+00 0.  1.
         -2   -1    0    0    0  501 -0.00000000000E+00 -0.00000000000E+00 -0.29208306071E+02  0.29208306071E+02  0.00000000000E+00 0. -1.
          2    1    1    2  502    0  0.32998313964E+02 -0.39131446299E+00  0.33186899603E+03  0.33350573065E+03  0.00000000000E+00 0.  1.
         -2    1    1    2    0  502 -0.32998313964E+02  0.39131446299E+00 -0.18799905292E+02  0.37979972229E+02  0.00000000000E+00 0. -1.
</event>
<event>
 4    1  0.5784609E+003  0.2672494E+02  0.7546771E-02  0.1450391E+00
          2   -1    0    0  501    0  0.00000000000E+00  0.00000000000E+00  0.11678443334E+04  0.11678443334E+04  0.00000000000E+00 0. -1.
         -2   -1    0    0    0  501 -0.00000000000E+00 -0.00000000000E+00 -0.63376392968E+00  0.63376392968E+00  0.00000000000E+00 0. -1.
          2    1    1    2  502    0 -0.11828612175E+02 -0.23964693581E+02  0.69292790422E+03  0.69344307845E+03  0.00000000000E+00 0. -1.
         -2    1    1    2    0  502  0.11828612175E+02  0.23964693581E+02  0.47428266526E+03  0.47503501889E+03  0.00000000000E+00 0. -1.
</event>
<event>
 4    1  0.5784609E+003  0.2234700E+02  0.7546771E-02  0.1500865E+00
          2   -1    0    0  501    0  0.00000000000E+00  0.00000000000E+00  0.21218186085E+03  0.21218186085E+03  0.00000000000E+00 0.  1.
         -2   -1    0    0    0  501 -0.00000000000E+00 -0.00000000000E+00 -0.74838639421E+01  0.74838639421E+01  0.00000000000E+00 0.  1.
          2    1    1    2  502    0 -0.13726800192E+02 -0.17634153933E+02  0.19328582061E+03  0.19457337145E+03  0.00000000000E+00 0.  1.
         -2    1    1    2    0  502  0.13726800192E+02  0.17634153933E+02  0.11412176299E+02  0.25092353343E+02  0.00000000000E+00 0.  1.
</event>
<event>
 4    1  0.5784609E+003  0.2235831E+02  0.7546771E-02  0.1500717E+00
          2   -1    0    0  501    0  0.00000000000E+00  0.00000000000E+00  0.14082696475E+04  0.14082696475E+04  0.00000000000E+00 0. -1.
         -2   -1    0    0    0  501 -0.00000000000E+00 -0.00000000000E+00 -0.49534912248E+00  0.49534912248E+00  0.00000000000E+00 0.  1.
          2    1    1    2  502    0  0.15961229152E+02  0.15656728234E+02  0.10788632354E+04  0.10790948868E+04  0.00000000000E+00 0. -1.
         -2    1    1    2    0  502 -0.15961229152E+02 -0.15656728234E+02  0.32891106291E+03  0.32967010977E+03  0.00000000000E+00 0.  1.
</event>
<event>
 4    1  0.5784609E+003  0.2871984E+02  0.7546771E-02  0.1431057E+00
          2   -1    0    0  501    0  0.00000000000E+00  0.00000000000E+00  0.23257557970E+03  0.23257557970E+03  0.00000000000E+00 0.  1.
         -2   -1    0    0    0  501 -0.00000000000E+00 -0.00000000000E+00 -0.44615386255E+02  0.44615386255E+02  0.00000000000E+00 0. -1.
          2    1    1    2  502    0 -0.24935355724E+02 -0.14249823199E+02  0.22695301721E+03  0.22876298094E+03  0.00000000000E+00 0.  1.
         -2    1    1    2    0  502  0.24935355724E+02  0.14249823199E+02 -0.38992823773E+02  0.48427985010E+02  0.00000000000E+00 0. -1.
</event>
<event>
 4    1  0.5784609E+003  0.4169994E+02  0.7546771E-02  0.1338802E+00
          2   -1    0    0  501    0  0.00000000000E+00  0.00000000000E+00  0.58062013643E+02  0.58062013643E+02  0.00000000000E+00 0. -1.
         -2   -1    0    0    0  501 -0.00000000000E+00 -0.00000000000E+00 -0.33880124694E+02  0.33880124694E+02  0.00000000000E+00 0.  1.
          2    1    1    2  502    0 -0.40448448025E+02 -0.10139446650E+02  0.27750655997E+02  0.50089761771E+02  0.00000000000E+00 0. -1.
         -2    1    1    2    0  502  0.40448448025E+02  0.10139446650E+02 -0.35687670492E+01  0.41852376566E+02  0.00000000000E+00 0.  1.
</event>
<event>
 4    1  0.5784609E+003  0.3805343E+02  0.7546771E-02  0.1360286E+00
          2   -1    0    0  501    0  0.00000000000E+00  0.00000000000E+00  0.79714749401E+03  0.79714749401E+03  0.00000000000E+00 0.  1.
         -2   -1    0    0    0  501 -0.00000000000E+00 -0.00000000000E+00 -0.35141276865E+03  0.35141276865E+03  0.00000000000E+00 0.  1.
          2    1    1    2  502    0  0.73557051714E+01  0.37335732947E+02  0.79566125904E+03  0.79657071405E+03  0.00000000000E+00 0.  1.
         -2    1    1    2    0  502 -0.73557051714E+01 -0.37335732947E+02 -0.34992653368E+03  0.35198954860E+03  0.00000000000E+00 0.  1.
</event>
<event>
 4    1  0.5784609E+003  0.3778621E+02  0.7546771E-02  0.1361971E+00
          2   -1    0    0  501    0  0.00000000000E+00  0.00000000000E+00  0.45354460502E+03  0.45354460502E+03  0.00000000000E+00 0. -1.
         -2   -1    0    0    0  501 -0.00000000000E+00 -0.00000000000E+00 -0.79883937453E+01  0.79883937453E+01  0.00000000000E+00 0.  1.
          2    1    1    2  502    0  0.25319497320E+02 -0.28048548703E+02  0.40240834885E+03  0.40417852151E+03  0.00000000000E+00 0. -1.
         -2    1    1    2    0  502 -0.25319497320E+02  0.28048548703E+02  0.43147862422E+02  0.57354477249E+02  0.00000000000E+00 0.  1.
</event>
<event>
 4    1  0.5784609E+003  0.2169170E+02  0.7546771E-02  0.1509614E+00
          2   -1    0    0  501    0  0.00000000000E+00  0.00000000000E+00  0.10436471149E+04  0.10436471149E+04  0.00000000000E+00 0.  1.
         -2   -1    0    0    0  501 -0.00000000000E+00 -0.00000000000E+00 -0.55829992089E+00  0.55829992089E+00  0.00000000000E+00 0. -1.
          2    1    1    2  502    0  0.17301573498E+02 -0.13083760877E+02  0.29249805125E+03  0.29330127724E+03  0.00000000000E+00 0.  1.
         -2    1    1    2    0  502 -0.17301573498E+02  0.13083760877E+02  0.75059076376E+03  0.75090413761E+03  0.00000000000E+00 0. -1.
</event>
<event>
 4    1  0.5784609E+003  0.2787787E+02  0.7546771E-02  0.1438984E+00
          2   -1    0    0  501    0  0.00000000000E+00  0.00000000000E+00  0.88922652376E+00  0.88922652376E+00  0.00000000000E+00 0.  1.
         -2   -1    0    0    0  501 -0.00000000000E+00 -0.00000000000E+00 -0.89184965311E+03  0.89184965311E+03  0.00000000000E+00 0. -1.
          2    1    1    2  502    0  0.27445160014E+02  0.48926301730E+01 -0.50864736724E+03  0.50941075650E+03  0.00000000000E+00 0.  1.
         -2    1    1    2    0  502 -0.27445160014E+02 -0.48926301730E+01 -0.38231305934E+03  0.38332812313E+03  0.00000000000E+00 0. -1.
</event>
<event>
 4    1  0.5784609E+003  0.3164926E+02  0.7546771E-02  0.1405786E+00
          2   -1    0    0  501    0  0.00000000000E+00  0.00000000000E+00  0.11631244461E+03  0.11631244461E+03  0.00000000000E+00 0. -1.
         -2   -1    0    0    0  501 -0.00000000000E+00 -0.00000000000E+00 -0.13513968802E+02  0.13513968802E+02  0.00000000000E+00 0. -1.
          2    1    1    2  502    0 -0.17584777507E+02  0.26314468807E+02  0.90494991150E+02  0.95869802815E+02  0.00000000000E+00 0. -1.
         -2    1    1    2    0  502  0.17584777507E+02 -0.26314468807E+02  0.12303484659E+02  0.33956610598E+02  0.00000000000E+00 0. -1.
</event>
<event>
 4    1  0.5784609E+003  0.2351405E+02  0.7546771E-02  0.1486142E+00
          2   -1    0    0  501    0  0.00000000000E+00  0.00000000000E+00  0.61383340724E+03  0.61383340724E+03  0.00000000000E+00 0. -1.
         -2   -1    0    0    0  501 -0.00000000000E+00 -0.00000000000E+00 -0.23627092561E+01  0.23627092561E+01  0.00000000000E+00 0. -1.
          2    1    1    2  502    0 -0.23232070236E+02  0.36306391759E+01  0.54809002830E+03  0.54859419406E+03  0.00000000000E+00 0. -1.
         -2    1    1    2    0  502  0.23232070236E+02 -0.36306391759E+01  0.63380669686E+02  0.67601922444E+02  0.00000000000E+00 0. -1.
</event>
<event>
 4    1  0.5784609E+003  0.3786666E+02  0.7546771E-02  0.1361462E+00
          2   -1    0    0  501    0  0.00000000000E+00  0.00000000000E+00  0.37496672422E+03  0.37496672422E+03  0.00000000000E+00 0. -1.
         -2   -1    0    0    0  501 -0.00000000000E+00 -0.00000000000E+00 -0.61952389935E+01  0.61952389935E+01  0.00000000000E+00 0. -1.
          2    1    1    2  502    0  0.36777987026E+02 -0.90146456092E+01  0.30229160635E+03  0.30465406519E+03  0.00000000000E+00 0. -1.
         -2    1    1    2    0  502 -0.36777987026E+02  0.90146456092E+01  0.66479878882E+02  0.76507898033E+02  0.00000000000E+00 0. -1.
</event>
<event>
 4    1  0.5784609E+003  0.3278944E+02  0.7546771E-02  0.1396808E+00
          2   -1    0    0  501    0  0.00000000000E+00  0.00000000000E+00  0.13220704359E+04  0.13220704359E+04  0.00000000000E+00 0.  1.
         -2   -1    0    0    0  501 -0.00000000000E+00 -0.00000000000E+00 -0.50600484309E+01  0.50600484309E+01  0.00000000000E+00 0.  1.
          2    1    1    2  502    0  0.30345429558E+02  0.12421858200E+02  0.12664135695E+04  0.12668379836E+04  0.00000000000E+00 0.  1.
         -2    1    1    2    0  502 -0.30345429558E+02 -0.12421858200E+02  0.50596817936E+02  0.60292500707E+02  0.00000000000E+00 0.  1.
</event>
<event>
 4    1  0.5784609E+003  0.2367673E+02  0.7546771E-02  0.1484171E+00
          2   -1    0    0  501    0  0.00000000000E+00  0.00000000000E+00  0.83427084903E+02  0.83427084903E+02  0.00000000000E+00 0. -1.
         -2   -1    0    0    0  501 -0.00000000000E+00 -0.00000000000E+00 -0.53904353810E+02  0.53904353810E+02  0.00000000000E+00 0. -1.
          2    1    1    2  502    0  0.21401999626E+02  0.10126297598E+02  0.79004896623E+02  0.82476428035E+02  0.00000000000E+00 0. -1.
         -2    1    1    2    0  502 -0.21401999626E+02 -0.10126297598E+02 -0.49482165529E+02  0.54855010678E+02  0.00000000000E+00 0. -1.
</event>
<event>
 4    1  0.5784609E+003  0.2163656E+02  0.7546771E-02  0.1510367E+00
          2   -1    0    0  501    0  0.00000000000E+00  0.00000000000E+00  0.10855269387E+04  0.10855269387E+04  0.00000000000E+00 0. -1.
         -2   -1    0    0    0  501 -0.00000000000E+00 -0.00000000000E+00 -0.46469761354E+01  0.46469761354E+01  0.00000000000E+00 0.  1.
          2    1    1    2  502    0 -0.51710638414E+01  0.21009538834E+02  0.10596181547E+04  0.10598390323E+04  0.00000000000E+00 0. -1.
         -2    1    1    2    0  502  0.51710638414E+01 -0.21009538834E+02  0.21261807793E+02  0.30334882460E+02  0.00000000000E+00 0.  1.
</event>
<event>
 4    1  0.5784609E+003  0.2143538E+02  0.7546771E-02  0.1513139E+00
          2   -1    0    0  501    0  0.00000000000E+00  0.00000000000E+00  0.24916606610E+03  0.24916606610E+03  0.00000000000E+00 0.  1.
         -2   -1    0    0    0  501 -0.00000000000E+00 -0.00000000000E+00 -0.96454944764E+02  0.96454944764E+02  0.00000000000E+00 0. -1.
          2    1    1    2  502    0  0.14597964138E+01  0.21385619082E+02  0.24750617310E+03  0.24843264969E+03  0.00000000000E+00 0.  1.
         -2    1    1    2    0  502 -0.14597964138E+01 -0.21385619082E+02 -0.94795051763E+02  0.97188361175E+02  0.00000000000E+00 0. -1.
</event>
<event>
 4    1  0.5784609E+003  0.6440344E+02  0.7546771E-02  0.1245563E+00
          2   -1    0    0  501    0  0.00000000000E+00  0.00000000000E+00  0.17752806149E+04  0.17752806149E+04  0.00000000000E+00 0.  1.
         -2   -1    0    0    0  501 -0.00000000000E+00 -0.00000000000E+00 -0.14285406461E+02  0.14285406461E+02  0.00000000000E+00 0. -1.
          2    1    1    2  502    0  0.19937563279E+02 -0.61239663332E+02  0.16988435706E+04  0.17000639047E+04  0.00000000000E+00 0.  1.
         -2    1    1    2    0  502 -0.19937563279E+02  0.61239663332E+02  0.62151637822E+02  0.89502116615E+02  0.00000000000E+00 0. -1.
</event>
<event>
 4    1  0.5784609E+003  0.2099950E+02  0.7546771E-02  0.1519272E+00
          2   -1    0    0  501    0  0.00000000000E+00  0.00000000000E+00  0.19499960679E+04  0.19499960679E+04  0.00000000000E+00 0. -1.
         -2   -1    0    0    0  501 -0.00000000000E+00 -0.00000000000E+00 -0.28334933828E+00  0.28334933828E+00  0.00000000000E+00 0. -1.
          2    1    1    2  502    0 -0.20247380606E+02 -0.55698010948E+01  0.14130091545E+04  0.14131651885E+04  0.00000000000E+00 0. -1.
         -2    1    1    2    0  502  0.20247380606E+02  0.55698010948E+01  0.53670356400E+03  0.53711422874E+03  0.00000000000E+00 0. -1.
</event>
<event>
 4    1  0.5784609E+003  0.2502758E+02  0.7546771E-02  0.1468495E+00
          2   -1    0    0  501    0  0.00000000000E+00  0.00000000000E+00  0.66498907669E+00  0.66498907669E+00  0.00000000000E+00 0.  1.
         -2   -1    0    0    0  501 -0.00000000000E+00 -0.00000000000E+00 -0.11652987987E+04  0.11652987987E+04  0.00000000000E+00 0.  1.
          2    1    1    2  502    0  0.24403826024E+02  0.55527281636E+01 -0.32708298927E+03  0.32803911564E+03  0.00000000000E+00 0.  1.
         -2    1    1    2    0  502 -0.24403826024E+02 -0.55527281636E+01 -0.83755082030E+03  0.83792467209E+03  0.00000000000E+00 0.  1.
</event>
<event>
 4    1  0.5784609E+003  0.3089588E+02  0.7546771E-02  0.1411968E+00
          2   -1    0    0  501    0  0.00000000000E+00  0.00000000000E+00  0.29655229458E+02  0.29655229458E+02  0.00000000000E+00 0.  1.
         -2   -1    0    0    0  501 -0.00000000000E+00 -0.00000000000E+00 -0.38351951998E+03  0.38351951998E+03  0.00000000000E+00 0.  1.
          2    1    1    2  502    0  0.20753604564E+02 -0.22887625765E+02  0.20795924493E+02  0.37242797842E+02  0.00000000000E+00 0.  1.
         -2    1    1    2    0  502 -0.20753604564E+02  0.22887625765E+02 -0.37466021501E+03  0.37593195159E+03  0.00000000000E+00 0.  1.
</event>
<event>
 4    1  0.5784609E+003  0.2211774E+02  0.7546771E-02  0.1503884E+00
          2   -1    0    0  501    0  0.00000000000E+00  0.00000000000E+00  0.12513378684E+04  0.12513378684E+04  0.00000000000E+00 0. -1.
         -2   -1    0    0    0  501 -0.00000000000E+00 -0.00000000000E+00 -0.12593014469E+01  0.12593014469E+01  0.00000000000E+00 0.  1.
          2    1    1    2  502    0 -0.32947651091E+01  0.21870964885E+02  0.11451161476E+04  0.11453297281E+04  0.00000000000E+00 0. -1.
         -2    1    1    2    0  502  0.32947651091E+01 -0.21870964885E+02  0.10496241942E+03  0.10726744181E+03  0.00000000000E+00 0.  1.
</event>
<event>
 4    1  0.5784609E+003  0.2270489E+02  0.7546771E-02  0.1496237E+00
          2   -1    0    0  501    0  0.00000000000E+00  0.00000000000E+00  0.19689222869E+03  0.19689222869E+03  0.00000000000E+00 0. -1.
         -2   -1    0    0    0  501 -0.00000000000E+00 -0.00000000000E+00 -0.17871133644E+02  0.17871133644E+02  0.00000000000E+00 0. -1.
          2    1    1    2  502    0 -0.10156890349E+02  0.20306394042E+02  0.18871477965E+03  0.19007572207E+03  0.00000000000E+00 0. -1.
         -2    1    1    2    0  502  0.10156890349E+02 -0.20306394042E+02 -0.96936846080E+01  0.24687640265E+02  0.00000000000E+00 0. -1.
</event>
<event>
 4    1  0.5784609E+003  0.4133018E+02  0.7546771E-02  0.1340862E+00
          2   -1    0    0  501    0  0.00000000000E+00  0.00000000000E+00  0.13872901246E+04  0.13872901246E+04  0.00000000000E+00 0.  1.
         -2   -1    0    0    0  501 -0.00000000000E+00 -0.00000000000E+00 -0.66404066559E+01  0.66404066559E+01  0.00000000000E+00 0.  1.
          2    1    1    2  502    0 -0.46536096501E+00  0.41327561070E+02  0.13193618389E+04  0.13200090325E+04  0.00000000000E+00 0.  1.
         -2    1    1    2    0  502  0.46536096501E+00 -0.41327561070E+02  0.61287879053E+02  0.73921498791E+02  0.00000000000E+00 0.  1.
</event>
<event>
 4    1  0.5784609E+003  0.5720921E+02  0.7546771E-02  0.1269621E+00
          2   -1    0    0  501    0  0.00000000000E+00  0.00000000000E+00  0.34255236217E+03  0.34255236217E+03  0.00000000000E+00 0.  1.
         -2   -1    0    0    0  501 -0.00000000000E+00 -0.00000000000E+00 -0.46184092244E+02  0.46184092244E+02  0.00000000000E+00 0.  1.
          2    1    1    2  502    0  0.18359460503E+02  0.54183243913E+02  0.32128351198E+03  0.32633723168E+03  0.00000000000E+00 0.  1.
         -2    1    1    2    0  502 -0.18359460503E+02 -0.54183243913E+02 -0.24915242055E+02  0.62399222732E+02  0.00000000000E+00 0.  1.
</event>
<event>
 4    1  0.5784609E+003  0.2123662E+02  0.7546771E-02  0.1515913E+00
          2   -1    0    0  501    0  0.00000000000E+00  0.00000000000E+00  0.78509515156E+03  0.78509515156E+03  0.00000000000E+00 0.  1.
         -2   -1    0    0    0  501 -0.00000000000E+00 -0.00000000000E+00 -0.51279068432E+01  0.51279068432E+01  0.00000000000E+00 0.  1.
          2    1    1    2  502    0  0.17231397660E+02  0.12412615199E+02  0.76230715268E+03  0.76260290395E+03  0.00000000000E+00 0.  1.
         -2    1    1    2    0  502 -0.17231397660E+02 -0.12412615199E+02  0.17660092035E+02  0.27620154455E+02  0.00000000000E+00 0.  1.
</event>
<event>
 4    1  0.5784609E+003  0.3494605E+02  0.7546771E-02  0.1380943E+00
          2   -1    0    0  501    0  0.00000000000E+00  0.00000000000E+00  0.14012717889E+03  0.14012717889E+03  0.00000000000E+00 0. -1.
         -2   -1    0    0    0  501 -0.00000000000E+00 -0.00000000000E+00 -0.19971125835E+03  0.19971125835E+03  0.00000000000E+00 0. -1.
          2    1    1    2  502    0 -0.31225158624E+02 -0.15691260265E+02  0.13637830216E+03  0.14078447172E+03  0.00000000000E+00 0. -1.
         -2    1    1    2    0  502  0.31225158624E+02  0.15691260265E+02 -0.19596238161E+03  0.19905396551E+03  0.00000000000E+00 0. -1.
</event>
<event>
 4    1  0.5784609E+003  0.3797875E+02  0.7546771E-02  0.1360755E+00
          2   -1    0    0  501    0  0.00000000000E+00  0.00000000000E+00  0.13882783801E+02  0.13882783801E+02  0.00000000000E+00 0. -1.
         -2   -1    0    0    0  501 -0.00000000000E+00 -0.00000000000E+00 -0.12231179434E+03  0.12231179434E+03  0.00000000000E+00 0.  1.
          2    1    1    2  502    0 -0.35747026972E+02 -0.12827151781E+02 -0.27792008788E+02  0.47061465262E+02  0.00000000000E+00 0. -1.
         -2    1    1    2    0  502  0.35747026972E+02  0.12827151781E+02 -0.80637001749E+02  0.89133112877E+02  0.00000000000E+00 0.  1.
</event>
<event>
 4    1  0.5784609E+003  0.2129808E+02  0.7546771E-02  0.1515051E+00
          2   -1    0    0  501    0  0.00000000000E+00  0.00000000000E+00  0.92825647422E+02  0.92825647422E+02  0.00000000000E+00 0. -1.
         -2   -1    0    0    0  501 -0.00000000000E+00 -0.00000000000E+00 -0.15581905188E+02  0.15581905188E+02  0.00000000000E+00 0. -1.
          2    1    1    2  502    0  0.20241102645E+02 -0.66261660115E+01  0.83528911525E+02  0.86201434865E+02  0.00000000000E+00 0. -1.
         -2    1    1    2    0  502 -0.20241102645E+02  0.66261660115E+01 -0.62851692904E+01  0.22206117745E+02  0.00000000000E+00 0. -1.
</event>
<event>
 4    1  0.5784609E+003  0.3489137E+02  0.7546771E-02  0.1381328E+00
          2   -1    0    0  501    0  0.00000000000E+00  0.00000000000E+00  0.77059873276E+03  0.77059873276E+03  0.00000000000E+00 0.  1.
         -2   -1    0    0    0  501 -0.00000000000E+00 -0.00000000000E+00 -0.15798245959E+01  0.15798245959E+01  0.00000000000E+00 0.  1.
          2    1    1    2  502    0  0.28169347070E+02  0.20588731459E+02  0.38510062087E+03  0.38667802649E+03  0.00000000000E+00 0.  1.
         -2    1    1    2    0  502 -0.28169347070E+02 -0.20588731459E+02  0.38391828729E+03  0.38550053086E+03  0.00000000000E+00 0.  1.
</event>
<event>
 4    1  0.5784609E+003  0.3988782E+02  0.7546771E-02  0.1349144E+00
          2   -1    0    0  501    0  0.00000000000E+00  0.00000000000E+00  0.86280756765E+03  0.86280756765E+03  0.00000000000E+00 0. -1.
         -2   -1    0    0    0  501 -0.00000000000E+00 -0.00000000000E+00 -0.22352832633E+03  0.22352832633E+03  0.00000000000E+00 0.  1.
          2    1    1    2  502    0  0.17343043870E+02  0.35920144913E+02  0.86056246269E+03  0.86148638421E+03  0.00000000000E+00 0. -1.
         -2    1    1    2    0  502 -0.17343043870E+02 -0.35920144913E+02 -0.22128322138E+03  0.22484950977E+03  0.00000000000E+00 0.  1.
</event>
<event>
 4    1  0.5784609E+003  0.2866796E+02  0.7546771E-02  0.1431536E+00
          2   -1    0    0  501    0  0.00000000000E+00  0.00000000000E+00  0.11649464758E+03  0.11649464758E+03  0.00000000000E+00 0.  1.
         -2   -1    0    0    0  501 -0.00000000000E+00 -0.00000000000E+00 -0.95233159251E+01  0.95233159251E+01  0.00000000000E+00 0. -1.
          2    1    1    2  502    0  0.22748033962E+02  0.17446461022E+02  0.85564759863E+02  0.90239571041E+02  0.00000000000E+00 0.  1.
         -2    1    1    2    0  502 -0.22748033962E+02 -0.17446461022E+02  0.21406571789E+02  0.35778392461E+02  0.00000000000E+00 0. -1.
</event>
<event>
 4    1  0.5784609E+003  0.2230949E+02  0.7546771E-02  0.1501356E+00
          2   -1    0    0  501    0  0.00000000000E+00  0.00000000000E+00  0.14168158823E+04  0.14168158823E+04  0.00000000000E+00 0.  1.
         -2   -1    0    0    0  501 -0.00000000000E+00 -0.00000000000E+00 -0.39539878212E+01  0.39539878212E+01  0.00000000000E+00 0. -1.
          2    1    1    2  502    0 -0.11795591621E+02 -0.18936136901E+02  0.13845250966E+04  0.13847048264E+04  0.00000000000E+00 0.  1.
         -2    1    1    2    0  502  0.11795591621E+02  0.18936136901E+02  0.28336797943E+02  0.36065043741E+02  0.00000000000E+00 0. -1.
</event>
<event>
 4    1  0.5784609E+003  0.2542353E+02  0.7546771E-02  0.1464121E+00
          2   -1    0    0  501    0  0.00000000000E+00  0.00000000000E+00  0.18736027292E+04  0.18736027292E+04  0.00000000000E+00 0.  1.
         -2   -1    0    0    0  501 -0.00000000000E+00 -0.00000000000E+00 -0.35089457374E+00  0.35089457374E+00  0.00000000000E+00 0.  1.
          2    1    1    2  502    0  0.24918077083E+02  0.50443486482E+01  0.10582701375E+04  0.10585754768E+04  0.00000000000E+00 0.  1.
         -2    1    1    2    0  502 -0.24918077083E+02 -0.50443486482E+01  0.81498169712E+03  0.81537814704E+03  0.00000000000E+00 0.  1.
</event>
<event>
 4    1  0.5784609E+003  0.5440514E+02  0.7546771E-02  0.1280125E+00
          2   -1    0    0  501    0  0.00000000000E+00  0.00000000000E+00  0.26025270761E+03  0.26025270761E+03  0.00000000000E+00 0.  1.
         -2   -1    0    0    0  501 -0.00000000000E+00 -0.00000000000E+00 -0.14292541909E+02  0.14292541909E+02  0.00000000000E+00 0.  1.
          2    1    1    2  502    0  0.44157528498E+02  0.31781006020E+02  0.18501951334E+03  0.19285263800E+03  0.00000000000E+00 0.  1.
         -2    1    1    2    0  502 -0.44157528498E+02 -0.31781006020E+02  0.60940652365E+02  0.81692611523E+02  0.00000000000E+00 0.  1.
</event>
<event>
 4    1  0.5784609E+003  0.3550905E+02  0.7546771E-02  0.1377019E+00
          2   -1    0    0  501    0  0.00000000000E+00  0.00000000000E+00  0.20371466503E+03  0.20371466503E+03  0.00000000000E+00 0.  1.
         -2   -1    0    0    0  501 -0.00000000000E+00 -0.00000000000E+00 -0.72070501759E+02  0.72070501759E+02  0.00000000000E+00 0.  1.
          2    1    1    2  502    0  0.21719647752E+02 -0.28091802954E+02  0.19766057252E+03  0.20082478538E+03  0.00000000000E+00 0.  1.
         -2    1    1    2    0  502 -0.21719647752E+02  0.28091802954E+02 -0.66016409250E+02  0.74960381415E+02  0.00000000000E+00 0.  1.
</event>
<event>
 4    1  0.5784609E+003  0.2030804E+02  0.7546771E-02  0.1529378E+00
          2   -1    0    0  501    0  0.00000000000E+00  0.00000000000E+00  0.65654161930E+03  0.65654161930E+03  0.00000000000E+00 0.  1.
         -2   -1    0    0    0  501 -0.00000000000E+00 -0.00000000000E+00 -0.74138161138E+00  0.74138161138E+00  0.00000000000E+00 0.  1.
          2    1    1    2  502    0 -0.69221776481E+01  0.19091876774E+02  0.45632733107E+03  0.45677899403E+03  0.00000000000E+00 0.  1.
         -2    1    1    2    0  502  0.69221776481E+01 -0.19091876774E+02  0.19947290662E+03  0.20050400688E+03  0.00000000000E+00 0.  1.
</event>
<event>
 4    1  0.5784609E+003  0.2455843E+02  0.7546771E-02  0.1473804E+00
          2   -1    0    0  501    0  0.00000000000E+00  0.00000000000E+00  0.51766649939E+02  0.51766649939E+02  0.00000000000E+00 0. -1.
         -2   -1    0    0    0  501 -0.00000000000E+00 -0.00000000000E+00 -0.11057228353E+04  0.11057228353E+04  0.00000000000E+00 0.  1.
          2    1    1    2  502    0 -0.54438710958E+01 -0.23947460381E+02  0.48709543534E+02  0.54550309096E+02  0.00000000000E+00 0. -1.
         -2    1    1    2    0  502  0.54438710958E+01  0.23947460381E+02 -0.11026657289E+04  0.11029391762E+04  0.00000000000E+00 0.  1.
</event>
<event>
 4    1  0.5784609E+003  0.3239861E+02  0.7546771E-02  0.1399836E+00
          2   -1    0    0  501    0  0.00000000000E+00  0.00000000000E+00  0.22757137682E+02  0.22757137682E+02  0.00000000000E+00 0.  1.
         -2   -1    0    0    0  501 -0.00000000000E+00 -0.00000000000E+00 -0.18717488903E+03  0.18717488903E+03  0.00000000000E+00 0. -1.
          2    1    1    2  502    0 -0.43101761818E+01  0.32110625287E+02  0.89106593410E+01  0.33601632772E+02  0.00000000000E+00 0.  1.
         -2    1    1    2    0  502  0.43101761818E+01 -0.32110625287E+02 -0.17332841069E+03  0.17633039394E+03  0.00000000000E+00 0. -1.
</event>
<event>
 4    1  0.5784609E+003  0.2024205E+02  0.7546771E-02  0.1530367E+00
          2   -1    0    0  501    0  0.00000000000E+00  0.00000000000E+00  0.25453688924E+03  0.25453688924E+03  0.00000000000E+00 0. -1.
         -2   -1    0    0    0  501 -0.00000000000E+00 -0.00000000000E+00 -0.30431929904E+03  0.30431929904E+03  0.00000000000E+00 0. -1.
          2    1    1    2  502    0  0.42680838328E+01  0.19786969326E+02  0.25379686762E+03  0.25460280970E+03  0.00000000000E+00 0. -1.
         -2    1    1    2    0  502 -0.42680838328E+01 -0.19786969326E+02 -0.30357927742E+03  0.30425337857E+03  0.00000000000E+00 0. -1.
</event>
<event>
 4    1  0.5784609E+003  0.2108826E+02  0.7546771E-02  0.1518008E+00
          2   -1    0    0  501    0  0.00000000000E+00  0.00000000000E+00  0.19907179800E+03  0.19907179800E+03  0.00000000000E+00 0.  1.
         -2   -1    0    0    0  501 -0.00000000000E+00 -0.00000000000E+00 -0.89187805634E+01  0.89187805634E+01  0.00000000000E+00 0. -1.
          2    1    1    2  502    0 -0.20185152905E+02  0.61052589235E+01  0.18511048550E+03  0.18630782707E+03  0.00000000000E+00 0.  1.
         -2    1    1    2    0  502  0.20185152905E+02 -0.61052589235E+01  0.50425319421E+01  0.21682751502E+02  0.00000000000E+00 0. -1.
</event>
<event>
 4    1  0.5784609E+003  0.2157193E+02  0.7546771E-02  0.1511254E+00
          2   -1    0    0  501    0  0.00000000000E+00  0.00000000000E+00  0.33577734521E+03  0.33577734521E+03  0.00000000000E+00 0.  1.
         -2   -1    0    0    0  501 -0.00000000000E+00 -0.00000000000E+00 -0.12899592827E+03  0.12899592827E+03  0.00000000000E+00 0. -1.
          2    1    1    2  502    0  0.21491715436E+02 -0.18585558930E+01  0.33452563765E+03  0.33522045032E+03  0.00000000000E+00 0.  1.
         -2    1    1    2    0  502 -0.21491715436E+02  0.18585558930E+01 -0.12774422072E+03  0.12955282316E+03  0.00000000000E+00 0. -1.
</event>
<event>
 4    1  0.5784609E+003  0.2310457E+02  0.7546771E-02  0.1491189E+00
          2   -1    0    0  501    0  0.00000000000E+00  0.00000000000E+00  0.11135102183E+04  0.11135102183E+04  0.00000000000E+00 0.  1.
         -2   -1    0    0    0  501 -0.00000000000E+00 -0.00000000000E+00 -0.25445134548E+01  0.25445134548E+01  0.00000000000E+00 0. -1.
          2    1    1    2  502    0  0.22948726465E+02  0.26789719648E+01  0.10582011457E+04  0.10584533460E+04  0.00000000000E+00 0.  1.
         -2    1    1    2    0  502 -0.22948726465E+02 -0.26789719648E+01  0.52764559168E+02  0.57601385759E+02  0.00000000000E+00 0. -1.
</event>
<event>
 4    1  0.5784609E+003  0.2959158E+02  0.7546771E-02  0.1423179E+00
          2   -1    0    0  501    0  0.00000000000E+00  0.00000000000E+00  0.75664815774E+02  0.75664815774E+02  0.00000000000E+00 0.  1.
         -2   -1    0    0    0  501 -0.00000000000E+00 -0.00000000000E+00 -0.50722820468E+03  0.50722820468E+03  0.00000000000E+00 0.  1.
          2    1    1    2  502    0  0.93893660943E+01 -0.28062455325E+02  0.72320814203E+02  0.78140653705E+02  0.00000000000E+00 0.  1.
         -2    1    1    2    0  502 -0.93893660943E+01  0.28062455325E+02 -0.50388420311E+03  0.50475236675E+03  0.00000000000E+00 0.  1.
</event>
<event>
 4    1  0.5784609E+003  0.2074770E+02  0.7546771E-02  0.1522898E+00
          2   -1    0    0  501    0  0.00000000000E+00  0.00000000000E+00  0.81850486093E+03  0.81850486093E+03  0.00000000000E+00 0.  1.
         -2   -1    0    0    0  501 -0.00000000000E+00 -0.00000000000E+00 -0.46212823824E+02  0.46212823824E+02  0.00000000000E+00 0.  1.
          2    1    1    2  502    0 -0.75924867548E+01 -0.19308583724E+02  0.81603761966E+03  0.81630133160E+03  0.00000000000E+00 0.  1.
         -2    1    1    2    0  502  0.75924867548E+01  0.19308583724E+02 -0.43745582553E+02  0.48416353161E+02  0.00000000000E+00 0.  1.
</event>
<event>
 4    1  0.5784609E+003  0.2386725E+02  0.7546771E-02  0.1481886E+00
          2   -1    0    0  501    0  0.00000000000E+00  0.00000000000E+00  0.34601971437E+03  0.34601971437E+03  0.00000000000E+00 0. -1.
         -2   -1    0    0    0  501 -0.00000000000E+00 -0.00000000000E+00 -0.31743862993E+01  0.31743862993E+01  0.00000000000E+00 0. -1.
          2    1    1    2  502    0 -0.20181994020E+02  0.12740994178E+02  0.29256155693E+03  0.29353349112E+03  0.00000000000E+00 0. -1.
         -2    1    1    2    0  502  0.20181994020E+02 -0.12740994178E+02  0.50283771133E+02  0.55660609543E+02  0.00000000000E+00 0. -1.
</event>
<event>
 4    1  0.5784609E+003  0.2073860E+02  0.7546771E-02  0.1523030E+00
          2   -1    0    0  501    0  0.00000000000E+00  0.00000000000E+00  0.14174458960E+04  0.14174458960E+04  0.00000000000E+00 0.  1.
         -2   -1    0    0    0  501 -0.00000000000E+00 -0.00000000000E+00 -0.35149482481E+02  0.35149482481E+02  0.00000000000E+00 0.  1.
          2    1    1    2  502    0  0.17834828274E+02 -0.10583403893E+02  0.14143042415E+04  0.14144562832E+04  0.00000000000E+00 0.  1.
         -2    1    1    2    0  502 -0.17834828274E+02  0.10583403893E+02 -0.32007827979E+02  0.38139095290E+02  0.00000000000E+00 0.  1.
</event>
<event>
 4    1  0.5784609E+003  0.2222000E+02  0.7546771E-02  0.1502532E+00
          2   -1    0    0  501    0  0.00000000000E+00  0.00000000000E+00  0.28954844537E+03  0.28954844537E+03  0.00000000000E+00 0. -1.
         -2   -1    0    0    0  501 -0.00000000000E+00 -0.00000000000E+00 -0.35418955842E+01  0.35418955842E+01  0.00000000000E+00 0. -1.
          2    1    1    2  502    0 -0.14320684542E+02 -0.16989591824E+02  0.24853334212E+03  0.24952464885E+03  0.00000000000E+00 0. -1.
         -2    1    1    2    0  502  0.14320684542E+02  0.16989591824E+02  0.37473207663E+02  0.43565692106E+02  0.00000000000E+00 0. -1.
</event>
<event>
 4    1  0.5784609E+003  0.2647378E+02  0.7546771E-02  0.1452967E+00
          2   -1    0    0  501    0  0.00000000000E+00  0.00000000000E+00  0.21196005028E+03  0.21196005028E+03  0.00000000000E+00 0. -1.
         -2   -1    0    0    0  501 -0.00000000000E+00 -0.00000000000E+00 -0.47549186634E+02  0.47549186634E+02  0.00000000000E+00 0. -1.
          2    1    1    2  502    0 -0.14067063447E+02 -0.22427188540E+02  0.20736719534E+03  0.20905026850E+03  0.00000000000E+00 0. -1.
         -2    1    1    2    0  502  0.14067063447E+02  0.22427188540E+02 -0.42956331696E+02  0.50458968406E+02  0.00000000000E+00 0. -1.
</event>
<event>
 4    1  0.5784609E+003  0.3762383E+02  0.7546771E-02  0.1363002E+00
          2   -1    0    0  501    0  0.00000000000E+00  0.00000000000E+00  0.25704481282E+03  0.25704481282E+03  0.00000000000E+00 0.  1.
         -2   -1    0    0    0  501 -0.00000000000E+00 -0.00000000000E+00 -0.45493160010E+02  0.45493160010E+02  0.00000000000E+00 0. -1.
          2    1    1    2  502    0 -0.29002647467E+02 -0.23966621889E+02  0.24759389028E+03  0.25043619353E+03  0.00000000000E+00 0.  1.
         -2    1    1    2    0  502  0.29002647467E+02  0.23966621889E+02 -0.36042237469E+02  0.52101779304E+02  0.00000000000E+00 0. -1.
</event>
<event>
 4    1  0.5784609E+003  0.2139397E+02  0.7546771E-02  0.1513714E+00
          2   -1    0    0  501    0  0.00000000000E+00  0.00000000000E+00  0.15477637337E+04  0.15477637337E+04  0.00000000000E+00 0. -1.
         -2   -1    0    0    0  501 -0.00000000000E+00 -0.00000000000E+00 -0.61724869792E+00  0.61724869792E+00  0.00000000000E+00 0. -1.
          2    1    1    2  502    0  0.15431860480E+01  0.21338243882E+02  0.13323376754E+04  0.13325094309E+04  0.00000000000E+00 0. -1.
         -2    1    1    2    0  502 -0.15431860480E+01 -0.21338243882E+02  0.21480880961E+03  0.21587155153E+03  0.00000000000E+00 0. -1.
</event>
<event>
 4    1  0.5784609E+003  0.2689974E+02  0.7546771E-02  0.1448618E+00
          2   -1    0    0  501    0  0.00000000000E+00  0.00000000000E+00  0.47591774407E+02  0.47591774407E+02  0.00000000000E+00 0. -1.
         -2   -1    0    0    0  501 -0.00000000000E+00 -0.00000000000E+00 -0.61805295297E+03  0.61805295297E+03  0.00000000000E+00 0.  1.
          2    1    1    2  502    0 -0.19344243643E+02 -0.18692139394E+02  0.43472536311E+02  0.51121984024E+02  0.00000000000E+00 0. -1.
         -2    1    1    2    0  502  0.19344243643E+02  0.18692139394E+02 -0.61393371487E+03  0.61452274335E+03  0.00000000000E+00 0.  1.
</event>
<event>
 4    1  0.5784609E+003  0.2277931E+02  0.7546771E-02  0.1495288E+00
          2   -1    0    0  501    0  0.00000000000E+00  0.00000000000E+00  0.43768784893E+03  0.43768784893E+03  0.00000000000E+00 0. -1.
         -2   -1    0    0    0  501 -0.00000000000E+00 -0.00000000000E+00 -0.12670458748E+01  0.12670458748E+01  0.00000000000E+00 0. -1.
          2    1    1    2  502    0 -0.18833158032E+02  0.12814396186E+02  0.16254474398E+03  0.16413314835E+03  0.00000000000E+00 0. -1.
         -2    1    1    2    0  502  0.18833158032E+02 -0.12814396186E+02  0.27387605907E+03  0.27482174645E+03  0.00000000000E+00 0. -1.
</event>
<event>
 4    1  0.5784609E+003  0.2058007E+02  0.7546771E-02  0.1525346E+00
          2   -1    0    0  501    0  0.00000000000E+00  0.00000000000E+00  0.85199537303E+03  0.85199537303E+03  0.00000000000E+00 0. -1.
         -2   -1    0    0    0  501 -0.00000000000E+00 -0.00000000000E+00 -0.19997395619E+02  0.19997395619E+02  0.00000000000E+00 0. -1.
          2    1    1    2  502    0  0.20576230216E+02  0.39747863320E+00  0.84654206022E+03  0.84679218168E+03  0.00000000000E+00 0. -1.
         -2    1    1    2    0  502 -0.20576230216E+02 -0.39747863320E+00 -0.14544082802E+02  0.25200586972E+02  0.00000000000E+00 0. -1.
</event>
<event>
 4    1  0.5784609E+003  0.2144987E+02  0.7546771E-02  0.1512938E+00
          2   -1    0    0  501    0  0.00000000000E+00  0.00000000000E+00  0.22806677282E+02  0.22806677282E+02  0.00000000000E+00 0. -1.
         -2   -1    0    0    0  501 -0.00000000000E+00 -0.00000000000E+00 -0.28293786289E+02  0.28293786289E+02  0.00000000000E+00 0. -1.
          2    1    1    2  502    0 -0.49869726307E+01  0.20862098885E+02  0.10944044908E+02  0.24080473103E+02  0.00000000000E+00 0. -1.
         -2    1    1    2    0  502  0.49869726307E+01 -0.20862098885E+02 -0.16431153914E+02  0.27019990468E+02  0.00000000000E+00 0. -1.
</event>
<event>
 4    1  0.5784609E+003  0.2400998E+02  0.7546771E-02  0.1480191E+00
          2   -1    0    0  501    0  0.00000000000E+00  0.00000000000E+00  0.15739303576E+03  0.15739303576E+03  0.00000000000E+00 0.  1.
         -2   -1    0    0    0  501 -0.00000000000E+00 -0.00000000000E+00 -0.42754756171E+02  0.42754756171E+02  0.00000000000E+00 0. -1.
          2    1    1    2  502    0 -0.21105053543E+02 -0.11447964640E+02  0.15301055976E+03  0.15488289311E+03  0.00000000000E+00 0.  1.
         -2    1    1    2    0  502  0.21105053543E+02  0.11447964640E+02 -0.38372280174E+02  0.45264898820E+02  0.00000000000E+00 0. -1.
</event>
<event>
 4    1  0.5784609E+003  0.3669347E+02  0.7546771E-02  0.1369033E+00
          2   -1    0    0  501    0  0.00000000000E+00  0.00000000000E+00  0.33554275668E+02  0.33554275668E+02  0.00000000000E+00 0. -1.
         -2   -1    0    0    0  501 -0.00000000000E+00 -0.00000000000E+00 -0.52489268327E+03  0.52489268327E+03  0.00000000000E+00 0.  1.
          2    1    1    2  502    0  0.17960586550E+02 -0.31997312738E+02  0.22669241610E+02  0.43131255568E+02  0.00000000000E+00 0. -1.
         -2    1    1    2    0  502 -0.17960586550E+02  0.31997312738E+02 -0.51400764921E+03  0.51531570337E+03  0.00000000000E+00 0.  1.
</event>
<event>
 4    1  0.5784609E+003  0.2356230E+02  0.7546771E-02  0.1485555E+00
          2   -1    0    0  501    0  0.00000000000E+00  0.00000000000E+00  0.45586872694E+03  0.45586872694E+03  0.00000000000E+00 0.  1.
         -2   -1    0    0    0  501 -0.00000000000E+00 -0.00000000000E+00 -0.94269324751E+01  0.94269324751E+01  0.00000000000E+00 0.  1.
          2    1    1    2  502    0  0.20441432972E+01 -0.23473464695E+02  0.44032147600E+03  0.44095145344E+03  0.00000000000E+00 0.  1.
         -2    1    1    2    0  502 -0.20441432972E+01  0.23473464695E+02  0.61203184732E+01  0.24344205980E+02  0.00000000000E+00 0.  1.
</event>
<event>
 4    1  0.5784609E+003  0.2182134E+02  0.7546771E-02  0.1507854E+00
          2   -1    0    0  501    0  0.00000000000E+00  0.00000000000E+00  0.66915043624E+03  0.66915043624E+03  0.00000000000E+00 0. -1.
         -2   -1    0    0    0  501 -0.00000000000E+00 -0.00000000000E+00 -0.15294404230E+01  0.15294404230E+01  0.00000000000E+00 0.  1.
          2    1    1    2  502    0 -0.13794716633E+02 -0.16907881688E+02  0.57902830627E+03  0.57943934120E+03  0.00000000000E+00 0. -1.
         -2    1    1    2    0  502  0.13794716633E+02  0.16907881688E+02  0.88592689551E+02  0.91240535466E+02  0.00000000000E+00 0.  1.
</event>
<event>
 4    1  0.5784609E+003  0.2238427E+02  0.7546771E-02  0.1500378E+00
          2   -1    0    0  501    0  0.00000000000E+00  0.00000000000E+00  0.13328662301E+04  0.13328662301E+04  0.00000000000E+00 0. -1.
         -2   -1    0    0    0  501 -0.00000000000E+00 -0.00000000000E+00 -0.20839808837E+01  0.20839808837E+01  0.00000000000E+00 0.  1.
          2    1    1    2  502    0  0.23749804281E+01  0.22257918015E+02  0.12696728542E+04  0.12698701557E+04  0.00000000000E+00 0. -1.
         -2    1    1    2    0  502 -0.23749804281E+01 -0.22257918015E+02  0.61109394984E+02  0.65080055329E+02  0.00000000000E+00 0.  1.
</event>
<event>
 4    1  0.5784609E+003  0.3057944E+02  0.7546771E-02  0.1414627E+00
          2   -1    0    0  501    0  0.00000000000E+00  0.00000000000E+00  0.31523939498E+02  0.31523939498E+02  0.00000000000E+00 0.  1.
         -2   -1    0    0    0  501 -0.00000000000E+00 -0.00000000000E+00 -0.31912259409E+03  0.31912259409E+03  0.00000000000E+00 0. -1.
          2    1    1    2  502    0 -0.16998057998E+02  0.25419837830E+02  0.23176872607E+02  0.38370164905E+02  0.00000000000E+00 0.  1.
         -2    1    1    2    0  502  0.16998057998E+02 -0.25419837830E+02 -0.31077552720E+03  0.31227636868E+03  0.00000000000E+00 0. -1.
</event>
<event>
 4    1  0.5784609E+003  0.2193365E+02  0.7546771E-02  0.1506341E+00
          2   -1    0    0  501    0  0.00000000000E+00  0.00000000000E+00  0.49785729200E+03  0.49785729200E+03  0.00000000000E+00 0. -1.
         -2   -1    0    0    0  501 -0.00000000000E+00 -0.00000000000E+00 -0.25959992667E+01  0.25959992667E+01  0.00000000000E+00 0.  1.
          2    1    1    2  502    0 -0.20934395618E+02 -0.65449142342E+01  0.44588995271E+03  0.44642909264E+03  0.00000000000E+00 0. -1.
         -2    1    1    2    0  502  0.20934395618E+02  0.65449142342E+01  0.49371340026E+02  0.54024198636E+02  0.00000000000E+00 0.  1.
</event>
<event>
 4    1  0.5784609E+003  0.2006340E+02  0.7546771E-02  0.1533069E+00
          2   -1    0    0  501    0  0.00000000000E+00  0.00000000000E+00  0.24562725683E+02  0.24562725683E+02  0.00000000000E+00 0.  1.
         -2   -1    0    0    0  501 -0.00000000000E+00 -0.00000000000E+00 -0.20788583414E+02  0.20788583414E+02  0.00000000000E+00 0. -1.
          2    1    1    2  502    0  0.15727159721E+02  0.12457788545E+02  0.12319615929E+02  0.23543852382E+02  0.00000000000E+00 0.  1.
         -2    1    1    2    0  502 -0.15727159721E+02 -0.12457788545E+02 -0.85454736604E+01  0.21807456716E+02  0.00000000000E+00 0. -1.
</event>
<event>
 4    1  0.5784609E+003  0.2216645E+02  0.7546771E-02  0.1503239E+00
          2   -1    0    0  501    0  0.00000000000E+00  0.00000000000E+00  0.10227818206E+04  0.10227818206E+04  0.00000000000E+00 0.  1.
         -2   -1    0    0    0  501 -0.00000000000E+00 -0.00000000000E+00 -0.67407784087E+01  0.67407784087E+01  0.00000000000E+00 0. -1.
          2    1    1    2  502    0  0.17894010719E+02  0.13082651500E+02  0.10040996071E+04  0.10043442500E+04  0.00000000000E+00 0.  1.
         -2    1    1    2    0  502 -0.17894010719E+02 -0.13082651500E+02  0.11941435076E+02  0.25178349063E+02  0.00000000000E+00 0. -1.
</event>
<event>
 4    1  0.5784609E+003  0.3182326E+02  0.7546771E-02  0.1404387E+00
          2   -1    0    0  501    0  0.00000000000E+00  0.00000000000E+00  0.25592082919E+03  0.25592082919E+03  0.00000000000E+00 0. -1.
         -2   -1    0    0    0  501 -0.00000000000E+00 -0.00000000000E+00 -0.52139735300E+02  0.52139735300E+02  0.00000000000E+00 0. -1.
          2    1    1    2  502    0  0.29611233428E+02 -0.11657400629E+02  0.24996041738E+03  0.25197803554E+03  0.00000000000E+00 0. -1.
         -2    1    1    2    0  502 -0.29611233428E+02  0.11657400629E+02 -0.46179323499E+02  0.56082528949E+02  0.00000000000E+00 0. -1.
</event>
<event>
 4    1  0.5784609E+003  0.2169460E+02  0.7546771E-02  0.1509574E+00
          2   -1    0    0  501    0  0.00000000000E+00  0.00000000000E+00  0.82363672365E+03  0.82363672365E+03  0.00000000000E+00 0. -1.
         -2   -1    0    0    0  501 -0.00000000000E+00 -0.00000000000E+00 -0.33664942919E+02  0.33664942919E+02  0.00000000000E+00 0.  1.
          2    1    1    2  502    0  0.15245088648E+02 -0.15435124030E+02  0.81998314648E+03  0.82027008740E+03  0.00000000000E+00 0. -1.
         -2    1    1    2    0  502 -0.15245088648E+02  0.15435124030E+02 -0.30011365745E+02  0.37031579166E+02  0.00000000000E+00 0.  1.
</event>
<event>
 4    1  0.5784609E+003  0.2838266E+02  0.7546771E-02  0.1434192E+00
          2   -1    0    0  501    0  0.00000000000E+00  0.00000000000E+00  0.12063789302E+04  0.12063789302E+04  0.00000000000E+00 0.  1.
         -2   -1    0    0    0  501 -0.00000000000E+00 -0.00000000000E+00 -0.38447839542E+02  0.38447839542E+02  0.00000000000E+00 0.  1.
          2    1    1    2  502    0  0.11764903293E+02  0.25829487931E+02  0.12009502089E+04  0.12012855529E+04  0.00000000000E+00 0.  1.
         -2    1    1    2    0  502 -0.11764903293E+02 -0.25829487931E+02 -0.33019118221E+02  0.43541216845E+02  0.00000000000E+00 0.  1.
</event>
<event>
 4    1  0.5784609E+003  0.2945529E+02  0.7546771E-02  0.1424390E+00
          2   -1    0    0  501    0  0.00000000000E+00  0.00000000000E+00  0.62463235543E+03  0.62463235543E+03  0.00000000000E+00 0.  1.
         -2   -1    0    0    0  501 -0.00000000000E+00 -0.00000000000E+00 -0.23814284760E+01  0.23814284760E+01  0.00000000000E+00 0.  1.
          2    1    1    2  502    0  0.22734221768E+02  0.18728842590E+02  0.51351027423E+03  0.51435436824E+03  0.00000000000E+00 0.  1.
         -2    1    1    2    0  502 -0.22734221768E+02 -0.18728842590E+02  0.10874065273E+03  0.11265941567E+03  0.00000000000E+00 0.  1.
</event>
<event>
 4    1  0.5784609E+003  0.3263831E+02  0.7546771E-02  0.1397973E+00
          2   -1    0    0  501    0  0.00000000000E+00  0.00000000000E+00  0.14912556127E+03  0.14912556127E+03  0.00000000000E+00 0.  1.
         -2   -1    0    0    0  501 -0.00000000000E+00 -0.00000000000E+00 -0.14303082369E+02  0.14303082369E+02  0.00000000000E+00 0. -1.
          2    1    1    2  502    0  0.12760760448E+02 -0.30040340575E+02  0.12522499035E+03  0.12940848997E+03  0.00000000000E+00 0.  1.
         -2    1    1    2    0  502 -0.12760760448E+02  0.30040340575E+02  0.95974885544E+01  0.34020153668E+02  0.00000000000E+00 0. -1.
</event>
<event>
 4    1  0.8287459E+003  0.2531379E+02  0.7546771E-02  0.1465323E+00
          2   -1    0    0  501    0  0.00000000000E+00  0.00000000000E+00  0.67257012653E+03  0.67257012653E+03  0.00000000000E+00 0.  1.
         -2   -1    0    0    0  501 -0.00000000000E+00 -0.00000000000E+00 -0.27895189025E+03  0.27895189025E+03  0.00000000000E+00 0.  1.
          2    1    1    2  502    0 -0.11467546189E+02  0.22567302377E+02  0.67175696378E+03  0.67223374368E+03  0.00000000000E+00 0.  1.
         -2    1    1    2    0  502  0.11467546189E+02 -0.22567302377E+02 -0.27813872750E+03  0.27928827310E+03  0.00000000000E+00 0.  1.
</event>
<event>
 4    1  0.5784609E+003  0.3261407E+02  0.7546771E-02  0.1398160E+00
          2   -1    0    0  501    0  0.00000000000E+00  0.00000000000E+00  0.11580380892E+03  0.11580380892E+03  0.00000000000E+00 0.  1.
         -2   -1    0    0    0  501 -0.00000000000E+00 -0.00000000000E+00 -0.36892547442E+02  0.36892547442E+02  0.00000000000E+00 0. -1.
          2    1    1    2  502    0  0.25007508104E+02 -0.20935660224E+02  0.10562044379E+03  0.11054119357E+03  0.00000000000E+00 0.  1.
         -2    1    1    2    0  502 -0.25007508104E+02  0.20935660224E+02 -0.26709182307E+02  0.42155162793E+02  0.00000000000E+00 0. -1.
</event>
<event>
 4    1  0.5784609E+003  0.4016661E+02  0.7546771E-02  0.1347512E+00
          2   -1    0    0  501    0  0.00000000000E+00  0.00000000000E+00  0.15726709606E+04  0.15726709606E+04  0.00000000000E+00 0.  1.
         -2   -1    0    0    0  501 -0.00000000000E+00 -0.00000000000E+00 -0.62049020746E+02  0.62049020746E+02  0.00000000000E+00 0.  1.
          2    1    1    2  502    0  0.36268138074E+02  0.17262069224E+02  0.15658860000E+04  0.15664010732E+04  0.00000000000E+00 0.  1.
         -2    1    1    2    0  502 -0.36268138074E+02 -0.17262069224E+02 -0.55264060163E+02  0.68318908209E+02  0.00000000000E+00 0.  1.
</event>
<event>
 4    1  0.5784609E+003  0.2838788E+02  0.7546771E-02  0.1434143E+00
          2   -1    0    0  501    0  0.00000000000E+00  0.00000000000E+00  0.22942070050E+04  0.22942070050E+04  0.00000000000E+00 0. -1.
         -2   -1    0    0    0  501 -0.00000000000E+00 -0.00000000000E+00 -0.52664120400E+00  0.52664120400E+00  0.00000000000E+00 0. -1.
          2    1    1    2  502    0 -0.17993639194E+02  0.21956796864E+02  0.18089524424E+04  0.18091751742E+04  0.00000000000E+00 0. -1.
         -2    1    1    2    0  502  0.17993639194E+02 -0.21956796864E+02  0.48472792141E+03  0.48555847205E+03  0.00000000000E+00 0. -1.
</event>
<event>
 4    1  0.5784609E+003  0.3314763E+02  0.7546771E-02  0.1394075E+00
          2   -1    0    0  501    0  0.00000000000E+00  0.00000000000E+00  0.10524884237E+01  0.10524884237E+01  0.00000000000E+00 0.  1.
         -2   -1    0    0    0  501 -0.00000000000E+00 -0.00000000000E+00 -0.12205458363E+04  0.12205458363E+04  0.00000000000E+00 0.  1.
          2    1    1    2  502    0 -0.21380329129E+02  0.25330748465E+02 -0.37742579253E+03  0.37887860082E+03  0.00000000000E+00 0.  1.
         -2    1    1    2    0  502  0.21380329129E+02 -0.25330748465E+02 -0.84206755535E+03  0.84271972390E+03  0.00000000000E+00 0.  1.
</event>
<event>
 4    1  0.5784609E+003  0.2965468E+02  0.7546771E-02  0.1422621E+00
          2   -1    0    0  501    0  0.00000000000E+00  0.00000000000E+00  0.15261428099E+03  0.15261428099E+03  0.00000000000E+00 0.  1.
         -2   -1    0    0    0  501 -0.00000000000E+00 -0.00000000000E+00 -0.63543638474E+01  0.63543638474E+01  0.00000000000E+00 0.  1.
          2    1    1    2  502    0  0.27233327608E+02 -0.11736527668E+02  0.97393348256E+02  0.10180797856E+03  0.00000000000E+00 0.  1.
         -2    1    1    2    0  502 -0.27233327608E+02  0.11736527668E+02  0.48866568886E+02  0.57160666275E+02  0.00000000000E+00 0.  1.
</event>
<event>
 4    1  0.5784609E+003  0.4327599E+02  0.7546771E-02  0.1330289E+00
          2   -1    0    0  501    0  0.00000000000E+00  0.00000000000E+00  0.14820480387E+04  0.14820480387E+04  0.00000000000E+00 0. -1.
         -2   -1    0    0    0  501 -0.00000000000E+00 -0.00000000000E+00 -0.15220293790E+01  0.15220293790E+01  0.00000000000E+00 0. -1.
          2    1    1    2  502    0 -0.20591745874E+02 -0.38062994616E+02  0.10458840464E+04  0.10467789882E+04  0.00000000000E+00 0. -1.
         -2    1    1    2    0  502  0.20591745874E+02  0.38062994616E+02  0.43464196287E+03  0.43679107986E+03  0.00000000000E+00 0. -1.
</event>
<event>
 4    1  0.5784609E+003  0.3866729E+02  0.7546771E-02  0.1356477E+00
          2   -1    0    0  501    0  0.00000000000E+00  0.00000000000E+00  0.18274961353E+03  0.18274961353E+03  0.00000000000E+00 0. -1.
         -2   -1    0    0    0  501 -0.00000000000E+00 -0.00000000000E+00 -0.39410015353E+03  0.39410015353E+03  0.00000000000E+00 0. -1.
          2    1    1    2  502    0  0.37531461902E+02  0.93031417673E+01  0.17974008277E+03  0.18385226796E+03  0.00000000000E+00 0. -1.
         -2    1    1    2    0  502 -0.37531461902E+02 -0.93031417673E+01 -0.39109062277E+03  0.39299749910E+03  0.00000000000E+00 0. -1.
</event>
<event>
 4    1  0.5784609E+003  0.2742455E+02  0.7546771E-02  0.1443389E+00
          2   -1    0    0  501    0  0.00000000000E+00  0.00000000000E+00  0.79087948416E+02  0.79087948416E+02  0.00000000000E+00 0. -1.
         -2   -1    0    0    0  501 -0.00000000000E+00 -0.00000000000E+00 -0.10051747761E+02  0.10051747761E+02  0.00000000000E+00 0. -1.
          2    1    1    2  502    0 -0.11019340004E+02  0.25113343890E+02  0.44867681295E+02  0.52585308977E+02  0.00000000000E+00 0. -1.
         -2    1    1    2    0  502  0.11019340004E+02 -0.25113343890E+02  0.24168519360E+02  0.36554387199E+02  0.00000000000E+00 0. -1.
</event>
<event>
 4    1  0.5784609E+003  0.2038791E+02  0.7546771E-02  0.1528186E+00
          2   -1    0    0  501    0  0.00000000000E+00  0.00000000000E+00  0.95755428651E+03  0.95755428651E+03  0.00000000000E+00 0. -1.
         -2   -1    0    0    0  501 -0.00000000000E+00 -0.00000000000E+00 -0.63016238651E+01  0.63016238651E+01  0.00000000000E+00 0. -1.
          2    1    1    2  502    0  0.79337876793E+01  0.18780889801E+02  0.94065914965E+03  0.94088006814E+03  0.00000000000E+00 0. -1.
         -2    1    1    2    0  502 -0.79337876793E+01 -0.18780889801E+02  0.10593512993E+02  0.22975842231E+02  0.00000000000E+00 0. -1.
</event>
<event>
 4    1  0.5784609E+003  0.3447828E+02  0.7546771E-02  0.1384269E+00
          2   -1    0    0  501    0  0.00000000000E+00  0.00000000000E+00  0.42383890802E+03  0.42383890802E+03  0.00000000000E+00 0. -1.
         -2   -1    0    0    0  501 -0.00000000000E+00 -0.00000000000E+00 -0.23361361276E+02  0.23361361276E+02  0.00000000000E+00 0. -1.
          2    1    1    2  502    0 -0.29389582505E+02  0.18027882615E+02  0.40998733945E+03  0.41143452775E+03  0.00000000000E+00 0. -1.
         -2    1    1    2    0  502  0.29389582505E+02 -0.18027882615E+02 -0.95097927064E+01  0.35765741551E+02  0.00000000000E+00 0. -1.
</event>
<event>
 4    1  0.5784609E+003  0.2044700E+02  0.7546771E-02  0.1527309E+00
          2   -1    0    0  501    0  0.00000000000E+00  0.00000000000E+00  0.14835822056E+03  0.14835822056E+03  0.00000000000E+00 0.  1.
         -2   -1    0    0    0  501 -0.00000000000E+00 -0.00000000000E+00 -0.18272355006E+02  0.18272355006E+02  0.00000000000E+00 0.  1.
          2    1    1    2  502    0 -0.17356102480E+02 -0.10809518356E+02  0.14166471716E+03  0.14313270789E+03  0.00000000000E+00 0.  1.
         -2    1    1    2    0  502  0.17356102480E+02  0.10809518356E+02 -0.11578851611E+02  0.23497867670E+02  0.00000000000E+00 0.  1.
</event>
<event>
 4    1  0.5784609E+003  0.2577368E+02  0.7546771E-02  0.1460331E+00
          2   -1    0    0  501    0  0.00000000000E+00  0.00000000000E+00  0.12338648892E+04  0.12338648892E+04  0.00000000000E+00 0.  1.
         -2   -1    0    0    0  501 -0.00000000000E+00 -0.00000000000E+00 -0.44729067826E+01  0.44729067826E+01  0.00000000000E+00 0.  1.
          2    1    1    2  502    0  0.25324179365E+02 -0.47925543579E+01  0.11954078701E+04  0.11956856855E+04  0.00000000000E+00 0.  1.
         -2    1    1    2    0  502 -0.25324179365E+02  0.47925543579E+01  0.33984112322E+02  0.42652110477E+02  0.00000000000E+00 0.  1.
</event>
<event>
 4    1  0.5784609E+003  0.2517740E+02  0.7546771E-02  0.1466828E+00
          2   -1    0    0  501    0  0.00000000000E+00  0.00000000000E+00  0.88112640083E+02  0.88112640083E+02  0.00000000000E+00 0. -1.
         -2   -1    0    0    0  501 -0.00000000000E+00 -0.00000000000E+00 -0.25478619802E+02  0.25478619802E+02  0.00000000000E+00 0.  1.
          2    1    1    2  502    0 -0.15982489716E+02  0.19454089718E+02  0.79430553733E+02  0.83325352988E+02  0.00000000000E+00 0. -1.
         -2    1    1    2    0  502  0.15982489716E+02 -0.19454089718E+02 -0.16796533452E+02  0.30265906897E+02  0.00000000000E+00 0.  1.
</event>
<event>
 4    1  0.5784609E+003  0.3008162E+02  0.7546771E-02  0.1418889E+00
          2   -1    0    0  501    0  0.00000000000E+00  0.00000000000E+00  0.92857237580E+01  0.92857237580E+01  0.00000000000E+00 0.  1.
         -2   -1    0    0    0  501 -0.00000000000E+00 -0.00000000000E+00 -0.15406243658E+03  0.15406243658E+03  0.00000000000E+00 0.  1.
          2    1    1    2  502    0  0.11673002477E+02 -0.27724442177E+02 -0.22878951663E+02  0.37793519418E+02  0.00000000000E+00 0.  1.
         -2    1    1    2    0  502 -0.11673002477E+02  0.27724442177E+02 -0.12189776116E+03  0.12555464092E+03  0.00000000000E+00 0.  1.
</event>
<event>
 4    1  0.5784609E+003  0.2192060E+02  0.7546771E-02  0.1506516E+00
          2   -1    0    0  501    0  0.00000000000E+00  0.00000000000E+00  0.14531377121E+03  0.14531377121E+03  0.00000000000E+00 0.  1.
         -2   -1    0    0    0  501 -0.00000000000E+00 -0.00000000000E+00 -0.70549613399E+02  0.70549613399E+02  0.00000000000E+00 0.  1.
          2    1    1    2  502    0  0.98958749658E+01  0.19559759194E+02  0.14275398863E+03  0.14442719200E+03  0.00000000000E+00 0.  1.
         -2    1    1    2    0  502 -0.98958749658E+01 -0.19559759194E+02 -0.67989830810E+02  0.71436192611E+02  0.00000000000E+00 0.  1.
</event>
<event>
 4    1  0.5784609E+003  0.2143739E+02  0.7546771E-02  0.1513111E+00
          2   -1    0    0  501    0  0.00000000000E+00  0.00000000000E+00  0.86689230199E+02  0.86689230199E+02  0.00000000000E+00 0. -1.
         -2   -1    0    0    0  501 -0.00000000000E+00 -0.00000000000E+00 -0.76262377842E+01  0.76262377842E+01  0.00000000000E+00 0.  1.
          2    1    1    2  502    0  0.19745095561E+02  0.83482275781E+01  0.65569497335E+02  0.68984930842E+02  0.00000000000E+00 0. -1.
         -2    1    1    2    0  502 -0.19745095561E+02 -0.83482275781E+01  0.13493495079E+02  0.25330537141E+02  0.00000000000E+00 0.  1.
</event>
<event>
 4    1  0.5784609E+003  0.2301497E+02  0.7546771E-02  0.1492310E+00
          2   -1    0    0  501    0  0.00000000000E+00  0.00000000000E+00  0.73444499937E+03  0.73444499937E+03  0.00000000000E+00 0. -1.
         -2   -1    0    0    0  501 -0.00000000000E+00 -0.00000000000E+00 -0.89356586503E+00  0.89356586503E+00  0.00000000000E+00 0. -1.
          2    1    1    2  502    0  0.12143687503E+02  0.19550442957E+02  0.52825145845E+03  0.52875258138E+03  0.00000000000E+00 0. -1.
         -2    1    1    2    0  502 -0.12143687503E+02 -0.19550442957E+02  0.20529997505E+03  0.20658598385E+03  0.00000000000E+00 0. -1.
</event>
<event>
 4    1  0.5784609E+003  0.2378779E+02  0.7546771E-02  0.1482836E+00
          2   -1    0    0  501    0  0.00000000000E+00  0.00000000000E+00  0.11525656888E+03  0.11525656888E+03  0.00000000000E+00 0.  1.
         -2   -1    0    0    0  501 -0.00000000000E+00 -0.00000000000E+00 -0.34201859811E+03  0.34201859811E+03  0.00000000000E+00 0. -1.
          2    1    1    2  502    0 -0.21377074641E+02  0.10434546818E+02  0.11360962991E+03  0.11607328329E+03  0.00000000000E+00 0.  1.
         -2    1    1    2    0  502  0.21377074641E+02 -0.10434546818E+02 -0.34037165914E+03  0.34120188369E+03  0.00000000000E+00 0. -1.
</event>
<event>
 4    1  0.5784609E+003  0.2059528E+02  0.7546771E-02  0.1525122E+00
          2   -1    0    0  501    0  0.00000000000E+00  0.00000000000E+00  0.39722351971E+03  0.39722351971E+03  0.00000000000E+00 0.  1.
         -2   -1    0    0    0  501 -0.00000000000E+00 -0.00000000000E+00 -0.35813355840E+01  0.35813355840E+01  0.00000000000E+00 0. -1.
          2    1    1    2  502    0 -0.96892826366E+01  0.18173702139E+02  0.36470950828E+03  0.36529055706E+03  0.00000000000E+00 0.  1.
         -2    1    1    2    0  502  0.96892826366E+01 -0.18173702139E+02  0.28932675849E+02  0.35514298237E+02  0.00000000000E+00 0. -1.
</event>
<event>
 4    1  0.5784609E+003  0.2028334E+02  0.7546771E-02  0.1529748E+00
          2   -1    0    0  501    0  0.00000000000E+00  0.00000000000E+00  0.10327914394E+03  0.10327914394E+03  0.00000000000E+00 0. -1.
         -2   -1    0    0    0  501 -0.00000000000E+00 -0.00000000000E+00 -0.42864438377E+01  0.42864438377E+01  0.00000000000E+00 0.  1.
          2    1    1    2  502    0  0.16048106872E+02 -0.12404521527E+02  0.63794044295E+02  0.66940973820E+02  0.00000000000E+00 0. -1.
         -2    1    1    2    0  502 -0.16048106872E+02  0.12404521527E+02  0.35198655803E+02  0.40624613953E+02  0.00000000000E+00 0.  1.
</event>
<event>
 4    1  0.5784609E+003  0.2746370E+02  0.7546771E-02  0.1443005E+00
          2   -1    0    0  501    0  0.00000000000E+00  0.00000000000E+00  0.42723100915E+03  0.42723100915E+03  0.00000000000E+00 0.  1.
         -2   -1    0    0    0  501 -0.00000000000E+00 -0.00000000000E+00 -0.12874722934E+03  0.12874722934E+03  0.00000000000E+00 0.  1.
          2    1    1    2  502    0  0.26935480330E+02 -0.53604703626E+01  0.42531846386E+03  0.42620423560E+03  0.00000000000E+00 0.  1.
         -2    1    1    2    0  502 -0.26935480330E+02  0.53604703626E+01 -0.12683468406E+03  0.12977400288E+03  0.00000000000E+00 0.  1.
</event>
<event>
 4    1  0.5784609E+003  0.2434835E+02  0.7546771E-02  0.1476227E+00
          2   -1    0    0  501    0  0.00000000000E+00  0.00000000000E+00  0.99254145616E+03  0.99254145616E+03  0.00000000000E+00 0. -1.
         -2   -1    0    0    0  501 -0.00000000000E+00 -0.00000000000E+00 -0.13269490964E+01  0.13269490964E+01  0.00000000000E+00 0. -1.
          2    1    1    2  502    0  0.99262538383E+01  0.22233119707E+02  0.86410059689E+03  0.86444356882E+03  0.00000000000E+00 0. -1.
         -2    1    1    2    0  502 -0.99262538383E+01 -0.22233119707E+02  0.12711391017E+03  0.12942483643E+03  0.00000000000E+00 0. -1.
</event>
<event>
 4    1  0.5784609E+003  0.2651574E+02  0.7546771E-02  0.1452534E+00
          2   -1    0    0  501    0  0.00000000000E+00  0.00000000000E+00  0.13059604772E+01  0.13059604772E+01  0.00000000000E+00 0. -1.
         -2   -1    0    0    0  501 -0.00000000000E+00 -0.00000000000E+00 -0.62709041613E+03  0.62709041613E+03  0.00000000000E+00 0. -1.
          2    1    1    2  502    0 -0.25809713076E+01  0.26389830941E+02 -0.19470775830E+03  0.19650495091E+03  0.00000000000E+00 0. -1.
         -2    1    1    2    0  502  0.25809713076E+01 -0.26389830941E+02 -0.43107669736E+03  0.43189142570E+03  0.00000000000E+00 0. -1.
</event>
<event>
 4    1  0.5784609E+003  0.2255159E+02  0.7546771E-02  0.1498207E+00
          2   -1    0    0  501    0  0.00000000000E+00  0.00000000000E+00  0.11805430730E+04  0.11805430730E+04  0.00000000000E+00 0.  1.
         -2   -1    0    0    0  501 -0.00000000000E+00 -0.00000000000E+00 -0.87802351140E+00  0.87802351140E+00  0.00000000000E+00 0.  1.
          2    1    1    2  502    0  0.20026045499E+02  0.10369745333E+02  0.10114179088E+04  0.10116692940E+04  0.00000000000E+00 0.  1.
         -2    1    1    2    0  502 -0.20026045499E+02 -0.10369745333E+02  0.16824714062E+03  0.16975180248E+03  0.00000000000E+00 0.  1.
</event>
<event>
 4    1  0.5784609E+003  0.2036987E+02  0.7546771E-02  0.1528455E+00
          2   -1    0    0  501    0  0.00000000000E+00  0.00000000000E+00  0.58108708078E+03  0.58108708078E+03  0.00000000000E+00 0. -1.
         -2   -1    0    0    0  501 -0.00000000000E+00 -0.00000000000E+00 -0.17752410261E+01  0.17752410261E+01  0.00000000000E+00 0.  1.
          2    1    1    2  502    0  0.82903710211E+01  0.18606490651E+02  0.51497699412E+03  0.51537970102E+03  0.00000000000E+00 0. -1.
         -2    1    1    2    0  502 -0.82903710211E+01 -0.18606490651E+02  0.64334845632E+02  0.67482620789E+02  0.00000000000E+00 0.  1.
</event>
<event>
 4    1  0.5784609E+003  0.2115389E+02  0.7546771E-02  0.1517079E+00
          2   -1    0    0  501    0  0.00000000000E+00  0.00000000000E+00  0.71380831905E+03  0.71380831905E+03  0.00000000000E+00 0.  1.
         -2   -1    0    0    0  501 -0.00000000000E+00 -0.00000000000E+00 -0.11465346967E+03  0.11465346967E+03  0.00000000000E+00 0. -1.
          2    1    1    2  502    0 -0.22648286332E+01 -0.21032297729E+02  0.71267430358E+03  0.71298818362E+03  0.00000000000E+00 0.  1.
         -2    1    1    2    0  502  0.22648286332E+01  0.21032297729E+02 -0.11351945419E+03  0.11547360511E+03  0.00000000000E+00 0. -1.
</event>
<event>
 4    1  0.5784609E+003  0.2525587E+02  0.7546771E-02  0.1465961E+00
          2   -1    0    0  501    0  0.00000000000E+00  0.00000000000E+00  0.24094485589E+03  0.24094485589E+03  0.00000000000E+00 0.  1.
         -2   -1    0    0    0  501 -0.00000000000E+00 -0.00000000000E+00 -0.21822351169E+02  0.21822351169E+02  0.00000000000E+00 0.  1.
          2    1    1    2  502    0 -0.15876104254E+02  0.19642004360E+02  0.23271805259E+03  0.23408449548E+03  0.00000000000E+00 0.  1.
         -2    1    1    2    0  502  0.15876104254E+02 -0.19642004360E+02 -0.13595547871E+02  0.28682711579E+02  0.00000000000E+00 0.  1.
</event>
<event>
 4    1  0.5784609E+003  0.2019291E+02  0.7546771E-02  0.1531107E+00
          2   -1    0    0  501    0  0.00000000000E+00  0.00000000000E+00  0.30154350138E+03  0.30154350138E+03  0.00000000000E+00 0. -1.
         -2   -1    0    0    0  501 -0.00000000000E+00 -0.00000000000E+00 -0.73513469370E+01  0.73513469370E+01  0.00000000000E+00 0. -1.
          2    1    1    2  502    0  0.14089140842E+01 -0.20143697763E+02  0.28661759187E+03  0.28732803129E+03  0.00000000000E+00 0. -1.
         -2    1    1    2    0  502 -0.14089140842E+01  0.20143697763E+02  0.75745625795E+01  0.21566817029E+02  0.00000000000E+00 0. -1.
</event>
<event>
 4    1  0.5784609E+003  0.2583014E+02  0.7546771E-02  0.1459727E+00
          2   -1    0    0  501    0  0.00000000000E+00  0.00000000000E+00  0.62811196216E+03  0.62811196216E+03  0.00000000000E+00 0. -1.
         -2   -1    0    0    0  501 -0.00000000000E+00 -0.00000000000E+00 -0.30658594925E+02  0.30658594925E+02  0.00000000000E+00 0. -1.
          2    1    1    2  502    0  0.25676751476E+02  0.28108304102E+01  0.62235557355E+03  0.62289136794E+03  0.00000000000E+00 0. -1.
         -2    1    1    2    0  502 -0.25676751476E+02 -0.28108304102E+01 -0.24902206315E+02  0.35879189139E+02  0.00000000000E+00 0. -1.
</event>
<event>
 4    1  0.5784609E+003  0.2153445E+02  0.7546771E-02  0.1511769E+00
          2   -1    0    0  501    0  0.00000000000E+00  0.00000000000E+00  0.13136679438E+04  0.13136679438E+04  0.00000000000E+00 0. -1.
         -2   -1    0    0    0  501 -0.00000000000E+00 -0.00000000000E+00 -0.49349237109E+02  0.49349237109E+02  0.00000000000E+00 0.  1.
          2    1    1    2  502    0  0.27987591756E+01 -0.21351799974E+02  0.13112260797E+04  0.13114028994E+04  0.00000000000E+00 0. -1.
         -2    1    1    2    0  502 -0.27987591756E+01  0.21351799974E+02 -0.46907373010E+02  0.51614281529E+02  0.00000000000E+00 0.  1.
</event>
<event>
 4    1  0.5784609E+003  0.2845390E+02  0.7546771E-02  0.1433526E+00
          2   -1    0    0  501    0  0.00000000000E+00  0.00000000000E+00  0.67050645394E+03  0.67050645394E+03  0.00000000000E+00 0.  1.
         -2   -1    0    0    0  501 -0.00000000000E+00 -0.00000000000E+00 -0.77298272784E+01  0.77298272784E+01  0.00000000000E+00 0.  1.
          2    1    1    2  502    0 -0.19835191618E+02 -0.20400725280E+02  0.64289546589E+03  0.64352482818E+03  0.00000000000E+00 0.  1.
         -2    1    1    2    0  502  0.19835191618E+02  0.20400725280E+02  0.19881160767E+02  0.34711453037E+02  0.00000000000E+00 0.  1.
</event>
<event>
 4    1  0.5784609E+003  0.2156623E+02  0.7546771E-02  0.1511332E+00
          2   -1    0    0  501    0  0.00000000000E+00  0.00000000000E+00  0.14161325680E+04  0.14161325680E+04  0.00000000000E+00 0.  1.
         -2   -1    0    0    0  501 -0.00000000000E+00 -0.00000000000E+00 -0.17161904883E+01  0.17161904883E+01  0.00000000000E+00 0.  1.
          2    1    1    2  502    0  0.20261334338E+02 -0.73878787303E+01  0.13446994036E+04  0.13448723316E+04  0.00000000000E+00 0.  1.
         -2    1    1    2    0  502 -0.20261334338E+02  0.73878787303E+01  0.69716973915E+02  0.72976426832E+02  0.00000000000E+00 0.  1.
</event>
<event>
 4    1  0.5784609E+003  0.2984063E+02  0.7546771E-02  0.1420987E+00
          2   -1    0    0  501    0  0.00000000000E+00  0.00000000000E+00  0.70132584321E+03  0.70132584321E+03  0.00000000000E+00 0.  1.
         -2   -1    0    0    0  501 -0.00000000000E+00 -0.00000000000E+00 -0.17452587273E+01  0.17452587273E+01  0.00000000000E+00 0.  1.
          2    1    1    2  502    0 -0.14026521771E+02 -0.26338560983E+02  0.53329539147E+03  0.53412960756E+03  0.00000000000E+00 0.  1.
         -2    1    1    2    0  502  0.14026521771E+02  0.26338560983E+02  0.16628519302E+03  0.16894149438E+03  0.00000000000E+00 0.  1.
</event>
<event>
 4    1  0.5784609E+003  0.3130684E+02  0.7546771E-02  0.1408570E+00
          2   -1    0    0  501    0  0.00000000000E+00  0.00000000000E+00  0.66902458011E+02  0.66902458011E+02  0.00000000000E+00 0.  1.
         -2   -1    0    0    0  501 -0.00000000000E+00 -0.00000000000E+00 -0.10656620133E+03  0.10656620133E+03  0.00000000000E+00 0.  1.
          2    1    1    2  502    0  0.26483474016E+02 -0.16695622835E+02  0.60720330217E+02  0.68316006320E+02  0.00000000000E+00 0.  1.
         -2    1    1    2    0  502 -0.26483474016E+02  0.16695622835E+02 -0.10038407354E+03  0.10515265302E+03  0.00000000000E+00 0.  1.
</event>
<event>
 4    1  0.5784609E+003  0.2545238E+02  0.7546771E-02  0.1463806E+00
          2   -1    0    0  501    0  0.00000000000E+00  0.00000000000E+00  0.26201116871E+02  0.26201116871E+02  0.00000000000E+00 0. -1.
         -2   -1    0    0    0  501 -0.00000000000E+00 -0.00000000000E+00 -0.18133336529E+03  0.18133336529E+03  0.00000000000E+00 0. -1.
          2    1    1    2  502    0  0.22882152880E+02  0.11145889303E+02  0.18867574934E+02  0.31682947349E+02  0.00000000000E+00 0. -1.
         -2    1    1    2    0  502 -0.22882152880E+02 -0.11145889303E+02 -0.17399982336E+03  0.17585153482E+03  0.00000000000E+00 0. -1.
</event>
<event>
 4    1  0.5784609E+003  0.2497378E+02  0.7546771E-02  0.1469097E+00
          2   -1    0    0  501    0  0.00000000000E+00  0.00000000000E+00  0.48186277388E+02  0.48186277388E+02  0.00000000000E+00 0. -1.
         -2   -1    0    0    0  501 -0.00000000000E+00 -0.00000000000E+00 -0.64653263665E+03  0.64653263665E+03  0.00000000000E+00 0. -1.
          2    1    1    2  502    0 -0.56702433482E+01  0.24321557138E+02  0.44691704974E+02  0.51196076947E+02  0.00000000000E+00 0. -1.
         -2    1    1    2    0  502  0.56702433482E+01 -0.24321557138E+02 -0.64303806424E+03  0.64352283709E+03  0.00000000000E+00 0. -1.
</event>
<event>
 4    1  0.7610475E+003  0.2701251E+02  0.7546771E-02  0.1447482E+00
          2   -1    0    0  501    0  0.00000000000E+00  0.00000000000E+00  0.14215952285E+04  0.14215952285E+04  0.00000000000E+00 0. -1.
         -2   -1    0    0    0  501 -0.00000000000E+00 -0.00000000000E+00 -0.19377489139E+03  0.19377489139E+03  0.00000000000E+00 0. -1.
          2    1    1    2  502    0  0.25883355858E+02 -0.77283693435E+01  0.14205248030E+04  0.14207816130E+04  0.00000000000E+00 0. -1.
         -2    1    1    2    0  502 -0.25883355858E+02  0.77283693435E+01 -0.19270446596E+03  0.19458850686E+03  0.00000000000E+00 0. -1.
</event>
<event>
 4    1  0.5784609E+003  0.2142645E+02  0.7546771E-02  0.1513263E+00
          2   -1    0    0  501    0  0.00000000000E+00  0.00000000000E+00  0.68305673122E+03  0.68305673122E+03  0.00000000000E+00 0. -1.
         -2   -1    0    0    0  501 -0.00000000000E+00 -0.00000000000E+00 -0.77588571842E+00  0.77588571842E+00  0.00000000000E+00 0.  1.
          2    1    1    2  502    0  0.20969030337E+02 -0.44036345741E+01  0.21609732925E+03  0.21715696613E+03  0.00000000000E+00 0. -1.
         -2    1    1    2    0  502 -0.20969030337E+02  0.44036345741E+01  0.46618351625E+03  0.46667565080E+03  0.00000000000E+00 0.  1.
</event>
<event>
 4    1  0.5784609E+003  0.2222516E+02  0.7546771E-02  0.1502464E+00
          2   -1    0    0  501    0  0.00000000000E+00  0.00000000000E+00  0.60543296550E+02  0.60543296550E+02  0.00000000000E+00 0.  1.
         -2   -1    0    0    0  501 -0.00000000000E+00 -0.00000000000E+00 -0.81608303585E+01  0.81608303585E+01  0.00000000000E+00 0.  1.
          2    1    1    2  502    0 -0.30110289902E+01  0.22020246666E+02  0.26739840233E+02  0.34770341018E+02  0.00000000000E+00 0.  1.
         -2    1    1    2    0  502  0.30110289902E+01 -0.22020246666E+02  0.25642625959E+02  0.33933785891E+02  0.00000000000E+00 0.  1.
</event>
<event>
 4    1  0.5784609E+003  0.3623303E+02  0.7546771E-02  0.1372096E+00
          2   -1    0    0  501    0  0.00000000000E+00  0.00000000000E+00  0.67012848118E+03  0.67012848118E+03  0.00000000000E+00 0. -1.
         -2   -1    0    0    0  501 -0.00000000000E+00 -0.00000000000E+00 -0.46768295471E+02  0.46768295471E+02  0.00000000000E+00 0.  1.
          2    1    1    2  502    0 -0.12098419668E+02  0.34153491711E+02  0.66254065083E+03  0.66353066754E+03  0.00000000000E+00 0. -1.
         -2    1    1    2    0  502  0.12098419668E+02 -0.34153491711E+02 -0.39180465126E+02  0.53366109114E+02  0.00000000000E+00 0.  1.
</event>
<event>
 4    1  0.5784609E+003  0.3490806E+02  0.7546771E-02  0.1381211E+00
          2   -1    0    0  501    0  0.00000000000E+00  0.00000000000E+00  0.23364409152E+02  0.23364409152E+02  0.00000000000E+00 0. -1.
         -2   -1    0    0    0  501 -0.00000000000E+00 -0.00000000000E+00 -0.70447556514E+02  0.70447556514E+02  0.00000000000E+00 0. -1.
          2    1    1    2  502    0 -0.25467117279E+02  0.23874645554E+02  0.36027309600E+00  0.34909920646E+02  0.00000000000E+00 0. -1.
         -2    1    1    2    0  502  0.25467117279E+02 -0.23874645554E+02 -0.47443420457E+02  0.58902045020E+02  0.00000000000E+00 0. -1.
</event>
<event>
 4    1  0.5784609E+003  0.2690671E+02  0.7546771E-02  0.1448547E+00
          2   -1    0    0  501    0  0.00000000000E+00  0.00000000000E+00  0.81346047508E+03  0.81346047508E+03  0.00000000000E+00 0.  1.
         -2   -1    0    0    0  501 -0.00000000000E+00 -0.00000000000E+00 -0.48023351688E+02  0.48023351688E+02  0.00000000000E+00 0.  1.
          2    1    1    2  502    0 -0.26900289724E+02 -0.58785138136E+00  0.80945046246E+03  0.80989753816E+03  0.00000000000E+00 0.  1.
         -2    1    1    2    0  502  0.26900289724E+02  0.58785138136E+00 -0.44013339063E+02  0.51586288604E+02  0.00000000000E+00 0.  1.
</event>
<event>
 4    1  0.5784609E+003  0.2218717E+02  0.7546771E-02  0.1502965E+00
          2   -1    0    0  501    0  0.00000000000E+00  0.00000000000E+00  0.10144255988E+01  0.10144255988E+01  0.00000000000E+00 0. -1.
         -2   -1    0    0    0  501 -0.00000000000E+00 -0.00000000000E+00 -0.61322396803E+03  0.61322396803E+03  0.00000000000E+00 0.  1.
          2    1    1    2  502    0 -0.16712840627E+02  0.14592846240E+02 -0.44639404313E+03  0.44694508829E+03  0.00000000000E+00 0. -1.
         -2    1    1    2    0  502  0.16712840627E+02 -0.14592846240E+02 -0.16581549930E+03  0.16729330534E+03  0.00000000000E+00 0.  1.
</event>
<event>
 4    1  0.5784609E+003  0.3150447E+02  0.7546771E-02  0.1406958E+00
          2   -1    0    0  501    0  0.00000000000E+00  0.00000000000E+00  0.46648294984E+01  0.46648294984E+01  0.00000000000E+00 0.  1.
         -2   -1    0    0    0  501 -0.00000000000E+00 -0.00000000000E+00 -0.57897604209E+03  0.57897604209E+03  0.00000000000E+00 0.  1.
          2    1    1    2  502    0 -0.27541685381E+02  0.15296644777E+02 -0.55069754601E+02  0.63444539930E+02  0.00000000000E+00 0.  1.
         -2    1    1    2    0  502  0.27541685381E+02 -0.15296644777E+02 -0.51924145799E+03  0.52019633166E+03  0.00000000000E+00 0.  1.
</event>
<event>
 4    1  0.5784609E+003  0.2184038E+02  0.7546771E-02  0.1507597E+00
          2   -1    0    0  501    0  0.00000000000E+00  0.00000000000E+00  0.80451147465E+03  0.80451147465E+03  0.00000000000E+00 0.  1.
         -2   -1    0    0    0  501 -0.00000000000E+00 -0.00000000000E+00 -0.93414931754E+00  0.93414931754E+00  0.00000000000E+00 0.  1.
          2    1    1    2  502    0 -0.13456757123E+02  0.17202257825E+02  0.64519301177E+03  0.64556256430E+03  0.00000000000E+00 0.  1.
         -2    1    1    2    0  502  0.13456757123E+02 -0.17202257825E+02  0.15838431357E+03  0.15988305967E+03  0.00000000000E+00 0.  1.
</event>
<event>
 4    1  0.5784609E+003  0.2573495E+02  0.7546771E-02  0.1460747E+00
          2   -1    0    0  501    0  0.00000000000E+00  0.00000000000E+00  0.23255891740E+03  0.23255891740E+03  0.00000000000E+00 0. -1.
         -2   -1    0    0    0  501 -0.00000000000E+00 -0.00000000000E+00 -0.81524333951E+02  0.81524333951E+02  0.00000000000E+00 0. -1.
          2    1    1    2  502    0  0.57570527859E+01  0.25082739064E+02  0.22979162884E+03  0.23122819928E+03  0.00000000000E+00 0. -1.
         -2    1    1    2    0  502 -0.57570527859E+01 -0.25082739064E+02 -0.78757045390E+02  0.82855052075E+02  0.00000000000E+00 0. -1.
</event>
<event>
 4    1  0.5784609E+003  0.2359955E+02  0.7546771E-02  0.1485104E+00
          2   -1    0    0  501    0  0.00000000000E+00  0.00000000000E+00  0.53326004143E+03  0.53326004143E+03  0.00000000000E+00 0.  1.
         -2   -1    0    0    0  501 -0.00000000000E+00 -0.00000000000E+00 -0.17431265124E+01  0.17431265124E+01  0.00000000000E+00 0.  1.
          2    1    1    2  502    0  0.23084098011E+02 -0.49054218847E+01  0.43511983369E+03  0.43575934691E+03  0.00000000000E+00 0.  1.
         -2    1    1    2    0  502 -0.23084098011E+02  0.49054218847E+01  0.96397081223E+02  0.99243821032E+02  0.00000000000E+00 0.  1.
</event>
<event>
 4    1  0.7456072E+003  0.2554120E+02  0.7546771E-02  0.1462839E+00
          2   -1    0    0  501    0  0.00000000000E+00  0.00000000000E+00  0.64350002311E+03  0.64350002311E+03  0.00000000000E+00 0.  1.
         -2   -1    0    0    0  501 -0.00000000000E+00 -0.00000000000E+00 -0.33267723700E+03  0.33267723700E+03  0.00000000000E+00 0. -1.
          2    1    1    2  502    0  0.24256740619E+02 -0.79976992197E+01  0.64275578705E+03  0.64326305229E+03  0.00000000000E+00 0.  1.
         -2    1    1    2    0  502 -0.24256740619E+02  0.79976992197E+01 -0.33193300094E+03  0.33291420782E+03  0.00000000000E+00 0. -1.
</event>
<event>
 4    1  0.5784609E+003  0.2817019E+02  0.7546771E-02  0.1436195E+00
          2   -1    0    0  501    0  0.00000000000E+00  0.00000000000E+00  0.93148206155E+03  0.93148206155E+03  0.00000000000E+00 0. -1.
         -2   -1    0    0    0  501 -0.00000000000E+00 -0.00000000000E+00 -0.24925707945E+01  0.24925707945E+01  0.00000000000E+00 0.  1.
          2    1    1    2  502    0 -0.27964305271E+02 -0.33995940315E+01  0.84336262641E+03  0.84383296880E+03  0.00000000000E+00 0. -1.
         -2    1    1    2    0  502  0.27964305271E+02  0.33995940315E+01  0.85626864342E+02  0.90141663541E+02  0.00000000000E+00 0.  1.
</event>
<event>
 4    1  0.5784609E+003  0.2514319E+02  0.7546771E-02  0.1467208E+00
          2   -1    0    0  501    0  0.00000000000E+00  0.00000000000E+00  0.10677771299E+04  0.10677771299E+04  0.00000000000E+00 0. -1.
         -2   -1    0    0    0  501 -0.00000000000E+00 -0.00000000000E+00 -0.19947801831E+01  0.19947801831E+01  0.00000000000E+00 0. -1.
          2    1    1    2  502    0 -0.14505233481E+02  0.20537244539E+02  0.98143031117E+03  0.98175232920E+03  0.00000000000E+00 0. -1.
         -2    1    1    2    0  502  0.14505233481E+02 -0.20537244539E+02  0.84352038582E+02  0.88019580916E+02  0.00000000000E+00 0. -1.
</event>
<event>
 4    1  0.5784609E+003  0.2253903E+02  0.7546771E-02  0.1498369E+00
          2   -1    0    0  501    0  0.00000000000E+00  0.00000000000E+00  0.12340971736E+02  0.12340971736E+02  0.00000000000E+00 0.  1.
         -2   -1    0    0    0  501 -0.00000000000E+00 -0.00000000000E+00 -0.11552312924E+03  0.11552312924E+03  0.00000000000E+00 0. -1.
          2    1    1    2  502    0  0.12810880406E+02  0.18544254906E+02 -0.29900063233E+00  0.22541017017E+02  0.00000000000E+00 0.  1.
         -2    1    1    2    0  502 -0.12810880406E+02 -0.18544254906E+02 -0.10288315687E+03  0.10532308396E+03  0.00000000000E+00 0. -1.
</event>
<event>
 4    1  0.5784609E+003  0.2224406E+02  0.7546771E-02  0.1502215E+00
          2   -1    0    0  501    0  0.00000000000E+00  0.00000000000E+00  0.13921174822E+04  0.13921174822E+04  0.00000000000E+00 0.  1.
         -2   -1    0    0    0  501 -0.00000000000E+00 -0.00000000000E+00 -0.10972754474E+01  0.10972754474E+01  0.00000000000E+00 0. -1.
          2    1    1    2  502    0 -0.23314047626E+01  0.22121540471E+02  0.12682895750E+04  0.12684846251E+04  0.00000000000E+00 0.  1.
         -2    1    1    2    0  502  0.23314047626E+01 -0.22121540471E+02  0.12273063179E+03  0.12473013261E+03  0.00000000000E+00 0. -1.
</event>
<event>
 4    1  0.5784609E+003  0.3303041E+02  0.7546771E-02  0.1394965E+00
          2   -1    0    0  501    0  0.00000000000E+00  0.00000000000E+00  0.33745045285E+03  0.33745045285E+03  0.00000000000E+00 0.  1.
         -2   -1    0    0    0  501 -0.00000000000E+00 -0.00000000000E+00 -0.34874314063E+01  0.34874314063E+01  0.00000000000E+00 0. -1.
          2    1    1    2  502    0  0.18710961150E+02  0.27219628038E+02  0.21301772621E+03  0.21556335472E+03  0.00000000000E+00 0.  1.
         -2    1    1    2    0  502 -0.18710961150E+02 -0.27219628038E+02  0.12094529523E+03  0.12537452953E+03  0.00000000000E+00 0. -1.
</event>
<event>
 4    1  0.5784609E+003  0.3208304E+02  0.7546771E-02  0.1402318E+00
          2   -1    0    0  501    0  0.00000000000E+00  0.00000000000E+00  0.16075637098E+02  0.16075637098E+02  0.00000000000E+00 0.  1.
         -2   -1    0    0    0  501 -0.00000000000E+00 -0.00000000000E+00 -0.93522025850E+02  0.93522025850E+02  0.00000000000E+00 0. -1.
          2    1    1    2  502    0  0.31220152843E+02 -0.73907539483E+01 -0.79503601149E+01  0.33053432703E+02  0.00000000000E+00 0.  1.
         -2    1    1    2    0  502 -0.31220152843E+02  0.73907539483E+01 -0.69496028638E+02  0.76544230245E+02  0.00000000000E+00 0. -1.
</event>
<event>
 4    1  0.5784609E+003  0.2867456E+02  0.7546771E-02  0.1431475E+00
          2   -1    0    0  501    0  0.00000000000E+00  0.00000000000E+00  0.39381280406E+02  0.39381280406E+02  0.00000000000E+00 0. -1.
         -2   -1    0    0    0  501 -0.00000000000E+00 -0.00000000000E+00 -0.25329215114E+02  0.25329215114E+02  0.00000000000E+00 0.  1.
          2    1    1    2  502    0 -0.80528414806E+01 -0.27520578050E+02  0.20588488685E+02  0.35300373064E+02  0.00000000000E+00 0. -1.
         -2    1    1    2    0  502  0.80528414806E+01  0.27520578050E+02 -0.65364233930E+01  0.29410122456E+02  0.00000000000E+00 0.  1.
</event>
<event>
 4    1  0.5784609E+003  0.2381683E+02  0.7546771E-02  0.1482488E+00
          2   -1    0    0  501    0  0.00000000000E+00  0.00000000000E+00  0.29055631200E+03  0.29055631200E+03  0.00000000000E+00 0. -1.
         -2   -1    0    0    0  501 -0.00000000000E+00 -0.00000000000E+00 -0.31273970358E+01  0.31273970358E+01  0.00000000000E+00 0. -1.
          2    1    1    2  502    0 -0.11372510898E+02  0.20926235289E+02  0.23372693084E+03  0.23493726722E+03  0.00000000000E+00 0. -1.
         -2    1    1    2    0  502  0.11372510898E+02 -0.20926235289E+02  0.53701984125E+02  0.58746441820E+02  0.00000000000E+00 0. -1.
</event>
<event>
 4    1  0.5784609E+003  0.2293858E+02  0.7546771E-02  0.1493271E+00
          2   -1    0    0  501    0  0.00000000000E+00  0.00000000000E+00  0.12433769426E+03  0.12433769426E+03  0.00000000000E+00 0. -1.
         -2   -1    0    0    0  501 -0.00000000000E+00 -0.00000000000E+00 -0.42337822750E+01  0.42337822750E+01  0.00000000000E+00 0.  1.
          2    1    1    2  502    0 -0.10052094724E+02  0.20618758022E+02  0.58676650242E+02  0.63001008518E+02  0.00000000000E+00 0. -1.
         -2    1    1    2    0  502  0.10052094724E+02 -0.20618758022E+02  0.61427261742E+02  0.65570468016E+02  0.00000000000E+00 0.  1.
</event>
<event>
 4    1  0.5784609E+003  0.2603233E+02  0.7546771E-02  0.1457578E+00
          2   -1    0    0  501    0  0.00000000000E+00  0.00000000000E+00  0.44912465462E+02  0.44912465462E+02  0.00000000000E+00 0.  1.
         -2   -1    0    0    0  501 -0.00000000000E+00 -0.00000000000E+00 -0.11799871152E+03  0.11799871152E+03  0.00000000000E+00 0.  1.
          2    1    1    2  502    0 -0.18842303386E+02 -0.17962456747E+02  0.39526370505E+02  0.47328809562E+02  0.00000000000E+00 0.  1.
         -2    1    1    2    0  502  0.18842303386E+02  0.17962456747E+02 -0.11261261657E+03  0.11558236742E+03  0.00000000000E+00 0.  1.
</event>
<event>
 4    1  0.5784609E+003  0.2296849E+02  0.7546771E-02  0.1492894E+00
          2   -1    0    0  501    0  0.00000000000E+00  0.00000000000E+00  0.26077379033E+01  0.26077379033E+01  0.00000000000E+00 0.  1.
         -2   -1    0    0    0  501 -0.00000000000E+00 -0.00000000000E+00 -0.28786276517E+03  0.28786276517E+03  0.00000000000E+00 0. -1.
          2    1    1    2  502    0 -0.21523001965E+02 -0.80194724264E+01 -0.63447478139E+02  0.67476914821E+02  0.00000000000E+00 0.  1.
         -2    1    1    2    0  502  0.21523001965E+02  0.80194724264E+01 -0.22180754913E+03  0.22299358825E+03  0.00000000000E+00 0. -1.
</event>
<event>
 4    1  0.5784609E+003  0.2230258E+02  0.7546771E-02  0.1501446E+00
          2   -1    0    0  501    0  0.00000000000E+00  0.00000000000E+00  0.10958345007E+03  0.10958345007E+03  0.00000000000E+00 0.  1.
         -2   -1    0    0    0  501 -0.00000000000E+00 -0.00000000000E+00 -0.53199172262E+01  0.53199172262E+01  0.00000000000E+00 0.  1.
          2    1    1    2  502    0  0.13381641159E+02  0.17841996760E+02  0.74142670524E+02  0.77424419668E+02  0.00000000000E+00 0.  1.
         -2    1    1    2    0  502 -0.13381641159E+02 -0.17841996760E+02  0.30120862324E+02  0.37478947633E+02  0.00000000000E+00 0.  1.
</event>
<event>
 4    1  0.5784609E+003  0.2487768E+02  0.7546771E-02  0.1470176E+00
          2   -1    0    0  501    0  0.00000000000E+00  0.00000000000E+00  0.42391987474E+03  0.42391987474E+03  0.00000000000E+00 0. -1.
         -2   -1    0    0    0  501 -0.00000000000E+00 -0.00000000000E+00 -0.20210063537E+01  0.20210063537E+01  0.00000000000E+00 0. -1.
          2    1    1    2  502    0 -0.21067010184E+01  0.24788323549E+02  0.32316191126E+03  0.32411806501E+03  0.00000000000E+00 0. -1.
         -2    1    1    2    0  502  0.21067010184E+01 -0.24788323549E+02  0.98736957121E+02  0.10182281608E+03  0.00000000000E+00 0. -1.
</event>
<event>
 4    1  0.5784609E+003  0.3239365E+02  0.7546771E-02  0.1399875E+00
          2   -1    0    0  501    0  0.00000000000E+00  0.00000000000E+00  0.18858353588E+04  0.18858353588E+04  0.00000000000E+00 0. -1.
         -2   -1    0    0    0  501 -0.00000000000E+00 -0.00000000000E+00 -0.19835667876E+01  0.19835667876E+01  0.00000000000E+00 0.  1.
          2    1    1    2  502    0  0.28311336209E+02 -0.15742201731E+02  0.17425684206E+04  0.17428694871E+04  0.00000000000E+00 0. -1.
         -2    1    1    2    0  502 -0.28311336209E+02  0.15742201731E+02  0.14128337139E+03  0.14494943844E+03  0.00000000000E+00 0.  1.
</event>
<event>
 4    1  0.5784609E+003  0.3357657E+02  0.7546771E-02  0.1390856E+00
          2   -1    0    0  501    0  0.00000000000E+00  0.00000000000E+00  0.52508408962E+03  0.52508408962E+03  0.00000000000E+00 0. -1.
         -2   -1    0    0    0  501 -0.00000000000E+00 -0.00000000000E+00 -0.94318230321E+02  0.94318230321E+02  0.00000000000E+00 0.  1.
          2    1    1    2  502    0 -0.30059342906E+02 -0.14960683599E+02  0.52153878166E+03  0.52261849080E+03  0.00000000000E+00 0. -1.
         -2    1    1    2    0  502  0.30059342906E+02  0.14960683599E+02 -0.90772922360E+02  0.96783829143E+02  0.00000000000E+00 0.  1.
</event>
<event>
 4    1  0.5784609E+003  0.2895425E+02  0.7546771E-02  0.1428907E+00
          2   -1    0    0  501    0  0.00000000000E+00  0.00000000000E+00  0.99317057516E+03  0.99317057516E+03  0.00000000000E+00 0. -1.
         -2   -1    0    0    0  501 -0.00000000000E+00 -0.00000000000E+00 -0.20184187568E+01  0.20184187568E+01  0.00000000000E+00 0.  1.
          2    1    1    2  502    0 -0.28829202484E+02  0.26880459909E+01  0.87511862605E+03  0.87559748639E+03  0.00000000000E+00 0. -1.
         -2    1    1    2    0  502  0.28829202484E+02 -0.26880459909E+01  0.11603353035E+03  0.11959150753E+03  0.00000000000E+00 0.  1.
</event>
<event>
 4    1  0.5784609E+003  0.2029582E+02  0.7546771E-02  0.1529561E+00
          2   -1    0    0  501    0  0.00000000000E+00  0.00000000000E+00  0.29105097546E+01  0.29105097546E+01  0.00000000000E+00 0.  1.
         -2   -1    0    0    0  501 -0.00000000000E+00 -0.00000000000E+00 -0.21506973830E+03  0.21506973830E+03  0.00000000000E+00 0. -1.
          2    1    1    2  502    0 -0.19680223043E+02 -0.49607604493E+01 -0.42346855843E+02  0.46959307097E+02  0.00000000000E+00 0.  1.
         -2    1    1    2    0  502  0.19680223043E+02  0.49607604493E+01 -0.16981237270E+03  0.17102094096E+03  0.00000000000E+00 0. -1.
</event>
<event>
 4    1  0.5784609E+003  0.2336420E+02  0.7546771E-02  0.1487975E+00
          2   -1    0    0  501    0  0.00000000000E+00  0.00000000000E+00  0.82269415616E+03  0.82269415616E+03  0.00000000000E+00 0. -1.
         -2   -1    0    0    0  501 -0.00000000000E+00 -0.00000000000E+00 -0.75035009663E+02  0.75035009663E+02  0.00000000000E+00 0.  1.
          2    1    1    2  502    0 -0.18318881698E+02  0.14501874538E+02  0.82070509519E+03  0.82103759906E+03  0.00000000000E+00 0. -1.
         -2    1    1    2    0  502  0.18318881698E+02 -0.14501874538E+02 -0.73045948696E+02  0.76691566764E+02  0.00000000000E+00 0.  1.
</event>
<event>
 4    1  0.5784609E+003  0.2145453E+02  0.7546771E-02  0.1512873E+00
          2   -1    0    0  501    0  0.00000000000E+00  0.00000000000E+00  0.29326787319E+03  0.29326787319E+03  0.00000000000E+00 0.  1.
         -2   -1    0    0    0  501 -0.00000000000E+00 -0.00000000000E+00 -0.19623010381E+01  0.19623010381E+01  0.00000000000E+00 0.  1.
          2    1    1    2  502    0 -0.11649245143E+02  0.18016431818E+02  0.21169324954E+03  0.21277765068E+03  0.00000000000E+00 0.  1.
         -2    1    1    2    0  502  0.11649245143E+02 -0.18016431818E+02  0.79612322611E+02  0.82452523548E+02  0.00000000000E+00 0.  1.
</event>
<event>
 4    1  0.5784609E+003  0.2032630E+02  0.7546771E-02  0.1529105E+00
          2   -1    0    0  501    0  0.00000000000E+00  0.00000000000E+00  0.99070726843E+03  0.99070726843E+03  0.00000000000E+00 0.  1.
         -2   -1    0    0    0  501 -0.00000000000E+00 -0.00000000000E+00 -0.75061067218E+02  0.75061067218E+02  0.00000000000E+00 0.  1.
          2    1    1    2  502    0 -0.18836609189E+02 -0.76381024393E+01  0.98922487368E+03  0.98943368103E+03  0.00000000000E+00 0.  1.
         -2    1    1    2    0  502  0.18836609189E+02  0.76381024393E+01 -0.73578672462E+02  0.76334654620E+02  0.00000000000E+00 0.  1.
</event>
<event>
 4    1  0.5784609E+003  0.3465960E+02  0.7546771E-02  0.1382972E+00
          2   -1    0    0  501    0  0.00000000000E+00  0.00000000000E+00  0.80553582696E+03  0.80553582696E+03  0.00000000000E+00 0.  1.
         -2   -1    0    0    0  501 -0.00000000000E+00 -0.00000000000E+00 -0.35693496455E+02  0.35693496455E+02  0.00000000000E+00 0.  1.
          2    1    1    2  502    0  0.34436608347E+02 -0.39253114883E+01  0.79665534278E+03  0.79740894355E+03  0.00000000000E+00 0.  1.
         -2    1    1    2    0  502 -0.34436608347E+02  0.39253114883E+01 -0.26813012275E+02  0.43820379871E+02  0.00000000000E+00 0.  1.
</event>
<event>
 4    1  0.5784609E+003  0.2112812E+02  0.7546771E-02  0.1517443E+00
          2   -1    0    0  501    0  0.00000000000E+00  0.00000000000E+00  0.77248442616E+02  0.77248442616E+02  0.00000000000E+00 0.  1.
         -2   -1    0    0    0  501 -0.00000000000E+00 -0.00000000000E+00 -0.57798627857E+01  0.57798627857E+01  0.00000000000E+00 0. -1.
          2    1    1    2  502    0  0.21055421207E+02 -0.17512264258E+01  0.36316587499E+02  0.42015379134E+02  0.00000000000E+00 0.  1.
         -2    1    1    2    0  502 -0.21055421207E+02  0.17512264258E+01  0.35151992331E+02  0.41012926268E+02  0.00000000000E+00 0. -1.
</event>
<event>
 4    1  0.5784609E+003  0.4858311E+02  0.7546771E-02  0.1304435E+00
          2   -1    0    0  501    0  0.00000000000E+00  0.00000000000E+00  0.34658124102E+04  0.34658124102E+04  0.00000000000E+00 0. -1.
         -2   -1    0    0    0  501 -0.00000000000E+00 -0.00000000000E+00 -0.69983572393E+00  0.69983572393E+00  0.00000000000E+00 0. -1.
          2    1    1    2  502    0 -0.54734797965E+01  0.48273793799E+02  0.20166903489E+04  0.20172754600E+04  0.00000000000E+00 0. -1.
         -2    1    1    2    0  502  0.54734797965E+01 -0.48273793799E+02  0.14484222256E+04  0.14492367859E+04  0.00000000000E+00 0. -1.
</event>
<event>
 4    1  0.5784609E+003  0.3533034E+02  0.7546771E-02  0.1378256E+00
          2   -1    0    0  501    0  0.00000000000E+00  0.00000000000E+00  0.88342690609E+03  0.88342690609E+03  0.00000000000E+00 0. -1.
         -2   -1    0    0    0  501 -0.00000000000E+00 -0.00000000000E+00 -0.31152641185E+02  0.31152641185E+02  0.00000000000E+00 0.  1.
          2    1    1    2  502    0  0.42516929527E+01 -0.35073583483E+02  0.87293626434E+03  0.87365093415E+03  0.00000000000E+00 0. -1.
         -2    1    1    2    0  502 -0.42516929527E+01  0.35073583483E+02 -0.20661999434E+02  0.40928613120E+02  0.00000000000E+00 0.  1.
</event>
<event>
 4    1  0.5784609E+003  0.2032408E+02  0.7546771E-02  0.1529138E+00
          2   -1    0    0  501    0  0.00000000000E+00  0.00000000000E+00  0.27603895791E+02  0.27603895791E+02  0.00000000000E+00 0.  1.
         -2   -1    0    0    0  501 -0.00000000000E+00 -0.00000000000E+00 -0.14734489564E+03  0.14734489564E+03  0.00000000000E+00 0. -1.
          2    1    1    2  502    0  0.18353655362E+02  0.87299342761E+01  0.23043112982E+02  0.30725453186E+02  0.00000000000E+00 0.  1.
         -2    1    1    2    0  502 -0.18353655362E+02 -0.87299342761E+01 -0.14278411283E+03  0.14422333824E+03  0.00000000000E+00 0. -1.
</event>
<event>
 4    1  0.5784609E+003  0.3026975E+02  0.7546771E-02  0.1417266E+00
          2   -1    0    0  501    0  0.00000000000E+00  0.00000000000E+00  0.44456108109E+03  0.44456108109E+03  0.00000000000E+00 0. -1.
         -2   -1    0    0    0  501 -0.00000000000E+00 -0.00000000000E+00 -0.16285357284E+02  0.16285357284E+02  0.00000000000E+00 0. -1.
          2    1    1    2  502    0 -0.28376822212E+02  0.10536302514E+02  0.42948709307E+03  0.43055246001E+03  0.00000000000E+00 0. -1.
         -2    1    1    2    0  502  0.28376822212E+02 -0.10536302514E+02 -0.12113692629E+01  0.30293978362E+02  0.00000000000E+00 0. -1.
</event>
<event>
 4    1  0.5784609E+003  0.2822326E+02  0.7546771E-02  0.1435693E+00
          2   -1    0    0  501    0  0.00000000000E+00  0.00000000000E+00  0.25206386671E+04  0.25206386671E+04  0.00000000000E+00 0. -1.
         -2   -1    0    0    0  501 -0.00000000000E+00 -0.00000000000E+00 -0.40728591870E+00  0.40728591870E+00  0.00000000000E+00 0.  1.
          2    1    1    2  502    0  0.89265412232E+00 -0.28209140550E+02  0.18568404562E+04  0.18570549352E+04  0.00000000000E+00 0. -1.
         -2    1    1    2    0  502 -0.89265412232E+00  0.28209140550E+02  0.66339092493E+03  0.66399101781E+03  0.00000000000E+00 0.  1.
</event>
<event>
 4    1  0.5784609E+003  0.2993638E+02  0.7546771E-02  0.1420150E+00
          2   -1    0    0  501    0  0.00000000000E+00  0.00000000000E+00  0.96939841179E+03  0.96939841179E+03  0.00000000000E+00 0. -1.
         -2   -1    0    0    0  501 -0.00000000000E+00 -0.00000000000E+00 -0.22735885010E+01  0.22735885010E+01  0.00000000000E+00 0. -1.
          2    1    1    2  502    0  0.17955983669E+02 -0.23953482173E+02  0.85780883851E+03  0.85833104924E+03  0.00000000000E+00 0. -1.
         -2    1    1    2    0  502 -0.17955983669E+02  0.23953482173E+02  0.10931598478E+03  0.11334095105E+03  0.00000000000E+00 0. -1.
</event>
<event>
 4    1  0.5784609E+003  0.2239305E+02  0.7546771E-02  0.1500264E+00
          2   -1    0    0  501    0  0.00000000000E+00  0.00000000000E+00  0.68023007947E+03  0.68023007947E+03  0.00000000000E+00 0.  1.
         -2   -1    0    0    0  501 -0.00000000000E+00 -0.00000000000E+00 -0.15764533741E+03  0.15764533741E+03  0.00000000000E+00 0. -1.
          2    1    1    2  502    0 -0.74115240406E+01 -0.21130971066E+02  0.67924942155E+03  0.67961844097E+03  0.00000000000E+00 0.  1.
         -2    1    1    2    0  502  0.74115240406E+01  0.21130971066E+02 -0.15666467948E+03  0.15825697591E+03  0.00000000000E+00 0. -1.
</event>
<event>
 4    1  0.5784609E+003  0.2486676E+02  0.7546771E-02  0.1470300E+00
          2   -1    0    0  501    0  0.00000000000E+00  0.00000000000E+00  0.65786319379E+02  0.65786319379E+02  0.00000000000E+00 0.  1.
         -2   -1    0    0    0  501 -0.00000000000E+00 -0.00000000000E+00 -0.29857890665E+02  0.29857890665E+02  0.00000000000E+00 0. -1.
          2    1    1    2  502    0 -0.53944458354E+01 -0.24274586923E+02  0.57549640782E+02  0.62692238518E+02  0.00000000000E+00 0.  1.
         -2    1    1    2    0  502  0.53944458354E+01  0.24274586923E+02 -0.21621212069E+02  0.32951971527E+02  0.00000000000E+00 0. -1.
</event>
<event>
 4    1  0.5784609E+003  0.2734849E+02  0.7546771E-02  0.1444139E+00
          2   -1    0    0  501    0  0.00000000000E+00  0.00000000000E+00  0.54143993917E+02  0.54143993917E+02  0.00000000000E+00 0. -1.
         -2   -1    0    0    0  501 -0.00000000000E+00 -0.00000000000E+00 -0.98448907224E+03  0.98448907224E+03  0.00000000000E+00 0.  1.
          2    1    1    2  502    0 -0.79800983750E+01  0.26158322809E+02  0.50487716357E+02  0.57419067610E+02  0.00000000000E+00 0. -1.
         -2    1    1    2    0  502  0.79800983750E+01 -0.26158322809E+02 -0.98083279468E+03  0.98121399855E+03  0.00000000000E+00 0.  1.
</event>
<event>
 4    1  0.5784609E+003  0.2148585E+02  0.7546771E-02  0.1512440E+00
          2   -1    0    0  501    0  0.00000000000E+00  0.00000000000E+00  0.90374438574E+03  0.90374438574E+03  0.00000000000E+00 0.  1.
         -2   -1    0    0    0  501 -0.00000000000E+00 -0.00000000000E+00 -0.23231904733E+01  0.23231904733E+01  0.00000000000E+00 0.  1.
          2    1    1    2  502    0 -0.18835961246E+02 -0.10336741376E+02  0.85085143199E+03  0.85112267093E+03  0.00000000000E+00 0.  1.
         -2    1    1    2    0  502  0.18835961246E+02  0.10336741376E+02  0.50569763280E+02  0.54944905283E+02  0.00000000000E+00 0.  1.
</event>
<event>
 4    1  0.5784609E+003  0.3059296E+02  0.7546771E-02  0.1414512E+00
          2   -1    0    0  501    0  0.00000000000E+00  0.00000000000E+00  0.18988363877E+02  0.18988363877E+02  0.00000000000E+00 0.  1.
         -2   -1    0    0    0  501 -0.00000000000E+00 -0.00000000000E+00 -0.51260647081E+02  0.51260647081E+02  0.00000000000E+00 0. -1.
          2    1    1    2  502    0 -0.26743176546E+02 -0.14857038383E+02 -0.92485816474E+01  0.31960371459E+02  0.00000000000E+00 0. -1.
         -2    1    1    2    0  502  0.26743176546E+02  0.14857038383E+02 -0.23023701556E+02  0.38288639499E+02  0.00000000000E+00 0.  1.
</event>
<event>
 4    1  0.5784609E+003  0.2303961E+02  0.7546771E-02  0.1492001E+00
          2   -1    0    0  501    0  0.00000000000E+00  0.00000000000E+00  0.26307638702E+02  0.26307638702E+02  0.00000000000E+00 0.  1.
         -2   -1    0    0    0  501 -0.00000000000E+00 -0.00000000000E+00 -0.26809571476E+03  0.26809571476E+03  0.00000000000E+00 0. -1.
          2    1    1    2  502    0 -0.56419157077E+01  0.22338137212E+02  0.20659913901E+02  0.30946011526E+02  0.00000000000E+00 0.  1.
         -2    1    1    2    0  502  0.56419157077E+01 -0.22338137212E+02 -0.26244798996E+03  0.26345734194E+03  0.00000000000E+00 0. -1.
</event>
<event>
 4    1  0.5784609E+003  0.2019596E+02  0.7546771E-02  0.1531061E+00
          2   -1    0    0  501    0  0.00000000000E+00  0.00000000000E+00  0.68451617221E+03  0.68451617221E+03  0.00000000000E+00 0.  1.
         -2   -1    0    0    0  501 -0.00000000000E+00 -0.00000000000E+00 -0.14595108896E+01  0.14595108896E+01  0.00000000000E+00 0.  1.
          2    1    1    2  502    0  0.11741627731E+00 -0.20195621622E+02  0.60537022648E+03  0.60570701501E+03  0.00000000000E+00 0.  1.
         -2    1    1    2    0  502 -0.11741627731E+00  0.20195621622E+02  0.77686434841E+02  0.80268668094E+02  0.00000000000E+00 0.  1.
</event>
<event>
 4    1  0.5784609E+003  0.2637345E+02  0.7546771E-02  0.1454005E+00
          2   -1    0    0  501    0  0.00000000000E+00  0.00000000000E+00  0.25232913340E+02  0.25232913340E+02  0.00000000000E+00 0. -1.
         -2   -1    0    0    0  501 -0.00000000000E+00 -0.00000000000E+00 -0.10224264001E+03  0.10224264001E+03  0.00000000000E+00 0. -1.
          2    1    1    2  502    0 -0.13760374136E+02 -0.22499134231E+02  0.15967296876E+02  0.30830399074E+02  0.00000000000E+00 0. -1.
         -2    1    1    2    0  502  0.13760374136E+02  0.22499134231E+02 -0.92977023543E+02  0.96645154273E+02  0.00000000000E+00 0. -1.
</event>
<event>
 4    1  0.5784609E+003  0.2015344E+02  0.7546771E-02  0.1531703E+00
          2   -1    0    0  501    0  0.00000000000E+00  0.00000000000E+00  0.43918430878E+03  0.43918430878E+03  0.00000000000E+00 0.  1.
         -2   -1    0    0    0  501 -0.00000000000E+00 -0.00000000000E+00 -0.18396657399E+01  0.18396657399E+01  0.00000000000E+00 0.  1.
          2    1    1    2  502    0 -0.58267421464E+01 -0.19292747351E+02  0.37417561826E+03  0.37471796638E+03  0.00000000000E+00 0.  1.
         -2    1    1    2    0  502  0.58267421464E+01  0.19292747351E+02  0.63169024784E+02  0.66306008148E+02  0.00000000000E+00 0.  1.
</event>
<event>
 4    1  0.5784609E+003  0.2285239E+02  0.7546771E-02  0.1494360E+00
          2   -1    0    0  501    0  0.00000000000E+00  0.00000000000E+00  0.30792969679E+03  0.30792969679E+03  0.00000000000E+00 0.  1.
         -2   -1    0    0    0  501 -0.00000000000E+00 -0.00000000000E+00 -0.45121403450E+01  0.45121403450E+01  0.00000000000E+00 0.  1.
          2    1    1    2  502    0 -0.19652593404E+02  0.11662217420E+02  0.27512700356E+03  0.27607444618E+03  0.00000000000E+00 0.  1.
         -2    1    1    2    0  502  0.19652593404E+02 -0.11662217420E+02  0.28290552881E+02  0.36367390957E+02  0.00000000000E+00 0.  1.
</event>
<event>
 4    1  0.5784609E+003  0.2291772E+02  0.7546771E-02  0.1493534E+00
          2   -1    0    0  501    0  0.00000000000E+00  0.00000000000E+00  0.14008540618E+03  0.14008540618E+03  0.00000000000E+00 0.  1.
         -2   -1    0    0    0  501 -0.00000000000E+00 -0.00000000000E+00 -0.66214645224E+02  0.66214645224E+02  0.00000000000E+00 0.  1.
          2    1    1    2  502    0 -0.12211158856E+02 -0.19393544443E+02  0.13712250007E+03  0.13902446544E+03  0.00000000000E+00 0.  1.
         -2    1    1    2    0  502  0.12211158856E+02  0.19393544443E+02 -0.63251739108E+02  0.67275585965E+02  0.00000000000E+00 0.  1.
</event>
<event>
 4    1  0.5784609E+003  0.4324396E+02  0.7546771E-02  0.1330458E+00
          2   -1    0    0  501    0  0.00000000000E+00  0.00000000000E+00  0.17845872943E+02  0.17845872943E+02  0.00000000000E+00 0.  1.
         -2   -1    0    0    0  501 -0.00000000000E+00 -0.00000000000E+00 -0.29042265712E+03  0.29042265712E+03  0.00000000000E+00 0.  1.
          2    1    1    2  502    0  0.13624710514E+02 -0.41041535197E+02 -0.13059365199E+02  0.45172860960E+02  0.00000000000E+00 0.  1.
         -2    1    1    2    0  502 -0.13624710514E+02  0.41041535197E+02 -0.25951741898E+03  0.26309566911E+03  0.00000000000E+00 0.  1.
</event>
<event>
 4    1  0.5784609E+003  0.2503996E+02  0.7546771E-02  0.1468357E+00
          2   -1    0    0  501    0  0.00000000000E+00  0.00000000000E+00  0.83478098559E+01  0.83478098559E+01  0.00000000000E+00 0. -1.
         -2   -1    0    0    0  501 -0.00000000000E+00 -0.00000000000E+00 -0.12974921093E+03  0.12974921093E+03  0.00000000000E+00 0.  1.
          2    1    1    2  502    0 -0.43131452783E+01  0.24665697092E+02 -0.15892640403E+02  0.29657644111E+02  0.00000000000E+00 0. -1.
         -2    1    1    2    0  502  0.43131452783E+01 -0.24665697092E+02 -0.10550876067E+03  0.10843937667E+03  0.00000000000E+00 0.  1.
</event>
<event>
 4    1  0.5784609E+003  0.2155331E+02  0.7546771E-02  0.1511510E+00
          2   -1    0    0  501    0  0.00000000000E+00  0.00000000000E+00  0.12283421516E+03  0.12283421516E+03  0.00000000000E+00 0.  1.
         -2   -1    0    0    0  501 -0.00000000000E+00 -0.00000000000E+00 -0.57542363971E+01  0.57542363971E+01  0.00000000000E+00 0. -1.
          2    1    1    2  502    0 -0.83382749247E+01 -0.19875071868E+02  0.96181745584E+02  0.98567101479E+02  0.00000000000E+00 0.  1.
         -2    1    1    2    0  502  0.83382749247E+01  0.19875071868E+02  0.20898233180E+02  0.30021350078E+02  0.00000000000E+00 0. -1.
</event>
<event>
 4    1  0.5784609E+003  0.2571511E+02  0.7546771E-02  0.1460960E+00
          2   -1    0    0  501    0  0.00000000000E+00  0.00000000000E+00  0.54644070704E+03  0.54644070704E+03  0.00000000000E+00 0.  1.
         -2   -1    0    0    0  501 -0.00000000000E+00 -0.00000000000E+00 -0.17700137918E+01  0.17700137918E+01  0.00000000000E+00 0.  1.
          2    1    1    2  502    0 -0.25494613438E+02  0.33602612064E+01  0.42649703712E+03  0.42727156393E+03  0.00000000000E+00 0.  1.
         -2    1    1    2    0  502  0.25494613438E+02 -0.33602612064E+01  0.11817365612E+03  0.12093915690E+03  0.00000000000E+00 0.  1.
</event>
<event>
 4    1  0.5784609E+003  0.3072698E+02  0.7546771E-02  0.1413382E+00
          2   -1    0    0  501    0  0.00000000000E+00  0.00000000000E+00  0.26093568394E+03  0.26093568394E+03  0.00000000000E+00 0.  1.
         -2   -1    0    0    0  501 -0.00000000000E+00 -0.00000000000E+00 -0.11212529065E+02  0.11212529065E+02  0.00000000000E+00 0.  1.
          2    1    1    2  502    0 -0.81745970470E+01  0.29619642387E+02  0.23684794165E+03  0.23883277563E+03  0.00000000000E+00 0.  1.
         -2    1    1    2    0  502  0.81745970470E+01 -0.29619642387E+02  0.12875213231E+02  0.33315437379E+02  0.00000000000E+00 0.  1.
</event>
<event>
 4    1  0.5784609E+003  0.2239551E+02  0.7546771E-02  0.1500232E+00
          2   -1    0    0  501    0  0.00000000000E+00  0.00000000000E+00  0.21176187899E+04  0.21176187899E+04  0.00000000000E+00 0.  1.
         -2   -1    0    0    0  501 -0.00000000000E+00 -0.00000000000E+00 -0.34203097715E+00  0.34203097715E+00  0.00000000000E+00 0.  1.
          2    1    1    2  502    0 -0.25398023868E+01 -0.22251028897E+02  0.16458882850E+04  0.16460406451E+04  0.00000000000E+00 0.  1.
         -2    1    1    2    0  502  0.25398023868E+01  0.22251028897E+02  0.47138847398E+03  0.47192017575E+03  0.00000000000E+00 0.  1.
</event>
<event>
 4    1  0.5784609E+003  0.2149563E+02  0.7546771E-02  0.1512305E+00
          2   -1    0    0  501    0  0.00000000000E+00  0.00000000000E+00  0.19909933594E+03  0.19909933594E+03  0.00000000000E+00 0. -1.
         -2   -1    0    0    0  501 -0.00000000000E+00 -0.00000000000E+00 -0.26852900201E+03  0.26852900201E+03  0.00000000000E+00 0. -1.
          2    1    1    2  502    0  0.19988271239E+02  0.79076688207E+01  0.19808677381E+03  0.19924967296E+03  0.00000000000E+00 0. -1.
         -2    1    1    2    0  502 -0.19988271239E+02 -0.79076688207E+01 -0.26751643988E+03  0.26837866499E+03  0.00000000000E+00 0. -1.
</event>
<event>
 4    1  0.5784609E+003  0.2389159E+02  0.7546771E-02  0.1481596E+00
          2   -1    0    0  501    0  0.00000000000E+00  0.00000000000E+00  0.93894735482E+01  0.93894735482E+01  0.00000000000E+00 0. -1.
         -2   -1    0    0    0  501 -0.00000000000E+00 -0.00000000000E+00 -0.38621066489E+03  0.38621066489E+03  0.00000000000E+00 0.  1.
          2    1    1    2  502    0  0.22712221931E+02 -0.74136956034E+01 -0.68442628080E+01  0.24852602297E+02  0.00000000000E+00 0. -1.
         -2    1    1    2    0  502 -0.22712221931E+02  0.74136956034E+01 -0.36997692854E+03  0.37074753615E+03  0.00000000000E+00 0.  1.
</event>
<event>
 4    1  0.5784609E+003  0.2328928E+02  0.7546771E-02  0.1488897E+00
          2   -1    0    0  501    0  0.00000000000E+00  0.00000000000E+00  0.45989367675E+01  0.45989367675E+01  0.00000000000E+00 0.  1.
         -2   -1    0    0    0  501 -0.00000000000E+00 -0.00000000000E+00 -0.14520164021E+03  0.14520164021E+03  0.00000000000E+00 0.  1.
          2    1    1    2  502    0  0.52352717354E+01  0.22693230444E+02 -0.37845928908E+02  0.44437654226E+02  0.00000000000E+00 0.  1.
         -2    1    1    2    0  502 -0.52352717354E+01 -0.22693230444E+02 -0.10275677454E+03  0.10536292276E+03  0.00000000000E+00 0.  1.
</event>
<event>
 4    1  0.5784609E+003  0.3067154E+02  0.7546771E-02  0.1413849E+00
          2   -1    0    0  501    0  0.00000000000E+00  0.00000000000E+00  0.12425323385E+04  0.12425323385E+04  0.00000000000E+00 0.  1.
         -2   -1    0    0    0  501 -0.00000000000E+00 -0.00000000000E+00 -0.11958690732E+02  0.11958690732E+02  0.00000000000E+00 0. -1.
          2    1    1    2  502    0 -0.20140766145E+02 -0.23132071201E+02  0.12223519086E+04  0.12227366567E+04  0.00000000000E+00 0.  1.
         -2    1    1    2    0  502  0.20140766145E+02  0.23132071201E+02  0.82217391465E+01  0.31754372510E+02  0.00000000000E+00 0. -1.
</event>
<event>
 4    1  0.5784609E+003  0.2570732E+02  0.7546771E-02  0.1461044E+00
          2   -1    0    0  501    0  0.00000000000E+00  0.00000000000E+00  0.14616106604E+03  0.14616106604E+03  0.00000000000E+00 0.  1.
         -2   -1    0    0    0  501 -0.00000000000E+00 -0.00000000000E+00 -0.46302812569E+02  0.46302812569E+02  0.00000000000E+00 0.  1.
          2    1    1    2  502    0  0.25620753400E+02 -0.21078884491E+01  0.14134184624E+03  0.14366065466E+03  0.00000000000E+00 0.  1.
         -2    1    1    2    0  502 -0.25620753400E+02  0.21078884491E+01 -0.41483592771E+02  0.48803223948E+02  0.00000000000E+00 0.  1.
</event>
<event>
 4    1  0.5784609E+003  0.2353968E+02  0.7546771E-02  0.1485830E+00
          2   -1    0    0  501    0  0.00000000000E+00  0.00000000000E+00  0.97411428640E+03  0.97411428640E+03  0.00000000000E+00 0.  1.
         -2   -1    0    0    0  501 -0.00000000000E+00 -0.00000000000E+00 -0.97841731079E+01  0.97841731079E+01  0.00000000000E+00 0. -1.
          2    1    1    2  502    0  0.17968830172E+02 -0.15206501839E+02  0.95959945570E+03  0.95988813512E+03  0.00000000000E+00 0.  1.
         -2    1    1    2    0  502 -0.17968830172E+02  0.15206501839E+02  0.47306575862E+01  0.24010324386E+02  0.00000000000E+00 0. -1.
</event>
<event>
 4    1  0.5784609E+003  0.2638053E+02  0.7546771E-02  0.1453932E+00
          2   -1    0    0  501    0  0.00000000000E+00  0.00000000000E+00  0.39559632526E+03  0.39559632526E+03  0.00000000000E+00 0. -1.
         -2   -1    0    0    0  501 -0.00000000000E+00 -0.00000000000E+00 -0.99732360284E+02  0.99732360284E+02  0.00000000000E+00 0. -1.
          2    1    1    2  502    0 -0.52128802277E+01  0.25860364482E+02  0.39340230693E+03  0.39428581977E+03  0.00000000000E+00 0. -1.
         -2    1    1    2    0  502  0.52128802277E+01 -0.25860364482E+02 -0.97538341958E+02  0.10104286577E+03  0.00000000000E+00 0. -1.
</event>
<event>
 4    1  0.5784609E+003  0.3240157E+02  0.7546771E-02  0.1399813E+00
          2   -1    0    0  501    0  0.00000000000E+00  0.00000000000E+00  0.18432895097E+04  0.18432895097E+04  0.00000000000E+00 0. -1.
         -2   -1    0    0    0  501 -0.00000000000E+00 -0.00000000000E+00 -0.10663621406E+02  0.10663621406E+02  0.00000000000E+00 0.  1.
          2    1    1    2  502    0 -0.33395454662E+01  0.32229010849E+02  0.18181942684E+04  0.18184829555E+04  0.00000000000E+00 0. -1.
         -2    1    1    2    0  502  0.33395454662E+01 -0.32229010849E+02  0.14431619838E+02  0.35470175576E+02  0.00000000000E+00 0.  1.
</event>
<event>
 4    1  0.5784609E+003  0.2634868E+02  0.7546771E-02  0.1454263E+00
          2   -1    0    0  501    0  0.00000000000E+00  0.00000000000E+00  0.57372151525E+02  0.57372151525E+02  0.00000000000E+00 0.  1.
         -2   -1    0    0    0  501 -0.00000000000E+00 -0.00000000000E+00 -0.12849711380E+02  0.12849711380E+02  0.00000000000E+00 0.  1.
          2    1    1    2  502    0  0.20827875362E+02 -0.16138536211E+02  0.30737233060E+02  0.40484938425E+02  0.00000000000E+00 0.  1.
         -2    1    1    2    0  502 -0.20827875362E+02  0.16138536211E+02  0.13785207086E+02  0.29736924480E+02  0.00000000000E+00 0.  1.
</event>
<event>
 4    1  0.5784609E+003  0.2573017E+02  0.7546771E-02  0.1460798E+00
          2   -1    0    0  501    0  0.00000000000E+00  0.00000000000E+00  0.13453882037E+04  0.13453882037E+04  0.00000000000E+00 0. -1.
         -2   -1    0    0    0  501 -0.00000000000E+00 -0.00000000000E+00 -0.91799123932E+00  0.91799123932E+00  0.00000000000E+00 0.  1.
          2    1    1    2  502    0 -0.21586892373E+02  0.14001695979E+02  0.11307496070E+04  0.11310423136E+04  0.00000000000E+00 0. -1.
         -2    1    1    2    0  502  0.21586892373E+02 -0.14001695979E+02  0.21372060541E+03  0.21526388129E+03  0.00000000000E+00 0.  1.
</event>
<event>
 4    1  0.5784609E+003  0.3862829E+02  0.7546771E-02  0.1356717E+00
          2   -1    0    0  501    0  0.00000000000E+00  0.00000000000E+00  0.30500079053E+02  0.30500079053E+02  0.00000000000E+00 0.  1.
         -2   -1    0    0    0  501 -0.00000000000E+00 -0.00000000000E+00 -0.69925171493E+02  0.69925171493E+02  0.00000000000E+00 0.  1.
          2    1    1    2  502    0  0.15274721789E+02  0.35479965251E+02  0.78063970231E+01  0.39409198094E+02  0.00000000000E+00 0.  1.
         -2    1    1    2    0  502 -0.15274721789E+02 -0.35479965251E+02 -0.47231489463E+02  0.61016052452E+02  0.00000000000E+00 0.  1.
</event>
<event>
 4    1  0.5784609E+003  0.2270817E+02  0.7546771E-02  0.1496196E+00
          2   -1    0    0  501    0  0.00000000000E+00  0.00000000000E+00  0.83240574378E+02  0.83240574378E+02  0.00000000000E+00 0.  1.
         -2   -1    0    0    0  501 -0.00000000000E+00 -0.00000000000E+00 -0.21134968132E+02  0.21134968132E+02  0.00000000000E+00 0. -1.
          2    1    1    2  502    0 -0.14830909447E+02 -0.17196081061E+02  0.74930647184E+02  0.78295995851E+02  0.00000000000E+00 0.  1.
         -2    1    1    2    0  502  0.14830909447E+02  0.17196081061E+02 -0.12825040938E+02  0.26079546659E+02  0.00000000000E+00 0. -1.
</event>
<event>
 4    1  0.5784609E+003  0.3018382E+02  0.7546771E-02  0.1418006E+00
          2   -1    0    0  501    0  0.00000000000E+00  0.00000000000E+00  0.22128997381E+02  0.22128997381E+02  0.00000000000E+00 0. -1.
         -2   -1    0    0    0  501 -0.00000000000E+00 -0.00000000000E+00 -0.10509639643E+03  0.10509639643E+03  0.00000000000E+00 0. -1.
          2    1    1    2  502    0 -0.23620492472E+01 -0.30091255441E+02  0.81284619809E+01  0.31259155856E+02  0.00000000000E+00 0. -1.
         -2    1    1    2    0  502  0.23620492472E+01  0.30091255441E+02 -0.91095861032E+02  0.95966237958E+02  0.00000000000E+00 0. -1.
</event>
<event>
 4    1  0.5784609E+003  0.2846954E+02  0.7546771E-02  0.1433380E+00
          2   -1    0    0  501    0  0.00000000000E+00  0.00000000000E+00  0.64141173951E+02  0.64141173951E+02  0.00000000000E+00 0. -1.
         -2   -1    0    0    0  501 -0.00000000000E+00 -0.00000000000E+00 -0.85184401261E+02  0.85184401261E+02  0.00000000000E+00 0. -1.
          2    1    1    2  502    0 -0.42907281168E+01 -0.28144352828E+02  0.58381178792E+02  0.64952882777E+02  0.00000000000E+00 0. -1.
         -2    1    1    2    0  502  0.42907281168E+01  0.28144352828E+02 -0.79424406103E+02  0.84372692435E+02  0.00000000000E+00 0. -1.
</event>
<event>
 4    1  0.5784609E+003  0.2188303E+02  0.7546771E-02  0.1507021E+00
          2   -1    0    0  501    0  0.00000000000E+00  0.00000000000E+00  0.50087219859E+03  0.50087219859E+03  0.00000000000E+00 0. -1.
         -2   -1    0    0    0  501 -0.00000000000E+00 -0.00000000000E+00 -0.96995137598E+01  0.96995137598E+01  0.00000000000E+00 0. -1.
          2    1    1    2  502    0 -0.17735788503E+02 -0.12818306655E+02  0.48796429750E+03  0.48845472954E+03  0.00000000000E+00 0. -1.
         -2    1    1    2    0  502  0.17735788503E+02  0.12818306655E+02  0.32083873336E+01  0.22116982809E+02  0.00000000000E+00 0. -1.
</event>
<event>
 4    1  0.5784609E+003  0.3162710E+02  0.7546771E-02  0.1405965E+00
          2   -1    0    0  501    0  0.00000000000E+00  0.00000000000E+00  0.15957684784E+03  0.15957684784E+03  0.00000000000E+00 0.  1.
         -2   -1    0    0    0  501 -0.00000000000E+00 -0.00000000000E+00 -0.11412813441E+02  0.11412813441E+02  0.00000000000E+00 0.  1.
          2    1    1    2  502    0 -0.17462043830E+02  0.26369494241E+02  0.13148259618E+03  0.13523293349E+03  0.00000000000E+00 0.  1.
         -2    1    1    2    0  502  0.17462043830E+02 -0.26369494241E+02  0.16681438214E+02  0.35756727788E+02  0.00000000000E+00 0.  1.
</event>
<event>
 4    1  0.5784609E+003  0.2809498E+02  0.7546771E-02  0.1436908E+00
          2   -1    0    0  501    0  0.00000000000E+00  0.00000000000E+00  0.19870000533E+03  0.19870000533E+03  0.00000000000E+00 0. -1.
         -2   -1    0    0    0  501 -0.00000000000E+00 -0.00000000000E+00 -0.37655165179E+02  0.37655165179E+02  0.00000000000E+00 0. -1.
          2    1    1    2  502    0  0.27807131475E+02 -0.40114094182E+01  0.19229269278E+03  0.19433426785E+03  0.00000000000E+00 0. -1.
         -2    1    1    2    0  502 -0.27807131475E+02  0.40114094182E+01 -0.31247852626E+02  0.42020902657E+02  0.00000000000E+00 0. -1.
</event>
<event>
 4    1  0.5784609E+003  0.2549556E+02  0.7546771E-02  0.1463335E+00
          2   -1    0    0  501    0  0.00000000000E+00  0.00000000000E+00  0.42191224255E+03  0.42191224255E+03  0.00000000000E+00 0.  1.
         -2   -1    0    0    0  501 -0.00000000000E+00 -0.00000000000E+00 -0.82359631761E+01  0.82359631761E+01  0.00000000000E+00 0.  1.
          2    1    1    2  502    0 -0.12532894216E+02  0.22202483610E+02  0.40075519823E+03  0.40156537778E+03  0.00000000000E+00 0.  1.
         -2    1    1    2    0  502  0.12532894216E+02 -0.22202483610E+02  0.12921081141E+02  0.28582827952E+02  0.00000000000E+00 0.  1.
</event>
<event>
 4    1  0.5784609E+003  0.4759191E+02  0.7546771E-02  0.1308965E+00
          2   -1    0    0  501    0  0.00000000000E+00  0.00000000000E+00  0.13333113747E+04  0.13333113747E+04  0.00000000000E+00 0. -1.
         -2   -1    0    0    0  501 -0.00000000000E+00 -0.00000000000E+00 -0.72361766488E+01  0.72361766488E+01  0.00000000000E+00 0. -1.
          2    1    1    2  502    0 -0.23676268007E+02 -0.41284673348E+02  0.12493793781E+04  0.12502854956E+04  0.00000000000E+00 0. -1.
         -2    1    1    2    0  502  0.23676268007E+02  0.41284673348E+02  0.76695819886E+02  0.90262055750E+02  0.00000000000E+00 0. -1.
</event>
<event>
 4    1  0.5784609E+003  0.6319926E+02  0.7546771E-02  0.1249334E+00
          2   -1    0    0  501    0  0.00000000000E+00  0.00000000000E+00  0.11103302141E+03  0.11103302141E+03  0.00000000000E+00 0.  1.
         -2   -1    0    0    0  501 -0.00000000000E+00 -0.00000000000E+00 -0.53046531198E+02  0.53046531198E+02  0.00000000000E+00 0.  1.
          2    1    1    2  502    0  0.31372887943E+02 -0.54862454273E+02  0.75537134995E+02  0.98488607209E+02  0.00000000000E+00 0.  1.
         -2    1    1    2    0  502 -0.31372887943E+02  0.54862454273E+02 -0.17550644779E+02  0.65590945403E+02  0.00000000000E+00 0.  1.
</event>
<event>
 4    1  0.5784609E+003  0.2693701E+02  0.7546771E-02  0.1448242E+00
          2   -1    0    0  501    0  0.00000000000E+00  0.00000000000E+00  0.45382230262E+02  0.45382230262E+02  0.00000000000E+00 0. -1.
         -2   -1    0    0    0  501 -0.00000000000E+00 -0.00000000000E+00 -0.31685673369E+02  0.31685673369E+02  0.00000000000E+00 0.  1.
          2    1    1    2  502    0 -0.21446535845E+02  0.16298728748E+02  0.33970181803E+02  0.43354073745E+02  0.00000000000E+00 0. -1.
         -2    1    1    2    0  502  0.21446535845E+02 -0.16298728748E+02 -0.20273624911E+02  0.33713829886E+02  0.00000000000E+00 0.  1.
</event>
<event>
 4    1  0.5784609E+003  0.2195053E+02  0.7546771E-02  0.1506114E+00
          2   -1    0    0  501    0  0.00000000000E+00  0.00000000000E+00  0.67723187826E+02  0.67723187826E+02  0.00000000000E+00 0. -1.
         -2   -1    0    0    0  501 -0.00000000000E+00 -0.00000000000E+00 -0.98763252396E+01  0.98763252396E+01  0.00000000000E+00 0.  1.
          2    1    1    2  502    0 -0.16005982653E+02  0.15021130165E+02  0.49440660508E+02  0.54094405844E+02  0.00000000000E+00 0. -1.
         -2    1    1    2    0  502  0.16005982653E+02 -0.15021130165E+02  0.84062020784E+01  0.23505107222E+02  0.00000000000E+00 0.  1.
</event>
<event>
 4    1  0.5784609E+003  0.2504225E+02  0.7546771E-02  0.1468331E+00
          2   -1    0    0  501    0  0.00000000000E+00  0.00000000000E+00  0.94502405304E+03  0.94502405304E+03  0.00000000000E+00 0.  1.
         -2   -1    0    0    0  501 -0.00000000000E+00 -0.00000000000E+00 -0.49511802355E+02  0.49511802355E+02  0.00000000000E+00 0. -1.
          2    1    1    2  502    0  0.25042249192E+02 -0.13176605069E-01  0.94168042315E+03  0.94201334054E+03  0.00000000000E+00 0.  1.
         -2    1    1    2    0  502 -0.25042249192E+02  0.13176605069E-01 -0.46168172461E+02  0.52522514855E+02  0.00000000000E+00 0. -1.
</event>
<event>
 4    1  0.5784609E+003  0.2107297E+02  0.7546771E-02  0.1518225E+00
          2   -1    0    0  501    0  0.00000000000E+00  0.00000000000E+00  0.10120923348E+04  0.10120923348E+04  0.00000000000E+00 0.  1.
         -2   -1    0    0    0  501 -0.00000000000E+00 -0.00000000000E+00 -0.21476530798E+02  0.21476530798E+02  0.00000000000E+00 0. -1.
          2    1    1    2  502    0 -0.16308426268E+02 -0.13345609797E+02  0.10067861544E+04  0.10070066687E+04  0.00000000000E+00 0.  1.
         -2    1    1    2    0  502  0.16308426268E+02  0.13345609797E+02 -0.16170350458E+02  0.26562196862E+02  0.00000000000E+00 0. -1.
</event>
<event>
 4    1  0.5784609E+003  0.3222020E+02  0.7546771E-02  0.1401235E+00
          2   -1    0    0  501    0  0.00000000000E+00  0.00000000000E+00  0.13142929080E+04  0.13142929080E+04  0.00000000000E+00 0. -1.
         -2   -1    0    0    0  501 -0.00000000000E+00 -0.00000000000E+00 -0.17750622715E+01  0.17750622715E+01  0.00000000000E+00 0. -1.
          2    1    1    2  502    0  0.11491658786E+02 -0.30101208614E+02  0.11464874695E+04  0.11469401286E+04  0.00000000000E+00 0. -1.
         -2    1    1    2    0  502 -0.11491658786E+02  0.30101208614E+02  0.16603037621E+03  0.16912784161E+03  0.00000000000E+00 0. -1.
</event>
<event>
 4    1  0.5784609E+003  0.5866835E+02  0.7546771E-02  0.1264425E+00
          2   -1    0    0  501    0  0.00000000000E+00  0.00000000000E+00  0.35766010283E+03  0.35766010283E+03  0.00000000000E+00 0. -1.
         -2   -1    0    0    0  501 -0.00000000000E+00 -0.00000000000E+00 -0.11926088155E+02  0.11926088155E+02  0.00000000000E+00 0. -1.
          2    1    1    2  502    0 -0.50754992924E+02 -0.29426289292E+02  0.25406325345E+03  0.26074913722E+03  0.00000000000E+00 0. -1.
         -2    1    1    2    0  502  0.50754992924E+02  0.29426289292E+02  0.91670761224E+02  0.10883705376E+03  0.00000000000E+00 0. -1.
</event>
<event>
 4    1  0.5784609E+003  0.3139765E+02  0.7546771E-02  0.1407828E+00
          2   -1    0    0  501    0  0.00000000000E+00  0.00000000000E+00  0.11621957843E+02  0.11621957843E+02  0.00000000000E+00 0.  1.
         -2   -1    0    0    0  501 -0.00000000000E+00 -0.00000000000E+00 -0.10588053251E+03  0.10588053251E+03  0.00000000000E+00 0.  1.
          2    1    1    2  502    0 -0.20153909137E+02 -0.24075540241E+02 -0.73329852637E+02  0.79768909853E+02  0.00000000000E+00 0.  1.
         -2    1    1    2    0  502  0.20153909137E+02  0.24075540241E+02 -0.20928722026E+02  0.37733580496E+02  0.00000000000E+00 0.  1.
</event>
<event>
 4    1  0.5784609E+003  0.3709393E+02  0.7546771E-02  0.1366412E+00
          2   -1    0    0  501    0  0.00000000000E+00  0.00000000000E+00  0.58527416563E+02  0.58527416563E+02  0.00000000000E+00 0. -1.
         -2   -1    0    0    0  501 -0.00000000000E+00 -0.00000000000E+00 -0.18444189070E+03  0.18444189070E+03  0.00000000000E+00 0. -1.
          2    1    1    2  502    0 -0.37088368908E+02 -0.64251561692E+00  0.50521147930E+02  0.62676521304E+02  0.00000000000E+00 0. -1.
         -2    1    1    2    0  502  0.37088368908E+02  0.64251561692E+00 -0.17643562207E+03  0.18029278596E+03  0.00000000000E+00 0. -1.
</event>
<event>
 4    1  0.5784609E+003  0.4087195E+02  0.7546771E-02  0.1343451E+00
          2   -1    0    0  501    0  0.00000000000E+00  0.00000000000E+00  0.89516262688E+01  0.89516262688E+01  0.00000000000E+00 0.  1.
         -2   -1    0    0    0  501 -0.00000000000E+00 -0.00000000000E+00 -0.66674867222E+03  0.66674867222E+03  0.00000000000E+00 0.  1.
          2    1    1    2  502    0  0.36546877154E+02 -0.18298690841E+02 -0.42201169391E+02  0.58749085220E+02  0.00000000000E+00 0.  1.
         -2    1    1    2    0  502 -0.36546877154E+02  0.18298690841E+02 -0.61559587656E+03  0.61695121327E+03  0.00000000000E+00 0.  1.
</event>
<event>
 4    1  0.5784609E+003  0.3574465E+02  0.7546771E-02  0.1375402E+00
          2   -1    0    0  501    0  0.00000000000E+00  0.00000000000E+00  0.11825481240E+04  0.11825481240E+04  0.00000000000E+00 0.  1.
         -2   -1    0    0    0  501 -0.00000000000E+00 -0.00000000000E+00 -0.26609642496E+02  0.26609642496E+02  0.00000000000E+00 0.  1.
          2    1    1    2  502    0  0.25098145024E+02  0.25451196108E+02  0.11701469026E+04  0.11706927239E+04  0.00000000000E+00 0.  1.
         -2    1    1    2    0  502 -0.25098145024E+02 -0.25451196108E+02 -0.14208421100E+02  0.38465042533E+02  0.00000000000E+00 0.  1.
</event>
<event>
 4    1  0.5784609E+003  0.3180118E+02  0.7546771E-02  0.1404564E+00
          2   -1    0    0  501    0  0.00000000000E+00  0.00000000000E+00  0.85791815669E+03  0.85791815669E+03  0.00000000000E+00 0. -1.
         -2   -1    0    0    0  501 -0.00000000000E+00 -0.00000000000E+00 -0.22364180566E+01  0.22364180566E+01  0.00000000000E+00 0.  1.
          2    1    1    2  502    0 -0.22631419763E+02 -0.22341302243E+02  0.72359730000E+03  0.72429577350E+03  0.00000000000E+00 0. -1.
         -2    1    1    2    0  502  0.22631419763E+02  0.22341302243E+02  0.13208443864E+03  0.13585880125E+03  0.00000000000E+00 0.  1.
</event>
<event>
 4    1  0.5784609E+003  0.2697463E+02  0.7546771E-02  0.1447863E+00
          2   -1    0    0  501    0  0.00000000000E+00  0.00000000000E+00  0.14576391715E+04  0.14576391715E+04  0.00000000000E+00 0. -1.
         -2   -1    0    0    0  501 -0.00000000000E+00 -0.00000000000E+00 -0.11623157258E+02  0.11623157258E+02  0.00000000000E+00 0.  1.
          2    1    1    2  502    0  0.89783741485E+01  0.25436581451E+02  0.14416908042E+04  0.14419431355E+04  0.00000000000E+00 0. -1.
         -2    1    1    2    0  502 -0.89783741485E+01 -0.25436581451E+02  0.43252099481E+01  0.27319193241E+02  0.00000000000E+00 0.  1.
</event>
<event>
 4    1  0.5784609E+003  0.3032138E+02  0.7546771E-02  0.1416824E+00
          2   -1    0    0  501    0  0.00000000000E+00  0.00000000000E+00  0.10786820439E+04  0.10786820439E+04  0.00000000000E+00 0. -1.
         -2   -1    0    0    0  501 -0.00000000000E+00 -0.00000000000E+00 -0.94406927708E+00  0.94406927708E+00  0.00000000000E+00 0. -1.
          2    1    1    2  502    0 -0.25605812905E+02  0.16239683962E+02  0.37058731014E+03  0.37182568419E+03  0.00000000000E+00 0. -1.
         -2    1    1    2    0  502  0.25605812905E+02 -0.16239683962E+02  0.70715066453E+03  0.70780042903E+03  0.00000000000E+00 0. -1.
</event>
<event>
 4    1  0.5784609E+003  0.3228201E+02  0.7546771E-02  0.1400749E+00
          2   -1    0    0  501    0  0.00000000000E+00  0.00000000000E+00  0.39144335402E+01  0.39144335402E+01  0.00000000000E+00 0.  1.
         -2   -1    0    0    0  501 -0.00000000000E+00 -0.00000000000E+00 -0.31667598615E+03  0.31667598615E+03  0.00000000000E+00 0.  1.
          2    1    1    2  502    0 -0.22019465925E+02 -0.23606591673E+02 -0.92401542780E+02  0.97878358988E+02  0.00000000000E+00 0.  1.
         -2    1    1    2    0  502  0.22019465925E+02  0.23606591673E+02 -0.22036000983E+03  0.22271206070E+03  0.00000000000E+00 0.  1.
</event>
<event>
 4    1  0.5784609E+003  0.2080063E+02  0.7546771E-02  0.1522131E+00
          2   -1    0    0  501    0  0.00000000000E+00  0.00000000000E+00  0.33744742971E+01  0.33744742971E+01  0.00000000000E+00 0. -1.
         -2   -1    0    0    0  501 -0.00000000000E+00 -0.00000000000E+00 -0.31999167922E+03  0.31999167922E+03  0.00000000000E+00 0. -1.
          2    1    1    2  502    0 -0.20793871869E+02  0.53002536874E+00 -0.33141413740E+02  0.39128242216E+02  0.00000000000E+00 0. -1.
         -2    1    1    2    0  502  0.20793871869E+02 -0.53002536874E+00 -0.28347579118E+03  0.28423791130E+03  0.00000000000E+00 0. -1.
</event>
<event>
 4    1  0.5784609E+003  0.6036824E+02  0.7546771E-02  0.1258587E+00
          2   -1    0    0  501    0  0.00000000000E+00  0.00000000000E+00  0.15484299998E+04  0.15484299998E+04  0.00000000000E+00 0. -1.
         -2   -1    0    0    0  501 -0.00000000000E+00 -0.00000000000E+00 -0.19204692087E+02  0.19204692087E+02  0.00000000000E+00 0. -1.
          2    1    1    2  502    0 -0.58243981033E+02 -0.15873331627E+02  0.14988318391E+04  0.15000470679E+04  0.00000000000E+00 0. -1.
         -2    1    1    2    0  502  0.58243981033E+02  0.15873331627E+02  0.30393468615E+02  0.67587624000E+02  0.00000000000E+00 0. -1.
</event>
<event>
 4    1  0.5784609E+003  0.2168523E+02  0.7546771E-02  0.1509702E+00
          2   -1    0    0  501    0  0.00000000000E+00  0.00000000000E+00  0.33767128294E+03  0.33767128294E+03  0.00000000000E+00 0.  1.
         -2   -1    0    0    0  501 -0.00000000000E+00 -0.00000000000E+00 -0.78211521619E+01  0.78211521619E+01  0.00000000000E+00 0. -1.
          2    1    1    2  502    0  0.46944224193E+01  0.21171006979E+02  0.32153847840E+03  0.32226889740E+03  0.00000000000E+00 0.  1.
         -2    1    1    2    0  502 -0.46944224193E+01 -0.21171006979E+02  0.83116523827E+01  0.23223537708E+02  0.00000000000E+00 0. -1.
</event>
<event>
 4    1  0.5784609E+003  0.2102597E+02  0.7546771E-02  0.1518894E+00
          2   -1    0    0  501    0  0.00000000000E+00  0.00000000000E+00  0.18623745626E+03  0.18623745626E+03  0.00000000000E+00 0. -1.
         -2   -1    0    0    0  501 -0.00000000000E+00 -0.00000000000E+00 -0.79217542856E+01  0.79217542856E+01  0.00000000000E+00 0.  1.
          2    1    1    2  502    0 -0.21023225193E+02  0.34001537564E+00  0.17040039543E+03  0.17169270913E+03  0.00000000000E+00 0. -1.
         -2    1    1    2    0  502  0.21023225193E+02 -0.34001537564E+00  0.79153065472E+01  0.22466501412E+02  0.00000000000E+00 0.  1.
</event>
<event>
 4    1  0.5784609E+003  0.3805602E+02  0.7546771E-02  0.1360270E+00
          2   -1    0    0  501    0  0.00000000000E+00  0.00000000000E+00  0.67921121922E+03  0.67921121922E+03  0.00000000000E+00 0. -1.
         -2   -1    0    0    0  501 -0.00000000000E+00 -0.00000000000E+00 -0.27654485339E+01  0.27654485339E+01  0.00000000000E+00 0.  1.
          2    1    1    2  502    0  0.35589449105E+02  0.13477818467E+02  0.50138541960E+03  0.50282760413E+03  0.00000000000E+00 0. -1.
         -2    1    1    2    0  502 -0.35589449105E+02 -0.13477818467E+02  0.17506035109E+03  0.17914906363E+03  0.00000000000E+00 0.  1.
</event>
<event>
 4    1  0.5784609E+003  0.2050272E+02  0.7546771E-02  0.1526485E+00
          2   -1    0    0  501    0  0.00000000000E+00  0.00000000000E+00  0.58611592286E+03  0.58611592286E+03  0.00000000000E+00 0.  1.
         -2   -1    0    0    0  501 -0.00000000000E+00 -0.00000000000E+00 -0.33336281758E+01  0.33336281758E+01  0.00000000000E+00 0.  1.
          2    1    1    2  502    0 -0.85492513322E+01  0.18635225598E+02  0.55249460199E+03  0.55287489232E+03  0.00000000000E+00 0.  1.
         -2    1    1    2    0  502  0.85492513322E+01 -0.18635225598E+02  0.30287692702E+02  0.36574658722E+02  0.00000000000E+00 0.  1.
</event>
<event>
 4    1  0.5784609E+003  0.2366976E+02  0.7546771E-02  0.1484255E+00
          2   -1    0    0  501    0  0.00000000000E+00  0.00000000000E+00  0.24435504374E+02  0.24435504374E+02  0.00000000000E+00 0.  1.
         -2   -1    0    0    0  501 -0.00000000000E+00 -0.00000000000E+00 -0.58510711918E+02  0.58510711918E+02  0.00000000000E+00 0. -1.
          2    1    1    2  502    0  0.23314869175E+02  0.40834111515E+01  0.15304508739E+02  0.28186616665E+02  0.00000000000E+00 0.  1.
         -2    1    1    2    0  502 -0.23314869175E+02 -0.40834111515E+01 -0.49379716283E+02  0.54759599628E+02  0.00000000000E+00 0. -1.
</event>
<event>
 4    1  0.5784609E+003  0.2657299E+02  0.7546771E-02  0.1451945E+00
          2   -1    0    0  501    0  0.00000000000E+00  0.00000000000E+00  0.10113393919E+03  0.10113393919E+03  0.00000000000E+00 0. -1.
         -2   -1    0    0    0  501 -0.00000000000E+00 -0.00000000000E+00 -0.12633292686E+02  0.12633292686E+02  0.00000000000E+00 0.  1.
          2    1    1    2  502    0  0.26572471000E+02  0.16579658773E+00  0.82295563584E+02  0.86479381874E+02  0.00000000000E+00 0. -1.
         -2    1    1    2    0  502 -0.26572471000E+02 -0.16579658773E+00  0.62050829166E+01  0.27287849999E+02  0.00000000000E+00 0.  1.
</event>
<event>
 4    1  0.5784609E+003  0.2044433E+02  0.7546771E-02  0.1527348E+00
          2   -1    0    0  501    0  0.00000000000E+00  0.00000000000E+00  0.16825038052E+04  0.16825038052E+04  0.00000000000E+00 0. -1.
         -2   -1    0    0    0  501 -0.00000000000E+00 -0.00000000000E+00 -0.48989799780E+00  0.48989799780E+00  0.00000000000E+00 0.  1.
          2    1    1    2  502    0 -0.19677684278E+02  0.55461041066E+01  0.14318020448E+04  0.14319479969E+04  0.00000000000E+00 0. -1.
         -2    1    1    2    0  502  0.19677684278E+02 -0.55461041066E+01  0.25021186241E+03  0.25104570624E+03  0.00000000000E+00 0.  1.
</event>
<event>
 4    1  0.5784609E+003  0.2503695E+02  0.7546771E-02  0.1468390E+00
          2   -1    0    0  501    0  0.00000000000E+00  0.00000000000E+00  0.39380615949E+02  0.39380615949E+02  0.00000000000E+00 0. -1.
         -2   -1    0    0    0  501 -0.00000000000E+00 -0.00000000000E+00 -0.22129006698E+03  0.22129006698E+03  0.00000000000E+00 0.  1.
          2    1    1    2  502    0  0.14156014458E+02  0.20650810317E+02  0.34605544624E+02  0.42712907075E+02  0.00000000000E+00 0. -1.
         -2    1    1    2    0  502 -0.14156014458E+02 -0.20650810317E+02 -0.21651499565E+03  0.21795777585E+03  0.00000000000E+00 0.  1.
</event>
<event>
 4    1  0.5784609E+003  0.2936641E+02  0.7546771E-02  0.1425183E+00
          2   -1    0    0  501    0  0.00000000000E+00  0.00000000000E+00  0.14578171377E+04  0.14578171377E+04  0.00000000000E+00 0. -1.
         -2   -1    0    0    0  501 -0.00000000000E+00 -0.00000000000E+00 -0.27350024779E+01  0.27350024779E+01  0.00000000000E+00 0.  1.
          2    1    1    2  502    0  0.13201750726E+02 -0.26231654114E+02  0.13740345524E+04  0.13743483318E+04  0.00000000000E+00 0. -1.
         -2    1    1    2    0  502 -0.13201750726E+02  0.26231654114E+02  0.81047582842E+02  0.86203808409E+02  0.00000000000E+00 0.  1.
</event>
<event>
 4    1  0.5784609E+003  0.2590096E+02  0.7546771E-02  0.1458972E+00
          2   -1    0    0  501    0  0.00000000000E+00  0.00000000000E+00  0.28008467036E+02  0.28008467036E+02  0.00000000000E+00 0.  1.
         -2   -1    0    0    0  501 -0.00000000000E+00 -0.00000000000E+00 -0.71167645940E+03  0.71167645940E+03  0.00000000000E+00 0. -1.
          2    1    1    2  502    0 -0.14690378986E+02 -0.21331964309E+02  0.21731529226E+02  0.33810047301E+02  0.00000000000E+00 0.  1.
         -2    1    1    2    0  502  0.14690378986E+02  0.21331964309E+02 -0.70539952159E+03  0.70587487913E+03  0.00000000000E+00 0. -1.
</event>
<event>
 4    1  0.5784609E+003  0.3233357E+02  0.7546771E-02  0.1400345E+00
          2   -1    0    0  501    0  0.00000000000E+00  0.00000000000E+00  0.18863727635E+04  0.18863727635E+04  0.00000000000E+00 0. -1.
         -2   -1    0    0    0  501 -0.00000000000E+00 -0.00000000000E+00 -0.17765923395E+02  0.17765923395E+02  0.00000000000E+00 0. -1.
          2    1    1    2  502    0 -0.31224382407E+02  0.83962866986E+01  0.18714049657E+04  0.18716842697E+04  0.00000000000E+00 0. -1.
         -2    1    1    2    0  502  0.31224382407E+02 -0.83962866986E+01 -0.27981256442E+01  0.32454417174E+02  0.00000000000E+00 0. -1.
</event>
<event>
 4    1  0.5784609E+003  0.2302238E+02  0.7546771E-02  0.1492217E+00
          2   -1    0    0  501    0  0.00000000000E+00  0.00000000000E+00  0.43027690532E+03  0.43027690532E+03  0.00000000000E+00 0.  1.
         -2   -1    0    0    0  501 -0.00000000000E+00 -0.00000000000E+00 -0.14082916491E+01  0.14082916491E+01  0.00000000000E+00 0. -1.
          2    1    1    2  502    0 -0.13102492249E+02 -0.18930254909E+02  0.29083736174E+03  0.29174715223E+03  0.00000000000E+00 0.  1.
         -2    1    1    2    0  502  0.13102492249E+02  0.18930254909E+02  0.13803125193E+03  0.13993804473E+03  0.00000000000E+00 0. -1.
</event>
<event>
 4    1  0.5784609E+003  0.2002873E+02  0.7546771E-02  0.1533597E+00
          2   -1    0    0  501    0  0.00000000000E+00  0.00000000000E+00  0.11550556371E+04  0.11550556371E+04  0.00000000000E+00 0.  1.
         -2   -1    0    0    0  501 -0.00000000000E+00 -0.00000000000E+00 -0.86969778852E+01  0.86969778852E+01  0.00000000000E+00 0.  1.
          2    1    1    2  502    0  0.18988707086E+02 -0.63701756720E+01  0.11433191408E+04  0.11434945596E+04  0.00000000000E+00 0.  1.
         -2    1    1    2    0  502 -0.18988707086E+02  0.63701756720E+01  0.30395183984E+01  0.20258055360E+02  0.00000000000E+00 0.  1.
</event>
<event>
 4    1  0.5784609E+003  0.3319749E+02  0.7546771E-02  0.1393698E+00
          2   -1    0    0  501    0  0.00000000000E+00  0.00000000000E+00  0.82371368938E+03  0.82371368938E+03  0.00000000000E+00 0. -1.
         -2   -1    0    0    0  501 -0.00000000000E+00 -0.00000000000E+00 -0.84025975296E+01  0.84025975296E+01  0.00000000000E+00 0. -1.
          2    1    1    2  502    0 -0.25088856952E+02 -0.21739883217E+02  0.78915422186E+03  0.78985217550E+03  0.00000000000E+00 0. -1.
         -2    1    1    2    0  502  0.25088856952E+02  0.21739883217E+02  0.26156869991E+02  0.42264111409E+02  0.00000000000E+00 0. -1.
</event>
<event>
 4    1  0.5784609E+003  0.2355697E+02  0.7546771E-02  0.1485620E+00
          2   -1    0    0  501    0  0.00000000000E+00  0.00000000000E+00  0.47952706622E+03  0.47952706622E+03  0.00000000000E+00 0. -1.
         -2   -1    0    0    0  501 -0.00000000000E+00 -0.00000000000E+00 -0.27090974930E+01  0.27090974930E+01  0.00000000000E+00 0. -1.
          2    1    1    2  502    0  0.20517749416E+02 -0.11573796729E+02  0.42090043884E+03  0.42155914203E+03  0.00000000000E+00 0. -1.
         -2    1    1    2    0  502 -0.20517749416E+02  0.11573796729E+02  0.55917529881E+02  0.60677021679E+02  0.00000000000E+00 0. -1.
</event>
<event>
 4    1  0.5784609E+003  0.1131133E+03  0.7546771E-02  0.1142841E+00
          2   -1    0    0  501    0  0.00000000000E+00  0.00000000000E+00  0.35302882352E+03  0.35302882352E+03  0.00000000000E+00 0.  1.
         -2   -1    0    0    0  501 -0.00000000000E+00 -0.00000000000E+00 -0.14899573055E+03  0.14899573055E+03  0.00000000000E+00 0. -1.
          2    1    1    2  502    0 -0.13923005352E+02  0.11225310065E+03  0.32037638182E+03  0.33975820037E+03  0.00000000000E+00 0.  1.
         -2    1    1    2    0  502  0.13923005352E+02 -0.11225310065E+03 -0.11634328885E+03  0.16226635370E+03  0.00000000000E+00 0. -1.
</event>
<event>
 4    1  0.5784609E+003  0.2042019E+02  0.7546771E-02  0.1527706E+00
          2   -1    0    0  501    0  0.00000000000E+00  0.00000000000E+00  0.51201850243E+03  0.51201850243E+03  0.00000000000E+00 0.  1.
         -2   -1    0    0    0  501 -0.00000000000E+00 -0.00000000000E+00 -0.13382325812E+01  0.13382325812E+01  0.00000000000E+00 0.  1.
          2    1    1    2  502    0  0.20544158264E+01 -0.20316581751E+02  0.41593171026E+03  0.41643267369E+03  0.00000000000E+00 0.  1.
         -2    1    1    2    0  502 -0.20544158264E+01  0.20316581751E+02  0.94748559582E+02  0.96924061312E+02  0.00000000000E+00 0.  1.
</event>
<event>
 4    1  0.5784609E+003  0.2414865E+02  0.7546771E-02  0.1478557E+00
          2   -1    0    0  501    0  0.00000000000E+00  0.00000000000E+00  0.11739176724E+04  0.11739176724E+04  0.00000000000E+00 0. -1.
         -2   -1    0    0    0  501 -0.00000000000E+00 -0.00000000000E+00 -0.14316447690E+01  0.14316447690E+01  0.00000000000E+00 0. -1.
          2    1    1    2  502    0  0.34448357293E+00  0.24146190599E+02  0.10611384601E+04  0.10614132035E+04  0.00000000000E+00 0. -1.
         -2    1    1    2    0  502 -0.34448357293E+00 -0.24146190599E+02  0.11134756759E+03  0.11393611366E+03  0.00000000000E+00 0. -1.
</event>
<event>
 4    1  0.5784609E+003  0.2505820E+02  0.7546771E-02  0.1468153E+00
          2   -1    0    0  501    0  0.00000000000E+00  0.00000000000E+00  0.56811504198E+03  0.56811504198E+03  0.00000000000E+00 0.  1.
         -2   -1    0    0    0  501 -0.00000000000E+00 -0.00000000000E+00 -0.53923137346E+01  0.53923137346E+01  0.00000000000E+00 0.  1.
          2    1    1    2  502    0  0.24858490842E+02  0.31573740139E+01  0.53704385934E+03  0.53762814327E+03  0.00000000000E+00 0.  1.
         -2    1    1    2    0  502 -0.24858490842E+02 -0.31573740139E+01  0.25678868904E+02  0.35879212447E+02  0.00000000000E+00 0.  1.
</event>
<event>
 4    1  0.5784609E+003  0.2166637E+02  0.7546771E-02  0.1509960E+00
          2   -1    0    0  501    0  0.00000000000E+00  0.00000000000E+00  0.15169604261E+03  0.15169604261E+03  0.00000000000E+00 0.  1.
         -2   -1    0    0    0  501 -0.00000000000E+00 -0.00000000000E+00 -0.20978454613E+03  0.20978454613E+03  0.00000000000E+00 0. -1.
          2    1    1    2  502    0 -0.21590069214E+02 -0.18167469108E+01  0.15035803022E+03  0.15191105592E+03  0.00000000000E+00 0.  1.
         -2    1    1    2    0  502  0.21590069214E+02  0.18167469108E+01 -0.20844653375E+03  0.20956953283E+03  0.00000000000E+00 0. -1.
</event>
<event>
 4    1  0.5784609E+003  0.2962455E+02  0.7546771E-02  0.1422888E+00
          2   -1    0    0  501    0  0.00000000000E+00  0.00000000000E+00  0.50355268361E+03  0.50355268361E+03  0.00000000000E+00 0. -1.
         -2   -1    0    0    0  501 -0.00000000000E+00 -0.00000000000E+00 -0.26494500613E+01  0.26494500613E+01  0.00000000000E+00 0.  1.
          2    1    1    2  502    0 -0.27966275521E+02  0.97724864724E+01  0.39850736734E+03  0.39960697676E+03  0.00000000000E+00 0. -1.
         -2    1    1    2    0  502  0.27966275521E+02 -0.97724864724E+01  0.10239586621E+03  0.10659515691E+03  0.00000000000E+00 0.  1.
</event>
<event>
 4    1  0.5784609E+003  0.2567823E+02  0.7546771E-02  0.1461357E+00
          2   -1    0    0  501    0  0.00000000000E+00  0.00000000000E+00  0.17202001845E+03  0.17202001845E+03  0.00000000000E+00 0. -1.
         -2   -1    0    0    0  501 -0.00000000000E+00 -0.00000000000E+00 -0.57270101593E+01  0.57270101593E+01  0.00000000000E+00 0. -1.
          2    1    1    2  502    0 -0.22218149059E+02  0.12873443625E+02  0.13425426889E+03  0.13668789417E+03  0.00000000000E+00 0. -1.
         -2    1    1    2    0  502  0.22218149059E+02 -0.12873443625E+02  0.32038739408E+02  0.41059134443E+02  0.00000000000E+00 0. -1.
</event>
<event>
 4    1  0.5784609E+003  0.5543391E+02  0.7546771E-02  0.1276189E+00
          2   -1    0    0  501    0  0.00000000000E+00  0.00000000000E+00  0.95906426189E+02  0.95906426189E+02  0.00000000000E+00 0. -1.
         -2   -1    0    0    0  501 -0.00000000000E+00 -0.00000000000E+00 -0.38968619857E+02  0.38968619857E+02  0.00000000000E+00 0. -1.
          2    1    1    2  502    0  0.70695834853E+01 -0.54981263290E+02  0.56903199683E+02  0.79441125733E+02  0.00000000000E+00 0. -1.
         -2    1    1    2    0  502 -0.70695834853E+01  0.54981263290E+02  0.34606649352E-01  0.55433920313E+02  0.00000000000E+00 0. -1.
</event>
<event>
 4    1  0.5784609E+003  0.2362700E+02  0.7546771E-02  0.1484771E+00
          2   -1    0    0  501    0  0.00000000000E+00  0.00000000000E+00  0.31507508383E+03  0.31507508383E+03  0.00000000000E+00 0. -1.
         -2   -1    0    0    0  501 -0.00000000000E+00 -0.00000000000E+00 -0.44516387032E+01  0.44516387032E+01  0.00000000000E+00 0. -1.
          2    1    1    2  502    0 -0.22896928582E+02  0.58280085775E+01  0.27926996854E+03  0.28026764057E+03  0.00000000000E+00 0. -1.
         -2    1    1    2    0  502  0.22896928582E+02 -0.58280085775E+01  0.31353476586E+02  0.39259081962E+02  0.00000000000E+00 0. -1.
</event>
<event>
 4    1  0.5784609E+003  0.4364646E+02  0.7546771E-02  0.1328348E+00
          2   -1    0    0  501    0  0.00000000000E+00  0.00000000000E+00  0.17748222250E+03  0.17748222250E+03  0.00000000000E+00 0.  1.
         -2   -1    0    0    0  501 -0.00000000000E+00 -0.00000000000E+00 -0.11159098656E+02  0.11159098656E+02  0.00000000000E+00 0.  1.
          2    1    1    2  502    0 -0.43554443213E+02 -0.28323270784E+01  0.64742196019E+02  0.78080494015E+02  0.00000000000E+00 0.  1.
         -2    1    1    2    0  502  0.43554443213E+02  0.28323270784E+01  0.10158092782E+03  0.11056082714E+03  0.00000000000E+00 0.  1.
</event>
<event>
 4    1  0.5784609E+003  0.3428380E+02  0.7546771E-02  0.1385669E+00
          2   -1    0    0  501    0  0.00000000000E+00  0.00000000000E+00  0.35999211294E+03  0.35999211294E+03  0.00000000000E+00 0.  1.
         -2   -1    0    0    0  501 -0.00000000000E+00 -0.00000000000E+00 -0.80419636206E+01  0.80419636206E+01  0.00000000000E+00 0.  1.
          2    1    1    2  502    0 -0.70994747772E+01 -0.33540663807E+02  0.31779994429E+03  0.31964383814E+03  0.00000000000E+00 0.  1.
         -2    1    1    2    0  502  0.70994747772E+01  0.33540663807E+02  0.34150205028E+02  0.48390238418E+02  0.00000000000E+00 0.  1.
</event>
<event>
 4    1  0.5784609E+003  0.2596433E+02  0.7546771E-02  0.1458298E+00
          2   -1    0    0  501    0  0.00000000000E+00  0.00000000000E+00  0.21565286041E+03  0.21565286041E+03  0.00000000000E+00 0.  1.
         -2   -1    0    0    0  501 -0.00000000000E+00 -0.00000000000E+00 -0.85358201924E+01  0.85358201924E+01  0.00000000000E+00 0. -1.
          2    1    1    2  502    0  0.24159056459E+02 -0.95124445658E+01  0.19279646016E+03  0.19453694163E+03  0.00000000000E+00 0.  1.
         -2    1    1    2    0  502 -0.24159056459E+02  0.95124445658E+01  0.14320580058E+02  0.29651738967E+02  0.00000000000E+00 0. -1.
</event>
<event>
 4    1  0.5784609E+003  0.2993474E+02  0.7546771E-02  0.1420165E+00
          2   -1    0    0  501    0  0.00000000000E+00  0.00000000000E+00  0.13457741971E+04  0.13457741971E+04  0.00000000000E+00 0. -1.
         -2   -1    0    0    0  501 -0.00000000000E+00 -0.00000000000E+00 -0.93788993626E+01  0.93788993626E+01  0.00000000000E+00 0. -1.
          2    1    1    2  502    0  0.22308551532E+02  0.19960391247E+02  0.13212792126E+04  0.13216182680E+04  0.00000000000E+00 0. -1.
         -2    1    1    2    0  502 -0.22308551532E+02 -0.19960391247E+02  0.15116085157E+02  0.33534828472E+02  0.00000000000E+00 0. -1.
</event>
<event>
 4    1  0.5784609E+003  0.2305611E+02  0.7546771E-02  0.1491795E+00
          2   -1    0    0  501    0  0.00000000000E+00  0.00000000000E+00  0.50687899904E+03  0.50687899904E+03  0.00000000000E+00 0. -1.
         -2   -1    0    0    0  501 -0.00000000000E+00 -0.00000000000E+00 -0.16649105982E+02  0.16649105982E+02  0.00000000000E+00 0. -1.
          2    1    1    2  502    0  0.12813960561E+02 -0.19167336595E+02  0.49850055083E+03  0.49903344933E+03  0.00000000000E+00 0. -1.
         -2    1    1    2    0  502 -0.12813960561E+02  0.19167336595E+02 -0.82706577691E+01  0.24494655689E+02  0.00000000000E+00 0. -1.
</event>
<event>
 4    1  0.5784609E+003  0.2126623E+02  0.7546771E-02  0.1515498E+00
          2   -1    0    0  501    0  0.00000000000E+00  0.00000000000E+00  0.68670795686E+03  0.68670795686E+03  0.00000000000E+00 0.  1.
         -2   -1    0    0    0  501 -0.00000000000E+00 -0.00000000000E+00 -0.15439849707E+02  0.15439849707E+02  0.00000000000E+00 0. -1.
          2    1    1    2  502    0  0.18914194486E+02 -0.97214007616E+01  0.67913890785E+03  0.67947178642E+03  0.00000000000E+00 0.  1.
         -2    1    1    2    0  502 -0.18914194486E+02  0.97214007616E+01 -0.78708007005E+01  0.22676020143E+02  0.00000000000E+00 0. -1.
</event>
<event>
 4    1  0.5784609E+003  0.2031999E+02  0.7546771E-02  0.1529199E+00
          2   -1    0    0  501    0  0.00000000000E+00  0.00000000000E+00  0.49278218083E+03  0.49278218083E+03  0.00000000000E+00 0. -1.
         -2   -1    0    0    0  501 -0.00000000000E+00 -0.00000000000E+00 -0.92036159836E+00  0.92036159836E+00  0.00000000000E+00 0. -1.
          2    1    1    2  502    0 -0.13310193366E+01  0.20276353847E+02  0.31982033220E+03  0.32046520408E+03  0.00000000000E+00 0. -1.
         -2    1    1    2    0  502  0.13310193366E+01 -0.20276353847E+02  0.17204148704E+03  0.17323733835E+03  0.00000000000E+00 0. -1.
</event>
<event>
 4    1  0.5784609E+003  0.2306053E+02  0.7546771E-02  0.1491740E+00
          2   -1    0    0  501    0  0.00000000000E+00  0.00000000000E+00  0.45029656055E+02  0.45029656055E+02  0.00000000000E+00 0.  1.
         -2   -1    0    0    0  501 -0.00000000000E+00 -0.00000000000E+00 -0.81321740827E+02  0.81321740827E+02  0.00000000000E+00 0.  1.
          2    1    1    2  502    0  0.13982120984E+02 -0.18338161341E+02  0.40262539110E+02  0.46398921584E+02  0.00000000000E+00 0.  1.
         -2    1    1    2    0  502 -0.13982120984E+02  0.18338161341E+02 -0.76554623882E+02  0.79952475298E+02  0.00000000000E+00 0.  1.
</event>
<event>
 4    1  0.5784609E+003  0.3169359E+02  0.7546771E-02  0.1405429E+00
          2   -1    0    0  501    0  0.00000000000E+00  0.00000000000E+00  0.11774714855E+04  0.11774714855E+04  0.00000000000E+00 0. -1.
         -2   -1    0    0    0  501 -0.00000000000E+00 -0.00000000000E+00 -0.86006614624E+00  0.86006614624E+00  0.00000000000E+00 0.  1.
          2    1    1    2  502    0  0.29854180762E+02  0.10640058403E+02  0.53522421392E+03  0.53616176861E+03  0.00000000000E+00 0. -1.
         -2    1    1    2    0  502 -0.29854180762E+02 -0.10640058403E+02  0.64138720543E+03  0.64216978303E+03  0.00000000000E+00 0.  1.
</event>
<event>
 4    1  0.5784609E+003  0.2171524E+02  0.7546771E-02  0.1509293E+00
          2   -1    0    0  501    0  0.00000000000E+00  0.00000000000E+00  0.13173643505E+04  0.13173643505E+04  0.00000000000E+00 0. -1.
         -2   -1    0    0    0  501 -0.00000000000E+00 -0.00000000000E+00 -0.92325524140E+01  0.92325524140E+01  0.00000000000E+00 0.  1.
          2    1    1    2  502    0 -0.32955421726E+01 -0.21463718355E+02  0.13043790286E+04  0.13045597733E+04  0.00000000000E+00 0. -1.
         -2    1    1    2    0  502  0.32955421726E+01  0.21463718355E+02  0.37527694877E+01  0.22037129638E+02  0.00000000000E+00 0.  1.
</event>
<event>
 4    1  0.5784609E+003  0.2238866E+02  0.7546771E-02  0.1500321E+00
          2   -1    0    0  501    0  0.00000000000E+00  0.00000000000E+00  0.56222011424E+03  0.56222011424E+03  0.00000000000E+00 0.  1.
         -2   -1    0    0    0  501 -0.00000000000E+00 -0.00000000000E+00 -0.25893555125E+02  0.25893555125E+02  0.00000000000E+00 0.  1.
          2    1    1    2  502    0  0.11347814375E+01  0.22359881551E+02  0.55711333655E+03  0.55756302047E+03  0.00000000000E+00 0.  1.
         -2    1    1    2    0  502 -0.11347814375E+01 -0.22359881551E+02 -0.20786777435E+02  0.30550648897E+02  0.00000000000E+00 0.  1.
</event>
<event>
 4    1  0.5784609E+003  0.4697299E+02  0.7546771E-02  0.1311858E+00
          2   -1    0    0  501    0  0.00000000000E+00  0.00000000000E+00  0.12516097894E+04  0.12516097894E+04  0.00000000000E+00 0. -1.
         -2   -1    0    0    0  501 -0.00000000000E+00 -0.00000000000E+00 -0.34720994231E+01  0.34720994231E+01  0.00000000000E+00 0. -1.
          2    1    1    2  502    0  0.45009941032E+02 -0.13437506856E+02  0.10643625874E+04  0.10653986010E+04  0.00000000000E+00 0. -1.
         -2    1    1    2    0  502 -0.45009941032E+02  0.13437506856E+02  0.18377510250E+03  0.18968328783E+03  0.00000000000E+00 0. -1.
</event>
<event>
 4    1  0.5784609E+003  0.2280326E+02  0.7546771E-02  0.1494984E+00
          2   -1    0    0  501    0  0.00000000000E+00  0.00000000000E+00  0.32755967203E+02  0.32755967203E+02  0.00000000000E+00 0.  1.
         -2   -1    0    0    0  501 -0.00000000000E+00 -0.00000000000E+00 -0.20796828617E+02  0.20796828617E+02  0.00000000000E+00 0.  1.
          2    1    1    2  502    0 -0.12321124259E+02  0.19187977032E+02  0.19006243744E+02  0.29685448739E+02  0.00000000000E+00 0.  1.
         -2    1    1    2    0  502  0.12321124259E+02 -0.19187977032E+02 -0.70471051576E+01  0.23867347081E+02  0.00000000000E+00 0.  1.
</event>
<event>
 4    1  0.5784609E+003  0.2736880E+02  0.7546771E-02  0.1443938E+00
          2   -1    0    0  501    0  0.00000000000E+00  0.00000000000E+00  0.16977215760E+03  0.16977215760E+03  0.00000000000E+00 0. -1.
         -2   -1    0    0    0  501 -0.00000000000E+00 -0.00000000000E+00 -0.54479520470E+01  0.54479520470E+01  0.00000000000E+00 0.  1.
          2    1    1    2  502    0 -0.13022361023E+02  0.24072172789E+02  0.12036414735E+03  0.12343653979E+03  0.00000000000E+00 0. -1.
         -2    1    1    2    0  502  0.13022361023E+02 -0.24072172789E+02  0.43960058210E+02  0.51783569858E+02  0.00000000000E+00 0.  1.
</event>
<event>
 4    1  0.5784609E+003  0.2078328E+02  0.7546771E-02  0.1522382E+00
          2   -1    0    0  501    0  0.00000000000E+00  0.00000000000E+00  0.68778287915E+01  0.68778287915E+01  0.00000000000E+00 0. -1.
         -2   -1    0    0    0  501 -0.00000000000E+00 -0.00000000000E+00 -0.30211522654E+03  0.30211522654E+03  0.00000000000E+00 0.  1.
          2    1    1    2  502    0  0.18212160362E+02  0.10013083680E+02 -0.10114695890E+02  0.23113885497E+02  0.00000000000E+00 0. -1.
         -2    1    1    2    0  502 -0.18212160362E+02 -0.10013083680E+02 -0.28512270186E+03  0.28587916984E+03  0.00000000000E+00 0.  1.
</event>
<event>
 4    1  0.5784609E+003  0.3916871E+02  0.7546771E-02  0.1353427E+00
          2   -1    0    0  501    0  0.00000000000E+00  0.00000000000E+00  0.23269719909E+03  0.23269719909E+03  0.00000000000E+00 0.  1.
         -2   -1    0    0    0  501 -0.00000000000E+00 -0.00000000000E+00 -0.36320310275E+03  0.36320310275E+03  0.00000000000E+00 0. -1.
          2    1    1    2  502    0 -0.22307477748E+02 -0.32195719747E+02  0.22998053518E+03  0.23329216553E+03  0.00000000000E+00 0.  1.
         -2    1    1    2    0  502  0.22307477748E+02  0.32195719747E+02 -0.36048643884E+03  0.36260813631E+03  0.00000000000E+00 0. -1.
</event>
<event>
 4    1  0.5784609E+003  0.2616449E+02  0.7546771E-02  0.1456186E+00
          2   -1    0    0  501    0  0.00000000000E+00  0.00000000000E+00  0.11281916144E+04  0.11281916144E+04  0.00000000000E+00 0.  1.
         -2   -1    0    0    0  501 -0.00000000000E+00 -0.00000000000E+00 -0.34998336423E+01  0.34998336423E+01  0.00000000000E+00 0.  1.
          2    1    1    2  502    0 -0.25961909468E+02  0.32495571692E+01  0.10768057551E+04  0.10771235837E+04  0.00000000000E+00 0.  1.
         -2    1    1    2    0  502  0.25961909468E+02 -0.32495571692E+01  0.47886025684E+02  0.54567864360E+02  0.00000000000E+00 0.  1.
</event>
<event>
 4    1  0.5784609E+003  0.2716887E+02  0.7546771E-02  0.1445919E+00
          2   -1    0    0  501    0  0.00000000000E+00  0.00000000000E+00  0.42312698289E+03  0.42312698289E+03  0.00000000000E+00 0. -1.
         -2   -1    0    0    0  501 -0.00000000000E+00 -0.00000000000E+00 -0.13764008561E+03  0.13764008561E+03  0.00000000000E+00 0. -1.
          2    1    1    2  502    0 -0.20438512438E+02  0.17900131736E+02  0.42134446989E+03  0.42221950430E+03  0.00000000000E+00 0. -1.
         -2    1    1    2    0  502  0.20438512438E+02 -0.17900131736E+02 -0.13585757261E+03  0.13854756419E+03  0.00000000000E+00 0. -1.
</event>
<event>
 4    1  0.5784609E+003  0.3206971E+02  0.7546771E-02  0.1402424E+00
          2   -1    0    0  501    0  0.00000000000E+00  0.00000000000E+00  0.56941414002E+02  0.56941414002E+02  0.00000000000E+00 0.  1.
         -2   -1    0    0    0  501 -0.00000000000E+00 -0.00000000000E+00 -0.10646189479E+03  0.10646189479E+03  0.00000000000E+00 0.  1.
          2    1    1    2  502    0 -0.31731081351E+02 -0.46480696429E+01  0.49688962028E+02  0.59139318753E+02  0.00000000000E+00 0.  1.
         -2    1    1    2    0  502  0.31731081351E+02  0.46480696429E+01 -0.99209442821E+02  0.10426399004E+03  0.00000000000E+00 0.  1.
</event>
<event>
 4    1  0.5784609E+003  0.2020047E+02  0.7546771E-02  0.1530993E+00
          2   -1    0    0  501    0  0.00000000000E+00  0.00000000000E+00  0.42343675521E+01  0.42343675521E+01  0.00000000000E+00 0.  1.
         -2   -1    0    0    0  501 -0.00000000000E+00 -0.00000000000E+00 -0.10734633477E+03  0.10734633477E+03  0.00000000000E+00 0.  1.
          2    1    1    2  502    0 -0.19665723156E+02  0.46171649189E+01 -0.33714645314E+02  0.39303132035E+02  0.00000000000E+00 0.  1.
         -2    1    1    2    0  502  0.19665723156E+02 -0.46171649189E+01 -0.69397321900E+02  0.72277570283E+02  0.00000000000E+00 0.  1.
</event>
<event>
 4    1  0.5784609E+003  0.3344074E+02  0.7546771E-02  0.1391869E+00
          2   -1    0    0  501    0  0.00000000000E+00  0.00000000000E+00  0.12738261818E+02  0.12738261818E+02  0.00000000000E+00 0.  1.
         -2   -1    0    0    0  501 -0.00000000000E+00 -0.00000000000E+00 -0.18041593857E+03  0.18041593857E+03  0.00000000000E+00 0.  1.
          2    1    1    2  502    0 -0.33422032086E+02  0.11185203610E+01 -0.14639073303E+02  0.36504599488E+02  0.00000000000E+00 0.  1.
         -2    1    1    2    0  502  0.33422032086E+02 -0.11185203610E+01 -0.15303860345E+03  0.15664960090E+03  0.00000000000E+00 0.  1.
</event>
<event>
 4    1  0.5784609E+003  0.5836544E+02  0.7546771E-02  0.1265490E+00
          2   -1    0    0  501    0  0.00000000000E+00  0.00000000000E+00  0.20520175694E+04  0.20520175694E+04  0.00000000000E+00 0. -1.
         -2   -1    0    0    0  501 -0.00000000000E+00 -0.00000000000E+00 -0.30712953145E+01  0.30712953145E+01  0.00000000000E+00 0. -1.
          2    1    1    2  502    0  0.58062578613E+02 -0.59381794329E+01  0.17209963362E+04  0.17219857474E+04  0.00000000000E+00 0. -1.
         -2    1    1    2    0  502 -0.58062578613E+02  0.59381794329E+01  0.32794993786E+03  0.33310311730E+03  0.00000000000E+00 0. -1.
</event>
<event>
 4    1  0.5784609E+003  0.2118116E+02  0.7546771E-02  0.1516694E+00
          2   -1    0    0  501    0  0.00000000000E+00  0.00000000000E+00  0.49978480349E+03  0.49978480349E+03  0.00000000000E+00 0.  1.
         -2   -1    0    0    0  501 -0.00000000000E+00 -0.00000000000E+00 -0.59803288578E+02  0.59803288578E+02  0.00000000000E+00 0.  1.
          2    1    1    2  502    0 -0.80122867620E+01 -0.19607266237E+02  0.49767695733E+03  0.49812748919E+03  0.00000000000E+00 0.  1.
         -2    1    1    2    0  502  0.80122867620E+01  0.19607266237E+02 -0.57695442427E+02  0.61460602871E+02  0.00000000000E+00 0.  1.
</event>
<event>
 4    1  0.5784609E+003  0.2431028E+02  0.7546771E-02  0.1476669E+00
          2   -1    0    0  501    0  0.00000000000E+00  0.00000000000E+00  0.26788753008E+03  0.26788753008E+03  0.00000000000E+00 0. -1.
         -2   -1    0    0    0  501 -0.00000000000E+00 -0.00000000000E+00 -0.13536516752E+02  0.13536516752E+02  0.00000000000E+00 0.  1.
          2    1    1    2  502    0  0.20339418355E+02 -0.13315323454E+02  0.25591164162E+03  0.25706372380E+03  0.00000000000E+00 0. -1.
         -2    1    1    2    0  502 -0.20339418355E+02  0.13315323454E+02 -0.15606282881E+01  0.24360323035E+02  0.00000000000E+00 0.  1.
</event>
<event>
 4    1  0.5784609E+003  0.2176292E+02  0.7546771E-02  0.1508645E+00
          2   -1    0    0  501    0  0.00000000000E+00  0.00000000000E+00  0.73612748937E+02  0.73612748937E+02  0.00000000000E+00 0.  1.
         -2   -1    0    0    0  501 -0.00000000000E+00 -0.00000000000E+00 -0.53308146417E+03  0.53308146417E+03  0.00000000000E+00 0.  1.
          2    1    1    2  502    0 -0.21762580424E+02 -0.12199959630E+00  0.71776573956E+02  0.75003342322E+02  0.00000000000E+00 0.  1.
         -2    1    1    2    0  502  0.21762580424E+02  0.12199959630E+00 -0.53124528919E+03  0.53169087078E+03  0.00000000000E+00 0.  1.
</event>
<event>
 4    1  0.5784609E+003  0.3223608E+02  0.7546771E-02  0.1401110E+00
          2   -1    0    0  501    0  0.00000000000E+00  0.00000000000E+00  0.10919615292E+03  0.10919615292E+03  0.00000000000E+00 0. -1.
         -2   -1    0    0    0  501 -0.00000000000E+00 -0.00000000000E+00 -0.14119304245E+02  0.14119304245E+02  0.00000000000E+00 0. -1.
          2    1    1    2  502    0  0.24386635895E+02  0.21082140902E+02  0.82742451537E+02  0.88800213747E+02  0.00000000000E+00 0. -1.
         -2    1    1    2    0  502 -0.24386635895E+02 -0.21082140902E+02  0.12334397133E+02  0.34515243414E+02  0.00000000000E+00 0. -1.
</event>
<event>
 4    1  0.5784609E+003  0.2141335E+02  0.7546771E-02  0.1513444E+00
          2   -1    0    0  501    0  0.00000000000E+00  0.00000000000E+00  0.49227115237E+02  0.49227115237E+02  0.00000000000E+00 0.  1.
         -2   -1    0    0    0  501 -0.00000000000E+00 -0.00000000000E+00 -0.24625152147E+02  0.24625152147E+02  0.00000000000E+00 0.  1.
          2    1    1    2  502    0  0.54103944355E+01  0.20718569558E+02  0.41417512390E+02  0.46625549059E+02  0.00000000000E+00 0.  1.
         -2    1    1    2    0  502 -0.54103944355E+01 -0.20718569558E+02 -0.16815549300E+02  0.27226718325E+02  0.00000000000E+00 0.  1.
</event>
<event>
 4    1  0.5784609E+003  0.3660251E+02  0.7546771E-02  0.1369634E+00
          2   -1    0    0  501    0  0.00000000000E+00  0.00000000000E+00  0.16822382658E+04  0.16822382658E+04  0.00000000000E+00 0. -1.
         -2   -1    0    0    0  501 -0.00000000000E+00 -0.00000000000E+00 -0.31323364557E+01  0.31323364557E+01  0.00000000000E+00 0.  1.
          2    1    1    2  502    0 -0.32906421305E+02 -0.16028441063E+02  0.15672678104E+04  0.15676951659E+04  0.00000000000E+00 0. -1.
         -2    1    1    2    0  502  0.32906421305E+02  0.16028441063E+02  0.11183811892E+03  0.11767543639E+03  0.00000000000E+00 0.  1.
</event>
<event>
 4    1  0.5784609E+003  0.2214891E+02  0.7546771E-02  0.1503471E+00
          2   -1    0    0  501    0  0.00000000000E+00  0.00000000000E+00  0.35957262511E+02  0.35957262511E+02  0.00000000000E+00 0.  1.
         -2   -1    0    0    0  501 -0.00000000000E+00 -0.00000000000E+00 -0.61109498913E+02  0.61109498913E+02  0.00000000000E+00 0.  1.
          2    1    1    2  502    0 -0.13978550866E+02 -0.17180639088E+02  0.30197757014E+02  0.37449683209E+02  0.00000000000E+00 0.  1.
         -2    1    1    2    0  502  0.13978550866E+02  0.17180639088E+02 -0.55349993416E+02  0.59617078215E+02  0.00000000000E+00 0.  1.
</event>
<event>
 4    1  0.5784609E+003  0.2523773E+02  0.7546771E-02  0.1466161E+00
          2   -1    0    0  501    0  0.00000000000E+00  0.00000000000E+00  0.16272737549E+02  0.16272737549E+02  0.00000000000E+00 0. -1.
         -2   -1    0    0    0  501 -0.00000000000E+00 -0.00000000000E+00 -0.21781979569E+03  0.21781979569E+03  0.00000000000E+00 0. -1.
          2    1    1    2  502    0 -0.23747598385E+02  0.85436972750E+01  0.52359027399E+01  0.25775140536E+02  0.00000000000E+00 0. -1.
         -2    1    1    2    0  502  0.23747598385E+02 -0.85436972750E+01 -0.20678296088E+03  0.20831739270E+03  0.00000000000E+00 0. -1.
</event>
<event>
 4    1  0.5784609E+003  0.3299718E+02  0.7546771E-02  0.1395218E+00
          2   -1    0    0  501    0  0.00000000000E+00  0.00000000000E+00  0.15816945769E+03  0.15816945769E+03  0.00000000000E+00 0.  1.
         -2   -1    0    0    0  501 -0.00000000000E+00 -0.00000000000E+00 -0.11715648972E+03  0.11715648972E+03  0.00000000000E+00 0. -1.
          2    1    1    2  502    0  0.32995146675E+02 -0.36627153087E+00  0.15406385717E+03  0.15755788125E+03  0.00000000000E+00 0.  1.
         -2    1    1    2    0  502 -0.32995146675E+02  0.36627153087E+00 -0.11305088920E+03  0.11776806616E+03  0.00000000000E+00 0. -1.
</event>
<event>
 4    1  0.5784609E+003  0.2169886E+02  0.7546771E-02  0.1509516E+00
          2   -1    0    0  501    0  0.00000000000E+00  0.00000000000E+00  0.40278659066E+01  0.40278659066E+01  0.00000000000E+00 0. -1.
         -2   -1    0    0    0  501 -0.00000000000E+00 -0.00000000000E+00 -0.15074342720E+03  0.15074342720E+03  0.00000000000E+00 0.  1.
          2    1    1    2  502    0 -0.20463314324E+02  0.72175618194E+01 -0.36688227528E+02  0.42624716666E+02  0.00000000000E+00 0. -1.
         -2    1    1    2    0  502  0.20463314324E+02 -0.72175618194E+01 -0.11002733377E+03  0.11214657644E+03  0.00000000000E+00 0.  1.
</event>
<event>
 4    1  0.5784609E+003  0.2831026E+02  0.7546771E-02  0.1434872E+00
          2   -1    0    0  501    0  0.00000000000E+00  0.00000000000E+00  0.16793233348E+04  0.16793233348E+04  0.00000000000E+00 0.  1.
         -2   -1    0    0    0  501 -0.00000000000E+00 -0.00000000000E+00 -0.50164691543E+01  0.50164691543E+01  0.00000000000E+00 0.  1.
          2    1    1    2  502    0  0.23028821215E+02 -0.16466448684E+02  0.16382610014E+04  0.16385055933E+04  0.00000000000E+00 0.  1.
         -2    1    1    2    0  502 -0.23028821215E+02  0.16466448684E+02  0.36045864294E+02  0.45834210711E+02  0.00000000000E+00 0.  1.
</event>
<event>
 4    1  0.5784609E+003  0.2526307E+02  0.7546771E-02  0.1465882E+00
          2   -1    0    0  501    0  0.00000000000E+00  0.00000000000E+00  0.63881338712E+02  0.63881338712E+02  0.00000000000E+00 0.  1.
         -2   -1    0    0    0  501 -0.00000000000E+00 -0.00000000000E+00 -0.19961786086E+02  0.19961786086E+02  0.00000000000E+00 0. -1.
          2    1    1    2  502    0 -0.24877012693E+02 -0.43996793685E+01  0.51588145714E+02  0.57441794168E+02  0.00000000000E+00 0.  1.
         -2    1    1    2    0  502  0.24877012693E+02  0.43996793685E+01 -0.76685930875E+01  0.26401330630E+02  0.00000000000E+00 0. -1.
</event>
<event>
 4    1  0.5784609E+003  0.2838742E+02  0.7546771E-02  0.1434148E+00
          2   -1    0    0  501    0  0.00000000000E+00  0.00000000000E+00  0.86256159130E+02  0.86256159130E+02  0.00000000000E+00 0. -1.
         -2   -1    0    0    0  501 -0.00000000000E+00 -0.00000000000E+00 -0.37713641791E+02  0.37713641791E+02  0.00000000000E+00 0. -1.
          2    1    1    2  502    0 -0.10616065907E+02 -0.26327643276E+02  0.78033244510E+02  0.83036334846E+02  0.00000000000E+00 0. -1.
         -2    1    1    2    0  502  0.10616065907E+02  0.26327643276E+02 -0.29490727172E+02  0.40933466075E+02  0.00000000000E+00 0. -1.
</event>
<event>
 4    1  0.5784609E+003  0.2416300E+02  0.7546771E-02  0.1478389E+00
          2   -1    0    0  501    0  0.00000000000E+00  0.00000000000E+00  0.44666740024E+02  0.44666740024E+02  0.00000000000E+00 0.  1.
         -2   -1    0    0    0  501 -0.00000000000E+00 -0.00000000000E+00 -0.13188036646E+03  0.13188036646E+03  0.00000000000E+00 0.  1.
          2    1    1    2  502    0  0.15091552663E+02 -0.18870491327E+02  0.40178019613E+02  0.46884151530E+02  0.00000000000E+00 0.  1.
         -2    1    1    2    0  502 -0.15091552663E+02  0.18870491327E+02 -0.12739164605E+03  0.12966295495E+03  0.00000000000E+00 0.  1.
</event>
<event>
 4    1  0.5784609E+003  0.2323971E+02  0.7546771E-02  0.1489510E+00
          2   -1    0    0  501    0  0.00000000000E+00  0.00000000000E+00  0.72129795481E+03  0.72129795481E+03  0.00000000000E+00 0. -1.
         -2   -1    0    0    0  501 -0.00000000000E+00 -0.00000000000E+00 -0.91459744682E+00  0.91459744682E+00  0.00000000000E+00 0. -1.
          2    1    1    2  502    0 -0.23099381826E+01  0.23124618808E+02  0.20642836924E+03  0.20773241306E+03  0.00000000000E+00 0. -1.
         -2    1    1    2    0  502  0.23099381826E+01 -0.23124618808E+02  0.51395498812E+03  0.51448013920E+03  0.00000000000E+00 0. -1.
</event>
<event>
 4    1  0.5784609E+003  0.2740822E+02  0.7546771E-02  0.1443550E+00
          2   -1    0    0  501    0  0.00000000000E+00  0.00000000000E+00  0.10699747318E+03  0.10699747318E+03  0.00000000000E+00 0.  1.
         -2   -1    0    0    0  501 -0.00000000000E+00 -0.00000000000E+00 -0.90187914193E+01  0.90187914193E+01  0.00000000000E+00 0.  1.
          2    1    1    2  502    0 -0.65059154608E+01 -0.26624862784E+02  0.76292260357E+02  0.81066141172E+02  0.00000000000E+00 0.  1.
         -2    1    1    2    0  502  0.65059154608E+01  0.26624862784E+02  0.21686421403E+02  0.34950123426E+02  0.00000000000E+00 0.  1.
</event>
<event>
 4    1  0.5784609E+003  0.2726169E+02  0.7546771E-02  0.1444997E+00
          2   -1    0    0  501    0  0.00000000000E+00  0.00000000000E+00  0.46057207379E+03  0.46057207379E+03  0.00000000000E+00 0. -1.
         -2   -1    0    0    0  501 -0.00000000000E+00 -0.00000000000E+00 -0.28127671334E+01  0.28127671334E+01  0.00000000000E+00 0. -1.
          2    1    1    2  502    0  0.27009077377E+02  0.37026477159E+01  0.38015795226E+03  0.38113418703E+03  0.00000000000E+00 0. -1.
         -2    1    1    2    0  502 -0.27009077377E+02 -0.37026477159E+01  0.77601354403E+02  0.82250653894E+02  0.00000000000E+00 0. -1.
</event>
<event>
 4    1  0.5784609E+003  0.2479586E+02  0.7546771E-02  0.1471100E+00
          2   -1    0    0  501    0  0.00000000000E+00  0.00000000000E+00  0.30984358067E+02  0.30984358067E+02  0.00000000000E+00 0. -1.
         -2   -1    0    0    0  501 -0.00000000000E+00 -0.00000000000E+00 -0.14399583646E+03  0.14399583646E+03  0.00000000000E+00 0.  1.
          2    1    1    2  502    0  0.77551287464E+01  0.23551908878E+02  0.24732703183E+02  0.35022007944E+02  0.00000000000E+00 0. -1.
         -2    1    1    2    0  502 -0.77551287464E+01 -0.23551908878E+02 -0.13774418158E+03  0.13995818658E+03  0.00000000000E+00 0.  1.
</event>
<event>
 4    1  0.5784609E+003  0.2050573E+02  0.7546771E-02  0.1526440E+00
          2   -1    0    0  501    0  0.00000000000E+00  0.00000000000E+00  0.60214051373E+03  0.60214051373E+03  0.00000000000E+00 0. -1.
         -2   -1    0    0    0  501 -0.00000000000E+00 -0.00000000000E+00 -0.31137253749E+01  0.31137253749E+01  0.00000000000E+00 0. -1.
          2    1    1    2  502    0 -0.20380350755E+02  0.22641295159E+01  0.56605374917E+03  0.56642504529E+03  0.00000000000E+00 0. -1.
         -2    1    1    2    0  502  0.20380350755E+02 -0.22641295159E+01  0.32973039181E+02  0.38829193813E+02  0.00000000000E+00 0. -1.
</event>
<event>
 4    1  0.5784609E+003  0.2411884E+02  0.7546771E-02  0.1478907E+00
          2   -1    0    0  501    0  0.00000000000E+00  0.00000000000E+00  0.19042163709E+02  0.19042163709E+02  0.00000000000E+00 0. -1.
         -2   -1    0    0    0  501 -0.00000000000E+00 -0.00000000000E+00 -0.43729867729E+02  0.43729867729E+02  0.00000000000E+00 0.  1.
          2    1    1    2  502    0  0.23934801336E+02  0.29738714397E+01  0.48875050376E+01  0.24609070113E+02  0.00000000000E+00 0. -1.
         -2    1    1    2    0  502 -0.23934801336E+02 -0.29738714397E+01 -0.29575209058E+02  0.38162961326E+02  0.00000000000E+00 0.  1.
</event>
<event>
 4    1  0.7079731E+003  0.2539745E+02  0.7546771E-02  0.1464406E+00
          2   -1    0    0  501    0  0.00000000000E+00  0.00000000000E+00  0.53708128820E+03  0.53708128820E+03  0.00000000000E+00 0.  1.
         -2   -1    0    0    0  501 -0.00000000000E+00 -0.00000000000E+00 -0.57417675187E+03  0.57417675187E+03  0.00000000000E+00 0. -1.
          2    1    1    2  502    0 -0.19316762470E+02  0.16489185460E+02  0.53649988575E+03  0.53710069629E+03  0.00000000000E+00 0.  1.
         -2    1    1    2    0  502  0.19316762470E+02 -0.16489185460E+02 -0.57359534941E+03  0.57415734378E+03  0.00000000000E+00 0. -1.
</event>
<event>
 4    1  0.5784609E+003  0.2143997E+02  0.7546771E-02  0.1513075E+00
          2   -1    0    0  501    0  0.00000000000E+00  0.00000000000E+00  0.11990584174E+03  0.11990584174E+03  0.00000000000E+00 0. -1.
         -2   -1    0    0    0  501 -0.00000000000E+00 -0.00000000000E+00 -0.31117552557E+03  0.31117552557E+03  0.00000000000E+00 0. -1.
          2    1    1    2  502    0  0.15096284442E+02  0.15224144399E+02  0.11857402118E+03  0.12049676707E+03  0.00000000000E+00 0. -1.
         -2    1    1    2    0  502 -0.15096284442E+02 -0.15224144399E+02 -0.30984370501E+03  0.31058460024E+03  0.00000000000E+00 0. -1.
</event>
<event>
 4    1  0.5784609E+003  0.2365424E+02  0.7546771E-02  0.1484442E+00
          2   -1    0    0  501    0  0.00000000000E+00  0.00000000000E+00  0.21729956417E+03  0.21729956417E+03  0.00000000000E+00 0. -1.
         -2   -1    0    0    0  501 -0.00000000000E+00 -0.00000000000E+00 -0.36600685815E+01  0.36600685815E+01  0.00000000000E+00 0.  1.
          2    1    1    2  502    0 -0.22902076304E+02 -0.59176080674E+01  0.16697704082E+03  0.16864416784E+03  0.00000000000E+00 0. -1.
         -2    1    1    2    0  502  0.22902076304E+02  0.59176080674E+01  0.46662454770E+02  0.52315464916E+02  0.00000000000E+00 0.  1.
</event>
<event>
 4    1  0.5784609E+003  0.2472703E+02  0.7546771E-02  0.1471880E+00
          2   -1    0    0  501    0  0.00000000000E+00  0.00000000000E+00  0.26964519329E+03  0.26964519329E+03  0.00000000000E+00 0. -1.
         -2   -1    0    0    0  501 -0.00000000000E+00 -0.00000000000E+00 -0.60651666102E+01  0.60651666102E+01  0.00000000000E+00 0.  1.
          2    1    1    2  502    0 -0.23852282656E+02 -0.65187941409E+01  0.24087348586E+03  0.24213934471E+03  0.00000000000E+00 0. -1.
         -2    1    1    2    0  502  0.23852282656E+02  0.65187941409E+01  0.22706540815E+02  0.33571015188E+02  0.00000000000E+00 0.  1.
</event>
<event>
 4    1  0.5784609E+003  0.4830384E+02  0.7546771E-02  0.1305699E+00
          2   -1    0    0  501    0  0.00000000000E+00  0.00000000000E+00  0.38462403459E+02  0.38462403459E+02  0.00000000000E+00 0. -1.
         -2   -1    0    0    0  501 -0.00000000000E+00 -0.00000000000E+00 -0.31072327185E+03  0.31072327185E+03  0.00000000000E+00 0. -1.
          2    1    1    2  502    0 -0.42955063741E+00 -0.48301930737E+02  0.20494721485E+02  0.52471846122E+02  0.00000000000E+00 0. -1.
         -2    1    1    2    0  502  0.42955063741E+00  0.48301930737E+02 -0.29275558988E+03  0.29671382919E+03  0.00000000000E+00 0. -1.
</event>
<event>
 4    1  0.5784609E+003  0.4581650E+02  0.7546771E-02  0.1317406E+00
          2   -1    0    0  501    0  0.00000000000E+00  0.00000000000E+00  0.57749337350E+03  0.57749337350E+03  0.00000000000E+00 0.  1.
         -2   -1    0    0    0  501 -0.00000000000E+00 -0.00000000000E+00 -0.82081331969E+01  0.82081331969E+01  0.00000000000E+00 0.  1.
          2    1    1    2  502    0  0.32985791240E+02 -0.31797635422E+02  0.50323451956E+03  0.50531587518E+03  0.00000000000E+00 0.  1.
         -2    1    1    2    0  502 -0.32985791240E+02  0.31797635422E+02  0.66050720745E+02  0.80385631509E+02  0.00000000000E+00 0.  1.
</event>
<event>
 4    1  0.5784609E+003  0.2869330E+02  0.7546771E-02  0.1431302E+00
          2   -1    0    0  501    0  0.00000000000E+00  0.00000000000E+00  0.66193172083E+03  0.66193172083E+03  0.00000000000E+00 0. -1.
         -2   -1    0    0    0  501 -0.00000000000E+00 -0.00000000000E+00 -0.16463943413E+01  0.16463943413E+01  0.00000000000E+00 0. -1.
          2    1    1    2  502    0 -0.69674985211E+01  0.27834499041E+02  0.49421421281E+03  0.49504645592E+03  0.00000000000E+00 0. -1.
         -2    1    1    2    0  502  0.69674985211E+01 -0.27834499041E+02  0.16607111368E+03  0.16853165925E+03  0.00000000000E+00 0. -1.
</event>
<event>
 4    1  0.5784609E+003  0.2239397E+02  0.7546771E-02  0.1500252E+00
          2   -1    0    0  501    0  0.00000000000E+00  0.00000000000E+00  0.11086113985E+03  0.11086113985E+03  0.00000000000E+00 0. -1.
         -2   -1    0    0    0  501 -0.00000000000E+00 -0.00000000000E+00 -0.49677068812E+02  0.49677068812E+02  0.00000000000E+00 0.  1.
          2    1    1    2  502    0  0.14633395540E+02  0.16951506165E+02  0.10711927826E+03  0.10943504741E+03  0.00000000000E+00 0. -1.
         -2    1    1    2    0  502 -0.14633395540E+02 -0.16951506165E+02 -0.45935207228E+02  0.51103161247E+02  0.00000000000E+00 0.  1.
</event>
<event>
 4    1  0.5784609E+003  0.2228864E+02  0.7546771E-02  0.1501629E+00
          2   -1    0    0  501    0  0.00000000000E+00  0.00000000000E+00  0.19569348312E+03  0.19569348312E+03  0.00000000000E+00 0.  1.
         -2   -1    0    0    0  501 -0.00000000000E+00 -0.00000000000E+00 -0.77783416557E+02  0.77783416557E+02  0.00000000000E+00 0. -1.
          2    1    1    2  502    0 -0.75396134501E+01  0.20974692411E+02  0.19344364086E+03  0.19472345951E+03  0.00000000000E+00 0.  1.
         -2    1    1    2    0  502  0.75396134501E+01 -0.20974692411E+02 -0.75533574297E+02  0.78753440171E+02  0.00000000000E+00 0. -1.
</event>
<event>
 4    1  0.5784609E+003  0.3327561E+02  0.7546771E-02  0.1393109E+00
          2   -1    0    0  501    0  0.00000000000E+00  0.00000000000E+00  0.16648545878E+04  0.16648545878E+04  0.00000000000E+00 0. -1.
         -2   -1    0    0    0  501 -0.00000000000E+00 -0.00000000000E+00 -0.28250808181E+01  0.28250808181E+01  0.00000000000E+00 0.  1.
          2    1    1    2  502    0  0.30303220102E+02  0.13747034766E+02  0.15601261370E+04  0.15604809610E+04  0.00000000000E+00 0. -1.
         -2    1    1    2    0  502 -0.30303220102E+02 -0.13747034766E+02  0.10190336996E+03  0.10719870765E+03  0.00000000000E+00 0.  1.
</event>
<event>
 4    1  0.5784609E+003  0.3890808E+02  0.7546771E-02  0.1355006E+00
          2   -1    0    0  501    0  0.00000000000E+00  0.00000000000E+00  0.39824645101E+01  0.39824645101E+01  0.00000000000E+00 0. -1.
         -2   -1    0    0    0  501 -0.00000000000E+00 -0.00000000000E+00 -0.12215534297E+04  0.12215534297E+04  0.00000000000E+00 0. -1.
          2    1    1    2  502    0  0.35216348215E+02 -0.16542301970E+02 -0.10021857402E+03  0.10750628593E+03  0.00000000000E+00 0. -1.
         -2    1    1    2    0  502 -0.35216348215E+02  0.16542301970E+02 -0.11173523911E+04  0.11180296082E+04  0.00000000000E+00 0. -1.
</event>
<event>
 4    1  0.5784609E+003  0.2054520E+02  0.7546771E-02  0.1525858E+00
          2   -1    0    0  501    0  0.00000000000E+00  0.00000000000E+00  0.16771027678E+03  0.16771027678E+03  0.00000000000E+00 0.  1.
         -2   -1    0    0    0  501 -0.00000000000E+00 -0.00000000000E+00 -0.28310864884E+01  0.28310864884E+01  0.00000000000E+00 0. -1.
          2    1    1    2  502    0  0.20354770293E+02  0.27908008433E+01  0.11084732328E+03  0.11273523993E+03  0.00000000000E+00 0.  1.
         -2    1    1    2    0  502 -0.20354770293E+02 -0.27908008433E+01  0.54031867016E+02  0.57806123346E+02  0.00000000000E+00 0. -1.
</event>
<event>
 4    1  0.5784609E+003  0.4558537E+02  0.7546771E-02  0.1318538E+00
          2   -1    0    0  501    0  0.00000000000E+00  0.00000000000E+00  0.31154394446E+04  0.31154394446E+04  0.00000000000E+00 0. -1.
         -2   -1    0    0    0  501 -0.00000000000E+00 -0.00000000000E+00 -0.14337862355E+01  0.14337862355E+01  0.00000000000E+00 0.  1.
          2    1    1    2  502    0 -0.33079544219E+02 -0.31365101691E+02  0.26966792748E+04  0.26970645407E+04  0.00000000000E+00 0. -1.
         -2    1    1    2    0  502  0.33079544219E+02  0.31365101691E+02  0.41732638353E+03  0.41980869005E+03  0.00000000000E+00 0.  1.
</event>
<event>
 4    1  0.5784609E+003  0.2353785E+02  0.7546771E-02  0.1485853E+00
          2   -1    0    0  501    0  0.00000000000E+00  0.00000000000E+00  0.29087951750E+03  0.29087951750E+03  0.00000000000E+00 0. -1.
         -2   -1    0    0    0  501 -0.00000000000E+00 -0.00000000000E+00 -0.99738942970E+02  0.99738942970E+02  0.00000000000E+00 0. -1.
          2    1    1    2  502    0  0.90864204761E+01  0.21713301855E+02  0.28900565833E+03  0.28996258562E+03  0.00000000000E+00 0. -1.
         -2    1    1    2    0  502 -0.90864204761E+01 -0.21713301855E+02 -0.97865083799E+02  0.10065587485E+03  0.00000000000E+00 0. -1.
</event>
<event>
 4    1  0.5784609E+003  0.3416469E+02  0.7546771E-02  0.1386533E+00
          2   -1    0    0  501    0  0.00000000000E+00  0.00000000000E+00  0.71280791853E+01  0.71280791853E+01  0.00000000000E+00 0. -1.
         -2   -1    0    0    0  501 -0.00000000000E+00 -0.00000000000E+00 -0.19106737829E+03  0.19106737829E+03  0.00000000000E+00 0. -1.
          2    1    1    2  502    0 -0.34109607572E+02  0.19388762503E+01 -0.12944003400E+03  0.13387287616E+03  0.00000000000E+00 0. -1.
         -2    1    1    2    0  502  0.34109607572E+02 -0.19388762503E+01 -0.54499265099E+02  0.64322581308E+02  0.00000000000E+00 0. -1.
</event>
<event>
 4    1  0.5784609E+003  0.2850891E+02  0.7546771E-02  0.1433012E+00
          2   -1    0    0  501    0  0.00000000000E+00  0.00000000000E+00  0.97785115279E+03  0.97785115279E+03  0.00000000000E+00 0. -1.
         -2   -1    0    0    0  501 -0.00000000000E+00 -0.00000000000E+00 -0.63153289233E+01  0.63153289233E+01  0.00000000000E+00 0.  1.
          2    1    1    2  502    0  0.24650683203E+02  0.14321373768E+02  0.94432742590E+03  0.94475766482E+03  0.00000000000E+00 0. -1.
         -2    1    1    2    0  502 -0.24650683203E+02 -0.14321373768E+02  0.27208397965E+02  0.39408816891E+02  0.00000000000E+00 0.  1.
</event>
<event>
 4    1  0.5784609E+003  0.3217619E+02  0.7546771E-02  0.1401582E+00
          2   -1    0    0  501    0  0.00000000000E+00  0.00000000000E+00  0.17108721953E+04  0.17108721953E+04  0.00000000000E+00 0. -1.
         -2   -1    0    0    0  501 -0.00000000000E+00 -0.00000000000E+00 -0.19670803790E+02  0.19670803790E+02  0.00000000000E+00 0. -1.
          2    1    1    2  502    0  0.66259384329E+00 -0.32169366007E+02  0.16974590324E+04  0.16977639629E+04  0.00000000000E+00 0. -1.
         -2    1    1    2    0  502 -0.66259384329E+00  0.32169366007E+02 -0.62576409202E+01  0.32779036132E+02  0.00000000000E+00 0. -1.
</event>
<event>
 4    1  0.5784609E+003  0.2679250E+02  0.7546771E-02  0.1449704E+00
          2   -1    0    0  501    0  0.00000000000E+00  0.00000000000E+00  0.57953213241E+03  0.57953213241E+03  0.00000000000E+00 0.  1.
         -2   -1    0    0    0  501 -0.00000000000E+00 -0.00000000000E+00 -0.11437966154E+03  0.11437966154E+03  0.00000000000E+00 0. -1.
          2    1    1    2  502    0 -0.26259994485E+02 -0.53151437997E+01  0.57764837483E+03  0.57826938619E+03  0.00000000000E+00 0.  1.
         -2    1    1    2    0  502  0.26259994485E+02  0.53151437997E+01 -0.11249590396E+03  0.11564240776E+03  0.00000000000E+00 0. -1.
</event>
<event>
 4    1  0.5784609E+003  0.2624567E+02  0.7546771E-02  0.1455336E+00
          2   -1    0    0  501    0  0.00000000000E+00  0.00000000000E+00  0.85119043791E+02  0.85119043791E+02  0.00000000000E+00 0. -1.
         -2   -1    0    0    0  501 -0.00000000000E+00 -0.00000000000E+00 -0.10708974815E+02  0.10708974815E+02  0.00000000000E+00 0. -1.
          2    1    1    2  502    0  0.17668539960E+02 -0.19407673039E+02  0.60888096847E+02  0.66303811464E+02  0.00000000000E+00 0. -1.
         -2    1    1    2    0  502 -0.17668539960E+02  0.19407673039E+02  0.13521972129E+02  0.29524207142E+02  0.00000000000E+00 0. -1.
</event>
<event>
 4    1  0.5784609E+003  0.2279131E+02  0.7546771E-02  0.1495135E+00
          2   -1    0    0  501    0  0.00000000000E+00  0.00000000000E+00  0.77660932031E+02  0.77660932031E+02  0.00000000000E+00 0.  1.
         -2   -1    0    0    0  501 -0.00000000000E+00 -0.00000000000E+00 -0.14208175499E+03  0.14208175499E+03  0.00000000000E+00 0. -1.
          2    1    1    2  502    0  0.60808881282E+01 -0.21965124962E+02  0.75043616711E+02  0.78428236778E+02  0.00000000000E+00 0.  1.
         -2    1    1    2    0  502 -0.60808881282E+01  0.21965124962E+02 -0.13946443967E+03  0.14131445024E+03  0.00000000000E+00 0. -1.
</event>
<event>
 4    1  0.5784609E+003  0.2457537E+02  0.7546771E-02  0.1473610E+00
          2   -1    0    0  501    0  0.00000000000E+00  0.00000000000E+00  0.38151023067E+03  0.38151023067E+03  0.00000000000E+00 0. -1.
         -2   -1    0    0    0  501 -0.00000000000E+00 -0.00000000000E+00 -0.90767508194E+01  0.90767508194E+01  0.00000000000E+00 0. -1.
          2    1    1    2  502    0  0.57971369426E+01  0.23881836937E+02  0.36366461394E+03  0.36449403337E+03  0.00000000000E+00 0. -1.
         -2    1    1    2    0  502 -0.57971369426E+01 -0.23881836937E+02  0.87688659143E+01  0.26092948120E+02  0.00000000000E+00 0. -1.
</event>
<event>
 4    1  0.5784609E+003  0.2273372E+02  0.7546771E-02  0.1495869E+00
          2   -1    0    0  501    0  0.00000000000E+00  0.00000000000E+00  0.29670809057E+03  0.29670809057E+03  0.00000000000E+00 0. -1.
         -2   -1    0    0    0  501 -0.00000000000E+00 -0.00000000000E+00 -0.56362260398E+02  0.56362260398E+02  0.00000000000E+00 0. -1.
          2    1    1    2  502    0 -0.19263904802E+02 -0.12071612416E+02  0.29395880831E+03  0.29483656971E+03  0.00000000000E+00 0. -1.
         -2    1    1    2    0  502  0.19263904802E+02  0.12071612416E+02 -0.53612978139E+02  0.58233781257E+02  0.00000000000E+00 0. -1.
</event>
<event>
 4    1  0.5784609E+003  0.2269937E+02  0.7546771E-02  0.1496308E+00
          2   -1    0    0  501    0  0.00000000000E+00  0.00000000000E+00  0.34739719633E+02  0.34739719633E+02  0.00000000000E+00 0.  1.
         -2   -1    0    0    0  501 -0.00000000000E+00 -0.00000000000E+00 -0.26031142515E+02  0.26031142515E+02  0.00000000000E+00 0. -1.
          2    1    1    2  502    0 -0.22236581182E+02 -0.45602292135E+01  0.24284422503E+02  0.33241456187E+02  0.00000000000E+00 0.  1.
         -2    1    1    2    0  502  0.22236581182E+02  0.45602292135E+01 -0.15575845385E+02  0.27529405961E+02  0.00000000000E+00 0. -1.
</event>
<event>
 4    1  0.5784609E+003  0.2932377E+02  0.7546771E-02  0.1425565E+00
          2   -1    0    0  501    0  0.00000000000E+00  0.00000000000E+00  0.31196112988E+03  0.31196112988E+03  0.00000000000E+00 0. -1.
         -2   -1    0    0    0  501 -0.00000000000E+00 -0.00000000000E+00 -0.47973030080E+01  0.47973030080E+01  0.00000000000E+00 0. -1.
          2    1    1    2  502    0  0.13780016608E+02  0.25884252784E+02  0.25688491304E+03  0.25855317044E+03  0.00000000000E+00 0. -1.
         -2    1    1    2    0  502 -0.13780016608E+02 -0.25884252784E+02  0.50278913835E+02  0.58205262445E+02  0.00000000000E+00 0. -1.
</event>
<event>
 4    1  0.5784609E+003  0.2004912E+02  0.7546771E-02  0.1533286E+00
          2   -1    0    0  501    0  0.00000000000E+00  0.00000000000E+00  0.15105136350E+02  0.15105136350E+02  0.00000000000E+00 0. -1.
         -2   -1    0    0    0  501 -0.00000000000E+00 -0.00000000000E+00 -0.62524935495E+02  0.62524935495E+02  0.00000000000E+00 0.  1.
          2    1    1    2  502    0  0.18136084871E+02  0.85469119902E+01  0.57074177936E+01  0.20845668540E+02  0.00000000000E+00 0. -1.
         -2    1    1    2    0  502 -0.18136084871E+02 -0.85469119902E+01 -0.53127216939E+02  0.56784403305E+02  0.00000000000E+00 0.  1.
</event>
<event>
 4    1  0.5784609E+003  0.2251667E+02  0.7546771E-02  0.1498658E+00
          2   -1    0    0  501    0  0.00000000000E+00  0.00000000000E+00  0.12979944755E+04  0.12979944755E+04  0.00000000000E+00 0. -1.
         -2   -1    0    0    0  501 -0.00000000000E+00 -0.00000000000E+00 -0.64254572623E+00  0.64254572623E+00  0.00000000000E+00 0. -1.
          2    1    1    2  502    0 -0.22501857648E+02 -0.81652222972E+00  0.10552660923E+04  0.10555062889E+04  0.00000000000E+00 0. -1.
         -2    1    1    2    0  502  0.22501857648E+02  0.81652222972E+00  0.24208583752E+03  0.24313073239E+03  0.00000000000E+00 0. -1.
</event>
<event>
 4    1  0.5784609E+003  0.4767306E+02  0.7546771E-02  0.1308589E+00
          2   -1    0    0  501    0  0.00000000000E+00  0.00000000000E+00  0.44416205671E+03  0.44416205671E+03  0.00000000000E+00 0. -1.
         -2   -1    0    0    0  501 -0.00000000000E+00 -0.00000000000E+00 -0.52996583725E+01  0.52996583725E+01  0.00000000000E+00 0. -1.
          2    1    1    2  502    0  0.33085033766E+02  0.34323474877E+02  0.26116718639E+03  0.26548261644E+03  0.00000000000E+00 0. -1.
         -2    1    1    2    0  502 -0.33085033766E+02 -0.34323474877E+02  0.17769521195E+03  0.18397909864E+03  0.00000000000E+00 0. -1.
</event>
<event>
 4    1  0.5784609E+003  0.2039468E+02  0.7546771E-02  0.1528085E+00
          2   -1    0    0  501    0  0.00000000000E+00  0.00000000000E+00  0.43505002999E+03  0.43505002999E+03  0.00000000000E+00 0. -1.
         -2   -1    0    0    0  501 -0.00000000000E+00 -0.00000000000E+00 -0.25276210009E+02  0.25276210009E+02  0.00000000000E+00 0.  1.
          2    1    1    2  502    0  0.13182344751E+01  0.20352035891E+02  0.43065507071E+03  0.43113771933E+03  0.00000000000E+00 0. -1.
         -2    1    1    2    0  502 -0.13182344751E+01 -0.20352035891E+02 -0.20881250723E+02  0.29188520668E+02  0.00000000000E+00 0.  1.
</event>
<event>
 4    1  0.5784609E+003  0.2039075E+02  0.7546771E-02  0.1528144E+00
          2   -1    0    0  501    0  0.00000000000E+00  0.00000000000E+00  0.88785682132E+03  0.88785682132E+03  0.00000000000E+00 0. -1.
         -2   -1    0    0    0  501 -0.00000000000E+00 -0.00000000000E+00 -0.28218399450E+02  0.28218399450E+02  0.00000000000E+00 0.  1.
          2    1    1    2  502    0  0.19344200045E+02  0.64486230841E+01  0.88404023119E+03  0.88427536050E+03  0.00000000000E+00 0. -1.
         -2    1    1    2    0  502 -0.19344200045E+02 -0.64486230841E+01 -0.24401809323E+02  0.31799860272E+02  0.00000000000E+00 0.  1.
</event>
<event>
 4    1  0.5784609E+003  0.2790045E+02  0.7546771E-02  0.1438767E+00
          2   -1    0    0  501    0  0.00000000000E+00  0.00000000000E+00  0.44991157361E+03  0.44991157361E+03  0.00000000000E+00 0. -1.
         -2   -1    0    0    0  501 -0.00000000000E+00 -0.00000000000E+00 -0.30445435766E+01  0.30445435766E+01  0.00000000000E+00 0. -1.
          2    1    1    2  502    0  0.49219781579E+01 -0.27462871347E+02  0.37223941915E+03  0.37328356559E+03  0.00000000000E+00 0. -1.
         -2    1    1    2    0  502 -0.49219781579E+01  0.27462871347E+02  0.74627610890E+02  0.79672551601E+02  0.00000000000E+00 0. -1.
</event>
<event>
 4    1  0.5784609E+003  0.2014332E+02  0.7546771E-02  0.1531856E+00
          2   -1    0    0  501    0  0.00000000000E+00  0.00000000000E+00  0.62927265722E+02  0.62927265722E+02  0.00000000000E+00 0. -1.
         -2   -1    0    0    0  501 -0.00000000000E+00 -0.00000000000E+00 -0.17203268105E+02  0.17203268105E+02  0.00000000000E+00 0. -1.
          2    1    1    2  502    0 -0.71111454290E+01 -0.18846354708E+02  0.54541160035E+02  0.58141995262E+02  0.00000000000E+00 0. -1.
         -2    1    1    2    0  502  0.71111454290E+01  0.18846354708E+02 -0.88171624174E+01  0.21988538565E+02  0.00000000000E+00 0. -1.
</event>
<event>
 4    1  0.5784609E+003  0.2320975E+02  0.7546771E-02  0.1489881E+00
          2   -1    0    0  501    0  0.00000000000E+00  0.00000000000E+00  0.76577135509E+03  0.76577135509E+03  0.00000000000E+00 0. -1.
         -2   -1    0    0    0  501 -0.00000000000E+00 -0.00000000000E+00 -0.28470984234E+01  0.28470984234E+01  0.00000000000E+00 0. -1.
          2    1    1    2  502    0 -0.19991135595E+02  0.11791823105E+02  0.71493071618E+03  0.71530736158E+03  0.00000000000E+00 0. -1.
         -2    1    1    2    0  502  0.19991135595E+02 -0.11791823105E+02  0.47993540482E+02  0.53311091928E+02  0.00000000000E+00 0. -1.
</event>
<event>
 4    1  0.5784609E+003  0.3960875E+02  0.7546771E-02  0.1350794E+00
          2   -1    0    0  501    0  0.00000000000E+00  0.00000000000E+00  0.28419716179E+03  0.28419716179E+03  0.00000000000E+00 0.  1.
         -2   -1    0    0    0  501 -0.00000000000E+00 -0.00000000000E+00 -0.23011169074E+02  0.23011169074E+02  0.00000000000E+00 0.  1.
          2    1    1    2  502    0  0.39726251880E+01  0.39409022680E+02  0.26451112736E+03  0.26746025745E+03  0.00000000000E+00 0.  1.
         -2    1    1    2    0  502 -0.39726251880E+01 -0.39409022680E+02 -0.33251346441E+01  0.39748073411E+02  0.00000000000E+00 0.  1.
</event>
<event>
 4    1  0.5784609E+003  0.2730914E+02  0.7546771E-02  0.1444527E+00
          2   -1    0    0  501    0  0.00000000000E+00  0.00000000000E+00  0.17065647637E+03  0.17065647637E+03  0.00000000000E+00 0.  1.
         -2   -1    0    0    0  501 -0.00000000000E+00 -0.00000000000E+00 -0.21712857536E+02  0.21712857536E+02  0.00000000000E+00 0. -1.
          2    1    1    2  502    0  0.26859631526E+02  0.49345132923E+01  0.16043374460E+03  0.16274143798E+03  0.00000000000E+00 0.  1.
         -2    1    1    2    0  502 -0.26859631526E+02 -0.49345132923E+01 -0.11490125768E+02  0.29627895932E+02  0.00000000000E+00 0. -1.
</event>
<event>
 4    1  0.5784609E+003  0.2403745E+02  0.7546771E-02  0.1479866E+00
          2   -1    0    0  501    0  0.00000000000E+00  0.00000000000E+00  0.23163054065E+03  0.23163054065E+03  0.00000000000E+00 0. -1.
         -2   -1    0    0    0  501 -0.00000000000E+00 -0.00000000000E+00 -0.11452030974E+02  0.11452030974E+02  0.00000000000E+00 0.  1.
          2    1    1    2  502    0  0.18851891033E+02 -0.14913255870E+02  0.21758148747E+03  0.21890523678E+03  0.00000000000E+00 0. -1.
         -2    1    1    2    0  502 -0.18851891033E+02  0.14913255870E+02  0.25970222043E+01  0.24177334851E+02  0.00000000000E+00 0.  1.
</event>
<event>
 4    1  0.5784609E+003  0.2020229E+02  0.7546771E-02  0.1530966E+00
          2   -1    0    0  501    0  0.00000000000E+00  0.00000000000E+00  0.14342858545E+04  0.14342858545E+04  0.00000000000E+00 0.  1.
         -2   -1    0    0    0  501 -0.00000000000E+00 -0.00000000000E+00 -0.33093088145E+00  0.33093088145E+00  0.00000000000E+00 0. -1.
          2    1    1    2  502    0 -0.48653523454E+00 -0.20196420439E+02  0.44845109769E+03  0.44890591345E+03  0.00000000000E+00 0.  1.
         -2    1    1    2    0  502  0.48653523454E+00  0.20196420439E+02  0.98550382592E+03  0.98571087192E+03  0.00000000000E+00 0. -1.
</event>
<event>
 4    1  0.5784609E+003  0.3112309E+02  0.7546771E-02  0.1410081E+00
          2   -1    0    0  501    0  0.00000000000E+00  0.00000000000E+00  0.12973261866E+04  0.12973261866E+04  0.00000000000E+00 0. -1.
         -2   -1    0    0    0  501 -0.00000000000E+00 -0.00000000000E+00 -0.15694337310E+01  0.15694337310E+01  0.00000000000E+00 0. -1.
          2    1    1    2  502    0  0.54599884398E+01 -0.30640413689E+02  0.11181145723E+04  0.11185476491E+04  0.00000000000E+00 0. -1.
         -2    1    1    2    0  502 -0.54599884398E+01  0.30640413689E+02  0.17764218057E+03  0.18034797127E+03  0.00000000000E+00 0. -1.
</event>
<event>
 4    1  0.5784609E+003  0.2129914E+02  0.7546771E-02  0.1515037E+00
          2   -1    0    0  501    0  0.00000000000E+00  0.00000000000E+00  0.20587326408E+03  0.20587326408E+03  0.00000000000E+00 0.  1.
         -2   -1    0    0    0  501 -0.00000000000E+00 -0.00000000000E+00 -0.16006154489E+02  0.16006154489E+02  0.00000000000E+00 0. -1.
          2    1    1    2  502    0 -0.21195168986E+02  0.21019115648E+01  0.19795412568E+03  0.19909668278E+03  0.00000000000E+00 0.  1.
         -2    1    1    2    0  502  0.21195168986E+02 -0.21019115648E+01 -0.80870160923E+01  0.22782735785E+02  0.00000000000E+00 0. -1.
</event>
<event>
 4    1  0.5784609E+003  0.2190077E+02  0.7546771E-02  0.1506783E+00
          2   -1    0    0  501    0  0.00000000000E+00  0.00000000000E+00  0.10616203807E+04  0.10616203807E+04  0.00000000000E+00 0.  1.
         -2   -1    0    0    0  501 -0.00000000000E+00 -0.00000000000E+00 -0.26324280339E+01  0.26324280339E+01  0.00000000000E+00 0. -1.
          2    1    1    2  502    0  0.12170498378E+02 -0.18207760172E+02  0.10138079787E+04  0.10140445066E+04  0.00000000000E+00 0.  1.
         -2    1    1    2    0  502 -0.12170498378E+02  0.18207760172E+02  0.45179973893E+02  0.50208302124E+02  0.00000000000E+00 0. -1.
</event>
<event>
 4    1  0.5784609E+003  0.7201915E+02  0.7546771E-02  0.1223696E+00
          2   -1    0    0  501    0  0.00000000000E+00  0.00000000000E+00  0.30600178247E+04  0.30600178247E+04  0.00000000000E+00 0. -1.
         -2   -1    0    0    0  501 -0.00000000000E+00 -0.00000000000E+00 -0.19922692223E+01  0.19922692223E+01  0.00000000000E+00 0. -1.
          2    1    1    2  502    0 -0.65113737116E+02 -0.30772703186E+02  0.21203986485E+04  0.21216213579E+04  0.00000000000E+00 0. -1.
         -2    1    1    2    0  502  0.65113737116E+02  0.30772703186E+02  0.93762690703E+03  0.94038873601E+03  0.00000000000E+00 0. -1.
</event>
<event>
 4    1  0.5784609E+003  0.2978169E+02  0.7546771E-02  0.1421503E+00
          2   -1    0    0  501    0  0.00000000000E+00  0.00000000000E+00  0.25000753943E+02  0.25000753943E+02  0.00000000000E+00 0.  1.
         -2   -1    0    0    0  501 -0.00000000000E+00 -0.00000000000E+00 -0.38479495980E+03  0.38479495980E+03  0.00000000000E+00 0.  1.
          2    1    1    2  502    0 -0.12696039416E+02  0.26939922846E+02  0.15326919948E+02  0.33494228382E+02  0.00000000000E+00 0.  1.
         -2    1    1    2    0  502  0.12696039416E+02 -0.26939922846E+02 -0.37512112580E+03  0.37630148536E+03  0.00000000000E+00 0.  1.
</event>
<event>
 4    1  0.5784609E+003  0.2293624E+02  0.7546771E-02  0.1493300E+00
          2   -1    0    0  501    0  0.00000000000E+00  0.00000000000E+00  0.49253732758E+02  0.49253732758E+02  0.00000000000E+00 0.  1.
         -2   -1    0    0    0  501 -0.00000000000E+00 -0.00000000000E+00 -0.20711292152E+03  0.20711292152E+03  0.00000000000E+00 0.  1.
          2    1    1    2  502    0 -0.35367880676E+01  0.22661912863E+02  0.45904769798E+02  0.51315875269E+02  0.00000000000E+00 0.  1.
         -2    1    1    2    0  502  0.35367880676E+01 -0.22661912863E+02 -0.20376395856E+03  0.20505077901E+03  0.00000000000E+00 0.  1.
</event>
<event>
 4    1  0.5784609E+003  0.3188513E+02  0.7546771E-02  0.1403892E+00
          2   -1    0    0  501    0  0.00000000000E+00  0.00000000000E+00  0.12666822960E+02  0.12666822960E+02  0.00000000000E+00 0. -1.
         -2   -1    0    0    0  501 -0.00000000000E+00 -0.00000000000E+00 -0.82693109672E+02  0.82693109672E+02  0.00000000000E+00 0. -1.
          2    1    1    2  502    0 -0.28798659939E+02 -0.13685715877E+02 -0.26837459674E+02  0.41676262729E+02  0.00000000000E+00 0. -1.
         -2    1    1    2    0  502  0.28798659939E+02  0.13685715877E+02 -0.43188827038E+02  0.53683669903E+02  0.00000000000E+00 0. -1.
</event>
<event>
 4    1  0.5784609E+003  0.2172043E+02  0.7546771E-02  0.1509223E+00
          2   -1    0    0  501    0  0.00000000000E+00  0.00000000000E+00  0.57056512194E+03  0.57056512194E+03  0.00000000000E+00 0.  1.
         -2   -1    0    0    0  501 -0.00000000000E+00 -0.00000000000E+00 -0.12620350998E+02  0.12620350998E+02  0.00000000000E+00 0.  1.
          2    1    1    2  502    0 -0.17528006536E+02 -0.12827559399E+02  0.56085103399E+03  0.56127146696E+03  0.00000000000E+00 0.  1.
         -2    1    1    2    0  502  0.17528006536E+02  0.12827559399E+02 -0.29062630477E+01  0.21914005981E+02  0.00000000000E+00 0.  1.
</event>
<event>
 4    1  0.5784609E+003  0.2737971E+02  0.7546771E-02  0.1443831E+00
          2   -1    0    0  501    0  0.00000000000E+00  0.00000000000E+00  0.10007029737E+04  0.10007029737E+04  0.00000000000E+00 0. -1.
         -2   -1    0    0    0  501 -0.00000000000E+00 -0.00000000000E+00 -0.91804211056E+01  0.91804211056E+01  0.00000000000E+00 0. -1.
          2    1    1    2  502    0 -0.16930659991E+02  0.21517465350E+02  0.97966301635E+03  0.98004554698E+03  0.00000000000E+00 0. -1.
         -2    1    1    2    0  502  0.16930659991E+02 -0.21517465350E+02  0.11859536251E+02  0.29837847827E+02  0.00000000000E+00 0. -1.
</event>
<event>
 4    1  0.5784609E+003  0.5045362E+02  0.7546771E-02  0.1296218E+00
          2   -1    0    0  501    0  0.00000000000E+00  0.00000000000E+00  0.22719983298E+03  0.22719983298E+03  0.00000000000E+00 0. -1.
         -2   -1    0    0    0  501 -0.00000000000E+00 -0.00000000000E+00 -0.18648173498E+02  0.18648173498E+02  0.00000000000E+00 0. -1.
          2    1    1    2  502    0  0.33139672128E+01  0.50344670000E+02  0.18194059968E+03  0.18880664709E+03  0.00000000000E+00 0. -1.
         -2    1    1    2    0  502 -0.33139672128E+01 -0.50344670000E+02  0.26611059802E+02  0.57041359380E+02  0.00000000000E+00 0. -1.
</event>
<event>
 4    1  0.5784609E+003  0.2136242E+02  0.7546771E-02  0.1514153E+00
          2   -1    0    0  501    0  0.00000000000E+00  0.00000000000E+00  0.10007318518E+04  0.10007318518E+04  0.00000000000E+00 0. -1.
         -2   -1    0    0    0  501 -0.00000000000E+00 -0.00000000000E+00 -0.19181511372E+01  0.19181511372E+01  0.00000000000E+00 0. -1.
          2    1    1    2  502    0 -0.15826324018E+02 -0.14348532515E+02  0.93710149897E+03  0.93734495906E+03  0.00000000000E+00 0. -1.
         -2    1    1    2    0  502  0.15826324018E+02  0.14348532515E+02  0.61712201719E+02  0.65305043896E+02  0.00000000000E+00 0. -1.
</event>
<event>
 4    1  0.5784609E+003  0.5051120E+02  0.7546771E-02  0.1295971E+00
          2   -1    0    0  501    0  0.00000000000E+00  0.00000000000E+00  0.57239244595E+03  0.57239244595E+03  0.00000000000E+00 0. -1.
         -2   -1    0    0    0  501 -0.00000000000E+00 -0.00000000000E+00 -0.74936972080E+01  0.74936972080E+01  0.00000000000E+00 0. -1.
          2    1    1    2  502    0 -0.31118824007E+02 -0.39786933072E+02  0.46700908889E+03  0.46973276483E+03  0.00000000000E+00 0. -1.
         -2    1    1    2    0  502  0.31118824007E+02  0.39786933072E+02  0.97889659860E+02  0.11015337833E+03  0.00000000000E+00 0. -1.
</event>
<event>
 4    1  0.5784609E+003  0.4014722E+02  0.7546771E-02  0.1347625E+00
          2   -1    0    0  501    0  0.00000000000E+00  0.00000000000E+00  0.12681528557E+04  0.12681528557E+04  0.00000000000E+00 0.  1.
         -2   -1    0    0    0  501 -0.00000000000E+00 -0.00000000000E+00 -0.13254685177E+02  0.13254685177E+02  0.00000000000E+00 0.  1.
          2    1    1    2  502    0  0.93564940689E+01  0.39041710580E+02  0.12366605917E+04  0.12373120941E+04  0.00000000000E+00 0.  1.
         -2    1    1    2    0  502 -0.93564940689E+01 -0.39041710580E+02  0.18237578849E+02  0.44095446801E+02  0.00000000000E+00 0.  1.
</event>
<event>
 4    1  0.5784609E+003  0.2399274E+02  0.7546771E-02  0.1480395E+00
          2   -1    0    0  501    0  0.00000000000E+00  0.00000000000E+00  0.38638596354E+03  0.38638596354E+03  0.00000000000E+00 0. -1.
         -2   -1    0    0    0  501 -0.00000000000E+00 -0.00000000000E+00 -0.11796179920E+02  0.11796179920E+02  0.00000000000E+00 0. -1.
          2    1    1    2  502    0 -0.23978701986E+02  0.82050529371E+00  0.37338934320E+03  0.37415939517E+03  0.00000000000E+00 0. -1.
         -2    1    1    2    0  502  0.23978701986E+02 -0.82050529371E+00  0.12004404110E+01  0.24022748283E+02  0.00000000000E+00 0. -1.
</event>
<event>
 4    1  0.5784609E+003  0.2532343E+02  0.7546771E-02  0.1465218E+00
          2   -1    0    0  501    0  0.00000000000E+00  0.00000000000E+00  0.82905598471E+03  0.82905598471E+03  0.00000000000E+00 0.  1.
         -2   -1    0    0    0  501 -0.00000000000E+00 -0.00000000000E+00 -0.24637444602E+01  0.24637444602E+01  0.00000000000E+00 0. -1.
          2    1    1    2  502    0  0.20486596097E+02 -0.14885410670E+02  0.75766135122E+03  0.75808442749E+03  0.00000000000E+00 0.  1.
         -2    1    1    2    0  502 -0.20486596097E+02  0.14885410670E+02  0.68930889036E+02  0.73435301687E+02  0.00000000000E+00 0. -1.
</event>
<event>
 4    1  0.5784609E+003  0.2387255E+02  0.7546771E-02  0.1481823E+00
          2   -1    0    0  501    0  0.00000000000E+00  0.00000000000E+00  0.15802980176E+03  0.15802980176E+03  0.00000000000E+00 0. -1.
         -2   -1    0    0    0  501 -0.00000000000E+00 -0.00000000000E+00 -0.58823606866E+02  0.58823606866E+02  0.00000000000E+00 0. -1.
          2    1    1    2  502    0 -0.21715712292E+02 -0.99159747333E+01  0.15465360282E+03  0.15648525675E+03  0.00000000000E+00 0. -1.
         -2    1    1    2    0  502  0.21715712292E+02  0.99159747333E+01 -0.55447407926E+02  0.60368151876E+02  0.00000000000E+00 0. -1.
</event>
<event>
 4    1  0.5784609E+003  0.2343121E+02  0.7546771E-02  0.1487153E+00
          2   -1    0    0  501    0  0.00000000000E+00  0.00000000000E+00  0.95539674208E+01  0.95539674208E+01  0.00000000000E+00 0.  1.
         -2   -1    0    0    0  501 -0.00000000000E+00 -0.00000000000E+00 -0.15660180042E+03  0.15660180042E+03  0.00000000000E+00 0.  1.
          2    1    1    2  502    0  0.22815118275E+02 -0.53377747420E+01 -0.74235487864E+01  0.24579067063E+02  0.00000000000E+00 0.  1.
         -2    1    1    2    0  502 -0.22815118275E+02  0.53377747420E+01 -0.13962428422E+03  0.14157670078E+03  0.00000000000E+00 0.  1.
</event>
<event>
 4    1  0.5784609E+003  0.3889798E+02  0.7546771E-02  0.1355067E+00
          2   -1    0    0  501    0  0.00000000000E+00  0.00000000000E+00  0.24356060103E+03  0.24356060103E+03  0.00000000000E+00 0. -1.
         -2   -1    0    0    0  501 -0.00000000000E+00 -0.00000000000E+00 -0.15668772430E+03  0.15668772430E+03  0.00000000000E+00 0.  1.
          2    1    1    2  502    0  0.31261321966E+02 -0.23146974995E+02  0.23955330284E+03  0.24269082719E+03  0.00000000000E+00 0. -1.
         -2    1    1    2    0  502 -0.31261321966E+02  0.23146974995E+02 -0.15268042611E+03  0.15755749814E+03  0.00000000000E+00 0.  1.
</event>
<event>
 4    1  0.5784609E+003  0.2141508E+02  0.7546771E-02  0.1513420E+00
          2   -1    0    0  501    0  0.00000000000E+00  0.00000000000E+00  0.36744666948E+02  0.36744666948E+02  0.00000000000E+00 0. -1.
         -2   -1    0    0    0  501 -0.00000000000E+00 -0.00000000000E+00 -0.62108859057E+02  0.62108859057E+02  0.00000000000E+00 0. -1.
          2    1    1    2  502    0  0.17000113940E+02 -0.13023124776E+02  0.31500242947E+02  0.38090300060E+02  0.00000000000E+00 0. -1.
         -2    1    1    2    0  502 -0.17000113940E+02  0.13023124776E+02 -0.56864435056E+02  0.60763225945E+02  0.00000000000E+00 0. -1.
</event>
<event>
 4    1  0.5784609E+003  0.2021174E+02  0.7546771E-02  0.1530823E+00
          2   -1    0    0  501    0  0.00000000000E+00  0.00000000000E+00  0.11307323322E+02  0.11307323322E+02  0.00000000000E+00 0. -1.
         -2   -1    0    0    0  501 -0.00000000000E+00 -0.00000000000E+00 -0.12846089929E+03  0.12846089929E+03  0.00000000000E+00 0. -1.
          2    1    1    2  502    0  0.71332224420E+01 -0.18911144198E+02  0.67077974121E+00  0.20222862872E+02  0.00000000000E+00 0. -1.
         -2    1    1    2    0  502 -0.71332224420E+01  0.18911144198E+02 -0.11782435571E+03  0.11954535974E+03  0.00000000000E+00 0. -1.
</event>
<event>
 4    1  0.5784609E+003  0.2102131E+02  0.7546771E-02  0.1518961E+00
          2   -1    0    0  501    0  0.00000000000E+00  0.00000000000E+00  0.49538170554E+03  0.49538170554E+03  0.00000000000E+00 0. -1.
         -2   -1    0    0    0  501 -0.00000000000E+00 -0.00000000000E+00 -0.10409251216E+01  0.10409251216E+01  0.00000000000E+00 0. -1.
          2    1    1    2  502    0 -0.15390674715E+02 -0.14318598883E+02  0.15329480526E+03  0.15472941693E+03  0.00000000000E+00 0. -1.
         -2    1    1    2    0  502  0.15390674715E+02  0.14318598883E+02  0.34104597516E+03  0.34169321374E+03  0.00000000000E+00 0. -1.
</event>
<event>
 4    1  0.5784609E+003  0.3679486E+02  0.7546771E-02  0.1368366E+00
          2   -1    0    0  501    0  0.00000000000E+00  0.00000000000E+00  0.63263868032E+02  0.63263868032E+02  0.00000000000E+00 0. -1.
         -2   -1    0    0    0  501 -0.00000000000E+00 -0.00000000000E+00 -0.41643872078E+02  0.41643872078E+02  0.00000000000E+00 0. -1.
          2    1    1    2  502    0  0.33683089811E+02 -0.14809155513E+02  0.47381791435E+02  0.59990797509E+02  0.00000000000E+00 0. -1.
         -2    1    1    2    0  502 -0.33683089811E+02  0.14809155513E+02 -0.25761795481E+02  0.44916942601E+02  0.00000000000E+00 0. -1.
</event>
<event>
 4    1  0.5784609E+003  0.2086157E+02  0.7546771E-02  0.1521251E+00
          2   -1    0    0  501    0  0.00000000000E+00  0.00000000000E+00  0.31144460716E+03  0.31144460716E+03  0.00000000000E+00 0. -1.
         -2   -1    0    0    0  501 -0.00000000000E+00 -0.00000000000E+00 -0.24361091485E+03  0.24361091485E+03  0.00000000000E+00 0. -1.
          2    1    1    2  502    0 -0.10927239309E+02 -0.17770774878E+02  0.31064749968E+03  0.31134719214E+03  0.00000000000E+00 0. -1.
         -2    1    1    2    0  502  0.10927239309E+02  0.17770774878E+02 -0.24281380737E+03  0.24370832987E+03  0.00000000000E+00 0. -1.
</event>
<event>
 4    1  0.5784609E+003  0.3732250E+02  0.7546771E-02  0.1364933E+00
          2   -1    0    0  501    0  0.00000000000E+00  0.00000000000E+00  0.24469617611E+04  0.24469617611E+04  0.00000000000E+00 0. -1.
         -2   -1    0    0    0  501 -0.00000000000E+00 -0.00000000000E+00 -0.14014303595E+03  0.14014303595E+03  0.00000000000E+00 0. -1.
          2    1    1    2  502    0 -0.27461341424E+02  0.25275356736E+02  0.24443318658E+04  0.24446167878E+04  0.00000000000E+00 0. -1.
         -2    1    1    2    0  502  0.27461341424E+02 -0.25275356736E+02 -0.13751314065E+03  0.14248800926E+03  0.00000000000E+00 0. -1.
</event>
<event>
 4    1  0.5784609E+003  0.2101333E+02  0.7546771E-02  0.1519075E+00
          2   -1    0    0  501    0  0.00000000000E+00  0.00000000000E+00  0.25371763090E+03  0.25371763090E+03  0.00000000000E+00 0. -1.
         -2   -1    0    0    0  501 -0.00000000000E+00 -0.00000000000E+00 -0.38138606617E+01  0.38138606617E+01  0.00000000000E+00 0.  1.
          2    1    1    2  502    0  0.18806019914E+02  0.93751618239E+01  0.21989642933E+03  0.22089816585E+03  0.00000000000E+00 0. -1.
         -2    1    1    2    0  502 -0.18806019914E+02 -0.93751618239E+01  0.30007340908E+02  0.36633325710E+02  0.00000000000E+00 0.  1.
</event>
<event>
 4    1  0.5784609E+003  0.2630694E+02  0.7546771E-02  0.1454697E+00
          2   -1    0    0  501    0  0.00000000000E+00  0.00000000000E+00  0.86447913664E+03  0.86447913664E+03  0.00000000000E+00 0. -1.
         -2   -1    0    0    0  501 -0.00000000000E+00 -0.00000000000E+00 -0.17352346867E+02  0.17352346867E+02  0.00000000000E+00 0.  1.
          2    1    1    2  502    0  0.68380565188E+01  0.25402682200E+02  0.85418827775E+03  0.85459327702E+03  0.00000000000E+00 0. -1.
         -2    1    1    2    0  502 -0.68380565188E+01 -0.25402682200E+02 -0.70614879818E+01  0.27238206484E+02  0.00000000000E+00 0.  1.
</event>
<event>
 4    1  0.5784609E+003  0.4505963E+02  0.7546771E-02  0.1321142E+00
          2   -1    0    0  501    0  0.00000000000E+00  0.00000000000E+00  0.17429820531E+04  0.17429820531E+04  0.00000000000E+00 0.  1.
         -2   -1    0    0    0  501 -0.00000000000E+00 -0.00000000000E+00 -0.12671108285E+01  0.12671108285E+01  0.00000000000E+00 0.  1.
          2    1    1    2  502    0  0.15737744283E+02 -0.42221954225E+02  0.11185745650E+04  0.11194817674E+04  0.00000000000E+00 0.  1.
         -2    1    1    2    0  502 -0.15737744283E+02  0.42221954225E+02  0.62314037727E+03  0.62476739655E+03  0.00000000000E+00 0.  1.
</event>
<event>
 4    1  0.5784609E+003  0.2074989E+02  0.7546771E-02  0.1522866E+00
          2   -1    0    0  501    0  0.00000000000E+00  0.00000000000E+00  0.14337506544E+04  0.14337506544E+04  0.00000000000E+00 0.  1.
         -2   -1    0    0    0  501 -0.00000000000E+00 -0.00000000000E+00 -0.93604314437E+00  0.93604314437E+00  0.00000000000E+00 0. -1.
          2    1    1    2  502    0 -0.18734399216E+02  0.89207702827E+01  0.13075868268E+04  0.13077514548E+04  0.00000000000E+00 0.  1.
         -2    1    1    2    0  502  0.18734399216E+02 -0.89207702827E+01  0.12522778452E+03  0.12693524283E+03  0.00000000000E+00 0. -1.
</event>
<event>
 4    1  0.5784609E+003  0.2406559E+02  0.7546771E-02  0.1479534E+00
          2   -1    0    0  501    0  0.00000000000E+00  0.00000000000E+00  0.30270050708E+02  0.30270050708E+02  0.00000000000E+00 0.  1.
         -2   -1    0    0    0  501 -0.00000000000E+00 -0.00000000000E+00 -0.31794994771E+02  0.31794994771E+02  0.00000000000E+00 0.  1.
          2    1    1    2  502    0  0.20669470397E+02 -0.12325813448E+02  0.18821065554E+02  0.30551353361E+02  0.00000000000E+00 0.  1.
         -2    1    1    2    0  502 -0.20669470397E+02  0.12325813448E+02 -0.20346009616E+02  0.31513692118E+02  0.00000000000E+00 0.  1.
</event>
<event>
 4    1  0.5784609E+003  0.2425254E+02  0.7546771E-02  0.1477342E+00
          2   -1    0    0  501    0  0.00000000000E+00  0.00000000000E+00  0.40821097169E+03  0.40821097169E+03  0.00000000000E+00 0. -1.
         -2   -1    0    0    0  501 -0.00000000000E+00 -0.00000000000E+00 -0.12083125211E+02  0.12083125211E+02  0.00000000000E+00 0. -1.
          2    1    1    2  502    0  0.21475826638E+02 -0.11268298575E+02  0.39528356000E+03  0.39602686587E+03  0.00000000000E+00 0. -1.
         -2    1    1    2    0  502 -0.21475826638E+02  0.11268298575E+02  0.84428648251E+00  0.24267231037E+02  0.00000000000E+00 0. -1.
</event>
<event>
 4    1  0.5784609E+003  0.2542206E+02  0.7546771E-02  0.1464137E+00
          2   -1    0    0  501    0  0.00000000000E+00  0.00000000000E+00  0.44725278419E+02  0.44725278419E+02  0.00000000000E+00 0. -1.
         -2   -1    0    0    0  501 -0.00000000000E+00 -0.00000000000E+00 -0.49963035310E+03  0.49963035310E+03  0.00000000000E+00 0.  1.
          2    1    1    2  502    0  0.24287912264E+02  0.75085722781E+01  0.40760515741E+02  0.48038536440E+02  0.00000000000E+00 0. -1.
         -2    1    1    2    0  502 -0.24287912264E+02 -0.75085722781E+01 -0.49566559042E+03  0.49631709508E+03  0.00000000000E+00 0.  1.
</event>
<event>
 4    1  0.5784609E+003  0.4768872E+02  0.7546771E-02  0.1308517E+00
          2   -1    0    0  501    0  0.00000000000E+00  0.00000000000E+00  0.59753733899E+03  0.59753733899E+03  0.00000000000E+00 0.  1.
         -2   -1    0    0    0  501 -0.00000000000E+00 -0.00000000000E+00 -0.55776149626E+01  0.55776149626E+01  0.00000000000E+00 0. -1.
          2    1    1    2  502    0 -0.17374988318E+02 -0.44410852636E+02  0.46593456419E+03  0.46836869254E+03  0.00000000000E+00 0.  1.
         -2    1    1    2    0  502  0.17374988318E+02  0.44410852636E+02  0.12602515984E+03  0.13474626141E+03  0.00000000000E+00 0. -1.
</event>
<event>
 4    1  0.5784609E+003  0.2041759E+02  0.7546771E-02  0.1527745E+00
          2   -1    0    0  501    0  0.00000000000E+00  0.00000000000E+00  0.15221669927E+02  0.15221669927E+02  0.00000000000E+00 0.  1.
         -2   -1    0    0    0  501 -0.00000000000E+00 -0.00000000000E+00 -0.60158113734E+02  0.60158113734E+02  0.00000000000E+00 0. -1.
          2    1    1    2  502    0  0.10547686720E+02 -0.17482115360E+02  0.53495561775E+01  0.21106771518E+02  0.00000000000E+00 0.  1.
         -2    1    1    2    0  502 -0.10547686720E+02  0.17482115360E+02 -0.50285999985E+02  0.54273012143E+02  0.00000000000E+00 0. -1.
</event>
<event>
 4    1  0.5784609E+003  0.2736464E+02  0.7546771E-02  0.1443979E+00
          2   -1    0    0  501    0  0.00000000000E+00  0.00000000000E+00  0.75158959558E+03  0.75158959558E+03  0.00000000000E+00 0. -1.
         -2   -1    0    0    0  501 -0.00000000000E+00 -0.00000000000E+00 -0.24797914842E+01  0.24797914842E+01  0.00000000000E+00 0.  1.
          2    1    1    2  502    0 -0.10981184643E+02  0.25064660963E+02  0.66617224807E+03  0.66673404573E+03  0.00000000000E+00 0. -1.
         -2    1    1    2    0  502  0.10981184643E+02 -0.25064660963E+02  0.82937556032E+02  0.87335341334E+02  0.00000000000E+00 0.  1.
</event>
<event>
 4    1  0.5784609E+003  0.2195740E+02  0.7546771E-02  0.1506022E+00
          2   -1    0    0  501    0  0.00000000000E+00  0.00000000000E+00  0.15732599625E+02  0.15732599625E+02  0.00000000000E+00 0.  1.
         -2   -1    0    0    0  501 -0.00000000000E+00 -0.00000000000E+00 -0.24231846565E+03  0.24231846565E+03  0.00000000000E+00 0. -1.
          2    1    1    2  502    0 -0.12692722026E+02  0.17917087222E+02  0.72982360147E+01  0.23138527521E+02  0.00000000000E+00 0.  1.
         -2    1    1    2    0  502  0.12692722026E+02 -0.17917087222E+02 -0.23388410204E+03  0.23491253775E+03  0.00000000000E+00 0. -1.
</event>
<event>
 4    1  0.5784609E+003  0.3533190E+02  0.7546771E-02  0.1378245E+00
          2   -1    0    0  501    0  0.00000000000E+00  0.00000000000E+00  0.21811810449E+04  0.21811810449E+04  0.00000000000E+00 0. -1.
         -2   -1    0    0    0  501 -0.00000000000E+00 -0.00000000000E+00 -0.93485269435E+01  0.93485269435E+01  0.00000000000E+00 0.  1.
          2    1    1    2  502    0 -0.25732214605E+02  0.24211485910E+02  0.21471250868E+04  0.21474157681E+04  0.00000000000E+00 0. -1.
         -2    1    1    2    0  502  0.25732214605E+02 -0.24211485910E+02  0.24707431254E+02  0.43113803794E+02  0.00000000000E+00 0.  1.
</event>
<event>
 4    1  0.5784609E+003  0.2174485E+02  0.7546771E-02  0.1508891E+00
          2   -1    0    0  501    0  0.00000000000E+00  0.00000000000E+00  0.73114466864E+03  0.73114466864E+03  0.00000000000E+00 0. -1.
         -2   -1    0    0    0  501 -0.00000000000E+00 -0.00000000000E+00 -0.18074519177E+02  0.18074519177E+02  0.00000000000E+00 0.  1.
          2    1    1    2  502    0  0.21653590155E+02 -0.19901586253E+01  0.72438181770E+03  0.72470811815E+03  0.00000000000E+00 0. -1.
         -2    1    1    2    0  502 -0.21653590155E+02  0.19901586253E+01 -0.11311668236E+02  0.24511069668E+02  0.00000000000E+00 0.  1.
</event>
<event>
 4    1  0.5784609E+003  0.2630163E+02  0.7546771E-02  0.1454752E+00
          2   -1    0    0  501    0  0.00000000000E+00  0.00000000000E+00  0.43972754472E+03  0.43972754472E+03  0.00000000000E+00 0.  1.
         -2   -1    0    0    0  501 -0.00000000000E+00 -0.00000000000E+00 -0.83674346314E+02  0.83674346314E+02  0.00000000000E+00 0. -1.
          2    1    1    2  502    0 -0.24990538474E+02  0.82005447009E+01  0.43725570316E+03  0.43804603170E+03  0.00000000000E+00 0.  1.
         -2    1    1    2    0  502  0.24990538474E+02 -0.82005447009E+01 -0.81202504744E+02  0.85355859338E+02  0.00000000000E+00 0. -1.
</event>
<event>
 4    1  0.5784609E+003  0.6601438E+02  0.7546771E-02  0.1240662E+00
          2   -1    0    0  501    0  0.00000000000E+00  0.00000000000E+00  0.23374828293E+02  0.23374828293E+02  0.00000000000E+00 0.  1.
         -2   -1    0    0    0  501 -0.00000000000E+00 -0.00000000000E+00 -0.27331080199E+03  0.27331080199E+03  0.00000000000E+00 0.  1.
          2    1    1    2  502    0  0.59131189124E+02 -0.29349638535E+02 -0.41333350300E+02  0.77886742494E+02  0.00000000000E+00 0.  1.
         -2    1    1    2    0  502 -0.59131189124E+02  0.29349638535E+02 -0.20860262340E+03  0.21879888779E+03  0.00000000000E+00 0.  1.
</event>
<event>
 4    1  0.5784609E+003  0.3854437E+02  0.7546771E-02  0.1357233E+00
          2   -1    0    0  501    0  0.00000000000E+00  0.00000000000E+00  0.22553498909E+03  0.22553498909E+03  0.00000000000E+00 0. -1.
         -2   -1    0    0    0  501 -0.00000000000E+00 -0.00000000000E+00 -0.14488062878E+02  0.14488062878E+02  0.00000000000E+00 0.  1.
          2    1    1    2  502    0  0.21518412827E+02  0.31978532875E+02  0.19414760934E+03  0.19793676482E+03  0.00000000000E+00 0. -1.
         -2    1    1    2    0  502 -0.21518412827E+02 -0.31978532875E+02  0.16899316877E+02  0.42086287153E+02  0.00000000000E+00 0.  1.
</event>
<event>
 4    1  0.5784609E+003  0.3430250E+02  0.7546771E-02  0.1385534E+00
          2   -1    0    0  501    0  0.00000000000E+00  0.00000000000E+00  0.70566968566E+03  0.70566968566E+03  0.00000000000E+00 0. -1.
         -2   -1    0    0    0  501 -0.00000000000E+00 -0.00000000000E+00 -0.20230057287E+01  0.20230057287E+01  0.00000000000E+00 0. -1.
          2    1    1    2  502    0  0.30700259195E+02 -0.15302140867E+02  0.50016955799E+03  0.50134444065E+03  0.00000000000E+00 0. -1.
         -2    1    1    2    0  502 -0.30700259195E+02  0.15302140867E+02  0.20347712193E+03  0.20634825073E+03  0.00000000000E+00 0. -1.
</event>
<event>
 4    1  0.5784609E+003  0.2464471E+02  0.7546771E-02  0.1472817E+00
          2   -1    0    0  501    0  0.00000000000E+00  0.00000000000E+00  0.13674688678E+04  0.13674688678E+04  0.00000000000E+00 0.  1.
         -2   -1    0    0    0  501 -0.00000000000E+00 -0.00000000000E+00 -0.13462367541E+01  0.13462367541E+01  0.00000000000E+00 0.  1.
          2    1    1    2  502    0  0.12844227505E+02  0.21033008790E+02  0.12433065415E+04  0.12435507701E+04  0.00000000000E+00 0.  1.
         -2    1    1    2    0  502 -0.12844227505E+02 -0.21033008790E+02  0.12281608954E+03  0.12526433447E+03  0.00000000000E+00 0.  1.
</event>
<event>
 4    1  0.5784609E+003  0.3687726E+02  0.7546771E-02  0.1367825E+00
          2   -1    0    0  501    0  0.00000000000E+00  0.00000000000E+00  0.14388739600E+04  0.14388739600E+04  0.00000000000E+00 0.  1.
         -2   -1    0    0    0  501 -0.00000000000E+00 -0.00000000000E+00 -0.27527030905E+02  0.27527030905E+02  0.00000000000E+00 0.  1.
          2    1    1    2  502    0  0.22505106001E+02  0.29213913217E+02  0.14261768528E+04  0.14266535487E+04  0.00000000000E+00 0.  1.
         -2    1    1    2    0  502 -0.22505106001E+02 -0.29213913217E+02 -0.14829923743E+02  0.39747442179E+02  0.00000000000E+00 0.  1.
</event>
<event>
 4    1  0.5784609E+003  0.2974859E+02  0.7546771E-02  0.1421794E+00
          2   -1    0    0  501    0  0.00000000000E+00  0.00000000000E+00  0.13836170714E+04  0.13836170714E+04  0.00000000000E+00 0. -1.
         -2   -1    0    0    0  501 -0.00000000000E+00 -0.00000000000E+00 -0.20411979439E+01  0.20411979439E+01  0.00000000000E+00 0. -1.
          2    1    1    2  502    0 -0.17760852146E+02 -0.23864848524E+02  0.12648956216E+04  0.12652453961E+04  0.00000000000E+00 0. -1.
         -2    1    1    2    0  502  0.17760852146E+02  0.23864848524E+02  0.11668025180E+03  0.12041287316E+03  0.00000000000E+00 0. -1.
</event>
<event>
 4    1  0.5784609E+003  0.2126060E+02  0.7546771E-02  0.1515576E+00
          2   -1    0    0  501    0  0.00000000000E+00  0.00000000000E+00  0.53854370245E+03  0.53854370245E+03  0.00000000000E+00 0. -1.
         -2   -1    0    0    0  501 -0.00000000000E+00 -0.00000000000E+00 -0.55633035429E+02  0.55633035429E+02  0.00000000000E+00 0. -1.
          2    1    1    2  502    0  0.18833000796E+02  0.98656631703E+01  0.53629412751E+03  0.53671538494E+03  0.00000000000E+00 0. -1.
         -2    1    1    2    0  502 -0.18833000796E+02 -0.98656631703E+01 -0.53383460485E+02  0.57461352944E+02  0.00000000000E+00 0. -1.
</event>
<event>
 4    1  0.5784609E+003  0.2906385E+02  0.7546771E-02  0.1427910E+00
          2   -1    0    0  501    0  0.00000000000E+00  0.00000000000E+00  0.40748867918E+03  0.40748867918E+03  0.00000000000E+00 0. -1.
         -2   -1    0    0    0  501 -0.00000000000E+00 -0.00000000000E+00 -0.12587826311E+02  0.12587826311E+02  0.00000000000E+00 0. -1.
          2    1    1    2  502    0  0.24088750673E+02  0.16261590412E+02  0.38941669757E+03  0.39049977155E+03  0.00000000000E+00 0. -1.
         -2    1    1    2    0  502 -0.24088750673E+02 -0.16261590412E+02  0.54841553047E+01  0.29576733949E+02  0.00000000000E+00 0. -1.
</event>
<event>
 4    1  0.5784609E+003  0.3064725E+02  0.7546771E-02  0.1414054E+00
          2   -1    0    0  501    0  0.00000000000E+00  0.00000000000E+00  0.11731024558E+04  0.11731024558E+04  0.00000000000E+00 0. -1.
         -2   -1    0    0    0  501 -0.00000000000E+00 -0.00000000000E+00 -0.88056783699E+02  0.88056783699E+02  0.00000000000E+00 0. -1.
          2    1    1    2  502    0 -0.29646179449E+02  0.77690433376E+01  0.11702291304E+04  0.11706303736E+04  0.00000000000E+00 0. -1.
         -2    1    1    2    0  502  0.29646179449E+02 -0.77690433376E+01 -0.85183458300E+02  0.90528865884E+02  0.00000000000E+00 0. -1.
</event>
<event>
 4    1  0.5784609E+003  0.2112445E+02  0.7546771E-02  0.1517495E+00
          2   -1    0    0  501    0  0.00000000000E+00  0.00000000000E+00  0.12744169322E+04  0.12744169322E+04  0.00000000000E+00 0. -1.
         -2   -1    0    0    0  501 -0.00000000000E+00 -0.00000000000E+00 -0.66219010550E+01  0.66219010550E+01  0.00000000000E+00 0.  1.
          2    1    1    2  502    0 -0.34804907981E+01  0.20835753689E+02  0.12572521835E+04  0.12574296383E+04  0.00000000000E+00 0. -1.
         -2    1    1    2    0  502  0.34804907981E+01 -0.20835753689E+02  0.10542847632E+02  0.23609194907E+02  0.00000000000E+00 0.  1.
</event>
<event>
 4    1  0.5784609E+003  0.2422579E+02  0.7546771E-02  0.1477654E+00
          2   -1    0    0  501    0  0.00000000000E+00  0.00000000000E+00  0.15264020485E+03  0.15264020485E+03  0.00000000000E+00 0. -1.
         -2   -1    0    0    0  501 -0.00000000000E+00 -0.00000000000E+00 -0.58553597837E+03  0.58553597837E+03  0.00000000000E+00 0. -1.
          2    1    1    2  502    0 -0.13914951211E+02 -0.19830858668E+02  0.15142640226E+03  0.15335202680E+03  0.00000000000E+00 0. -1.
         -2    1    1    2    0  502  0.13914951211E+02  0.19830858668E+02 -0.58432217578E+03  0.58482415642E+03  0.00000000000E+00 0. -1.
</event>
<event>
 4    1  0.5784609E+003  0.3026125E+02  0.7546771E-02  0.1417339E+00
          2   -1    0    0  501    0  0.00000000000E+00  0.00000000000E+00  0.29617992971E+03  0.29617992971E+03  0.00000000000E+00 0. -1.
         -2   -1    0    0    0  501 -0.00000000000E+00 -0.00000000000E+00 -0.10438386219E+02  0.10438386219E+02  0.00000000000E+00 0.  1.
          2    1    1    2  502    0 -0.29985396963E+02 -0.40766851990E+01  0.27148611515E+03  0.27316744702E+03  0.00000000000E+00 0. -1.
         -2    1    1    2    0  502  0.29985396963E+02  0.40766851990E+01  0.14255428336E+02  0.33450868902E+02  0.00000000000E+00 0.  1.
</event>
<event>
 4    1  0.5784609E+003  0.2066263E+02  0.7546771E-02  0.1524137E+00
          2   -1    0    0  501    0  0.00000000000E+00  0.00000000000E+00  0.28494415258E+02  0.28494415258E+02  0.00000000000E+00 0.  1.
         -2   -1    0    0    0  501 -0.00000000000E+00 -0.00000000000E+00 -0.34058216576E+02  0.34058216576E+02  0.00000000000E+00 0. -1.
          2    1    1    2  502    0  0.17676511545E+02 -0.10699776464E+02  0.20624487532E+02  0.29194413212E+02  0.00000000000E+00 0.  1.
         -2    1    1    2    0  502 -0.17676511545E+02  0.10699776464E+02 -0.26188288850E+02  0.33358218623E+02  0.00000000000E+00 0. -1.
</event>
<event>
 4    1  0.5784609E+003  0.2155460E+02  0.7546771E-02  0.1511492E+00
          2   -1    0    0  501    0  0.00000000000E+00  0.00000000000E+00  0.74314362892E+03  0.74314362892E+03  0.00000000000E+00 0. -1.
         -2   -1    0    0    0  501 -0.00000000000E+00 -0.00000000000E+00 -0.94657419009E+00  0.94657419009E+00  0.00000000000E+00 0. -1.
          2    1    1    2  502    0  0.16624599169E+02  0.13719439381E+02  0.15431032027E+03  0.15580845695E+03  0.00000000000E+00 0. -1.
         -2    1    1    2    0  502 -0.16624599169E+02 -0.13719439381E+02  0.58788673446E+03  0.58828174617E+03  0.00000000000E+00 0. -1.
</event>
<event>
 4    1  0.5784609E+003  0.3883723E+02  0.7546771E-02  0.1355438E+00
          2   -1    0    0  501    0  0.00000000000E+00  0.00000000000E+00  0.39578402374E+03  0.39578402374E+03  0.00000000000E+00 0.  1.
         -2   -1    0    0    0  501 -0.00000000000E+00 -0.00000000000E+00 -0.63655160719E+01  0.63655160719E+01  0.00000000000E+00 0.  1.
          2    1    1    2  502    0  0.18287844865E+02  0.34262008675E+02  0.32208760046E+03  0.32442064188E+03  0.00000000000E+00 0.  1.
         -2    1    1    2    0  502 -0.18287844865E+02 -0.34262008675E+02  0.67330907215E+02  0.77728897938E+02  0.00000000000E+00 0.  1.
</event>
<event>
 4    1  0.5784609E+003  0.2598422E+02  0.7546771E-02  0.1458087E+00
          2   -1    0    0  501    0  0.00000000000E+00  0.00000000000E+00  0.89664119823E+01  0.89664119823E+01  0.00000000000E+00 0. -1.
         -2   -1    0    0    0  501 -0.00000000000E+00 -0.00000000000E+00 -0.13877393095E+03  0.13877393095E+03  0.00000000000E+00 0.  1.
          2    1    1    2  502    0 -0.11198384077E+02  0.23447302083E+02 -0.14945253607E+02  0.29975663233E+02  0.00000000000E+00 0. -1.
         -2    1    1    2    0  502  0.11198384077E+02 -0.23447302083E+02 -0.11486226536E+03  0.11776467970E+03  0.00000000000E+00 0.  1.
</event>
<event>
 4    1  0.5784609E+003  0.3329939E+02  0.7546771E-02  0.1392930E+00
          2   -1    0    0  501    0  0.00000000000E+00  0.00000000000E+00  0.11625771674E+04  0.11625771674E+04  0.00000000000E+00 0.  1.
         -2   -1    0    0    0  501 -0.00000000000E+00 -0.00000000000E+00 -0.39453601213E+02  0.39453601213E+02  0.00000000000E+00 0. -1.
          2    1    1    2  502    0 -0.11600715061E+02  0.31213345626E+02  0.11552679877E+04  0.11557477981E+04  0.00000000000E+00 0.  1.
         -2    1    1    2    0  502  0.11600715061E+02 -0.31213345626E+02 -0.32144421418E+02  0.46282970554E+02  0.00000000000E+00 0. -1.
</event>
<event>
 4    1  0.5784609E+003  0.2536245E+02  0.7546771E-02  0.1464789E+00
          2   -1    0    0  501    0  0.00000000000E+00  0.00000000000E+00  0.98866676349E+02  0.98866676349E+02  0.00000000000E+00 0. -1.
         -2   -1    0    0    0  501 -0.00000000000E+00 -0.00000000000E+00 -0.95900176725E+02  0.95900176725E+02  0.00000000000E+00 0.  1.
          2    1    1    2  502    0  0.24055485865E+02  0.80366192076E+01  0.95505209248E+02  0.98815477745E+02  0.00000000000E+00 0. -1.
         -2    1    1    2    0  502 -0.24055485865E+02 -0.80366192076E+01 -0.92538709624E+02  0.95951375328E+02  0.00000000000E+00 0.  1.
</event>
<event>
 4    1  0.5784609E+003  0.2131517E+02  0.7546771E-02  0.1514812E+00
          2   -1    0    0  501    0  0.00000000000E+00  0.00000000000E+00  0.76976961604E+03  0.76976961604E+03  0.00000000000E+00 0. -1.
         -2   -1    0    0    0  501 -0.00000000000E+00 -0.00000000000E+00 -0.40312189641E+01  0.40312189641E+01  0.00000000000E+00 0. -1.
          2    1    1    2  502    0  0.27995395830E+01 -0.21130527803E+02  0.74032554521E+03  0.74063233086E+03  0.00000000000E+00 0. -1.
         -2    1    1    2    0  502 -0.27995395830E+01  0.21130527803E+02  0.25412851867E+02  0.33168504144E+02  0.00000000000E+00 0. -1.
</event>
<event>
 4    1  0.5784609E+003  0.2528780E+02  0.7546771E-02  0.1465609E+00
          2   -1    0    0  501    0  0.00000000000E+00  0.00000000000E+00  0.15686690726E+04  0.15686690726E+04  0.00000000000E+00 0.  1.
         -2   -1    0    0    0  501 -0.00000000000E+00 -0.00000000000E+00 -0.11736820471E+01  0.11736820471E+01  0.00000000000E+00 0. -1.
          2    1    1    2  502    0 -0.16933891831E+02  0.18780736917E+02  0.14178707223E+04  0.14180962090E+04  0.00000000000E+00 0.  1.
         -2    1    1    2    0  502  0.16933891831E+02 -0.18780736917E+02  0.14962466825E+03  0.15174654567E+03  0.00000000000E+00 0. -1.
</event>
<event>
 4    1  0.5784609E+003  0.2251986E+02  0.7546771E-02  0.1498617E+00
          2   -1    0    0  501    0  0.00000000000E+00  0.00000000000E+00  0.61091692920E+01  0.61091692920E+01  0.00000000000E+00 0. -1.
         -2   -1    0    0    0  501 -0.00000000000E+00 -0.00000000000E+00 -0.37336882816E+03  0.37336882816E+03  0.00000000000E+00 0. -1.
          2    1    1    2  502    0 -0.20983079706E+02  0.81764598115E+01 -0.16308077918E+02  0.27804631527E+02  0.00000000000E+00 0. -1.
         -2    1    1    2    0  502  0.20983079706E+02 -0.81764598115E+01 -0.35095158095E+03  0.35167336592E+03  0.00000000000E+00 0. -1.
</event>
<event>
 4    1  0.5784609E+003  0.2132960E+02  0.7546771E-02  0.1514611E+00
          2   -1    0    0  501    0  0.00000000000E+00  0.00000000000E+00  0.66304560264E+03  0.66304560264E+03  0.00000000000E+00 0. -1.
         -2   -1    0    0    0  501 -0.00000000000E+00 -0.00000000000E+00 -0.68679975732E+00  0.68679975732E+00  0.00000000000E+00 0. -1.
          2    1    1    2  502    0 -0.13644410928E+02 -0.16394555203E+02  0.32100324153E+03  0.32171110093E+03  0.00000000000E+00 0. -1.
         -2    1    1    2    0  502  0.13644410928E+02  0.16394555203E+02  0.34135556135E+03  0.34202130147E+03  0.00000000000E+00 0. -1.
</event>
<event>
 4    1  0.5784609E+003  0.2381483E+02  0.7546771E-02  0.1482512E+00
          2   -1    0    0  501    0  0.00000000000E+00  0.00000000000E+00  0.16924528228E+02  0.16924528228E+02  0.00000000000E+00 0.  1.
         -2   -1    0    0    0  501 -0.00000000000E+00 -0.00000000000E+00 -0.12278594752E+03  0.12278594752E+03  0.00000000000E+00 0.  1.
          2    1    1    2  502    0 -0.57320753804E+01 -0.23114700942E+02  0.66342891467E+01  0.24721648009E+02  0.00000000000E+00 0.  1.
         -2    1    1    2    0  502  0.57320753804E+01  0.23114700942E+02 -0.11249570843E+03  0.11498882774E+03  0.00000000000E+00 0.  1.
</event>
<event>
 4    1  0.5784609E+003  0.2488400E+02  0.7546771E-02  0.1470105E+00
          2   -1    0    0  501    0  0.00000000000E+00  0.00000000000E+00  0.14927623736E+04  0.14927623736E+04  0.00000000000E+00 0.  1.
         -2   -1    0    0    0  501 -0.00000000000E+00 -0.00000000000E+00 -0.68868786948E+00  0.68868786948E+00  0.00000000000E+00 0.  1.
          2    1    1    2  502    0  0.24719562475E+02 -0.28560229384E+01  0.12169358652E+04  0.12171902537E+04  0.00000000000E+00 0.  1.
         -2    1    1    2    0  502 -0.24719562475E+02  0.28560229384E+01  0.27513782055E+03  0.27626080782E+03  0.00000000000E+00 0.  1.
</event>
<event>
 4    1  0.5784609E+003  0.2382700E+02  0.7546771E-02  0.1482367E+00
          2   -1    0    0  501    0  0.00000000000E+00  0.00000000000E+00  0.30457274868E+02  0.30457274868E+02  0.00000000000E+00 0.  1.
         -2   -1    0    0    0  501 -0.00000000000E+00 -0.00000000000E+00 -0.12639790271E+04  0.12639790271E+04  0.00000000000E+00 0. -1.
          2    1    1    2  502    0 -0.18958507079E+01 -0.23751453621E+02  0.25667242034E+02  0.35021894761E+02  0.00000000000E+00 0.  1.
         -2    1    1    2    0  502  0.18958507079E+01  0.23751453621E+02 -0.12591889943E+04  0.12594144072E+04  0.00000000000E+00 0. -1.
</event>
<event>
 4    1  0.5784609E+003  0.2095131E+02  0.7546771E-02  0.1519961E+00
          2   -1    0    0  501    0  0.00000000000E+00  0.00000000000E+00  0.90637816371E+02  0.90637816371E+02  0.00000000000E+00 0.  1.
         -2   -1    0    0    0  501 -0.00000000000E+00 -0.00000000000E+00 -0.21290273152E+02  0.21290273152E+02  0.00000000000E+00 0. -1.
          2    1    1    2  502    0 -0.26925094661E+01  0.20777575022E+02  0.83862509657E+02  0.86440024046E+02  0.00000000000E+00 0.  1.
         -2    1    1    2    0  502  0.26925094661E+01 -0.20777575022E+02 -0.14514966439E+02  0.25488065477E+02  0.00000000000E+00 0. -1.
</event>
<event>
 4    1  0.5784609E+003  0.2888361E+02  0.7546771E-02  0.1429552E+00
          2   -1    0    0  501    0  0.00000000000E+00  0.00000000000E+00  0.12398409488E+04  0.12398409488E+04  0.00000000000E+00 0. -1.
         -2   -1    0    0    0  501 -0.00000000000E+00 -0.00000000000E+00 -0.58353587938E+01  0.58353587938E+01  0.00000000000E+00 0. -1.
          2    1    1    2  502    0 -0.22592715567E+02 -0.17995338953E+02  0.12028314438E+04  0.12031781851E+04  0.00000000000E+00 0. -1.
         -2    1    1    2    0  502  0.22592715567E+02  0.17995338953E+02  0.31174146246E+02  0.42498122487E+02  0.00000000000E+00 0. -1.
</event>
<event>
 4    1  0.5784609E+003  0.2445812E+02  0.7546771E-02  0.1474958E+00
          2   -1    0    0  501    0  0.00000000000E+00  0.00000000000E+00  0.12312839457E+03  0.12312839457E+03  0.00000000000E+00 0.  1.
         -2   -1    0    0    0  501 -0.00000000000E+00 -0.00000000000E+00 -0.19378059704E+02  0.19378059704E+02  0.00000000000E+00 0. -1.
          2    1    1    2  502    0 -0.91800090418E+01 -0.22669955391E+02  0.11355291851E+03  0.11615706929E+03  0.00000000000E+00 0.  1.
         -2    1    1    2    0  502  0.91800090418E+01  0.22669955391E+02 -0.98025836385E+01  0.26349384991E+02  0.00000000000E+00 0. -1.
</event>
<event>
 4    1  0.5784609E+003  0.2292336E+02  0.7546771E-02  0.1493463E+00
          2   -1    0    0  501    0  0.00000000000E+00  0.00000000000E+00  0.89039515967E+03  0.89039515967E+03  0.00000000000E+00 0.  1.
         -2   -1    0    0    0  501 -0.00000000000E+00 -0.00000000000E+00 -0.83589865046E+00  0.83589865046E+00  0.00000000000E+00 0. -1.
          2    1    1    2  502    0  0.21884142555E+02  0.68238249041E+01  0.68639001729E+03  0.68677269610E+03  0.00000000000E+00 0.  1.
         -2    1    1    2    0  502 -0.21884142555E+02 -0.68238249041E+01  0.20316924373E+03  0.20445836221E+03  0.00000000000E+00 0. -1.
</event>
<event>
 4    1  0.5784609E+003  0.2759906E+02  0.7546771E-02  0.1441682E+00
          2   -1    0    0  501    0  0.00000000000E+00  0.00000000000E+00  0.28035677830E+02  0.28035677830E+02  0.00000000000E+00 0. -1.
         -2   -1    0    0    0  501 -0.00000000000E+00 -0.00000000000E+00 -0.85608569120E+02  0.85608569120E+02  0.00000000000E+00 0.  1.
          2    1    1    2  502    0  0.12882728053E+02 -0.24407853058E+02  0.18160945398E+02  0.33038279476E+02  0.00000000000E+00 0. -1.
         -2    1    1    2    0  502 -0.12882728053E+02  0.24407853058E+02 -0.75733836688E+02  0.80605967475E+02  0.00000000000E+00 0.  1.
</event>
<event>
 4    1  0.5784609E+003  0.2118261E+02  0.7546771E-02  0.1516674E+00
          2   -1    0    0  501    0  0.00000000000E+00  0.00000000000E+00  0.10991019472E+04  0.10991019472E+04  0.00000000000E+00 0.  1.
         -2   -1    0    0    0  501 -0.00000000000E+00 -0.00000000000E+00 -0.40880180451E+00  0.40880180451E+00  0.00000000000E+00 0.  1.
          2    1    1    2  502    0  0.17857230552E+02  0.11393956454E+02  0.56963488539E+03  0.57002860067E+03  0.00000000000E+00 0.  1.
         -2    1    1    2    0  502 -0.17857230552E+02 -0.11393956454E+02  0.52905826002E+03  0.52948214835E+03  0.00000000000E+00 0.  1.
</event>
<event>
 4    1  0.5784609E+003  0.4060947E+02  0.7546771E-02  0.1344951E+00
          2   -1    0    0  501    0  0.00000000000E+00  0.00000000000E+00  0.13136225519E+03  0.13136225519E+03  0.00000000000E+00 0.  1.
         -2   -1    0    0    0  501 -0.00000000000E+00 -0.00000000000E+00 -0.23608031153E+02  0.23608031153E+02  0.00000000000E+00 0.  1.
          2    1    1    2  502    0 -0.26183233076E+02 -0.31041381053E+02  0.10689809907E+03  0.11435179324E+03  0.00000000000E+00 0.  1.
         -2    1    1    2    0  502  0.26183233076E+02  0.31041381053E+02  0.85612496601E+00  0.40618493103E+02  0.00000000000E+00 0.  1.
</event>
<event>
 4    1  0.5784609E+003  0.2938702E+02  0.7546771E-02  0.1424999E+00
          2   -1    0    0  501    0  0.00000000000E+00  0.00000000000E+00  0.19972080111E+04  0.19972080111E+04  0.00000000000E+00 0. -1.
         -2   -1    0    0    0  501 -0.00000000000E+00 -0.00000000000E+00 -0.67280491067E+02  0.67280491067E+02  0.00000000000E+00 0.  1.
          2    1    1    2  502    0 -0.13408831916E+02 -0.26149578235E+02  0.19938856201E+04  0.19941021698E+04  0.00000000000E+00 0. -1.
         -2    1    1    2    0  502  0.13408831916E+02  0.26149578235E+02 -0.63958100130E+02  0.70386332391E+02  0.00000000000E+00 0.  1.
</event>
<event>
 4    1  0.5784609E+003  0.2248770E+02  0.7546771E-02  0.1499033E+00
          2   -1    0    0  501    0  0.00000000000E+00  0.00000000000E+00  0.71936814061E+02  0.71936814061E+02  0.00000000000E+00 0. -1.
         -2   -1    0    0    0  501 -0.00000000000E+00 -0.00000000000E+00 -0.20482356298E+02  0.20482356298E+02  0.00000000000E+00 0.  1.
          2    1    1    2  502    0 -0.19981764049E+02 -0.10316293698E+02  0.63176688389E+02  0.67059606068E+02  0.00000000000E+00 0. -1.
         -2    1    1    2    0  502  0.19981764049E+02  0.10316293698E+02 -0.11722230627E+02  0.25359564291E+02  0.00000000000E+00 0.  1.
</event>
<event>
 4    1  0.5784609E+003  0.2224607E+02  0.7546771E-02  0.1502189E+00
          2   -1    0    0  501    0  0.00000000000E+00  0.00000000000E+00  0.17824569045E+04  0.17824569045E+04  0.00000000000E+00 0. -1.
         -2   -1    0    0    0  501 -0.00000000000E+00 -0.00000000000E+00 -0.78771695754E+00  0.78771695754E+00  0.00000000000E+00 0. -1.
          2    1    1    2  502    0 -0.63709635135E+01  0.21314280887E+02  0.16083184787E+04  0.16084723239E+04  0.00000000000E+00 0. -1.
         -2    1    1    2    0  502  0.63709635135E+01 -0.21314280887E+02  0.17335070883E+03  0.17477229756E+03  0.00000000000E+00 0. -1.
</event>
<event>
 4    1  0.5784609E+003  0.2928698E+02  0.7546771E-02  0.1425895E+00
          2   -1    0    0  501    0  0.00000000000E+00  0.00000000000E+00  0.12958164436E+04  0.12958164436E+04  0.00000000000E+00 0.  1.
         -2   -1    0    0    0  501 -0.00000000000E+00 -0.00000000000E+00 -0.13542129289E+01  0.13542129289E+01  0.00000000000E+00 0.  1.
          2    1    1    2  502    0  0.40712476005E+01 -0.29002603452E+02  0.18349729189E+03  0.18581975728E+03  0.00000000000E+00 0.  1.
         -2    1    1    2    0  502 -0.40712476005E+01  0.29002603452E+02  0.11109649388E+04  0.11113508993E+04  0.00000000000E+00 0.  1.
</event>
<event>
 4    1  0.5784609E+003  0.4922935E+02  0.7546771E-02  0.1301549E+00
          2   -1    0    0  501    0  0.00000000000E+00  0.00000000000E+00  0.91714752558E+03  0.91714752558E+03  0.00000000000E+00 0.  1.
         -2   -1    0    0    0  501 -0.00000000000E+00 -0.00000000000E+00 -0.65390182857E+02  0.65390182857E+02  0.00000000000E+00 0.  1.
          2    1    1    2  502    0  0.27620242580E+02 -0.40751087928E+02  0.90711890365E+03  0.90845376014E+03  0.00000000000E+00 0.  1.
         -2    1    1    2    0  502 -0.27620242580E+02  0.40751087928E+02 -0.55361560921E+02  0.74083948296E+02  0.00000000000E+00 0.  1.
</event>
<event>
 4    1  0.5784609E+003  0.3849441E+02  0.7546771E-02  0.1357542E+00
          2   -1    0    0  501    0  0.00000000000E+00  0.00000000000E+00  0.31461324968E+03  0.31461324968E+03  0.00000000000E+00 0.  1.
         -2   -1    0    0    0  501 -0.00000000000E+00 -0.00000000000E+00 -0.12682381103E+02  0.12682381103E+02  0.00000000000E+00 0. -1.
          2    1    1    2  502    0 -0.33879783428E+02  0.18275117585E+02  0.28071460660E+03  0.28334168420E+03  0.00000000000E+00 0.  1.
         -2    1    1    2    0  502  0.33879783428E+02 -0.18275117585E+02  0.21216261981E+02  0.43953946584E+02  0.00000000000E+00 0. -1.
</event>
<event>
 4    1  0.5784609E+003  0.4274497E+02  0.7546771E-02  0.1333110E+00
          2   -1    0    0  501    0  0.00000000000E+00  0.00000000000E+00  0.39190374370E+03  0.39190374370E+03  0.00000000000E+00 0.  1.
         -2   -1    0    0    0  501 -0.00000000000E+00 -0.00000000000E+00 -0.57349460066E+01  0.57349460066E+01  0.00000000000E+00 0. -1.
          2    1    1    2  502    0 -0.13458236764E+02 -0.40571005998E+02  0.10709518893E+03  0.11531049456E+03  0.00000000000E+00 0. -1.
         -2    1    1    2    0  502  0.13458236764E+02  0.40571005998E+02  0.27907360876E+03  0.28232819514E+03  0.00000000000E+00 0.  1.
</event>
<event>
 4    1  0.5784609E+003  0.2665957E+02  0.7546771E-02  0.1451058E+00
          2   -1    0    0  501    0  0.00000000000E+00  0.00000000000E+00  0.30293891865E+02  0.30293891865E+02  0.00000000000E+00 0.  1.
         -2   -1    0    0    0  501 -0.00000000000E+00 -0.00000000000E+00 -0.28542267293E+03  0.28542267293E+03  0.00000000000E+00 0.  1.
          2    1    1    2  502    0 -0.25631730348E+02 -0.73312421880E+01  0.23666951155E+02  0.35649085396E+02  0.00000000000E+00 0.  1.
         -2    1    1    2    0  502  0.25631730348E+02  0.73312421880E+01 -0.27879573222E+03  0.28006747940E+03  0.00000000000E+00 0.  1.
</event>
<event>
 4    1  0.5784609E+003  0.2684109E+02  0.7546771E-02  0.1449211E+00
          2   -1    0    0  501    0  0.00000000000E+00  0.00000000000E+00  0.13630059049E+04  0.13630059049E+04  0.00000000000E+00 0.  1.
         -2   -1    0    0    0  501 -0.00000000000E+00 -0.00000000000E+00 -0.30441987021E+02  0.30441987021E+02  0.00000000000E+00 0.  1.
          2    1    1    2  502    0 -0.25755049632E+02  0.75578811736E+01  0.13569307423E+04  0.13571961846E+04  0.00000000000E+00 0.  1.
         -2    1    1    2    0  502  0.25755049632E+02 -0.75578811736E+01 -0.24366824425E+02  0.36251707297E+02  0.00000000000E+00 0.  1.
</event>
<event>
 4    1  0.5784609E+003  0.2017629E+02  0.7546771E-02  0.1531358E+00
          2   -1    0    0  501    0  0.00000000000E+00  0.00000000000E+00  0.34285502412E+03  0.34285502412E+03  0.00000000000E+00 0. -1.
         -2   -1    0    0    0  501 -0.00000000000E+00 -0.00000000000E+00 -0.22905007572E+01  0.22905007572E+01  0.00000000000E+00 0.  1.
          2    1    1    2  502    0 -0.16938946175E+02 -0.10961513493E+02  0.29004674520E+03  0.29074765188E+03  0.00000000000E+00 0. -1.
         -2    1    1    2    0  502  0.16938946175E+02  0.10961513493E+02  0.50517778168E+02  0.54397872997E+02  0.00000000000E+00 0.  1.
</event>
<event>
 4    1  0.5784609E+003  0.3472319E+02  0.7546771E-02  0.1382520E+00
          2   -1    0    0  501    0  0.00000000000E+00  0.00000000000E+00  0.42215524391E+01  0.42215524391E+01  0.00000000000E+00 0. -1.
         -2   -1    0    0    0  501 -0.00000000000E+00 -0.00000000000E+00 -0.32904614604E+03  0.32904614604E+03  0.00000000000E+00 0.  1.
          2    1    1    2  502    0 -0.18793802128E+02 -0.29197479834E+02 -0.10186684821E+03  0.10762227739E+03  0.00000000000E+00 0. -1.
         -2    1    1    2    0  502  0.18793802128E+02  0.29197479834E+02 -0.22295774539E+03  0.22564542108E+03  0.00000000000E+00 0.  1.
</event>
<event>
 4    1  0.5784609E+003  0.2146581E+02  0.7546771E-02  0.1512717E+00
          2   -1    0    0  501    0  0.00000000000E+00  0.00000000000E+00  0.56216274063E+00  0.56216274063E+00  0.00000000000E+00 0.  1.
         -2   -1    0    0    0  501 -0.00000000000E+00 -0.00000000000E+00 -0.10335008888E+04  0.10335008888E+04  0.00000000000E+00 0.  1.
          2    1    1    2  502    0 -0.17989327869E+02 -0.11711727732E+02 -0.75165471848E+03  0.75196116675E+03  0.00000000000E+00 0.  1.
         -2    1    1    2    0  502  0.17989327869E+02  0.11711727732E+02 -0.28128400754E+03  0.28210188475E+03  0.00000000000E+00 0.  1.
</event>
<event>
 4    1  0.5784609E+003  0.2128893E+02  0.7546771E-02  0.1515179E+00
          2   -1    0    0  501    0  0.00000000000E+00  0.00000000000E+00  0.13703437388E+01  0.13703437388E+01  0.00000000000E+00 0.  1.
         -2   -1    0    0    0  501 -0.00000000000E+00 -0.00000000000E+00 -0.58166642226E+03  0.58166642226E+03  0.00000000000E+00 0.  1.
          2    1    1    2  502    0 -0.53057360403E+01  0.20617167298E+02 -0.98674893895E+02  0.10094529760E+03  0.00000000000E+00 0.  1.
         -2    1    1    2    0  502  0.53057360403E+01 -0.20617167298E+02 -0.48162118463E+03  0.48209146840E+03  0.00000000000E+00 0.  1.
</event>
<event>
 4    1  0.5784609E+003  0.2525929E+02  0.7546771E-02  0.1465924E+00
          2   -1    0    0  501    0  0.00000000000E+00  0.00000000000E+00  0.45652952004E+03  0.45652952004E+03  0.00000000000E+00 0.  1.
         -2   -1    0    0    0  501 -0.00000000000E+00 -0.00000000000E+00 -0.13831204684E+02  0.13831204684E+02  0.00000000000E+00 0.  1.
          2    1    1    2  502    0 -0.12824265780E+02 -0.21761657286E+02  0.44433131835E+03  0.44504870743E+03  0.00000000000E+00 0.  1.
         -2    1    1    2    0  502  0.12824265780E+02  0.21761657286E+02 -0.16330029943E+01  0.25312017292E+02  0.00000000000E+00 0.  1.
</event>
<event>
 4    1  0.5784609E+003  0.2149184E+02  0.7546771E-02  0.1512357E+00
          2   -1    0    0  501    0  0.00000000000E+00  0.00000000000E+00  0.31051740330E+02  0.31051740330E+02  0.00000000000E+00 0.  1.
         -2   -1    0    0    0  501 -0.00000000000E+00 -0.00000000000E+00 -0.29177656650E+03  0.29177656650E+03  0.00000000000E+00 0.  1.
          2    1    1    2  502    0 -0.11898873219E+02  0.17897372010E+02  0.26883367732E+02  0.34418230189E+02  0.00000000000E+00 0.  1.
         -2    1    1    2    0  502  0.11898873219E+02 -0.17897372010E+02 -0.28760819390E+03  0.28841007664E+03  0.00000000000E+00 0.  1.
</event>
<event>
 4    1  0.5784609E+003  0.4200524E+02  0.7546771E-02  0.1337120E+00
          2   -1    0    0  501    0  0.00000000000E+00  0.00000000000E+00  0.61338179257E+01  0.61338179257E+01  0.00000000000E+00 0. -1.
         -2   -1    0    0    0  501 -0.00000000000E+00 -0.00000000000E+00 -0.28770963360E+03  0.28770963360E+03  0.00000000000E+00 0. -1.
          2    1    1    2  502    0  0.25974825727E+02  0.33011310888E+02 -0.14276722314E+03  0.14881840687E+03  0.00000000000E+00 0. -1.
         -2    1    1    2    0  502 -0.25974825727E+02 -0.33011310888E+02 -0.13880859253E+03  0.14502504466E+03  0.00000000000E+00 0. -1.
</event>
<event>
 4    1  0.5784609E+003  0.2052218E+02  0.7546771E-02  0.1526197E+00
          2   -1    0    0  501    0  0.00000000000E+00  0.00000000000E+00  0.89266822674E+02  0.89266822674E+02  0.00000000000E+00 0. -1.
         -2   -1    0    0    0  501 -0.00000000000E+00 -0.00000000000E+00 -0.10391653358E+02  0.10391653358E+02  0.00000000000E+00 0. -1.
          2    1    1    2  502    0 -0.88965000357E+01 -0.18493570495E+02  0.76256734062E+02  0.78969926886E+02  0.00000000000E+00 0. -1.
         -2    1    1    2    0  502  0.88965000357E+01  0.18493570495E+02  0.26184352535E+01  0.20688549145E+02  0.00000000000E+00 0. -1.
</event>
<event>
 4    1  0.5784609E+003  0.2645560E+02  0.7546771E-02  0.1453155E+00
          2   -1    0    0  501    0  0.00000000000E+00  0.00000000000E+00  0.58761674104E+02  0.58761674104E+02  0.00000000000E+00 0.  1.
         -2   -1    0    0    0  501 -0.00000000000E+00 -0.00000000000E+00 -0.45839049153E+02  0.45839049153E+02  0.00000000000E+00 0. -1.
          2    1    1    2  502    0 -0.25146984163E+02 -0.82175469034E+01  0.51456656711E+02  0.57859194684E+02  0.00000000000E+00 0.  1.
         -2    1    1    2    0  502  0.25146984163E+02  0.82175469034E+01 -0.38534031761E+02  0.46741528573E+02  0.00000000000E+00 0. -1.
</event>
<event>
 4    1  0.5784609E+003  0.2615771E+02  0.7546771E-02  0.1456258E+00
          2   -1    0    0  501    0  0.00000000000E+00  0.00000000000E+00  0.15693024136E+03  0.15693024136E+03  0.00000000000E+00 0. -1.
         -2   -1    0    0    0  501 -0.00000000000E+00 -0.00000000000E+00 -0.26240470545E+02  0.26240470545E+02  0.00000000000E+00 0.  1.
          2    1    1    2  502    0  0.12471442793E+02  0.22993231396E+02  0.14897601104E+03  0.15125500799E+03  0.00000000000E+00 0. -1.
         -2    1    1    2    0  502 -0.12471442793E+02 -0.22993231396E+02 -0.18286240223E+02  0.31915703922E+02  0.00000000000E+00 0.  1.
</event>
<event>
 4    1  0.5784609E+003  0.2133067E+02  0.7546771E-02  0.1514596E+00
          2   -1    0    0  501    0  0.00000000000E+00  0.00000000000E+00  0.11929462572E+03  0.11929462572E+03  0.00000000000E+00 0. -1.
         -2   -1    0    0    0  501 -0.00000000000E+00 -0.00000000000E+00 -0.43622759257E+02  0.43622759257E+02  0.00000000000E+00 0. -1.
          2    1    1    2  502    0  0.21269670678E+02  0.16119601096E+01  0.11565210148E+03  0.11760274607E+03  0.00000000000E+00 0. -1.
         -2    1    1    2    0  502 -0.21269670678E+02 -0.16119601096E+01 -0.39980235024E+02  0.45314638901E+02  0.00000000000E+00 0. -1.
</event>
<event>
 4    1  0.5784609E+003  0.2432391E+02  0.7546771E-02  0.1476511E+00
          2   -1    0    0  501    0  0.00000000000E+00  0.00000000000E+00  0.29198472780E+01  0.29198472780E+01  0.00000000000E+00 0.  1.
         -2   -1    0    0    0  501 -0.00000000000E+00 -0.00000000000E+00 -0.20290714748E+03  0.20290714748E+03  0.00000000000E+00 0.  1.
          2    1    1    2  502    0 -0.83264557936E+00 -0.24309657631E+02 -0.96199832432E+02  0.99227317372E+02  0.00000000000E+00 0.  1.
         -2    1    1    2    0  502  0.83264557936E+00  0.24309657631E+02 -0.10378746777E+03  0.10659967739E+03  0.00000000000E+00 0.  1.
</event>
<event>
 4    1  0.5784609E+003  0.2067792E+02  0.7546771E-02  0.1523913E+00
          2   -1    0    0  501    0  0.00000000000E+00  0.00000000000E+00  0.16099329432E+01  0.16099329432E+01  0.00000000000E+00 0.  1.
         -2   -1    0    0    0  501 -0.00000000000E+00 -0.00000000000E+00 -0.26725485478E+03  0.26725485478E+03  0.00000000000E+00 0. -1.
          2    1    1    2  502    0  0.20676979972E+02 -0.19565642141E+00 -0.14344527971E+03  0.14492799610E+03  0.00000000000E+00 0.  1.
         -2    1    1    2    0  502 -0.20676979972E+02  0.19565642141E+00 -0.12219964213E+03  0.12393679162E+03  0.00000000000E+00 0. -1.
</event>
<event>
 4    1  0.5784609E+003  0.2779353E+02  0.7546771E-02  0.1439796E+00
          2   -1    0    0  501    0  0.00000000000E+00  0.00000000000E+00  0.49822635611E+03  0.49822635611E+03  0.00000000000E+00 0. -1.
         -2   -1    0    0    0  501 -0.00000000000E+00 -0.00000000000E+00 -0.20298569974E+02  0.20298569974E+02  0.00000000000E+00 0.  1.
          2    1    1    2  502    0 -0.15598029260E+02  0.23003953465E+02  0.48812810228E+03  0.48891873008E+03  0.00000000000E+00 0. -1.
         -2    1    1    2    0  502  0.15598029260E+02 -0.23003953465E+02 -0.10200316147E+02  0.29606195996E+02  0.00000000000E+00 0.  1.
</event>
<event>
 4    1  0.5784609E+003  0.4810646E+02  0.7546771E-02  0.1306598E+00
          2   -1    0    0  501    0  0.00000000000E+00  0.00000000000E+00  0.42560345173E+03  0.42560345173E+03  0.00000000000E+00 0. -1.
         -2   -1    0    0    0  501 -0.00000000000E+00 -0.00000000000E+00 -0.35705682769E+03  0.35705682769E+03  0.00000000000E+00 0.  1.
          2    1    1    2  502    0  0.41043546053E+02 -0.25093005133E+02  0.42261228517E+03  0.42534148064E+03  0.00000000000E+00 0. -1.
         -2    1    1    2    0  502 -0.41043546053E+02  0.25093005133E+02 -0.35406566112E+03  0.35731879878E+03  0.00000000000E+00 0.  1.
</event>
<event>
 4    1  0.5784609E+003  0.2520217E+02  0.7546771E-02  0.1466554E+00
          2   -1    0    0  501    0  0.00000000000E+00  0.00000000000E+00  0.90963424965E+03  0.90963424965E+03  0.00000000000E+00 0. -1.
         -2   -1    0    0    0  501 -0.00000000000E+00 -0.00000000000E+00 -0.20208810880E+01  0.20208810880E+01  0.00000000000E+00 0. -1.
          2    1    1    2  502    0 -0.17446772382E+02 -0.18186798232E+02  0.82257197804E+03  0.82295796281E+03  0.00000000000E+00 0. -1.
         -2    1    1    2    0  502  0.17446772382E+02  0.18186798232E+02  0.85041390522E+02  0.88697167928E+02  0.00000000000E+00 0. -1.
</event>
<event>
 4    1  0.5784609E+003  0.3254894E+02  0.7546771E-02  0.1398665E+00
          2   -1    0    0  501    0  0.00000000000E+00  0.00000000000E+00  0.17017711569E+03  0.17017711569E+03  0.00000000000E+00 0.  1.
         -2   -1    0    0    0  501 -0.00000000000E+00 -0.00000000000E+00 -0.11186135745E+02  0.11186135745E+02  0.00000000000E+00 0.  1.
          2    1    1    2  502    0  0.20600071458E+02 -0.25200605221E+02  0.13988326116E+03  0.14362019426E+03  0.00000000000E+00 0.  1.
         -2    1    1    2    0  502 -0.20600071458E+02  0.25200605221E+02  0.19107718788E+02  0.37743057174E+02  0.00000000000E+00 0.  1.
</event>
<event>
 4    1  0.5784609E+003  0.2505890E+02  0.7546771E-02  0.1468146E+00
          2   -1    0    0  501    0  0.00000000000E+00  0.00000000000E+00  0.14185918496E+04  0.14185918496E+04  0.00000000000E+00 0. -1.
         -2   -1    0    0    0  501 -0.00000000000E+00 -0.00000000000E+00 -0.13329177739E+01  0.13329177739E+01  0.00000000000E+00 0.  1.
          2    1    1    2  502    0 -0.11946830468E+02  0.22027746834E+02  0.12888491907E+04  0.12890927759E+04  0.00000000000E+00 0. -1.
         -2    1    1    2    0  502  0.11946830468E+02 -0.22027746834E+02  0.12840974104E+03  0.13083199143E+03  0.00000000000E+00 0.  1.
</event>
<event>
 4    1  0.5784609E+003  0.2537026E+02  0.7546771E-02  0.1464704E+00
          2   -1    0    0  501    0  0.00000000000E+00  0.00000000000E+00  0.30520456904E+03  0.30520456904E+03  0.00000000000E+00 0. -1.
         -2   -1    0    0    0  501 -0.00000000000E+00 -0.00000000000E+00 -0.51796614986E+01  0.51796614986E+01  0.00000000000E+00 0.  1.
          2    1    1    2  502    0 -0.23912201223E+02 -0.84768291591E+01  0.26950506738E+03  0.27069656692E+03  0.00000000000E+00 0. -1.
         -2    1    1    2    0  502  0.23912201223E+02  0.84768291591E+01  0.30519840165E+02  0.39687663620E+02  0.00000000000E+00 0.  1.
</event>
<event>
 4    1  0.5784609E+003  0.3348408E+02  0.7546771E-02  0.1391546E+00
          2   -1    0    0  501    0  0.00000000000E+00  0.00000000000E+00  0.18163313842E+03  0.18163313842E+03  0.00000000000E+00 0. -1.
         -2   -1    0    0    0  501 -0.00000000000E+00 -0.00000000000E+00 -0.11892196212E+03  0.11892196212E+03  0.00000000000E+00 0.  1.
          2    1    1    2  502    0  0.13886460041E+00 -0.33483788839E+02  0.17768099918E+03  0.18080851990E+03  0.00000000000E+00 0. -1.
         -2    1    1    2    0  502 -0.13886460041E+00  0.33483788839E+02 -0.11496982289E+03  0.11974658063E+03  0.00000000000E+00 0.  1.
</event>
<event>
 4    1  0.5784609E+003  0.2039737E+02  0.7546771E-02  0.1528045E+00
          2   -1    0    0  501    0  0.00000000000E+00  0.00000000000E+00  0.31694455696E+03  0.31694455696E+03  0.00000000000E+00 0. -1.
         -2   -1    0    0    0  501 -0.00000000000E+00 -0.00000000000E+00 -0.15391769699E+01  0.15391769699E+01  0.00000000000E+00 0. -1.
          2    1    1    2  502    0  0.99828858959E+01  0.17787483861E+02  0.21878656779E+03  0.21973532906E+03  0.00000000000E+00 0. -1.
         -2    1    1    2    0  502 -0.99828858959E+01 -0.17787483861E+02  0.96618812207E+02  0.98748404874E+02  0.00000000000E+00 0. -1.
</event>
<event>
 4    1  0.5784609E+003  0.2093095E+02  0.7546771E-02  0.1520253E+00
          2   -1    0    0  501    0  0.00000000000E+00  0.00000000000E+00  0.10733622285E+03  0.10733622285E+03  0.00000000000E+00 0.  1.
         -2   -1    0    0    0  501 -0.00000000000E+00 -0.00000000000E+00 -0.11714585423E+02  0.11714585423E+02  0.00000000000E+00 0.  1.
          2    1    1    2  502    0 -0.44369744885E+01  0.20455269680E+02  0.95859975418E+02  0.98118498192E+02  0.00000000000E+00 0.  1.
         -2    1    1    2    0  502  0.44369744885E+01 -0.20455269680E+02 -0.23833799198E+00  0.20932310080E+02  0.00000000000E+00 0.  1.
</event>
<event>
 4    1  0.5784609E+003  0.2438061E+02  0.7546771E-02  0.1475853E+00
          2   -1    0    0  501    0  0.00000000000E+00  0.00000000000E+00  0.14379001236E+03  0.14379001236E+03  0.00000000000E+00 0. -1.
         -2   -1    0    0    0  501 -0.00000000000E+00 -0.00000000000E+00 -0.43689317480E+01  0.43689317480E+01  0.00000000000E+00 0. -1.
          2    1    1    2  502    0 -0.14719333553E+02  0.19435908427E+02  0.52528493487E+02  0.57910758454E+02  0.00000000000E+00 0. -1.
         -2    1    1    2    0  502  0.14719333553E+02 -0.19435908427E+02  0.86892587123E+02  0.90248185652E+02  0.00000000000E+00 0. -1.
</event>
<event>
 4    1  0.5784609E+003  0.2007155E+02  0.7546771E-02  0.1532945E+00
          2   -1    0    0  501    0  0.00000000000E+00  0.00000000000E+00  0.43711855758E+03  0.43711855758E+03  0.00000000000E+00 0. -1.
         -2   -1    0    0    0  501 -0.00000000000E+00 -0.00000000000E+00 -0.94784758611E+00  0.94784758611E+00  0.00000000000E+00 0. -1.
          2    1    1    2  502    0  0.42530481022E+01  0.19615770973E+02  0.18166565527E+03  0.18277110602E+03  0.00000000000E+00 0. -1.
         -2    1    1    2    0  502 -0.42530481022E+01 -0.19615770973E+02  0.25450505472E+03  0.25529529915E+03  0.00000000000E+00 0. -1.
</event>
<event>
 4    1  0.5784609E+003  0.2043637E+02  0.7546771E-02  0.1527466E+00
          2   -1    0    0  501    0  0.00000000000E+00  0.00000000000E+00  0.76822839247E+03  0.76822839247E+03  0.00000000000E+00 0. -1.
         -2   -1    0    0    0  501 -0.00000000000E+00 -0.00000000000E+00 -0.67064776154E+01  0.67064776154E+01  0.00000000000E+00 0.  1.
          2    1    1    2  502    0 -0.17386257585E+02 -0.10740732625E+02  0.75219189391E+03  0.75246946155E+03  0.00000000000E+00 0. -1.
         -2    1    1    2    0  502  0.17386257585E+02  0.10740732625E+02  0.93300209421E+01  0.22465408541E+02  0.00000000000E+00 0.  1.
</event>
<event>
 4    1  0.5784609E+003  0.2189014E+02  0.7546771E-02  0.1506926E+00
          2   -1    0    0  501    0  0.00000000000E+00  0.00000000000E+00  0.37642234717E+02  0.37642234717E+02  0.00000000000E+00 0. -1.
         -2   -1    0    0    0  501 -0.00000000000E+00 -0.00000000000E+00 -0.15882810415E+03  0.15882810415E+03  0.00000000000E+00 0.  1.
          2    1    1    2  502    0 -0.98313173888E+01  0.19558207311E+02  0.33623334681E+02  0.40121152898E+02  0.00000000000E+00 0. -1.
         -2    1    1    2    0  502  0.98313173888E+01 -0.19558207311E+02 -0.15480920411E+03  0.15634918597E+03  0.00000000000E+00 0.  1.
</event>
<event>
 4    1  0.5784609E+003  0.2029038E+02  0.7546771E-02  0.1529642E+00
          2   -1    0    0  501    0  0.00000000000E+00  0.00000000000E+00  0.10436608039E+02  0.10436608039E+02  0.00000000000E+00 0.  1.
         -2   -1    0    0    0  501 -0.00000000000E+00 -0.00000000000E+00 -0.42051172404E+02  0.42051172404E+02  0.00000000000E+00 0.  1.
          2    1    1    2  502    0 -0.20245108560E+02 -0.13546868043E+01 -0.92771746857E+01  0.22310660391E+02  0.00000000000E+00 0.  1.
         -2    1    1    2    0  502  0.20245108560E+02  0.13546868043E+01 -0.22337389679E+02  0.30177120052E+02  0.00000000000E+00 0.  1.
</event>
<event>
 4    1  0.5784609E+003  0.2148768E+02  0.7546771E-02  0.1512415E+00
          2   -1    0    0  501    0  0.00000000000E+00  0.00000000000E+00  0.66192628338E+02  0.66192628338E+02  0.00000000000E+00 0. -1.
         -2   -1    0    0    0  501 -0.00000000000E+00 -0.00000000000E+00 -0.37410455218E+02  0.37410455218E+02  0.00000000000E+00 0. -1.
          2    1    1    2  502    0 -0.13797109216E+01  0.21443335694E+02  0.61114355086E+02  0.64781823419E+02  0.00000000000E+00 0. -1.
         -2    1    1    2    0  502  0.13797109216E+01 -0.21443335694E+02 -0.32332181966E+02  0.38821260137E+02  0.00000000000E+00 0. -1.
</event>
<event>
 4    1  0.5784609E+003  0.2197697E+02  0.7546771E-02  0.1505760E+00
          2   -1    0    0  501    0  0.00000000000E+00  0.00000000000E+00  0.13651312573E+01  0.13651312573E+01  0.00000000000E+00 0. -1.
         -2   -1    0    0    0  501 -0.00000000000E+00 -0.00000000000E+00 -0.10934989075E+04  0.10934989075E+04  0.00000000000E+00 0. -1.
          2    1    1    2  502    0 -0.19728972178E+02 -0.96827025630E+01 -0.95823103478E+02  0.98311007686E+02  0.00000000000E+00 0. -1.
         -2    1    1    2    0  502  0.19728972178E+02  0.96827025630E+01 -0.99631067280E+03  0.99655303111E+03  0.00000000000E+00 0. -1.
</event>
<event>
 4    1  0.5784609E+003  0.3045765E+02  0.7546771E-02  0.1415660E+00
          2   -1    0    0  501    0  0.00000000000E+00  0.00000000000E+00  0.18746417730E+04  0.18746417730E+04  0.00000000000E+00 0.  1.
         -2   -1    0    0    0  501 -0.00000000000E+00 -0.00000000000E+00 -0.18102005747E+01  0.18102005747E+01  0.00000000000E+00 0.  1.
          2    1    1    2  502    0 -0.20639075483E+02 -0.22398595950E+02  0.17361850083E+04  0.17364521449E+04  0.00000000000E+00 0.  1.
         -2    1    1    2    0  502  0.20639075483E+02  0.22398595950E+02  0.13664656414E+03  0.13999982867E+03  0.00000000000E+00 0.  1.
</event>
<event>
 4    1  0.5784609E+003  0.2627295E+02  0.7546771E-02  0.1455051E+00
          2   -1    0    0  501    0  0.00000000000E+00  0.00000000000E+00  0.15635294674E+03  0.15635294674E+03  0.00000000000E+00 0.  1.
         -2   -1    0    0    0  501 -0.00000000000E+00 -0.00000000000E+00 -0.31913011329E+02  0.31913011329E+02  0.00000000000E+00 0. -1.
          2    1    1    2  502    0 -0.25985200749E+02  0.38778168412E+01  0.14959957234E+03  0.15188910483E+03  0.00000000000E+00 0.  1.
         -2    1    1    2    0  502  0.25985200749E+02 -0.38778168412E+01 -0.25159636928E+02  0.36376853241E+02  0.00000000000E+00 0. -1.
</event>
<event>
 4    1  0.5784609E+003  0.2355552E+02  0.7546771E-02  0.1485638E+00
          2   -1    0    0  501    0  0.00000000000E+00  0.00000000000E+00  0.35576888513E+03  0.35576888513E+03  0.00000000000E+00 0. -1.
         -2   -1    0    0    0  501 -0.00000000000E+00 -0.00000000000E+00 -0.18298009772E+01  0.18298009772E+01  0.00000000000E+00 0.  1.
          2    1    1    2  502    0  0.80508695656E+01 -0.22136985996E+02  0.24567560020E+03  0.24680227548E+03  0.00000000000E+00 0. -1.
         -2    1    1    2    0  502 -0.80508695656E+01  0.22136985996E+02  0.10826348395E+03  0.11079641063E+03  0.00000000000E+00 0.  1.
</event>
<event>
 4    1  0.5784609E+003  0.2067863E+02  0.7546771E-02  0.1523903E+00
          2   -1    0    0  501    0  0.00000000000E+00  0.00000000000E+00  0.97215550043E+03  0.97215550043E+03  0.00000000000E+00 0.  1.
         -2   -1    0    0    0  501 -0.00000000000E+00 -0.00000000000E+00 -0.45391293218E+00  0.45391293218E+00  0.00000000000E+00 0. -1.
          2    1    1    2  502    0  0.98563844216E+01 -0.18178483350E+02  0.57143879712E+03  0.57181282290E+03  0.00000000000E+00 0. -1.
         -2    1    1    2    0  502 -0.98563844216E+01  0.18178483350E+02  0.40026279037E+03  0.40079659047E+03  0.00000000000E+00 0.  1.
</event>
<event>
 4    1  0.5784609E+003  0.2213992E+02  0.7546771E-02  0.1503590E+00
          2   -1    0    0  501    0  0.00000000000E+00  0.00000000000E+00  0.42852269515E+03  0.42852269515E+03  0.00000000000E+00 0.  1.
         -2   -1    0    0    0  501 -0.00000000000E+00 -0.00000000000E+00 -0.16190258672E+01  0.16190258672E+01  0.00000000000E+00 0.  1.
          2    1    1    2  502    0  0.87464173759E+01 -0.20339029795E+02  0.32996390509E+03  0.33070584303E+03  0.00000000000E+00 0.  1.
         -2    1    1    2    0  502 -0.87464173759E+01  0.20339029795E+02  0.96939764190E+02  0.99435877988E+02  0.00000000000E+00 0.  1.
</event>
<event>
 4    1  0.5784609E+003  0.2320293E+02  0.7546771E-02  0.1489966E+00
          2   -1    0    0  501    0  0.00000000000E+00  0.00000000000E+00  0.34584840431E+02  0.34584840431E+02  0.00000000000E+00 0.  1.
         -2   -1    0    0    0  501 -0.00000000000E+00 -0.00000000000E+00 -0.34608383806E+02  0.34608383806E+02  0.00000000000E+00 0.  1.
          2    1    1    2  502    0 -0.34121268433E+01 -0.22950667227E+02  0.25650452924E+02  0.34587880406E+02  0.00000000000E+00 0.  1.
         -2    1    1    2    0  502  0.34121268433E+01  0.22950667227E+02 -0.25673996299E+02  0.34605343832E+02  0.00000000000E+00 0.  1.
</event>
<event>
 4    1  0.5784609E+003  0.2900806E+02  0.7546771E-02  0.1428417E+00
          2   -1    0    0  501    0  0.00000000000E+00  0.00000000000E+00  0.34953188412E+03  0.34953188412E+03  0.00000000000E+00 0.  1.
         -2   -1    0    0    0  501 -0.00000000000E+00 -0.00000000000E+00 -0.61456437984E+01  0.61456437984E+01  0.00000000000E+00 0.  1.
          2    1    1    2  502    0  0.10654229116E+02 -0.26980641956E+02  0.31039290528E+03  0.31174544630E+03  0.00000000000E+00 0.  1.
         -2    1    1    2    0  502 -0.10654229116E+02  0.26980641956E+02  0.32993335039E+02  0.43932081619E+02  0.00000000000E+00 0.  1.
</event>
<event>
 4    1  0.5784609E+003  0.2752527E+02  0.7546771E-02  0.1442402E+00
          2   -1    0    0  501    0  0.00000000000E+00  0.00000000000E+00  0.32396057229E+02  0.32396057229E+02  0.00000000000E+00 0.  1.
         -2   -1    0    0    0  501 -0.00000000000E+00 -0.00000000000E+00 -0.10097443692E+04  0.10097443692E+04  0.00000000000E+00 0.  1.
          2    1    1    2  502    0 -0.26535776282E+02  0.73138773740E+01  0.26326423405E+02  0.38088328848E+02  0.00000000000E+00 0.  1.
         -2    1    1    2    0  502  0.26535776282E+02 -0.73138773740E+01 -0.10036747353E+04  0.10040520975E+04  0.00000000000E+00 0.  1.
</event>
<event>
 4    1  0.5784609E+003  0.2029583E+02  0.7546771E-02  0.1529560E+00
          2   -1    0    0  501    0  0.00000000000E+00  0.00000000000E+00  0.91631557036E+03  0.91631557036E+03  0.00000000000E+00 0.  1.
         -2   -1    0    0    0  501 -0.00000000000E+00 -0.00000000000E+00 -0.55017015337E+00  0.55017015337E+00  0.00000000000E+00 0.  1.
          2    1    1    2  502    0 -0.82179967902E+01  0.18557621994E+02  0.65394341788E+03  0.65425829349E+03  0.00000000000E+00 0.  1.
         -2    1    1    2    0  502  0.82179967902E+01 -0.18557621994E+02  0.26182198232E+03  0.26260744702E+03  0.00000000000E+00 0.  1.
</event>
<event>
 4    1  0.5784609E+003  0.2175804E+02  0.7546771E-02  0.1508711E+00
          2   -1    0    0  501    0  0.00000000000E+00  0.00000000000E+00  0.18750153977E+02  0.18750153977E+02  0.00000000000E+00 0.  1.
         -2   -1    0    0    0  501 -0.00000000000E+00 -0.00000000000E+00 -0.31686375451E+02  0.31686375451E+02  0.00000000000E+00 0.  1.
          2    1    1    2  502    0  0.14382027239E+02 -0.16326963873E+02  0.48990408661E+01  0.22302758982E+02  0.00000000000E+00 0.  1.
         -2    1    1    2    0  502 -0.14382027239E+02  0.16326963873E+02 -0.17835262340E+02  0.28133770447E+02  0.00000000000E+00 0.  1.
</event>
<event>
 4    1  0.5784609E+003  0.2286451E+02  0.7546771E-02  0.1494207E+00
          2   -1    0    0  501    0  0.00000000000E+00  0.00000000000E+00  0.15602835679E+04  0.15602835679E+04  0.00000000000E+00 0. -1.
         -2   -1    0    0    0  501 -0.00000000000E+00 -0.00000000000E+00 -0.47940773346E+01  0.47940773346E+01  0.00000000000E+00 0. -1.
          2    1    1    2  502    0 -0.22860876433E+02  0.40776823432E+00  0.15324424660E+04  0.15326130293E+04  0.00000000000E+00 0. -1.
         -2    1    1    2    0  502  0.22860876433E+02 -0.40776823432E+00  0.23047024514E+02  0.32464615894E+02  0.00000000000E+00 0. -1.
</event>
<event>
 4    1  0.5784609E+003  0.2116284E+02  0.7546771E-02  0.1516952E+00
          2   -1    0    0  501    0  0.00000000000E+00  0.00000000000E+00  0.41649681327E+03  0.41649681327E+03  0.00000000000E+00 0.  1.
         -2   -1    0    0    0  501 -0.00000000000E+00 -0.00000000000E+00 -0.14596002027E+01  0.14596002027E+01  0.00000000000E+00 0.  1.
          2    1    1    2  502    0 -0.20218333294E+02  0.62517961811E+01  0.31474703499E+03  0.31545770238E+03  0.00000000000E+00 0.  1.
         -2    1    1    2    0  502  0.20218333294E+02 -0.62517961811E+01  0.10029017808E+03  0.10249871110E+03  0.00000000000E+00 0.  1.
</event>
<event>
 4    1  0.5784609E+003  0.5083162E+02  0.7546771E-02  0.1294607E+00
          2   -1    0    0  501    0  0.00000000000E+00  0.00000000000E+00  0.57170798984E+03  0.57170798984E+03  0.00000000000E+00 0. -1.
         -2   -1    0    0    0  501 -0.00000000000E+00 -0.00000000000E+00 -0.95522011281E+01  0.95522011281E+01  0.00000000000E+00 0.  1.
          2    1    1    2  502    0 -0.22962387528E+02 -0.45349553436E+02  0.49203200540E+03  0.49465073292E+03  0.00000000000E+00 0. -1.
         -2    1    1    2    0  502  0.22962387528E+02  0.45349553436E+02  0.70123783313E+02  0.86609458051E+02  0.00000000000E+00 0.  1.
</event>
<event>
 4    1  0.5784609E+003  0.3093592E+02  0.7546771E-02  0.1411634E+00
          2   -1    0    0  501    0  0.00000000000E+00  0.00000000000E+00  0.31342941257E+02  0.31342941257E+02  0.00000000000E+00 0. -1.
         -2   -1    0    0    0  501 -0.00000000000E+00 -0.00000000000E+00 -0.26981661770E+03  0.26981661770E+03  0.00000000000E+00 0. -1.
          2    1    1    2  502    0 -0.12058512164E+02 -0.28489009381E+02  0.22566910376E+02  0.38292255288E+02  0.00000000000E+00 0. -1.
         -2    1    1    2    0  502  0.12058512164E+02  0.28489009381E+02 -0.26104058682E+03  0.26286730367E+03  0.00000000000E+00 0. -1.
</event>
<event>
 4    1  0.5784609E+003  0.2315454E+02  0.7546771E-02  0.1490567E+00
          2   -1    0    0  501    0  0.00000000000E+00  0.00000000000E+00  0.84867550359E+03  0.84867550359E+03  0.00000000000E+00 0. -1.
         -2   -1    0    0    0  501 -0.00000000000E+00 -0.00000000000E+00 -0.27943708326E+01  0.27943708326E+01  0.00000000000E+00 0. -1.
          2    1    1    2  502    0  0.19886378661E+02  0.11860219610E+02  0.79747312590E+03  0.79780919987E+03  0.00000000000E+00 0. -1.
         -2    1    1    2    0  502 -0.19886378661E+02 -0.11860219610E+02  0.48408006856E+02  0.53660674550E+02  0.00000000000E+00 0. -1.
</event>
<event>
 4    1  0.5784609E+003  0.2951044E+02  0.7546771E-02  0.1423899E+00
          2   -1    0    0  501    0  0.00000000000E+00  0.00000000000E+00  0.83922879383E+03  0.83922879383E+03  0.00000000000E+00 0.  1.
         -2   -1    0    0    0  501 -0.00000000000E+00 -0.00000000000E+00 -0.56604708700E+02  0.56604708700E+02  0.00000000000E+00 0.  1.
          2    1    1    2  502    0 -0.95660896156E+01 -0.27916949448E+02  0.83510411619E+03  0.83562536523E+03  0.00000000000E+00 0.  1.
         -2    1    1    2    0  502  0.95660896156E+01  0.27916949448E+02 -0.52480031060E+02  0.60208137300E+02  0.00000000000E+00 0.  1.
</event>
<event>
 4    1  0.5784609E+003  0.3977905E+02  0.7546771E-02  0.1349785E+00
          2   -1    0    0  501    0  0.00000000000E+00  0.00000000000E+00  0.12227287157E+04  0.12227287157E+04  0.00000000000E+00 0.  1.
         -2   -1    0    0    0  501 -0.00000000000E+00 -0.00000000000E+00 -0.14647059380E+02  0.14647059380E+02  0.00000000000E+00 0.  1.
          2    1    1    2  502    0 -0.99022532189E+01 -0.38526855291E+02  0.11947648406E+04  0.11954268683E+04  0.00000000000E+00 0.  1.
         -2    1    1    2    0  502  0.99022532189E+01  0.38526855291E+02  0.13316815737E+02  0.41948906765E+02  0.00000000000E+00 0.  1.
</event>
<event>
 4    1  0.5784609E+003  0.2587710E+02  0.7546771E-02  0.1459226E+00
          2   -1    0    0  501    0  0.00000000000E+00  0.00000000000E+00  0.29756041416E+03  0.29756041416E+03  0.00000000000E+00 0. -1.
         -2   -1    0    0    0  501 -0.00000000000E+00 -0.00000000000E+00 -0.13826817019E+02  0.13826817019E+02  0.00000000000E+00 0.  1.
          2    1    1    2  502    0 -0.17681041752E+02  0.18894576685E+02  0.28432817518E+03  0.28550330202E+03  0.00000000000E+00 0. -1.
         -2    1    1    2    0  502  0.17681041752E+02 -0.18894576685E+02 -0.59457803750E+00  0.25883929157E+02  0.00000000000E+00 0.  1.
</event>
<event>
 4    1  0.5784609E+003  0.4396612E+02  0.7546771E-02  0.1326691E+00
          2   -1    0    0  501    0  0.00000000000E+00  0.00000000000E+00  0.58793343865E+03  0.58793343865E+03  0.00000000000E+00 0. -1.
         -2   -1    0    0    0  501 -0.00000000000E+00 -0.00000000000E+00 -0.13795124141E+03  0.13795124141E+03  0.00000000000E+00 0.  1.
          2    1    1    2  502    0  0.20020655204E+02  0.39143234586E+02  0.58358231741E+03  0.58523614093E+03  0.00000000000E+00 0. -1.
         -2    1    1    2    0  502 -0.20020655204E+02 -0.39143234586E+02 -0.13360012017E+03  0.14064853913E+03  0.00000000000E+00 0.  1.
</event>
<event>
 4    1  0.5784609E+003  0.2007147E+02  0.7546771E-02  0.1532946E+00
          2   -1    0    0  501    0  0.00000000000E+00  0.00000000000E+00  0.16373117729E+04  0.16373117729E+04  0.00000000000E+00 0. -1.
         -2   -1    0    0    0  501 -0.00000000000E+00 -0.00000000000E+00 -0.24701389341E+00  0.24701389341E+00  0.00000000000E+00 0. -1.
          2    1    1    2  502    0  0.13003191292E+02  0.15289884215E+02  0.76743364782E+03  0.76769607747E+03  0.00000000000E+00 0. -1.
         -2    1    1    2    0  502 -0.13003191292E+02 -0.15289884215E+02  0.86963111123E+03  0.86986270937E+03  0.00000000000E+00 0. -1.
</event>
<event>
 4    1  0.5784609E+003  0.3265156E+02  0.7546771E-02  0.1397870E+00
          2   -1    0    0  501    0  0.00000000000E+00  0.00000000000E+00  0.16647275690E+04  0.16647275690E+04  0.00000000000E+00 0. -1.
         -2   -1    0    0    0  501 -0.00000000000E+00 -0.00000000000E+00 -0.18908437657E+01  0.18908437657E+01  0.00000000000E+00 0. -1.
          2    1    1    2  502    0 -0.11120372429E+02 -0.30699540133E+02  0.15090708027E+04  0.15094240001E+04  0.00000000000E+00 0. -1.
         -2    1    1    2    0  502  0.11120372429E+02  0.30699540133E+02  0.15376592249E+03  0.15719441265E+03  0.00000000000E+00 0. -1.
</event>
<event>
 4    1  0.5784609E+003  0.2389683E+02  0.7546771E-02  0.1481533E+00
          2   -1    0    0  501    0  0.00000000000E+00  0.00000000000E+00  0.71677581180E+03  0.71677581180E+03  0.00000000000E+00 0.  1.
         -2   -1    0    0    0  501 -0.00000000000E+00 -0.00000000000E+00 -0.49439532634E+01  0.49439532634E+01  0.00000000000E+00 0.  1.
          2    1    1    2  502    0  0.16350165549E+02 -0.17427871678E+02  0.68642353668E+03  0.68683937739E+03  0.00000000000E+00 0.  1.
         -2    1    1    2    0  502 -0.16350165549E+02  0.17427871678E+02  0.25408321856E+02  0.34880387673E+02  0.00000000000E+00 0.  1.
</event>
<event>
 4    1  0.5784609E+003  0.2668615E+02  0.7546771E-02  0.1450787E+00
          2   -1    0    0  501    0  0.00000000000E+00  0.00000000000E+00  0.33471248009E+02  0.33471248009E+02  0.00000000000E+00 0.  1.
         -2   -1    0    0    0  501 -0.00000000000E+00 -0.00000000000E+00 -0.13729035698E+03  0.13729035698E+03  0.00000000000E+00 0. -1.
          2    1    1    2  502    0 -0.19636111832E+02  0.18071346898E+02  0.26576984479E+02  0.37662800886E+02  0.00000000000E+00 0.  1.
         -2    1    1    2    0  502  0.19636111832E+02 -0.18071346898E+02 -0.13039609345E+03  0.13309880410E+03  0.00000000000E+00 0. -1.
</event>
<event>
 4    1  0.5784609E+003  0.2569778E+02  0.7546771E-02  0.1461147E+00
          2   -1    0    0  501    0  0.00000000000E+00  0.00000000000E+00  0.23777457642E+03  0.23777457642E+03  0.00000000000E+00 0.  1.
         -2   -1    0    0    0  501 -0.00000000000E+00 -0.00000000000E+00 -0.23527483422E+03  0.23527483422E+03  0.00000000000E+00 0. -1.
          2    1    1    2  502    0  0.25253020677E+02  0.47603198675E+01  0.23637439574E+03  0.23776717742E+03  0.00000000000E+00 0.  1.
         -2    1    1    2    0  502 -0.25253020677E+02 -0.47603198675E+01 -0.23387465354E+03  0.23528223322E+03  0.00000000000E+00 0. -1.
</event>
<event>
 4    1  0.5784609E+003  0.4641149E+02  0.7546771E-02  0.1314529E+00
          2   -1    0    0  501    0  0.00000000000E+00  0.00000000000E+00  0.14516944937E+03  0.14516944937E+03  0.00000000000E+00 0. -1.
         -2   -1    0    0    0  501 -0.00000000000E+00 -0.00000000000E+00 -0.17788707363E+02  0.17788707363E+02  0.00000000000E+00 0. -1.
          2    1    1    2  502    0 -0.43029757375E+02 -0.17391560223E+02  0.96874920009E+02  0.10741869722E+03  0.00000000000E+00 0. -1.
         -2    1    1    2    0  502  0.43029757375E+02  0.17391560223E+02  0.30505821999E+02  0.55539459509E+02  0.00000000000E+00 0. -1.
</event>
<event>
 4    1  0.5784609E+003  0.2509721E+02  0.7546771E-02  0.1467719E+00
          2   -1    0    0  501    0  0.00000000000E+00  0.00000000000E+00  0.30046078604E+02  0.30046078604E+02  0.00000000000E+00 0.  1.
         -2   -1    0    0    0  501 -0.00000000000E+00 -0.00000000000E+00 -0.12774803398E+03  0.12774803398E+03  0.00000000000E+00 0.  1.
          2    1    1    2  502    0 -0.89992491961E+01 -0.23428266928E+02  0.23282674094E+02  0.34233800407E+02  0.00000000000E+00 0.  1.
         -2    1    1    2    0  502  0.89992491961E+01  0.23428266928E+02 -0.12098462947E+03  0.12356031218E+03  0.00000000000E+00 0.  1.
</event>
<event>
 4    1  0.5784609E+003  0.2235637E+02  0.7546771E-02  0.1500742E+00
          2   -1    0    0  501    0  0.00000000000E+00  0.00000000000E+00  0.34232371441E+01  0.34232371441E+01  0.00000000000E+00 0. -1.
         -2   -1    0    0    0  501 -0.00000000000E+00 -0.00000000000E+00 -0.22730375139E+03  0.22730375139E+03  0.00000000000E+00 0. -1.
          2    1    1    2  502    0  0.31057971970E+01  0.22139588853E+02 -0.42946644476E+02  0.48417162686E+02  0.00000000000E+00 0. -1.
         -2    1    1    2    0  502 -0.31057971970E+01 -0.22139588853E+02 -0.18093386977E+03  0.18230982584E+03  0.00000000000E+00 0. -1.
</event>
<event>
 4    1  0.6944314E+003  0.2068549E+02  0.7546771E-02  0.1523803E+00
          2   -1    0    0  501    0  0.00000000000E+00  0.00000000000E+00  0.14096776457E+04  0.14096776457E+04  0.00000000000E+00 0.  1.
         -2   -1    0    0    0  501 -0.00000000000E+00 -0.00000000000E+00 -0.38806249245E+03  0.38806249245E+03  0.00000000000E+00 0. -1.
          2    1    1    2  502    0  0.20583713647E+02  0.20494200781E+01  0.14093260351E+04  0.14094778334E+04  0.00000000000E+00 0.  1.
         -2    1    1    2    0  502 -0.20583713647E+02 -0.20494200781E+01 -0.38771088189E+03  0.38826230479E+03  0.00000000000E+00 0. -1.
</event>
<event>
 4    1  0.5784609E+003  0.2096173E+02  0.7546771E-02  0.1519812E+00
          2   -1    0    0  501    0  0.00000000000E+00  0.00000000000E+00  0.15238262269E+04  0.15238262269E+04  0.00000000000E+00 0. -1.
         -2   -1    0    0    0  501 -0.00000000000E+00 -0.00000000000E+00 -0.33741915056E+00  0.33741915056E+00  0.00000000000E+00 0. -1.
          2    1    1    2  502    0  0.37164211476E+01 -0.20629651315E+02  0.10523633294E+04  0.10525720742E+04  0.00000000000E+00 0. -1.
         -2    1    1    2    0  502 -0.37164211476E+01  0.20629651315E+02  0.47112547828E+03  0.47159157179E+03  0.00000000000E+00 0. -1.
</event>
<event>
 4    1  0.5784609E+003  0.2003709E+02  0.7546771E-02  0.1533469E+00
          2   -1    0    0  501    0  0.00000000000E+00  0.00000000000E+00  0.69994111398E+03  0.69994111398E+03  0.00000000000E+00 0. -1.
         -2   -1    0    0    0  501 -0.00000000000E+00 -0.00000000000E+00 -0.34216051240E+02  0.34216051240E+02  0.00000000000E+00 0. -1.
          2    1    1    2  502    0 -0.19898557375E+02 -0.23521361959E+01  0.69685125397E+03  0.69713926534E+03  0.00000000000E+00 0. -1.
         -2    1    1    2    0  502  0.19898557375E+02  0.23521361959E+01 -0.31126191231E+02  0.37017899871E+02  0.00000000000E+00 0. -1.
</event>
<event>
 4    1  0.5784609E+003  0.2618348E+02  0.7546771E-02  0.1455987E+00
          2   -1    0    0  501    0  0.00000000000E+00  0.00000000000E+00  0.11243139471E+04  0.11243139471E+04  0.00000000000E+00 0. -1.
         -2   -1    0    0    0  501 -0.00000000000E+00 -0.00000000000E+00 -0.87676936311E+00  0.87676936311E+00  0.00000000000E+00 0. -1.
          2    1    1    2  502    0  0.14880982446E+02 -0.21543703997E+02  0.87217969209E+03  0.87257262742E+03  0.00000000000E+00 0. -1.
         -2    1    1    2    0  502 -0.14880982446E+02  0.21543703997E+02  0.25125748564E+03  0.25261808904E+03  0.00000000000E+00 0. -1.
</event>
<event>
 4    1  0.5784609E+003  0.2559157E+02  0.7546771E-02  0.1462293E+00
          2   -1    0    0  501    0  0.00000000000E+00  0.00000000000E+00  0.71831776680E+03  0.71831776680E+03  0.00000000000E+00 0.  1.
         -2   -1    0    0    0  501 -0.00000000000E+00 -0.00000000000E+00 -0.19096602759E+01  0.19096602759E+01  0.00000000000E+00 0.  1.
          2    1    1    2  502    0  0.21586433567E+02  0.13746040910E+02  0.97884442254E+02  0.10117456098E+03  0.00000000000E+00 0.  1.
         -2    1    1    2    0  502 -0.21586433567E+02 -0.13746040910E+02  0.61852366427E+03  0.61905286609E+03  0.00000000000E+00 0.  1.
</event>
<event>
 4    1  0.5784609E+003  0.3163508E+02  0.7546771E-02  0.1405900E+00
          2   -1    0    0  501    0  0.00000000000E+00  0.00000000000E+00  0.34308705145E+03  0.34308705145E+03  0.00000000000E+00 0.  1.
         -2   -1    0    0    0  501 -0.00000000000E+00 -0.00000000000E+00 -0.35189633280E+02  0.35189633280E+02  0.00000000000E+00 0.  1.
          2    1    1    2  502    0  0.40185098329E+01 -0.31378816880E+02  0.33507835338E+03  0.33656839049E+03  0.00000000000E+00 0.  1.
         -2    1    1    2    0  502 -0.40185098329E+01  0.31378816880E+02 -0.27180935209E+02  0.41708294246E+02  0.00000000000E+00 0.  1.
</event>
<event>
 4    1  0.5784609E+003  0.3501955E+02  0.7546771E-02  0.1380426E+00
          2   -1    0    0  501    0  0.00000000000E+00  0.00000000000E+00  0.27854142809E+03  0.27854142809E+03  0.00000000000E+00 0.  1.
         -2   -1    0    0    0  501 -0.00000000000E+00 -0.00000000000E+00 -0.96956434182E+01  0.96956434182E+01  0.00000000000E+00 0. -1.
          2    1    1    2  502    0 -0.99853578199E+01  0.33565781044E+02  0.24090460823E+03  0.24343664329E+03  0.00000000000E+00 0.  1.
         -2    1    1    2    0  502  0.99853578199E+01 -0.33565781044E+02  0.27941176440E+02  0.44800428220E+02  0.00000000000E+00 0. -1.
</event>
<event>
 4    1  0.5784609E+003  0.2208890E+02  0.7546771E-02  0.1504267E+00
          2   -1    0    0  501    0  0.00000000000E+00  0.00000000000E+00  0.59396224149E+03  0.59396224149E+03  0.00000000000E+00 0.  1.
         -2   -1    0    0    0  501 -0.00000000000E+00 -0.00000000000E+00 -0.21726647161E+01  0.21726647161E+01  0.00000000000E+00 0. -1.
          2    1    1    2  502    0 -0.11100030584E+02 -0.19097349488E+02  0.53095434231E+03  0.53141361768E+03  0.00000000000E+00 0.  1.
         -2    1    1    2    0  502  0.11100030584E+02  0.19097349488E+02  0.60835234468E+02  0.64721288532E+02  0.00000000000E+00 0. -1.
</event>
<event>
 4    1  0.5784609E+003  0.2104600E+02  0.7546771E-02  0.1518609E+00
          2   -1    0    0  501    0  0.00000000000E+00  0.00000000000E+00  0.25065037615E+02  0.25065037615E+02  0.00000000000E+00 0.  1.
         -2   -1    0    0    0  501 -0.00000000000E+00 -0.00000000000E+00 -0.58694971879E+03  0.58694971879E+03  0.00000000000E+00 0. -1.
          2    1    1    2  502    0  0.19757439926E+01 -0.20953054774E+02  0.20423326502E+02  0.29326546576E+02  0.00000000000E+00 0.  1.
         -2    1    1    2    0  502 -0.19757439926E+01  0.20953054774E+02 -0.58230800768E+03  0.58268820983E+03  0.00000000000E+00 0. -1.
</event>
<event>
 4    1  0.5784609E+003  0.3600085E+02  0.7546771E-02  0.1373660E+00
          2   -1    0    0  501    0  0.00000000000E+00  0.00000000000E+00  0.10453748707E+04  0.10453748707E+04  0.00000000000E+00 0.  1.
         -2   -1    0    0    0  501 -0.00000000000E+00 -0.00000000000E+00 -0.24025973457E+01  0.24025973457E+01  0.00000000000E+00 0. -1.
          2    1    1    2  502    0 -0.35552497213E+02 -0.56640532240E+01  0.88594586233E+03  0.88667701703E+03  0.00000000000E+00 0.  1.
         -2    1    1    2    0  502  0.35552497213E+02  0.56640532240E+01  0.15702641104E+03  0.16110045102E+03  0.00000000000E+00 0. -1.
</event>
<event>
 4    1  0.5784609E+003  0.2376482E+02  0.7546771E-02  0.1483111E+00
          2   -1    0    0  501    0  0.00000000000E+00  0.00000000000E+00  0.32019298438E+03  0.32019298438E+03  0.00000000000E+00 0. -1.
         -2   -1    0    0    0  501 -0.00000000000E+00 -0.00000000000E+00 -0.37918675119E+01  0.37918675119E+01  0.00000000000E+00 0.  1.
          2    1    1    2  502    0 -0.20910950366E+02  0.11291539280E+02  0.27666987565E+03  0.27768865083E+03  0.00000000000E+00 0. -1.
         -2    1    1    2    0  502  0.20910950366E+02 -0.11291539280E+02  0.39731241216E+02  0.46296201066E+02  0.00000000000E+00 0.  1.
</event>
<event>
 4    1  0.6059477E+003  0.2119484E+02  0.7546771E-02  0.1516501E+00
          2   -1    0    0  501    0  0.00000000000E+00  0.00000000000E+00  0.14140354724E+04  0.14140354724E+04  0.00000000000E+00 0. -1.
         -2   -1    0    0    0  501 -0.00000000000E+00 -0.00000000000E+00 -0.18558665537E+03  0.18558665537E+03  0.00000000000E+00 0. -1.
          2    1    1    2  502    0  0.17300024520E+02  0.12244610717E+02  0.14133506204E+04  0.14135095321E+04  0.00000000000E+00 0. -1.
         -2    1    1    2    0  502 -0.17300024520E+02 -0.12244610717E+02 -0.18490180338E+03  0.18611259558E+03  0.00000000000E+00 0. -1.
</event>
<event>
 4    1  0.5784609E+003  0.3157589E+02  0.7546771E-02  0.1406379E+00
          2   -1    0    0  501    0  0.00000000000E+00  0.00000000000E+00  0.93746282741E+01  0.93746282741E+01  0.00000000000E+00 0. -1.
         -2   -1    0    0    0  501 -0.00000000000E+00 -0.00000000000E+00 -0.10773188390E+03  0.10773188390E+03  0.00000000000E+00 0. -1.
          2    1    1    2  502    0  0.18827186148E+02 -0.25349045659E+02 -0.42558697399E+02  0.52993205021E+02  0.00000000000E+00 0. -1.
         -2    1    1    2    0  502 -0.18827186148E+02  0.25349045659E+02 -0.55798558230E+02  0.64113307157E+02  0.00000000000E+00 0. -1.
</event>
<event>
 4    1  0.5784609E+003  0.2077105E+02  0.7546771E-02  0.1522559E+00
          2   -1    0    0  501    0  0.00000000000E+00  0.00000000000E+00  0.25402848150E+01  0.25402848150E+01  0.00000000000E+00 0. -1.
         -2   -1    0    0    0  501 -0.00000000000E+00 -0.00000000000E+00 -0.17086037327E+03  0.17086037327E+03  0.00000000000E+00 0. -1.
          2    1    1    2  502    0  0.92797692721E+01  0.18582849133E+02 -0.77452770802E+02  0.80189576034E+02  0.00000000000E+00 0. -1.
         -2    1    1    2    0  502 -0.92797692721E+01 -0.18582849133E+02 -0.90867317651E+02  0.93211082049E+02  0.00000000000E+00 0. -1.
</event>
<event>
 4    1  0.5784609E+003  0.2951868E+02  0.7546771E-02  0.1423826E+00
          2   -1    0    0  501    0  0.00000000000E+00  0.00000000000E+00  0.16548820479E+04  0.16548820479E+04  0.00000000000E+00 0. -1.
         -2   -1    0    0    0  501 -0.00000000000E+00 -0.00000000000E+00 -0.12307797231E+01  0.12307797231E+01  0.00000000000E+00 0.  1.
          2    1    1    2  502    0 -0.29269009675E+02 -0.38311645127E+01  0.14531966682E+04  0.14534964428E+04  0.00000000000E+00 0. -1.
         -2    1    1    2    0  502  0.29269009675E+02  0.38311645127E+01  0.20045459992E+03  0.20261638477E+03  0.00000000000E+00 0.  1.
</event>
<event>
 4    1  0.5784609E+003  0.2542728E+02  0.7546771E-02  0.1464080E+00
          2   -1    0    0  501    0  0.00000000000E+00  0.00000000000E+00  0.16682713032E+03  0.16682713032E+03  0.00000000000E+00 0. -1.
         -2   -1    0    0    0  501 -0.00000000000E+00 -0.00000000000E+00 -0.47196613241E+02  0.47196613241E+02  0.00000000000E+00 0. -1.
          2    1    1    2  502    0 -0.74343452045E+01  0.24316190068E+02  0.16233939152E+03  0.16431866792E+03  0.00000000000E+00 0. -1.
         -2    1    1    2    0  502  0.74343452045E+01 -0.24316190068E+02 -0.42708874443E+02  0.49705075639E+02  0.00000000000E+00 0. -1.
</event>
<event>
 4    1  0.5784609E+003  0.3732318E+02  0.7546771E-02  0.1364928E+00
          2   -1    0    0  501    0  0.00000000000E+00  0.00000000000E+00  0.23200908165E+01  0.23200908165E+01  0.00000000000E+00 0. -1.
         -2   -1    0    0    0  501 -0.00000000000E+00 -0.00000000000E+00 -0.60173834998E+03  0.60173834998E+03  0.00000000000E+00 0.  1.
          2    1    1    2  502    0  0.36374563575E+02 -0.83611797603E+01 -0.31387099973E+03  0.31608230363E+03  0.00000000000E+00 0. -1.
         -2    1    1    2    0  502 -0.36374563575E+02  0.83611797603E+01 -0.28554725944E+03  0.28797613717E+03  0.00000000000E+00 0.  1.
</event>
<event>
 4    1  0.5784609E+003  0.2868453E+02  0.7546771E-02  0.1431383E+00
          2   -1    0    0  501    0  0.00000000000E+00  0.00000000000E+00  0.35004626686E+02  0.35004626686E+02  0.00000000000E+00 0.  1.
         -2   -1    0    0    0  501 -0.00000000000E+00 -0.00000000000E+00 -0.19306320836E+03  0.19306320836E+03  0.00000000000E+00 0.  1.
          2    1    1    2  502    0  0.12101906207E+02 -0.26006650518E+02  0.27837563605E+02  0.39971639352E+02  0.00000000000E+00 0.  1.
         -2    1    1    2    0  502 -0.12101906207E+02  0.26006650518E+02 -0.18589614528E+03  0.18809619570E+03  0.00000000000E+00 0.  1.
</event>
<event>
 4    1  0.5784609E+003  0.2230626E+02  0.7546771E-02  0.1501398E+00
          2   -1    0    0  501    0  0.00000000000E+00  0.00000000000E+00  0.58301799695E+03  0.58301799695E+03  0.00000000000E+00 0. -1.
         -2   -1    0    0    0  501 -0.00000000000E+00 -0.00000000000E+00 -0.80135667341E+01  0.80135667341E+01  0.00000000000E+00 0.  1.
          2    1    1    2  502    0  0.21740955468E+02  0.49900186886E+01  0.56683903211E+03  0.56727776067E+03  0.00000000000E+00 0. -1.
         -2    1    1    2    0  502 -0.21740955468E+02 -0.49900186886E+01  0.81653981037E+01  0.23753803009E+02  0.00000000000E+00 0.  1.
</event>
<event>
 4    1  0.5784609E+003  0.2346634E+02  0.7546771E-02  0.1486724E+00
          2   -1    0    0  501    0  0.00000000000E+00  0.00000000000E+00  0.10898489507E+04  0.10898489507E+04  0.00000000000E+00 0.  1.
         -2   -1    0    0    0  501 -0.00000000000E+00 -0.00000000000E+00 -0.10238069426E+02  0.10238069426E+02  0.00000000000E+00 0.  1.
          2    1    1    2  502    0  0.21229151603E+02  0.99996001707E+01  0.10761043058E+04  0.10763601377E+04  0.00000000000E+00 0.  1.
         -2    1    1    2    0  502 -0.21229151603E+02 -0.99996001707E+01  0.35065754525E+01  0.23726882491E+02  0.00000000000E+00 0.  1.
</event>
<event>
 4    1  0.5784609E+003  0.3718960E+02  0.7546771E-02  0.1365791E+00
          2   -1    0    0  501    0  0.00000000000E+00  0.00000000000E+00  0.99812006549E+03  0.99812006549E+03  0.00000000000E+00 0. -1.
         -2   -1    0    0    0  501 -0.00000000000E+00 -0.00000000000E+00 -0.70248429557E+02  0.70248429557E+02  0.00000000000E+00 0. -1.
          2    1    1    2  502    0  0.22491863025E+02  0.29617268617E+02  0.99282535275E+03  0.99352163920E+03  0.00000000000E+00 0. -1.
         -2    1    1    2    0  502 -0.22491863025E+02 -0.29617268617E+02 -0.64953716812E+02  0.74846855848E+02  0.00000000000E+00 0. -1.
</event>
<event>
 4    1  0.5784609E+003  0.2057918E+02  0.7546771E-02  0.1525359E+00
          2   -1    0    0  501    0  0.00000000000E+00  0.00000000000E+00  0.12693083931E+04  0.12693083931E+04  0.00000000000E+00 0.  1.
         -2   -1    0    0    0  501 -0.00000000000E+00 -0.00000000000E+00 -0.49804962455E+01  0.49804962455E+01  0.00000000000E+00 0.  1.
          2    1    1    2  502    0  0.17398374835E+02 -0.10990871118E+02  0.12475970043E+04  0.12477667201E+04  0.00000000000E+00 0.  1.
         -2    1    1    2    0  502 -0.17398374835E+02  0.10990871118E+02  0.16730892552E+02  0.26522169226E+02  0.00000000000E+00 0.  1.
</event>
<event>
 4    1  0.5784609E+003  0.2175386E+02  0.7546771E-02  0.1508768E+00
          2   -1    0    0  501    0  0.00000000000E+00  0.00000000000E+00  0.27627650792E+03  0.27627650792E+03  0.00000000000E+00 0. -1.
         -2   -1    0    0    0  501 -0.00000000000E+00 -0.00000000000E+00 -0.78442696685E+02  0.78442696685E+02  0.00000000000E+00 0.  1.
          2    1    1    2  502    0  0.36587467292E+01 -0.21443975470E+02  0.27432939356E+03  0.27519056430E+03  0.00000000000E+00 0. -1.
         -2    1    1    2    0  502 -0.36587467292E+01  0.21443975470E+02 -0.76495582329E+02  0.79528640296E+02  0.00000000000E+00 0.  1.
</event>
<event>
 4    1  0.5784609E+003  0.2008184E+02  0.7546771E-02  0.1532788E+00
          2   -1    0    0  501    0  0.00000000000E+00  0.00000000000E+00  0.11823745091E+04  0.11823745091E+04  0.00000000000E+00 0. -1.
         -2   -1    0    0    0  501 -0.00000000000E+00 -0.00000000000E+00 -0.64553624668E+01  0.64553624668E+01  0.00000000000E+00 0. -1.
          2    1    1    2  502    0  0.53690497910E+00  0.20074659069E+02  0.11664581158E+04  0.11666309683E+04  0.00000000000E+00 0. -1.
         -2    1    1    2    0  502 -0.53690497910E+00 -0.20074659069E+02  0.94610308494E+01  0.22198903316E+02  0.00000000000E+00 0. -1.
</event>
<event>
 4    1  0.5784609E+003  0.2138678E+02  0.7546771E-02  0.1513814E+00
          2   -1    0    0  501    0  0.00000000000E+00  0.00000000000E+00  0.11500906409E+04  0.11500906409E+04  0.00000000000E+00 0. -1.
         -2   -1    0    0    0  501 -0.00000000000E+00 -0.00000000000E+00 -0.20198198802E+01  0.20198198802E+01  0.00000000000E+00 0. -1.
          2    1    1    2  502    0  0.20597588489E+02 -0.57561753032E+01  0.10902721497E+04  0.10904818910E+04  0.00000000000E+00 0. -1.
         -2    1    1    2    0  502 -0.20597588489E+02  0.57561753032E+01  0.57798671303E+02  0.61628569755E+02  0.00000000000E+00 0. -1.
</event>
<event>
 4    1  0.5784609E+003  0.3290740E+02  0.7546771E-02  0.1395903E+00
          2   -1    0    0  501    0  0.00000000000E+00  0.00000000000E+00  0.11074020686E+04  0.11074020686E+04  0.00000000000E+00 0. -1.
         -2   -1    0    0    0  501 -0.00000000000E+00 -0.00000000000E+00 -0.12158679313E+02  0.12158679313E+02  0.00000000000E+00 0.  1.
          2    1    1    2  502    0 -0.32627012468E+02  0.42866294723E+01  0.10844198978E+04  0.10849190808E+04  0.00000000000E+00 0. -1.
         -2    1    1    2    0  502  0.32627012468E+02 -0.42866294723E+01  0.10823491533E+02  0.34641667162E+02  0.00000000000E+00 0.  1.
</event>
<event>
 4    1  0.5784609E+003  0.2235428E+02  0.7546771E-02  0.1500770E+00
          2   -1    0    0  501    0  0.00000000000E+00  0.00000000000E+00  0.31891248348E+02  0.31891248348E+02  0.00000000000E+00 0. -1.
         -2   -1    0    0    0  501 -0.00000000000E+00 -0.00000000000E+00 -0.32350905136E+02  0.32350905136E+02  0.00000000000E+00 0. -1.
          2    1    1    2  502    0 -0.21772223651E+02  0.50679712903E+01  0.22835815564E+02  0.31956040558E+02  0.00000000000E+00 0. -1.
         -2    1    1    2    0  502  0.21772223651E+02 -0.50679712903E+01 -0.23295472352E+02  0.32286112925E+02  0.00000000000E+00 0. -1.
</event>
<event>
 4    1  0.5784609E+003  0.2100099E+02  0.7546771E-02  0.1519251E+00
          2   -1    0    0  501    0  0.00000000000E+00  0.00000000000E+00  0.40758052246E+02  0.40758052246E+02  0.00000000000E+00 0.  1.
         -2   -1    0    0    0  501 -0.00000000000E+00 -0.00000000000E+00 -0.11604590594E+02  0.11604590594E+02  0.00000000000E+00 0. -1.
          2    1    1    2  502    0  0.21440316784E+01  0.20891263211E+02  0.21380177121E+02  0.29969212938E+02  0.00000000000E+00 0.  1.
         -2    1    1    2    0  502 -0.21440316784E+01 -0.20891263211E+02  0.77732845314E+01  0.22393429902E+02  0.00000000000E+00 0. -1.
</event>
<event>
 4    1  0.5784609E+003  0.2011082E+02  0.7546771E-02  0.1532348E+00
          2   -1    0    0  501    0  0.00000000000E+00  0.00000000000E+00  0.17808867496E+03  0.17808867496E+03  0.00000000000E+00 0. -1.
         -2   -1    0    0    0  501 -0.00000000000E+00 -0.00000000000E+00 -0.30076317711E+02  0.30076317711E+02  0.00000000000E+00 0. -1.
          2    1    1    2  502    0 -0.46828259359E+01  0.19558019466E+02  0.17408197462E+03  0.17523977537E+03  0.00000000000E+00 0. -1.
         -2    1    1    2    0  502  0.46828259359E+01 -0.19558019466E+02 -0.26069617373E+02  0.32925217298E+02  0.00000000000E+00 0. -1.
</event>
<event>
 4    1  0.5784609E+003  0.3005086E+02  0.7546771E-02  0.1419155E+00
          2   -1    0    0  501    0  0.00000000000E+00  0.00000000000E+00  0.37927327493E+02  0.37927327493E+02  0.00000000000E+00 0.  1.
         -2   -1    0    0    0  501 -0.00000000000E+00 -0.00000000000E+00 -0.74329306204E+02  0.74329306204E+02  0.00000000000E+00 0. -1.
          2    1    1    2  502    0  0.17100388424E+02 -0.24710947691E+02  0.28072276531E+02  0.41123070529E+02  0.00000000000E+00 0.  1.
         -2    1    1    2    0  502 -0.17100388424E+02  0.24710947691E+02 -0.64474255242E+02  0.71133563168E+02  0.00000000000E+00 0. -1.
</event>
<event>
 4    1  0.5784609E+003  0.2081196E+02  0.7546771E-02  0.1521967E+00
          2   -1    0    0  501    0  0.00000000000E+00  0.00000000000E+00  0.72324231269E+03  0.72324231269E+03  0.00000000000E+00 0. -1.
         -2   -1    0    0    0  501 -0.00000000000E+00 -0.00000000000E+00 -0.32681336657E+02  0.32681336657E+02  0.00000000000E+00 0.  1.
          2    1    1    2  502    0 -0.18644073835E+02  0.92485759897E+01  0.71976323879E+03  0.72006406490E+03  0.00000000000E+00 0. -1.
         -2    1    1    2    0  502  0.18644073835E+02 -0.92485759897E+01 -0.29202262754E+02  0.35859584450E+02  0.00000000000E+00 0.  1.
</event>
<event>
 4    1  0.5784609E+003  0.2110840E+02  0.7546771E-02  0.1517723E+00
          2   -1    0    0  501    0  0.00000000000E+00  0.00000000000E+00  0.19950469061E+03  0.19950469061E+03  0.00000000000E+00 0. -1.
         -2   -1    0    0    0  501 -0.00000000000E+00 -0.00000000000E+00 -0.18363674999E+02  0.18363674999E+02  0.00000000000E+00 0. -1.
          2    1    1    2  502    0  0.94171911543E+01 -0.18891300988E+02  0.19266583755E+03  0.19381870318E+03  0.00000000000E+00 0. -1.
         -2    1    1    2    0  502 -0.94171911543E+01  0.18891300988E+02 -0.11524821941E+02  0.24049662431E+02  0.00000000000E+00 0. -1.
</event>
<event>
 4    1  0.5784609E+003  0.2798717E+02  0.7546771E-02  0.1437936E+00
          2   -1    0    0  501    0  0.00000000000E+00  0.00000000000E+00  0.85418028160E+02  0.85418028160E+02  0.00000000000E+00 0. -1.
         -2   -1    0    0    0  501 -0.00000000000E+00 -0.00000000000E+00 -0.28900673355E+02  0.28900673355E+02  0.00000000000E+00 0. -1.
          2    1    1    2  502    0 -0.16854638495E+01 -0.27936374874E+02  0.75487209952E+02  0.80508388978E+02  0.00000000000E+00 0. -1.
         -2    1    1    2    0  502  0.16854638495E+01  0.27936374874E+02 -0.18969855147E+02  0.33810312536E+02  0.00000000000E+00 0. -1.
</event>
<event>
 4    1  0.5784609E+003  0.3055830E+02  0.7546771E-02  0.1414806E+00
          2   -1    0    0  501    0  0.00000000000E+00  0.00000000000E+00  0.10151894017E+04  0.10151894017E+04  0.00000000000E+00 0. -1.
         -2   -1    0    0    0  501 -0.00000000000E+00 -0.00000000000E+00 -0.94220028541E+01  0.94220028541E+01  0.00000000000E+00 0.  1.
          2    1    1    2  502    0  0.25033237057E+02  0.17525598560E+02  0.98953998899E+03  0.99001171679E+03  0.00000000000E+00 0. -1.
         -2    1    1    2    0  502 -0.25033237057E+02 -0.17525598560E+02  0.16227409839E+02  0.34599687752E+02  0.00000000000E+00 0.  1.
</event>
<event>
 4    1  0.5784609E+003  0.2322150E+02  0.7546771E-02  0.1489735E+00
          2   -1    0    0  501    0  0.00000000000E+00  0.00000000000E+00  0.90446426895E+01  0.90446426895E+01  0.00000000000E+00 0. -1.
         -2   -1    0    0    0  501 -0.00000000000E+00 -0.00000000000E+00 -0.64284858967E+02  0.64284858967E+02  0.00000000000E+00 0.  1.
          2    1    1    2  502    0  0.20587906316E+02  0.10741340117E+02 -0.17742978550E+02  0.29224160584E+02  0.00000000000E+00 0. -1.
         -2    1    1    2    0  502 -0.20587906316E+02 -0.10741340117E+02 -0.37497237727E+02  0.44105341072E+02  0.00000000000E+00 0.  1.
</event>
<event>
 4    1  0.5784609E+003  0.2756983E+02  0.7546771E-02  0.1441966E+00
          2   -1    0    0  501    0  0.00000000000E+00  0.00000000000E+00  0.11094064665E+04  0.11094064665E+04  0.00000000000E+00 0.  1.
         -2   -1    0    0    0  501 -0.00000000000E+00 -0.00000000000E+00 -0.89662093717E+00  0.89662093717E+00  0.00000000000E+00 0. -1.
          2    1    1    2  502    0 -0.68137081373E+01 -0.26714586246E+02  0.82387083039E+03  0.82433199678E+03  0.00000000000E+00 0.  1.
         -2    1    1    2    0  502  0.68137081373E+01  0.26714586246E+02  0.28463901518E+03  0.28597109067E+03  0.00000000000E+00 0. -1.
</event>
<event>
 4    1  0.5784609E+003  0.3537351E+02  0.7546771E-02  0.1377956E+00
          2   -1    0    0  501    0  0.00000000000E+00  0.00000000000E+00  0.86638031915E+03  0.86638031915E+03  0.00000000000E+00 0. -1.
         -2   -1    0    0    0  501 -0.00000000000E+00 -0.00000000000E+00 -0.21266604313E+01  0.21266604313E+01  0.00000000000E+00 0. -1.
          2    1    1    2  502    0 -0.33199848394E+02 -0.12208831672E+02  0.67811334088E+03  0.67903533677E+03  0.00000000000E+00 0. -1.
         -2    1    1    2    0  502  0.33199848394E+02  0.12208831672E+02  0.18614031784E+03  0.18947164281E+03  0.00000000000E+00 0. -1.
</event>
<event>
 4    1  0.5784609E+003  0.2578103E+02  0.7546771E-02  0.1460253E+00
          2   -1    0    0  501    0  0.00000000000E+00  0.00000000000E+00  0.33234446797E+03  0.33234446797E+03  0.00000000000E+00 0.  1.
         -2   -1    0    0    0  501 -0.00000000000E+00 -0.00000000000E+00 -0.10699654256E+02  0.10699654256E+02  0.00000000000E+00 0. -1.
          2    1    1    2  502    0  0.25456490209E+02  0.40777983241E+01  0.31548603162E+03  0.31653767150E+03  0.00000000000E+00 0.  1.
         -2    1    1    2    0  502 -0.25456490209E+02 -0.40777983241E+01  0.61587820908E+01  0.26506450720E+02  0.00000000000E+00 0. -1.
</event>
<event>
 4    1  0.5784609E+003  0.2381402E+02  0.7546771E-02  0.1482522E+00
          2   -1    0    0  501    0  0.00000000000E+00  0.00000000000E+00  0.14434956342E+04  0.14434956342E+04  0.00000000000E+00 0.  1.
         -2   -1    0    0    0  501 -0.00000000000E+00 -0.00000000000E+00 -0.22419399842E+01  0.22419399842E+01  0.00000000000E+00 0. -1.
          2    1    1    2  502    0 -0.17302263632E+02 -0.16362735878E+02  0.13771106996E+04  0.13773165890E+04  0.00000000000E+00 0.  1.
         -2    1    1    2    0  502  0.17302263632E+02  0.16362735878E+02  0.64142994664E+02  0.68420985206E+02  0.00000000000E+00 0. -1.
</event>
<event>
 4    1  0.5784609E+003  0.2025965E+02  0.7546771E-02  0.1530103E+00
          2   -1    0    0  501    0  0.00000000000E+00  0.00000000000E+00  0.86494536046E+03  0.86494536046E+03  0.00000000000E+00 0.  1.
         -2   -1    0    0    0  501 -0.00000000000E+00 -0.00000000000E+00 -0.25851443010E+02  0.25851443010E+02  0.00000000000E+00 0. -1.
          2    1    1    2  502    0 -0.13164433121E+02 -0.15399717822E+02  0.86083844116E+03  0.86107681155E+03  0.00000000000E+00 0.  1.
         -2    1    1    2    0  502  0.13164433121E+02  0.15399717822E+02 -0.21744523710E+02  0.29719991921E+02  0.00000000000E+00 0. -1.
</event>
<event>
 4    1  0.5784609E+003  0.2066300E+02  0.7546771E-02  0.1524131E+00
          2   -1    0    0  501    0  0.00000000000E+00  0.00000000000E+00  0.65975118222E+01  0.65975118222E+01  0.00000000000E+00 0. -1.
         -2   -1    0    0    0  501 -0.00000000000E+00 -0.00000000000E+00 -0.10123114077E+03  0.10123114077E+03  0.00000000000E+00 0. -1.
          2    1    1    2  502    0  0.19905879391E+02  0.55421594998E+01 -0.14935973661E+02  0.25495938411E+02  0.00000000000E+00 0. -1.
         -2    1    1    2    0  502 -0.19905879391E+02 -0.55421594998E+01 -0.79697655283E+02  0.82332714177E+02  0.00000000000E+00 0. -1.
</event>
