<event>
 4    1  0.6824761E+001  0.4764270E+02  0.7546771E-02  0.1308730E+00
          2   -1    0    0  502    0  0.00000000000E+00  0.00000000000E+00  0.12582007974E+03  0.12582007974E+03  0.00000000000E+00 0. -1.
         -2   -1    0    0    0  501 -0.00000000000E+00 -0.00000000000E+00 -0.18216954886E+02  0.18216954886E+02  0.00000000000E+00 0.  1.
          1    1    1    2  502    0  0.46731533509E+02 -0.92731119607E+01  0.60894391096E+02  0.77317227682E+02  0.00000000000E+00 0.  1.
         -1    1    1    2    0  501 -0.46731533509E+02  0.92731119607E+01  0.46708733761E+02  0.66719806947E+02  0.00000000000E+00 0. -1.
</event>
<event>
 4    1  0.6824761E+001  0.3824775E+02  0.7546771E-02  0.1359072E+00
          2   -1    0    0  502    0  0.00000000000E+00  0.00000000000E+00  0.16475515329E+04  0.16475515329E+04  0.00000000000E+00 0.  1.
         -2   -1    0    0    0  501 -0.00000000000E+00 -0.00000000000E+00 -0.10465241393E+01  0.10465241393E+01  0.00000000000E+00 0. -1.
          1    1    1    2  502    0 -0.13910165314E+02  0.35628602494E+02  0.11441532289E+04  0.11447923398E+04  0.00000000000E+00 0. -1.
         -1    1    1    2    0  501  0.13910165314E+02 -0.35628602494E+02  0.50235177983E+03  0.50380571723E+03  0.00000000000E+00 0.  1.
</event>
<event>
 4    1  0.6824761E+001  0.2080070E+02  0.7546771E-02  0.1522129E+00
          2   -1    0    0  502    0  0.00000000000E+00  0.00000000000E+00  0.77326759888E+01  0.77326759888E+01  0.00000000000E+00 0.  1.
         -2   -1    0    0    0  501 -0.00000000000E+00 -0.00000000000E+00 -0.67750983081E+02  0.67750983081E+02  0.00000000000E+00 0. -1.
          1    1    1    2  502    0  0.20228826350E+02  0.48439402689E+01 -0.45758497916E+02  0.50264394002E+02  0.00000000000E+00 0. -1.
         -1    1    1    2    0  501 -0.20228826350E+02 -0.48439402689E+01 -0.14259809176E+02  0.25219265068E+02  0.00000000000E+00 0.  1.
</event>
<event>
 4    1  0.6824761E+001  0.2466501E+02  0.7546771E-02  0.1472586E+00
          2   -1    0    0  502    0  0.00000000000E+00  0.00000000000E+00  0.12680054573E+03  0.12680054573E+03  0.00000000000E+00 0.  1.
         -2   -1    0    0    0  501 -0.00000000000E+00 -0.00000000000E+00 -0.59284919113E+01  0.59284919113E+01  0.00000000000E+00 0. -1.
          1    1    1    2  502    0 -0.16869731117E+02 -0.17993746307E+02  0.89418629141E+02  0.92758039930E+02  0.00000000000E+00 0.  1.
         -1    1    1    2    0  501  0.16869731117E+02  0.17993746307E+02  0.31453424678E+02  0.39970997712E+02  0.00000000000E+00 0. -1.
</event>
<event>
 4    1  0.6824761E+001  0.2052638E+02  0.7546771E-02  0.1526135E+00
          2   -1    0    0  502    0  0.00000000000E+00  0.00000000000E+00  0.11619446331E+04  0.11619446331E+04  0.00000000000E+00 0.  1.
         -2   -1    0    0    0  501 -0.00000000000E+00 -0.00000000000E+00 -0.79294143747E+00  0.79294143747E+00  0.00000000000E+00 0. -1.
          1    1    1    2  502    0 -0.12400415018E+02  0.16357324264E+02  0.10088608443E+04  0.10090696386E+04  0.00000000000E+00 0.  1.
         -1    1    1    2    0  501  0.12400415018E+02 -0.16357324264E+02  0.15229084728E+03  0.15366793587E+03  0.00000000000E+00 0. -1.
</event>
<event>
 4    1  0.6824761E+001  0.2931541E+02  0.7546771E-02  0.1425640E+00
          2   -1    0    0  502    0  0.00000000000E+00  0.00000000000E+00  0.30389577514E+03  0.30389577514E+03  0.00000000000E+00 0. -1.
         -2   -1    0    0    0  501 -0.00000000000E+00 -0.00000000000E+00 -0.36330552833E+01  0.36330552833E+01  0.00000000000E+00 0.  1.
          1    1    1    2  502    0 -0.12632216525E+02  0.26454115812E+02  0.22251727887E+03  0.22444004218E+03  0.00000000000E+00 0. -1.
         -1    1    1    2    0  501  0.12632216525E+02 -0.26454115812E+02  0.77745440994E+02  0.83088788252E+02  0.00000000000E+00 0.  1.
</event>
<event>
 4    1  0.6824761E+001  0.2000702E+02  0.7546771E-02  0.1533928E+00
          2   -1    0    0  502    0  0.00000000000E+00  0.00000000000E+00  0.52206287166E+03  0.52206287166E+03  0.00000000000E+00 0.  1.
         -2   -1    0    0    0  501 -0.00000000000E+00 -0.00000000000E+00 -0.10766783380E+01  0.10766783380E+01  0.00000000000E+00 0. -1.
          1    1    1    2  502    0  0.19914087414E+02 -0.19261517805E+01  0.12015044873E+03  0.12180480806E+03  0.00000000000E+00 0. -1.
         -1    1    1    2    0  501 -0.19914087414E+02  0.19261517805E+01  0.40083574459E+03  0.40133474193E+03  0.00000000000E+00 0.  1.
</event>
<event>
 4    1  0.6824761E+001  0.2488592E+02  0.7546771E-02  0.1470084E+00
          2   -1    0    0  502    0  0.00000000000E+00  0.00000000000E+00  0.10828854909E+04  0.10828854909E+04  0.00000000000E+00 0. -1.
         -2   -1    0    0    0  501 -0.00000000000E+00 -0.00000000000E+00 -0.57940197722E+00  0.57940197722E+00  0.00000000000E+00 0.  1.
          1    1    1    2  502    0 -0.98134004861E+01 -0.22869333816E+02  0.47953692972E+03  0.48018223231E+03  0.00000000000E+00 0.  1.
         -1    1    1    2    0  501  0.98134004861E+01  0.22869333816E+02  0.60276915917E+03  0.60328266053E+03  0.00000000000E+00 0. -1.
</event>
<event>
 4    1  0.6824761E+001  0.2214632E+02  0.7546771E-02  0.1503505E+00
          2   -1    0    0  502    0  0.00000000000E+00  0.00000000000E+00  0.78001784456E+03  0.78001784456E+03  0.00000000000E+00 0. -1.
         -2   -1    0    0    0  501 -0.00000000000E+00 -0.00000000000E+00 -0.64661771153E+00  0.64661771153E+00  0.00000000000E+00 0.  1.
          1    1    1    2  502    0  0.51779649368E+01 -0.21532494840E+02  0.45451615409E+03  0.45505537463E+03  0.00000000000E+00 0. -1.
         -1    1    1    2    0  501 -0.51779649368E+01  0.21532494840E+02  0.32485507276E+03  0.32560908764E+03  0.00000000000E+00 0.  1.
</event>
<event>
 4    1  0.6824761E+001  0.3001191E+02  0.7546771E-02  0.1419493E+00
          2   -1    0    0  502    0  0.00000000000E+00  0.00000000000E+00  0.90858310743E+03  0.90858310743E+03  0.00000000000E+00 0. -1.
         -2   -1    0    0    0  501 -0.00000000000E+00 -0.00000000000E+00 -0.13819447222E+01  0.13819447222E+01  0.00000000000E+00 0.  1.
          1    1    1    2  502    0 -0.23990106964E+02 -0.18033011295E+02  0.21171044652E+03  0.21382709813E+03  0.00000000000E+00 0.  1.
         -1    1    1    2    0  501  0.23990106964E+02  0.18033011295E+02  0.69549071619E+03  0.69613795403E+03  0.00000000000E+00 0. -1.
</event>
<event>
 4    1  0.6824761E+001  0.2251437E+02  0.7546771E-02  0.1498688E+00
          2   -1    0    0  502    0  0.00000000000E+00  0.00000000000E+00  0.12916083733E+03  0.12916083733E+03  0.00000000000E+00 0.  1.
         -2   -1    0    0    0  501 -0.00000000000E+00 -0.00000000000E+00 -0.39290795303E+01  0.39290795303E+01  0.00000000000E+00 0. -1.
          1    1    1    2  502    0  0.89930426648E+01  0.20640301793E+02  0.60353973176E+02  0.64416604634E+02  0.00000000000E+00 0. -1.
         -1    1    1    2    0  501 -0.89930426648E+01 -0.20640301793E+02  0.64877784626E+02  0.68673312228E+02  0.00000000000E+00 0.  1.
</event>
<event>
 4    1  0.6824761E+001  0.3567045E+02  0.7546771E-02  0.1375910E+00
          2   -1    0    0  502    0  0.00000000000E+00  0.00000000000E+00  0.39167555063E+03  0.39167555063E+03  0.00000000000E+00 0. -1.
         -2   -1    0    0    0  501 -0.00000000000E+00 -0.00000000000E+00 -0.44117329348E+01  0.44117329348E+01  0.00000000000E+00 0.  1.
          1    1    1    2  502    0  0.31692755095E+02 -0.16369197138E+02  0.91941842758E+02  0.98618881509E+02  0.00000000000E+00 0.  1.
         -1    1    1    2    0  501 -0.31692755095E+02  0.16369197138E+02  0.29532197494E+03  0.29746840206E+03  0.00000000000E+00 0. -1.
</event>
<event>
 4    1  0.6824761E+001  0.3133800E+02  0.7546771E-02  0.1408315E+00
          2   -1    0    0  502    0  0.00000000000E+00  0.00000000000E+00  0.18141377672E+01  0.18141377672E+01  0.00000000000E+00 0.  1.
         -2   -1    0    0    0  501 -0.00000000000E+00 -0.00000000000E+00 -0.54373658694E+03  0.54373658694E+03  0.00000000000E+00 0. -1.
          1    1    1    2  502    0  0.14699693899E+02 -0.27676512983E+02 -0.25286216727E+03  0.25479667582E+03  0.00000000000E+00 0.  1.
         -1    1    1    2    0  501 -0.14699693899E+02  0.27676512983E+02 -0.28906028190E+03  0.29075404888E+03  0.00000000000E+00 0. -1.
</event>
<event>
 4    1  0.6824761E+001  0.2981874E+02  0.7546771E-02  0.1421178E+00
          2   -1    0    0  502    0  0.00000000000E+00  0.00000000000E+00  0.66596856263E+02  0.66596856263E+02  0.00000000000E+00 0.  1.
         -2   -1    0    0    0  501 -0.00000000000E+00 -0.00000000000E+00 -0.17254815994E+02  0.17254815994E+02  0.00000000000E+00 0. -1.
          1    1    1    2  502    0 -0.17645159417E+02 -0.24037586042E+02  0.44612270555E+02  0.53660151674E+02  0.00000000000E+00 0.  1.
         -1    1    1    2    0  501  0.17645159417E+02  0.24037586042E+02  0.47297697140E+01  0.30191520583E+02  0.00000000000E+00 0. -1.
</event>
<event>
 4    1  0.6824761E+001  0.2747053E+02  0.7546771E-02  0.1442938E+00
          2   -1    0    0  502    0  0.00000000000E+00  0.00000000000E+00  0.29985278204E+03  0.29985278204E+03  0.00000000000E+00 0.  1.
         -2   -1    0    0    0  501 -0.00000000000E+00 -0.00000000000E+00 -0.30546055339E+01  0.30546055339E+01  0.00000000000E+00 0. -1.
          1    1    1    2  502    0  0.16762307249E+02 -0.21763617605E+02  0.84841398969E+02  0.89177872673E+02  0.00000000000E+00 0.  1.
         -1    1    1    2    0  501 -0.16762307249E+02  0.21763617605E+02  0.21195677754E+03  0.21372951490E+03  0.00000000000E+00 0. -1.
</event>
<event>
 4    1  0.6824761E+001  0.2856415E+02  0.7546771E-02  0.1432498E+00
          2   -1    0    0  502    0  0.00000000000E+00  0.00000000000E+00  0.15172870467E+04  0.15172870467E+04  0.00000000000E+00 0. -1.
         -2   -1    0    0    0  501 -0.00000000000E+00 -0.00000000000E+00 -0.32803483140E+01  0.32803483140E+01  0.00000000000E+00 0.  1.
          1    1    1    2  502    0  0.23129893201E+02  0.16760637621E+02  0.14521834487E+04  0.14524643471E+04  0.00000000000E+00 0. -1.
         -1    1    1    2    0  501 -0.23129893201E+02 -0.16760637621E+02  0.61823249701E+02  0.68103047924E+02  0.00000000000E+00 0.  1.
</event>
<event>
 4    1  0.6824761E+001  0.2064951E+02  0.7546771E-02  0.1524328E+00
          2   -1    0    0  502    0  0.00000000000E+00  0.00000000000E+00  0.69840165480E+03  0.69840165480E+03  0.00000000000E+00 0.  1.
         -2   -1    0    0    0  501 -0.00000000000E+00 -0.00000000000E+00 -0.13577308801E+01  0.13577308801E+01  0.00000000000E+00 0. -1.
          1    1    1    2  502    0 -0.19416206537E+02 -0.70294450407E+01  0.60807592151E+03  0.60842643638E+03  0.00000000000E+00 0.  1.
         -1    1    1    2    0  501  0.19416206537E+02  0.70294450407E+01  0.88968002416E+02  0.91332949300E+02  0.00000000000E+00 0. -1.
</event>
<event>
 4    1  0.6824761E+001  0.7093597E+02  0.7546771E-02  0.1226614E+00
          2   -1    0    0  502    0  0.00000000000E+00  0.00000000000E+00  0.32324714617E+04  0.32324714617E+04  0.00000000000E+00 0. -1.
         -2   -1    0    0    0  501 -0.00000000000E+00 -0.00000000000E+00 -0.28297082716E+01  0.28297082716E+01  0.00000000000E+00 0.  1.
          1    1    1    2  502    0 -0.80701034827E+01  0.70475418911E+02  0.52981131002E+03  0.53453899340E+03  0.00000000000E+00 0.  1.
         -1    1    1    2    0  501  0.80701034827E+01 -0.70475418911E+02  0.26998304434E+04  0.27007621766E+04  0.00000000000E+00 0. -1.
</event>
<event>
 4    1  0.6824761E+001  0.3212926E+02  0.7546771E-02  0.1401953E+00
          2   -1    0    0  502    0  0.00000000000E+00  0.00000000000E+00  0.25506344740E+04  0.25506344740E+04  0.00000000000E+00 0. -1.
         -2   -1    0    0    0  501 -0.00000000000E+00 -0.00000000000E+00 -0.44033951270E+00  0.44033951270E+00  0.00000000000E+00 0.  1.
          1    1    1    2  502    0  0.25968961024E+02  0.18918312318E+02  0.91231044780E+03  0.91287602808E+03  0.00000000000E+00 0.  1.
         -1    1    1    2    0  501 -0.25968961024E+02 -0.18918312318E+02  0.16378836867E+04  0.16381987854E+04  0.00000000000E+00 0. -1.
</event>
<event>
 4    1  0.6824761E+001  0.2533152E+02  0.7546771E-02  0.1465129E+00
          2   -1    0    0  502    0  0.00000000000E+00  0.00000000000E+00  0.64504090619E+02  0.64504090619E+02  0.00000000000E+00 0. -1.
         -2   -1    0    0    0  501 -0.00000000000E+00 -0.00000000000E+00 -0.11429537654E+02  0.11429537654E+02  0.00000000000E+00 0.  1.
          1    1    1    2  502    0  0.15030627506E+02  0.20390349081E+02  0.12867937206E+02  0.28412495610E+02  0.00000000000E+00 0.  1.
         -1    1    1    2    0  501 -0.15030627506E+02 -0.20390349081E+02  0.40206615758E+02  0.47521132663E+02  0.00000000000E+00 0. -1.
</event>
<event>
 4    1  0.6824761E+001  0.3595626E+02  0.7546771E-02  0.1373962E+00
          2   -1    0    0  502    0  0.00000000000E+00  0.00000000000E+00  0.55650967799E+02  0.55650967799E+02  0.00000000000E+00 0.  1.
         -2   -1    0    0    0  501 -0.00000000000E+00 -0.00000000000E+00 -0.23232567919E+02  0.23232567919E+02  0.00000000000E+00 0. -1.
          1    1    1    2  502    0  0.22588494308E+02 -0.27975209195E+02  0.16483393737E+02  0.39554452009E+02  0.00000000000E+00 0. -1.
         -1    1    1    2    0  501 -0.22588494308E+02  0.27975209195E+02  0.15935006143E+02  0.39329083709E+02  0.00000000000E+00 0.  1.
</event>
<event>
 4    1  0.6824761E+001  0.2353812E+02  0.7546771E-02  0.1485849E+00
          2   -1    0    0  502    0  0.00000000000E+00  0.00000000000E+00  0.19427828644E+04  0.19427828644E+04  0.00000000000E+00 0.  1.
         -2   -1    0    0    0  501 -0.00000000000E+00 -0.00000000000E+00 -0.34411536544E+00  0.34411536544E+00  0.00000000000E+00 0. -1.
          1    1    1    2  502    0  0.12118577012E+02 -0.20178783279E+02  0.13732937645E+04  0.13734954702E+04  0.00000000000E+00 0. -1.
         -1    1    1    2    0  501 -0.12118577012E+02  0.20178783279E+02  0.56914498455E+03  0.56963150952E+03  0.00000000000E+00 0.  1.
</event>
<event>
 4    1  0.6824761E+001  0.2693133E+02  0.7546771E-02  0.1448299E+00
          2   -1    0    0  502    0  0.00000000000E+00  0.00000000000E+00  0.72067504857E+03  0.72067504857E+03  0.00000000000E+00 0. -1.
         -2   -1    0    0    0  501 -0.00000000000E+00 -0.00000000000E+00 -0.34590511545E+01  0.34590511545E+01  0.00000000000E+00 0.  1.
          1    1    1    2  502    0  0.20646062228E+02 -0.17292680212E+02  0.53729175918E+02  0.60100923614E+02  0.00000000000E+00 0.  1.
         -1    1    1    2    0  501 -0.20646062228E+02  0.17292680212E+02  0.66348682150E+03  0.66403317611E+03  0.00000000000E+00 0. -1.
</event>
<event>
 4    1  0.6824761E+001  0.2393978E+02  0.7546771E-02  0.1481023E+00
          2   -1    0    0  502    0  0.00000000000E+00  0.00000000000E+00  0.14194754208E+03  0.14194754208E+03  0.00000000000E+00 0.  1.
         -2   -1    0    0    0  501 -0.00000000000E+00 -0.00000000000E+00 -0.40543328077E+01  0.40543328077E+01  0.00000000000E+00 0. -1.
          1    1    1    2  502    0  0.15966203262E+02 -0.17837982911E+02  0.64242902966E+02  0.68558470391E+02  0.00000000000E+00 0.  1.
         -1    1    1    2    0  501 -0.15966203262E+02  0.17837982911E+02  0.73650306306E+02  0.77443404496E+02  0.00000000000E+00 0. -1.
</event>
<event>
 4    1  0.6824761E+001  0.4034859E+02  0.7546771E-02  0.1346455E+00
          2   -1    0    0  502    0  0.00000000000E+00  0.00000000000E+00  0.17876689806E+04  0.17876689806E+04  0.00000000000E+00 0. -1.
         -2   -1    0    0    0  501 -0.00000000000E+00 -0.00000000000E+00 -0.94977445511E+00  0.94977445511E+00  0.00000000000E+00 0.  1.
          1    1    1    2  502    0 -0.20666125117E+02  0.34654287058E+02  0.71193684223E+03  0.71307929129E+03  0.00000000000E+00 0.  1.
         -1    1    1    2    0  501  0.20666125117E+02 -0.34654287058E+02  0.10747823639E+04  0.10755394637E+04  0.00000000000E+00 0. -1.
</event>
<event>
 4    1  0.6824761E+001  0.2453169E+02  0.7546771E-02  0.1474111E+00
          2   -1    0    0  502    0  0.00000000000E+00  0.00000000000E+00  0.10993518511E+04  0.10993518511E+04  0.00000000000E+00 0. -1.
         -2   -1    0    0    0  501 -0.00000000000E+00 -0.00000000000E+00 -0.69827552974E+00  0.69827552974E+00  0.00000000000E+00 0.  1.
          1    1    1    2  502    0 -0.23091458231E+01 -0.24422768886E+02  0.29367188154E+03  0.29469471967E+03  0.00000000000E+00 0.  1.
         -1    1    1    2    0  501  0.23091458231E+01  0.24422768886E+02  0.80498169404E+03  0.80535540697E+03  0.00000000000E+00 0. -1.
</event>
<event>
 4    1  0.6824761E+001  0.4533148E+02  0.7546771E-02  0.1319790E+00
          2   -1    0    0  502    0  0.00000000000E+00  0.00000000000E+00  0.28560473765E+02  0.28560473765E+02  0.00000000000E+00 0. -1.
         -2   -1    0    0    0  501 -0.00000000000E+00 -0.00000000000E+00 -0.92551924482E+02  0.92551924482E+02  0.00000000000E+00 0.  1.
          1    1    1    2  502    0 -0.33940172382E+02  0.30050083757E+02 -0.34255045965E+01  0.45460718394E+02  0.00000000000E+00 0. -1.
         -1    1    1    2    0  501  0.33940172382E+02 -0.30050083757E+02 -0.60565946121E+02  0.75651679853E+02  0.00000000000E+00 0.  1.
</event>
<event>
 4    1  0.6824761E+001  0.3883058E+02  0.7546771E-02  0.1355478E+00
          2   -1    0    0  502    0  0.00000000000E+00  0.00000000000E+00  0.59271480239E+02  0.59271480239E+02  0.00000000000E+00 0. -1.
         -2   -1    0    0    0  501 -0.00000000000E+00 -0.00000000000E+00 -0.33285274814E+02  0.33285274814E+02  0.00000000000E+00 0.  1.
          1    1    1    2  502    0  0.38189247411E+02 -0.70281764358E+01  0.35461944290E+02  0.52586722418E+02  0.00000000000E+00 0. -1.
         -1    1    1    2    0  501 -0.38189247411E+02  0.70281764358E+01 -0.94757388654E+01  0.39970032636E+02  0.00000000000E+00 0.  1.
</event>
<event>
 4    1  0.6824761E+001  0.2491278E+02  0.7546771E-02  0.1469782E+00
          2   -1    0    0  502    0  0.00000000000E+00  0.00000000000E+00  0.14103382693E+03  0.14103382693E+03  0.00000000000E+00 0. -1.
         -2   -1    0    0    0  501 -0.00000000000E+00 -0.00000000000E+00 -0.86890419718E+01  0.86890419718E+01  0.00000000000E+00 0.  1.
          1    1    1    2  502    0  0.87742441945E+01 -0.23316503042E+02  0.13580691098E+02  0.28373964228E+02  0.00000000000E+00 0.  1.
         -1    1    1    2    0  501 -0.87742441945E+01  0.23316503042E+02  0.11876409386E+03  0.12134890468E+03  0.00000000000E+00 0. -1.
</event>
<event>
 4    1  0.6824761E+001  0.2136476E+02  0.7546771E-02  0.1514120E+00
          2   -1    0    0  502    0  0.00000000000E+00  0.00000000000E+00  0.30580657481E+03  0.30580657481E+03  0.00000000000E+00 0. -1.
         -2   -1    0    0    0  501 -0.00000000000E+00 -0.00000000000E+00 -0.26740147524E+01  0.26740147524E+01  0.00000000000E+00 0.  1.
          1    1    1    2  502    0 -0.19515617077E+02  0.86944529573E+01  0.49045104188E+02  0.53496495838E+02  0.00000000000E+00 0.  1.
         -1    1    1    2    0  501  0.19515617077E+02 -0.86944529573E+01  0.25408745587E+03  0.25498409372E+03  0.00000000000E+00 0. -1.
</event>
<event>
 4    1  0.6824761E+001  0.2155444E+02  0.7546771E-02  0.1511494E+00
          2   -1    0    0  502    0  0.00000000000E+00  0.00000000000E+00  0.10822426713E+01  0.10822426713E+01  0.00000000000E+00 0. -1.
         -2   -1    0    0    0  501 -0.00000000000E+00 -0.00000000000E+00 -0.49384370992E+03  0.49384370992E+03  0.00000000000E+00 0.  1.
          1    1    1    2  502    0 -0.21070173310E+02  0.45433147078E+01 -0.15690970577E+03  0.15838323673E+03  0.00000000000E+00 0. -1.
         -1    1    1    2    0  501  0.21070173310E+02 -0.45433147078E+01 -0.33585176147E+03  0.33654271586E+03  0.00000000000E+00 0.  1.
</event>
<event>
 4    1  0.6824761E+001  0.2581156E+02  0.7546771E-02  0.1459926E+00
          2   -1    0    0  502    0  0.00000000000E+00  0.00000000000E+00  0.10428208317E+04  0.10428208317E+04  0.00000000000E+00 0.  1.
         -2   -1    0    0    0  501 -0.00000000000E+00 -0.00000000000E+00 -0.13170705027E+01  0.13170705027E+01  0.00000000000E+00 0. -1.
          1    1    1    2  502    0 -0.25801057594E+02 -0.73629177597E+00  0.89537917216E+03  0.89575113655E+03  0.00000000000E+00 0.  1.
         -1    1    1    2    0  501  0.25801057594E+02  0.73629177597E+00  0.14612458903E+03  0.14838676564E+03  0.00000000000E+00 0. -1.
</event>
<event>
 4    1  0.6824761E+001  0.2343802E+02  0.7546771E-02  0.1487070E+00
          2   -1    0    0  502    0  0.00000000000E+00  0.00000000000E+00  0.57849416702E+03  0.57849416702E+03  0.00000000000E+00 0.  1.
         -2   -1    0    0    0  501 -0.00000000000E+00 -0.00000000000E+00 -0.19657397358E+01  0.19657397358E+01  0.00000000000E+00 0. -1.
          1    1    1    2  502    0 -0.22780236573E+02 -0.55137686575E+01  0.79596661837E+02  0.82975715717E+02  0.00000000000E+00 0. -1.
         -1    1    1    2    0  501  0.22780236573E+02  0.55137686575E+01  0.49693176545E+03  0.49748419104E+03  0.00000000000E+00 0.  1.
</event>
<event>
 4    1  0.6824761E+001  0.3808286E+02  0.7546771E-02  0.1360102E+00
          2   -1    0    0  502    0  0.00000000000E+00  0.00000000000E+00  0.41371621304E+03  0.41371621304E+03  0.00000000000E+00 0.  1.
         -2   -1    0    0    0  501 -0.00000000000E+00 -0.00000000000E+00 -0.37217896423E+01  0.37217896423E+01  0.00000000000E+00 0. -1.
          1    1    1    2  502    0  0.37525606196E+02  0.64910175533E+01  0.15468771755E+03  0.15930660498E+03  0.00000000000E+00 0. -1.
         -1    1    1    2    0  501 -0.37525606196E+02 -0.64910175533E+01  0.25530670585E+03  0.25813139770E+03  0.00000000000E+00 0.  1.
</event>
<event>
 4    1  0.6824761E+001  0.2507186E+02  0.7546771E-02  0.1468001E+00
          2   -1    0    0  502    0  0.00000000000E+00  0.00000000000E+00  0.11968834852E+03  0.11968834852E+03  0.00000000000E+00 0.  1.
         -2   -1    0    0    0  501 -0.00000000000E+00 -0.00000000000E+00 -0.10352124501E+02  0.10352124501E+02  0.00000000000E+00 0. -1.
          1    1    1    2  502    0  0.25064814006E+02  0.59451219392E+00  0.10030604009E+03  0.10339197273E+03  0.00000000000E+00 0.  1.
         -1    1    1    2    0  501 -0.25064814006E+02 -0.59451219392E+00  0.90301839235E+01  0.26648500288E+02  0.00000000000E+00 0. -1.
</event>
<event>
 4    1  0.6824761E+001  0.3976469E+02  0.7546771E-02  0.1349870E+00
          2   -1    0    0  502    0  0.00000000000E+00  0.00000000000E+00  0.76647927773E+01  0.76647927773E+01  0.00000000000E+00 0. -1.
         -2   -1    0    0    0  501 -0.00000000000E+00 -0.00000000000E+00 -0.22151566000E+03  0.22151566000E+03  0.00000000000E+00 0.  1.
          1    1    1    2  502    0 -0.36735979304E+02  0.15221647300E+02 -0.76890920294E+02  0.86564683016E+02  0.00000000000E+00 0. -1.
         -1    1    1    2    0  501  0.36735979304E+02 -0.15221647300E+02 -0.13695994693E+03  0.14261576976E+03  0.00000000000E+00 0.  1.
</event>
<event>
 4    1  0.6824761E+001  0.3809619E+02  0.7546771E-02  0.1360018E+00
          2   -1    0    0  502    0  0.00000000000E+00  0.00000000000E+00  0.74990117552E+02  0.74990117552E+02  0.00000000000E+00 0.  1.
         -2   -1    0    0    0  501 -0.00000000000E+00 -0.00000000000E+00 -0.19838369146E+02  0.19838369146E+02  0.00000000000E+00 0. -1.
          1    1    1    2  502    0 -0.77378292976E+00  0.38088334863E+02  0.34988559535E+02  0.51725422096E+02  0.00000000000E+00 0.  1.
         -1    1    1    2    0  501  0.77378292976E+00 -0.38088334863E+02  0.20163188871E+02  0.43103064602E+02  0.00000000000E+00 0. -1.
</event>
<event>
 4    1  0.6824761E+001  0.2720140E+02  0.7546771E-02  0.1445595E+00
          2   -1    0    0  502    0  0.00000000000E+00  0.00000000000E+00  0.88534434710E+03  0.88534434710E+03  0.00000000000E+00 0. -1.
         -2   -1    0    0    0  501 -0.00000000000E+00 -0.00000000000E+00 -0.13858593649E+01  0.13858593649E+01  0.00000000000E+00 0.  1.
          1    1    1    2  502    0  0.26705723934E+01  0.27069983321E+02  0.72131798071E+03  0.72183069016E+03  0.00000000000E+00 0. -1.
         -1    1    1    2    0  501 -0.26705723934E+01 -0.27069983321E+02  0.16264050703E+03  0.16489951631E+03  0.00000000000E+00 0.  1.
</event>
<event>
 4    1  0.6824761E+001  0.3855607E+02  0.7546771E-02  0.1357161E+00
          2   -1    0    0  502    0  0.00000000000E+00  0.00000000000E+00  0.92615587509E+02  0.92615587509E+02  0.00000000000E+00 0. -1.
         -2   -1    0    0    0  501 -0.00000000000E+00 -0.00000000000E+00 -0.20630112108E+02  0.20630112108E+02  0.00000000000E+00 0.  1.
          1    1    1    2  502    0  0.38244711676E+02 -0.48900586948E+01  0.62669472316E+02  0.73580115559E+02  0.00000000000E+00 0. -1.
         -1    1    1    2    0  501 -0.38244711676E+02  0.48900586948E+01  0.93160030842E+01  0.39665584058E+02  0.00000000000E+00 0.  1.
</event>
<event>
 4    1  0.6824761E+001  0.2880156E+02  0.7546771E-02  0.1430305E+00
          2   -1    0    0  502    0  0.00000000000E+00  0.00000000000E+00  0.10554659229E+03  0.10554659229E+03  0.00000000000E+00 0. -1.
         -2   -1    0    0    0  501 -0.00000000000E+00 -0.00000000000E+00 -0.10039483378E+02  0.10039483378E+02  0.00000000000E+00 0.  1.
          1    1    1    2  502    0  0.11677187505E+02  0.26328177212E+02  0.74684988113E+02  0.80046093426E+02  0.00000000000E+00 0.  1.
         -1    1    1    2    0  501 -0.11677187505E+02 -0.26328177212E+02  0.20822120804E+02  0.35539982247E+02  0.00000000000E+00 0. -1.
</event>
<event>
 4    1  0.6824761E+001  0.3436576E+02  0.7546771E-02  0.1385078E+00
          2   -1    0    0  502    0  0.00000000000E+00  0.00000000000E+00  0.58783726329E+03  0.58783726329E+03  0.00000000000E+00 0.  1.
         -2   -1    0    0    0  501 -0.00000000000E+00 -0.00000000000E+00 -0.21006715109E+01  0.21006715109E+01  0.00000000000E+00 0. -1.
          1    1    1    2  502    0 -0.45683126949E+01  0.34060765904E+02  0.35446428419E+03  0.35612628943E+03  0.00000000000E+00 0. -1.
         -1    1    1    2    0  501  0.45683126949E+01 -0.34060765904E+02  0.23127230759E+03  0.23381164537E+03  0.00000000000E+00 0.  1.
</event>
<event>
 4    1  0.6824761E+001  0.2959418E+02  0.7546771E-02  0.1423156E+00
          2   -1    0    0  502    0  0.00000000000E+00  0.00000000000E+00  0.24742786249E+03  0.24742786249E+03  0.00000000000E+00 0. -1.
         -2   -1    0    0    0  501 -0.00000000000E+00 -0.00000000000E+00 -0.36079442121E+01  0.36079442121E+01  0.00000000000E+00 0.  1.
          1    1    1    2  502    0 -0.21345788419E+02 -0.20498115672E+02  0.10464471764E+03  0.10874894187E+03  0.00000000000E+00 0. -1.
         -1    1    1    2    0  501  0.21345788419E+02  0.20498115672E+02  0.13917520064E+03  0.14228686483E+03  0.00000000000E+00 0.  1.
</event>
<event>
 4    1  0.6824761E+001  0.2653022E+02  0.7546771E-02  0.1452385E+00
          2   -1    0    0  502    0  0.00000000000E+00  0.00000000000E+00  0.34107201037E+03  0.34107201037E+03  0.00000000000E+00 0.  1.
         -2   -1    0    0    0  501 -0.00000000000E+00 -0.00000000000E+00 -0.23534953172E+01  0.23534953172E+01  0.00000000000E+00 0. -1.
          1    1    1    2  502    0  0.28713037795E+01  0.26374380467E+02  0.22961952496E+03  0.23114709294E+03  0.00000000000E+00 0. -1.
         -1    1    1    2    0  501 -0.28713037795E+01 -0.26374380467E+02  0.10909899009E+03  0.11227841275E+03  0.00000000000E+00 0.  1.
</event>
<event>
 4    1  0.6824761E+001  0.2495660E+02  0.7546771E-02  0.1469290E+00
          2   -1    0    0  502    0  0.00000000000E+00  0.00000000000E+00  0.98584027958E+03  0.98584027958E+03  0.00000000000E+00 0.  1.
         -2   -1    0    0    0  501 -0.00000000000E+00 -0.00000000000E+00 -0.10964012793E+01  0.10964012793E+01  0.00000000000E+00 0. -1.
          1    1    1    2  502    0  0.19226231691E+02 -0.15911750534E+02  0.17113520263E+03  0.17294533636E+03  0.00000000000E+00 0. -1.
         -1    1    1    2    0  501 -0.19226231691E+02  0.15911750534E+02  0.81360867567E+03  0.81399134449E+03  0.00000000000E+00 0.  1.
</event>
<event>
 4    1  0.6824761E+001  0.2145064E+02  0.7546771E-02  0.1512927E+00
          2   -1    0    0  502    0  0.00000000000E+00  0.00000000000E+00  0.17684784738E+02  0.17684784738E+02  0.00000000000E+00 0.  1.
         -2   -1    0    0    0  501 -0.00000000000E+00 -0.00000000000E+00 -0.31748800925E+02  0.31748800925E+02  0.00000000000E+00 0. -1.
          1    1    1    2  502    0  0.17687759558E+02 -0.12135613198E+02  0.34687499602E+01  0.21729292952E+02  0.00000000000E+00 0. -1.
         -1    1    1    2    0  501 -0.17687759558E+02  0.12135613198E+02 -0.17532766147E+02  0.27704292712E+02  0.00000000000E+00 0.  1.
</event>
<event>
 4    1  0.6824761E+001  0.2356310E+02  0.7546771E-02  0.1485546E+00
          2   -1    0    0  502    0  0.00000000000E+00  0.00000000000E+00  0.81561960208E+01  0.81561960208E+01  0.00000000000E+00 0.  1.
         -2   -1    0    0    0  501 -0.00000000000E+00 -0.00000000000E+00 -0.72816968552E+02  0.72816968552E+02  0.00000000000E+00 0. -1.
          1    1    1    2  502    0  0.40148636161E+01 -0.23218540708E+02 -0.42663916414E+02  0.48738378371E+02  0.00000000000E+00 0.  1.
         -1    1    1    2    0  501 -0.40148636161E+01  0.23218540708E+02 -0.21996856118E+02  0.32234786202E+02  0.00000000000E+00 0. -1.
</event>
<event>
 4    1  0.6824761E+001  0.2609996E+02  0.7546771E-02  0.1456865E+00
          2   -1    0    0  502    0  0.00000000000E+00  0.00000000000E+00  0.23503579544E+02  0.23503579544E+02  0.00000000000E+00 0. -1.
         -2   -1    0    0    0  501 -0.00000000000E+00 -0.00000000000E+00 -0.29887932511E+02  0.29887932511E+02  0.00000000000E+00 0.  1.
          1    1    1    2  502    0 -0.22060836930E+02  0.13947304466E+02 -0.78369635565E+01  0.27251161915E+02  0.00000000000E+00 0.  1.
         -1    1    1    2    0  501  0.22060836930E+02 -0.13947304466E+02  0.14526105895E+01  0.26140350140E+02  0.00000000000E+00 0. -1.
</event>
<event>
 4    1  0.6824761E+001  0.2295393E+02  0.7546771E-02  0.1493077E+00
          2   -1    0    0  502    0  0.00000000000E+00  0.00000000000E+00  0.17258805596E+02  0.17258805596E+02  0.00000000000E+00 0.  1.
         -2   -1    0    0    0  501 -0.00000000000E+00 -0.00000000000E+00 -0.31802156790E+02  0.31802156790E+02  0.00000000000E+00 0. -1.
          1    1    1    2  502    0  0.14754200181E+02  0.17583986364E+02 -0.12181072695E+02  0.25985794801E+02  0.00000000000E+00 0. -1.
         -1    1    1    2    0  501 -0.14754200181E+02 -0.17583986364E+02 -0.23622784989E+01  0.23075167586E+02  0.00000000000E+00 0.  1.
</event>
<event>
 4    1  0.6824761E+001  0.6434893E+02  0.7546771E-02  0.1245732E+00
          2   -1    0    0  502    0  0.00000000000E+00  0.00000000000E+00  0.53165711037E+03  0.53165711037E+03  0.00000000000E+00 0. -1.
         -2   -1    0    0    0  501 -0.00000000000E+00 -0.00000000000E+00 -0.79674207633E+01  0.79674207633E+01  0.00000000000E+00 0.  1.
          1    1    1    2  502    0 -0.57617215132E+02 -0.28653811785E+02  0.30228332240E+03  0.30905661522E+03  0.00000000000E+00 0. -1.
         -1    1    1    2    0  501  0.57617215132E+02  0.28653811785E+02  0.22140636720E+03  0.23056791591E+03  0.00000000000E+00 0.  1.
</event>
<event>
 4    1  0.6824761E+001  0.2352853E+02  0.7546771E-02  0.1485966E+00
          2   -1    0    0  502    0  0.00000000000E+00  0.00000000000E+00  0.33096324074E+02  0.33096324074E+02  0.00000000000E+00 0. -1.
         -2   -1    0    0    0  501 -0.00000000000E+00 -0.00000000000E+00 -0.17724935404E+02  0.17724935404E+02  0.00000000000E+00 0.  1.
          1    1    1    2  502    0  0.19938182119E+02  0.12492413194E+02  0.16553130002E+01  0.23586681724E+02  0.00000000000E+00 0.  1.
         -1    1    1    2    0  501 -0.19938182119E+02 -0.12492413194E+02  0.13716075670E+02  0.27234577753E+02  0.00000000000E+00 0. -1.
</event>
<event>
 4    1  0.6824761E+001  0.3790313E+02  0.7546771E-02  0.1361232E+00
          2   -1    0    0  502    0  0.00000000000E+00  0.00000000000E+00  0.17363363654E+02  0.17363363654E+02  0.00000000000E+00 0.  1.
         -2   -1    0    0    0  501 -0.00000000000E+00 -0.00000000000E+00 -0.86558965008E+02  0.86558965008E+02  0.00000000000E+00 0. -1.
          1    1    1    2  502    0 -0.25414731022E+02 -0.28120080659E+02 -0.23683734550E+02  0.44694146948E+02  0.00000000000E+00 0.  1.
         -1    1    1    2    0  501  0.25414731022E+02  0.28120080659E+02 -0.45511866804E+02  0.59228181714E+02  0.00000000000E+00 0. -1.
</event>
<event>
 4    1  0.6824761E+001  0.9152490E+02  0.7546771E-02  0.1179364E+00
          2   -1    0    0  502    0  0.00000000000E+00  0.00000000000E+00  0.36249434832E+04  0.36249434832E+04  0.00000000000E+00 0.  1.
         -2   -1    0    0    0  501 -0.00000000000E+00 -0.00000000000E+00 -0.26109205867E+01  0.26109205867E+01  0.00000000000E+00 0. -1.
          1    1    1    2  502    0 -0.89297701631E+02 -0.20068059498E+02  0.24260283234E+04  0.24277541540E+04  0.00000000000E+00 0.  1.
         -1    1    1    2    0  501  0.89297701631E+02  0.20068059498E+02  0.11963042393E+04  0.11998002498E+04  0.00000000000E+00 0. -1.
</event>
<event>
 4    1  0.6824761E+001  0.2640705E+02  0.7546771E-02  0.1453657E+00
          2   -1    0    0  502    0  0.00000000000E+00  0.00000000000E+00  0.85424357570E+01  0.85424357570E+01  0.00000000000E+00 0.  1.
         -2   -1    0    0    0  501 -0.00000000000E+00 -0.00000000000E+00 -0.22128683749E+03  0.22128683749E+03  0.00000000000E+00 0. -1.
          1    1    1    2  502    0 -0.16533793637E+02  0.20590436181E+02 -0.15081566212E+02  0.30410294861E+02  0.00000000000E+00 0.  1.
         -1    1    1    2    0  501  0.16533793637E+02 -0.20590436181E+02 -0.19766283553E+03  0.19941897839E+03  0.00000000000E+00 0. -1.
</event>
<event>
 4    1  0.6824761E+001  0.2463623E+02  0.7546771E-02  0.1472914E+00
          2   -1    0    0  502    0  0.00000000000E+00  0.00000000000E+00  0.12735571184E+04  0.12735571184E+04  0.00000000000E+00 0. -1.
         -2   -1    0    0    0  501 -0.00000000000E+00 -0.00000000000E+00 -0.21979160583E+01  0.21979160583E+01  0.00000000000E+00 0.  1.
          1    1    1    2  502    0  0.24581712222E+02 -0.16380466139E+01  0.12001814616E+04  0.12004342900E+04  0.00000000000E+00 0. -1.
         -1    1    1    2    0  501 -0.24581712222E+02  0.16380466139E+01  0.71177740697E+02  0.75320744442E+02  0.00000000000E+00 0.  1.
</event>
<event>
 4    1  0.6824761E+001  0.2281858E+02  0.7546771E-02  0.1494789E+00
          2   -1    0    0  502    0  0.00000000000E+00  0.00000000000E+00  0.62570520667E+01  0.62570520667E+01  0.00000000000E+00 0.  1.
         -2   -1    0    0    0  501 -0.00000000000E+00 -0.00000000000E+00 -0.11964307148E+03  0.11964307148E+03  0.00000000000E+00 0. -1.
          1    1    1    2  502    0  0.18570484149E+02  0.13259891842E+02 -0.21958291440E+02  0.31667872934E+02  0.00000000000E+00 0.  1.
         -1    1    1    2    0  501 -0.18570484149E+02 -0.13259891842E+02 -0.91427727976E+02  0.94232250615E+02  0.00000000000E+00 0. -1.
</event>
<event>
 4    1  0.6824761E+001  0.2119582E+02  0.7546771E-02  0.1516487E+00
          2   -1    0    0  502    0  0.00000000000E+00  0.00000000000E+00  0.56500543659E+03  0.56500543659E+03  0.00000000000E+00 0. -1.
         -2   -1    0    0    0  501 -0.00000000000E+00 -0.00000000000E+00 -0.18814796303E+01  0.18814796303E+01  0.00000000000E+00 0.  1.
          1    1    1    2  502    0 -0.20734510593E+02  0.43980520512E+01  0.49693829420E+03  0.49739011956E+03  0.00000000000E+00 0. -1.
         -1    1    1    2    0  501  0.20734510593E+02 -0.43980520512E+01  0.66185662756E+02  0.69496796659E+02  0.00000000000E+00 0.  1.
</event>
<event>
 4    1  0.6824761E+001  0.2837894E+02  0.7546771E-02  0.1434227E+00
          2   -1    0    0  502    0  0.00000000000E+00  0.00000000000E+00  0.29182094150E+03  0.29182094150E+03  0.00000000000E+00 0.  1.
         -2   -1    0    0    0  501 -0.00000000000E+00 -0.00000000000E+00 -0.28007509245E+01  0.28007509245E+01  0.00000000000E+00 0. -1.
          1    1    1    2  502    0  0.28209426637E+02  0.30971770736E+01  0.16232514600E+03  0.16478718786E+03  0.00000000000E+00 0.  1.
         -1    1    1    2    0  501 -0.28209426637E+02 -0.30971770736E+01  0.12669504457E+03  0.12983450457E+03  0.00000000000E+00 0. -1.
</event>
<event>
 4    1  0.6824761E+001  0.3465353E+02  0.7546771E-02  0.1383015E+00
          2   -1    0    0  502    0  0.00000000000E+00  0.00000000000E+00  0.18233991903E+02  0.18233991903E+02  0.00000000000E+00 0. -1.
         -2   -1    0    0    0  501 -0.00000000000E+00 -0.00000000000E+00 -0.68140479156E+02  0.68140479156E+02  0.00000000000E+00 0.  1.
          1    1    1    2  502    0  0.24033098902E+02 -0.24965521321E+02 -0.32856191572E+02  0.47753496440E+02  0.00000000000E+00 0.  1.
         -1    1    1    2    0  501 -0.24033098902E+02  0.24965521321E+02 -0.17050295682E+02  0.38620974619E+02  0.00000000000E+00 0. -1.
</event>
<event>
 4    1  0.6824761E+001  0.2153917E+02  0.7546771E-02  0.1511704E+00
          2   -1    0    0  502    0  0.00000000000E+00  0.00000000000E+00  0.12710459611E+04  0.12710459611E+04  0.00000000000E+00 0.  1.
         -2   -1    0    0    0  501 -0.00000000000E+00 -0.00000000000E+00 -0.36507818393E+00  0.36507818393E+00  0.00000000000E+00 0. -1.
          1    1    1    2  502    0  0.20781642148E+02  0.56620924408E+01  0.62623452401E+03  0.62660483161E+03  0.00000000000E+00 0.  1.
         -1    1    1    2    0  501 -0.20781642148E+02 -0.56620924408E+01  0.64444635889E+03  0.64480620766E+03  0.00000000000E+00 0. -1.
</event>
<event>
 4    1  0.6824761E+001  0.5975485E+02  0.7546771E-02  0.1260668E+00
          2   -1    0    0  502    0  0.00000000000E+00  0.00000000000E+00  0.16441400585E+04  0.16441400585E+04  0.00000000000E+00 0. -1.
         -2   -1    0    0    0  501 -0.00000000000E+00 -0.00000000000E+00 -0.23567350991E+01  0.23567350991E+01  0.00000000000E+00 0.  1.
          1    1    1    2  502    0 -0.45219708229E+02 -0.39061752394E+02  0.59023967271E+03  0.59325670140E+03  0.00000000000E+00 0.  1.
         -1    1    1    2    0  501  0.45219708229E+02  0.39061752394E+02  0.10515436507E+04  0.10532400922E+04  0.00000000000E+00 0. -1.
</event>
<event>
 4    1  0.6824761E+001  0.2826449E+02  0.7546771E-02  0.1435304E+00
          2   -1    0    0  502    0  0.00000000000E+00  0.00000000000E+00  0.96381499632E+03  0.96381499632E+03  0.00000000000E+00 0.  1.
         -2   -1    0    0    0  501 -0.00000000000E+00 -0.00000000000E+00 -0.90350045280E+00  0.90350045280E+00  0.00000000000E+00 0. -1.
          1    1    1    2  502    0  0.92584324560E+01  0.26705103443E+02  0.62008441032E+03  0.62072824734E+03  0.00000000000E+00 0.  1.
         -1    1    1    2    0  501 -0.92584324560E+01 -0.26705103443E+02  0.34282708554E+03  0.34399024943E+03  0.00000000000E+00 0. -1.
</event>
<event>
 4    1  0.6824761E+001  0.2533692E+02  0.7546771E-02  0.1465069E+00
          2   -1    0    0  502    0  0.00000000000E+00  0.00000000000E+00  0.15509230930E+04  0.15509230930E+04  0.00000000000E+00 0.  1.
         -2   -1    0    0    0  501 -0.00000000000E+00 -0.00000000000E+00 -0.43817175162E+00  0.43817175162E+00  0.00000000000E+00 0. -1.
          1    1    1    2  502    0 -0.24941052150E+02  0.44613466277E+01  0.59275920352E+03  0.59330045766E+03  0.00000000000E+00 0. -1.
         -1    1    1    2    0  501  0.24941052150E+02 -0.44613466277E+01  0.95772571774E+03  0.95806080710E+03  0.00000000000E+00 0.  1.
</event>
<event>
 4    1  0.6824761E+001  0.2025312E+02  0.7546771E-02  0.1530201E+00
          2   -1    0    0  502    0  0.00000000000E+00  0.00000000000E+00  0.91457329319E+03  0.91457329319E+03  0.00000000000E+00 0.  1.
         -2   -1    0    0    0  501 -0.00000000000E+00 -0.00000000000E+00 -0.58584784552E+00  0.58584784552E+00  0.00000000000E+00 0. -1.
          1    1    1    2  502    0  0.68007773304E+01 -0.19077169286E+02  0.23543940046E+03  0.23630890853E+03  0.00000000000E+00 0.  1.
         -1    1    1    2    0  501 -0.68007773304E+01  0.19077169286E+02  0.67854804488E+03  0.67885023251E+03  0.00000000000E+00 0. -1.
</event>
<event>
 4    1  0.6824761E+001  0.4093050E+02  0.7546771E-02  0.1343118E+00
          2   -1    0    0  502    0  0.00000000000E+00  0.00000000000E+00  0.10924644369E+04  0.10924644369E+04  0.00000000000E+00 0.  1.
         -2   -1    0    0    0  501 -0.00000000000E+00 -0.00000000000E+00 -0.18026788584E+01  0.18026788584E+01  0.00000000000E+00 0. -1.
          1    1    1    2  502    0 -0.40520292222E+02  0.57802980045E+01  0.33391091520E+03  0.33641017407E+03  0.00000000000E+00 0. -1.
         -1    1    1    2    0  501  0.40520292222E+02 -0.57802980045E+01  0.75675084285E+03  0.75785694169E+03  0.00000000000E+00 0.  1.
</event>
<event>
 4    1  0.6824761E+001  0.2296903E+02  0.7546771E-02  0.1492887E+00
          2   -1    0    0  502    0  0.00000000000E+00  0.00000000000E+00  0.85319991153E+01  0.85319991153E+01  0.00000000000E+00 0.  1.
         -2   -1    0    0    0  501 -0.00000000000E+00 -0.00000000000E+00 -0.80468117936E+02  0.80468117936E+02  0.00000000000E+00 0. -1.
          1    1    1    2  502    0  0.16336673711E+02 -0.16145880316E+02 -0.57381732189E+02  0.61808086429E+02  0.00000000000E+00 0. -1.
         -1    1    1    2    0  501 -0.16336673711E+02  0.16145880316E+02 -0.14554386632E+02  0.27192030622E+02  0.00000000000E+00 0.  1.
</event>
<event>
 4    1  0.6824761E+001  0.2080457E+02  0.7546771E-02  0.1522073E+00
          2   -1    0    0  502    0  0.00000000000E+00  0.00000000000E+00  0.10899842359E+04  0.10899842359E+04  0.00000000000E+00 0.  1.
         -2   -1    0    0    0  501 -0.00000000000E+00 -0.00000000000E+00 -0.39966044591E+00  0.39966044591E+00  0.00000000000E+00 0. -1.
          1    1    1    2  502    0 -0.19705094874E+02  0.66737905048E+01  0.58844947960E+03  0.58881713654E+03  0.00000000000E+00 0.  1.
         -1    1    1    2    0  501  0.19705094874E+02 -0.66737905048E+01  0.50113509581E+03  0.50156675976E+03  0.00000000000E+00 0. -1.
</event>
<event>
 4    1  0.6824761E+001  0.4028086E+02  0.7546771E-02  0.1346848E+00
          2   -1    0    0  502    0  0.00000000000E+00  0.00000000000E+00  0.55636674016E+03  0.55636674016E+03  0.00000000000E+00 0. -1.
         -2   -1    0    0    0  501 -0.00000000000E+00 -0.00000000000E+00 -0.35901574305E+01  0.35901574305E+01  0.00000000000E+00 0.  1.
          1    1    1    2  502    0 -0.37710563262E+02  0.14158439903E+02  0.39768326004E+03  0.39971805478E+03  0.00000000000E+00 0. -1.
         -1    1    1    2    0  501  0.37710563262E+02 -0.14158439903E+02  0.15509332269E+03  0.16023884281E+03  0.00000000000E+00 0.  1.
</event>
<event>
 4    1  0.6824761E+001  0.2019163E+02  0.7546771E-02  0.1531126E+00
          2   -1    0    0  502    0  0.00000000000E+00  0.00000000000E+00  0.99888907226E+02  0.99888907226E+02  0.00000000000E+00 0.  1.
         -2   -1    0    0    0  501 -0.00000000000E+00 -0.00000000000E+00 -0.40822217368E+01  0.40822217368E+01  0.00000000000E+00 0. -1.
          1    1    1    2  502    0 -0.10882724884E+02  0.17007888833E+02  0.47238544875E+02  0.51372970572E+02  0.00000000000E+00 0. -1.
         -1    1    1    2    0  501  0.10882724884E+02 -0.17007888833E+02  0.48568140614E+02  0.52598158391E+02  0.00000000000E+00 0.  1.
</event>
<event>
 4    1  0.6824761E+001  0.2279747E+02  0.7546771E-02  0.1495057E+00
          2   -1    0    0  502    0  0.00000000000E+00  0.00000000000E+00  0.21314979225E+03  0.21314979225E+03  0.00000000000E+00 0.  1.
         -2   -1    0    0    0  501 -0.00000000000E+00 -0.00000000000E+00 -0.58952123508E+01  0.58952123508E+01  0.00000000000E+00 0. -1.
          1    1    1    2  502    0 -0.22060976459E+02  0.57478594008E+01  0.18749550367E+03  0.18887638409E+03  0.00000000000E+00 0.  1.
         -1    1    1    2    0  501  0.22060976459E+02 -0.57478594008E+01  0.19759076222E+02  0.30168620505E+02  0.00000000000E+00 0. -1.
</event>
<event>
 4    1  0.6824761E+001  0.2054336E+02  0.7546771E-02  0.1525885E+00
          2   -1    0    0  502    0  0.00000000000E+00  0.00000000000E+00  0.18617578709E+04  0.18617578709E+04  0.00000000000E+00 0. -1.
         -2   -1    0    0    0  501 -0.00000000000E+00 -0.00000000000E+00 -0.27021955516E+00  0.27021955516E+00  0.00000000000E+00 0.  1.
          1    1    1    2  502    0 -0.13636804542E+02  0.15364475048E+02  0.55704384458E+03  0.55742252764E+03  0.00000000000E+00 0.  1.
         -1    1    1    2    0  501  0.13636804542E+02 -0.15364475048E+02  0.13044438068E+04  0.13046055628E+04  0.00000000000E+00 0. -1.
</event>
<event>
 4    1  0.6824761E+001  0.2019099E+02  0.7546771E-02  0.1531136E+00
          2   -1    0    0  502    0  0.00000000000E+00  0.00000000000E+00  0.12759526780E+03  0.12759526780E+03  0.00000000000E+00 0.  1.
         -2   -1    0    0    0  501 -0.00000000000E+00 -0.00000000000E+00 -0.33619078996E+01  0.33619078996E+01  0.00000000000E+00 0. -1.
          1    1    1    2  502    0 -0.18390533788E+02 -0.83345260419E+01  0.47530174594E+02  0.51641006519E+02  0.00000000000E+00 0. -1.
         -1    1    1    2    0  501  0.18390533788E+02  0.83345260419E+01  0.76703185302E+02  0.79316169176E+02  0.00000000000E+00 0.  1.
</event>
<event>
 4    1  0.6824761E+001  0.3507547E+02  0.7546771E-02  0.1380033E+00
          2   -1    0    0  502    0  0.00000000000E+00  0.00000000000E+00  0.19531694440E+02  0.19531694440E+02  0.00000000000E+00 0. -1.
         -2   -1    0    0    0  501 -0.00000000000E+00 -0.00000000000E+00 -0.83869998159E+02  0.83869998159E+02  0.00000000000E+00 0.  1.
          1    1    1    2  502    0 -0.34646707948E+02  0.54675350232E+01 -0.57965994246E+02  0.67752083361E+02  0.00000000000E+00 0.  1.
         -1    1    1    2    0  501  0.34646707948E+02 -0.54675350232E+01 -0.63723094723E+01  0.35649609238E+02  0.00000000000E+00 0. -1.
</event>
<event>
 4    1  0.6824761E+001  0.3957495E+02  0.7546771E-02  0.1350995E+00
          2   -1    0    0  502    0  0.00000000000E+00  0.00000000000E+00  0.69607042977E+01  0.69607042977E+01  0.00000000000E+00 0. -1.
         -2   -1    0    0    0  501 -0.00000000000E+00 -0.00000000000E+00 -0.23459538272E+03  0.23459538272E+03  0.00000000000E+00 0.  1.
          1    1    1    2  502    0  0.84939625976E+01  0.38652678232E+02 -0.13824035891E+03  0.14379351086E+03  0.00000000000E+00 0. -1.
         -1    1    1    2    0  501 -0.84939625976E+01 -0.38652678232E+02 -0.89394319517E+02  0.97762576158E+02  0.00000000000E+00 0.  1.
</event>
<event>
 4    1  0.6824761E+001  0.2348083E+02  0.7546771E-02  0.1486547E+00
          2   -1    0    0  502    0  0.00000000000E+00  0.00000000000E+00  0.86059273354E+01  0.86059273354E+01  0.00000000000E+00 0. -1.
         -2   -1    0    0    0  501 -0.00000000000E+00 -0.00000000000E+00 -0.64720404444E+02  0.64720404444E+02  0.00000000000E+00 0.  1.
          1    1    1    2  502    0  0.11406719204E+02 -0.20524033637E+02 -0.24371192304E+02  0.33842343507E+02  0.00000000000E+00 0. -1.
         -1    1    1    2    0  501 -0.11406719204E+02  0.20524033637E+02 -0.31743284805E+02  0.39483988273E+02  0.00000000000E+00 0.  1.
</event>
<event>
 4    1  0.6824761E+001  0.2082151E+02  0.7546771E-02  0.1521829E+00
          2   -1    0    0  502    0  0.00000000000E+00  0.00000000000E+00  0.58074506920E+03  0.58074506920E+03  0.00000000000E+00 0.  1.
         -2   -1    0    0    0  501 -0.00000000000E+00 -0.00000000000E+00 -0.76642719681E+00  0.76642719681E+00  0.00000000000E+00 0. -1.
          1    1    1    2  502    0  0.13329697274E+02 -0.15995450188E+02  0.33685402261E+03  0.33749691525E+03  0.00000000000E+00 0.  1.
         -1    1    1    2    0  501 -0.13329697274E+02  0.15995450188E+02  0.24312461940E+03  0.24401458115E+03  0.00000000000E+00 0. -1.
</event>
<event>
 4    1  0.6824761E+001  0.2780248E+02  0.7546771E-02  0.1439709E+00
          2   -1    0    0  502    0  0.00000000000E+00  0.00000000000E+00  0.14206673055E+04  0.14206673055E+04  0.00000000000E+00 0.  1.
         -2   -1    0    0    0  501 -0.00000000000E+00 -0.00000000000E+00 -0.54439892486E+00  0.54439892486E+00  0.00000000000E+00 0. -1.
          1    1    1    2  502    0 -0.14135945347E+02 -0.23940611480E+02  0.72685444326E+03  0.72738597698E+03  0.00000000000E+00 0. -1.
         -1    1    1    2    0  501  0.14135945347E+02  0.23940611480E+02  0.69326846327E+03  0.69382572740E+03  0.00000000000E+00 0.  1.
</event>
<event>
 4    1  0.6824761E+001  0.2042829E+02  0.7546771E-02  0.1527586E+00
          2   -1    0    0  502    0  0.00000000000E+00  0.00000000000E+00  0.19717588864E+01  0.19717588864E+01  0.00000000000E+00 0.  1.
         -2   -1    0    0    0  501 -0.00000000000E+00 -0.00000000000E+00 -0.27187859800E+03  0.27187859800E+03  0.00000000000E+00 0. -1.
          1    1    1    2  502    0 -0.15548571771E+02  0.13249789392E+02 -0.70505132343E+02  0.73404963659E+02  0.00000000000E+00 0.  1.
         -1    1    1    2    0  501  0.15548571771E+02 -0.13249789392E+02 -0.19940170677E+03  0.20044539323E+03  0.00000000000E+00 0. -1.
</event>
<event>
 4    1  0.6824761E+001  0.2182508E+02  0.7546771E-02  0.1507803E+00
          2   -1    0    0  502    0  0.00000000000E+00  0.00000000000E+00  0.47296118494E+03  0.47296118494E+03  0.00000000000E+00 0.  1.
         -2   -1    0    0    0  501 -0.00000000000E+00 -0.00000000000E+00 -0.10086340765E+01  0.10086340765E+01  0.00000000000E+00 0. -1.
          1    1    1    2  502    0 -0.19951532759E+02 -0.88470569633E+01  0.22682921101E+03  0.22787677601E+03  0.00000000000E+00 0. -1.
         -1    1    1    2    0  501  0.19951532759E+02  0.88470569633E+01  0.24512333985E+03  0.24609304301E+03  0.00000000000E+00 0.  1.
</event>
<event>
 4    1  0.6824761E+001  0.2413403E+02  0.7546771E-02  0.1478729E+00
          2   -1    0    0  502    0  0.00000000000E+00  0.00000000000E+00  0.20643839912E+01  0.20643839912E+01  0.00000000000E+00 0. -1.
         -2   -1    0    0    0  501 -0.00000000000E+00 -0.00000000000E+00 -0.28215971786E+03  0.28215971786E+03  0.00000000000E+00 0.  1.
          1    1    1    2  502    0 -0.12881981532E+02 -0.20408471731E+02 -0.14114670869E+03  0.14319512750E+03  0.00000000000E+00 0.  1.
         -1    1    1    2    0  501  0.12881981532E+02  0.20408471731E+02 -0.13894862518E+03  0.14102897435E+03  0.00000000000E+00 0. -1.
</event>
<event>
 4    1  0.6824761E+001  0.2648253E+02  0.7546771E-02  0.1452877E+00
          2   -1    0    0  502    0  0.00000000000E+00  0.00000000000E+00  0.28031438284E+01  0.28031438284E+01  0.00000000000E+00 0. -1.
         -2   -1    0    0    0  501 -0.00000000000E+00 -0.00000000000E+00 -0.28196094513E+03  0.28196094513E+03  0.00000000000E+00 0.  1.
          1    1    1    2  502    0 -0.17401079450E+02 -0.19963138057E+02 -0.91786214011E+02  0.95530275460E+02  0.00000000000E+00 0.  1.
         -1    1    1    2    0  501  0.17401079450E+02  0.19963138057E+02 -0.18737158729E+03  0.18923381350E+03  0.00000000000E+00 0. -1.
</event>
<event>
 4    1  0.6824761E+001  0.2391649E+02  0.7546771E-02  0.1481300E+00
          2   -1    0    0  502    0  0.00000000000E+00  0.00000000000E+00  0.11717512909E+04  0.11717512909E+04  0.00000000000E+00 0. -1.
         -2   -1    0    0    0  501 -0.00000000000E+00 -0.00000000000E+00 -0.49519501659E+00  0.49519501659E+00  0.00000000000E+00 0.  1.
          1    1    1    2  502    0 -0.93168720520E+01  0.22027129533E+02  0.51575215142E+03  0.51630638213E+03  0.00000000000E+00 0.  1.
         -1    1    1    2    0  501  0.93168720520E+01 -0.22027129533E+02  0.65550394449E+03  0.65594010381E+03  0.00000000000E+00 0. -1.
</event>
<event>
 4    1  0.6824761E+001  0.2904095E+02  0.7546771E-02  0.1428118E+00
          2   -1    0    0  502    0  0.00000000000E+00  0.00000000000E+00  0.22249239426E+04  0.22249239426E+04  0.00000000000E+00 0. -1.
         -2   -1    0    0    0  501 -0.00000000000E+00 -0.00000000000E+00 -0.54260266765E+00  0.54260266765E+00  0.00000000000E+00 0.  1.
          1    1    1    2  502    0 -0.10072593417E+02  0.27238205517E+02  0.50129470410E+03  0.50213519826E+03  0.00000000000E+00 0.  1.
         -1    1    1    2    0  501  0.10072593417E+02 -0.27238205517E+02  0.17230866358E+04  0.17233313470E+04  0.00000000000E+00 0. -1.
</event>
<event>
 4    1  0.6824761E+001  0.2130809E+02  0.7546771E-02  0.1514911E+00
          2   -1    0    0  502    0  0.00000000000E+00  0.00000000000E+00  0.76965810137E+01  0.76965810137E+01  0.00000000000E+00 0. -1.
         -2   -1    0    0    0  501 -0.00000000000E+00 -0.00000000000E+00 -0.62405211310E+02  0.62405211310E+02  0.00000000000E+00 0.  1.
          1    1    1    2  502    0  0.18309311327E+01 -0.21229285335E+02 -0.35551892340E+02  0.41448424742E+02  0.00000000000E+00 0.  1.
         -1    1    1    2    0  501 -0.18309311327E+01  0.21229285335E+02 -0.19156737957E+02  0.28653367582E+02  0.00000000000E+00 0. -1.
</event>
<event>
 4    1  0.6824761E+001  0.4027697E+02  0.7546771E-02  0.1346870E+00
          2   -1    0    0  502    0  0.00000000000E+00  0.00000000000E+00  0.95962839651E+02  0.95962839651E+02  0.00000000000E+00 0.  1.
         -2   -1    0    0    0  501 -0.00000000000E+00 -0.00000000000E+00 -0.26794441742E+02  0.26794441742E+02  0.00000000000E+00 0. -1.
          1    1    1    2  502    0 -0.34777156830E+02  0.20317077047E+02 -0.27051510303E+01  0.40367711094E+02  0.00000000000E+00 0. -1.
         -1    1    1    2    0  501  0.34777156830E+02 -0.20317077047E+02  0.71873548939E+02  0.82389570299E+02  0.00000000000E+00 0.  1.
</event>
<event>
 4    1  0.6824761E+001  0.4081779E+02  0.7546771E-02  0.1343759E+00
          2   -1    0    0  502    0  0.00000000000E+00  0.00000000000E+00  0.13930924701E+04  0.13930924701E+04  0.00000000000E+00 0. -1.
         -2   -1    0    0    0  501 -0.00000000000E+00 -0.00000000000E+00 -0.14089554210E+01  0.14089554210E+01  0.00000000000E+00 0.  1.
          1    1    1    2  502    0  0.90133498085E+01  0.39810191276E+02  0.42474836239E+03  0.42670512437E+03  0.00000000000E+00 0.  1.
         -1    1    1    2    0  501 -0.90133498085E+01 -0.39810191276E+02  0.96693515227E+03  0.96779630114E+03  0.00000000000E+00 0. -1.
</event>
<event>
 4    1  0.6824761E+001  0.2132486E+02  0.7546771E-02  0.1514677E+00
          2   -1    0    0  502    0  0.00000000000E+00  0.00000000000E+00  0.13172332629E+03  0.13172332629E+03  0.00000000000E+00 0.  1.
         -2   -1    0    0    0  501 -0.00000000000E+00 -0.00000000000E+00 -0.34647027449E+01  0.34647027449E+01  0.00000000000E+00 0. -1.
          1    1    1    2  502    0  0.21324591869E+02 -0.10673286721E+00  0.60086547031E+02  0.63758471942E+02  0.00000000000E+00 0.  1.
         -1    1    1    2    0  501 -0.21324591869E+02  0.10673286721E+00  0.68172076515E+02  0.71429557094E+02  0.00000000000E+00 0. -1.
</event>
<event>
 4    1  0.6824761E+001  0.2173145E+02  0.7546771E-02  0.1509073E+00
          2   -1    0    0  502    0  0.00000000000E+00  0.00000000000E+00  0.10063623147E+04  0.10063623147E+04  0.00000000000E+00 0. -1.
         -2   -1    0    0    0  501 -0.00000000000E+00 -0.00000000000E+00 -0.12991164260E+01  0.12991164260E+01  0.00000000000E+00 0.  1.
          1    1    1    2  502    0  0.20784621233E+02  0.63447180535E+01  0.90521098125E+03  0.90547179774E+03  0.00000000000E+00 0. -1.
         -1    1    1    2    0  501 -0.20784621233E+02 -0.63447180535E+01  0.99852217031E+02  0.10218963339E+03  0.00000000000E+00 0.  1.
</event>
<event>
 4    1  0.6824761E+001  0.2784328E+02  0.7546771E-02  0.1439316E+00
          2   -1    0    0  502    0  0.00000000000E+00  0.00000000000E+00  0.25964281942E+03  0.25964281942E+03  0.00000000000E+00 0. -1.
         -2   -1    0    0    0  501 -0.00000000000E+00 -0.00000000000E+00 -0.66533468919E+01  0.66533468919E+01  0.00000000000E+00 0.  1.
          1    1    1    2  502    0 -0.22161151267E+02  0.16856207108E+02  0.22535030041E+03  0.22706388141E+03  0.00000000000E+00 0. -1.
         -1    1    1    2    0  501  0.22161151267E+02 -0.16856207108E+02  0.27639172112E+02  0.39232284901E+02  0.00000000000E+00 0.  1.
</event>
<event>
 4    1  0.6824761E+001  0.3207913E+02  0.7546771E-02  0.1402349E+00
          2   -1    0    0  502    0  0.00000000000E+00  0.00000000000E+00  0.98627476876E+03  0.98627476876E+03  0.00000000000E+00 0.  1.
         -2   -1    0    0    0  501 -0.00000000000E+00 -0.00000000000E+00 -0.13844053918E+01  0.13844053918E+01  0.00000000000E+00 0. -1.
          1    1    1    2  502    0  0.31110561428E+02  0.78232837474E+01  0.24735187987E+03  0.24942338157E+03  0.00000000000E+00 0. -1.
         -1    1    1    2    0  501 -0.31110561428E+02 -0.78232837474E+01  0.73753848350E+03  0.73823579258E+03  0.00000000000E+00 0.  1.
</event>
<event>
 4    1  0.6824761E+001  0.3224374E+02  0.7546771E-02  0.1401050E+00
          2   -1    0    0  502    0  0.00000000000E+00  0.00000000000E+00  0.34993806964E+01  0.34993806964E+01  0.00000000000E+00 0.  1.
         -2   -1    0    0    0  501 -0.00000000000E+00 -0.00000000000E+00 -0.33409132330E+03  0.33409132330E+03  0.00000000000E+00 0. -1.
          1    1    1    2  502    0  0.25879128566E+02  0.19233557103E+02 -0.22146404706E+03  0.22379897934E+03  0.00000000000E+00 0. -1.
         -1    1    1    2    0  501 -0.25879128566E+02 -0.19233557103E+02 -0.10912789554E+03  0.11379172466E+03  0.00000000000E+00 0.  1.
</event>
<event>
 4    1  0.6824761E+001  0.4499981E+02  0.7546771E-02  0.1321440E+00
          2   -1    0    0  502    0  0.00000000000E+00  0.00000000000E+00  0.28512734071E+03  0.28512734071E+03  0.00000000000E+00 0.  1.
         -2   -1    0    0    0  501 -0.00000000000E+00 -0.00000000000E+00 -0.80515247181E+01  0.80515247181E+01  0.00000000000E+00 0. -1.
          1    1    1    2  502    0  0.34727748780E+02  0.28617581266E+02  0.18887756176E+03  0.19416414661E+03  0.00000000000E+00 0.  1.
         -1    1    1    2    0  501 -0.34727748780E+02 -0.28617581266E+02  0.88198254231E+02  0.99014718816E+02  0.00000000000E+00 0. -1.
</event>
<event>
 4    1  0.6824761E+001  0.2391957E+02  0.7546771E-02  0.1481263E+00
          2   -1    0    0  502    0  0.00000000000E+00  0.00000000000E+00  0.42497982375E+03  0.42497982375E+03  0.00000000000E+00 0. -1.
         -2   -1    0    0    0  501 -0.00000000000E+00 -0.00000000000E+00 -0.15075413693E+01  0.15075413693E+01  0.00000000000E+00 0.  1.
          1    1    1    2  502    0 -0.15844212626E+02 -0.17919446051E+02  0.28147819585E+03  0.28249269081E+03  0.00000000000E+00 0. -1.
         -1    1    1    2    0  501  0.15844212626E+02  0.17919446051E+02  0.14199408653E+03  0.14399467431E+03  0.00000000000E+00 0.  1.
</event>
<event>
 4    1  0.6824761E+001  0.3848848E+02  0.7546771E-02  0.1357578E+00
          2   -1    0    0  502    0  0.00000000000E+00  0.00000000000E+00  0.14642888285E+04  0.14642888285E+04  0.00000000000E+00 0.  1.
         -2   -1    0    0    0  501 -0.00000000000E+00 -0.00000000000E+00 -0.12270374044E+01  0.12270374044E+01  0.00000000000E+00 0. -1.
          1    1    1    2  502    0  0.21177403536E+02 -0.32138461916E+02  0.42453596595E+03  0.42627708071E+03  0.00000000000E+00 0. -1.
         -1    1    1    2    0  501 -0.21177403536E+02  0.32138461916E+02  0.10385258251E+04  0.10392387851E+04  0.00000000000E+00 0.  1.
</event>
<event>
 4    1  0.6824761E+001  0.2714283E+02  0.7546771E-02  0.1446179E+00
          2   -1    0    0  502    0  0.00000000000E+00  0.00000000000E+00  0.16155424911E+03  0.16155424911E+03  0.00000000000E+00 0.  1.
         -2   -1    0    0    0  501 -0.00000000000E+00 -0.00000000000E+00 -0.47209731976E+01  0.47209731976E+01  0.00000000000E+00 0. -1.
          1    1    1    2  502    0 -0.22161714121E+02 -0.15671358763E+02  0.93754922164E+02  0.97604910164E+02  0.00000000000E+00 0.  1.
         -1    1    1    2    0  501  0.22161714121E+02  0.15671358763E+02  0.63078353753E+02  0.68670312147E+02  0.00000000000E+00 0. -1.
</event>
<event>
 4    1  0.6824761E+001  0.2349223E+02  0.7546771E-02  0.1486408E+00
          2   -1    0    0  502    0  0.00000000000E+00  0.00000000000E+00  0.10307642228E+02  0.10307642228E+02  0.00000000000E+00 0. -1.
         -2   -1    0    0    0  501 -0.00000000000E+00 -0.00000000000E+00 -0.53812044778E+02  0.53812044778E+02  0.00000000000E+00 0.  1.
          1    1    1    2  502    0 -0.23468433643E+02 -0.10570249224E+01 -0.24026213432E+02  0.33602732199E+02  0.00000000000E+00 0.  1.
         -1    1    1    2    0  501  0.23468433643E+02  0.10570249224E+01 -0.19478189119E+02  0.30516954807E+02  0.00000000000E+00 0. -1.
</event>
<event>
 4    1  0.6824761E+001  0.4668947E+02  0.7546771E-02  0.1313201E+00
          2   -1    0    0  502    0  0.00000000000E+00  0.00000000000E+00  0.12566283445E+04  0.12566283445E+04  0.00000000000E+00 0.  1.
         -2   -1    0    0    0  501 -0.00000000000E+00 -0.00000000000E+00 -0.37440477855E+01  0.37440477855E+01  0.00000000000E+00 0. -1.
          1    1    1    2  502    0  0.96687309483E+01  0.45677373703E+02  0.10881027976E+04  0.10891040377E+04  0.00000000000E+00 0.  1.
         -1    1    1    2    0  501 -0.96687309483E+01 -0.45677373703E+02  0.16478149914E+03  0.17126835459E+03  0.00000000000E+00 0. -1.
</event>
<event>
 4    1  0.6824761E+001  0.3042776E+02  0.7546771E-02  0.1415915E+00
          2   -1    0    0  502    0  0.00000000000E+00  0.00000000000E+00  0.71007077848E+02  0.71007077848E+02  0.00000000000E+00 0. -1.
         -2   -1    0    0    0  501 -0.00000000000E+00 -0.00000000000E+00 -0.23686270058E+02  0.23686270058E+02  0.00000000000E+00 0.  1.
          1    1    1    2  502    0 -0.24483012196E+00  0.30426772881E+02 -0.80837648943E+01  0.31483260704E+02  0.00000000000E+00 0.  1.
         -1    1    1    2    0  501  0.24483012196E+00 -0.30426772881E+02  0.55404572684E+02  0.63210087201E+02  0.00000000000E+00 0. -1.
</event>
<event>
 4    1  0.6824761E+001  0.2429586E+02  0.7546771E-02  0.1476837E+00
          2   -1    0    0  502    0  0.00000000000E+00  0.00000000000E+00  0.10381230418E+04  0.10381230418E+04  0.00000000000E+00 0. -1.
         -2   -1    0    0    0  501 -0.00000000000E+00 -0.00000000000E+00 -0.57767825674E+00  0.57767825674E+00  0.00000000000E+00 0.  1.
          1    1    1    2  502    0  0.37423330897E+01  0.24005910400E+02  0.58383676388E+03  0.58434207075E+03  0.00000000000E+00 0.  1.
         -1    1    1    2    0  501 -0.37423330897E+01 -0.24005910400E+02  0.45370859970E+03  0.45435864935E+03  0.00000000000E+00 0. -1.
</event>
<event>
 4    1  0.6824761E+001  0.5276972E+02  0.7546771E-02  0.1286591E+00
          2   -1    0    0  502    0  0.00000000000E+00  0.00000000000E+00  0.15007806567E+04  0.15007806567E+04  0.00000000000E+00 0. -1.
         -2   -1    0    0    0  501 -0.00000000000E+00 -0.00000000000E+00 -0.28218849801E+01  0.28218849801E+01  0.00000000000E+00 0.  1.
          1    1    1    2  502    0  0.17740335032E+02  0.49698325361E+02  0.11889430328E+04  0.11901135148E+04  0.00000000000E+00 0. -1.
         -1    1    1    2    0  501 -0.17740335032E+02 -0.49698325361E+02  0.30901573893E+03  0.31348902682E+03  0.00000000000E+00 0.  1.
</event>
<event>
 4    1  0.6824761E+001  0.3226040E+02  0.7546771E-02  0.1400919E+00
          2   -1    0    0  502    0  0.00000000000E+00  0.00000000000E+00  0.38086122292E+03  0.38086122292E+03  0.00000000000E+00 0.  1.
         -2   -1    0    0    0  501 -0.00000000000E+00 -0.00000000000E+00 -0.46559285216E+02  0.46559285216E+02  0.00000000000E+00 0. -1.
          1    1    1    2  502    0  0.27963573748E+02 -0.16086400253E+02 -0.40193101650E+02  0.51538521031E+02  0.00000000000E+00 0. -1.
         -1    1    1    2    0  501 -0.27963573748E+02  0.16086400253E+02  0.37449503935E+03  0.37588198710E+03  0.00000000000E+00 0.  1.
</event>
<event>
 4    1  0.6824761E+001  0.2541654E+02  0.7546771E-02  0.1464197E+00
          2   -1    0    0  502    0  0.00000000000E+00  0.00000000000E+00  0.26057182618E+03  0.26057182618E+03  0.00000000000E+00 0.  1.
         -2   -1    0    0    0  501 -0.00000000000E+00 -0.00000000000E+00 -0.32678707582E+01  0.32678707582E+01  0.00000000000E+00 0. -1.
          1    1    1    2  502    0  0.18362269949E+02  0.17573482769E+02  0.19346100861E+03  0.19512345350E+03  0.00000000000E+00 0.  1.
         -1    1    1    2    0  501 -0.18362269949E+02 -0.17573482769E+02  0.63842946811E+02  0.68716243435E+02  0.00000000000E+00 0. -1.
</event>
<event>
 4    1  0.6824761E+001  0.2669618E+02  0.7546771E-02  0.1450684E+00
          2   -1    0    0  502    0  0.00000000000E+00  0.00000000000E+00  0.58106139642E+03  0.58106139642E+03  0.00000000000E+00 0. -1.
         -2   -1    0    0    0  501 -0.00000000000E+00 -0.00000000000E+00 -0.12758570383E+01  0.12758570383E+01  0.00000000000E+00 0.  1.
          1    1    1    2  502    0 -0.64115911733E+01 -0.25914817441E+02  0.23263840597E+03  0.23416514300E+03  0.00000000000E+00 0.  1.
         -1    1    1    2    0  501  0.64115911733E+01  0.25914817441E+02  0.34714713342E+03  0.34817211046E+03  0.00000000000E+00 0. -1.
</event>
<event>
 4    1  0.6824761E+001  0.2220083E+02  0.7546771E-02  0.1502785E+00
          2   -1    0    0  502    0  0.00000000000E+00  0.00000000000E+00  0.11581920413E+02  0.11581920413E+02  0.00000000000E+00 0.  1.
         -2   -1    0    0    0  501 -0.00000000000E+00 -0.00000000000E+00 -0.42565037405E+02  0.42565037405E+02  0.00000000000E+00 0. -1.
          1    1    1    2  502    0  0.21580943666E+02 -0.52095864538E+01 -0.15892193447E+02  0.27302723913E+02  0.00000000000E+00 0.  1.
         -1    1    1    2    0  501 -0.21580943666E+02  0.52095864538E+01 -0.15090923545E+02  0.26844233906E+02  0.00000000000E+00 0. -1.
</event>
<event>
 4    1  0.6824761E+001  0.2121855E+02  0.7546771E-02  0.1516167E+00
          2   -1    0    0  502    0  0.00000000000E+00  0.00000000000E+00  0.11545866121E+04  0.11545866121E+04  0.00000000000E+00 0.  1.
         -2   -1    0    0    0  501 -0.00000000000E+00 -0.00000000000E+00 -0.41017248373E+00  0.41017248373E+00  0.00000000000E+00 0. -1.
          1    1    1    2  502    0  0.66212758727E+01  0.20159008869E+02  0.44884835608E+03  0.44934961187E+03  0.00000000000E+00 0. -1.
         -1    1    1    2    0  501 -0.66212758727E+01 -0.20159008869E+02  0.70532808356E+03  0.70564717274E+03  0.00000000000E+00 0.  1.
</event>
<event>
 4    1  0.6824761E+001  0.3475725E+02  0.7546771E-02  0.1382278E+00
          2   -1    0    0  502    0  0.00000000000E+00  0.00000000000E+00  0.45459149563E+03  0.45459149563E+03  0.00000000000E+00 0. -1.
         -2   -1    0    0    0  501 -0.00000000000E+00 -0.00000000000E+00 -0.44953967590E+01  0.44953967590E+01  0.00000000000E+00 0.  1.
          1    1    1    2  502    0 -0.17934941028E+02  0.29772540462E+02  0.37182038351E+03  0.37344137943E+03  0.00000000000E+00 0. -1.
         -1    1    1    2    0  501  0.17934941028E+02 -0.29772540462E+02  0.78275715364E+02  0.85645512965E+02  0.00000000000E+00 0.  1.
</event>
<event>
 4    1  0.6824761E+001  0.2549710E+02  0.7546771E-02  0.1463318E+00
          2   -1    0    0  502    0  0.00000000000E+00  0.00000000000E+00  0.15023731551E+04  0.15023731551E+04  0.00000000000E+00 0.  1.
         -2   -1    0    0    0  501 -0.00000000000E+00 -0.00000000000E+00 -0.43403729840E+00  0.43403729840E+00  0.00000000000E+00 0. -1.
          1    1    1    2  502    0 -0.20235123782E+02  0.15512636815E+02  0.79241485533E+03  0.79282495236E+03  0.00000000000E+00 0.  1.
         -1    1    1    2    0  501  0.20235123782E+02 -0.15512636815E+02  0.70952426242E+03  0.70998223999E+03  0.00000000000E+00 0. -1.
</event>
<event>
 4    1  0.6824761E+001  0.2727170E+02  0.7546771E-02  0.1444898E+00
          2   -1    0    0  502    0  0.00000000000E+00  0.00000000000E+00  0.75146847556E+01  0.75146847556E+01  0.00000000000E+00 0.  1.
         -2   -1    0    0    0  501 -0.00000000000E+00 -0.00000000000E+00 -0.99381559823E+02  0.99381559823E+02  0.00000000000E+00 0. -1.
          1    1    1    2  502    0 -0.12960535848E+02 -0.23995207877E+02 -0.49363398968E+02  0.56395838926E+02  0.00000000000E+00 0. -1.
         -1    1    1    2    0  501  0.12960535848E+02  0.23995207877E+02 -0.42503476099E+02  0.50500405652E+02  0.00000000000E+00 0.  1.
</event>
<event>
 4    1  0.6824761E+001  0.2039166E+02  0.7546771E-02  0.1528130E+00
          2   -1    0    0  502    0  0.00000000000E+00  0.00000000000E+00  0.77529252531E+02  0.77529252531E+02  0.00000000000E+00 0. -1.
         -2   -1    0    0    0  501 -0.00000000000E+00 -0.00000000000E+00 -0.53918197084E+01  0.53918197084E+01  0.00000000000E+00 0.  1.
          1    1    1    2  502    0 -0.17067863529E+02  0.11158299257E+02  0.39079325830E+02  0.44079624716E+02  0.00000000000E+00 0.  1.
         -1    1    1    2    0  501  0.17067863529E+02 -0.11158299257E+02  0.33058106993E+02  0.38841447524E+02  0.00000000000E+00 0. -1.
</event>
<event>
 4    1  0.6824761E+001  0.2715126E+02  0.7546771E-02  0.1446095E+00
          2   -1    0    0  502    0  0.00000000000E+00  0.00000000000E+00  0.35341174619E+03  0.35341174619E+03  0.00000000000E+00 0. -1.
         -2   -1    0    0    0  501 -0.00000000000E+00 -0.00000000000E+00 -0.22465153140E+01  0.22465153140E+01  0.00000000000E+00 0.  1.
          1    1    1    2  502    0 -0.26925885920E+02  0.34911085160E+01  0.22312762334E+03  0.22477350259E+03  0.00000000000E+00 0. -1.
         -1    1    1    2    0  501  0.26925885920E+02 -0.34911085160E+01  0.12803760754E+03  0.13088475892E+03  0.00000000000E+00 0.  1.
</event>
<event>
 4    1  0.6824761E+001  0.3377044E+02  0.7546771E-02  0.1389420E+00
          2   -1    0    0  502    0  0.00000000000E+00  0.00000000000E+00  0.49721561791E+02  0.49721561791E+02  0.00000000000E+00 0. -1.
         -2   -1    0    0    0  501 -0.00000000000E+00 -0.00000000000E+00 -0.26955081084E+02  0.26955081084E+02  0.00000000000E+00 0.  1.
          1    1    1    2  502    0 -0.22953901778E+02 -0.24770168565E+02 -0.34195816149E+01  0.33943134741E+02  0.00000000000E+00 0.  1.
         -1    1    1    2    0  501  0.22953901778E+02  0.24770168565E+02  0.26186062322E+02  0.42733508135E+02  0.00000000000E+00 0. -1.
</event>
<event>
 4    1  0.6824761E+001  0.3066041E+02  0.7546771E-02  0.1413943E+00
          2   -1    0    0  502    0  0.00000000000E+00  0.00000000000E+00  0.17459198700E+02  0.17459198700E+02  0.00000000000E+00 0.  1.
         -2   -1    0    0    0  501 -0.00000000000E+00 -0.00000000000E+00 -0.68962499036E+02  0.68962499036E+02  0.00000000000E+00 0. -1.
          1    1    1    2  502    0 -0.29817115869E+02 -0.71414434808E+01 -0.45984213493E+02  0.55268512774E+02  0.00000000000E+00 0.  1.
         -1    1    1    2    0  501  0.29817115869E+02  0.71414434808E+01 -0.55190868425E+01  0.31153184962E+02  0.00000000000E+00 0. -1.
</event>
<event>
 4    1  0.6824761E+001  0.2067679E+02  0.7546771E-02  0.1523930E+00
          2   -1    0    0  502    0  0.00000000000E+00  0.00000000000E+00  0.14092142594E+02  0.14092142594E+02  0.00000000000E+00 0. -1.
         -2   -1    0    0    0  501 -0.00000000000E+00 -0.00000000000E+00 -0.33598465405E+02  0.33598465405E+02  0.00000000000E+00 0.  1.
          1    1    1    2  502    0 -0.90417423265E+00  0.20657007145E+02 -0.17181184361E+02  0.26883499982E+02  0.00000000000E+00 0.  1.
         -1    1    1    2    0  501  0.90417423265E+00 -0.20657007145E+02 -0.23251384497E+01  0.20807108017E+02  0.00000000000E+00 0. -1.
</event>
<event>
 4    1  0.6824761E+001  0.2532780E+02  0.7546771E-02  0.1465170E+00
          2   -1    0    0  502    0  0.00000000000E+00  0.00000000000E+00  0.20910011269E+03  0.20910011269E+03  0.00000000000E+00 0. -1.
         -2   -1    0    0    0  501 -0.00000000000E+00 -0.00000000000E+00 -0.52507309353E+01  0.52507309353E+01  0.00000000000E+00 0.  1.
          1    1    1    2  502    0  0.89592825869E+01 -0.23690264263E+02  0.17102751289E+03  0.17289276310E+03  0.00000000000E+00 0. -1.
         -1    1    1    2    0  501 -0.89592825869E+01  0.23690264263E+02  0.32821868856E+02  0.41458080522E+02  0.00000000000E+00 0.  1.
</event>
<event>
 4    1  0.6824761E+001  0.2276431E+02  0.7546771E-02  0.1495479E+00
          2   -1    0    0  502    0  0.00000000000E+00  0.00000000000E+00  0.93547397287E+03  0.93547397287E+03  0.00000000000E+00 0.  1.
         -2   -1    0    0    0  501 -0.00000000000E+00 -0.00000000000E+00 -0.68114013458E+00  0.68114013458E+00  0.00000000000E+00 0. -1.
          1    1    1    2  502    0 -0.22705462335E+02 -0.16358259099E+01  0.26513574635E+03  0.26611121348E+03  0.00000000000E+00 0. -1.
         -1    1    1    2    0  501  0.22705462335E+02  0.16358259099E+01  0.66965708638E+03  0.67004389952E+03  0.00000000000E+00 0.  1.
</event>
<event>
 4    1  0.6824761E+001  0.2325502E+02  0.7546771E-02  0.1489320E+00
          2   -1    0    0  502    0  0.00000000000E+00  0.00000000000E+00  0.21003642237E+04  0.21003642237E+04  0.00000000000E+00 0. -1.
         -2   -1    0    0    0  501 -0.00000000000E+00 -0.00000000000E+00 -0.26191179455E+00  0.26191179455E+00  0.00000000000E+00 0.  1.
          1    1    1    2  502    0 -0.37774785831E+01  0.22946163686E+02  0.91338179631E+03  0.91367778872E+03  0.00000000000E+00 0. -1.
         -1    1    1    2    0  501  0.37774785831E+01 -0.22946163686E+02  0.11867205156E+04  0.11869483468E+04  0.00000000000E+00 0.  1.
</event>
<event>
 4    1  0.6824761E+001  0.2092473E+02  0.7546771E-02  0.1520342E+00
          2   -1    0    0  502    0  0.00000000000E+00  0.00000000000E+00  0.17377964180E+03  0.17377964180E+03  0.00000000000E+00 0. -1.
         -2   -1    0    0    0  501 -0.00000000000E+00 -0.00000000000E+00 -0.25326337036E+01  0.25326337036E+01  0.00000000000E+00 0.  1.
          1    1    1    2  502    0 -0.20661815434E+02 -0.33066467047E+01  0.91962485661E+02  0.94313007048E+02  0.00000000000E+00 0. -1.
         -1    1    1    2    0  501  0.20661815434E+02  0.33066467047E+01  0.79284522434E+02  0.81999268454E+02  0.00000000000E+00 0.  1.
</event>
<event>
 4    1  0.6824761E+001  0.2327686E+02  0.7546771E-02  0.1489051E+00
          2   -1    0    0  502    0  0.00000000000E+00  0.00000000000E+00  0.71913354990E+01  0.71913354990E+01  0.00000000000E+00 0. -1.
         -2   -1    0    0    0  501 -0.00000000000E+00 -0.00000000000E+00 -0.82579720074E+02  0.82579720074E+02  0.00000000000E+00 0.  1.
          1    1    1    2  502    0  0.10635822755E+02  0.20704870517E+02 -0.50982169834E+02  0.56044571814E+02  0.00000000000E+00 0.  1.
         -1    1    1    2    0  501 -0.10635822755E+02 -0.20704870517E+02 -0.24406214741E+02  0.33726483759E+02  0.00000000000E+00 0. -1.
</event>
<event>
 4    1  0.6824761E+001  0.2388429E+02  0.7546771E-02  0.1481683E+00
          2   -1    0    0  502    0  0.00000000000E+00  0.00000000000E+00  0.83830246781E+02  0.83830246781E+02  0.00000000000E+00 0. -1.
         -2   -1    0    0    0  501 -0.00000000000E+00 -0.00000000000E+00 -0.10132050139E+02  0.10132050139E+02  0.00000000000E+00 0.  1.
          1    1    1    2  502    0  0.77576028299E+01  0.22589351586E+02  0.99269932911E+01  0.25865119419E+02  0.00000000000E+00 0.  1.
         -1    1    1    2    0  501 -0.77576028299E+01 -0.22589351586E+02  0.63771203350E+02  0.68097177500E+02  0.00000000000E+00 0. -1.
</event>
<event>
 4    1  0.6824761E+001  0.3698815E+02  0.7546771E-02  0.1367100E+00
          2   -1    0    0  502    0  0.00000000000E+00  0.00000000000E+00  0.11049190355E+03  0.11049190355E+03  0.00000000000E+00 0. -1.
         -2   -1    0    0    0  501 -0.00000000000E+00 -0.00000000000E+00 -0.16824504478E+02  0.16824504478E+02  0.00000000000E+00 0.  1.
          1    1    1    2  502    0 -0.35926989322E+02 -0.87962668749E+01  0.14122850645E+02  0.39592648093E+02  0.00000000000E+00 0.  1.
         -1    1    1    2    0  501  0.35926989322E+02  0.87962668749E+01  0.79544548426E+02  0.87723759934E+02  0.00000000000E+00 0. -1.
</event>
<event>
 4    1  0.6824761E+001  0.2391781E+02  0.7546771E-02  0.1481284E+00
          2   -1    0    0  502    0  0.00000000000E+00  0.00000000000E+00  0.45861269137E+03  0.45861269137E+03  0.00000000000E+00 0. -1.
         -2   -1    0    0    0  501 -0.00000000000E+00 -0.00000000000E+00 -0.14838411392E+01  0.14838411392E+01  0.00000000000E+00 0.  1.
          1    1    1    2  502    0 -0.18020994467E+02 -0.15725940044E+02  0.32039998764E+03  0.32129147750E+03  0.00000000000E+00 0. -1.
         -1    1    1    2    0  501  0.18020994467E+02  0.15725940044E+02  0.13672886259E+03  0.13880505501E+03  0.00000000000E+00 0.  1.
</event>
<event>
 4    1  0.6824761E+001  0.2371234E+02  0.7546771E-02  0.1483742E+00
          2   -1    0    0  502    0  0.00000000000E+00  0.00000000000E+00  0.53695384937E+01  0.53695384937E+01  0.00000000000E+00 0.  1.
         -2   -1    0    0    0  501 -0.00000000000E+00 -0.00000000000E+00 -0.10535866705E+03  0.10535866705E+03  0.00000000000E+00 0. -1.
          1    1    1    2  502    0 -0.18427258904E+02 -0.14923508484E+02 -0.54319581670E+02  0.59269654368E+02  0.00000000000E+00 0.  1.
         -1    1    1    2    0  501  0.18427258904E+02  0.14923508484E+02 -0.45669546884E+02  0.51458551172E+02  0.00000000000E+00 0. -1.
</event>
<event>
 4    1  0.6824761E+001  0.2358498E+02  0.7546771E-02  0.1485280E+00
          2   -1    0    0  502    0  0.00000000000E+00  0.00000000000E+00  0.14111578961E+04  0.14111578961E+04  0.00000000000E+00 0.  1.
         -2   -1    0    0    0  501 -0.00000000000E+00 -0.00000000000E+00 -0.45838500036E+00  0.45838500036E+00  0.00000000000E+00 0. -1.
          1    1    1    2  502    0  0.10633712559E+02 -0.21051726876E+02  0.96950175761E+03  0.96978858988E+03  0.00000000000E+00 0.  1.
         -1    1    1    2    0  501 -0.10633712559E+02  0.21051726876E+02  0.44119775352E+03  0.44182769125E+03  0.00000000000E+00 0. -1.
</event>
<event>
 4    1  0.6824761E+001  0.2591241E+02  0.7546771E-02  0.1458850E+00
          2   -1    0    0  502    0  0.00000000000E+00  0.00000000000E+00  0.12739414824E+01  0.12739414824E+01  0.00000000000E+00 0. -1.
         -2   -1    0    0    0  501 -0.00000000000E+00 -0.00000000000E+00 -0.52707111556E+03  0.52707111556E+03  0.00000000000E+00 0.  1.
          1    1    1    2  502    0 -0.12085456783E+02  0.22921487545E+02 -0.26218485380E+03  0.26346223718E+03  0.00000000000E+00 0. -1.
         -1    1    1    2    0  501  0.12085456783E+02 -0.22921487545E+02 -0.26361232028E+03  0.26488281986E+03  0.00000000000E+00 0.  1.
</event>
<event>
 4    1  0.6824761E+001  0.2515260E+02  0.7546771E-02  0.1467103E+00
          2   -1    0    0  502    0  0.00000000000E+00  0.00000000000E+00  0.87348608237E+03  0.87348608237E+03  0.00000000000E+00 0. -1.
         -2   -1    0    0    0  501 -0.00000000000E+00 -0.00000000000E+00 -0.78922460911E+00  0.78922460911E+00  0.00000000000E+00 0.  1.
          1    1    1    2  502    0 -0.99692688006E+01  0.23092577965E+02  0.56174059534E+03  0.56230343226E+03  0.00000000000E+00 0. -1.
         -1    1    1    2    0  501  0.99692688006E+01 -0.23092577965E+02  0.31095626242E+03  0.31197187472E+03  0.00000000000E+00 0.  1.
</event>
<event>
 4    1  0.6824761E+001  0.2885858E+02  0.7546771E-02  0.1429781E+00
          2   -1    0    0  502    0  0.00000000000E+00  0.00000000000E+00  0.67404217494E+03  0.67404217494E+03  0.00000000000E+00 0. -1.
         -2   -1    0    0    0  501 -0.00000000000E+00 -0.00000000000E+00 -0.15738356265E+01  0.15738356265E+01  0.00000000000E+00 0.  1.
          1    1    1    2  502    0 -0.28278571821E+02  0.57567476167E+01  0.49284698692E+03  0.49369116893E+03  0.00000000000E+00 0. -1.
         -1    1    1    2    0  501  0.28278571821E+02 -0.57567476167E+01  0.17962135240E+03  0.18192484163E+03  0.00000000000E+00 0.  1.
</event>
<event>
 4    1  0.6824761E+001  0.3781241E+02  0.7546771E-02  0.1361805E+00
          2   -1    0    0  502    0  0.00000000000E+00  0.00000000000E+00  0.26236891390E+03  0.26236891390E+03  0.00000000000E+00 0. -1.
         -2   -1    0    0    0  501 -0.00000000000E+00 -0.00000000000E+00 -0.54761191174E+01  0.54761191174E+01  0.00000000000E+00 0.  1.
          1    1    1    2  502    0  0.72374544563E+01 -0.37113310508E+02  0.11910869852E+03  0.12496663805E+03  0.00000000000E+00 0.  1.
         -1    1    1    2    0  501 -0.72374544563E+01  0.37113310508E+02  0.13778409627E+03  0.14287839497E+03  0.00000000000E+00 0. -1.
</event>
<event>
 4    1  0.6824761E+001  0.2406478E+02  0.7546771E-02  0.1479544E+00
          2   -1    0    0  502    0  0.00000000000E+00  0.00000000000E+00  0.16105157412E+04  0.16105157412E+04  0.00000000000E+00 0. -1.
         -2   -1    0    0    0  501 -0.00000000000E+00 -0.00000000000E+00 -0.54480111294E+00  0.54480111294E+00  0.00000000000E+00 0.  1.
          1    1    1    2  502    0 -0.80429124859E+01  0.22680944483E+02  0.33530241778E+03  0.33616487778E+03  0.00000000000E+00 0.  1.
         -1    1    1    2    0  501  0.80429124859E+01 -0.22680944483E+02  0.12746685223E+04  0.12748956646E+04  0.00000000000E+00 0. -1.
</event>
<event>
 4    1  0.6824761E+001  0.3088837E+02  0.7546771E-02  0.1412030E+00
          2   -1    0    0  502    0  0.00000000000E+00  0.00000000000E+00  0.12739965723E+03  0.12739965723E+03  0.00000000000E+00 0. -1.
         -2   -1    0    0    0  501 -0.00000000000E+00 -0.00000000000E+00 -0.16010277368E+02  0.16010277368E+02  0.00000000000E+00 0.  1.
          1    1    1    2  502    0  0.25160696653E+02  0.17917323791E+02  0.10800690890E+03  0.11233691966E+03  0.00000000000E+00 0. -1.
         -1    1    1    2    0  501 -0.25160696653E+02 -0.17917323791E+02  0.33824709663E+01  0.31073014945E+02  0.00000000000E+00 0.  1.
</event>
<event>
 4    1  0.6824761E+001  0.2128790E+02  0.7546771E-02  0.1515194E+00
          2   -1    0    0  502    0  0.00000000000E+00  0.00000000000E+00  0.83973512358E+03  0.83973512358E+03  0.00000000000E+00 0.  1.
         -2   -1    0    0    0  501 -0.00000000000E+00 -0.00000000000E+00 -0.86194250257E+00  0.86194250257E+00  0.00000000000E+00 0. -1.
          1    1    1    2  502    0  0.15620717003E+02 -0.14462634603E+02  0.67643744555E+03  0.67677233420E+03  0.00000000000E+00 0.  1.
         -1    1    1    2    0  501 -0.15620717003E+02  0.14462634603E+02  0.16243573553E+03  0.16382473188E+03  0.00000000000E+00 0. -1.
</event>
<event>
 4    1  0.6824761E+001  0.2045830E+02  0.7546771E-02  0.1527141E+00
          2   -1    0    0  502    0  0.00000000000E+00  0.00000000000E+00  0.75913796275E+02  0.75913796275E+02  0.00000000000E+00 0.  1.
         -2   -1    0    0    0  501 -0.00000000000E+00 -0.00000000000E+00 -0.56988494226E+01  0.56988494226E+01  0.00000000000E+00 0. -1.
          1    1    1    2  502    0  0.61321835605E+01  0.19517647608E+02  0.27746077072E+02  0.34472989952E+02  0.00000000000E+00 0. -1.
         -1    1    1    2    0  501 -0.61321835605E+01 -0.19517647608E+02  0.42468869781E+02  0.47139655746E+02  0.00000000000E+00 0.  1.
</event>
<event>
 4    1  0.6824761E+001  0.2193721E+02  0.7546771E-02  0.1506293E+00
          2   -1    0    0  502    0  0.00000000000E+00  0.00000000000E+00  0.37488656265E+03  0.37488656265E+03  0.00000000000E+00 0. -1.
         -2   -1    0    0    0  501 -0.00000000000E+00 -0.00000000000E+00 -0.13257988379E+01  0.13257988379E+01  0.00000000000E+00 0.  1.
          1    1    1    2  502    0  0.15045933121E+02 -0.15964365568E+02  0.15325988613E+03  0.15482194214E+03  0.00000000000E+00 0.  1.
         -1    1    1    2    0  501 -0.15045933121E+02  0.15964365568E+02  0.22030087768E+03  0.22139041934E+03  0.00000000000E+00 0. -1.
</event>
<event>
 4    1  0.6824761E+001  0.4466077E+02  0.7546771E-02  0.1323144E+00
          2   -1    0    0  502    0  0.00000000000E+00  0.00000000000E+00  0.15711029176E+03  0.15711029176E+03  0.00000000000E+00 0.  1.
         -2   -1    0    0    0  501 -0.00000000000E+00 -0.00000000000E+00 -0.16506868640E+02  0.16506868640E+02  0.00000000000E+00 0. -1.
          1    1    1    2  502    0  0.43573720211E+02 -0.97936311303E+01  0.28588445613E+02  0.53027196100E+02  0.00000000000E+00 0. -1.
         -1    1    1    2    0  501 -0.43573720211E+02  0.97936311303E+01  0.11201497751E+03  0.12058996430E+03  0.00000000000E+00 0.  1.
</event>
<event>
 4    1  0.6824761E+001  0.4170011E+02  0.7546771E-02  0.1338801E+00
          2   -1    0    0  502    0  0.00000000000E+00  0.00000000000E+00  0.10601517081E+04  0.10601517081E+04  0.00000000000E+00 0.  1.
         -2   -1    0    0    0  501 -0.00000000000E+00 -0.00000000000E+00 -0.16756474238E+01  0.16756474238E+01  0.00000000000E+00 0. -1.
          1    1    1    2  502    0  0.72640738131E+00 -0.41693778169E+02  0.60641814045E+03  0.60785019526E+03  0.00000000000E+00 0.  1.
         -1    1    1    2    0  501 -0.72640738131E+00  0.41693778169E+02  0.45205792020E+03  0.45397716024E+03  0.00000000000E+00 0. -1.
</event>
<event>
 4    1  0.6824761E+001  0.2320480E+02  0.7546771E-02  0.1489942E+00
          2   -1    0    0  502    0  0.00000000000E+00  0.00000000000E+00  0.15700134665E+02  0.15700134665E+02  0.00000000000E+00 0. -1.
         -2   -1    0    0    0  501 -0.00000000000E+00 -0.00000000000E+00 -0.17920634981E+03  0.17920634981E+03  0.00000000000E+00 0.  1.
          1    1    1    2  502    0 -0.23185205170E+02 -0.95341521261E+00 -0.16938622384E+03  0.17096828819E+03  0.00000000000E+00 0.  1.
         -1    1    1    2    0  501  0.23185205170E+02  0.95341521261E+00  0.58800086921E+01  0.23938196289E+02  0.00000000000E+00 0. -1.
</event>
<event>
 4    1  0.6824761E+001  0.3805376E+02  0.7546771E-02  0.1360284E+00
          2   -1    0    0  502    0  0.00000000000E+00  0.00000000000E+00  0.34425725590E+03  0.34425725590E+03  0.00000000000E+00 0. -1.
         -2   -1    0    0    0  501 -0.00000000000E+00 -0.00000000000E+00 -0.51670771754E+01  0.51670771754E+01  0.00000000000E+00 0.  1.
          1    1    1    2  502    0 -0.12484057307E+02 -0.35947696884E+02  0.94211925185E+02  0.10160696553E+03  0.00000000000E+00 0.  1.
         -1    1    1    2    0  501  0.12484057307E+02  0.35947696884E+02  0.24487825353E+03  0.24781736754E+03  0.00000000000E+00 0. -1.
</event>
<event>
 4    1  0.6824761E+001  0.2062565E+02  0.7546771E-02  0.1524677E+00
          2   -1    0    0  502    0  0.00000000000E+00  0.00000000000E+00  0.13473480830E+04  0.13473480830E+04  0.00000000000E+00 0.  1.
         -2   -1    0    0    0  501 -0.00000000000E+00 -0.00000000000E+00 -0.64339047394E+00  0.64339047394E+00  0.00000000000E+00 0. -1.
          1    1    1    2  502    0  0.75155830604E+00 -0.20611951151E+02  0.11543272755E+04  0.11545115315E+04  0.00000000000E+00 0.  1.
         -1    1    1    2    0  501 -0.75155830604E+00  0.20611951151E+02  0.19237741701E+03  0.19347994197E+03  0.00000000000E+00 0. -1.
</event>
<event>
 4    1  0.6824761E+001  0.5429671E+02  0.7546771E-02  0.1280546E+00
          2   -1    0    0  502    0  0.00000000000E+00  0.00000000000E+00  0.55030580068E+03  0.55030580068E+03  0.00000000000E+00 0.  1.
         -2   -1    0    0    0  501 -0.00000000000E+00 -0.00000000000E+00 -0.91737041839E+01  0.91737041839E+01  0.00000000000E+00 0. -1.
          1    1    1    2  502    0  0.54172634603E+02  0.36685584217E+01  0.90135058085E+02  0.10522576375E+03  0.00000000000E+00 0. -1.
         -1    1    1    2    0  501 -0.54172634603E+02 -0.36685584217E+01  0.45099703842E+03  0.45425374112E+03  0.00000000000E+00 0.  1.
</event>
<event>
 4    1  0.6824761E+001  0.2086079E+02  0.7546771E-02  0.1521262E+00
          2   -1    0    0  502    0  0.00000000000E+00  0.00000000000E+00  0.75157352924E+03  0.75157352924E+03  0.00000000000E+00 0. -1.
         -2   -1    0    0    0  501 -0.00000000000E+00 -0.00000000000E+00 -0.70406258341E+00  0.70406258341E+00  0.00000000000E+00 0.  1.
          1    1    1    2  502    0  0.20780855841E+02  0.18244272145E+01  0.21691629462E+03  0.21791707454E+03  0.00000000000E+00 0. -1.
         -1    1    1    2    0  501 -0.20780855841E+02 -0.18244272145E+01  0.53395317204E+03  0.53436051728E+03  0.00000000000E+00 0.  1.
</event>
<event>
 4    1  0.6824761E+001  0.2182157E+02  0.7546771E-02  0.1507851E+00
          2   -1    0    0  502    0  0.00000000000E+00  0.00000000000E+00  0.10278755004E+03  0.10278755004E+03  0.00000000000E+00 0. -1.
         -2   -1    0    0    0  501 -0.00000000000E+00 -0.00000000000E+00 -0.56206652799E+01  0.56206652799E+01  0.00000000000E+00 0.  1.
          1    1    1    2  502    0  0.20388161469E+02  0.77784199540E+01  0.25857836996E+02  0.33835021489E+02  0.00000000000E+00 0.  1.
         -1    1    1    2    0  501 -0.20388161469E+02 -0.77784199540E+01  0.71309047766E+02  0.74573193832E+02  0.00000000000E+00 0. -1.
</event>
<event>
 4    1  0.6824761E+001  0.9766552E+02  0.7546771E-02  0.1167916E+00
          2   -1    0    0  502    0  0.00000000000E+00  0.00000000000E+00  0.72624821808E+02  0.72624821808E+02  0.00000000000E+00 0.  1.
         -2   -1    0    0    0  501 -0.00000000000E+00 -0.00000000000E+00 -0.13534283122E+03  0.13534283122E+03  0.00000000000E+00 0. -1.
          1    1    1    2  502    0 -0.84864919155E+02 -0.48337353151E+02 -0.49241340637E+02  0.10937670611E+03  0.00000000000E+00 0. -1.
         -1    1    1    2    0  501  0.84864919155E+02  0.48337353151E+02 -0.13476668780E+02  0.98590946918E+02  0.00000000000E+00 0.  1.
</event>
<event>
 4    1  0.6824761E+001  0.2317618E+02  0.7546771E-02  0.1490298E+00
          2   -1    0    0  502    0  0.00000000000E+00  0.00000000000E+00  0.76887133346E+02  0.76887133346E+02  0.00000000000E+00 0.  1.
         -2   -1    0    0    0  501 -0.00000000000E+00 -0.00000000000E+00 -0.78813263534E+01  0.78813263534E+01  0.00000000000E+00 0. -1.
          1    1    1    2  502    0 -0.83223391024E+01  0.21630396663E+02  0.48788205027E+02  0.54013186701E+02  0.00000000000E+00 0.  1.
         -1    1    1    2    0  501  0.83223391024E+01 -0.21630396663E+02  0.20217601966E+02  0.30755272998E+02  0.00000000000E+00 0. -1.
</event>
<event>
 4    1  0.6824761E+001  0.2357601E+02  0.7546771E-02  0.1485389E+00
          2   -1    0    0  502    0  0.00000000000E+00  0.00000000000E+00  0.26209543526E+01  0.26209543526E+01  0.00000000000E+00 0. -1.
         -2   -1    0    0    0  501 -0.00000000000E+00 -0.00000000000E+00 -0.28216370046E+03  0.28216370046E+03  0.00000000000E+00 0.  1.
          1    1    1    2  502    0 -0.29946621155E+01  0.23385046304E+02 -0.21074098585E+03  0.21205563305E+03  0.00000000000E+00 0.  1.
         -1    1    1    2    0  501  0.29946621155E+01 -0.23385046304E+02 -0.68801760258E+02  0.72729021762E+02  0.00000000000E+00 0. -1.
</event>
<event>
 4    1  0.6824761E+001  0.3015553E+02  0.7546771E-02  0.1418250E+00
          2   -1    0    0  502    0  0.00000000000E+00  0.00000000000E+00  0.11264461983E+03  0.11264461983E+03  0.00000000000E+00 0.  1.
         -2   -1    0    0    0  501 -0.00000000000E+00 -0.00000000000E+00 -0.83229365388E+01  0.83229365388E+01  0.00000000000E+00 0. -1.
          1    1    1    2  502    0 -0.40268801066E+01  0.29885452772E+02  0.62646609939E+02  0.69526640848E+02  0.00000000000E+00 0.  1.
         -1    1    1    2    0  501  0.40268801066E+01 -0.29885452772E+02  0.41675073355E+02  0.51440915524E+02  0.00000000000E+00 0. -1.
</event>
<event>
 4    1  0.6824761E+001  0.2940435E+02  0.7546771E-02  0.1424844E+00
          2   -1    0    0  502    0  0.00000000000E+00  0.00000000000E+00  0.34466279955E+03  0.34466279955E+03  0.00000000000E+00 0.  1.
         -2   -1    0    0    0  501 -0.00000000000E+00 -0.00000000000E+00 -0.25965785419E+01  0.25965785419E+01  0.00000000000E+00 0. -1.
          1    1    1    2  502    0  0.29344249978E+02  0.18790341638E+01  0.20299627350E+03  0.20511485278E+03  0.00000000000E+00 0.  1.
         -1    1    1    2    0  501 -0.29344249978E+02 -0.18790341638E+01  0.13906994751E+03  0.14214452531E+03  0.00000000000E+00 0. -1.
</event>
<event>
 4    1  0.6824761E+001  0.3381097E+02  0.7546771E-02  0.1389121E+00
          2   -1    0    0  502    0  0.00000000000E+00  0.00000000000E+00  0.98573741758E+03  0.98573741758E+03  0.00000000000E+00 0.  1.
         -2   -1    0    0    0  501 -0.00000000000E+00 -0.00000000000E+00 -0.13436608678E+01  0.13436608678E+01  0.00000000000E+00 0. -1.
          1    1    1    2  502    0 -0.52386294364E+01  0.33402671679E+02  0.30959117455E+03  0.31143197825E+03  0.00000000000E+00 0. -1.
         -1    1    1    2    0  501  0.52386294364E+01 -0.33402671679E+02  0.67480258215E+03  0.67564910020E+03  0.00000000000E+00 0.  1.
</event>
<event>
 4    1  0.6824761E+001  0.2173378E+02  0.7546771E-02  0.1509041E+00
          2   -1    0    0  502    0  0.00000000000E+00  0.00000000000E+00  0.92233765922E+01  0.92233765922E+01  0.00000000000E+00 0. -1.
         -2   -1    0    0    0  501 -0.00000000000E+00 -0.00000000000E+00 -0.51931969379E+02  0.51931969379E+02  0.00000000000E+00 0.  1.
          1    1    1    2  502    0  0.20025543540E+02  0.84459903620E+01 -0.24952041435E+02  0.33090202765E+02  0.00000000000E+00 0.  1.
         -1    1    1    2    0  501 -0.20025543540E+02 -0.84459903620E+01 -0.17756551352E+02  0.28065143206E+02  0.00000000000E+00 0. -1.
</event>
<event>
 4    1  0.6824761E+001  0.2066035E+02  0.7546771E-02  0.1524170E+00
          2   -1    0    0  502    0  0.00000000000E+00  0.00000000000E+00  0.23066691723E+04  0.23066691723E+04  0.00000000000E+00 0. -1.
         -2   -1    0    0    0  501 -0.00000000000E+00 -0.00000000000E+00 -0.20550027697E+00  0.20550027697E+00  0.00000000000E+00 0.  1.
          1    1    1    2  502    0 -0.30544944974E+01 -0.20433305747E+02  0.15170913706E+04  0.15172320444E+04  0.00000000000E+00 0.  1.
         -1    1    1    2    0  501  0.30544944974E+01  0.20433305747E+02  0.78937230145E+03  0.78964262816E+03  0.00000000000E+00 0. -1.
</event>
<event>
 4    1  0.6824761E+001  0.7668785E+02  0.7546771E-02  0.1211753E+00
          2   -1    0    0  502    0  0.00000000000E+00  0.00000000000E+00  0.45250234576E+02  0.45250234576E+02  0.00000000000E+00 0.  1.
         -2   -1    0    0    0  501 -0.00000000000E+00 -0.00000000000E+00 -0.18241120291E+03  0.18241120291E+03  0.00000000000E+00 0. -1.
          1    1    1    2  502    0  0.48423814658E+02  0.59465625096E+02 -0.75448500312E+01  0.77058102469E+02  0.00000000000E+00 0.  1.
         -1    1    1    2    0  501 -0.48423814658E+02 -0.59465625096E+02 -0.12961611830E+03  0.15060333502E+03  0.00000000000E+00 0. -1.
</event>
<event>
 4    1  0.6824761E+001  0.2865177E+02  0.7546771E-02  0.1431686E+00
          2   -1    0    0  502    0  0.00000000000E+00  0.00000000000E+00  0.22396489855E+04  0.22396489855E+04  0.00000000000E+00 0.  1.
         -2   -1    0    0    0  501 -0.00000000000E+00 -0.00000000000E+00 -0.37858167964E+00  0.37858167964E+00  0.00000000000E+00 0. -1.
          1    1    1    2  502    0 -0.28629760916E+02 -0.11227269909E+01  0.13193750268E+04  0.13196860934E+04  0.00000000000E+00 0. -1.
         -1    1    1    2    0  501  0.28629760916E+02  0.11227269909E+01  0.91989537702E+03  0.92034147379E+03  0.00000000000E+00 0.  1.
</event>
<event>
 4    1  0.6824761E+001  0.2899002E+02  0.7546771E-02  0.1428581E+00
          2   -1    0    0  502    0  0.00000000000E+00  0.00000000000E+00  0.21077058567E+04  0.21077058567E+04  0.00000000000E+00 0. -1.
         -2   -1    0    0    0  501 -0.00000000000E+00 -0.00000000000E+00 -0.41703747107E+00  0.41703747107E+00  0.00000000000E+00 0.  1.
          1    1    1    2  502    0  0.26473817960E+02 -0.11813475293E+02  0.83284174351E+03  0.83334614115E+03  0.00000000000E+00 0.  1.
         -1    1    1    2    0  501 -0.26473817960E+02  0.11813475293E+02  0.12744470757E+04  0.12747767530E+04  0.00000000000E+00 0. -1.
</event>
<event>
 4    1  0.6824761E+001  0.5185908E+02  0.7546771E-02  0.1290307E+00
          2   -1    0    0  502    0  0.00000000000E+00  0.00000000000E+00  0.25550748036E+03  0.25550748036E+03  0.00000000000E+00 0.  1.
         -2   -1    0    0    0  501 -0.00000000000E+00 -0.00000000000E+00 -0.10926935689E+02  0.10926935689E+02  0.00000000000E+00 0. -1.
          1    1    1    2  502    0  0.46622585140E+02 -0.22709002088E+02  0.96758775442E+02  0.10977989272E+03  0.00000000000E+00 0. -1.
         -1    1    1    2    0  501 -0.46622585140E+02  0.22709002088E+02  0.14782176923E+03  0.15665452333E+03  0.00000000000E+00 0.  1.
</event>
<event>
 4    1  0.6824761E+001  0.3501142E+02  0.7546771E-02  0.1380483E+00
          2   -1    0    0  502    0  0.00000000000E+00  0.00000000000E+00  0.13192442480E+04  0.13192442480E+04  0.00000000000E+00 0. -1.
         -2   -1    0    0    0  501 -0.00000000000E+00 -0.00000000000E+00 -0.13550687591E+01  0.13550687591E+01  0.00000000000E+00 0.  1.
          1    1    1    2  502    0  0.58308650157E+01 -0.34522462477E+02  0.28876312767E+03  0.29087788383E+03  0.00000000000E+00 0.  1.
         -1    1    1    2    0  501 -0.58308650157E+01  0.34522462477E+02  0.10291260516E+04  0.10297214330E+04  0.00000000000E+00 0. -1.
</event>
<event>
 4    1  0.6824761E+001  0.2777981E+02  0.7546771E-02  0.1439928E+00
          2   -1    0    0  502    0  0.00000000000E+00  0.00000000000E+00  0.69640730973E+03  0.69640730973E+03  0.00000000000E+00 0.  1.
         -2   -1    0    0    0  501 -0.00000000000E+00 -0.00000000000E+00 -0.43612543237E+01  0.43612543237E+01  0.00000000000E+00 0. -1.
          1    1    1    2  502    0 -0.13140632889E+02  0.24475330388E+02  0.43409419440E+02  0.51537323625E+02  0.00000000000E+00 0. -1.
         -1    1    1    2    0  501  0.13140632889E+02 -0.24475330388E+02  0.64863663597E+03  0.64923124043E+03  0.00000000000E+00 0.  1.
</event>
<event>
 4    1  0.6824761E+001  0.2608670E+02  0.7546771E-02  0.1457005E+00
          2   -1    0    0  502    0  0.00000000000E+00  0.00000000000E+00  0.41794944717E+02  0.41794944717E+02  0.00000000000E+00 0. -1.
         -2   -1    0    0    0  501 -0.00000000000E+00 -0.00000000000E+00 -0.27305798831E+02  0.27305798831E+02  0.00000000000E+00 0.  1.
          1    1    1    2  502    0  0.20497750563E+02  0.16135615144E+02 -0.14708025955E+02  0.29947318439E+02  0.00000000000E+00 0.  1.
         -1    1    1    2    0  501 -0.20497750563E+02 -0.16135615144E+02  0.29197171841E+02  0.39153425109E+02  0.00000000000E+00 0. -1.
</event>
<event>
 4    1  0.6824761E+001  0.2734179E+02  0.7546771E-02  0.1444205E+00
          2   -1    0    0  502    0  0.00000000000E+00  0.00000000000E+00  0.12769454299E+04  0.12769454299E+04  0.00000000000E+00 0.  1.
         -2   -1    0    0    0  501 -0.00000000000E+00 -0.00000000000E+00 -0.10985492274E+01  0.10985492274E+01  0.00000000000E+00 0. -1.
          1    1    1    2  502    0 -0.25406670000E+02  0.10103198891E+02  0.10746518317E+04  0.10749995967E+04  0.00000000000E+00 0.  1.
         -1    1    1    2    0  501  0.25406670000E+02 -0.10103198891E+02  0.20119504901E+03  0.20304438247E+03  0.00000000000E+00 0. -1.
</event>
<event>
 4    1  0.6824761E+001  0.3554302E+02  0.7546771E-02  0.1376785E+00
          2   -1    0    0  502    0  0.00000000000E+00  0.00000000000E+00  0.89244556531E+03  0.89244556531E+03  0.00000000000E+00 0.  1.
         -2   -1    0    0    0  501 -0.00000000000E+00 -0.00000000000E+00 -0.14160073599E+01  0.14160073599E+01  0.00000000000E+00 0. -1.
          1    1    1    2  502    0 -0.11624130670E+02  0.33588483212E+02  0.45349471369E+03  0.45488543828E+03  0.00000000000E+00 0.  1.
         -1    1    1    2    0  501  0.11624130670E+02 -0.33588483212E+02  0.43753484426E+03  0.43897613439E+03  0.00000000000E+00 0. -1.
</event>
<event>
 4    1  0.6824761E+001  0.7106674E+02  0.7546771E-02  0.1226259E+00
          2   -1    0    0  502    0  0.00000000000E+00  0.00000000000E+00  0.35060970749E+02  0.35060970749E+02  0.00000000000E+00 0.  1.
         -2   -1    0    0    0  501 -0.00000000000E+00 -0.00000000000E+00 -0.29115424379E+03  0.29115424379E+03  0.00000000000E+00 0. -1.
          1    1    1    2  502    0  0.88045825330E+01  0.70519220067E+02 -0.24398507179E+03  0.25412437178E+03  0.00000000000E+00 0. -1.
         -1    1    1    2    0  501 -0.88045825330E+01 -0.70519220067E+02 -0.12108201245E+02  0.72090842760E+02  0.00000000000E+00 0.  1.
</event>
<event>
 4    1  0.6824761E+001  0.2296696E+02  0.7546771E-02  0.1492913E+00
          2   -1    0    0  502    0  0.00000000000E+00  0.00000000000E+00  0.11120722023E+02  0.11120722023E+02  0.00000000000E+00 0. -1.
         -2   -1    0    0    0  501 -0.00000000000E+00 -0.00000000000E+00 -0.16331534511E+03  0.16331534511E+03  0.00000000000E+00 0.  1.
          1    1    1    2  502    0  0.10975123933E+02  0.20174929675E+02 -0.14956608554E+03  0.15131918278E+03  0.00000000000E+00 0.  1.
         -1    1    1    2    0  501 -0.10975123933E+02 -0.20174929675E+02 -0.26285375478E+01  0.23116884357E+02  0.00000000000E+00 0. -1.
</event>
<event>
 4    1  0.6824761E+001  0.2745685E+02  0.7546771E-02  0.1443072E+00
          2   -1    0    0  502    0  0.00000000000E+00  0.00000000000E+00  0.22436154615E+04  0.22436154615E+04  0.00000000000E+00 0.  1.
         -2   -1    0    0    0  501 -0.00000000000E+00 -0.00000000000E+00 -0.33647810310E+00  0.33647810310E+00  0.00000000000E+00 0. -1.
          1    1    1    2  502    0  0.50813583873E+01 -0.26982557204E+02  0.10798185819E+04  0.10801676020E+04  0.00000000000E+00 0. -1.
         -1    1    1    2    0  501 -0.50813583873E+01  0.26982557204E+02  0.11634604015E+04  0.11637843376E+04  0.00000000000E+00 0.  1.
</event>
<event>
 4    1  0.6824761E+001  0.4012351E+02  0.7546771E-02  0.1347764E+00
          2   -1    0    0  502    0  0.00000000000E+00  0.00000000000E+00  0.99316018048E+03  0.99316018048E+03  0.00000000000E+00 0.  1.
         -2   -1    0    0    0  501 -0.00000000000E+00 -0.00000000000E+00 -0.24788140822E+01  0.24788140822E+01  0.00000000000E+00 0. -1.
          1    1    1    2  502    0 -0.18414099493E+02  0.35648524701E+02  0.20248702088E+03  0.20642405383E+03  0.00000000000E+00 0. -1.
         -1    1    1    2    0  501  0.18414099493E+02 -0.35648524701E+02  0.78819434551E+03  0.78921494073E+03  0.00000000000E+00 0.  1.
</event>
<event>
 4    1  0.6824761E+001  0.2168010E+02  0.7546771E-02  0.1509772E+00
          2   -1    0    0  502    0  0.00000000000E+00  0.00000000000E+00  0.67062736632E+02  0.67062736632E+02  0.00000000000E+00 0.  1.
         -2   -1    0    0    0  501 -0.00000000000E+00 -0.00000000000E+00 -0.70643948197E+01  0.70643948197E+01  0.00000000000E+00 0. -1.
          1    1    1    2  502    0  0.20237458590E+02 -0.77763784494E+01  0.26710098759E+02  0.34401397758E+02  0.00000000000E+00 0. -1.
         -1    1    1    2    0  501 -0.20237458590E+02  0.77763784494E+01  0.33288243053E+02  0.39725733694E+02  0.00000000000E+00 0.  1.
</event>
<event>
 4    1  0.6824761E+001  0.2038169E+02  0.7546771E-02  0.1528279E+00
          2   -1    0    0  502    0  0.00000000000E+00  0.00000000000E+00  0.49421339111E+02  0.49421339111E+02  0.00000000000E+00 0. -1.
         -2   -1    0    0    0  501 -0.00000000000E+00 -0.00000000000E+00 -0.84111194269E+01  0.84111194269E+01  0.00000000000E+00 0.  1.
          1    1    1    2  502    0  0.18671741875E+02  0.81718662466E+01  0.19760766516E+02  0.28388399671E+02  0.00000000000E+00 0.  1.
         -1    1    1    2    0  501 -0.18671741875E+02 -0.81718662466E+01  0.21249453168E+02  0.29444058866E+02  0.00000000000E+00 0. -1.
</event>
<event>
 4    1  0.6824761E+001  0.2555381E+02  0.7546771E-02  0.1462702E+00
          2   -1    0    0  502    0  0.00000000000E+00  0.00000000000E+00  0.34683545111E+01  0.34683545111E+01  0.00000000000E+00 0.  1.
         -2   -1    0    0    0  501 -0.00000000000E+00 -0.00000000000E+00 -0.30679383516E+03  0.30679383516E+03  0.00000000000E+00 0. -1.
          1    1    1    2  502    0 -0.60032737399E+01  0.24838639176E+02 -0.24808404631E+03  0.24939665460E+03  0.00000000000E+00 0. -1.
         -1    1    1    2    0  501  0.60032737399E+01 -0.24838639176E+02 -0.55241434335E+02  0.60865535068E+02  0.00000000000E+00 0.  1.
</event>
<event>
 4    1  0.6824761E+001  0.3840533E+02  0.7546771E-02  0.1358093E+00
          2   -1    0    0  502    0  0.00000000000E+00  0.00000000000E+00  0.14508960864E+03  0.14508960864E+03  0.00000000000E+00 0.  1.
         -2   -1    0    0    0  501 -0.00000000000E+00 -0.00000000000E+00 -0.10522304176E+02  0.10522304176E+02  0.00000000000E+00 0. -1.
          1    1    1    2  502    0  0.44857010410E+01  0.38142471092E+02  0.81602745960E+02  0.90188567807E+02  0.00000000000E+00 0. -1.
         -1    1    1    2    0  501 -0.44857010410E+01 -0.38142471092E+02  0.52964558507E+02  0.65423345013E+02  0.00000000000E+00 0.  1.
</event>
<event>
 4    1  0.6824761E+001  0.5168775E+02  0.7546771E-02  0.1291016E+00
          2   -1    0    0  502    0  0.00000000000E+00  0.00000000000E+00  0.79453904518E+03  0.79453904518E+03  0.00000000000E+00 0. -1.
         -2   -1    0    0    0  501 -0.00000000000E+00 -0.00000000000E+00 -0.37224354313E+01  0.37224354313E+01  0.00000000000E+00 0.  1.
          1    1    1    2  502    0 -0.18685419145E+02 -0.48192104475E+02  0.51952331471E+03  0.52208820936E+03  0.00000000000E+00 0. -1.
         -1    1    1    2    0  501  0.18685419145E+02  0.48192104475E+02  0.27129329504E+03  0.27617327126E+03  0.00000000000E+00 0.  1.
</event>
<event>
 4    1  0.6824761E+001  0.2869470E+02  0.7546771E-02  0.1431289E+00
          2   -1    0    0  502    0  0.00000000000E+00  0.00000000000E+00  0.62611024848E+02  0.62611024848E+02  0.00000000000E+00 0.  1.
         -2   -1    0    0    0  501 -0.00000000000E+00 -0.00000000000E+00 -0.51390180460E+02  0.51390180460E+02  0.00000000000E+00 0. -1.
          1    1    1    2  502    0 -0.24150791468E+02 -0.15495963569E+02  0.54779804203E+02  0.61840218013E+02  0.00000000000E+00 0.  1.
         -1    1    1    2    0  501  0.24150791468E+02  0.15495963569E+02 -0.43558959815E+02  0.52160987295E+02  0.00000000000E+00 0. -1.
</event>
<event>
 4    1  0.6824761E+001  0.2469346E+02  0.7546771E-02  0.1472262E+00
          2   -1    0    0  502    0  0.00000000000E+00  0.00000000000E+00  0.26897336018E+04  0.26897336018E+04  0.00000000000E+00 0.  1.
         -2   -1    0    0    0  501 -0.00000000000E+00 -0.00000000000E+00 -0.23486009453E+00  0.23486009453E+00  0.00000000000E+00 0. -1.
          1    1    1    2  502    0 -0.34860775969E+01  0.24446151241E+02  0.10940713597E+04  0.10943499930E+04  0.00000000000E+00 0. -1.
         -1    1    1    2    0  501  0.34860775969E+01 -0.24446151241E+02  0.15954273820E+04  0.15956184689E+04  0.00000000000E+00 0.  1.
</event>
<event>
 4    1  0.6824761E+001  0.2432894E+02  0.7546771E-02  0.1476452E+00
          2   -1    0    0  502    0  0.00000000000E+00  0.00000000000E+00  0.15992956425E+02  0.15992956425E+02  0.00000000000E+00 0. -1.
         -2   -1    0    0    0  501 -0.00000000000E+00 -0.00000000000E+00 -0.38327032405E+02  0.38327032405E+02  0.00000000000E+00 0.  1.
          1    1    1    2  502    0  0.19692232069E+01 -0.24249116254E+02 -0.61320984579E+01  0.25089840785E+02  0.00000000000E+00 0. -1.
         -1    1    1    2    0  501 -0.19692232069E+01  0.24249116254E+02 -0.16201977521E+02  0.29230148045E+02  0.00000000000E+00 0.  1.
</event>
<event>
 4    1  0.6824761E+001  0.2258465E+02  0.7546771E-02  0.1497781E+00
          2   -1    0    0  502    0  0.00000000000E+00  0.00000000000E+00  0.10137461807E+04  0.10137461807E+04  0.00000000000E+00 0.  1.
         -2   -1    0    0    0  501 -0.00000000000E+00 -0.00000000000E+00 -0.51207221539E+00  0.51207221539E+00  0.00000000000E+00 0. -1.
          1    1    1    2  502    0 -0.14750028942E+02 -0.17102727302E+02  0.43967740392E+03  0.44025706826E+03  0.00000000000E+00 0.  1.
         -1    1    1    2    0  501  0.14750028942E+02  0.17102727302E+02  0.57355670461E+03  0.57400118470E+03  0.00000000000E+00 0. -1.
</event>
<event>
 4    1  0.6824761E+001  0.3940322E+02  0.7546771E-02  0.1352019E+00
          2   -1    0    0  502    0  0.00000000000E+00  0.00000000000E+00  0.25727672089E+04  0.25727672089E+04  0.00000000000E+00 0.  1.
         -2   -1    0    0    0  501 -0.00000000000E+00 -0.00000000000E+00 -0.60778189118E+00  0.60778189118E+00  0.00000000000E+00 0. -1.
          1    1    1    2  502    0 -0.25692033184E+02 -0.29875297162E+02  0.13943280355E+04  0.13948846850E+04  0.00000000000E+00 0.  1.
         -1    1    1    2    0  501  0.25692033184E+02  0.29875297162E+02  0.11778313915E+04  0.11784903057E+04  0.00000000000E+00 0. -1.
</event>
<event>
 4    1  0.6824761E+001  0.2105327E+02  0.7546771E-02  0.1518506E+00
          2   -1    0    0  502    0  0.00000000000E+00  0.00000000000E+00  0.21380345093E+03  0.21380345093E+03  0.00000000000E+00 0.  1.
         -2   -1    0    0    0  501 -0.00000000000E+00 -0.00000000000E+00 -0.22181759291E+01  0.22181759291E+01  0.00000000000E+00 0. -1.
          1    1    1    2  502    0  0.99759096953E+01 -0.18539728405E+02  0.78171832528E+02  0.80957246151E+02  0.00000000000E+00 0. -1.
         -1    1    1    2    0  501 -0.99759096953E+01  0.18539728405E+02  0.13341344248E+03  0.13506438071E+03  0.00000000000E+00 0.  1.
</event>
<event>
 4    1  0.6824761E+001  0.3569438E+02  0.7546771E-02  0.1375746E+00
          2   -1    0    0  502    0  0.00000000000E+00  0.00000000000E+00  0.12935849716E+03  0.12935849716E+03  0.00000000000E+00 0.  1.
         -2   -1    0    0    0  501 -0.00000000000E+00 -0.00000000000E+00 -0.38752552601E+02  0.38752552601E+02  0.00000000000E+00 0. -1.
          1    1    1    2  502    0 -0.34945455091E+02 -0.72734994905E+01 -0.27289165086E+02  0.44930915386E+02  0.00000000000E+00 0. -1.
         -1    1    1    2    0  501  0.34945455091E+02  0.72734994905E+01  0.11789510964E+03  0.12318013437E+03  0.00000000000E+00 0.  1.
</event>
<event>
 4    1  0.6824761E+001  0.2311596E+02  0.7546771E-02  0.1491047E+00
          2   -1    0    0  502    0  0.00000000000E+00  0.00000000000E+00  0.80307733515E+03  0.80307733515E+03  0.00000000000E+00 0. -1.
         -2   -1    0    0    0  501 -0.00000000000E+00 -0.00000000000E+00 -0.74874764849E+00  0.74874764849E+00  0.00000000000E+00 0.  1.
          1    1    1    2  502    0  0.22492730826E+02 -0.53314693804E+01  0.53527900182E+03  0.53577789923E+03  0.00000000000E+00 0. -1.
         -1    1    1    2    0  501 -0.22492730826E+02  0.53314693804E+01  0.26704958568E+03  0.26804818358E+03  0.00000000000E+00 0.  1.
</event>
<event>
 4    1  0.6824761E+001  0.2142767E+02  0.7546771E-02  0.1513246E+00
          2   -1    0    0  502    0  0.00000000000E+00  0.00000000000E+00  0.34298361953E+01  0.34298361953E+01  0.00000000000E+00 0. -1.
         -2   -1    0    0    0  501 -0.00000000000E+00 -0.00000000000E+00 -0.39783725049E+03  0.39783725049E+03  0.00000000000E+00 0.  1.
          1    1    1    2  502    0 -0.19784324140E+01  0.21336140047E+02 -0.36063211479E+03  0.36126813765E+03  0.00000000000E+00 0.  1.
         -1    1    1    2    0  501  0.19784324140E+01 -0.21336140047E+02 -0.33775299508E+02  0.39998949033E+02  0.00000000000E+00 0. -1.
</event>
<event>
 4    1  0.6824761E+001  0.5905139E+02  0.7546771E-02  0.1263090E+00
          2   -1    0    0  502    0  0.00000000000E+00  0.00000000000E+00  0.64051212501E+03  0.64051212501E+03  0.00000000000E+00 0. -1.
         -2   -1    0    0    0  501 -0.00000000000E+00 -0.00000000000E+00 -0.71914578779E+01  0.71914578779E+01  0.00000000000E+00 0.  1.
          1    1    1    2  502    0 -0.58963852004E+02 -0.32142446588E+01  0.47629163840E+03  0.47993832106E+03  0.00000000000E+00 0. -1.
         -1    1    1    2    0  501  0.58963852004E+02  0.32142446588E+01  0.15702902874E+03  0.16776526183E+03  0.00000000000E+00 0.  1.
</event>
<event>
 4    1  0.6824761E+001  0.2852442E+02  0.7546771E-02  0.1432868E+00
          2   -1    0    0  502    0  0.00000000000E+00  0.00000000000E+00  0.20498422301E+04  0.20498422301E+04  0.00000000000E+00 0.  1.
         -2   -1    0    0    0  501 -0.00000000000E+00 -0.00000000000E+00 -0.55904660487E+00  0.55904660487E+00  0.00000000000E+00 0. -1.
          1    1    1    2  502    0  0.10438813517E+02  0.26545690054E+02  0.15767184182E+04  0.15769764148E+04  0.00000000000E+00 0.  1.
         -1    1    1    2    0  501 -0.10438813517E+02 -0.26545690054E+02  0.47256476527E+03  0.47342486190E+03  0.00000000000E+00 0. -1.
</event>
<event>
 4    1  0.6824761E+001  0.2424668E+02  0.7546771E-02  0.1477410E+00
          2   -1    0    0  502    0  0.00000000000E+00  0.00000000000E+00  0.16410780196E+04  0.16410780196E+04  0.00000000000E+00 0.  1.
         -2   -1    0    0    0  501 -0.00000000000E+00 -0.00000000000E+00 -0.36076556577E+00  0.36076556577E+00  0.00000000000E+00 0. -1.
          1    1    1    2  502    0  0.24109845963E+02 -0.25722837744E+01  0.88901510344E+03  0.88934568951E+03  0.00000000000E+00 0. -1.
         -1    1    1    2    0  501 -0.24109845963E+02  0.25722837744E+01  0.75170215063E+03  0.75209309569E+03  0.00000000000E+00 0.  1.
</event>
<event>
 4    1  0.6824761E+001  0.3327918E+02  0.7546771E-02  0.1393082E+00
          2   -1    0    0  502    0  0.00000000000E+00  0.00000000000E+00  0.45058648573E+03  0.45058648573E+03  0.00000000000E+00 0.  1.
         -2   -1    0    0    0  501 -0.00000000000E+00 -0.00000000000E+00 -0.24670665023E+01  0.24670665023E+01  0.00000000000E+00 0. -1.
          1    1    1    2  502    0 -0.30055166997E+02  0.14289523209E+02  0.21026343274E+03  0.21288075226E+03  0.00000000000E+00 0. -1.
         -1    1    1    2    0  501  0.30055166997E+02 -0.14289523209E+02  0.23785598649E+03  0.24017279997E+03  0.00000000000E+00 0.  1.
</event>
<event>
 4    1  0.6824761E+001  0.2143315E+02  0.7546771E-02  0.1513170E+00
          2   -1    0    0  502    0  0.00000000000E+00  0.00000000000E+00  0.12634180476E+04  0.12634180476E+04  0.00000000000E+00 0.  1.
         -2   -1    0    0    0  501 -0.00000000000E+00 -0.00000000000E+00 -0.48990759381E+00  0.48990759381E+00  0.00000000000E+00 0. -1.
          1    1    1    2  502    0 -0.20070307748E+02  0.75208085700E+01  0.95234338304E+03  0.95258453643E+03  0.00000000000E+00 0.  1.
         -1    1    1    2    0  501  0.20070307748E+02 -0.75208085700E+01  0.31058475701E+03  0.31132341882E+03  0.00000000000E+00 0. -1.
</event>
<event>
 4    1  0.6824761E+001  0.2694226E+02  0.7546771E-02  0.1448189E+00
          2   -1    0    0  502    0  0.00000000000E+00  0.00000000000E+00  0.77409055392E+03  0.77409055392E+03  0.00000000000E+00 0.  1.
         -2   -1    0    0    0  501 -0.00000000000E+00 -0.00000000000E+00 -0.93966908684E+00  0.93966908684E+00  0.00000000000E+00 0. -1.
          1    1    1    2  502    0  0.17650147769E+02  0.20355772837E+02  0.40419498125E+03  0.40509192546E+03  0.00000000000E+00 0. -1.
         -1    1    1    2    0  501 -0.17650147769E+02 -0.20355772837E+02  0.36895590358E+03  0.36993829755E+03  0.00000000000E+00 0.  1.
</event>
<event>
 4    1  0.6824761E+001  0.2985097E+02  0.7546771E-02  0.1420896E+00
          2   -1    0    0  502    0  0.00000000000E+00  0.00000000000E+00  0.12815228706E+03  0.12815228706E+03  0.00000000000E+00 0. -1.
         -2   -1    0    0    0  501 -0.00000000000E+00 -0.00000000000E+00 -0.71473340805E+01  0.71473340805E+01  0.00000000000E+00 0.  1.
          1    1    1    2  502    0 -0.15108820761E+02  0.25744983299E+02  0.71648998648E+02  0.77618680981E+02  0.00000000000E+00 0. -1.
         -1    1    1    2    0  501  0.15108820761E+02 -0.25744983299E+02  0.49355954336E+02  0.57680940164E+02  0.00000000000E+00 0.  1.
</event>
<event>
 4    1  0.6824761E+001  0.1532263E+03  0.7546771E-02  0.1094355E+00
          2   -1    0    0  502    0  0.00000000000E+00  0.00000000000E+00  0.18900966421E+03  0.18900966421E+03  0.00000000000E+00 0. -1.
         -2   -1    0    0    0  501 -0.00000000000E+00 -0.00000000000E+00 -0.13946196670E+03  0.13946196670E+03  0.00000000000E+00 0.  1.
          1    1    1    2  502    0  0.72146593568E+01  0.15305635702E+03 -0.29525762045E+02  0.15604509079E+03  0.00000000000E+00 0.  1.
         -1    1    1    2    0  501 -0.72146593568E+01 -0.15305635702E+03  0.79073459553E+02  0.17242654013E+03  0.00000000000E+00 0. -1.
</event>
<event>
 4    1  0.6824761E+001  0.4691281E+02  0.7546771E-02  0.1312142E+00
          2   -1    0    0  502    0  0.00000000000E+00  0.00000000000E+00  0.24225988218E+01  0.24225988218E+01  0.00000000000E+00 0.  1.
         -2   -1    0    0    0  501 -0.00000000000E+00 -0.00000000000E+00 -0.91360449073E+03  0.91360449073E+03  0.00000000000E+00 0. -1.
          1    1    1    2  502    0  0.19491255865E+02 -0.42672037682E+02 -0.42119097444E+03  0.42379552712E+03  0.00000000000E+00 0.  1.
         -1    1    1    2    0  501 -0.19491255865E+02  0.42672037682E+02 -0.48999091747E+03  0.49223156243E+03  0.00000000000E+00 0. -1.
</event>
<event>
 4    1  0.6824761E+001  0.2908463E+02  0.7546771E-02  0.1427721E+00
          2   -1    0    0  502    0  0.00000000000E+00  0.00000000000E+00  0.46301662284E+01  0.46301662284E+01  0.00000000000E+00 0.  1.
         -2   -1    0    0    0  501 -0.00000000000E+00 -0.00000000000E+00 -0.19060653008E+03  0.19060653008E+03  0.00000000000E+00 0. -1.
          1    1    1    2  502    0 -0.24851981758E+02  0.15109424823E+02 -0.73102139348E+02  0.78675526646E+02  0.00000000000E+00 0.  1.
         -1    1    1    2    0  501  0.24851981758E+02 -0.15109424823E+02 -0.11287422450E+03  0.11656116966E+03  0.00000000000E+00 0. -1.
</event>
<event>
 4    1  0.6824761E+001  0.1494555E+03  0.7546771E-02  0.1098176E+00
          2   -1    0    0  502    0  0.00000000000E+00  0.00000000000E+00  0.19431015795E+04  0.19431015795E+04  0.00000000000E+00 0. -1.
         -2   -1    0    0    0  501 -0.00000000000E+00 -0.00000000000E+00 -0.12851292989E+02  0.12851292989E+02  0.00000000000E+00 0.  1.
          1    1    1    2  502    0  0.12080924173E+01  0.14945066074E+03  0.12827750722E+04  0.12914522234E+04  0.00000000000E+00 0. -1.
         -1    1    1    2    0  501 -0.12080924173E+01 -0.14945066074E+03  0.64747521430E+03  0.66450064907E+03  0.00000000000E+00 0.  1.
</event>
<event>
 4    1  0.6824761E+001  0.2514415E+02  0.7546771E-02  0.1467197E+00
          2   -1    0    0  502    0  0.00000000000E+00  0.00000000000E+00  0.45287857757E+02  0.45287857757E+02  0.00000000000E+00 0.  1.
         -2   -1    0    0    0  501 -0.00000000000E+00 -0.00000000000E+00 -0.14079909308E+02  0.14079909308E+02  0.00000000000E+00 0. -1.
          1    1    1    2  502    0  0.25122673846E+02  0.10389059906E+01  0.12867041499E+02  0.28245155757E+02  0.00000000000E+00 0. -1.
         -1    1    1    2    0  501 -0.25122673846E+02 -0.10389059906E+01  0.18340906950E+02  0.31122611307E+02  0.00000000000E+00 0.  1.
</event>
<event>
 4    1  0.6824761E+001  0.2808118E+02  0.7546771E-02  0.1437040E+00
          2   -1    0    0  502    0  0.00000000000E+00  0.00000000000E+00  0.97917592842E+02  0.97917592842E+02  0.00000000000E+00 0. -1.
         -2   -1    0    0    0  501 -0.00000000000E+00 -0.00000000000E+00 -0.16394480838E+02  0.16394480838E+02  0.00000000000E+00 0.  1.
          1    1    1    2  502    0  0.16074280649E+02  0.23025423325E+02 -0.73387672561E-02  0.28081180024E+02  0.00000000000E+00 0.  1.
         -1    1    1    2    0  501 -0.16074280649E+02 -0.23025423325E+02  0.81530450771E+02  0.86230893656E+02  0.00000000000E+00 0. -1.
</event>
<event>
 4    1  0.6824761E+001  0.2146700E+02  0.7546771E-02  0.1512701E+00
          2   -1    0    0  502    0  0.00000000000E+00  0.00000000000E+00  0.32693913841E+01  0.32693913841E+01  0.00000000000E+00 0. -1.
         -2   -1    0    0    0  501 -0.00000000000E+00 -0.00000000000E+00 -0.18327493057E+03  0.18327493057E+03  0.00000000000E+00 0.  1.
          1    1    1    2  502    0 -0.26854489979E+01  0.21298369565E+02 -0.45181862757E+02  0.50022324063E+02  0.00000000000E+00 0.  1.
         -1    1    1    2    0  501  0.26854489979E+01 -0.21298369565E+02 -0.13482367643E+03  0.13652199789E+03  0.00000000000E+00 0. -1.
</event>
<event>
 4    1  0.6824761E+001  0.2120310E+02  0.7546771E-02  0.1516385E+00
          2   -1    0    0  502    0  0.00000000000E+00  0.00000000000E+00  0.30706490480E+02  0.30706490480E+02  0.00000000000E+00 0. -1.
         -2   -1    0    0    0  501 -0.00000000000E+00 -0.00000000000E+00 -0.23307042204E+02  0.23307042204E+02  0.00000000000E+00 0.  1.
          1    1    1    2  502    0  0.73859668516E+01  0.19875086188E+02  0.20167736192E+02  0.29262760300E+02  0.00000000000E+00 0. -1.
         -1    1    1    2    0  501 -0.73859668516E+01 -0.19875086188E+02 -0.12768287915E+02  0.24750772384E+02  0.00000000000E+00 0.  1.
</event>
<event>
 4    1  0.6824761E+001  0.4593189E+02  0.7546771E-02  0.1316844E+00
          2   -1    0    0  502    0  0.00000000000E+00  0.00000000000E+00  0.48742489117E+02  0.48742489117E+02  0.00000000000E+00 0.  1.
         -2   -1    0    0    0  501 -0.00000000000E+00 -0.00000000000E+00 -0.49165977312E+02  0.49165977312E+02  0.00000000000E+00 0. -1.
          1    1    1    2  502    0  0.40781380015E+02 -0.21133328132E+02  0.16721624283E+02  0.48880990502E+02  0.00000000000E+00 0. -1.
         -1    1    1    2    0  501 -0.40781380015E+02  0.21133328132E+02 -0.17145112478E+02  0.49027475926E+02  0.00000000000E+00 0.  1.
</event>
<event>
 4    1  0.6824761E+001  0.2922758E+02  0.7546771E-02  0.1426430E+00
          2   -1    0    0  502    0  0.00000000000E+00  0.00000000000E+00  0.22885248750E+04  0.22885248750E+04  0.00000000000E+00 0. -1.
         -2   -1    0    0    0  501 -0.00000000000E+00 -0.00000000000E+00 -0.45712636270E+00  0.45712636270E+00  0.00000000000E+00 0.  1.
          1    1    1    2  502    0  0.15832070891E+02 -0.24568207404E+02  0.65386371893E+03  0.65451662639E+03  0.00000000000E+00 0.  1.
         -1    1    1    2    0  501 -0.15832070891E+02  0.24568207404E+02  0.16342040297E+04  0.16344653750E+04  0.00000000000E+00 0. -1.
</event>
<event>
 4    1  0.6824761E+001  0.6204922E+02  0.7546771E-02  0.1253025E+00
          2   -1    0    0  502    0  0.00000000000E+00  0.00000000000E+00  0.69517412419E+03  0.69517412419E+03  0.00000000000E+00 0.  1.
         -2   -1    0    0    0  501 -0.00000000000E+00 -0.00000000000E+00 -0.56064492518E+01  0.56064492518E+01  0.00000000000E+00 0. -1.
          1    1    1    2  502    0 -0.61912179872E+02 -0.41215389153E+01  0.30616166837E+03  0.31238609489E+03  0.00000000000E+00 0. -1.
         -1    1    1    2    0  501  0.61912179872E+02  0.41215389153E+01  0.38340600657E+03  0.38839447855E+03  0.00000000000E+00 0.  1.
</event>
<event>
 4    1  0.6824761E+001  0.2022243E+02  0.7546771E-02  0.1530662E+00
          2   -1    0    0  502    0  0.00000000000E+00  0.00000000000E+00  0.50990728521E+03  0.50990728521E+03  0.00000000000E+00 0.  1.
         -2   -1    0    0    0  501 -0.00000000000E+00 -0.00000000000E+00 -0.10557046493E+01  0.10557046493E+01  0.00000000000E+00 0. -1.
          1    1    1    2  502    0  0.19391986618E+02  0.57356260713E+01  0.37966805706E+03  0.38020623365E+03  0.00000000000E+00 0.  1.
         -1    1    1    2    0  501 -0.19391986618E+02 -0.57356260713E+01  0.12918352350E+03  0.13075675622E+03  0.00000000000E+00 0. -1.
</event>
<event>
 4    1  0.6824761E+001  0.2259349E+02  0.7546771E-02  0.1497667E+00
          2   -1    0    0  502    0  0.00000000000E+00  0.00000000000E+00  0.30798349645E+02  0.30798349645E+02  0.00000000000E+00 0. -1.
         -2   -1    0    0    0  501 -0.00000000000E+00 -0.00000000000E+00 -0.45860606513E+02  0.45860606513E+02  0.00000000000E+00 0.  1.
          1    1    1    2  502    0  0.11605748599E+02  0.19384845913E+02  0.23098675109E+02  0.32311212349E+02  0.00000000000E+00 0. -1.
         -1    1    1    2    0  501 -0.11605748599E+02 -0.19384845913E+02 -0.38160931977E+02  0.44347743810E+02  0.00000000000E+00 0.  1.
</event>
<event>
 4    1  0.6824761E+001  0.4450730E+02  0.7546771E-02  0.1323922E+00
          2   -1    0    0  502    0  0.00000000000E+00  0.00000000000E+00  0.13261873794E+02  0.13261873794E+02  0.00000000000E+00 0.  1.
         -2   -1    0    0    0  501 -0.00000000000E+00 -0.00000000000E+00 -0.22149856842E+03  0.22149856842E+03  0.00000000000E+00 0. -1.
          1    1    1    2  502    0  0.14811200333E+02 -0.41970563202E+02 -0.37134655761E+02  0.57964493349E+02  0.00000000000E+00 0.  1.
         -1    1    1    2    0  501 -0.14811200333E+02  0.41970563202E+02 -0.17110203886E+03  0.17679594886E+03  0.00000000000E+00 0. -1.
</event>
<event>
 4    1  0.6824761E+001  0.2010063E+02  0.7546771E-02  0.1532503E+00
          2   -1    0    0  502    0  0.00000000000E+00  0.00000000000E+00  0.21209832687E+03  0.21209832687E+03  0.00000000000E+00 0.  1.
         -2   -1    0    0    0  501 -0.00000000000E+00 -0.00000000000E+00 -0.20378528224E+01  0.20378528224E+01  0.00000000000E+00 0. -1.
          1    1    1    2  502    0 -0.66160027047E+01  0.18980621006E+02  0.13237349867E+03  0.13389092058E+03  0.00000000000E+00 0.  1.
         -1    1    1    2    0  501  0.66160027047E+01 -0.18980621006E+02  0.77686975386E+02  0.80245259113E+02  0.00000000000E+00 0. -1.
</event>
<event>
 4    1  0.6824761E+001  0.2370926E+02  0.7546771E-02  0.1483779E+00
          2   -1    0    0  502    0  0.00000000000E+00  0.00000000000E+00  0.72740261726E+02  0.72740261726E+02  0.00000000000E+00 0.  1.
         -2   -1    0    0    0  501 -0.00000000000E+00 -0.00000000000E+00 -0.10638146626E+02  0.10638146626E+02  0.00000000000E+00 0. -1.
          1    1    1    2  502    0 -0.15471683777E+02 -0.17965407242E+02  0.52856060217E+02  0.57930060917E+02  0.00000000000E+00 0.  1.
         -1    1    1    2    0  501  0.15471683777E+02  0.17965407242E+02  0.92460548836E+01  0.25448347435E+02  0.00000000000E+00 0. -1.
</event>
<event>
 4    1  0.6824761E+001  0.2136000E+02  0.7546771E-02  0.1514187E+00
          2   -1    0    0  502    0  0.00000000000E+00  0.00000000000E+00  0.10217456059E+04  0.10217456059E+04  0.00000000000E+00 0. -1.
         -2   -1    0    0    0  501 -0.00000000000E+00 -0.00000000000E+00 -0.49476362080E+00  0.49476362080E+00  0.00000000000E+00 0.  1.
          1    1    1    2  502    0 -0.89821242805E+01 -0.19379657890E+02  0.67019740492E+03  0.67053770309E+03  0.00000000000E+00 0. -1.
         -1    1    1    2    0  501  0.89821242805E+01  0.19379657890E+02  0.35105343731E+03  0.35170266639E+03  0.00000000000E+00 0.  1.
</event>
<event>
 4    1  0.6824761E+001  0.2791560E+02  0.7546771E-02  0.1438621E+00
          2   -1    0    0  502    0  0.00000000000E+00  0.00000000000E+00  0.22876918589E+03  0.22876918589E+03  0.00000000000E+00 0. -1.
         -2   -1    0    0    0  501 -0.00000000000E+00 -0.00000000000E+00 -0.34810059286E+01  0.34810059286E+01  0.00000000000E+00 0.  1.
          1    1    1    2  502    0 -0.86996171926E+01 -0.26525414253E+02  0.95644431449E+02  0.99635025006E+02  0.00000000000E+00 0.  1.
         -1    1    1    2    0  501  0.86996171926E+01  0.26525414253E+02  0.12964374852E+03  0.13261516682E+03  0.00000000000E+00 0. -1.
</event>
<event>
 4    1  0.6824761E+001  0.2088221E+02  0.7546771E-02  0.1520953E+00
          2   -1    0    0  502    0  0.00000000000E+00  0.00000000000E+00  0.11802673422E+03  0.11802673422E+03  0.00000000000E+00 0.  1.
         -2   -1    0    0    0  501 -0.00000000000E+00 -0.00000000000E+00 -0.37080312109E+01  0.37080312109E+01  0.00000000000E+00 0. -1.
          1    1    1    2  502    0 -0.17844079429E+02  0.10846909190E+02  0.60816809944E+02  0.64302029372E+02  0.00000000000E+00 0.  1.
         -1    1    1    2    0  501  0.17844079429E+02 -0.10846909190E+02  0.53501893065E+02  0.57432736058E+02  0.00000000000E+00 0. -1.
</event>
<event>
 4    1  0.6824761E+001  0.3807819E+02  0.7546771E-02  0.1360131E+00
          2   -1    0    0  502    0  0.00000000000E+00  0.00000000000E+00  0.20979559734E+03  0.20979559734E+03  0.00000000000E+00 0. -1.
         -2   -1    0    0    0  501 -0.00000000000E+00 -0.00000000000E+00 -0.24920041129E+02  0.24920041129E+02  0.00000000000E+00 0.  1.
          1    1    1    2  502    0 -0.11366711451E+02 -0.36342071408E+02 -0.73276389355E+01  0.38776830399E+02  0.00000000000E+00 0.  1.
         -1    1    1    2    0  501  0.11366711451E+02  0.36342071408E+02  0.19220319514E+03  0.19593880807E+03  0.00000000000E+00 0. -1.
</event>
<event>
 4    1  0.6824761E+001  0.2586011E+02  0.7546771E-02  0.1459407E+00
          2   -1    0    0  502    0  0.00000000000E+00  0.00000000000E+00  0.53834830534E+02  0.53834830534E+02  0.00000000000E+00 0. -1.
         -2   -1    0    0    0  501 -0.00000000000E+00 -0.00000000000E+00 -0.19683820664E+02  0.19683820664E+02  0.00000000000E+00 0.  1.
          1    1    1    2  502    0  0.24646566669E+02  0.78289295628E+01 -0.52515030776E+01  0.26387945567E+02  0.00000000000E+00 0.  1.
         -1    1    1    2    0  501 -0.24646566669E+02 -0.78289295628E+01  0.39402512948E+02  0.47130705631E+02  0.00000000000E+00 0. -1.
</event>
<event>
 4    1  0.6824761E+001  0.3061337E+02  0.7546771E-02  0.1414340E+00
          2   -1    0    0  502    0  0.00000000000E+00  0.00000000000E+00  0.29455860187E+02  0.29455860187E+02  0.00000000000E+00 0.  1.
         -2   -1    0    0    0  501 -0.00000000000E+00 -0.00000000000E+00 -0.34289353353E+02  0.34289353353E+02  0.00000000000E+00 0. -1.
          1    1    1    2  502    0 -0.30404022745E+02  0.35740897158E+01 -0.10976239300E+02  0.32521631963E+02  0.00000000000E+00 0.  1.
         -1    1    1    2    0  501  0.30404022745E+02 -0.35740897158E+01  0.61427461338E+01  0.31223581576E+02  0.00000000000E+00 0. -1.
</event>
<event>
 4    1  0.6824761E+001  0.2182971E+02  0.7546771E-02  0.1507741E+00
          2   -1    0    0  502    0  0.00000000000E+00  0.00000000000E+00  0.85803127239E+02  0.85803127239E+02  0.00000000000E+00 0.  1.
         -2   -1    0    0    0  501 -0.00000000000E+00 -0.00000000000E+00 -0.71941371882E+01  0.71941371882E+01  0.00000000000E+00 0. -1.
          1    1    1    2  502    0  0.21829371533E+02  0.12101753944E+00  0.61507574944E+02  0.65266514250E+02  0.00000000000E+00 0.  1.
         -1    1    1    2    0  501 -0.21829371533E+02 -0.12101753944E+00  0.17101415106E+02  0.27730750177E+02  0.00000000000E+00 0. -1.
</event>
<event>
 4    1  0.6824761E+001  0.2002351E+02  0.7546771E-02  0.1533677E+00
          2   -1    0    0  502    0  0.00000000000E+00  0.00000000000E+00  0.15529643504E+04  0.15529643504E+04  0.00000000000E+00 0. -1.
         -2   -1    0    0    0  501 -0.00000000000E+00 -0.00000000000E+00 -0.42301447105E+00  0.42301447105E+00  0.00000000000E+00 0.  1.
          1    1    1    2  502    0  0.31742756163E+01 -0.19770300493E+02  0.12611114836E+04  0.12612704368E+04  0.00000000000E+00 0. -1.
         -1    1    1    2    0  501 -0.31742756163E+01  0.19770300493E+02  0.29142985237E+03  0.29211692806E+03  0.00000000000E+00 0.  1.
</event>
<event>
 4    1  0.6824761E+001  0.2111586E+02  0.7546771E-02  0.1517617E+00
          2   -1    0    0  502    0  0.00000000000E+00  0.00000000000E+00  0.27178436192E+03  0.27178436192E+03  0.00000000000E+00 0. -1.
         -2   -1    0    0    0  501 -0.00000000000E+00 -0.00000000000E+00 -0.53368632413E+01  0.53368632413E+01  0.00000000000E+00 0.  1.
          1    1    1    2  502    0  0.14452654403E+02 -0.15394818811E+02  0.24853729174E+03  0.24943268641E+03  0.00000000000E+00 0. -1.
         -1    1    1    2    0  501 -0.14452654403E+02  0.15394818811E+02  0.17910206943E+02  0.27688538753E+02  0.00000000000E+00 0.  1.
</event>
<event>
 4    1  0.6824761E+001  0.2860591E+02  0.7546771E-02  0.1432111E+00
          2   -1    0    0  502    0  0.00000000000E+00  0.00000000000E+00  0.13310589572E+03  0.13310589572E+03  0.00000000000E+00 0.  1.
         -2   -1    0    0    0  501 -0.00000000000E+00 -0.00000000000E+00 -0.97862429647E+01  0.97862429647E+01  0.00000000000E+00 0. -1.
          1    1    1    2  502    0 -0.26594326665E+02 -0.10537540185E+02  0.18095317711E+02  0.33848759017E+02  0.00000000000E+00 0.  1.
         -1    1    1    2    0  501  0.26594326665E+02  0.10537540185E+02  0.10522433505E+03  0.10904337967E+03  0.00000000000E+00 0. -1.
</event>
<event>
 4    1  0.6824761E+001  0.2109157E+02  0.7546771E-02  0.1517961E+00
          2   -1    0    0  502    0  0.00000000000E+00  0.00000000000E+00  0.24538748699E+03  0.24538748699E+03  0.00000000000E+00 0. -1.
         -2   -1    0    0    0  501 -0.00000000000E+00 -0.00000000000E+00 -0.50492175675E+01  0.50492175675E+01  0.00000000000E+00 0.  1.
          1    1    1    2  502    0 -0.16125190877E+02 -0.13595310637E+02  0.22041902198E+03  0.22142583296E+03  0.00000000000E+00 0. -1.
         -1    1    1    2    0  501  0.16125190877E+02  0.13595310637E+02  0.19919247446E+02  0.29010871599E+02  0.00000000000E+00 0.  1.
</event>
<event>
 4    1  0.6824761E+001  0.2198363E+02  0.7546771E-02  0.1505671E+00
          2   -1    0    0  502    0  0.00000000000E+00  0.00000000000E+00  0.43282475455E+01  0.43282475455E+01  0.00000000000E+00 0.  1.
         -2   -1    0    0    0  501 -0.00000000000E+00 -0.00000000000E+00 -0.11590845830E+03  0.11590845830E+03  0.00000000000E+00 0. -1.
          1    1    1    2  502    0  0.58014517216E+01  0.21204315975E+02 -0.44276536788E+02  0.49433708823E+02  0.00000000000E+00 0. -1.
         -1    1    1    2    0  501 -0.58014517216E+01 -0.21204315975E+02 -0.67303673967E+02  0.70802997023E+02  0.00000000000E+00 0.  1.
</event>
<event>
 4    1  0.6824761E+001  0.2007453E+02  0.7546771E-02  0.1532899E+00
          2   -1    0    0  502    0  0.00000000000E+00  0.00000000000E+00  0.59917067284E+03  0.59917067284E+03  0.00000000000E+00 0.  1.
         -2   -1    0    0    0  501 -0.00000000000E+00 -0.00000000000E+00 -0.70535291086E+00  0.70535291086E+00  0.00000000000E+00 0. -1.
          1    1    1    2  502    0  0.19429375183E+02 -0.50483600439E+01  0.23457407916E+03  0.23543148722E+03  0.00000000000E+00 0. -1.
         -1    1    1    2    0  501 -0.19429375183E+02  0.50483600439E+01  0.36389124077E+03  0.36444453854E+03  0.00000000000E+00 0.  1.
</event>
<event>
 4    1  0.6824761E+001  0.2436241E+02  0.7546771E-02  0.1476064E+00
          2   -1    0    0  502    0  0.00000000000E+00  0.00000000000E+00  0.46703571505E+03  0.46703571505E+03  0.00000000000E+00 0. -1.
         -2   -1    0    0    0  501 -0.00000000000E+00 -0.00000000000E+00 -0.12721506859E+01  0.12721506859E+01  0.00000000000E+00 0.  1.
          1    1    1    2  502    0  0.12681036896E+02  0.20801884492E+02  0.24040120725E+03  0.24163250514E+03  0.00000000000E+00 0. -1.
         -1    1    1    2    0  501 -0.12681036896E+02 -0.20801884492E+02  0.22536235712E+03  0.22667536060E+03  0.00000000000E+00 0.  1.
</event>
<event>
 4    1  0.6824761E+001  0.3113692E+02  0.7546771E-02  0.1409967E+00
          2   -1    0    0  502    0  0.00000000000E+00  0.00000000000E+00  0.59682864108E+03  0.59682864108E+03  0.00000000000E+00 0. -1.
         -2   -1    0    0    0  501 -0.00000000000E+00 -0.00000000000E+00 -0.36100496741E+01  0.36100496741E+01  0.00000000000E+00 0.  1.
          1    1    1    2  502    0  0.20019580357E+02  0.23847934864E+02  0.51926298219E+03  0.52019568651E+03  0.00000000000E+00 0. -1.
         -1    1    1    2    0  501 -0.20019580357E+02 -0.23847934864E+02  0.73955609215E+02  0.80243004239E+02  0.00000000000E+00 0.  1.
</event>
<event>
 4    1  0.6824761E+001  0.2212237E+02  0.7546771E-02  0.1503823E+00
          2   -1    0    0  502    0  0.00000000000E+00  0.00000000000E+00  0.21296094209E+01  0.21296094209E+01  0.00000000000E+00 0.  1.
         -2   -1    0    0    0  501 -0.00000000000E+00 -0.00000000000E+00 -0.30670879971E+03  0.30670879971E+03  0.00000000000E+00 0. -1.
          1    1    1    2  502    0  0.14550171208E+01  0.22074472662E+02 -0.74967058695E+02  0.78163030312E+02  0.00000000000E+00 0.  1.
         -1    1    1    2    0  501 -0.14550171208E+01 -0.22074472662E+02 -0.22961213159E+03  0.23067537882E+03  0.00000000000E+00 0. -1.
</event>
<event>
 4    1  0.6824761E+001  0.2384257E+02  0.7546771E-02  0.1482181E+00
          2   -1    0    0  502    0  0.00000000000E+00  0.00000000000E+00  0.68774622956E+03  0.68774622956E+03  0.00000000000E+00 0. -1.
         -2   -1    0    0    0  501 -0.00000000000E+00 -0.00000000000E+00 -0.10991071672E+01  0.10991071672E+01  0.00000000000E+00 0.  1.
          1    1    1    2  502    0  0.23839616495E+02  0.37527186785E+00  0.51483267028E+03  0.51538446478E+03  0.00000000000E+00 0. -1.
         -1    1    1    2    0  501 -0.23839616495E+02 -0.37527186785E+00  0.17181445211E+03  0.17346087195E+03  0.00000000000E+00 0.  1.
</event>
<event>
 4    1  0.6824761E+001  0.2816383E+02  0.7546771E-02  0.1436255E+00
          2   -1    0    0  502    0  0.00000000000E+00  0.00000000000E+00  0.40946239042E+02  0.40946239042E+02  0.00000000000E+00 0.  1.
         -2   -1    0    0    0  501 -0.00000000000E+00 -0.00000000000E+00 -0.23478010831E+02  0.23478010831E+02  0.00000000000E+00 0. -1.
          1    1    1    2  502    0  0.27376232164E+02  0.66138632503E+01  0.22205452360E+02  0.35864793170E+02  0.00000000000E+00 0.  1.
         -1    1    1    2    0  501 -0.27376232164E+02 -0.66138632503E+01 -0.47372241487E+01  0.28559456704E+02  0.00000000000E+00 0. -1.
</event>
<event>
 4    1  0.6824761E+001  0.2430724E+02  0.7546771E-02  0.1476705E+00
          2   -1    0    0  502    0  0.00000000000E+00  0.00000000000E+00  0.24448386770E+03  0.24448386770E+03  0.00000000000E+00 0. -1.
         -2   -1    0    0    0  501 -0.00000000000E+00 -0.00000000000E+00 -0.66756849622E+01  0.66756849622E+01  0.00000000000E+00 0.  1.
          1    1    1    2  502    0 -0.90242272282E+01 -0.22570007739E+02  0.21920972098E+03  0.22055326726E+03  0.00000000000E+00 0. -1.
         -1    1    1    2    0  501  0.90242272282E+01  0.22570007739E+02  0.18598461757E+02  0.30606285402E+02  0.00000000000E+00 0.  1.
</event>
<event>
 4    1  0.6824761E+001  0.2057680E+02  0.7546771E-02  0.1525394E+00
          2   -1    0    0  502    0  0.00000000000E+00  0.00000000000E+00  0.28981890143E+02  0.28981890143E+02  0.00000000000E+00 0. -1.
         -2   -1    0    0    0  501 -0.00000000000E+00 -0.00000000000E+00 -0.21165983993E+02  0.21165983993E+02  0.00000000000E+00 0.  1.
          1    1    1    2  502    0  0.12566455537E+02 -0.16293834832E+02  0.17863463775E+02  0.27249003584E+02  0.00000000000E+00 0. -1.
         -1    1    1    2    0  501 -0.12566455537E+02  0.16293834832E+02 -0.10047557625E+02  0.22898870551E+02  0.00000000000E+00 0.  1.
</event>
<event>
 4    1  0.6824761E+001  0.2034956E+02  0.7546771E-02  0.1528757E+00
          2   -1    0    0  502    0  0.00000000000E+00  0.00000000000E+00  0.70490113590E+03  0.70490113590E+03  0.00000000000E+00 0. -1.
         -2   -1    0    0    0  501 -0.00000000000E+00 -0.00000000000E+00 -0.32304470358E+01  0.32304470358E+01  0.00000000000E+00 0.  1.
          1    1    1    2  502    0  0.15997052727E+02 -0.12577717803E+02  0.30577504937E+02  0.36729939957E+02  0.00000000000E+00 0.  1.
         -1    1    1    2    0  501 -0.15997052727E+02  0.12577717803E+02  0.67109318393E+03  0.67140164298E+03  0.00000000000E+00 0. -1.
</event>
<event>
 4    1  0.6824761E+001  0.2449514E+02  0.7546771E-02  0.1474531E+00
          2   -1    0    0  502    0  0.00000000000E+00  0.00000000000E+00  0.10029982421E+02  0.10029982421E+02  0.00000000000E+00 0. -1.
         -2   -1    0    0    0  501 -0.00000000000E+00 -0.00000000000E+00 -0.95253722459E+02  0.95253722459E+02  0.00000000000E+00 0.  1.
          1    1    1    2  502    0 -0.21413348229E+02  0.11894554297E+02 -0.10505784430E+02  0.26653018793E+02  0.00000000000E+00 0. -1.
         -1    1    1    2    0  501  0.21413348229E+02 -0.11894554297E+02 -0.74717955608E+02  0.78630686087E+02  0.00000000000E+00 0.  1.
</event>
<event>
 4    1  0.6824761E+001  0.2213563E+02  0.7546771E-02  0.1503647E+00
          2   -1    0    0  502    0  0.00000000000E+00  0.00000000000E+00  0.18789552377E+04  0.18789552377E+04  0.00000000000E+00 0. -1.
         -2   -1    0    0    0  501 -0.00000000000E+00 -0.00000000000E+00 -0.44408531065E+00  0.44408531065E+00  0.00000000000E+00 0.  1.
          1    1    1    2  502    0  0.20088777292E+02 -0.92966276820E+01  0.33551795836E+03  0.33624735930E+03  0.00000000000E+00 0.  1.
         -1    1    1    2    0  501 -0.20088777292E+02  0.92966276820E+01  0.15429931940E+04  0.15431519637E+04  0.00000000000E+00 0. -1.
</event>
<event>
 4    1  0.6824761E+001  0.2259645E+02  0.7546771E-02  0.1497629E+00
          2   -1    0    0  502    0  0.00000000000E+00  0.00000000000E+00  0.84286261212E+02  0.84286261212E+02  0.00000000000E+00 0.  1.
         -2   -1    0    0    0  501 -0.00000000000E+00 -0.00000000000E+00 -0.75718957924E+01  0.75718957924E+01  0.00000000000E+00 0. -1.
          1    1    1    2  502    0 -0.10181367836E+02 -0.20172741150E+02  0.58894530494E+02  0.63080626650E+02  0.00000000000E+00 0.  1.
         -1    1    1    2    0  501  0.10181367836E+02  0.20172741150E+02  0.17819834925E+02  0.28777530354E+02  0.00000000000E+00 0. -1.
</event>
<event>
 4    1  0.6824761E+001  0.2674268E+02  0.7546771E-02  0.1450210E+00
          2   -1    0    0  502    0  0.00000000000E+00  0.00000000000E+00  0.84158017657E+02  0.84158017657E+02  0.00000000000E+00 0.  1.
         -2   -1    0    0    0  501 -0.00000000000E+00 -0.00000000000E+00 -0.10285237627E+02  0.10285237627E+02  0.00000000000E+00 0. -1.
          1    1    1    2  502    0  0.45777430448E+01 -0.26347964730E+02  0.17251612729E+02  0.31824347889E+02  0.00000000000E+00 0. -1.
         -1    1    1    2    0  501 -0.45777430448E+01  0.26347964730E+02  0.56621167301E+02  0.62618907395E+02  0.00000000000E+00 0.  1.
</event>
<event>
 4    1  0.6824761E+001  0.2229972E+02  0.7546771E-02  0.1501484E+00
          2   -1    0    0  502    0  0.00000000000E+00  0.00000000000E+00  0.74116122038E+03  0.74116122038E+03  0.00000000000E+00 0. -1.
         -2   -1    0    0    0  501 -0.00000000000E+00 -0.00000000000E+00 -0.72381784093E+00  0.72381784093E+00  0.00000000000E+00 0.  1.
          1    1    1    2  502    0 -0.20300814272E+02 -0.92279120247E+01  0.47047549450E+03  0.47100368188E+03  0.00000000000E+00 0. -1.
         -1    1    1    2    0  501  0.20300814272E+02  0.92279120247E+01  0.26996190803E+03  0.27088135633E+03  0.00000000000E+00 0.  1.
</event>
<event>
 4    1  0.6824761E+001  0.2434323E+02  0.7546771E-02  0.1476286E+00
          2   -1    0    0  502    0  0.00000000000E+00  0.00000000000E+00  0.35702994920E+02  0.35702994920E+02  0.00000000000E+00 0.  1.
         -2   -1    0    0    0  501 -0.00000000000E+00 -0.00000000000E+00 -0.25561763681E+02  0.25561763681E+02  0.00000000000E+00 0. -1.
          1    1    1    2  502    0  0.18445546654E+02 -0.15885677996E+02 -0.13069253715E+02  0.27629664301E+02  0.00000000000E+00 0. -1.
         -1    1    1    2    0  501 -0.18445546654E+02  0.15885677996E+02  0.23210484954E+02  0.33635094300E+02  0.00000000000E+00 0.  1.
</event>
<event>
 4    1  0.6824761E+001  0.2357691E+02  0.7546771E-02  0.1485378E+00
          2   -1    0    0  502    0  0.00000000000E+00  0.00000000000E+00  0.75598095893E+02  0.75598095893E+02  0.00000000000E+00 0.  1.
         -2   -1    0    0    0  501 -0.00000000000E+00 -0.00000000000E+00 -0.43297917179E+02  0.43297917179E+02  0.00000000000E+00 0. -1.
          1    1    1    2  502    0  0.19466500901E+02  0.13301351780E+02 -0.38015405025E+02  0.44733003875E+02  0.00000000000E+00 0. -1.
         -1    1    1    2    0  501 -0.19466500901E+02 -0.13301351780E+02  0.70315583738E+02  0.74163009196E+02  0.00000000000E+00 0.  1.
</event>
<event>
 4    1  0.6824761E+001  0.2024533E+02  0.7546771E-02  0.1530318E+00
          2   -1    0    0  502    0  0.00000000000E+00  0.00000000000E+00  0.21495120319E+03  0.21495120319E+03  0.00000000000E+00 0. -1.
         -2   -1    0    0    0  501 -0.00000000000E+00 -0.00000000000E+00 -0.38673044217E+01  0.38673044217E+01  0.00000000000E+00 0.  1.
          1    1    1    2  502    0 -0.16764409966E+02  0.11350236945E+02  0.18344088785E+03  0.18455468744E+03  0.00000000000E+00 0. -1.
         -1    1    1    2    0  501  0.16764409966E+02 -0.11350236945E+02  0.27643010916E+02  0.34263820171E+02  0.00000000000E+00 0.  1.
</event>
<event>
 4    1  0.6824761E+001  0.2364292E+02  0.7546771E-02  0.1484579E+00
          2   -1    0    0  502    0  0.00000000000E+00  0.00000000000E+00  0.54281546658E+03  0.54281546658E+03  0.00000000000E+00 0.  1.
         -2   -1    0    0    0  501 -0.00000000000E+00 -0.00000000000E+00 -0.10302517548E+01  0.10302517548E+01  0.00000000000E+00 0. -1.
          1    1    1    2  502    0 -0.52290513984E+01 -0.23057420406E+02  0.26515509334E+03  0.26620708319E+03  0.00000000000E+00 0. -1.
         -1    1    1    2    0  501  0.52290513984E+01  0.23057420406E+02  0.27663012148E+03  0.27763863515E+03  0.00000000000E+00 0.  1.
</event>
<event>
 4    1  0.6824761E+001  0.2680853E+02  0.7546771E-02  0.1449541E+00
          2   -1    0    0  502    0  0.00000000000E+00  0.00000000000E+00  0.68935107035E+03  0.68935107035E+03  0.00000000000E+00 0. -1.
         -2   -1    0    0    0  501 -0.00000000000E+00 -0.00000000000E+00 -0.11377616118E+01  0.11377616118E+01  0.00000000000E+00 0.  1.
          1    1    1    2  502    0 -0.26799869403E+02 -0.68132561462E+00  0.24424497955E+03  0.24571183781E+03  0.00000000000E+00 0.  1.
         -1    1    1    2    0  501  0.26799869403E+02  0.68132561462E+00  0.44396832919E+03  0.44477699415E+03  0.00000000000E+00 0. -1.
</event>
<event>
 4    1  0.6824761E+001  0.2292877E+02  0.7546771E-02  0.1493395E+00
          2   -1    0    0  502    0  0.00000000000E+00  0.00000000000E+00  0.20604717538E+04  0.20604717538E+04  0.00000000000E+00 0.  1.
         -2   -1    0    0    0  501 -0.00000000000E+00 -0.00000000000E+00 -0.25640045603E+00  0.25640045603E+00  0.00000000000E+00 0. -1.
          1    1    1    2  502    0 -0.17338913518E+02  0.15003016419E+02  0.95813873811E+03  0.95841304764E+03  0.00000000000E+00 0. -1.
         -1    1    1    2    0  501  0.17338913518E+02 -0.15003016419E+02  0.11020766152E+04  0.11023151066E+04  0.00000000000E+00 0.  1.
</event>
<event>
 4    1  0.6824761E+001  0.2781271E+02  0.7546771E-02  0.1439611E+00
          2   -1    0    0  502    0  0.00000000000E+00  0.00000000000E+00  0.84606886453E+03  0.84606886453E+03  0.00000000000E+00 0. -1.
         -2   -1    0    0    0  501 -0.00000000000E+00 -0.00000000000E+00 -0.92605305130E+00  0.92605305130E+00  0.00000000000E+00 0.  1.
          1    1    1    2  502    0  0.81459268139E+01 -0.26593055367E+02  0.37482785795E+03  0.37585831082E+03  0.00000000000E+00 0. -1.
         -1    1    1    2    0  501 -0.81459268139E+01  0.26593055367E+02  0.47031495353E+03  0.47113660676E+03  0.00000000000E+00 0.  1.
</event>
<event>
 4    1  0.6824761E+001  0.2261732E+02  0.7546771E-02  0.1497360E+00
          2   -1    0    0  502    0  0.00000000000E+00  0.00000000000E+00  0.52108686814E+02  0.52108686814E+02  0.00000000000E+00 0. -1.
         -2   -1    0    0    0  501 -0.00000000000E+00 -0.00000000000E+00 -0.14089694845E+02  0.14089694845E+02  0.00000000000E+00 0.  1.
          1    1    1    2  502    0  0.17585217743E+02 -0.14223335439E+02  0.78207800862E+00  0.22630837371E+02  0.00000000000E+00 0.  1.
         -1    1    1    2    0  501 -0.17585217743E+02  0.14223335439E+02  0.37236913960E+02  0.43567544289E+02  0.00000000000E+00 0. -1.
</event>
<event>
 4    1  0.6824761E+001  0.2698440E+02  0.7546771E-02  0.1447765E+00
          2   -1    0    0  502    0  0.00000000000E+00  0.00000000000E+00  0.44023286077E+03  0.44023286077E+03  0.00000000000E+00 0. -1.
         -2   -1    0    0    0  501 -0.00000000000E+00 -0.00000000000E+00 -0.16670178528E+01  0.16670178528E+01  0.00000000000E+00 0.  1.
          1    1    1    2  502    0 -0.14095111489E+02  0.23010560227E+02  0.19977979800E+03  0.20159396256E+03  0.00000000000E+00 0. -1.
         -1    1    1    2    0  501  0.14095111489E+02 -0.23010560227E+02  0.23878604491E+03  0.24030591606E+03  0.00000000000E+00 0.  1.
</event>
<event>
 4    1  0.6824761E+001  0.2157024E+02  0.7546771E-02  0.1511277E+00
          2   -1    0    0  502    0  0.00000000000E+00  0.00000000000E+00  0.52786887641E+02  0.52786887641E+02  0.00000000000E+00 0.  1.
         -2   -1    0    0    0  501 -0.00000000000E+00 -0.00000000000E+00 -0.10003825161E+02  0.10003825161E+02  0.00000000000E+00 0. -1.
          1    1    1    2  502    0  0.20726126053E+02  0.59752115190E+01  0.10565156535E+02  0.24018700766E+02  0.00000000000E+00 0. -1.
         -1    1    1    2    0  501 -0.20726126053E+02 -0.59752115190E+01  0.32217905945E+02  0.38772012037E+02  0.00000000000E+00 0.  1.
</event>
<event>
 4    1  0.6824761E+001  0.2730923E+02  0.7546771E-02  0.1444526E+00
          2   -1    0    0  502    0  0.00000000000E+00  0.00000000000E+00  0.14391875992E+03  0.14391875992E+03  0.00000000000E+00 0. -1.
         -2   -1    0    0    0  501 -0.00000000000E+00 -0.00000000000E+00 -0.59591329481E+01  0.59591329481E+01  0.00000000000E+00 0.  1.
          1    1    1    2  502    0  0.24158294989E+02 -0.12734627445E+02  0.96041211822E+02  0.99848426733E+02  0.00000000000E+00 0.  1.
         -1    1    1    2    0  501 -0.24158294989E+02  0.12734627445E+02  0.41918415146E+02  0.50029466131E+02  0.00000000000E+00 0. -1.
</event>
<event>
 4    1  0.6824761E+001  0.2797654E+02  0.7546771E-02  0.1438038E+00
          2   -1    0    0  502    0  0.00000000000E+00  0.00000000000E+00  0.20365184602E+04  0.20365184602E+04  0.00000000000E+00 0.  1.
         -2   -1    0    0    0  501 -0.00000000000E+00 -0.00000000000E+00 -0.49783837588E+00  0.49783837588E+00  0.00000000000E+00 0. -1.
          1    1    1    2  502    0  0.24281742210E+02 -0.13895464502E+02  0.15043525405E+04  0.15046126588E+04  0.00000000000E+00 0.  1.
         -1    1    1    2    0  501 -0.24281742210E+02  0.13895464502E+02  0.53166808129E+03  0.53240363973E+03  0.00000000000E+00 0. -1.
</event>
<event>
 4    1  0.6824761E+001  0.2223934E+02  0.7546771E-02  0.1502277E+00
          2   -1    0    0  502    0  0.00000000000E+00  0.00000000000E+00  0.30897448462E+03  0.30897448462E+03  0.00000000000E+00 0. -1.
         -2   -1    0    0    0  501 -0.00000000000E+00 -0.00000000000E+00 -0.17564941656E+01  0.17564941656E+01  0.00000000000E+00 0.  1.
          1    1    1    2  502    0 -0.75478232975E+01 -0.20919333369E+02  0.19987367432E+03  0.20110712029E+03  0.00000000000E+00 0. -1.
         -1    1    1    2    0  501  0.75478232975E+01  0.20919333369E+02  0.10734431614E+03  0.10962385850E+03  0.00000000000E+00 0.  1.
</event>
<event>
 4    1  0.6824761E+001  0.2350068E+02  0.7546771E-02  0.1486305E+00
          2   -1    0    0  502    0  0.00000000000E+00  0.00000000000E+00  0.52074350105E+03  0.52074350105E+03  0.00000000000E+00 0. -1.
         -2   -1    0    0    0  501 -0.00000000000E+00 -0.00000000000E+00 -0.15765855378E+01  0.15765855378E+01  0.00000000000E+00 0.  1.
          1    1    1    2  502    0 -0.14440223663E+02  0.18540817674E+02  0.11017274399E+03  0.11265130047E+03  0.00000000000E+00 0.  1.
         -1    1    1    2    0  501  0.14440223663E+02 -0.18540817674E+02  0.40899417153E+03  0.40966878612E+03  0.00000000000E+00 0. -1.
</event>
<event>
 4    1  0.6824761E+001  0.3210368E+02  0.7546771E-02  0.1402155E+00
          2   -1    0    0  502    0  0.00000000000E+00  0.00000000000E+00  0.20610392175E+04  0.20610392175E+04  0.00000000000E+00 0. -1.
         -2   -1    0    0    0  501 -0.00000000000E+00 -0.00000000000E+00 -0.53675531725E+00  0.53675531725E+00  0.00000000000E+00 0.  1.
          1    1    1    2  502    0 -0.77913238097E+01 -0.31143886528E+02  0.12997628702E+04  0.13001592845E+04  0.00000000000E+00 0. -1.
         -1    1    1    2    0  501  0.77913238097E+01  0.31143886528E+02  0.76073959206E+03  0.76141668837E+03  0.00000000000E+00 0.  1.
</event>
<event>
 4    1  0.6824761E+001  0.2532763E+02  0.7546771E-02  0.1465171E+00
          2   -1    0    0  502    0  0.00000000000E+00  0.00000000000E+00  0.18909222291E+02  0.18909222291E+02  0.00000000000E+00 0. -1.
         -2   -1    0    0    0  501 -0.00000000000E+00 -0.00000000000E+00 -0.36218789701E+02  0.36218789701E+02  0.00000000000E+00 0.  1.
          1    1    1    2  502    0  0.21123129956E+02  0.13975063021E+02 -0.15591980421E+02  0.29742206694E+02  0.00000000000E+00 0.  1.
         -1    1    1    2    0  501 -0.21123129956E+02 -0.13975063021E+02 -0.17175869884E+01  0.25385805298E+02  0.00000000000E+00 0. -1.
</event>
<event>
 4    1  0.6824761E+001  0.3065257E+02  0.7546771E-02  0.1414009E+00
          2   -1    0    0  502    0  0.00000000000E+00  0.00000000000E+00  0.74381269354E+03  0.74381269354E+03  0.00000000000E+00 0.  1.
         -2   -1    0    0    0  501 -0.00000000000E+00 -0.00000000000E+00 -0.12778030348E+01  0.12778030348E+01  0.00000000000E+00 0. -1.
          1    1    1    2  502    0  0.12135349132E+02 -0.28148063865E+02  0.41110094951E+03  0.41224212653E+03  0.00000000000E+00 0. -1.
         -1    1    1    2    0  501 -0.12135349132E+02  0.28148063865E+02  0.33143394099E+03  0.33284837004E+03  0.00000000000E+00 0.  1.
</event>
<event>
 4    1  0.6824761E+001  0.5712430E+02  0.7546771E-02  0.1269929E+00
          2   -1    0    0  502    0  0.00000000000E+00  0.00000000000E+00  0.22837463004E+02  0.22837463004E+02  0.00000000000E+00 0. -1.
         -2   -1    0    0    0  501 -0.00000000000E+00 -0.00000000000E+00 -0.15626175849E+03  0.15626175849E+03  0.00000000000E+00 0.  1.
          1    1    1    2  502    0  0.55224593157E+02 -0.14609244340E+02 -0.40513804378E+02  0.70032521408E+02  0.00000000000E+00 0. -1.
         -1    1    1    2    0  501 -0.55224593157E+02  0.14609244340E+02 -0.92910491105E+02  0.10906670008E+03  0.00000000000E+00 0.  1.
</event>
<event>
 4    1  0.6824761E+001  0.1918574E+03  0.7546771E-02  0.1061064E+00
          2   -1    0    0  502    0  0.00000000000E+00  0.00000000000E+00  0.84205419677E+03  0.84205419677E+03  0.00000000000E+00 0. -1.
         -2   -1    0    0    0  501 -0.00000000000E+00 -0.00000000000E+00 -0.43738314130E+02  0.43738314130E+02  0.00000000000E+00 0.  1.
          1    1    1    2  502    0 -0.61962823199E+01  0.19175732398E+03  0.38864135298E+03  0.43341823503E+03  0.00000000000E+00 0. -1.
         -1    1    1    2    0  501  0.61962823199E+01 -0.19175732398E+03  0.40967452966E+03  0.45237427587E+03  0.00000000000E+00 0.  1.
</event>
<event>
 4    1  0.6824761E+001  0.2102663E+02  0.7546771E-02  0.1518885E+00
          2   -1    0    0  502    0  0.00000000000E+00  0.00000000000E+00  0.87618367915E+03  0.87618367915E+03  0.00000000000E+00 0.  1.
         -2   -1    0    0    0  501 -0.00000000000E+00 -0.00000000000E+00 -0.50791178653E+00  0.50791178653E+00  0.00000000000E+00 0. -1.
          1    1    1    2  502    0  0.20363146348E+02  0.52403688213E+01  0.47325269846E+03  0.47371957506E+03  0.00000000000E+00 0. -1.
         -1    1    1    2    0  501 -0.20363146348E+02 -0.52403688213E+01  0.40242306891E+03  0.40297201588E+03  0.00000000000E+00 0.  1.
</event>
<event>
 4    1  0.6824761E+001  0.2543061E+02  0.7546771E-02  0.1464043E+00
          2   -1    0    0  502    0  0.00000000000E+00  0.00000000000E+00  0.90489418722E+03  0.90489418722E+03  0.00000000000E+00 0.  1.
         -2   -1    0    0    0  501 -0.00000000000E+00 -0.00000000000E+00 -0.78219117273E+00  0.78219117273E+00  0.00000000000E+00 0. -1.
          1    1    1    2  502    0  0.18108072963E+02 -0.17855351386E+02  0.58508695819E+03  0.58563936388E+03  0.00000000000E+00 0. -1.
         -1    1    1    2    0  501 -0.18108072963E+02  0.17855351386E+02  0.31902503786E+03  0.32003701452E+03  0.00000000000E+00 0.  1.
</event>
<event>
 4    1  0.6824761E+001  0.3124896E+02  0.7546771E-02  0.1409045E+00
          2   -1    0    0  502    0  0.00000000000E+00  0.00000000000E+00  0.10184066605E+04  0.10184066605E+04  0.00000000000E+00 0. -1.
         -2   -1    0    0    0  501 -0.00000000000E+00 -0.00000000000E+00 -0.99096523093E+00  0.99096523093E+00  0.00000000000E+00 0.  1.
          1    1    1    2  502    0 -0.27068553372E+02 -0.15613809537E+02  0.41694845347E+03  0.41811781890E+03  0.00000000000E+00 0. -1.
         -1    1    1    2    0  501  0.27068553372E+02  0.15613809537E+02  0.60046724181E+03  0.60127980684E+03  0.00000000000E+00 0.  1.
</event>
<event>
 4    1  0.6824761E+001  0.2277955E+02  0.7546771E-02  0.1495285E+00
          2   -1    0    0  502    0  0.00000000000E+00  0.00000000000E+00  0.43680818126E+01  0.43680818126E+01  0.00000000000E+00 0.  1.
         -2   -1    0    0    0  501 -0.00000000000E+00 -0.00000000000E+00 -0.23606917366E+03  0.23606917366E+03  0.00000000000E+00 0. -1.
          1    1    1    2  502    0 -0.49979623653E-01  0.22779494639E+02 -0.31117534609E+02  0.38564346670E+02  0.00000000000E+00 0.  1.
         -1    1    1    2    0  501  0.49979623653E-01 -0.22779494639E+02 -0.20058355724E+03  0.20187290881E+03  0.00000000000E+00 0. -1.
</event>
<event>
 4    1  0.6824761E+001  0.2476527E+02  0.7546771E-02  0.1471446E+00
          2   -1    0    0  502    0  0.00000000000E+00  0.00000000000E+00  0.43362855204E+03  0.43362855204E+03  0.00000000000E+00 0.  1.
         -2   -1    0    0    0  501 -0.00000000000E+00 -0.00000000000E+00 -0.28608068997E+01  0.28608068997E+01  0.00000000000E+00 0. -1.
          1    1    1    2  502    0  0.21294858589E+02 -0.12643085561E+02  0.60200002967E+02  0.65094999593E+02  0.00000000000E+00 0. -1.
         -1    1    1    2    0  501 -0.21294858589E+02  0.12643085561E+02  0.37056774217E+03  0.37139435935E+03  0.00000000000E+00 0.  1.
</event>
<event>
 4    1  0.6824761E+001  0.2512508E+02  0.7546771E-02  0.1467409E+00
          2   -1    0    0  502    0  0.00000000000E+00  0.00000000000E+00  0.27225435566E+03  0.27225435566E+03  0.00000000000E+00 0. -1.
         -2   -1    0    0    0  501 -0.00000000000E+00 -0.00000000000E+00 -0.23627555582E+01  0.23627555582E+01  0.00000000000E+00 0.  1.
          1    1    1    2  502    0 -0.23598389483E+02 -0.86247037212E+01  0.15370046671E+03  0.15574049881E+03  0.00000000000E+00 0. -1.
         -1    1    1    2    0  501  0.23598389483E+02  0.86247037212E+01  0.11619113339E+03  0.11887661241E+03  0.00000000000E+00 0.  1.
</event>
<event>
 4    1  0.6824761E+001  0.2182917E+02  0.7546771E-02  0.1507748E+00
          2   -1    0    0  502    0  0.00000000000E+00  0.00000000000E+00  0.17183909793E+04  0.17183909793E+04  0.00000000000E+00 0.  1.
         -2   -1    0    0    0  501 -0.00000000000E+00 -0.00000000000E+00 -0.29467909225E+00  0.29467909225E+00  0.00000000000E+00 0. -1.
          1    1    1    2  502    0 -0.19589395129E+02  0.96316204139E+01  0.10677305126E+04  0.10679536320E+04  0.00000000000E+00 0.  1.
         -1    1    1    2    0  501  0.19589395129E+02 -0.96316204139E+01  0.65036578754E+03  0.65073202634E+03  0.00000000000E+00 0. -1.
</event>
<event>
 4    1  0.6824761E+001  0.2556985E+02  0.7546771E-02  0.1462528E+00
          2   -1    0    0  502    0  0.00000000000E+00  0.00000000000E+00  0.20085706648E+04  0.20085706648E+04  0.00000000000E+00 0.  1.
         -2   -1    0    0    0  501 -0.00000000000E+00 -0.00000000000E+00 -0.34808759568E+00  0.34808759568E+00  0.00000000000E+00 0. -1.
          1    1    1    2  502    0 -0.23269634605E+02 -0.10599120093E+02  0.12599059591E+04  0.12601654031E+04  0.00000000000E+00 0. -1.
         -1    1    1    2    0  501  0.23269634605E+02  0.10599120093E+02  0.74831661810E+03  0.74875334935E+03  0.00000000000E+00 0.  1.
</event>
<event>
 4    1  0.6824761E+001  0.2030826E+02  0.7546771E-02  0.1529374E+00
          2   -1    0    0  502    0  0.00000000000E+00  0.00000000000E+00  0.83583201146E+01  0.83583201146E+01  0.00000000000E+00 0.  1.
         -2   -1    0    0    0  501 -0.00000000000E+00 -0.00000000000E+00 -0.49441214172E+02  0.49441214172E+02  0.00000000000E+00 0. -1.
          1    1    1    2  502    0 -0.16472504997E+02 -0.11877799789E+02 -0.19254137577E+02  0.27984770189E+02  0.00000000000E+00 0.  1.
         -1    1    1    2    0  501  0.16472504997E+02  0.11877799789E+02 -0.21828756481E+02  0.29814764098E+02  0.00000000000E+00 0. -1.
</event>
<event>
 4    1  0.6824761E+001  0.5308146E+02  0.7546771E-02  0.1285338E+00
          2   -1    0    0  502    0  0.00000000000E+00  0.00000000000E+00  0.50712562428E+03  0.50712562428E+03  0.00000000000E+00 0.  1.
         -2   -1    0    0    0  501 -0.00000000000E+00 -0.00000000000E+00 -0.56564018059E+01  0.56564018059E+01  0.00000000000E+00 0. -1.
          1    1    1    2  502    0  0.20056126858E+02  0.49146647358E+02  0.21659292580E+03  0.22300254859E+03  0.00000000000E+00 0. -1.
         -1    1    1    2    0  501 -0.20056126858E+02 -0.49146647358E+02  0.28487629668E+03  0.28977947750E+03  0.00000000000E+00 0.  1.
</event>
<event>
 4    1  0.6824761E+001  0.3940313E+02  0.7546771E-02  0.1352019E+00
          2   -1    0    0  502    0  0.00000000000E+00  0.00000000000E+00  0.65859248015E+03  0.65859248015E+03  0.00000000000E+00 0.  1.
         -2   -1    0    0    0  501 -0.00000000000E+00 -0.00000000000E+00 -0.92859495046E+01  0.92859495046E+01  0.00000000000E+00 0. -1.
          1    1    1    2  502    0  0.37522101687E+01  0.39224065503E+02  0.61310522812E+03  0.61437010600E+03  0.00000000000E+00 0.  1.
         -1    1    1    2    0  501 -0.37522101687E+01 -0.39224065503E+02  0.36201302519E+02  0.53508323650E+02  0.00000000000E+00 0. -1.
</event>
<event>
 4    1  0.6824761E+001  0.5089002E+02  0.7546771E-02  0.1294359E+00
          2   -1    0    0  502    0  0.00000000000E+00  0.00000000000E+00  0.55316558979E+03  0.55316558979E+03  0.00000000000E+00 0. -1.
         -2   -1    0    0    0  501 -0.00000000000E+00 -0.00000000000E+00 -0.49877532044E+01  0.49877532044E+01  0.00000000000E+00 0.  1.
          1    1    1    2  502    0 -0.13098374997E+02  0.49175473613E+02  0.34321136784E+03  0.34696374112E+03  0.00000000000E+00 0. -1.
         -1    1    1    2    0  501  0.13098374997E+02 -0.49175473613E+02  0.20496646874E+03  0.21118960187E+03  0.00000000000E+00 0.  1.
</event>
<event>
 4    1  0.6824761E+001  0.6896052E+02  0.7546771E-02  0.1232093E+00
          2   -1    0    0  502    0  0.00000000000E+00  0.00000000000E+00  0.46802571589E+03  0.46802571589E+03  0.00000000000E+00 0.  1.
         -2   -1    0    0    0  501 -0.00000000000E+00 -0.00000000000E+00 -0.15527517000E+02  0.15527517000E+02  0.00000000000E+00 0. -1.
          1    1    1    2  502    0  0.65619651870E+02 -0.21204131872E+02  0.36838845149E+03  0.37478741322E+03  0.00000000000E+00 0.  1.
         -1    1    1    2    0  501 -0.65619651870E+02  0.21204131872E+02  0.84109747403E+02  0.10876581967E+03  0.00000000000E+00 0. -1.
</event>
<event>
 4    1  0.6824761E+001  0.2880086E+02  0.7546771E-02  0.1430311E+00
          2   -1    0    0  502    0  0.00000000000E+00  0.00000000000E+00  0.30691716929E+02  0.30691716929E+02  0.00000000000E+00 0.  1.
         -2   -1    0    0    0  501 -0.00000000000E+00 -0.00000000000E+00 -0.30782199952E+02  0.30782199952E+02  0.00000000000E+00 0. -1.
          1    1    1    2  502    0  0.26264455984E+02  0.11818105080E+02 -0.10781607811E+02  0.30752761222E+02  0.00000000000E+00 0. -1.
         -1    1    1    2    0  501 -0.26264455984E+02 -0.11818105080E+02  0.10691124788E+02  0.30721155659E+02  0.00000000000E+00 0.  1.
</event>
<event>
 4    1  0.6824761E+001  0.4916724E+02  0.7546771E-02  0.1301824E+00
          2   -1    0    0  502    0  0.00000000000E+00  0.00000000000E+00  0.69919329053E+03  0.69919329053E+03  0.00000000000E+00 0. -1.
         -2   -1    0    0    0  501 -0.00000000000E+00 -0.00000000000E+00 -0.45540397186E+01  0.45540397186E+01  0.00000000000E+00 0.  1.
          1    1    1    2  502    0  0.31680723780E+02  0.37599856950E+02  0.51998800150E+03  0.52230732257E+03  0.00000000000E+00 0. -1.
         -1    1    1    2    0  501 -0.31680723780E+02 -0.37599856950E+02  0.17465124931E+03  0.18144000769E+03  0.00000000000E+00 0.  1.
</event>
<event>
 4    1  0.6824761E+001  0.2937845E+02  0.7546771E-02  0.1425076E+00
          2   -1    0    0  502    0  0.00000000000E+00  0.00000000000E+00  0.16619624858E+04  0.16619624858E+04  0.00000000000E+00 0. -1.
         -2   -1    0    0    0  501 -0.00000000000E+00 -0.00000000000E+00 -0.54120411048E+00  0.54120411048E+00  0.00000000000E+00 0.  1.
          1    1    1    2  502    0 -0.28697196206E+02  0.62900321104E+01  0.99785715631E+03  0.99828953614E+03  0.00000000000E+00 0. -1.
         -1    1    1    2    0  501  0.28697196206E+02 -0.62900321104E+01  0.66356412541E+03  0.66421415379E+03  0.00000000000E+00 0.  1.
</event>
<event>
 4    1  0.6824761E+001  0.2489644E+02  0.7546771E-02  0.1469965E+00
          2   -1    0    0  502    0  0.00000000000E+00  0.00000000000E+00  0.36871082560E+02  0.36871082560E+02  0.00000000000E+00 0. -1.
         -2   -1    0    0    0  501 -0.00000000000E+00 -0.00000000000E+00 -0.26761483022E+02  0.26761483022E+02  0.00000000000E+00 0.  1.
          1    1    1    2  502    0 -0.10787489319E+02  0.22437972313E+02 -0.14346048418E+02  0.28733980450E+02  0.00000000000E+00 0.  1.
         -1    1    1    2    0  501  0.10787489319E+02 -0.22437972313E+02  0.24455647955E+02  0.34898585132E+02  0.00000000000E+00 0. -1.
</event>
<event>
 4    1  0.6824761E+001  0.3053515E+02  0.7546771E-02  0.1415002E+00
          2   -1    0    0  502    0  0.00000000000E+00  0.00000000000E+00  0.30194336033E+04  0.30194336033E+04  0.00000000000E+00 0.  1.
         -2   -1    0    0    0  501 -0.00000000000E+00 -0.00000000000E+00 -0.31503839273E+00  0.31503839273E+00  0.00000000000E+00 0. -1.
          1    1    1    2  502    0  0.21561695026E+01  0.30458929986E+02  0.12970587019E+04  0.12974180790E+04  0.00000000000E+00 0.  1.
         -1    1    1    2    0  501 -0.21561695026E+01 -0.30458929986E+02  0.17220598630E+04  0.17223305627E+04  0.00000000000E+00 0. -1.
</event>
<event>
 4    1  0.6824761E+001  0.3440792E+02  0.7546771E-02  0.1384774E+00
          2   -1    0    0  502    0  0.00000000000E+00  0.00000000000E+00  0.14203166863E+04  0.14203166863E+04  0.00000000000E+00 0.  1.
         -2   -1    0    0    0  501 -0.00000000000E+00 -0.00000000000E+00 -0.90499013523E+00  0.90499013523E+00  0.00000000000E+00 0. -1.
          1    1    1    2  502    0  0.20565759898E+02  0.27585401363E+02  0.90936136108E+03  0.91001208227E+03  0.00000000000E+00 0.  1.
         -1    1    1    2    0  501 -0.20565759898E+02 -0.27585401363E+02  0.51005033510E+03  0.51120959418E+03  0.00000000000E+00 0. -1.
</event>
<event>
 4    1  0.6824761E+001  0.2457292E+02  0.7546771E-02  0.1473638E+00
          2   -1    0    0  502    0  0.00000000000E+00  0.00000000000E+00  0.28994472756E+02  0.28994472756E+02  0.00000000000E+00 0. -1.
         -2   -1    0    0    0  501 -0.00000000000E+00 -0.00000000000E+00 -0.20943374090E+02  0.20943374090E+02  0.00000000000E+00 0.  1.
          1    1    1    2  502    0 -0.22156103336E+02  0.10627119620E+02  0.21534924990E+01  0.24667105959E+02  0.00000000000E+00 0. -1.
         -1    1    1    2    0  501  0.22156103336E+02 -0.10627119620E+02  0.58976061676E+01  0.25270740887E+02  0.00000000000E+00 0.  1.
</event>
<event>
 4    1  0.6824761E+001  0.2576840E+02  0.7546771E-02  0.1460388E+00
          2   -1    0    0  502    0  0.00000000000E+00  0.00000000000E+00  0.86812761248E+02  0.86812761248E+02  0.00000000000E+00 0.  1.
         -2   -1    0    0    0  501 -0.00000000000E+00 -0.00000000000E+00 -0.83010910407E+01  0.83010910407E+01  0.00000000000E+00 0. -1.
          1    1    1    2  502    0  0.21622241702E+02  0.14017461588E+02  0.25924367916E+02  0.36552474847E+02  0.00000000000E+00 0.  1.
         -1    1    1    2    0  501 -0.21622241702E+02 -0.14017461588E+02  0.52587302291E+02  0.58561377442E+02  0.00000000000E+00 0. -1.
</event>
<event>
 4    1  0.6824761E+001  0.3181172E+02  0.7546771E-02  0.1404480E+00
          2   -1    0    0  502    0  0.00000000000E+00  0.00000000000E+00  0.58636834896E+02  0.58636834896E+02  0.00000000000E+00 0.  1.
         -2   -1    0    0    0  501 -0.00000000000E+00 -0.00000000000E+00 -0.30310280855E+02  0.30310280855E+02  0.00000000000E+00 0. -1.
          1    1    1    2  502    0 -0.19919958999E+02 -0.24802843426E+02 -0.15020480954E+02  0.35179548841E+02  0.00000000000E+00 0. -1.
         -1    1    1    2    0  501  0.19919958999E+02  0.24802843426E+02  0.43347034995E+02  0.53767566910E+02  0.00000000000E+00 0.  1.
</event>
<event>
 4    1  0.6824761E+001  0.2490274E+02  0.7546771E-02  0.1469894E+00
          2   -1    0    0  502    0  0.00000000000E+00  0.00000000000E+00  0.22959012105E+02  0.22959012105E+02  0.00000000000E+00 0. -1.
         -2   -1    0    0    0  501 -0.00000000000E+00 -0.00000000000E+00 -0.28384197003E+02  0.28384197003E+02  0.00000000000E+00 0.  1.
          1    1    1    2  502    0  0.22533887064E+02  0.10600493918E+02 -0.83590565974E+01  0.26268238706E+02  0.00000000000E+00 0.  1.
         -1    1    1    2    0  501 -0.22533887064E+02 -0.10600493918E+02  0.29338716992E+01  0.25074970402E+02  0.00000000000E+00 0. -1.
</event>
<event>
 4    1  0.6824761E+001  0.3660422E+02  0.7546771E-02  0.1369623E+00
          2   -1    0    0  502    0  0.00000000000E+00  0.00000000000E+00  0.49854209753E+03  0.49854209753E+03  0.00000000000E+00 0. -1.
         -2   -1    0    0    0  501 -0.00000000000E+00 -0.00000000000E+00 -0.31917124789E+01  0.31917124789E+01  0.00000000000E+00 0.  1.
          1    1    1    2  502    0  0.34844005364E+02 -0.11214476669E+02  0.14797269126E+03  0.15243289198E+03  0.00000000000E+00 0.  1.
         -1    1    1    2    0  501 -0.34844005364E+02  0.11214476669E+02  0.34737769378E+03  0.34930091803E+03  0.00000000000E+00 0. -1.
</event>
<event>
 4    1  0.6824761E+001  0.2687909E+02  0.7546771E-02  0.1448826E+00
          2   -1    0    0  502    0  0.00000000000E+00  0.00000000000E+00  0.11151857586E+02  0.11151857586E+02  0.00000000000E+00 0. -1.
         -2   -1    0    0    0  501 -0.00000000000E+00 -0.00000000000E+00 -0.93667350019E+02  0.93667350019E+02  0.00000000000E+00 0.  1.
          1    1    1    2  502    0 -0.22534539094E+02  0.14651967743E+02 -0.70359863339E+02  0.75319293545E+02  0.00000000000E+00 0.  1.
         -1    1    1    2    0  501  0.22534539094E+02 -0.14651967743E+02 -0.12155629093E+02  0.29499914061E+02  0.00000000000E+00 0. -1.
</event>
<event>
 4    1  0.6824761E+001  0.2534439E+02  0.7546771E-02  0.1464987E+00
          2   -1    0    0  502    0  0.00000000000E+00  0.00000000000E+00  0.17297923944E+02  0.17297923944E+02  0.00000000000E+00 0.  1.
         -2   -1    0    0    0  501 -0.00000000000E+00 -0.00000000000E+00 -0.38349463494E+02  0.38349463494E+02  0.00000000000E+00 0. -1.
          1    1    1    2  502    0 -0.20937532242E+02  0.14281383385E+02 -0.55719926958E+01  0.25949668021E+02  0.00000000000E+00 0. -1.
         -1    1    1    2    0  501  0.20937532242E+02 -0.14281383385E+02 -0.15479546854E+02  0.29697719418E+02  0.00000000000E+00 0.  1.
</event>
<event>
 4    1  0.6824761E+001  0.2301798E+02  0.7546771E-02  0.1492273E+00
          2   -1    0    0  502    0  0.00000000000E+00  0.00000000000E+00  0.21487846674E+03  0.21487846674E+03  0.00000000000E+00 0. -1.
         -2   -1    0    0    0  501 -0.00000000000E+00 -0.00000000000E+00 -0.25011182405E+01  0.25011182405E+01  0.00000000000E+00 0.  1.
          1    1    1    2  502    0  0.85137061704E+01  0.21385603250E+02  0.11912156639E+03  0.12132507902E+03  0.00000000000E+00 0. -1.
         -1    1    1    2    0  501 -0.85137061704E+01 -0.21385603250E+02  0.93255782105E+02  0.96054505960E+02  0.00000000000E+00 0.  1.
</event>
<event>
 4    1  0.6824761E+001  0.3101305E+02  0.7546771E-02  0.1410992E+00
          2   -1    0    0  502    0  0.00000000000E+00  0.00000000000E+00  0.13399990170E+04  0.13399990170E+04  0.00000000000E+00 0.  1.
         -2   -1    0    0    0  501 -0.00000000000E+00 -0.00000000000E+00 -0.79568113443E+00  0.79568113443E+00  0.00000000000E+00 0. -1.
          1    1    1    2  502    0  0.18883790437E+01 -0.30955509977E+02  0.45982089293E+03  0.46086555865E+03  0.00000000000E+00 0. -1.
         -1    1    1    2    0  501 -0.18883790437E+01  0.30955509977E+02  0.87938244298E+03  0.87992913953E+03  0.00000000000E+00 0.  1.
</event>
<event>
 4    1  0.6824761E+001  0.2241191E+02  0.7546771E-02  0.1500018E+00
          2   -1    0    0  502    0  0.00000000000E+00  0.00000000000E+00  0.11961851211E+03  0.11961851211E+03  0.00000000000E+00 0.  1.
         -2   -1    0    0    0  501 -0.00000000000E+00 -0.00000000000E+00 -0.58403316425E+01  0.58403316425E+01  0.00000000000E+00 0. -1.
          1    1    1    2  502    0 -0.50298543817E+00 -0.22406262745E+02  0.90142301267E+02  0.92886641033E+02  0.00000000000E+00 0.  1.
         -1    1    1    2    0  501  0.50298543817E+00  0.22406262745E+02  0.23635879205E+02  0.32572202725E+02  0.00000000000E+00 0. -1.
</event>
<event>
 4    1  0.6824761E+001  0.2469399E+02  0.7546771E-02  0.1472256E+00
          2   -1    0    0  502    0  0.00000000000E+00  0.00000000000E+00  0.86342639692E+01  0.86342639692E+01  0.00000000000E+00 0. -1.
         -2   -1    0    0    0  501 -0.00000000000E+00 -0.00000000000E+00 -0.71569235189E+02  0.71569235189E+02  0.00000000000E+00 0.  1.
          1    1    1    2  502    0  0.22430281967E+02 -0.10328384598E+02 -0.26860800063E+02  0.36486924474E+02  0.00000000000E+00 0. -1.
         -1    1    1    2    0  501 -0.22430281967E+02  0.10328384598E+02 -0.36074171157E+02  0.43716574685E+02  0.00000000000E+00 0.  1.
</event>
<event>
 4    1  0.6824761E+001  0.2132217E+02  0.7546771E-02  0.1514714E+00
          2   -1    0    0  502    0  0.00000000000E+00  0.00000000000E+00  0.51156495404E+02  0.51156495404E+02  0.00000000000E+00 0. -1.
         -2   -1    0    0    0  501 -0.00000000000E+00 -0.00000000000E+00 -0.12427728831E+02  0.12427728831E+02  0.00000000000E+00 0.  1.
          1    1    1    2  502    0  0.20859789798E+02 -0.44163497713E+01  0.36333576619E+02  0.42127945186E+02  0.00000000000E+00 0. -1.
         -1    1    1    2    0  501 -0.20859789798E+02  0.44163497713E+01  0.23951899545E+01  0.21456279049E+02  0.00000000000E+00 0.  1.
</event>
<event>
 4    1  0.6824761E+001  0.2638882E+02  0.7546771E-02  0.1453846E+00
          2   -1    0    0  502    0  0.00000000000E+00  0.00000000000E+00  0.17574427405E+02  0.17574427405E+02  0.00000000000E+00 0. -1.
         -2   -1    0    0    0  501 -0.00000000000E+00 -0.00000000000E+00 -0.50879990294E+02  0.50879990294E+02  0.00000000000E+00 0.  1.
          1    1    1    2  502    0 -0.12398268125E+02 -0.23294903707E+02 -0.55413719623E+00  0.26394633152E+02  0.00000000000E+00 0. -1.
         -1    1    1    2    0  501  0.12398268125E+02  0.23294903707E+02 -0.32751425693E+02  0.42059784547E+02  0.00000000000E+00 0.  1.
</event>
<event>
 4    1  0.6824761E+001  0.2296039E+02  0.7546771E-02  0.1492996E+00
          2   -1    0    0  502    0  0.00000000000E+00  0.00000000000E+00  0.67898728956E+01  0.67898728956E+01  0.00000000000E+00 0.  1.
         -2   -1    0    0    0  501 -0.00000000000E+00 -0.00000000000E+00 -0.77754055497E+02  0.77754055497E+02  0.00000000000E+00 0. -1.
          1    1    1    2  502    0  0.82181919591E+01  0.21439231750E+02 -0.37086814532E+02  0.43618931087E+02  0.00000000000E+00 0.  1.
         -1    1    1    2    0  501 -0.82181919591E+01 -0.21439231750E+02 -0.33877368069E+02  0.40924997305E+02  0.00000000000E+00 0. -1.
</event>
<event>
 4    1  0.6824761E+001  0.2686369E+02  0.7546771E-02  0.1448982E+00
          2   -1    0    0  502    0  0.00000000000E+00  0.00000000000E+00  0.64545069202E+03  0.64545069202E+03  0.00000000000E+00 0.  1.
         -2   -1    0    0    0  501 -0.00000000000E+00 -0.00000000000E+00 -0.13150756482E+01  0.13150756482E+01  0.00000000000E+00 0. -1.
          1    1    1    2  502    0  0.26220148650E+02 -0.58448120833E+01  0.44723276747E+03  0.44803884466E+03  0.00000000000E+00 0.  1.
         -1    1    1    2    0  501 -0.26220148650E+02  0.58448120833E+01  0.19690284891E+03  0.19872692302E+03  0.00000000000E+00 0. -1.
</event>
<event>
 4    1  0.6824761E+001  0.3240767E+02  0.7546771E-02  0.1399765E+00
          2   -1    0    0  502    0  0.00000000000E+00  0.00000000000E+00  0.59805310006E+02  0.59805310006E+02  0.00000000000E+00 0. -1.
         -2   -1    0    0    0  501 -0.00000000000E+00 -0.00000000000E+00 -0.18667293176E+02  0.18667293176E+02  0.00000000000E+00 0.  1.
          1    1    1    2  502    0  0.27881073034E+02 -0.16519773608E+02  0.11018430670E+02  0.34229562779E+02  0.00000000000E+00 0.  1.
         -1    1    1    2    0  501 -0.27881073034E+02  0.16519773608E+02  0.30119586161E+02  0.44243040403E+02  0.00000000000E+00 0. -1.
</event>
<event>
 4    1  0.6824761E+001  0.2015220E+02  0.7546771E-02  0.1531722E+00
          2   -1    0    0  502    0  0.00000000000E+00  0.00000000000E+00  0.11356779856E+02  0.11356779856E+02  0.00000000000E+00 0. -1.
         -2   -1    0    0    0  501 -0.00000000000E+00 -0.00000000000E+00 -0.49879502062E+02  0.49879502062E+02  0.00000000000E+00 0.  1.
          1    1    1    2  502    0 -0.29422098881E+00 -0.20150056666E+02 -0.35551960570E+02  0.40866285003E+02  0.00000000000E+00 0.  1.
         -1    1    1    2    0  501  0.29422098881E+00  0.20150056666E+02 -0.29707616364E+01  0.20369996915E+02  0.00000000000E+00 0. -1.
</event>
<event>
 4    1  0.6824761E+001  0.3630053E+02  0.7546771E-02  0.1371644E+00
          2   -1    0    0  502    0  0.00000000000E+00  0.00000000000E+00  0.57131883134E+02  0.57131883134E+02  0.00000000000E+00 0. -1.
         -2   -1    0    0    0  501 -0.00000000000E+00 -0.00000000000E+00 -0.25774487882E+02  0.25774487882E+02  0.00000000000E+00 0.  1.
          1    1    1    2  502    0 -0.23162915461E+02  0.27950092671E+02  0.29119726561E+02  0.46536940252E+02  0.00000000000E+00 0. -1.
         -1    1    1    2    0  501  0.23162915461E+02 -0.27950092671E+02  0.22376686905E+01  0.36369430765E+02  0.00000000000E+00 0.  1.
</event>
<event>
 4    1  0.6824761E+001  0.3380857E+02  0.7546771E-02  0.1389138E+00
          2   -1    0    0  502    0  0.00000000000E+00  0.00000000000E+00  0.81022599050E+02  0.81022599050E+02  0.00000000000E+00 0.  1.
         -2   -1    0    0    0  501 -0.00000000000E+00 -0.00000000000E+00 -0.23726635128E+02  0.23726635128E+02  0.00000000000E+00 0. -1.
          1    1    1    2  502    0 -0.70768290787E+01 -0.33059612375E+02 -0.47002414622E+01  0.34133733315E+02  0.00000000000E+00 0. -1.
         -1    1    1    2    0  501  0.70768290787E+01  0.33059612375E+02  0.61996205384E+02  0.70615500864E+02  0.00000000000E+00 0.  1.
</event>
<event>
 4    1  0.6824761E+001  0.2887948E+02  0.7546771E-02  0.1429590E+00
          2   -1    0    0  502    0  0.00000000000E+00  0.00000000000E+00  0.18420406904E+02  0.18420406904E+02  0.00000000000E+00 0.  1.
         -2   -1    0    0    0  501 -0.00000000000E+00 -0.00000000000E+00 -0.53181630361E+02  0.53181630361E+02  0.00000000000E+00 0. -1.
          1    1    1    2  502    0 -0.89578071972E+01  0.27455096358E+02 -0.35783714730E+01  0.29100332785E+02  0.00000000000E+00 0. -1.
         -1    1    1    2    0  501  0.89578071972E+01 -0.27455096358E+02 -0.31182851983E+02  0.42501704479E+02  0.00000000000E+00 0.  1.
</event>
<event>
 4    1  0.6824761E+001  0.2417653E+02  0.7546771E-02  0.1478230E+00
          2   -1    0    0  502    0  0.00000000000E+00  0.00000000000E+00  0.14648449774E+03  0.14648449774E+03  0.00000000000E+00 0. -1.
         -2   -1    0    0    0  501 -0.00000000000E+00 -0.00000000000E+00 -0.46383539500E+01  0.46383539500E+01  0.00000000000E+00 0.  1.
          1    1    1    2  502    0  0.24135724157E+02 -0.14040735568E+01  0.42677371606E+02  0.49049593783E+02  0.00000000000E+00 0.  1.
         -1    1    1    2    0  501 -0.24135724157E+02  0.14040735568E+01  0.99168772183E+02  0.10207325791E+03  0.00000000000E+00 0. -1.
</event>
<event>
 4    1  0.6824761E+001  0.7555497E+02  0.7546771E-02  0.1214561E+00
          2   -1    0    0  502    0  0.00000000000E+00  0.00000000000E+00  0.18179832647E+04  0.18179832647E+04  0.00000000000E+00 0. -1.
         -2   -1    0    0    0  501 -0.00000000000E+00 -0.00000000000E+00 -0.47591566053E+01  0.47591566053E+01  0.00000000000E+00 0.  1.
          1    1    1    2  502    0 -0.69130513004E+02  0.30488111034E+02  0.14381918223E+04  0.14401750833E+04  0.00000000000E+00 0. -1.
         -1    1    1    2    0  501  0.69130513004E+02 -0.30488111034E+02  0.37503228580E+03  0.38256733804E+03  0.00000000000E+00 0.  1.
</event>
<event>
 4    1  0.6824761E+001  0.2309562E+02  0.7546771E-02  0.1491301E+00
          2   -1    0    0  502    0  0.00000000000E+00  0.00000000000E+00  0.11011351295E+02  0.11011351295E+02  0.00000000000E+00 0. -1.
         -2   -1    0    0    0  501 -0.00000000000E+00 -0.00000000000E+00 -0.74627323115E+02  0.74627323115E+02  0.00000000000E+00 0.  1.
          1    1    1    2  502    0  0.71833452046E+00  0.23084442393E+02 -0.64436622230E+01  0.23977661852E+02  0.00000000000E+00 0. -1.
         -1    1    1    2    0  501 -0.71833452046E+00 -0.23084442393E+02 -0.57172309596E+02  0.61661012558E+02  0.00000000000E+00 0.  1.
</event>
<event>
 4    1  0.6824761E+001  0.6128376E+02  0.7546771E-02  0.1255532E+00
          2   -1    0    0  502    0  0.00000000000E+00  0.00000000000E+00  0.70005275622E+02  0.70005275622E+02  0.00000000000E+00 0.  1.
         -2   -1    0    0    0  501 -0.00000000000E+00 -0.00000000000E+00 -0.61630146559E+02  0.61630146559E+02  0.00000000000E+00 0. -1.
          1    1    1    2  502    0  0.23810798662E+02  0.56468978743E+02 -0.19498014252E+02  0.64310747570E+02  0.00000000000E+00 0. -1.
         -1    1    1    2    0  501 -0.23810798662E+02 -0.56468978743E+02  0.27873143315E+02  0.67324674611E+02  0.00000000000E+00 0.  1.
</event>
<event>
 4    1  0.6824761E+001  0.3288689E+02  0.7546771E-02  0.1396060E+00
          2   -1    0    0  502    0  0.00000000000E+00  0.00000000000E+00  0.27026588598E+01  0.27026588598E+01  0.00000000000E+00 0.  1.
         -2   -1    0    0    0  501 -0.00000000000E+00 -0.00000000000E+00 -0.47854343945E+03  0.47854343945E+03  0.00000000000E+00 0. -1.
          1    1    1    2  502    0  0.10468174363E+02 -0.31176350749E+02 -0.33529278534E+03  0.33690176524E+03  0.00000000000E+00 0. -1.
         -1    1    1    2    0  501 -0.10468174363E+02  0.31176350749E+02 -0.14054799524E+03  0.14434433306E+03  0.00000000000E+00 0.  1.
</event>
<event>
 4    1  0.6824761E+001  0.2740933E+02  0.7546771E-02  0.1443539E+00
          2   -1    0    0  502    0  0.00000000000E+00  0.00000000000E+00  0.85163736283E+02  0.85163736283E+02  0.00000000000E+00 0. -1.
         -2   -1    0    0    0  501 -0.00000000000E+00 -0.00000000000E+00 -0.89412828650E+01  0.89412828650E+01  0.00000000000E+00 0.  1.
          1    1    1    2  502    0 -0.27210345631E+02 -0.32967366357E+01  0.43557397352E+02  0.51463756624E+02  0.00000000000E+00 0.  1.
         -1    1    1    2    0  501  0.27210345631E+02  0.32967366357E+01  0.32665056066E+02  0.42641262524E+02  0.00000000000E+00 0. -1.
</event>
<event>
 4    1  0.6824761E+001  0.2947163E+02  0.7546771E-02  0.1424244E+00
          2   -1    0    0  502    0  0.00000000000E+00  0.00000000000E+00  0.36192621061E+01  0.36192621061E+01  0.00000000000E+00 0. -1.
         -2   -1    0    0    0  501 -0.00000000000E+00 -0.00000000000E+00 -0.24114738663E+03  0.24114738663E+03  0.00000000000E+00 0.  1.
          1    1    1    2  502    0 -0.24907542699E+02  0.15754090739E+02 -0.12725235015E+03  0.13062058673E+03  0.00000000000E+00 0. -1.
         -1    1    1    2    0  501  0.24907542699E+02 -0.15754090739E+02 -0.11027577437E+03  0.11414606201E+03  0.00000000000E+00 0.  1.
</event>
<event>
 4    1  0.6824761E+001  0.2027816E+02  0.7546771E-02  0.1529825E+00
          2   -1    0    0  502    0  0.00000000000E+00  0.00000000000E+00  0.12100514369E+03  0.12100514369E+03  0.00000000000E+00 0.  1.
         -2   -1    0    0    0  501 -0.00000000000E+00 -0.00000000000E+00 -0.38249022542E+01  0.38249022542E+01  0.00000000000E+00 0. -1.
          1    1    1    2  502    0 -0.26759207864E+01  0.20100830253E+02  0.79436160383E+02  0.81983580705E+02  0.00000000000E+00 0. -1.
         -1    1    1    2    0  501  0.26759207864E+01 -0.20100830253E+02  0.37744081049E+02  0.42846465235E+02  0.00000000000E+00 0.  1.
</event>
<event>
 4    1  0.6824761E+001  0.3217473E+02  0.7546771E-02  0.1401594E+00
          2   -1    0    0  502    0  0.00000000000E+00  0.00000000000E+00  0.45721483436E+03  0.45721483436E+03  0.00000000000E+00 0. -1.
         -2   -1    0    0    0  501 -0.00000000000E+00 -0.00000000000E+00 -0.48437384316E+01  0.48437384316E+01  0.00000000000E+00 0.  1.
          1    1    1    2  502    0  0.13792764571E+02 -0.29068419141E+02  0.57588488856E+02  0.65967017476E+02  0.00000000000E+00 0.  1.
         -1    1    1    2    0  501 -0.13792764571E+02  0.29068419141E+02  0.39478260708E+03  0.39609155532E+03  0.00000000000E+00 0. -1.
</event>
<event>
 4    1  0.6824761E+001  0.2712194E+02  0.7546771E-02  0.1446387E+00
          2   -1    0    0  502    0  0.00000000000E+00  0.00000000000E+00  0.69604779658E+03  0.69604779658E+03  0.00000000000E+00 0.  1.
         -2   -1    0    0    0  501 -0.00000000000E+00 -0.00000000000E+00 -0.10628760141E+01  0.10628760141E+01  0.00000000000E+00 0. -1.
          1    1    1    2  502    0 -0.11035470189E+02 -0.24775353166E+02  0.37379485774E+03  0.37477752787E+03  0.00000000000E+00 0.  1.
         -1    1    1    2    0  501  0.11035470189E+02  0.24775353166E+02  0.32119006283E+03  0.32233314472E+03  0.00000000000E+00 0. -1.
</event>
<event>
 4    1  0.6824761E+001  0.2455122E+02  0.7546771E-02  0.1473887E+00
          2   -1    0    0  502    0  0.00000000000E+00  0.00000000000E+00  0.37353211023E+03  0.37353211023E+03  0.00000000000E+00 0.  1.
         -2   -1    0    0    0  501 -0.00000000000E+00 -0.00000000000E+00 -0.19489007453E+01  0.19489007453E+01  0.00000000000E+00 0. -1.
          1    1    1    2  502    0 -0.19764191026E+02  0.14564997234E+02  0.26365380383E+03  0.26479443095E+03  0.00000000000E+00 0.  1.
         -1    1    1    2    0  501  0.19764191026E+02 -0.14564997234E+02  0.10792940565E+03  0.11068658002E+03  0.00000000000E+00 0. -1.
</event>
<event>
 4    1  0.6824761E+001  0.2268575E+02  0.7546771E-02  0.1496482E+00
          2   -1    0    0  502    0  0.00000000000E+00  0.00000000000E+00  0.23607077597E+03  0.23607077597E+03  0.00000000000E+00 0.  1.
         -2   -1    0    0    0  501 -0.00000000000E+00 -0.00000000000E+00 -0.72860470940E+01  0.72860470940E+01  0.00000000000E+00 0. -1.
          1    1    1    2  502    0 -0.11559836182E+02  0.19519562109E+02  0.12531264257E+02  0.25916706993E+02  0.00000000000E+00 0. -1.
         -1    1    1    2    0  501  0.11559836182E+02 -0.19519562109E+02  0.21625346462E+03  0.21744011607E+03  0.00000000000E+00 0.  1.
</event>
<event>
 4    1  0.6824761E+001  0.3664619E+02  0.7546771E-02  0.1369345E+00
          2   -1    0    0  502    0  0.00000000000E+00  0.00000000000E+00  0.36341564207E+03  0.36341564207E+03  0.00000000000E+00 0.  1.
         -2   -1    0    0    0  501 -0.00000000000E+00 -0.00000000000E+00 -0.38940755679E+01  0.38940755679E+01  0.00000000000E+00 0. -1.
          1    1    1    2  502    0 -0.16681856392E+02 -0.32629109594E+02  0.13827094490E+03  0.14304473890E+03  0.00000000000E+00 0.  1.
         -1    1    1    2    0  501  0.16681856392E+02  0.32629109594E+02  0.22125062160E+03  0.22426497873E+03  0.00000000000E+00 0. -1.
</event>
<event>
 4    1  0.6824761E+001  0.5048700E+02  0.7546771E-02  0.1296075E+00
          2   -1    0    0  502    0  0.00000000000E+00  0.00000000000E+00  0.17719762077E+04  0.17719762077E+04  0.00000000000E+00 0. -1.
         -2   -1    0    0    0  501 -0.00000000000E+00 -0.00000000000E+00 -0.16107993960E+01  0.16107993960E+01  0.00000000000E+00 0.  1.
          1    1    1    2  502    0 -0.49954136794E+02 -0.73158577570E+01  0.11752370419E+04  0.11763209775E+04  0.00000000000E+00 0. -1.
         -1    1    1    2    0  501  0.49954136794E+02  0.73158577570E+01  0.59512836641E+03  0.59726602956E+03  0.00000000000E+00 0.  1.
</event>
<event>
 4    1  0.6824761E+001  0.3445203E+02  0.7546771E-02  0.1384457E+00
          2   -1    0    0  502    0  0.00000000000E+00  0.00000000000E+00  0.12161189228E+04  0.12161189228E+04  0.00000000000E+00 0.  1.
         -2   -1    0    0    0  501 -0.00000000000E+00 -0.00000000000E+00 -0.23238588217E+01  0.23238588217E+01  0.00000000000E+00 0. -1.
          1    1    1    2  502    0  0.29398702455E+02  0.17962697049E+02  0.10708688514E+04  0.10714229039E+04  0.00000000000E+00 0.  1.
         -1    1    1    2    0  501 -0.29398702455E+02 -0.17962697049E+02  0.14292621259E+03  0.14701987770E+03  0.00000000000E+00 0. -1.
</event>
<event>
 4    1  0.6824761E+001  0.3132839E+02  0.7546771E-02  0.1408394E+00
          2   -1    0    0  502    0  0.00000000000E+00  0.00000000000E+00  0.12495349898E+04  0.12495349898E+04  0.00000000000E+00 0. -1.
         -2   -1    0    0    0  501 -0.00000000000E+00 -0.00000000000E+00 -0.11139934370E+01  0.11139934370E+01  0.00000000000E+00 0.  1.
          1    1    1    2  502    0 -0.13270536143E+02  0.28378881838E+02  0.28462470340E+03  0.28634365690E+03  0.00000000000E+00 0.  1.
         -1    1    1    2    0  501  0.13270536143E+02 -0.28378881838E+02  0.96379629301E+03  0.96430532638E+03  0.00000000000E+00 0. -1.
</event>
<event>
 4    1  0.6824761E+001  0.3617941E+02  0.7546771E-02  0.1372456E+00
          2   -1    0    0  502    0  0.00000000000E+00  0.00000000000E+00  0.26909922475E+01  0.26909922475E+01  0.00000000000E+00 0. -1.
         -2   -1    0    0    0  501 -0.00000000000E+00 -0.00000000000E+00 -0.61344742522E+03  0.61344742522E+03  0.00000000000E+00 0.  1.
          1    1    1    2  502    0 -0.36067050595E+02 -0.28490938870E+01 -0.16519040488E+03  0.16910594117E+03  0.00000000000E+00 0. -1.
         -1    1    1    2    0  501  0.36067050595E+02  0.28490938870E+01 -0.44556602810E+03  0.44703247630E+03  0.00000000000E+00 0.  1.
</event>
<event>
 4    1  0.6824761E+001  0.2041434E+02  0.7546771E-02  0.1527793E+00
          2   -1    0    0  502    0  0.00000000000E+00  0.00000000000E+00  0.83155176260E+03  0.83155176260E+03  0.00000000000E+00 0. -1.
         -2   -1    0    0    0  501 -0.00000000000E+00 -0.00000000000E+00 -0.50904229858E+00  0.50904229858E+00  0.00000000000E+00 0.  1.
          1    1    1    2  502    0 -0.11347702364E+02  0.16969825895E+02  0.36377097865E+03  0.36434334116E+03  0.00000000000E+00 0.  1.
         -1    1    1    2    0  501  0.11347702364E+02 -0.16969825895E+02  0.46727174166E+03  0.46771746375E+03  0.00000000000E+00 0. -1.
</event>
<event>
 4    1  0.6824761E+001  0.2029613E+02  0.7546771E-02  0.1529556E+00
          2   -1    0    0  502    0  0.00000000000E+00  0.00000000000E+00  0.10187645950E+04  0.10187645950E+04  0.00000000000E+00 0. -1.
         -2   -1    0    0    0  501 -0.00000000000E+00 -0.00000000000E+00 -0.55334962121E+00  0.55334962121E+00  0.00000000000E+00 0.  1.
          1    1    1    2  502    0 -0.16665910087E+02  0.11583624048E+02  0.24463406732E+03  0.24547456039E+03  0.00000000000E+00 0.  1.
         -1    1    1    2    0  501  0.16665910087E+02 -0.11583624048E+02  0.77357717810E+03  0.77384338427E+03  0.00000000000E+00 0. -1.
</event>
<event>
 4    1  0.6824761E+001  0.2283312E+02  0.7546771E-02  0.1494604E+00
          2   -1    0    0  502    0  0.00000000000E+00  0.00000000000E+00  0.78735883384E+03  0.78735883384E+03  0.00000000000E+00 0. -1.
         -2   -1    0    0    0  501 -0.00000000000E+00 -0.00000000000E+00 -0.66553773816E+00  0.66553773816E+00  0.00000000000E+00 0.  1.
          1    1    1    2  502    0 -0.11487797703E+02  0.19732756964E+02  0.36524364763E+03  0.36595665499E+03  0.00000000000E+00 0.  1.
         -1    1    1    2    0  501  0.11487797703E+02 -0.19732756964E+02  0.42144964847E+03  0.42206771659E+03  0.00000000000E+00 0. -1.
</event>
<event>
 4    1  0.6824761E+001  0.5472044E+02  0.7546771E-02  0.1278909E+00
          2   -1    0    0  502    0  0.00000000000E+00  0.00000000000E+00  0.51845549920E+03  0.51845549920E+03  0.00000000000E+00 0. -1.
         -2   -1    0    0    0  501 -0.00000000000E+00 -0.00000000000E+00 -0.89721664066E+01  0.89721664066E+01  0.00000000000E+00 0.  1.
          1    1    1    2  502    0  0.36648991037E+02 -0.40634693386E+02  0.97330840465E+02  0.11165849433E+03  0.00000000000E+00 0.  1.
         -1    1    1    2    0  501 -0.36648991037E+02  0.40634693386E+02  0.41215249232E+03  0.41576917127E+03  0.00000000000E+00 0. -1.
</event>
<event>
 4    1  0.6824761E+001  0.2022331E+02  0.7546771E-02  0.1530649E+00
          2   -1    0    0  502    0  0.00000000000E+00  0.00000000000E+00  0.18108186631E+03  0.18108186631E+03  0.00000000000E+00 0.  1.
         -2   -1    0    0    0  501 -0.00000000000E+00 -0.00000000000E+00 -0.53652190142E+01  0.53652190142E+01  0.00000000000E+00 0. -1.
          1    1    1    2  502    0  0.17839369740E+02 -0.95257203804E+01  0.16920254469E+02  0.26368114699E+02  0.00000000000E+00 0. -1.
         -1    1    1    2    0  501 -0.17839369740E+02  0.95257203804E+01  0.15879639283E+03  0.16007897063E+03  0.00000000000E+00 0.  1.
</event>
<event>
 4    1  0.6824761E+001  0.2175842E+02  0.7546771E-02  0.1508706E+00
          2   -1    0    0  502    0  0.00000000000E+00  0.00000000000E+00  0.29545859760E+03  0.29545859760E+03  0.00000000000E+00 0.  1.
         -2   -1    0    0    0  501 -0.00000000000E+00 -0.00000000000E+00 -0.16034736729E+01  0.16034736729E+01  0.00000000000E+00 0. -1.
          1    1    1    2  502    0 -0.13725936423E+02 -0.16882755182E+02  0.15085553043E+03  0.15241659954E+03  0.00000000000E+00 0.  1.
         -1    1    1    2    0  501  0.13725936423E+02  0.16882755182E+02  0.14299959349E+03  0.14464547173E+03  0.00000000000E+00 0. -1.
</event>
<event>
 4    1  0.6824761E+001  0.2014382E+02  0.7546771E-02  0.1531849E+00
          2   -1    0    0  502    0  0.00000000000E+00  0.00000000000E+00  0.18529374215E+02  0.18529374215E+02  0.00000000000E+00 0.  1.
         -2   -1    0    0    0  501 -0.00000000000E+00 -0.00000000000E+00 -0.22074630319E+02  0.22074630319E+02  0.00000000000E+00 0. -1.
          1    1    1    2  502    0 -0.20140901615E+02 -0.34264284592E+00  0.38662928065E-01  0.20143853078E+02  0.00000000000E+00 0.  1.
         -1    1    1    2    0  501  0.20140901615E+02  0.34264284592E+00 -0.35839190319E+01  0.20460151456E+02  0.00000000000E+00 0. -1.
</event>
<event>
 4    1  0.6824761E+001  0.2062785E+02  0.7546771E-02  0.1524645E+00
          2   -1    0    0  502    0  0.00000000000E+00  0.00000000000E+00  0.14012054318E+04  0.14012054318E+04  0.00000000000E+00 0.  1.
         -2   -1    0    0    0  501 -0.00000000000E+00 -0.00000000000E+00 -0.36719746103E+00  0.36719746103E+00  0.00000000000E+00 0. -1.
          1    1    1    2  502    0 -0.19986878872E+00 -0.20626878966E+02  0.99189773096E+03  0.99211219969E+03  0.00000000000E+00 0.  1.
         -1    1    1    2    0  501  0.19986878872E+00  0.20626878966E+02  0.40894050334E+03  0.40946042954E+03  0.00000000000E+00 0. -1.
</event>
<event>
 4    1  0.6824761E+001  0.2946048E+02  0.7546771E-02  0.1424344E+00
          2   -1    0    0  502    0  0.00000000000E+00  0.00000000000E+00  0.25254974852E+03  0.25254974852E+03  0.00000000000E+00 0.  1.
         -2   -1    0    0    0  501 -0.00000000000E+00 -0.00000000000E+00 -0.38060289215E+01  0.38060289215E+01  0.00000000000E+00 0. -1.
          1    1    1    2  502    0  0.18487318078E+02 -0.22937715356E+02  0.84439438543E+02  0.89431194205E+02  0.00000000000E+00 0. -1.
         -1    1    1    2    0  501 -0.18487318078E+02  0.22937715356E+02  0.16430428105E+03  0.16692458323E+03  0.00000000000E+00 0.  1.
</event>
<event>
 4    1  0.6824761E+001  0.2527002E+02  0.7546771E-02  0.1465805E+00
          2   -1    0    0  502    0  0.00000000000E+00  0.00000000000E+00  0.44611907531E+03  0.44611907531E+03  0.00000000000E+00 0.  1.
         -2   -1    0    0    0  501 -0.00000000000E+00 -0.00000000000E+00 -0.15389257605E+01  0.15389257605E+01  0.00000000000E+00 0. -1.
          1    1    1    2  502    0  0.76894205183E+01 -0.24071699554E+02  0.28145550463E+03  0.28258764126E+03  0.00000000000E+00 0.  1.
         -1    1    1    2    0  501 -0.76894205183E+01  0.24071699554E+02  0.16312464491E+03  0.16507035980E+03  0.00000000000E+00 0. -1.
</event>
<event>
 4    1  0.6824761E+001  0.2357112E+02  0.7546771E-02  0.1485448E+00
          2   -1    0    0  502    0  0.00000000000E+00  0.00000000000E+00  0.71748519282E+00  0.71748519282E+00  0.00000000000E+00 0.  1.
         -2   -1    0    0    0  501 -0.00000000000E+00 -0.00000000000E+00 -0.80162885954E+03  0.80162885954E+03  0.00000000000E+00 0. -1.
          1    1    1    2  502    0 -0.14797636927E+02  0.18347418081E+02 -0.47443535445E+03  0.47502052941E+03  0.00000000000E+00 0. -1.
         -1    1    1    2    0  501  0.14797636927E+02 -0.18347418081E+02 -0.32647601990E+03  0.32732581533E+03  0.00000000000E+00 0.  1.
</event>
<event>
 4    1  0.6824761E+001  0.2064468E+02  0.7546771E-02  0.1524399E+00
          2   -1    0    0  502    0  0.00000000000E+00  0.00000000000E+00  0.22975687985E+03  0.22975687985E+03  0.00000000000E+00 0.  1.
         -2   -1    0    0    0  501 -0.00000000000E+00 -0.00000000000E+00 -0.18703776109E+02  0.18703776109E+02  0.00000000000E+00 0. -1.
          1    1    1    2  502    0 -0.45525912538E+01  0.20136448592E+02  0.22343555289E+03  0.22438727447E+03  0.00000000000E+00 0.  1.
         -1    1    1    2    0  501  0.45525912538E+01 -0.20136448592E+02 -0.12382449155E+02  0.24073381484E+02  0.00000000000E+00 0. -1.
</event>
<event>
 4    1  0.6824761E+001  0.3115046E+02  0.7546771E-02  0.1409856E+00
          2   -1    0    0  502    0  0.00000000000E+00  0.00000000000E+00  0.21793389855E+02  0.21793389855E+02  0.00000000000E+00 0.  1.
         -2   -1    0    0    0  501 -0.00000000000E+00 -0.00000000000E+00 -0.44967030999E+02  0.44967030999E+02  0.00000000000E+00 0. -1.
          1    1    1    2  502    0 -0.31135382630E+02  0.96898278137E+00 -0.82773261184E+01  0.32231430418E+02  0.00000000000E+00 0.  1.
         -1    1    1    2    0  501  0.31135382630E+02 -0.96898278137E+00 -0.14896315025E+02  0.34528990435E+02  0.00000000000E+00 0. -1.
</event>
<event>
 4    1  0.6824761E+001  0.5761943E+02  0.7546771E-02  0.1268143E+00
          2   -1    0    0  502    0  0.00000000000E+00  0.00000000000E+00  0.19177551742E+03  0.19177551742E+03  0.00000000000E+00 0. -1.
         -2   -1    0    0    0  501 -0.00000000000E+00 -0.00000000000E+00 -0.25815226272E+02  0.25815226272E+02  0.00000000000E+00 0.  1.
          1    1    1    2  502    0 -0.15770371334E+02 -0.55419259524E+02  0.20539580198E+02  0.61170853296E+02  0.00000000000E+00 0.  1.
         -1    1    1    2    0  501  0.15770371334E+02  0.55419259524E+02  0.14542071095E+03  0.15641989040E+03  0.00000000000E+00 0. -1.
</event>
<event>
 4    1  0.6824761E+001  0.3114144E+02  0.7546771E-02  0.1409930E+00
          2   -1    0    0  502    0  0.00000000000E+00  0.00000000000E+00  0.83023436857E+03  0.83023436857E+03  0.00000000000E+00 0.  1.
         -2   -1    0    0    0  501 -0.00000000000E+00 -0.00000000000E+00 -0.11681060511E+01  0.11681060511E+01  0.00000000000E+00 0. -1.
          1    1    1    2  502    0  0.26509857477E+02 -0.16340643263E+02  0.41303331166E+03  0.41420563215E+03  0.00000000000E+00 0.  1.
         -1    1    1    2    0  501 -0.26509857477E+02  0.16340643263E+02  0.41603295086E+03  0.41719684247E+03  0.00000000000E+00 0. -1.
</event>
<event>
 4    1  0.6824761E+001  0.3732975E+02  0.7546771E-02  0.1364886E+00
          2   -1    0    0  502    0  0.00000000000E+00  0.00000000000E+00  0.53341783889E+03  0.53341783889E+03  0.00000000000E+00 0. -1.
         -2   -1    0    0    0  501 -0.00000000000E+00 -0.00000000000E+00 -0.27538176887E+01  0.27538176887E+01  0.00000000000E+00 0.  1.
          1    1    1    2  502    0 -0.31435993857E+02 -0.20131786083E+02  0.20458428268E+03  0.20796211011E+03  0.00000000000E+00 0.  1.
         -1    1    1    2    0  501  0.31435993857E+02  0.20131786083E+02  0.32607973853E+03  0.32820954648E+03  0.00000000000E+00 0. -1.
</event>
<event>
 4    1  0.6824761E+001  0.2388699E+02  0.7546771E-02  0.1481651E+00
          2   -1    0    0  502    0  0.00000000000E+00  0.00000000000E+00  0.13645080538E+04  0.13645080538E+04  0.00000000000E+00 0.  1.
         -2   -1    0    0    0  501 -0.00000000000E+00 -0.00000000000E+00 -0.50170918461E+00  0.50170918461E+00  0.00000000000E+00 0. -1.
          1    1    1    2  502    0  0.23241135875E+02  0.55170444857E+01  0.40349343158E+03  0.40419987322E+03  0.00000000000E+00 0. -1.
         -1    1    1    2    0  501 -0.23241135875E+02 -0.55170444857E+01  0.96051291305E+03  0.96080988979E+03  0.00000000000E+00 0.  1.
</event>
<event>
 4    1  0.6824761E+001  0.3154369E+02  0.7546771E-02  0.1406640E+00
          2   -1    0    0  502    0  0.00000000000E+00  0.00000000000E+00  0.11211654955E+04  0.11211654955E+04  0.00000000000E+00 0.  1.
         -2   -1    0    0    0  501 -0.00000000000E+00 -0.00000000000E+00 -0.95386754557E+00  0.95386754557E+00  0.00000000000E+00 0. -1.
          1    1    1    2  502    0 -0.22547412414E+02  0.22059429522E+02  0.41208225491E+03  0.41328777994E+03  0.00000000000E+00 0. -1.
         -1    1    1    2    0  501  0.22547412414E+02 -0.22059429522E+02  0.70812937306E+03  0.70883158312E+03  0.00000000000E+00 0.  1.
</event>
<event>
 4    1  0.6824761E+001  0.2527353E+02  0.7546771E-02  0.1465766E+00
          2   -1    0    0  502    0  0.00000000000E+00  0.00000000000E+00  0.16625285196E+04  0.16625285196E+04  0.00000000000E+00 0. -1.
         -2   -1    0    0    0  501 -0.00000000000E+00 -0.00000000000E+00 -0.55579578283E+00  0.55579578283E+00  0.00000000000E+00 0.  1.
          1    1    1    2  502    0 -0.16411829670E+02  0.19219867160E+02  0.12930202947E+04  0.12932672709E+04  0.00000000000E+00 0. -1.
         -1    1    1    2    0  501  0.16411829670E+02 -0.19219867160E+02  0.36895242918E+03  0.36981704455E+03  0.00000000000E+00 0.  1.
</event>
<event>
 4    1  0.6824761E+001  0.2590227E+02  0.7546771E-02  0.1458958E+00
          2   -1    0    0  502    0  0.00000000000E+00  0.00000000000E+00  0.19704164479E+04  0.19704164479E+04  0.00000000000E+00 0. -1.
         -2   -1    0    0    0  501 -0.00000000000E+00 -0.00000000000E+00 -0.68659457588E+00  0.68659457588E+00  0.00000000000E+00 0.  1.
          1    1    1    2  502    0  0.18698964185E+02  0.17924182571E+02  0.28514169053E+03  0.28631575447E+03  0.00000000000E+00 0.  1.
         -1    1    1    2    0  501 -0.18698964185E+02 -0.17924182571E+02  0.16845881628E+04  0.16847872880E+04  0.00000000000E+00 0. -1.
</event>
<event>
 4    1  0.6824761E+001  0.2172898E+02  0.7546771E-02  0.1509106E+00
          2   -1    0    0  502    0  0.00000000000E+00  0.00000000000E+00  0.16367939534E+04  0.16367939534E+04  0.00000000000E+00 0. -1.
         -2   -1    0    0    0  501 -0.00000000000E+00 -0.00000000000E+00 -0.10221709243E+01  0.10221709243E+01  0.00000000000E+00 0.  1.
          1    1    1    2  502    0 -0.14687408838E+02 -0.16013388443E+02  0.15116887068E+04  0.15118448647E+04  0.00000000000E+00 0. -1.
         -1    1    1    2    0  501  0.14687408838E+02  0.16013388443E+02  0.12408307572E+03  0.12597125969E+03  0.00000000000E+00 0.  1.
</event>
<event>
 4    1  0.6824761E+001  0.2530333E+02  0.7546771E-02  0.1465438E+00
          2   -1    0    0  502    0  0.00000000000E+00  0.00000000000E+00  0.52588830804E+01  0.52588830804E+01  0.00000000000E+00 0. -1.
         -2   -1    0    0    0  501 -0.00000000000E+00 -0.00000000000E+00 -0.12739827883E+03  0.12739827883E+03  0.00000000000E+00 0.  1.
          1    1    1    2  502    0  0.25144558163E+02  0.28301806436E+01 -0.75038275389E+02  0.79189655265E+02  0.00000000000E+00 0.  1.
         -1    1    1    2    0  501 -0.25144558163E+02 -0.28301806436E+01 -0.47101120363E+02  0.53467506648E+02  0.00000000000E+00 0. -1.
</event>
<event>
 4    1  0.6824761E+001  0.2554484E+02  0.7546771E-02  0.1462800E+00
          2   -1    0    0  502    0  0.00000000000E+00  0.00000000000E+00  0.12814800810E+04  0.12814800810E+04  0.00000000000E+00 0. -1.
         -2   -1    0    0    0  501 -0.00000000000E+00 -0.00000000000E+00 -0.10759242014E+01  0.10759242014E+01  0.00000000000E+00 0.  1.
          1    1    1    2  502    0  0.22696253661E+02 -0.11722578866E+02  0.11056152336E+04  0.11059102964E+04  0.00000000000E+00 0. -1.
         -1    1    1    2    0  501 -0.22696253661E+02  0.11722578866E+02  0.17478892314E+03  0.17664570880E+03  0.00000000000E+00 0.  1.
</event>
<event>
 4    1  0.6824761E+001  0.2175647E+02  0.7546771E-02  0.1508733E+00
          2   -1    0    0  502    0  0.00000000000E+00  0.00000000000E+00  0.77185760564E+02  0.77185760564E+02  0.00000000000E+00 0. -1.
         -2   -1    0    0    0  501 -0.00000000000E+00 -0.00000000000E+00 -0.80004192436E+01  0.80004192436E+01  0.00000000000E+00 0.  1.
          1    1    1    2  502    0 -0.15805260476E+02 -0.14951177594E+02  0.55173286583E+02  0.59307971830E+02  0.00000000000E+00 0. -1.
         -1    1    1    2    0  501  0.15805260476E+02  0.14951177594E+02  0.14012054738E+02  0.25878207978E+02  0.00000000000E+00 0.  1.
</event>
<event>
 4    1  0.6824761E+001  0.2041679E+02  0.7546771E-02  0.1527757E+00
          2   -1    0    0  502    0  0.00000000000E+00  0.00000000000E+00  0.97838401366E+03  0.97838401366E+03  0.00000000000E+00 0.  1.
         -2   -1    0    0    0  501 -0.00000000000E+00 -0.00000000000E+00 -0.73533589913E+00  0.73533589913E+00  0.00000000000E+00 0. -1.
          1    1    1    2  502    0  0.19171719751E+02 -0.70207125029E+01  0.17132749191E+03  0.17253971927E+03  0.00000000000E+00 0. -1.
         -1    1    1    2    0  501 -0.19171719751E+02  0.70207125029E+01  0.80632118585E+03  0.80657963029E+03  0.00000000000E+00 0.  1.
</event>
<event>
 4    1  0.6824761E+001  0.2025268E+02  0.7546771E-02  0.1530207E+00
          2   -1    0    0  502    0  0.00000000000E+00  0.00000000000E+00  0.73089795201E+01  0.73089795201E+01  0.00000000000E+00 0. -1.
         -2   -1    0    0    0  501 -0.00000000000E+00 -0.00000000000E+00 -0.14604362287E+03  0.14604362287E+03  0.00000000000E+00 0.  1.
          1    1    1    2  502    0 -0.19985819190E+02  0.32769251204E+01 -0.12953449875E+03  0.13110819034E+03  0.00000000000E+00 0.  1.
         -1    1    1    2    0  501  0.19985819190E+02 -0.32769251204E+01 -0.92001445994E+01  0.22244412053E+02  0.00000000000E+00 0. -1.
</event>
<event>
 4    1  0.6824761E+001  0.4327394E+02  0.7546771E-02  0.1330299E+00
          2   -1    0    0  502    0  0.00000000000E+00  0.00000000000E+00  0.23431139553E+03  0.23431139553E+03  0.00000000000E+00 0.  1.
         -2   -1    0    0    0  501 -0.00000000000E+00 -0.00000000000E+00 -0.10248504996E+02  0.10248504996E+02  0.00000000000E+00 0. -1.
          1    1    1    2  502    0  0.25770993789E+02 -0.34763341969E+02  0.16940820273E+03  0.17484785734E+03  0.00000000000E+00 0.  1.
         -1    1    1    2    0  501 -0.25770993789E+02  0.34763341969E+02  0.54654687814E+02  0.69712043190E+02  0.00000000000E+00 0. -1.
</event>
<event>
 4    1  0.6824761E+001  0.2090824E+02  0.7546771E-02  0.1520579E+00
          2   -1    0    0  502    0  0.00000000000E+00  0.00000000000E+00  0.32036461261E+02  0.32036461261E+02  0.00000000000E+00 0.  1.
         -2   -1    0    0    0  501 -0.00000000000E+00 -0.00000000000E+00 -0.13830402053E+02  0.13830402053E+02  0.00000000000E+00 0. -1.
          1    1    1    2  502    0 -0.19331395429E+02  0.79656557908E+01  0.64515625091E+01  0.21880977588E+02  0.00000000000E+00 0. -1.
         -1    1    1    2    0  501  0.19331395429E+02 -0.79656557908E+01  0.11754496698E+02  0.23985885726E+02  0.00000000000E+00 0.  1.
</event>
<event>
 4    1  0.6824761E+001  0.2366904E+02  0.7546771E-02  0.1484264E+00
          2   -1    0    0  502    0  0.00000000000E+00  0.00000000000E+00  0.63158737711E+01  0.63158737711E+01  0.00000000000E+00 0. -1.
         -2   -1    0    0    0  501 -0.00000000000E+00 -0.00000000000E+00 -0.89896684866E+02  0.89896684866E+02  0.00000000000E+00 0.  1.
          1    1    1    2  502    0 -0.62940425784E+01 -0.22816842193E+02 -0.36241992737E+02  0.43286317667E+02  0.00000000000E+00 0. -1.
         -1    1    1    2    0  501  0.62940425784E+01  0.22816842193E+02 -0.47338818358E+02  0.52926240970E+02  0.00000000000E+00 0.  1.
</event>
<event>
 4    1  0.6824761E+001  0.2465745E+02  0.7546771E-02  0.1472672E+00
          2   -1    0    0  502    0  0.00000000000E+00  0.00000000000E+00  0.41048277313E+03  0.41048277313E+03  0.00000000000E+00 0. -1.
         -2   -1    0    0    0  501 -0.00000000000E+00 -0.00000000000E+00 -0.23252986678E+01  0.23252986678E+01  0.00000000000E+00 0.  1.
          1    1    1    2  502    0  0.22955534709E+02 -0.90018403995E+01  0.79717133935E+02  0.83443460782E+02  0.00000000000E+00 0.  1.
         -1    1    1    2    0  501 -0.22955534709E+02  0.90018403995E+01  0.32844034053E+03  0.32936461102E+03  0.00000000000E+00 0. -1.
</event>
<event>
 4    1  0.6824761E+001  0.3142495E+02  0.7546771E-02  0.1407605E+00
          2   -1    0    0  502    0  0.00000000000E+00  0.00000000000E+00  0.53556432276E+02  0.53556432276E+02  0.00000000000E+00 0.  1.
         -2   -1    0    0    0  501 -0.00000000000E+00 -0.00000000000E+00 -0.18722588022E+02  0.18722588022E+02  0.00000000000E+00 0. -1.
          1    1    1    2  502    0  0.30414961726E+02 -0.79030202161E+01  0.21864618223E+02  0.38283013927E+02  0.00000000000E+00 0.  1.
         -1    1    1    2    0  501 -0.30414961726E+02  0.79030202161E+01  0.12969226031E+02  0.33996006371E+02  0.00000000000E+00 0. -1.
</event>
<event>
 4    1  0.6824761E+001  0.2002786E+02  0.7546771E-02  0.1533610E+00
          2   -1    0    0  502    0  0.00000000000E+00  0.00000000000E+00  0.11011023474E+04  0.11011023474E+04  0.00000000000E+00 0. -1.
         -2   -1    0    0    0  501 -0.00000000000E+00 -0.00000000000E+00 -0.37284525350E+00  0.37284525350E+00  0.00000000000E+00 0.  1.
          1    1    1    2  502    0  0.19727590712E+02  0.34550170249E+01  0.46691485180E+03  0.46734419202E+03  0.00000000000E+00 0.  1.
         -1    1    1    2    0  501 -0.19727590712E+02 -0.34550170249E+01  0.63381465033E+03  0.63413100062E+03  0.00000000000E+00 0. -1.
</event>
<event>
 4    1  0.6824761E+001  0.2300621E+02  0.7546771E-02  0.1492420E+00
          2   -1    0    0  502    0  0.00000000000E+00  0.00000000000E+00  0.37602202656E+02  0.37602202656E+02  0.00000000000E+00 0.  1.
         -2   -1    0    0    0  501 -0.00000000000E+00 -0.00000000000E+00 -0.18636146763E+02  0.18636146763E+02  0.00000000000E+00 0. -1.
          1    1    1    2  502    0 -0.21142011641E+02  0.90719941659E+01 -0.44266653456E+01  0.23428211636E+02  0.00000000000E+00 0. -1.
         -1    1    1    2    0  501  0.21142011641E+02 -0.90719941659E+01  0.23392721239E+02  0.32810137783E+02  0.00000000000E+00 0.  1.
</event>
<event>
 4    1  0.6824761E+001  0.2006770E+02  0.7546771E-02  0.1533003E+00
          2   -1    0    0  502    0  0.00000000000E+00  0.00000000000E+00  0.11523872110E+02  0.11523872110E+02  0.00000000000E+00 0. -1.
         -2   -1    0    0    0  501 -0.00000000000E+00 -0.00000000000E+00 -0.49718297542E+02  0.49718297542E+02  0.00000000000E+00 0.  1.
          1    1    1    2  502    0  0.14702908792E+02 -0.13657852453E+02 -0.35788408789E+02  0.41030752664E+02  0.00000000000E+00 0.  1.
         -1    1    1    2    0  501 -0.14702908792E+02  0.13657852453E+02 -0.24060166429E+01  0.20211416988E+02  0.00000000000E+00 0. -1.
</event>
<event>
 4    1  0.6824761E+001  0.2408815E+02  0.7546771E-02  0.1479268E+00
          2   -1    0    0  502    0  0.00000000000E+00  0.00000000000E+00  0.76759585429E+03  0.76759585429E+03  0.00000000000E+00 0.  1.
         -2   -1    0    0    0  501 -0.00000000000E+00 -0.00000000000E+00 -0.12152542144E+01  0.12152542144E+01  0.00000000000E+00 0. -1.
          1    1    1    2  502    0 -0.24081614374E+02  0.56111416003E+00  0.61952187639E+03  0.61998999534E+03  0.00000000000E+00 0.  1.
         -1    1    1    2    0  501  0.24081614374E+02 -0.56111416003E+00  0.14685872369E+03  0.14882111317E+03  0.00000000000E+00 0. -1.
</event>
<event>
 4    1  0.6824761E+001  0.3156555E+02  0.7546771E-02  0.1406463E+00
          2   -1    0    0  502    0  0.00000000000E+00  0.00000000000E+00  0.11924939720E+02  0.11924939720E+02  0.00000000000E+00 0. -1.
         -2   -1    0    0    0  501 -0.00000000000E+00 -0.00000000000E+00 -0.92121827899E+02  0.92121827899E+02  0.00000000000E+00 0.  1.
          1    1    1    2  502    0 -0.17910589010E+02  0.25992204380E+02 -0.24233563565E+02  0.39795093796E+02  0.00000000000E+00 0.  1.
         -1    1    1    2    0  501  0.17910589010E+02 -0.25992204380E+02 -0.55963324613E+02  0.64251673822E+02  0.00000000000E+00 0. -1.
</event>
<event>
 4    1  0.6824761E+001  0.2074567E+02  0.7546771E-02  0.1522927E+00
          2   -1    0    0  502    0  0.00000000000E+00  0.00000000000E+00  0.91280399253E+03  0.91280399253E+03  0.00000000000E+00 0.  1.
         -2   -1    0    0    0  501 -0.00000000000E+00 -0.00000000000E+00 -0.88485717734E+00  0.88485717734E+00  0.00000000000E+00 0. -1.
          1    1    1    2  502    0  0.20706307133E+02 -0.12773716150E+01  0.14371353630E+03  0.14520317955E+03  0.00000000000E+00 0. -1.
         -1    1    1    2    0  501 -0.20706307133E+02  0.12773716150E+01  0.76820559905E+03  0.76848567016E+03  0.00000000000E+00 0.  1.
</event>
<event>
 4    1  0.6824761E+001  0.2103487E+02  0.7546771E-02  0.1518768E+00
          2   -1    0    0  502    0  0.00000000000E+00  0.00000000000E+00  0.22553049609E+02  0.22553049609E+02  0.00000000000E+00 0.  1.
         -2   -1    0    0    0  501 -0.00000000000E+00 -0.00000000000E+00 -0.19762652458E+02  0.19762652458E+02  0.00000000000E+00 0. -1.
          1    1    1    2  502    0  0.62726653598E+01  0.20077831347E+02 -0.40940663816E+00  0.21038851112E+02  0.00000000000E+00 0. -1.
         -1    1    1    2    0  501 -0.62726653598E+01 -0.20077831347E+02  0.31998037894E+01  0.21276850956E+02  0.00000000000E+00 0.  1.
</event>
<event>
 4    1  0.6824761E+001  0.2390481E+02  0.7546771E-02  0.1481439E+00
          2   -1    0    0  502    0  0.00000000000E+00  0.00000000000E+00  0.11833818410E+04  0.11833818410E+04  0.00000000000E+00 0. -1.
         -2   -1    0    0    0  501 -0.00000000000E+00 -0.00000000000E+00 -0.70349365529E+00  0.70349365529E+00  0.00000000000E+00 0.  1.
          1    1    1    2  502    0  0.88707248704E+01  0.22197978338E+02  0.25980219617E+03  0.26089963806E+03  0.00000000000E+00 0. -1.
         -1    1    1    2    0  501 -0.88707248704E+01 -0.22197978338E+02  0.92287615122E+03  0.92318569665E+03  0.00000000000E+00 0.  1.
</event>
<event>
 4    1  0.6824761E+001  0.2849154E+02  0.7546771E-02  0.1433174E+00
          2   -1    0    0  502    0  0.00000000000E+00  0.00000000000E+00  0.95693686756E+01  0.95693686756E+01  0.00000000000E+00 0.  1.
         -2   -1    0    0    0  501 -0.00000000000E+00 -0.00000000000E+00 -0.85284713603E+02  0.85284713603E+02  0.00000000000E+00 0. -1.
          1    1    1    2  502    0 -0.15940595604E+02 -0.23614941019E+02 -0.41321331281E+02  0.50191836452E+02  0.00000000000E+00 0. -1.
         -1    1    1    2    0  501  0.15940595604E+02  0.23614941019E+02 -0.34394013646E+02  0.44662245827E+02  0.00000000000E+00 0.  1.
</event>
<event>
 4    1  0.6824761E+001  0.2360353E+02  0.7546771E-02  0.1485056E+00
          2   -1    0    0  502    0  0.00000000000E+00  0.00000000000E+00  0.42419179505E+03  0.42419179505E+03  0.00000000000E+00 0. -1.
         -2   -1    0    0    0  501 -0.00000000000E+00 -0.00000000000E+00 -0.15483324711E+01  0.15483324711E+01  0.00000000000E+00 0.  1.
          1    1    1    2  502    0  0.41788267801E+01 -0.23230667369E+02  0.12839982767E+03  0.13055130120E+03  0.00000000000E+00 0. -1.
         -1    1    1    2    0  501 -0.41788267801E+01  0.23230667369E+02  0.29424363490E+03  0.29518882632E+03  0.00000000000E+00 0.  1.
</event>
<event>
 4    1  0.6824761E+001  0.2884716E+02  0.7546771E-02  0.1429886E+00
          2   -1    0    0  502    0  0.00000000000E+00  0.00000000000E+00  0.19336655525E+04  0.19336655525E+04  0.00000000000E+00 0.  1.
         -2   -1    0    0    0  501 -0.00000000000E+00 -0.00000000000E+00 -0.51746390555E+00  0.51746390555E+00  0.00000000000E+00 0. -1.
          1    1    1    2  502    0  0.26570050959E+02  0.11233478294E+02  0.56978107414E+03  0.57051085098E+03  0.00000000000E+00 0. -1.
         -1    1    1    2    0  501 -0.26570050959E+02 -0.11233478294E+02  0.13633670144E+04  0.13636721654E+04  0.00000000000E+00 0.  1.
</event>
<event>
 4    1  0.6824761E+001  0.2450152E+02  0.7546771E-02  0.1474458E+00
          2   -1    0    0  502    0  0.00000000000E+00  0.00000000000E+00  0.20599944129E+04  0.20599944129E+04  0.00000000000E+00 0. -1.
         -2   -1    0    0    0  501 -0.00000000000E+00 -0.00000000000E+00 -0.33773709296E+00  0.33773709296E+00  0.00000000000E+00 0.  1.
          1    1    1    2  502    0  0.23641449715E+02 -0.64347901711E+01  0.64833583060E+03  0.64879863895E+03  0.00000000000E+00 0.  1.
         -1    1    1    2    0  501 -0.23641449715E+02  0.64347901711E+01  0.14113208452E+04  0.14115335110E+04  0.00000000000E+00 0. -1.
</event>
<event>
 4    1  0.6824761E+001  0.2602479E+02  0.7546771E-02  0.1457658E+00
          2   -1    0    0  502    0  0.00000000000E+00  0.00000000000E+00  0.30023241741E+03  0.30023241741E+03  0.00000000000E+00 0.  1.
         -2   -1    0    0    0  501 -0.00000000000E+00 -0.00000000000E+00 -0.22884662779E+01  0.22884662779E+01  0.00000000000E+00 0. -1.
          1    1    1    2  502    0 -0.17619770319E+02 -0.19152890110E+02  0.16702058933E+03  0.16903599251E+03  0.00000000000E+00 0.  1.
         -1    1    1    2    0  501  0.17619770319E+02  0.19152890110E+02  0.13092336180E+03  0.13348489117E+03  0.00000000000E+00 0. -1.
</event>
<event>
 4    1  0.6824761E+001  0.2158426E+02  0.7546771E-02  0.1511084E+00
          2   -1    0    0  502    0  0.00000000000E+00  0.00000000000E+00  0.16042866112E+04  0.16042866112E+04  0.00000000000E+00 0. -1.
         -2   -1    0    0    0  501 -0.00000000000E+00 -0.00000000000E+00 -0.31310136998E+00  0.31310136998E+00  0.00000000000E+00 0.  1.
          1    1    1    2  502    0  0.20123196635E+02  0.78062402493E+01  0.10180328942E+04  0.10182616825E+04  0.00000000000E+00 0. -1.
         -1    1    1    2    0  501 -0.20123196635E+02 -0.78062402493E+01  0.58594061556E+03  0.58633802998E+03  0.00000000000E+00 0.  1.
</event>
<event>
 4    1  0.6824761E+001  0.3860412E+02  0.7546771E-02  0.1356866E+00
          2   -1    0    0  502    0  0.00000000000E+00  0.00000000000E+00  0.72530723302E+03  0.72530723302E+03  0.00000000000E+00 0.  1.
         -2   -1    0    0    0  501 -0.00000000000E+00 -0.00000000000E+00 -0.28032071446E+01  0.28032071446E+01  0.00000000000E+00 0. -1.
          1    1    1    2  502    0  0.11285413436E+02 -0.36917713991E+02  0.54937500839E+03  0.55072967779E+03  0.00000000000E+00 0.  1.
         -1    1    1    2    0  501 -0.11285413436E+02  0.36917713991E+02  0.17312901749E+03  0.17738076237E+03  0.00000000000E+00 0. -1.
</event>
<event>
 4    1  0.6824761E+001  0.2332559E+02  0.7546771E-02  0.1488450E+00
          2   -1    0    0  502    0  0.00000000000E+00  0.00000000000E+00  0.20308698724E+03  0.20308698724E+03  0.00000000000E+00 0. -1.
         -2   -1    0    0    0  501 -0.00000000000E+00 -0.00000000000E+00 -0.26860488142E+01  0.26860488142E+01  0.00000000000E+00 0.  1.
          1    1    1    2  502    0  0.22652696390E+02 -0.55622189167E+01  0.94953666037E+02  0.97776692657E+02  0.00000000000E+00 0.  1.
         -1    1    1    2    0  501 -0.22652696390E+02  0.55622189167E+01  0.10544727238E+03  0.10799634339E+03  0.00000000000E+00 0. -1.
</event>
<event>
 4    1  0.6824761E+001  0.2495468E+02  0.7546771E-02  0.1469311E+00
          2   -1    0    0  502    0  0.00000000000E+00  0.00000000000E+00  0.24848725158E+03  0.24848725158E+03  0.00000000000E+00 0. -1.
         -2   -1    0    0    0  501 -0.00000000000E+00 -0.00000000000E+00 -0.48409974407E+01  0.48409974407E+01  0.00000000000E+00 0.  1.
          1    1    1    2  502    0  0.24097692033E+02  0.64836156309E+01  0.20979003080E+03  0.21126900638E+03  0.00000000000E+00 0. -1.
         -1    1    1    2    0  501 -0.24097692033E+02 -0.64836156309E+01  0.33856223344E+02  0.42059242648E+02  0.00000000000E+00 0.  1.
</event>
<event>
 4    1  0.6824761E+001  0.2154347E+02  0.7546771E-02  0.1511645E+00
          2   -1    0    0  502    0  0.00000000000E+00  0.00000000000E+00  0.16441291447E+04  0.16441291447E+04  0.00000000000E+00 0. -1.
         -2   -1    0    0    0  501 -0.00000000000E+00 -0.00000000000E+00 -0.85403985218E+00  0.85403985218E+00  0.00000000000E+00 0.  1.
          1    1    1    2  502    0  0.69330507782E+01  0.20397395774E+02  0.14946072223E+04  0.14947624794E+04  0.00000000000E+00 0. -1.
         -1    1    1    2    0  501 -0.69330507782E+01 -0.20397395774E+02  0.14866788255E+03  0.15022070513E+03  0.00000000000E+00 0.  1.
</event>
<event>
 4    1  0.6824761E+001  0.3038246E+02  0.7546771E-02  0.1416301E+00
          2   -1    0    0  502    0  0.00000000000E+00  0.00000000000E+00  0.19706832061E+03  0.19706832061E+03  0.00000000000E+00 0.  1.
         -2   -1    0    0    0  501 -0.00000000000E+00 -0.00000000000E+00 -0.61793210390E+01  0.61793210390E+01  0.00000000000E+00 0. -1.
          1    1    1    2  502    0  0.11557960868E+02 -0.28098170809E+02  0.45455613538E+02  0.54674550427E+02  0.00000000000E+00 0. -1.
         -1    1    1    2    0  501 -0.11557960868E+02  0.28098170809E+02  0.14543338603E+03  0.14857309122E+03  0.00000000000E+00 0.  1.
</event>
<event>
 4    1  0.6824761E+001  0.2395540E+02  0.7546771E-02  0.1480837E+00
          2   -1    0    0  502    0  0.00000000000E+00  0.00000000000E+00  0.78919257781E+03  0.78919257781E+03  0.00000000000E+00 0. -1.
         -2   -1    0    0    0  501 -0.00000000000E+00 -0.00000000000E+00 -0.90315720134E+00  0.90315720134E+00  0.00000000000E+00 0.  1.
          1    1    1    2  502    0 -0.23435003113E+02 -0.49660569896E+01  0.21974983479E+03  0.22105169302E+03  0.00000000000E+00 0.  1.
         -1    1    1    2    0  501  0.23435003113E+02  0.49660569896E+01  0.56853958582E+03  0.56904404200E+03  0.00000000000E+00 0. -1.
</event>
<event>
 4    1  0.6824761E+001  0.2648687E+02  0.7546771E-02  0.1452832E+00
          2   -1    0    0  502    0  0.00000000000E+00  0.00000000000E+00  0.45606841574E+02  0.45606841574E+02  0.00000000000E+00 0. -1.
         -2   -1    0    0    0  501 -0.00000000000E+00 -0.00000000000E+00 -0.22802992865E+02  0.22802992865E+02  0.00000000000E+00 0.  1.
          1    1    1    2  502    0 -0.26198341955E+02  0.38988432648E+01 -0.81102016812E+01  0.27700712469E+02  0.00000000000E+00 0.  1.
         -1    1    1    2    0  501  0.26198341955E+02 -0.38988432648E+01  0.30914050390E+02  0.40709121969E+02  0.00000000000E+00 0. -1.
</event>
<event>
 4    1  0.6824761E+001  0.2130700E+02  0.7546771E-02  0.1514927E+00
          2   -1    0    0  502    0  0.00000000000E+00  0.00000000000E+00  0.81036473721E+00  0.81036473721E+00  0.00000000000E+00 0.  1.
         -2   -1    0    0    0  501 -0.00000000000E+00 -0.00000000000E+00 -0.60065571339E+03  0.60065571339E+03  0.00000000000E+00 0. -1.
          1    1    1    2  502    0 -0.10171896389E+02 -0.18722197496E+02 -0.37794405497E+03  0.37854418084E+03  0.00000000000E+00 0. -1.
         -1    1    1    2    0  501  0.10171896389E+02  0.18722197496E+02 -0.22190129368E+03  0.22292189729E+03  0.00000000000E+00 0.  1.
</event>
<event>
 4    1  0.6824761E+001  0.3185827E+02  0.7546771E-02  0.1404107E+00
          2   -1    0    0  502    0  0.00000000000E+00  0.00000000000E+00  0.91237754049E+03  0.91237754049E+03  0.00000000000E+00 0.  1.
         -2   -1    0    0    0  501 -0.00000000000E+00 -0.00000000000E+00 -0.11411709054E+01  0.11411709054E+01  0.00000000000E+00 0. -1.
          1    1    1    2  502    0  0.27931948436E+02  0.15321738736E+02  0.38312152121E+03  0.38444381831E+03  0.00000000000E+00 0. -1.
         -1    1    1    2    0  501 -0.27931948436E+02 -0.15321738736E+02  0.52811484838E+03  0.52907489309E+03  0.00000000000E+00 0.  1.
</event>
<event>
 4    1  0.6824761E+001  0.2683825E+02  0.7546771E-02  0.1449240E+00
          2   -1    0    0  502    0  0.00000000000E+00  0.00000000000E+00  0.10831517731E+03  0.10831517731E+03  0.00000000000E+00 0.  1.
         -2   -1    0    0    0  501 -0.00000000000E+00 -0.00000000000E+00 -0.11986509578E+02  0.11986509578E+02  0.00000000000E+00 0. -1.
          1    1    1    2  502    0 -0.26058863138E+02  0.64208658647E+01  0.88299542593E+02  0.92288141646E+02  0.00000000000E+00 0. -1.
         -1    1    1    2    0  501  0.26058863138E+02 -0.64208658647E+01  0.80291251390E+01  0.28013545242E+02  0.00000000000E+00 0.  1.
</event>
<event>
 4    1  0.6824761E+001  0.3051610E+02  0.7546771E-02  0.1415164E+00
          2   -1    0    0  502    0  0.00000000000E+00  0.00000000000E+00  0.13677835834E+02  0.13677835834E+02  0.00000000000E+00 0. -1.
         -2   -1    0    0    0  501 -0.00000000000E+00 -0.00000000000E+00 -0.68679721739E+02  0.68679721739E+02  0.00000000000E+00 0.  1.
          1    1    1    2  502    0  0.21046532626E+02  0.22096962681E+02 -0.23663575337E+02  0.38616021197E+02  0.00000000000E+00 0. -1.
         -1    1    1    2    0  501 -0.21046532626E+02 -0.22096962681E+02 -0.31338310567E+02  0.43741536376E+02  0.00000000000E+00 0.  1.
</event>
<event>
 4    1  0.6824761E+001  0.3287778E+02  0.7546771E-02  0.1396130E+00
          2   -1    0    0  502    0  0.00000000000E+00  0.00000000000E+00  0.28232562307E+03  0.28232562307E+03  0.00000000000E+00 0.  1.
         -2   -1    0    0    0  501 -0.00000000000E+00 -0.00000000000E+00 -0.40038964739E+01  0.40038964739E+01  0.00000000000E+00 0. -1.
          1    1    1    2  502    0 -0.32851973097E+02  0.13024393939E+01  0.10921611730E+03  0.11405748008E+03  0.00000000000E+00 0. -1.
         -1    1    1    2    0  501  0.32851973097E+02 -0.13024393939E+01  0.16910560929E+03  0.17227203946E+03  0.00000000000E+00 0.  1.
</event>
<event>
 4    1  0.6824761E+001  0.2386306E+02  0.7546771E-02  0.1481936E+00
          2   -1    0    0  502    0  0.00000000000E+00  0.00000000000E+00  0.44545631483E+03  0.44545631483E+03  0.00000000000E+00 0.  1.
         -2   -1    0    0    0  501 -0.00000000000E+00 -0.00000000000E+00 -0.13605974988E+01  0.13605974988E+01  0.00000000000E+00 0. -1.
          1    1    1    2  502    0  0.20680463338E+02 -0.11906471522E+02  0.27697874190E+03  0.27800480048E+03  0.00000000000E+00 0. -1.
         -1    1    1    2    0  501 -0.20680463338E+02  0.11906471522E+02  0.16711697543E+03  0.16881211184E+03  0.00000000000E+00 0.  1.
</event>
<event>
 4    1  0.6824761E+001  0.2087964E+02  0.7546771E-02  0.1520990E+00
          2   -1    0    0  502    0  0.00000000000E+00  0.00000000000E+00  0.61129764261E+03  0.61129764261E+03  0.00000000000E+00 0.  1.
         -2   -1    0    0    0  501 -0.00000000000E+00 -0.00000000000E+00 -0.76817460946E+00  0.76817460946E+00  0.00000000000E+00 0. -1.
          1    1    1    2  502    0 -0.16963899427E+02 -0.12173143225E+02  0.22337364140E+03  0.22434737121E+03  0.00000000000E+00 0. -1.
         -1    1    1    2    0  501  0.16963899427E+02  0.12173143225E+02  0.38715582660E+03  0.38771844600E+03  0.00000000000E+00 0.  1.
</event>
<event>
 4    1  0.6824761E+001  0.2151492E+02  0.7546771E-02  0.1512039E+00
          2   -1    0    0  502    0  0.00000000000E+00  0.00000000000E+00  0.18275200060E+04  0.18275200060E+04  0.00000000000E+00 0. -1.
         -2   -1    0    0    0  501 -0.00000000000E+00 -0.00000000000E+00 -0.32000610502E+00  0.32000610502E+00  0.00000000000E+00 0.  1.
          1    1    1    2  502    0 -0.99916543370E+01 -0.19054094876E+02  0.49630237220E+03  0.49676849371E+03  0.00000000000E+00 0.  1.
         -1    1    1    2    0  501  0.99916543370E+01  0.19054094876E+02  0.13308976277E+04  0.13310715184E+04  0.00000000000E+00 0. -1.
</event>
<event>
 4    1  0.6824761E+001  0.3137790E+02  0.7546771E-02  0.1407989E+00
          2   -1    0    0  502    0  0.00000000000E+00  0.00000000000E+00  0.18646963793E+02  0.18646963793E+02  0.00000000000E+00 0. -1.
         -2   -1    0    0    0  501 -0.00000000000E+00 -0.00000000000E+00 -0.67981347946E+02  0.67981347946E+02  0.00000000000E+00 0.  1.
          1    1    1    2  502    0  0.31363831473E+02 -0.93945962681E+00 -0.41989614574E+01  0.31657602348E+02  0.00000000000E+00 0.  1.
         -1    1    1    2    0  501 -0.31363831473E+02  0.93945962681E+00 -0.45135422696E+02  0.54970709391E+02  0.00000000000E+00 0. -1.
</event>
<event>
 4    1  0.6824761E+001  0.3019060E+02  0.7546771E-02  0.1417947E+00
          2   -1    0    0  502    0  0.00000000000E+00  0.00000000000E+00  0.20031689079E+02  0.20031689079E+02  0.00000000000E+00 0.  1.
         -2   -1    0    0    0  501 -0.00000000000E+00 -0.00000000000E+00 -0.48782294438E+02  0.48782294438E+02  0.00000000000E+00 0. -1.
          1    1    1    2  502    0 -0.43688315997E+01  0.29872823904E+02 -0.23298156753E+02  0.38134976145E+02  0.00000000000E+00 0.  1.
         -1    1    1    2    0  501  0.43688315997E+01 -0.29872823904E+02 -0.54524486066E+01  0.30679007372E+02  0.00000000000E+00 0. -1.
</event>
<event>
 4    1  0.6824761E+001  0.3462973E+02  0.7546771E-02  0.1383185E+00
          2   -1    0    0  502    0  0.00000000000E+00  0.00000000000E+00  0.90774973676E+02  0.90774973676E+02  0.00000000000E+00 0.  1.
         -2   -1    0    0    0  501 -0.00000000000E+00 -0.00000000000E+00 -0.13407691744E+02  0.13407691744E+02  0.00000000000E+00 0. -1.
          1    1    1    2  502    0 -0.18778694335E+02 -0.29096032811E+02  0.32372623897E+02  0.47404696647E+02  0.00000000000E+00 0. -1.
         -1    1    1    2    0  501  0.18778694335E+02  0.29096032811E+02  0.44994658036E+02  0.56777968773E+02  0.00000000000E+00 0.  1.
</event>
<event>
 4    1  0.6824761E+001  0.2153858E+02  0.7546771E-02  0.1511712E+00
          2   -1    0    0  502    0  0.00000000000E+00  0.00000000000E+00  0.22550669667E+03  0.22550669667E+03  0.00000000000E+00 0. -1.
         -2   -1    0    0    0  501 -0.00000000000E+00 -0.00000000000E+00 -0.60630428536E+01  0.60630428536E+01  0.00000000000E+00 0.  1.
          1    1    1    2  502    0  0.28164190019E+01  0.21353641952E+02  0.20383576797E+03  0.20497056019E+03  0.00000000000E+00 0. -1.
         -1    1    1    2    0  501 -0.28164190019E+01 -0.21353641952E+02  0.15607885846E+02  0.26599179333E+02  0.00000000000E+00 0.  1.
</event>
<event>
 4    1  0.6824761E+001  0.4690906E+02  0.7546771E-02  0.1312160E+00
          2   -1    0    0  502    0  0.00000000000E+00  0.00000000000E+00  0.16110161002E+04  0.16110161002E+04  0.00000000000E+00 0.  1.
         -2   -1    0    0    0  501 -0.00000000000E+00 -0.00000000000E+00 -0.32831486275E+01  0.32831486275E+01  0.00000000000E+00 0. -1.
          1    1    1    2  502    0 -0.37426694650E+02 -0.28279013746E+02  0.14206743071E+04  0.14214485383E+04  0.00000000000E+00 0.  1.
         -1    1    1    2    0  501  0.37426694650E+02  0.28279013746E+02  0.18705864444E+03  0.19285071052E+03  0.00000000000E+00 0. -1.
</event>
<event>
 4    1  0.6824761E+001  0.2689222E+02  0.7546771E-02  0.1448694E+00
          2   -1    0    0  502    0  0.00000000000E+00  0.00000000000E+00  0.62548673549E+02  0.62548673549E+02  0.00000000000E+00 0.  1.
         -2   -1    0    0    0  501 -0.00000000000E+00 -0.00000000000E+00 -0.11666805597E+02  0.11666805597E+02  0.00000000000E+00 0. -1.
          1    1    1    2  502    0  0.88348568021E+01 -0.25399544563E+02  0.21924884243E+02  0.34697148410E+02  0.00000000000E+00 0.  1.
         -1    1    1    2    0  501 -0.88348568021E+01  0.25399544563E+02  0.28956983708E+02  0.39518330736E+02  0.00000000000E+00 0. -1.
</event>
<event>
 4    1  0.6824761E+001  0.3814673E+02  0.7546771E-02  0.1359702E+00
          2   -1    0    0  502    0  0.00000000000E+00  0.00000000000E+00  0.87361620101E+01  0.87361620101E+01  0.00000000000E+00 0.  1.
         -2   -1    0    0    0  501 -0.00000000000E+00 -0.00000000000E+00 -0.22411786573E+03  0.22411786573E+03  0.00000000000E+00 0. -1.
          1    1    1    2  502    0  0.33241362956E+02 -0.18713232594E+02 -0.16668842036E+03  0.17099766889E+03  0.00000000000E+00 0. -1.
         -1    1    1    2    0  501 -0.33241362956E+02  0.18713232594E+02 -0.48693283363E+02  0.61856358848E+02  0.00000000000E+00 0.  1.
</event>
<event>
 4    1  0.6824761E+001  0.3926755E+02  0.7546771E-02  0.1352832E+00
          2   -1    0    0  502    0  0.00000000000E+00  0.00000000000E+00  0.10428140704E+02  0.10428140704E+02  0.00000000000E+00 0. -1.
         -2   -1    0    0    0  501 -0.00000000000E+00 -0.00000000000E+00 -0.20964592329E+03  0.20964592329E+03  0.00000000000E+00 0.  1.
          1    1    1    2  502    0  0.12872486866E+02 -0.37097703165E+02 -0.15934383028E+03  0.16411092817E+03  0.00000000000E+00 0.  1.
         -1    1    1    2    0  501 -0.12872486866E+02  0.37097703165E+02 -0.39873952307E+02  0.55963135821E+02  0.00000000000E+00 0. -1.
</event>
<event>
 4    1  0.6824761E+001  0.2739733E+02  0.7546771E-02  0.1443657E+00
          2   -1    0    0  502    0  0.00000000000E+00  0.00000000000E+00  0.16904075301E+02  0.16904075301E+02  0.00000000000E+00 0.  1.
         -2   -1    0    0    0  501 -0.00000000000E+00 -0.00000000000E+00 -0.48270697193E+02  0.48270697193E+02  0.00000000000E+00 0. -1.
          1    1    1    2  502    0  0.25912228148E+02 -0.88977640725E+01 -0.64605595245E+01  0.28148758453E+02  0.00000000000E+00 0.  1.
         -1    1    1    2    0  501 -0.25912228148E+02  0.88977640725E+01 -0.24906062368E+02  0.37026014041E+02  0.00000000000E+00 0. -1.
</event>
<event>
 4    1  0.6824761E+001  0.2536009E+02  0.7546771E-02  0.1464815E+00
          2   -1    0    0  502    0  0.00000000000E+00  0.00000000000E+00  0.67803772580E+02  0.67803772580E+02  0.00000000000E+00 0. -1.
         -2   -1    0    0    0  501 -0.00000000000E+00 -0.00000000000E+00 -0.15120259146E+02  0.15120259146E+02  0.00000000000E+00 0.  1.
          1    1    1    2  502    0 -0.20651322593E+02  0.14719276661E+02  0.10301937462E+01  0.25381007257E+02  0.00000000000E+00 0.  1.
         -1    1    1    2    0  501  0.20651322593E+02 -0.14719276661E+02  0.51653319688E+02  0.57543024469E+02  0.00000000000E+00 0. -1.
</event>
<event>
 4    1  0.6824761E+001  0.2287129E+02  0.7546771E-02  0.1494121E+00
          2   -1    0    0  502    0  0.00000000000E+00  0.00000000000E+00  0.33644815118E+03  0.33644815118E+03  0.00000000000E+00 0. -1.
         -2   -1    0    0    0  501 -0.00000000000E+00 -0.00000000000E+00 -0.20201256917E+01  0.20201256917E+01  0.00000000000E+00 0.  1.
          1    1    1    2  502    0 -0.22766308626E+02 -0.21888197530E+01  0.85987745251E+02  0.88977458234E+02  0.00000000000E+00 0.  1.
         -1    1    1    2    0  501  0.22766308626E+02  0.21888197530E+01  0.24844028024E+03  0.24949081864E+03  0.00000000000E+00 0. -1.
</event>
<event>
 4    1  0.6824761E+001  0.3730325E+02  0.7546771E-02  0.1365057E+00
          2   -1    0    0  502    0  0.00000000000E+00  0.00000000000E+00  0.22115712838E+04  0.22115712838E+04  0.00000000000E+00 0.  1.
         -2   -1    0    0    0  501 -0.00000000000E+00 -0.00000000000E+00 -0.63041414064E+00  0.63041414064E+00  0.00000000000E+00 0. -1.
          1    1    1    2  502    0  0.37149852937E+02  0.33794341309E+01  0.11539082498E+04  0.11545110572E+04  0.00000000000E+00 0. -1.
         -1    1    1    2    0  501 -0.37149852937E+02 -0.33794341309E+01  0.10570326199E+04  0.10576906408E+04  0.00000000000E+00 0.  1.
</event>
<event>
 4    1  0.6824761E+001  0.2949445E+02  0.7546771E-02  0.1424041E+00
          2   -1    0    0  502    0  0.00000000000E+00  0.00000000000E+00  0.46324047915E+02  0.46324047915E+02  0.00000000000E+00 0.  1.
         -2   -1    0    0    0  501 -0.00000000000E+00 -0.00000000000E+00 -0.18819575377E+02  0.18819575377E+02  0.00000000000E+00 0. -1.
          1    1    1    2  502    0  0.14585347823E+02 -0.25635722528E+02  0.15263295604E+02  0.33209800261E+02  0.00000000000E+00 0. -1.
         -1    1    1    2    0  501 -0.14585347823E+02  0.25635722528E+02  0.12241176933E+02  0.31933823031E+02  0.00000000000E+00 0.  1.
</event>
<event>
 4    1  0.6824761E+001  0.2477512E+02  0.7546771E-02  0.1471335E+00
          2   -1    0    0  502    0  0.00000000000E+00  0.00000000000E+00  0.85748264160E+02  0.85748264160E+02  0.00000000000E+00 0. -1.
         -2   -1    0    0    0  501 -0.00000000000E+00 -0.00000000000E+00 -0.86124474628E+01  0.86124474628E+01  0.00000000000E+00 0.  1.
          1    1    1    2  502    0 -0.23867389070E+02  0.66448701572E+01  0.57954937673E+02  0.63028417092E+02  0.00000000000E+00 0. -1.
         -1    1    1    2    0  501  0.23867389070E+02 -0.66448701572E+01  0.19180879025E+02  0.31332294531E+02  0.00000000000E+00 0.  1.
</event>
<event>
 4    1  0.6824761E+001  0.2829682E+02  0.7546771E-02  0.1434999E+00
          2   -1    0    0  502    0  0.00000000000E+00  0.00000000000E+00  0.18147010457E+03  0.18147010457E+03  0.00000000000E+00 0. -1.
         -2   -1    0    0    0  501 -0.00000000000E+00 -0.00000000000E+00 -0.52556861963E+01  0.52556861963E+01  0.00000000000E+00 0.  1.
          1    1    1    2  502    0  0.27732339478E+02 -0.56238342500E+01  0.50708278053E+02  0.58069265775E+02  0.00000000000E+00 0.  1.
         -1    1    1    2    0  501 -0.27732339478E+02  0.56238342500E+01  0.12550614032E+03  0.12865652499E+03  0.00000000000E+00 0. -1.
</event>
<event>
 4    1  0.6824761E+001  0.2572446E+02  0.7546771E-02  0.1460860E+00
          2   -1    0    0  502    0  0.00000000000E+00  0.00000000000E+00  0.16316833087E+03  0.16316833087E+03  0.00000000000E+00 0.  1.
         -2   -1    0    0    0  501 -0.00000000000E+00 -0.00000000000E+00 -0.57099792905E+01  0.57099792905E+01  0.00000000000E+00 0. -1.
          1    1    1    2  502    0 -0.25703544247E+02 -0.10372434678E+01  0.12418003326E+03  0.12681651596E+03  0.00000000000E+00 0.  1.
         -1    1    1    2    0  501  0.25703544247E+02  0.10372434678E+01  0.33278318324E+02  0.42061794200E+02  0.00000000000E+00 0. -1.
</event>
<event>
 4    1  0.6824761E+001  0.3073469E+02  0.7546771E-02  0.1413317E+00
          2   -1    0    0  502    0  0.00000000000E+00  0.00000000000E+00  0.33834976293E+02  0.33834976293E+02  0.00000000000E+00 0.  1.
         -2   -1    0    0    0  501 -0.00000000000E+00 -0.00000000000E+00 -0.28494577608E+02  0.28494577608E+02  0.00000000000E+00 0. -1.
          1    1    1    2  502    0  0.25895108702E+02 -0.16554888486E+02  0.71015110526E+01  0.31544451916E+02  0.00000000000E+00 0.  1.
         -1    1    1    2    0  501 -0.25895108702E+02  0.16554888486E+02 -0.17611123678E+01  0.30785101985E+02  0.00000000000E+00 0. -1.
</event>
<event>
 4    1  0.6824761E+001  0.2325802E+02  0.7546771E-02  0.1489283E+00
          2   -1    0    0  502    0  0.00000000000E+00  0.00000000000E+00  0.76572886179E+03  0.76572886179E+03  0.00000000000E+00 0. -1.
         -2   -1    0    0    0  501 -0.00000000000E+00 -0.00000000000E+00 -0.12073160986E+01  0.12073160986E+01  0.00000000000E+00 0.  1.
          1    1    1    2  502    0  0.62087466750E+00 -0.23249732907E+02  0.62925525176E+03  0.62968492711E+03  0.00000000000E+00 0. -1.
         -1    1    1    2    0  501 -0.62087466750E+00  0.23249732907E+02  0.13526629393E+03  0.13725125078E+03  0.00000000000E+00 0.  1.
</event>
<event>
 4    1  0.6824761E+001  0.3025333E+02  0.7546771E-02  0.1417407E+00
          2   -1    0    0  502    0  0.00000000000E+00  0.00000000000E+00  0.53789001775E+03  0.53789001775E+03  0.00000000000E+00 0.  1.
         -2   -1    0    0    0  501 -0.00000000000E+00 -0.00000000000E+00 -0.25432584755E+01  0.25432584755E+01  0.00000000000E+00 0. -1.
          1    1    1    2  502    0  0.27683612134E+02  0.12201713820E+02  0.11222388268E+03  0.11623022002E+03  0.00000000000E+00 0. -1.
         -1    1    1    2    0  501 -0.27683612134E+02 -0.12201713820E+02  0.42312287659E+03  0.42420305621E+03  0.00000000000E+00 0.  1.
</event>
<event>
 4    1  0.6824761E+001  0.2600663E+02  0.7546771E-02  0.1457850E+00
          2   -1    0    0  502    0  0.00000000000E+00  0.00000000000E+00  0.10471014459E+02  0.10471014459E+02  0.00000000000E+00 0.  1.
         -2   -1    0    0    0  501 -0.00000000000E+00 -0.00000000000E+00 -0.64599673475E+02  0.64599673475E+02  0.00000000000E+00 0. -1.
          1    1    1    2  502    0  0.18881480941E+02  0.17883920728E+02 -0.26658245037E+02  0.37242542496E+02  0.00000000000E+00 0. -1.
         -1    1    1    2    0  501 -0.18881480941E+02 -0.17883920728E+02 -0.27470413979E+02  0.37828145438E+02  0.00000000000E+00 0.  1.
</event>
<event>
 4    1  0.6824761E+001  0.6770938E+02  0.7546771E-02  0.1235672E+00
          2   -1    0    0  502    0  0.00000000000E+00  0.00000000000E+00  0.44614646783E+02  0.44614646783E+02  0.00000000000E+00 0. -1.
         -2   -1    0    0    0  501 -0.00000000000E+00 -0.00000000000E+00 -0.10796085391E+03  0.10796085391E+03  0.00000000000E+00 0.  1.
          1    1    1    2  502    0  0.14935415558E+02  0.66041608929E+02 -0.48418550503E+02  0.83240115213E+02  0.00000000000E+00 0.  1.
         -1    1    1    2    0  501 -0.14935415558E+02 -0.66041608929E+02 -0.14927656628E+02  0.69335385485E+02  0.00000000000E+00 0. -1.
</event>
<event>
 4    1  0.6824761E+001  0.2609059E+02  0.7546771E-02  0.1456963E+00
          2   -1    0    0  502    0  0.00000000000E+00  0.00000000000E+00  0.81618026363E+01  0.81618026363E+01  0.00000000000E+00 0. -1.
         -2   -1    0    0    0  501 -0.00000000000E+00 -0.00000000000E+00 -0.14752767793E+03  0.14752767793E+03  0.00000000000E+00 0.  1.
          1    1    1    2  502    0  0.89309208092E+01  0.24514436933E+02 -0.12100511360E+03  0.12378593006E+03  0.00000000000E+00 0.  1.
         -1    1    1    2    0  501 -0.89309208092E+01 -0.24514436933E+02 -0.18360761694E+02  0.31903550502E+02  0.00000000000E+00 0. -1.
</event>
<event>
 4    1  0.6824761E+001  0.3753398E+02  0.7546771E-02  0.1363576E+00
          2   -1    0    0  502    0  0.00000000000E+00  0.00000000000E+00  0.99960100330E+03  0.99960100330E+03  0.00000000000E+00 0. -1.
         -2   -1    0    0    0  501 -0.00000000000E+00 -0.00000000000E+00 -0.14979348898E+01  0.14979348898E+01  0.00000000000E+00 0.  1.
          1    1    1    2  502    0 -0.37466471011E+02  0.22501395729E+01  0.37733455443E+03  0.37919673726E+03  0.00000000000E+00 0. -1.
         -1    1    1    2    0  501  0.37466471011E+02 -0.22501395729E+01  0.62076851398E+03  0.62190220094E+03  0.00000000000E+00 0.  1.
</event>
<event>
 4    1  0.6824761E+001  0.2368526E+02  0.7546771E-02  0.1484068E+00
          2   -1    0    0  502    0  0.00000000000E+00  0.00000000000E+00  0.30329858298E+01  0.30329858298E+01  0.00000000000E+00 0. -1.
         -2   -1    0    0    0  501 -0.00000000000E+00 -0.00000000000E+00 -0.18590375519E+03  0.18590375519E+03  0.00000000000E+00 0.  1.
          1    1    1    2  502    0 -0.40764803853E+01  0.23331816541E+02 -0.98154150573E+02  0.10097142482E+03  0.00000000000E+00 0.  1.
         -1    1    1    2    0  501  0.40764803853E+01 -0.23331816541E+02 -0.84716618785E+02  0.87965316198E+02  0.00000000000E+00 0. -1.
</event>
<event>
 4    1  0.6824761E+001  0.2580253E+02  0.7546771E-02  0.1460022E+00
          2   -1    0    0  502    0  0.00000000000E+00  0.00000000000E+00  0.84059105068E+03  0.84059105068E+03  0.00000000000E+00 0.  1.
         -2   -1    0    0    0  501 -0.00000000000E+00 -0.00000000000E+00 -0.10473216640E+01  0.10473216640E+01  0.00000000000E+00 0. -1.
          1    1    1    2  502    0 -0.64735108689E+01 -0.24977274211E+02  0.21200485045E+03  0.21356925618E+03  0.00000000000E+00 0. -1.
         -1    1    1    2    0  501  0.64735108689E+01  0.24977274211E+02  0.62753887856E+03  0.62806911616E+03  0.00000000000E+00 0.  1.
</event>
<event>
 4    1  0.6824761E+001  0.2406692E+02  0.7546771E-02  0.1479518E+00
          2   -1    0    0  502    0  0.00000000000E+00  0.00000000000E+00  0.61841391101E+01  0.61841391101E+01  0.00000000000E+00 0.  1.
         -2   -1    0    0    0  501 -0.00000000000E+00 -0.00000000000E+00 -0.14299355270E+03  0.14299355270E+03  0.00000000000E+00 0. -1.
          1    1    1    2  502    0 -0.11681780598E+02  0.21041687896E+02 -0.24594064052E+02  0.34410530569E+02  0.00000000000E+00 0. -1.
         -1    1    1    2    0  501  0.11681780598E+02 -0.21041687896E+02 -0.11221534954E+03  0.11476716124E+03  0.00000000000E+00 0.  1.
</event>
<event>
 4    1  0.6824761E+001  0.3026244E+02  0.7546771E-02  0.1417329E+00
          2   -1    0    0  502    0  0.00000000000E+00  0.00000000000E+00  0.11243952760E+03  0.11243952760E+03  0.00000000000E+00 0.  1.
         -2   -1    0    0    0  501 -0.00000000000E+00 -0.00000000000E+00 -0.90666947960E+01  0.90666947960E+01  0.00000000000E+00 0. -1.
          1    1    1    2  502    0 -0.26592444526E+02  0.14444965595E+02  0.32315610829E+02  0.44273172917E+02  0.00000000000E+00 0.  1.
         -1    1    1    2    0  501  0.26592444526E+02 -0.14444965595E+02  0.71057221977E+02  0.77233049480E+02  0.00000000000E+00 0. -1.
</event>
<event>
 4    1  0.6824761E+001  0.3382323E+02  0.7546771E-02  0.1389030E+00
          2   -1    0    0  502    0  0.00000000000E+00  0.00000000000E+00  0.18920789867E+02  0.18920789867E+02  0.00000000000E+00 0. -1.
         -2   -1    0    0    0  501 -0.00000000000E+00 -0.00000000000E+00 -0.83546330089E+02  0.83546330089E+02  0.00000000000E+00 0.  1.
          1    1    1    2  502    0 -0.33137535181E+02 -0.67760317305E+01 -0.59242904579E+02  0.68218271649E+02  0.00000000000E+00 0.  1.
         -1    1    1    2    0  501  0.33137535181E+02  0.67760317305E+01 -0.53826356431E+01  0.34248848307E+02  0.00000000000E+00 0. -1.
</event>
<event>
 4    1  0.6824761E+001  0.5242527E+02  0.7546771E-02  0.1287986E+00
          2   -1    0    0  502    0  0.00000000000E+00  0.00000000000E+00  0.91030452978E+03  0.91030452978E+03  0.00000000000E+00 0. -1.
         -2   -1    0    0    0  501 -0.00000000000E+00 -0.00000000000E+00 -0.83520993672E+01  0.83520993672E+01  0.00000000000E+00 0.  1.
          1    1    1    2  502    0 -0.18812122329E+02 -0.48933758066E+02  0.81801023210E+03  0.81968844597E+03  0.00000000000E+00 0. -1.
         -1    1    1    2    0  501  0.18812122329E+02  0.48933758066E+02  0.83942198308E+02  0.98968183180E+02  0.00000000000E+00 0.  1.
</event>
<event>
 4    1  0.6824761E+001  0.5805171E+02  0.7546771E-02  0.1266600E+00
          2   -1    0    0  502    0  0.00000000000E+00  0.00000000000E+00  0.11599543784E+02  0.11599543784E+02  0.00000000000E+00 0.  1.
         -2   -1    0    0    0  501 -0.00000000000E+00 -0.00000000000E+00 -0.30633354094E+03  0.30633354094E+03  0.00000000000E+00 0. -1.
          1    1    1    2  502    0 -0.57093948196E+02 -0.10501526781E+02 -0.11125905162E+03  0.12549333668E+03  0.00000000000E+00 0.  1.
         -1    1    1    2    0  501  0.57093948196E+02  0.10501526781E+02 -0.18347494554E+03  0.19243974804E+03  0.00000000000E+00 0. -1.
</event>
<event>
 4    1  0.6824761E+001  0.2274201E+02  0.7546771E-02  0.1495763E+00
          2   -1    0    0  502    0  0.00000000000E+00  0.00000000000E+00  0.73614254663E+01  0.73614254663E+01  0.00000000000E+00 0.  1.
         -2   -1    0    0    0  501 -0.00000000000E+00 -0.00000000000E+00 -0.72959449861E+02  0.72959449861E+02  0.00000000000E+00 0. -1.
          1    1    1    2  502    0  0.19364540733E+00  0.22741187274E+02 -0.25071220830E+02  0.33849153772E+02  0.00000000000E+00 0.  1.
         -1    1    1    2    0  501 -0.19364540733E+00 -0.22741187274E+02 -0.40526803565E+02  0.46471721555E+02  0.00000000000E+00 0. -1.
</event>
<event>
 4    1  0.6824761E+001  0.2482324E+02  0.7546771E-02  0.1470791E+00
          2   -1    0    0  502    0  0.00000000000E+00  0.00000000000E+00  0.41735628357E+03  0.41735628357E+03  0.00000000000E+00 0. -1.
         -2   -1    0    0    0  501 -0.00000000000E+00 -0.00000000000E+00 -0.16466904832E+01  0.16466904832E+01  0.00000000000E+00 0.  1.
          1    1    1    2  502    0  0.17794952160E+02  0.17307021278E+02  0.14048730643E+03  0.14266350822E+03  0.00000000000E+00 0. -1.
         -1    1    1    2    0  501 -0.17794952160E+02 -0.17307021278E+02  0.27522228665E+03  0.27633946583E+03  0.00000000000E+00 0.  1.
</event>
<event>
 4    1  0.6824761E+001  0.2128586E+02  0.7546771E-02  0.1515222E+00
          2   -1    0    0  502    0  0.00000000000E+00  0.00000000000E+00  0.55486463226E+01  0.55486463226E+01  0.00000000000E+00 0. -1.
         -2   -1    0    0    0  501 -0.00000000000E+00 -0.00000000000E+00 -0.16982867656E+03  0.16982867656E+03  0.00000000000E+00 0.  1.
          1    1    1    2  502    0  0.42293336638E+01  0.20861460005E+02 -0.14532321340E+03  0.14687383746E+03  0.00000000000E+00 0.  1.
         -1    1    1    2    0  501 -0.42293336638E+01 -0.20861460005E+02 -0.18956816839E+02  0.28503485426E+02  0.00000000000E+00 0. -1.
</event>
<event>
 4    1  0.6824761E+001  0.2072219E+02  0.7546771E-02  0.1523269E+00
          2   -1    0    0  502    0  0.00000000000E+00  0.00000000000E+00  0.13572030221E+03  0.13572030221E+03  0.00000000000E+00 0. -1.
         -2   -1    0    0    0  501 -0.00000000000E+00 -0.00000000000E+00 -0.66833186702E+01  0.66833186702E+01  0.00000000000E+00 0.  1.
          1    1    1    2  502    0  0.89489078777E+00 -0.20702856001E+02  0.12849644020E+02  0.24382830590E+02  0.00000000000E+00 0.  1.
         -1    1    1    2    0  501 -0.89489078777E+00  0.20702856001E+02  0.11618733952E+03  0.11802079029E+03  0.00000000000E+00 0. -1.
</event>
<event>
 4    1  0.6824761E+001  0.2945023E+02  0.7546771E-02  0.1424435E+00
          2   -1    0    0  502    0  0.00000000000E+00  0.00000000000E+00  0.63187167846E+03  0.63187167846E+03  0.00000000000E+00 0. -1.
         -2   -1    0    0    0  501 -0.00000000000E+00 -0.00000000000E+00 -0.22551438088E+01  0.22551438088E+01  0.00000000000E+00 0.  1.
          1    1    1    2  502    0  0.23201739778E+01 -0.29358688214E+02  0.11646212897E+03  0.12012802864E+03  0.00000000000E+00 0.  1.
         -1    1    1    2    0  501 -0.23201739778E+01  0.29358688214E+02  0.51315440568E+03  0.51399879362E+03  0.00000000000E+00 0. -1.
</event>
<event>
 4    1  0.6824761E+001  0.2002105E+02  0.7546771E-02  0.1533714E+00
          2   -1    0    0  502    0  0.00000000000E+00  0.00000000000E+00  0.75688430948E+00  0.75688430948E+00  0.00000000000E+00 0. -1.
         -2   -1    0    0    0  501 -0.00000000000E+00 -0.00000000000E+00 -0.70154426117E+03  0.70154426117E+03  0.00000000000E+00 0.  1.
          1    1    1    2  502    0 -0.18336852005E+02 -0.80375444992E+01 -0.52424012957E+03  0.52462229815E+03  0.00000000000E+00 0. -1.
         -1    1    1    2    0  501  0.18336852005E+02  0.80375444992E+01 -0.17654724729E+03  0.17767884733E+03  0.00000000000E+00 0.  1.
</event>
<event>
 4    1  0.6824761E+001  0.3121228E+02  0.7546771E-02  0.1409346E+00
          2   -1    0    0  502    0  0.00000000000E+00  0.00000000000E+00  0.80289438913E+03  0.80289438913E+03  0.00000000000E+00 0.  1.
         -2   -1    0    0    0  501 -0.00000000000E+00 -0.00000000000E+00 -0.18297806201E+01  0.18297806201E+01  0.00000000000E+00 0. -1.
          1    1    1    2  502    0  0.16367470292E+02  0.26576538922E+02  0.16699662817E+03  0.16988843494E+03  0.00000000000E+00 0. -1.
         -1    1    1    2    0  501 -0.16367470292E+02 -0.26576538922E+02  0.63406798034E+03  0.63483573481E+03  0.00000000000E+00 0.  1.
</event>
<event>
 4    1  0.6824761E+001  0.3746441E+02  0.7546771E-02  0.1364021E+00
          2   -1    0    0  502    0  0.00000000000E+00  0.00000000000E+00  0.18869847743E+03  0.18869847743E+03  0.00000000000E+00 0. -1.
         -2   -1    0    0    0  501 -0.00000000000E+00 -0.00000000000E+00 -0.79478186065E+01  0.79478186065E+01  0.00000000000E+00 0.  1.
          1    1    1    2  502    0  0.25372117048E+02 -0.27565152754E+02  0.11527211335E+03  0.12120743412E+03  0.00000000000E+00 0. -1.
         -1    1    1    2    0  501 -0.25372117048E+02  0.27565152754E+02  0.65478545473E+02  0.75438861916E+02  0.00000000000E+00 0.  1.
</event>
<event>
 4    1  0.6824761E+001  0.2648475E+02  0.7546771E-02  0.1452854E+00
          2   -1    0    0  502    0  0.00000000000E+00  0.00000000000E+00  0.11079113668E+03  0.11079113668E+03  0.00000000000E+00 0.  1.
         -2   -1    0    0    0  501 -0.00000000000E+00 -0.00000000000E+00 -0.65758714971E+01  0.65758714971E+01  0.00000000000E+00 0. -1.
          1    1    1    2  502    0 -0.18969868942E+02  0.18482039813E+02  0.63427048803E+02  0.68734505477E+02  0.00000000000E+00 0. -1.
         -1    1    1    2    0  501  0.18969868942E+02 -0.18482039813E+02  0.40788216376E+02  0.48632502696E+02  0.00000000000E+00 0.  1.
</event>
<event>
 4    1  0.6824761E+001  0.2365993E+02  0.7546771E-02  0.1484374E+00
          2   -1    0    0  502    0  0.00000000000E+00  0.00000000000E+00  0.29710616286E+03  0.29710616286E+03  0.00000000000E+00 0.  1.
         -2   -1    0    0    0  501 -0.00000000000E+00 -0.00000000000E+00 -0.25839593772E+01  0.25839593772E+01  0.00000000000E+00 0. -1.
          1    1    1    2  502    0 -0.10427330545E+02 -0.21238248219E+02  0.22524225355E+03  0.22648148973E+03  0.00000000000E+00 0.  1.
         -1    1    1    2    0  501  0.10427330545E+02  0.21238248219E+02  0.69279949935E+02  0.73208632501E+02  0.00000000000E+00 0. -1.
</event>
<event>
 4    1  0.6824761E+001  0.2208947E+02  0.7546771E-02  0.1504259E+00
          2   -1    0    0  502    0  0.00000000000E+00  0.00000000000E+00  0.28769279749E+03  0.28769279749E+03  0.00000000000E+00 0. -1.
         -2   -1    0    0    0  501 -0.00000000000E+00 -0.00000000000E+00 -0.49775676910E+01  0.49775676910E+01  0.00000000000E+00 0.  1.
          1    1    1    2  502    0  0.20842583940E+02 -0.73165195815E+01  0.26017411637E+03  0.26111015988E+03  0.00000000000E+00 0. -1.
         -1    1    1    2    0  501 -0.20842583940E+02  0.73165195815E+01  0.22541113434E+02  0.31560205306E+02  0.00000000000E+00 0.  1.
</event>
<event>
 4    1  0.6824761E+001  0.3365824E+02  0.7546771E-02  0.1390250E+00
          2   -1    0    0  502    0  0.00000000000E+00  0.00000000000E+00  0.86767610359E+02  0.86767610359E+02  0.00000000000E+00 0. -1.
         -2   -1    0    0    0  501 -0.00000000000E+00 -0.00000000000E+00 -0.15382227777E+02  0.15382227777E+02  0.00000000000E+00 0.  1.
          1    1    1    2  502    0  0.27817864216E+02 -0.18948445557E+02  0.55552815920E+02  0.64953772140E+02  0.00000000000E+00 0. -1.
         -1    1    1    2    0  501 -0.27817864216E+02  0.18948445557E+02  0.15832566661E+02  0.37196065997E+02  0.00000000000E+00 0.  1.
</event>
<event>
 4    1  0.6824761E+001  0.2525548E+02  0.7546771E-02  0.1465966E+00
          2   -1    0    0  502    0  0.00000000000E+00  0.00000000000E+00  0.12823800803E+04  0.12823800803E+04  0.00000000000E+00 0.  1.
         -2   -1    0    0    0  501 -0.00000000000E+00 -0.00000000000E+00 -0.68679094500E+00  0.68679094500E+00  0.00000000000E+00 0. -1.
          1    1    1    2  502    0  0.14454229253E+02  0.20710249509E+02  0.97774704624E+03  0.97807316987E+03  0.00000000000E+00 0.  1.
         -1    1    1    2    0  501 -0.14454229253E+02 -0.20710249509E+02  0.30394624314E+03  0.30499370140E+03  0.00000000000E+00 0. -1.
</event>
<event>
 4    1  0.6824761E+001  0.2757848E+02  0.7546771E-02  0.1441882E+00
          2   -1    0    0  502    0  0.00000000000E+00  0.00000000000E+00  0.72875943136E+03  0.72875943136E+03  0.00000000000E+00 0. -1.
         -2   -1    0    0    0  501 -0.00000000000E+00 -0.00000000000E+00 -0.11533613900E+01  0.11533613900E+01  0.00000000000E+00 0.  1.
          1    1    1    2  502    0 -0.16180986677E+02 -0.22332676032E+02  0.25124511144E+03  0.25275418646E+03  0.00000000000E+00 0. -1.
         -1    1    1    2    0  501  0.16180986677E+02  0.22332676032E+02  0.47636095853E+03  0.47715860630E+03  0.00000000000E+00 0.  1.
</event>
<event>
 4    1  0.6824761E+001  0.2056220E+02  0.7546771E-02  0.1525608E+00
          2   -1    0    0  502    0  0.00000000000E+00  0.00000000000E+00  0.47587555836E+03  0.47587555836E+03  0.00000000000E+00 0.  1.
         -2   -1    0    0    0  501 -0.00000000000E+00 -0.00000000000E+00 -0.11092715990E+01  0.11092715990E+01  0.00000000000E+00 0. -1.
          1    1    1    2  502    0 -0.83364678311E+01  0.18796470454E+02  0.13098088106E+03  0.13258504893E+03  0.00000000000E+00 0. -1.
         -1    1    1    2    0  501  0.83364678311E+01 -0.18796470454E+02  0.34378540570E+03  0.34439978103E+03  0.00000000000E+00 0.  1.
</event>
<event>
 4    1  0.6824761E+001  0.2410038E+02  0.7546771E-02  0.1479124E+00
          2   -1    0    0  502    0  0.00000000000E+00  0.00000000000E+00  0.10289847113E+04  0.10289847113E+04  0.00000000000E+00 0. -1.
         -2   -1    0    0    0  501 -0.00000000000E+00 -0.00000000000E+00 -0.77018788179E+00  0.77018788179E+00  0.00000000000E+00 0.  1.
          1    1    1    2  502    0  0.75175309453E+01  0.22897928244E+02  0.78020686717E+03  0.78057900559E+03  0.00000000000E+00 0. -1.
         -1    1    1    2    0  501 -0.75175309453E+01 -0.22897928244E+02  0.24800765628E+03  0.24917589363E+03  0.00000000000E+00 0.  1.
</event>
<event>
 4    1  0.6824761E+001  0.5588271E+02  0.7546771E-02  0.1274502E+00
          2   -1    0    0  502    0  0.00000000000E+00  0.00000000000E+00  0.45030022013E+03  0.45030022013E+03  0.00000000000E+00 0. -1.
         -2   -1    0    0    0  501 -0.00000000000E+00 -0.00000000000E+00 -0.11137620387E+02  0.11137620387E+02  0.00000000000E+00 0.  1.
          1    1    1    2  502    0  0.37909111799E+02  0.41058214196E+02  0.77857807946E+02  0.95836923827E+02  0.00000000000E+00 0.  1.
         -1    1    1    2    0  501 -0.37909111799E+02 -0.41058214196E+02  0.36130479180E+03  0.36560091669E+03  0.00000000000E+00 0. -1.
</event>
<event>
 4    1  0.6824761E+001  0.2507498E+02  0.7546771E-02  0.1467966E+00
          2   -1    0    0  502    0  0.00000000000E+00  0.00000000000E+00  0.45516494853E+03  0.45516494853E+03  0.00000000000E+00 0. -1.
         -2   -1    0    0    0  501 -0.00000000000E+00 -0.00000000000E+00 -0.14490834646E+01  0.14490834646E+01  0.00000000000E+00 0.  1.
          1    1    1    2  502    0  0.21666567037E+02 -0.12621986581E+02  0.27620776057E+03  0.27734361660E+03  0.00000000000E+00 0. -1.
         -1    1    1    2    0  501 -0.21666567037E+02  0.12621986581E+02  0.17750810449E+03  0.17927041539E+03  0.00000000000E+00 0.  1.
</event>
<event>
 4    1  0.6824761E+001  0.3903373E+02  0.7546771E-02  0.1354243E+00
          2   -1    0    0  502    0  0.00000000000E+00  0.00000000000E+00  0.12442962836E+01  0.12442962836E+01  0.00000000000E+00 0.  1.
         -2   -1    0    0    0  501 -0.00000000000E+00 -0.00000000000E+00 -0.12744425470E+04  0.12744425470E+04  0.00000000000E+00 0. -1.
          1    1    1    2  502    0 -0.15975560104E+02  0.35614794907E+02 -0.51032349067E+03  0.51181412375E+03  0.00000000000E+00 0.  1.
         -1    1    1    2    0  501  0.15975560104E+02 -0.35614794907E+02 -0.76287476007E+03  0.76387271957E+03  0.00000000000E+00 0. -1.
</event>
<event>
 4    1  0.6824761E+001  0.2837483E+02  0.7546771E-02  0.1434266E+00
          2   -1    0    0  502    0  0.00000000000E+00  0.00000000000E+00  0.40147939847E+02  0.40147939847E+02  0.00000000000E+00 0.  1.
         -2   -1    0    0    0  501 -0.00000000000E+00 -0.00000000000E+00 -0.58856714629E+02  0.58856714629E+02  0.00000000000E+00 0. -1.
          1    1    1    2  502    0 -0.23297283442E+02  0.16197763590E+02  0.30839321390E+02  0.41906976805E+02  0.00000000000E+00 0.  1.
         -1    1    1    2    0  501  0.23297283442E+02 -0.16197763590E+02 -0.49548096172E+02  0.57097677671E+02  0.00000000000E+00 0. -1.
</event>
<event>
 4    1  0.6824761E+001  0.3522434E+02  0.7546771E-02  0.1378993E+00
          2   -1    0    0  502    0  0.00000000000E+00  0.00000000000E+00  0.37838139744E+03  0.37838139744E+03  0.00000000000E+00 0. -1.
         -2   -1    0    0    0  501 -0.00000000000E+00 -0.00000000000E+00 -0.50682803170E+01  0.50682803170E+01  0.00000000000E+00 0.  1.
          1    1    1    2  502    0 -0.32563425007E+02  0.13430464053E+02  0.72743377978E+02  0.80822973544E+02  0.00000000000E+00 0.  1.
         -1    1    1    2    0  501  0.32563425007E+02 -0.13430464053E+02  0.30056973914E+03  0.30262670421E+03  0.00000000000E+00 0. -1.
</event>
<event>
 4    1  0.6824761E+001  0.2321697E+02  0.7546771E-02  0.1489792E+00
          2   -1    0    0  502    0  0.00000000000E+00  0.00000000000E+00  0.18185450398E+04  0.18185450398E+04  0.00000000000E+00 0. -1.
         -2   -1    0    0    0  501 -0.00000000000E+00 -0.00000000000E+00 -0.52179826899E+00  0.52179826899E+00  0.00000000000E+00 0.  1.
          1    1    1    2  502    0  0.14858668807E+02  0.17839491235E+02  0.15067855145E+04  0.15069643706E+04  0.00000000000E+00 0. -1.
         -1    1    1    2    0  501 -0.14858668807E+02 -0.17839491235E+02  0.31123772707E+03  0.31210246753E+03  0.00000000000E+00 0.  1.
</event>
<event>
 4    1  0.6824761E+001  0.2029851E+02  0.7546771E-02  0.1529520E+00
          2   -1    0    0  502    0  0.00000000000E+00  0.00000000000E+00  0.65789815712E+01  0.65789815712E+01  0.00000000000E+00 0.  1.
         -2   -1    0    0    0  501 -0.00000000000E+00 -0.00000000000E+00 -0.87992192427E+02  0.87992192427E+02  0.00000000000E+00 0. -1.
          1    1    1    2  502    0  0.13752291044E+02  0.14929968251E+02 -0.15319339648E+02  0.25430525519E+02  0.00000000000E+00 0.  1.
         -1    1    1    2    0  501 -0.13752291044E+02 -0.14929968251E+02 -0.66093871208E+02  0.69140648480E+02  0.00000000000E+00 0. -1.
</event>
<event>
 4    1  0.6824761E+001  0.2010327E+02  0.7546771E-02  0.1532463E+00
          2   -1    0    0  502    0  0.00000000000E+00  0.00000000000E+00  0.15376550965E+03  0.15376550965E+03  0.00000000000E+00 0.  1.
         -2   -1    0    0    0  501 -0.00000000000E+00 -0.00000000000E+00 -0.28539725837E+01  0.28539725837E+01  0.00000000000E+00 0. -1.
          1    1    1    2  502    0 -0.15775874603E+02 -0.12460462266E+02  0.97476600857E+02  0.99528031499E+02  0.00000000000E+00 0.  1.
         -1    1    1    2    0  501  0.15775874603E+02  0.12460462266E+02  0.53434936213E+02  0.57091450739E+02  0.00000000000E+00 0. -1.
</event>
<event>
 4    1  0.6824761E+001  0.2746186E+02  0.7546771E-02  0.1443023E+00
          2   -1    0    0  502    0  0.00000000000E+00  0.00000000000E+00  0.64188638811E+03  0.64188638811E+03  0.00000000000E+00 0. -1.
         -2   -1    0    0    0  501 -0.00000000000E+00 -0.00000000000E+00 -0.12277508169E+01  0.12277508169E+01  0.00000000000E+00 0.  1.
          1    1    1    2  502    0  0.13382143267E+02  0.23980657200E+02  0.25361484135E+03  0.25509731757E+03  0.00000000000E+00 0.  1.
         -1    1    1    2    0  501 -0.13382143267E+02 -0.23980657200E+02  0.38704379594E+03  0.38801682136E+03  0.00000000000E+00 0. -1.
</event>
<event>
 4    1  0.6824761E+001  0.2270139E+02  0.7546771E-02  0.1496282E+00
          2   -1    0    0  502    0  0.00000000000E+00  0.00000000000E+00  0.17807844187E+04  0.17807844187E+04  0.00000000000E+00 0.  1.
         -2   -1    0    0    0  501 -0.00000000000E+00 -0.00000000000E+00 -0.29084432463E+00  0.29084432463E+00  0.00000000000E+00 0. -1.
          1    1    1    2  502    0 -0.55146767648E+01  0.22021386460E+02  0.95307446889E+03  0.95334479406E+03  0.00000000000E+00 0.  1.
         -1    1    1    2    0  501  0.55146767648E+01 -0.22021386460E+02  0.82741910546E+03  0.82773046894E+03  0.00000000000E+00 0. -1.
</event>
<event>
 4    1  0.6824761E+001  0.2045521E+02  0.7546771E-02  0.1527187E+00
          2   -1    0    0  502    0  0.00000000000E+00  0.00000000000E+00  0.98246321993E+01  0.98246321993E+01  0.00000000000E+00 0.  1.
         -2   -1    0    0    0  501 -0.00000000000E+00 -0.00000000000E+00 -0.43285685202E+02  0.43285685202E+02  0.00000000000E+00 0. -1.
          1    1    1    2  502    0  0.20252097972E+02 -0.28754543000E+01 -0.13360206938E+02  0.24431758822E+02  0.00000000000E+00 0.  1.
         -1    1    1    2    0  501 -0.20252097972E+02  0.28754543000E+01 -0.20100846064E+02  0.28678558579E+02  0.00000000000E+00 0. -1.
</event>
<event>
 4    1  0.6824761E+001  0.2101798E+02  0.7546771E-02  0.1519008E+00
          2   -1    0    0  502    0  0.00000000000E+00  0.00000000000E+00  0.92770397189E+03  0.92770397189E+03  0.00000000000E+00 0. -1.
         -2   -1    0    0    0  501 -0.00000000000E+00 -0.00000000000E+00 -0.12633154639E+01  0.12633154639E+01  0.00000000000E+00 0.  1.
          1    1    1    2  502    0  0.93166007888E+01  0.18840292974E+02  0.96581226964E+02  0.98841737598E+02  0.00000000000E+00 0.  1.
         -1    1    1    2    0  501 -0.93166007888E+01 -0.18840292974E+02  0.82985942946E+03  0.83012554975E+03  0.00000000000E+00 0. -1.
</event>
<event>
 4    1  0.6824761E+001  0.2086577E+02  0.7546771E-02  0.1521190E+00
          2   -1    0    0  502    0  0.00000000000E+00  0.00000000000E+00  0.71201341333E+01  0.71201341333E+01  0.00000000000E+00 0.  1.
         -2   -1    0    0    0  501 -0.00000000000E+00 -0.00000000000E+00 -0.74748443708E+02  0.74748443708E+02  0.00000000000E+00 0. -1.
          1    1    1    2  502    0 -0.20066986062E+02  0.57180909292E+01 -0.51275029843E+02  0.55358009166E+02  0.00000000000E+00 0. -1.
         -1    1    1    2    0  501  0.20066986062E+02 -0.57180909292E+01 -0.16353279732E+02  0.26510568675E+02  0.00000000000E+00 0.  1.
</event>
<event>
 4    1  0.6824761E+001  0.2956465E+02  0.7546771E-02  0.1423418E+00
          2   -1    0    0  502    0  0.00000000000E+00  0.00000000000E+00  0.55771167763E+02  0.55771167763E+02  0.00000000000E+00 0.  1.
         -2   -1    0    0    0  501 -0.00000000000E+00 -0.00000000000E+00 -0.24937466243E+02  0.24937466243E+02  0.00000000000E+00 0. -1.
          1    1    1    2  502    0 -0.22334689931E+02  0.19370863538E+02 -0.91804707498E+01  0.30957224871E+02  0.00000000000E+00 0. -1.
         -1    1    1    2    0  501  0.22334689931E+02 -0.19370863538E+02  0.40014172270E+02  0.49751409135E+02  0.00000000000E+00 0.  1.
</event>
<event>
 4    1  0.6824761E+001  0.2929389E+02  0.7546771E-02  0.1425833E+00
          2   -1    0    0  502    0  0.00000000000E+00  0.00000000000E+00  0.21877539711E+03  0.21877539711E+03  0.00000000000E+00 0. -1.
         -2   -1    0    0    0  501 -0.00000000000E+00 -0.00000000000E+00 -0.53067747485E+01  0.53067747485E+01  0.00000000000E+00 0.  1.
          1    1    1    2  502    0 -0.25525712939E+02  0.14372539544E+02  0.16395901922E+03  0.16655537187E+03  0.00000000000E+00 0. -1.
         -1    1    1    2    0  501  0.25525712939E+02 -0.14372539544E+02  0.49509603136E+02  0.57526799987E+02  0.00000000000E+00 0.  1.
</event>
<event>
 4    1  0.6824761E+001  0.2543191E+02  0.7546771E-02  0.1464029E+00
          2   -1    0    0  502    0  0.00000000000E+00  0.00000000000E+00  0.16004748430E+03  0.16004748430E+03  0.00000000000E+00 0. -1.
         -2   -1    0    0    0  501 -0.00000000000E+00 -0.00000000000E+00 -0.44514857584E+01  0.44514857584E+01  0.00000000000E+00 0.  1.
          1    1    1    2  502    0  0.23658333560E+02  0.93308673218E+01  0.10276870015E+03  0.10586872798E+03  0.00000000000E+00 0. -1.
         -1    1    1    2    0  501 -0.23658333560E+02 -0.93308673218E+01  0.52827298393E+02  0.58630242088E+02  0.00000000000E+00 0.  1.
</event>
<event>
 4    1  0.6824761E+001  0.2771224E+02  0.7546771E-02  0.1440582E+00
          2   -1    0    0  502    0  0.00000000000E+00  0.00000000000E+00  0.10024765206E+04  0.10024765206E+04  0.00000000000E+00 0.  1.
         -2   -1    0    0    0  501 -0.00000000000E+00 -0.00000000000E+00 -0.95800430371E+00  0.95800430371E+00  0.00000000000E+00 0. -1.
          1    1    1    2  502    0 -0.25065896164E+02 -0.11818175517E+02  0.27619004309E+03  0.27757685121E+03  0.00000000000E+00 0. -1.
         -1    1    1    2    0  501  0.25065896164E+02  0.11818175517E+02  0.72532847323E+03  0.72585767372E+03  0.00000000000E+00 0.  1.
</event>
<event>
 4    1  0.6824761E+001  0.2269085E+02  0.7546771E-02  0.1496417E+00
          2   -1    0    0  502    0  0.00000000000E+00  0.00000000000E+00  0.10441003645E+02  0.10441003645E+02  0.00000000000E+00 0.  1.
         -2   -1    0    0    0  501 -0.00000000000E+00 -0.00000000000E+00 -0.54403431578E+02  0.54403431578E+02  0.00000000000E+00 0. -1.
          1    1    1    2  502    0 -0.20822029759E+02  0.90176417128E+01 -0.12063381027E+02  0.25698247940E+02  0.00000000000E+00 0. -1.
         -1    1    1    2    0  501  0.20822029759E+02 -0.90176417128E+01 -0.31899046906E+02  0.39146187284E+02  0.00000000000E+00 0.  1.
</event>
<event>
 4    1  0.6824761E+001  0.2107422E+02  0.7546771E-02  0.1518208E+00
          2   -1    0    0  502    0  0.00000000000E+00  0.00000000000E+00  0.55578162808E+03  0.55578162808E+03  0.00000000000E+00 0.  1.
         -2   -1    0    0    0  501 -0.00000000000E+00 -0.00000000000E+00 -0.10545612497E+01  0.10545612497E+01  0.00000000000E+00 0. -1.
          1    1    1    2  502    0  0.16691641777E+01 -0.21008011986E+02  0.14032971055E+03  0.14190331335E+03  0.00000000000E+00 0. -1.
         -1    1    1    2    0  501 -0.16691641777E+01  0.21008011986E+02  0.41439735628E+03  0.41493287598E+03  0.00000000000E+00 0.  1.
</event>
<event>
 4    1  0.6824761E+001  0.2469702E+02  0.7546771E-02  0.1472221E+00
          2   -1    0    0  502    0  0.00000000000E+00  0.00000000000E+00  0.40702893490E+02  0.40702893490E+02  0.00000000000E+00 0. -1.
         -2   -1    0    0    0  501 -0.00000000000E+00 -0.00000000000E+00 -0.15222052110E+02  0.15222052110E+02  0.00000000000E+00 0.  1.
          1    1    1    2  502    0  0.18684633029E+02  0.16150145470E+02  0.92527211240E+01  0.26373387313E+02  0.00000000000E+00 0.  1.
         -1    1    1    2    0  501 -0.18684633029E+02 -0.16150145470E+02  0.16228120256E+02  0.29551558287E+02  0.00000000000E+00 0. -1.
</event>
<event>
 4    1  0.6824761E+001  0.2140270E+02  0.7546771E-02  0.1513592E+00
          2   -1    0    0  502    0  0.00000000000E+00  0.00000000000E+00  0.88262336170E+03  0.88262336170E+03  0.00000000000E+00 0. -1.
         -2   -1    0    0    0  501 -0.00000000000E+00 -0.00000000000E+00 -0.52043556484E+00  0.52043556484E+00  0.00000000000E+00 0.  1.
          1    1    1    2  502    0 -0.20250428931E+02 -0.69278932378E+01  0.41780556413E+03  0.41835339725E+03  0.00000000000E+00 0. -1.
         -1    1    1    2    0  501  0.20250428931E+02  0.69278932378E+01  0.46429736201E+03  0.46479040001E+03  0.00000000000E+00 0.  1.
</event>
<event>
 4    1  0.6824761E+001  0.2995962E+02  0.7546771E-02  0.1419948E+00
          2   -1    0    0  502    0  0.00000000000E+00  0.00000000000E+00  0.18574761744E+03  0.18574761744E+03  0.00000000000E+00 0. -1.
         -2   -1    0    0    0  501 -0.00000000000E+00 -0.00000000000E+00 -0.57295203748E+01  0.57295203748E+01  0.00000000000E+00 0.  1.
          1    1    1    2  502    0 -0.27012337083E+02  0.12958109167E+02  0.12789597990E+03  0.13135813877E+03  0.00000000000E+00 0. -1.
         -1    1    1    2    0  501  0.27012337083E+02 -0.12958109167E+02  0.52122117171E+02  0.60118999046E+02  0.00000000000E+00 0.  1.
</event>
<event>
 4    1  0.6824761E+001  0.2044441E+02  0.7546771E-02  0.1527347E+00
          2   -1    0    0  502    0  0.00000000000E+00  0.00000000000E+00  0.11834974322E+04  0.11834974322E+04  0.00000000000E+00 0.  1.
         -2   -1    0    0    0  501 -0.00000000000E+00 -0.00000000000E+00 -0.50354366813E+00  0.50354366813E+00  0.00000000000E+00 0. -1.
          1    1    1    2  502    0  0.19766059933E+02 -0.52227153512E+01  0.26798395765E+03  0.26876267493E+03  0.00000000000E+00 0. -1.
         -1    1    1    2    0  501 -0.19766059933E+02  0.52227153512E+01  0.91500993086E+03  0.91523830091E+03  0.00000000000E+00 0.  1.
</event>
<event>
 4    1  0.6824761E+001  0.3961621E+02  0.7546771E-02  0.1350750E+00
          2   -1    0    0  502    0  0.00000000000E+00  0.00000000000E+00  0.24571924040E+04  0.24571924040E+04  0.00000000000E+00 0. -1.
         -2   -1    0    0    0  501 -0.00000000000E+00 -0.00000000000E+00 -0.12480694402E+01  0.12480694402E+01  0.00000000000E+00 0.  1.
          1    1    1    2  502    0 -0.87292270840E+01  0.38642520602E+02  0.20868780633E+04  0.20872540561E+04  0.00000000000E+00 0. -1.
         -1    1    1    2    0  501  0.87292270840E+01 -0.38642520602E+02  0.36906627122E+03  0.37118641726E+03  0.00000000000E+00 0.  1.
</event>
<event>
 4    1  0.6824761E+001  0.3667238E+02  0.7546771E-02  0.1369172E+00
          2   -1    0    0  502    0  0.00000000000E+00  0.00000000000E+00  0.61363106295E+02  0.61363106295E+02  0.00000000000E+00 0.  1.
         -2   -1    0    0    0  501 -0.00000000000E+00 -0.00000000000E+00 -0.22841080459E+02  0.22841080459E+02  0.00000000000E+00 0. -1.
          1    1    1    2  502    0  0.36553544472E+02 -0.29499373912E+01  0.10790285826E+02  0.38226875523E+02  0.00000000000E+00 0. -1.
         -1    1    1    2    0  501 -0.36553544472E+02  0.29499373912E+01  0.27731740009E+02  0.45977311230E+02  0.00000000000E+00 0.  1.
</event>
<event>
 4    1  0.6824761E+001  0.2459588E+02  0.7546771E-02  0.1473375E+00
          2   -1    0    0  502    0  0.00000000000E+00  0.00000000000E+00  0.73157558723E+02  0.73157558723E+02  0.00000000000E+00 0.  1.
         -2   -1    0    0    0  501 -0.00000000000E+00 -0.00000000000E+00 -0.12228068053E+02  0.12228068053E+02  0.00000000000E+00 0. -1.
          1    1    1    2  502    0 -0.76080672305E+01 -0.23389629773E+02  0.61729771315E+01  0.25358689133E+02  0.00000000000E+00 0. -1.
         -1    1    1    2    0  501  0.76080672305E+01  0.23389629773E+02  0.54756513538E+02  0.60026937643E+02  0.00000000000E+00 0.  1.
</event>
<event>
 4    1  0.6824761E+001  0.2533064E+02  0.7546771E-02  0.1465138E+00
          2   -1    0    0  502    0  0.00000000000E+00  0.00000000000E+00  0.10842002272E+03  0.10842002272E+03  0.00000000000E+00 0.  1.
         -2   -1    0    0    0  501 -0.00000000000E+00 -0.00000000000E+00 -0.65595980055E+01  0.65595980055E+01  0.00000000000E+00 0. -1.
          1    1    1    2  502    0  0.19427859364E+02 -0.16254217296E+02  0.32951957329E+02  0.41562877562E+02  0.00000000000E+00 0. -1.
         -1    1    1    2    0  501 -0.19427859364E+02  0.16254217296E+02  0.68908467382E+02  0.73416743161E+02  0.00000000000E+00 0.  1.
</event>
<event>
 4    1  0.6824761E+001  0.2207049E+02  0.7546771E-02  0.1504512E+00
          2   -1    0    0  502    0  0.00000000000E+00  0.00000000000E+00  0.19538257722E+04  0.19538257722E+04  0.00000000000E+00 0.  1.
         -2   -1    0    0    0  501 -0.00000000000E+00 -0.00000000000E+00 -0.26317993035E+00  0.26317993035E+00  0.00000000000E+00 0. -1.
          1    1    1    2  502    0 -0.13963370696E+02  0.17091840065E+02  0.12010856959E+04  0.12012884565E+04  0.00000000000E+00 0.  1.
         -1    1    1    2    0  501  0.13963370696E+02 -0.17091840065E+02  0.75247689637E+03  0.75280049568E+03  0.00000000000E+00 0. -1.
</event>
<event>
 4    1  0.6824761E+001  0.2281728E+02  0.7546771E-02  0.1494805E+00
          2   -1    0    0  502    0  0.00000000000E+00  0.00000000000E+00  0.47871639474E+02  0.47871639474E+02  0.00000000000E+00 0. -1.
         -2   -1    0    0    0  501 -0.00000000000E+00 -0.00000000000E+00 -0.11243780787E+02  0.11243780787E+02  0.00000000000E+00 0.  1.
          1    1    1    2  502    0 -0.39662784464E+01  0.22469909691E+02  0.23663288753E+02  0.32872168179E+02  0.00000000000E+00 0. -1.
         -1    1    1    2    0  501  0.39662784464E+01 -0.22469909691E+02  0.12964569934E+02  0.26243252081E+02  0.00000000000E+00 0.  1.
</event>
<event>
 4    1  0.6824761E+001  0.2092862E+02  0.7546771E-02  0.1520286E+00
          2   -1    0    0  502    0  0.00000000000E+00  0.00000000000E+00  0.29694641775E+02  0.29694641775E+02  0.00000000000E+00 0. -1.
         -2   -1    0    0    0  501 -0.00000000000E+00 -0.00000000000E+00 -0.14794998381E+02  0.14794998381E+02  0.00000000000E+00 0.  1.
          1    1    1    2  502    0  0.20766813082E+02 -0.25974339026E+01  0.62281951855E+01  0.21835695632E+02  0.00000000000E+00 0. -1.
         -1    1    1    2    0  501 -0.20766813082E+02  0.25974339026E+01  0.86714482082E+01  0.22653944524E+02  0.00000000000E+00 0.  1.
</event>
<event>
 4    1  0.6824761E+001  0.2152068E+02  0.7546771E-02  0.1511959E+00
          2   -1    0    0  502    0  0.00000000000E+00  0.00000000000E+00  0.90083286227E+03  0.90083286227E+03  0.00000000000E+00 0. -1.
         -2   -1    0    0    0  501 -0.00000000000E+00 -0.00000000000E+00 -0.16149569584E+01  0.16149569584E+01  0.00000000000E+00 0.  1.
          1    1    1    2  502    0 -0.19904012021E+02  0.81835276493E+01  0.82214845879E+03  0.82243007490E+03  0.00000000000E+00 0. -1.
         -1    1    1    2    0  501  0.19904012021E+02 -0.81835276493E+01  0.77069446523E+02  0.80017744324E+02  0.00000000000E+00 0.  1.
</event>
<event>
 4    1  0.6824761E+001  0.5213396E+02  0.7546771E-02  0.1289176E+00
          2   -1    0    0  502    0  0.00000000000E+00  0.00000000000E+00  0.25459076623E+04  0.25459076623E+04  0.00000000000E+00 0. -1.
         -2   -1    0    0    0  501 -0.00000000000E+00 -0.00000000000E+00 -0.36885367446E+01  0.36885367446E+01  0.00000000000E+00 0.  1.
          1    1    1    2  502    0  0.40427999696E+02  0.32916959740E+02  0.19651503321E+03  0.20331283205E+03  0.00000000000E+00 0.  1.
         -1    1    1    2    0  501 -0.40427999696E+02 -0.32916959740E+02  0.23457040924E+04  0.23462833670E+04  0.00000000000E+00 0. -1.
</event>
<event>
 4    1  0.6824761E+001  0.2065980E+02  0.7546771E-02  0.1524178E+00
          2   -1    0    0  502    0  0.00000000000E+00  0.00000000000E+00  0.30058456154E+01  0.30058456154E+01  0.00000000000E+00 0.  1.
         -2   -1    0    0    0  501 -0.00000000000E+00 -0.00000000000E+00 -0.17263026292E+03  0.17263026292E+03  0.00000000000E+00 0. -1.
          1    1    1    2  502    0 -0.29287102133E+01  0.20451159619E+02 -0.12180416673E+03  0.12354384771E+03  0.00000000000E+00 0. -1.
         -1    1    1    2    0  501  0.29287102133E+01 -0.20451159619E+02 -0.47820250575E+02  0.52092260830E+02  0.00000000000E+00 0.  1.
</event>
<event>
 4    1  0.6824761E+001  0.2497553E+02  0.7546771E-02  0.1469077E+00
          2   -1    0    0  502    0  0.00000000000E+00  0.00000000000E+00  0.59007014610E+03  0.59007014610E+03  0.00000000000E+00 0. -1.
         -2   -1    0    0    0  501 -0.00000000000E+00 -0.00000000000E+00 -0.11009653597E+01  0.11009653597E+01  0.00000000000E+00 0.  1.
          1    1    1    2  502    0  0.14173896903E+02  0.20563993637E+02  0.35346929928E+03  0.35435056472E+03  0.00000000000E+00 0. -1.
         -1    1    1    2    0  501 -0.14173896903E+02 -0.20563993637E+02  0.23549988146E+03  0.23682054674E+03  0.00000000000E+00 0.  1.
</event>
<event>
 4    1  0.6824761E+001  0.4195863E+02  0.7546771E-02  0.1337375E+00
          2   -1    0    0  502    0  0.00000000000E+00  0.00000000000E+00  0.28312892837E+04  0.28312892837E+04  0.00000000000E+00 0. -1.
         -2   -1    0    0    0  501 -0.00000000000E+00 -0.00000000000E+00 -0.15501020490E+01  0.15501020490E+01  0.00000000000E+00 0.  1.
          1    1    1    2  502    0  0.86031412609E+01 -0.41067166962E+02  0.31876009458E+03  0.32150975745E+03  0.00000000000E+00 0.  1.
         -1    1    1    2    0  501 -0.86031412609E+01  0.41067166962E+02  0.25109790871E+04  0.25113296283E+04  0.00000000000E+00 0. -1.
</event>
<event>
 4    1  0.6824761E+001  0.2219686E+02  0.7546771E-02  0.1502837E+00
          2   -1    0    0  502    0  0.00000000000E+00  0.00000000000E+00  0.58149949444E+03  0.58149949444E+03  0.00000000000E+00 0. -1.
         -2   -1    0    0    0  501 -0.00000000000E+00 -0.00000000000E+00 -0.19198301087E+01  0.19198301087E+01  0.00000000000E+00 0.  1.
          1    1    1    2  502    0 -0.17714208406E+02  0.13375632035E+02  0.71755196681E+02  0.75109979114E+02  0.00000000000E+00 0.  1.
         -1    1    1    2    0  501  0.17714208406E+02 -0.13375632035E+02  0.50782446765E+03  0.50830934544E+03  0.00000000000E+00 0. -1.
</event>
<event>
 4    1  0.6824761E+001  0.2580976E+02  0.7546771E-02  0.1459945E+00
          2   -1    0    0  502    0  0.00000000000E+00  0.00000000000E+00  0.25138070228E+03  0.25138070228E+03  0.00000000000E+00 0.  1.
         -2   -1    0    0    0  501 -0.00000000000E+00 -0.00000000000E+00 -0.31303318055E+01  0.31303318055E+01  0.00000000000E+00 0. -1.
          1    1    1    2  502    0 -0.24713986471E+01 -0.25691168155E+02  0.74273602545E+02  0.78630222989E+02  0.00000000000E+00 0. -1.
         -1    1    1    2    0  501  0.24713986471E+01  0.25691168155E+02  0.17397676793E+03  0.17588081109E+03  0.00000000000E+00 0.  1.
</event>
<event>
 4    1  0.6824761E+001  0.2178133E+02  0.7546771E-02  0.1508395E+00
          2   -1    0    0  502    0  0.00000000000E+00  0.00000000000E+00  0.90313273897E+01  0.90313273897E+01  0.00000000000E+00 0.  1.
         -2   -1    0    0    0  501 -0.00000000000E+00 -0.00000000000E+00 -0.77554617241E+02  0.77554617241E+02  0.00000000000E+00 0. -1.
          1    1    1    2  502    0 -0.19057957609E+02  0.10546116887E+02 -0.58853257798E+02  0.62754539940E+02  0.00000000000E+00 0. -1.
         -1    1    1    2    0  501  0.19057957609E+02 -0.10546116887E+02 -0.96700320533E+01  0.23831404691E+02  0.00000000000E+00 0.  1.
</event>
<event>
 4    1  0.6824761E+001  0.4230835E+02  0.7546771E-02  0.1335465E+00
          2   -1    0    0  502    0  0.00000000000E+00  0.00000000000E+00  0.13517892880E+02  0.13517892880E+02  0.00000000000E+00 0. -1.
         -2   -1    0    0    0  501 -0.00000000000E+00 -0.00000000000E+00 -0.16930060388E+03  0.16930060388E+03  0.00000000000E+00 0.  1.
          1    1    1    2  502    0 -0.29703777823E+02  0.30127768459E+02 -0.35225700441E+02  0.55053127257E+02  0.00000000000E+00 0.  1.
         -1    1    1    2    0  501  0.29703777823E+02 -0.30127768459E+02 -0.12055701055E+03  0.12776536950E+03  0.00000000000E+00 0. -1.
</event>
<event>
 4    1  0.6824761E+001  0.2448552E+02  0.7546771E-02  0.1474642E+00
          2   -1    0    0  502    0  0.00000000000E+00  0.00000000000E+00  0.89428179280E+02  0.89428179280E+02  0.00000000000E+00 0.  1.
         -2   -1    0    0    0  501 -0.00000000000E+00 -0.00000000000E+00 -0.15301438718E+02  0.15301438718E+02  0.00000000000E+00 0. -1.
          1    1    1    2  502    0 -0.12256323220E+02 -0.21197245490E+02  0.76314660324E+02  0.80146541133E+02  0.00000000000E+00 0.  1.
         -1    1    1    2    0  501  0.12256323220E+02  0.21197245490E+02 -0.21879197625E+01  0.24583076864E+02  0.00000000000E+00 0. -1.
</event>
<event>
 4    1  0.6824761E+001  0.7970630E+02  0.7546771E-02  0.1204531E+00
          2   -1    0    0  502    0  0.00000000000E+00  0.00000000000E+00  0.11712694652E+04  0.11712694652E+04  0.00000000000E+00 0. -1.
         -2   -1    0    0    0  501 -0.00000000000E+00 -0.00000000000E+00 -0.14070146402E+02  0.14070146402E+02  0.00000000000E+00 0.  1.
          1    1    1    2  502    0  0.56103492644E+02  0.56617063279E+02  0.10431919923E+04  0.10462325872E+04  0.00000000000E+00 0. -1.
         -1    1    1    2    0  501 -0.56103492644E+02 -0.56617063279E+02  0.11400732652E+03  0.13910702442E+03  0.00000000000E+00 0.  1.
</event>
<event>
 4    1  0.6824761E+001  0.2048485E+02  0.7546771E-02  0.1526749E+00
          2   -1    0    0  502    0  0.00000000000E+00  0.00000000000E+00  0.10408892220E+03  0.10408892220E+03  0.00000000000E+00 0.  1.
         -2   -1    0    0    0  501 -0.00000000000E+00 -0.00000000000E+00 -0.66580514459E+01  0.66580514459E+01  0.00000000000E+00 0. -1.
          1    1    1    2  502    0 -0.97944631565E+01  0.17991592152E+02  0.83495124557E+02  0.85971301732E+02  0.00000000000E+00 0.  1.
         -1    1    1    2    0  501  0.97944631565E+01 -0.17991592152E+02  0.13935746196E+02  0.24775671913E+02  0.00000000000E+00 0. -1.
</event>
<event>
 4    1  0.6824761E+001  0.3231945E+02  0.7546771E-02  0.1400456E+00
          2   -1    0    0  502    0  0.00000000000E+00  0.00000000000E+00  0.17251625094E+03  0.17251625094E+03  0.00000000000E+00 0.  1.
         -2   -1    0    0    0  501 -0.00000000000E+00 -0.00000000000E+00 -0.15454928930E+02  0.15454928930E+02  0.00000000000E+00 0. -1.
          1    1    1    2  502    0  0.82987406397E+01  0.31235838257E+02  0.15182919713E+03  0.15523096272E+03  0.00000000000E+00 0.  1.
         -1    1    1    2    0  501 -0.82987406397E+01 -0.31235838257E+02  0.52321248785E+01  0.32740217143E+02  0.00000000000E+00 0. -1.
</event>
<event>
 4    1  0.6824761E+001  0.2384710E+02  0.7546771E-02  0.1482126E+00
          2   -1    0    0  502    0  0.00000000000E+00  0.00000000000E+00  0.56479021445E+03  0.56479021445E+03  0.00000000000E+00 0.  1.
         -2   -1    0    0    0  501 -0.00000000000E+00 -0.00000000000E+00 -0.10070587766E+01  0.10070587766E+01  0.00000000000E+00 0. -1.
          1    1    1    2  502    0 -0.11845111146E+02 -0.20697280634E+02  0.27827688713E+03  0.27929681344E+03  0.00000000000E+00 0.  1.
         -1    1    1    2    0  501  0.11845111146E+02  0.20697280634E+02  0.28550626854E+03  0.28650045979E+03  0.00000000000E+00 0. -1.
</event>
<event>
 4    1  0.6824761E+001  0.2095697E+02  0.7546771E-02  0.1519880E+00
          2   -1    0    0  502    0  0.00000000000E+00  0.00000000000E+00  0.89082409462E+02  0.89082409462E+02  0.00000000000E+00 0.  1.
         -2   -1    0    0    0  501 -0.00000000000E+00 -0.00000000000E+00 -0.90316534563E+01  0.90316534563E+01  0.00000000000E+00 0. -1.
          1    1    1    2  502    0  0.20658739220E+02  0.35229466612E+01  0.69666461102E+01  0.22084583251E+02  0.00000000000E+00 0. -1.
         -1    1    1    2    0  501 -0.20658739220E+02 -0.35229466612E+01  0.73084109896E+02  0.76029479668E+02  0.00000000000E+00 0.  1.
</event>
<event>
 4    1  0.6824761E+001  0.5033424E+02  0.7546771E-02  0.1296730E+00
          2   -1    0    0  502    0  0.00000000000E+00  0.00000000000E+00  0.11409525692E+04  0.11409525692E+04  0.00000000000E+00 0.  1.
         -2   -1    0    0    0  501 -0.00000000000E+00 -0.00000000000E+00 -0.25208641754E+01  0.25208641754E+01  0.00000000000E+00 0. -1.
          1    1    1    2  502    0 -0.22124878261E+02 -0.45210903323E+02  0.37187672131E+03  0.37526768029E+03  0.00000000000E+00 0. -1.
         -1    1    1    2    0  501  0.22124878261E+02  0.45210903323E+02  0.76655498376E+03  0.76820575313E+03  0.00000000000E+00 0.  1.
</event>
<event>
 4    1  0.6824761E+001  0.3260845E+02  0.7546771E-02  0.1398204E+00
          2   -1    0    0  502    0  0.00000000000E+00  0.00000000000E+00  0.95577900993E+03  0.95577900993E+03  0.00000000000E+00 0.  1.
         -2   -1    0    0    0  501 -0.00000000000E+00 -0.00000000000E+00 -0.13870006074E+01  0.13870006074E+01  0.00000000000E+00 0. -1.
          1    1    1    2  502    0  0.45292240050E+01 -0.32292371600E+02  0.69010049461E+03  0.69087046817E+03  0.00000000000E+00 0.  1.
         -1    1    1    2    0  501 -0.45292240050E+01  0.32292371600E+02  0.26429151472E+03  0.26629554237E+03  0.00000000000E+00 0. -1.
</event>
<event>
 4    1  0.6824761E+001  0.2639270E+02  0.7546771E-02  0.1453806E+00
          2   -1    0    0  502    0  0.00000000000E+00  0.00000000000E+00  0.20583495652E+01  0.20583495652E+01  0.00000000000E+00 0.  1.
         -2   -1    0    0    0  501 -0.00000000000E+00 -0.00000000000E+00 -0.34697232226E+03  0.34697232226E+03  0.00000000000E+00 0. -1.
          1    1    1    2  502    0 -0.26264297525E+02 -0.26002919924E+01 -0.14504920212E+03  0.14743081726E+03  0.00000000000E+00 0. -1.
         -1    1    1    2    0  501  0.26264297525E+02  0.26002919924E+01 -0.19986477058E+03  0.20159985457E+03  0.00000000000E+00 0.  1.
</event>
<event>
 4    1  0.6824761E+001  0.2829219E+02  0.7546771E-02  0.1435042E+00
          2   -1    0    0  502    0  0.00000000000E+00  0.00000000000E+00  0.92645198230E+03  0.92645198230E+03  0.00000000000E+00 0. -1.
         -2   -1    0    0    0  501 -0.00000000000E+00 -0.00000000000E+00 -0.10869636766E+01  0.10869636766E+01  0.00000000000E+00 0.  1.
          1    1    1    2  502    0  0.26136718871E+02  0.10831445872E+02  0.25263465984E+03  0.25421392497E+03  0.00000000000E+00 0.  1.
         -1    1    1    2    0  501 -0.26136718871E+02 -0.10831445872E+02  0.67273035878E+03  0.67332502101E+03  0.00000000000E+00 0. -1.
</event>
<event>
 4    1  0.6824761E+001  0.2006603E+02  0.7546771E-02  0.1533029E+00
          2   -1    0    0  502    0  0.00000000000E+00  0.00000000000E+00  0.74780491525E+03  0.74780491525E+03  0.00000000000E+00 0. -1.
         -2   -1    0    0    0  501 -0.00000000000E+00 -0.00000000000E+00 -0.13742357891E+01  0.13742357891E+01  0.00000000000E+00 0.  1.
          1    1    1    2  502    0 -0.10516802189E+02  0.17089244348E+02  0.66534528655E+03  0.66564780157E+03  0.00000000000E+00 0. -1.
         -1    1    1    2    0  501  0.10516802189E+02 -0.17089244348E+02  0.81085392919E+02  0.83531349477E+02  0.00000000000E+00 0.  1.
</event>
<event>
 4    1  0.6824761E+001  0.2171430E+02  0.7546771E-02  0.1509306E+00
          2   -1    0    0  502    0  0.00000000000E+00  0.00000000000E+00  0.43978841995E+01  0.43978841995E+01  0.00000000000E+00 0.  1.
         -2   -1    0    0    0  501 -0.00000000000E+00 -0.00000000000E+00 -0.11261163321E+03  0.11261163321E+03  0.00000000000E+00 0. -1.
          1    1    1    2  502    0  0.20937782542E+02  0.57550212565E+01 -0.66916473715E+02  0.70351442500E+02  0.00000000000E+00 0. -1.
         -1    1    1    2    0  501 -0.20937782542E+02 -0.57550212565E+01 -0.41297275298E+02  0.46658074912E+02  0.00000000000E+00 0.  1.
</event>
<event>
 4    1  0.6824761E+001  0.2713612E+02  0.7546771E-02  0.1446246E+00
          2   -1    0    0  502    0  0.00000000000E+00  0.00000000000E+00  0.18992022161E+04  0.18992022161E+04  0.00000000000E+00 0.  1.
         -2   -1    0    0    0  501 -0.00000000000E+00 -0.00000000000E+00 -0.55200621701E+00  0.55200621701E+00  0.00000000000E+00 0. -1.
          1    1    1    2  502    0 -0.75614068052E+01 -0.26061356117E+02  0.14675147312E+04  0.14677655997E+04  0.00000000000E+00 0.  1.
         -1    1    1    2    0  501  0.75614068052E+01  0.26061356117E+02  0.43113547866E+03  0.43198862267E+03  0.00000000000E+00 0. -1.
</event>
<event>
 4    1  0.6824761E+001  0.2249912E+02  0.7546771E-02  0.1498885E+00
          2   -1    0    0  502    0  0.00000000000E+00  0.00000000000E+00  0.69617601285E+01  0.69617601285E+01  0.00000000000E+00 0.  1.
         -2   -1    0    0    0  501 -0.00000000000E+00 -0.00000000000E+00 -0.73233506375E+02  0.73233506375E+02  0.00000000000E+00 0. -1.
          1    1    1    2  502    0 -0.15847594124E+02 -0.15970734772E+02 -0.29755472324E+02  0.37304138402E+02  0.00000000000E+00 0. -1.
         -1    1    1    2    0  501  0.15847594124E+02  0.15970734772E+02 -0.36516273922E+02  0.42891128101E+02  0.00000000000E+00 0.  1.
</event>
<event>
 4    1  0.6824761E+001  0.3391275E+02  0.7546771E-02  0.1388372E+00
          2   -1    0    0  502    0  0.00000000000E+00  0.00000000000E+00  0.46747223308E+02  0.46747223308E+02  0.00000000000E+00 0. -1.
         -2   -1    0    0    0  501 -0.00000000000E+00 -0.00000000000E+00 -0.30648554730E+02  0.30648554730E+02  0.00000000000E+00 0.  1.
          1    1    1    2  502    0  0.79868557146E+01 -0.32958834044E+02 -0.91391157528E+01  0.35122614403E+02  0.00000000000E+00 0.  1.
         -1    1    1    2    0  501 -0.79868557146E+01  0.32958834044E+02  0.25237784330E+02  0.42273163635E+02  0.00000000000E+00 0. -1.
</event>
<event>
 4    1  0.6824761E+001  0.2601468E+02  0.7546771E-02  0.1457765E+00
          2   -1    0    0  502    0  0.00000000000E+00  0.00000000000E+00  0.12232236052E+03  0.12232236052E+03  0.00000000000E+00 0. -1.
         -2   -1    0    0    0  501 -0.00000000000E+00 -0.00000000000E+00 -0.11484366812E+02  0.11484366812E+02  0.00000000000E+00 0.  1.
          1    1    1    2  502    0 -0.23550671937E+02 -0.11051228422E+02  0.10358232089E+03  0.10679916198E+03  0.00000000000E+00 0. -1.
         -1    1    1    2    0  501  0.23550671937E+02  0.11051228422E+02  0.72556728182E+01  0.27007565354E+02  0.00000000000E+00 0.  1.
</event>
<event>
 4    1  0.6824761E+001  0.2475888E+02  0.7546771E-02  0.1471519E+00
          2   -1    0    0  502    0  0.00000000000E+00  0.00000000000E+00  0.21370567295E+04  0.21370567295E+04  0.00000000000E+00 0.  1.
         -2   -1    0    0    0  501 -0.00000000000E+00 -0.00000000000E+00 -0.29458718659E+00  0.29458718659E+00  0.00000000000E+00 0. -1.
          1    1    1    2  502    0  0.48297725837E+01 -0.24283234507E+02  0.89512232451E+03  0.89546467156E+03  0.00000000000E+00 0.  1.
         -1    1    1    2    0  501 -0.48297725837E+01  0.24283234507E+02  0.12416398178E+04  0.12418866451E+04  0.00000000000E+00 0. -1.
</event>
<event>
 4    1  0.6824761E+001  0.2516943E+02  0.7546771E-02  0.1466917E+00
          2   -1    0    0  502    0  0.00000000000E+00  0.00000000000E+00  0.10027845499E+04  0.10027845499E+04  0.00000000000E+00 0.  1.
         -2   -1    0    0    0  501 -0.00000000000E+00 -0.00000000000E+00 -0.95992529318E+00  0.95992529318E+00  0.00000000000E+00 0. -1.
          1    1    1    2  502    0 -0.21099006000E+02 -0.13723417333E+02  0.20746288289E+03  0.20898408556E+03  0.00000000000E+00 0. -1.
         -1    1    1    2    0  501  0.21099006000E+02  0.13723417333E+02  0.79436174175E+03  0.79476038967E+03  0.00000000000E+00 0.  1.
</event>
<event>
 4    1  0.6824761E+001  0.2284099E+02  0.7546771E-02  0.1494504E+00
          2   -1    0    0  502    0  0.00000000000E+00  0.00000000000E+00  0.72239480125E+03  0.72239480125E+03  0.00000000000E+00 0.  1.
         -2   -1    0    0    0  501 -0.00000000000E+00 -0.00000000000E+00 -0.16696690289E+01  0.16696690289E+01  0.00000000000E+00 0. -1.
          1    1    1    2  502    0  0.12070886212E+01 -0.22809076906E+02  0.87643599996E+02  0.90571031089E+02  0.00000000000E+00 0. -1.
         -1    1    1    2    0  501 -0.12070886212E+01  0.22809076906E+02  0.63308153222E+03  0.63349343919E+03  0.00000000000E+00 0.  1.
</event>
<event>
 4    1  0.6824761E+001  0.3666784E+02  0.7546771E-02  0.1369202E+00
          2   -1    0    0  502    0  0.00000000000E+00  0.00000000000E+00  0.51405337970E+03  0.51405337970E+03  0.00000000000E+00 0.  1.
         -2   -1    0    0    0  501 -0.00000000000E+00 -0.00000000000E+00 -0.26491344957E+01  0.26491344957E+01  0.00000000000E+00 0. -1.
          1    1    1    2  502    0 -0.30392956074E+02  0.20513378983E+02  0.22661164207E+03  0.22955907043E+03  0.00000000000E+00 0.  1.
         -1    1    1    2    0  501  0.30392956074E+02 -0.20513378983E+02  0.28479260314E+03  0.28714344377E+03  0.00000000000E+00 0. -1.
</event>
<event>
 4    1  0.6824761E+001  0.2007440E+02  0.7546771E-02  0.1532901E+00
          2   -1    0    0  502    0  0.00000000000E+00  0.00000000000E+00  0.16275049341E+03  0.16275049341E+03  0.00000000000E+00 0.  1.
         -2   -1    0    0    0  501 -0.00000000000E+00 -0.00000000000E+00 -0.35713919113E+01  0.35713919113E+01  0.00000000000E+00 0. -1.
          1    1    1    2  502    0  0.18331961124E+02  0.81805024159E+01  0.33535082260E+02  0.39084308369E+02  0.00000000000E+00 0. -1.
         -1    1    1    2    0  501 -0.18331961124E+02 -0.81805024159E+01  0.12564401924E+03  0.12723757696E+03  0.00000000000E+00 0.  1.
</event>
<event>
 4    1  0.6824761E+001  0.4082944E+02  0.7546771E-02  0.1343693E+00
          2   -1    0    0  502    0  0.00000000000E+00  0.00000000000E+00  0.20043246068E+02  0.20043246068E+02  0.00000000000E+00 0.  1.
         -2   -1    0    0    0  501 -0.00000000000E+00 -0.00000000000E+00 -0.86226967185E+02  0.86226967185E+02  0.00000000000E+00 0. -1.
          1    1    1    2  502    0 -0.38390421236E+02  0.13900306189E+02 -0.23090901091E+02  0.46906637783E+02  0.00000000000E+00 0.  1.
         -1    1    1    2    0  501  0.38390421236E+02 -0.13900306189E+02 -0.43092820026E+02  0.59363575471E+02  0.00000000000E+00 0. -1.
</event>
<event>
 4    1  0.6824761E+001  0.2161170E+02  0.7546771E-02  0.1510708E+00
          2   -1    0    0  502    0  0.00000000000E+00  0.00000000000E+00  0.17868271752E+04  0.17868271752E+04  0.00000000000E+00 0. -1.
         -2   -1    0    0    0  501 -0.00000000000E+00 -0.00000000000E+00 -0.42178371549E+00  0.42178371549E+00  0.00000000000E+00 0.  1.
          1    1    1    2  502    0  0.19976779666E+02 -0.82458325047E+01  0.14442624981E+04  0.14444241859E+04  0.00000000000E+00 0. -1.
         -1    1    1    2    0  501 -0.19976779666E+02  0.82458325047E+01  0.34214289340E+03  0.34282477300E+03  0.00000000000E+00 0.  1.
</event>
<event>
 4    1  0.6824761E+001  0.2874169E+02  0.7546771E-02  0.1430856E+00
          2   -1    0    0  502    0  0.00000000000E+00  0.00000000000E+00  0.31420879897E+02  0.31420879897E+02  0.00000000000E+00 0.  1.
         -2   -1    0    0    0  501 -0.00000000000E+00 -0.00000000000E+00 -0.27717581023E+02  0.27717581023E+02  0.00000000000E+00 0. -1.
          1    1    1    2  502    0  0.59871261663E+01 -0.28111190747E+02  0.85600420043E+01  0.29989315499E+02  0.00000000000E+00 0.  1.
         -1    1    1    2    0  501 -0.59871261663E+01  0.28111190747E+02 -0.48567431297E+01  0.29149145421E+02  0.00000000000E+00 0. -1.
</event>
<event>
 4    1  0.6824761E+001  0.2033702E+02  0.7546771E-02  0.1528945E+00
          2   -1    0    0  502    0  0.00000000000E+00  0.00000000000E+00  0.81741608839E+01  0.81741608839E+01  0.00000000000E+00 0.  1.
         -2   -1    0    0    0  501 -0.00000000000E+00 -0.00000000000E+00 -0.52419994924E+02  0.52419994924E+02  0.00000000000E+00 0. -1.
          1    1    1    2  502    0  0.57716800758E+01 -0.19500827774E+02 -0.27771628881E+02  0.34421765577E+02  0.00000000000E+00 0.  1.
         -1    1    1    2    0  501 -0.57716800758E+01  0.19500827774E+02 -0.16474205159E+02  0.26172390231E+02  0.00000000000E+00 0. -1.
</event>
<event>
 4    1  0.6824761E+001  0.5855942E+02  0.7546771E-02  0.1264807E+00
          2   -1    0    0  502    0  0.00000000000E+00  0.00000000000E+00  0.42508243347E+02  0.42508243347E+02  0.00000000000E+00 0.  1.
         -2   -1    0    0    0  501 -0.00000000000E+00 -0.00000000000E+00 -0.94476221544E+02  0.94476221544E+02  0.00000000000E+00 0. -1.
          1    1    1    2  502    0  0.55720057253E+02  0.18013346477E+02  0.19743515950E+00  0.58559750787E+02  0.00000000000E+00 0. -1.
         -1    1    1    2    0  501 -0.55720057253E+02 -0.18013346477E+02 -0.52165413356E+02  0.78424714103E+02  0.00000000000E+00 0.  1.
</event>
<event>
 4    1  0.6824761E+001  0.3601207E+02  0.7546771E-02  0.1373584E+00
          2   -1    0    0  502    0  0.00000000000E+00  0.00000000000E+00  0.32186305168E+04  0.32186305168E+04  0.00000000000E+00 0. -1.
         -2   -1    0    0    0  501 -0.00000000000E+00 -0.00000000000E+00 -0.44001921964E+00  0.44001921964E+00  0.00000000000E+00 0.  1.
          1    1    1    2  502    0  0.31630382199E+02  0.17215924665E+02  0.20764141614E+04  0.20767264237E+04  0.00000000000E+00 0. -1.
         -1    1    1    2    0  501 -0.31630382199E+02 -0.17215924665E+02  0.11417763362E+04  0.11423441124E+04  0.00000000000E+00 0.  1.
</event>
<event>
 4    1  0.6824761E+001  0.4831848E+02  0.7546771E-02  0.1305632E+00
          2   -1    0    0  502    0  0.00000000000E+00  0.00000000000E+00  0.24086793614E+04  0.24086793614E+04  0.00000000000E+00 0. -1.
         -2   -1    0    0    0  501 -0.00000000000E+00 -0.00000000000E+00 -0.10303132021E+01  0.10303132021E+01  0.00000000000E+00 0.  1.
          1    1    1    2  502    0 -0.37106528786E+02  0.30948039607E+02  0.14970803227E+04  0.14978598627E+04  0.00000000000E+00 0.  1.
         -1    1    1    2    0  501  0.37106528786E+02 -0.30948039607E+02  0.91056872548E+03  0.91184981189E+03  0.00000000000E+00 0. -1.
</event>
<event>
 4    1  0.6824761E+001  0.3030517E+02  0.7546771E-02  0.1416963E+00
          2   -1    0    0  502    0  0.00000000000E+00  0.00000000000E+00  0.12853924820E+04  0.12853924820E+04  0.00000000000E+00 0.  1.
         -2   -1    0    0    0  501 -0.00000000000E+00 -0.00000000000E+00 -0.76099594812E+00  0.76099594812E+00  0.00000000000E+00 0. -1.
          1    1    1    2  502    0  0.17150530742E+02  0.24985250507E+02  0.48334630959E+03  0.48429542476E+03  0.00000000000E+00 0.  1.
         -1    1    1    2    0  501 -0.17150530742E+02 -0.24985250507E+02  0.80128517647E+03  0.80185805320E+03  0.00000000000E+00 0. -1.
</event>
<event>
 4    1  0.6824761E+001  0.3520843E+02  0.7546771E-02  0.1379104E+00
          2   -1    0    0  502    0  0.00000000000E+00  0.00000000000E+00  0.18102525732E+03  0.18102525732E+03  0.00000000000E+00 0.  1.
         -2   -1    0    0    0  501 -0.00000000000E+00 -0.00000000000E+00 -0.83570948265E+01  0.83570948265E+01  0.00000000000E+00 0. -1.
          1    1    1    2  502    0 -0.25660548571E+02 -0.24107459257E+02  0.46093702295E+02  0.58002264921E+02  0.00000000000E+00 0. -1.
         -1    1    1    2    0  501  0.25660548571E+02  0.24107459257E+02  0.12657446020E+03  0.13138008723E+03  0.00000000000E+00 0.  1.
</event>
<event>
 4    1  0.6824761E+001  0.2775068E+02  0.7546771E-02  0.1440210E+00
          2   -1    0    0  502    0  0.00000000000E+00  0.00000000000E+00  0.77537443296E+01  0.77537443296E+01  0.00000000000E+00 0.  1.
         -2   -1    0    0    0  501 -0.00000000000E+00 -0.00000000000E+00 -0.11265589061E+03  0.11265589061E+03  0.00000000000E+00 0. -1.
          1    1    1    2  502    0  0.26440399671E+02  0.84264862897E+01 -0.31736861300E+02  0.42158377236E+02  0.00000000000E+00 0.  1.
         -1    1    1    2    0  501 -0.26440399671E+02 -0.84264862897E+01 -0.73165284975E+02  0.78251257699E+02  0.00000000000E+00 0. -1.
</event>
<event>
 4    1  0.6824761E+001  0.2219891E+02  0.7546771E-02  0.1502810E+00
          2   -1    0    0  502    0  0.00000000000E+00  0.00000000000E+00  0.32239667206E+03  0.32239667206E+03  0.00000000000E+00 0. -1.
         -2   -1    0    0    0  501 -0.00000000000E+00 -0.00000000000E+00 -0.31509207990E+01  0.31509207990E+01  0.00000000000E+00 0.  1.
          1    1    1    2  502    0 -0.50833858992E+01 -0.21609039183E+02  0.27642322727E+03  0.27731316587E+03  0.00000000000E+00 0. -1.
         -1    1    1    2    0  501  0.50833858992E+01  0.21609039183E+02  0.42822523988E+02  0.48234426992E+02  0.00000000000E+00 0.  1.
</event>
<event>
 4    1  0.6824761E+001  0.2555270E+02  0.7546771E-02  0.1462714E+00
          2   -1    0    0  502    0  0.00000000000E+00  0.00000000000E+00  0.33865627423E+01  0.33865627423E+01  0.00000000000E+00 0.  1.
         -2   -1    0    0    0  501 -0.00000000000E+00 -0.00000000000E+00 -0.26524364100E+03  0.26524364100E+03  0.00000000000E+00 0. -1.
          1    1    1    2  502    0  0.16976842206E+02  0.19097837422E+02 -0.20112133091E+03  0.20273808304E+03  0.00000000000E+00 0. -1.
         -1    1    1    2    0  501 -0.16976842206E+02 -0.19097837422E+02 -0.60735747348E+02  0.65892120708E+02  0.00000000000E+00 0.  1.
</event>
<event>
 4    1  0.6824761E+001  0.2224567E+02  0.7546771E-02  0.1502194E+00
          2   -1    0    0  502    0  0.00000000000E+00  0.00000000000E+00  0.96098964246E+03  0.96098964246E+03  0.00000000000E+00 0. -1.
         -2   -1    0    0    0  501 -0.00000000000E+00 -0.00000000000E+00 -0.53380714040E+00  0.53380714040E+00  0.00000000000E+00 0.  1.
          1    1    1    2  502    0  0.17729814051E+02  0.13435907065E+02  0.57056712366E+03  0.57100062391E+03  0.00000000000E+00 0. -1.
         -1    1    1    2    0  501 -0.17729814051E+02 -0.13435907065E+02  0.38988871165E+03  0.39052282568E+03  0.00000000000E+00 0.  1.
</event>
<event>
 4    1  0.6824761E+001  0.3100140E+02  0.7546771E-02  0.1411089E+00
          2   -1    0    0  502    0  0.00000000000E+00  0.00000000000E+00  0.98206054420E+01  0.98206054420E+01  0.00000000000E+00 0. -1.
         -2   -1    0    0    0  501 -0.00000000000E+00 -0.00000000000E+00 -0.10724015411E+03  0.10724015411E+03  0.00000000000E+00 0.  1.
          1    1    1    2  502    0 -0.24120583907E+02  0.19475213228E+02 -0.31403305302E+02  0.44127701982E+02  0.00000000000E+00 0. -1.
         -1    1    1    2    0  501  0.24120583907E+02 -0.19475213228E+02 -0.66016243364E+02  0.72933057568E+02  0.00000000000E+00 0.  1.
</event>
<event>
 4    1  0.6824761E+001  0.3686076E+02  0.7546771E-02  0.1367933E+00
          2   -1    0    0  502    0  0.00000000000E+00  0.00000000000E+00  0.92066458853E+03  0.92066458853E+03  0.00000000000E+00 0.  1.
         -2   -1    0    0    0  501 -0.00000000000E+00 -0.00000000000E+00 -0.75151582527E+01  0.75151582527E+01  0.00000000000E+00 0. -1.
          1    1    1    2  502    0  0.24447746805E+02  0.27586653945E+02  0.87260836822E+03  0.87338655822E+03  0.00000000000E+00 0.  1.
         -1    1    1    2    0  501 -0.24447746805E+02 -0.27586653945E+02  0.40541062061E+02  0.54793188561E+02  0.00000000000E+00 0. -1.
</event>
<event>
 4    1  0.6824761E+001  0.4140414E+02  0.7546771E-02  0.1340448E+00
          2   -1    0    0  502    0  0.00000000000E+00  0.00000000000E+00  0.25850421813E+03  0.25850421813E+03  0.00000000000E+00 0. -1.
         -2   -1    0    0    0  501 -0.00000000000E+00 -0.00000000000E+00 -0.68018386512E+01  0.68018386512E+01  0.00000000000E+00 0.  1.
          1    1    1    2  502    0  0.40241847226E+02 -0.97414929326E+01  0.14683583390E+03  0.15256167628E+03  0.00000000000E+00 0. -1.
         -1    1    1    2    0  501 -0.40241847226E+02  0.97414929326E+01  0.10486654558E+03  0.11274438050E+03  0.00000000000E+00 0.  1.
</event>
<event>
 4    1  0.6824761E+001  0.2240385E+02  0.7546771E-02  0.1500123E+00
          2   -1    0    0  502    0  0.00000000000E+00  0.00000000000E+00  0.17032878645E+02  0.17032878645E+02  0.00000000000E+00 0. -1.
         -2   -1    0    0    0  501 -0.00000000000E+00 -0.00000000000E+00 -0.34336049053E+02  0.34336049053E+02  0.00000000000E+00 0.  1.
          1    1    1    2  502    0 -0.21424650475E+02  0.65510783261E+01  0.10190147353E+01  0.22427007519E+02  0.00000000000E+00 0.  1.
         -1    1    1    2    0  501  0.21424650475E+02 -0.65510783261E+01 -0.18322185144E+02  0.28941920179E+02  0.00000000000E+00 0. -1.
</event>
<event>
 4    1  0.6824761E+001  0.2780312E+02  0.7546771E-02  0.1439703E+00
          2   -1    0    0  502    0  0.00000000000E+00  0.00000000000E+00  0.12240057572E+04  0.12240057572E+04  0.00000000000E+00 0.  1.
         -2   -1    0    0    0  501 -0.00000000000E+00 -0.00000000000E+00 -0.13696472605E+01  0.13696472605E+01  0.00000000000E+00 0. -1.
          1    1    1    2  502    0  0.26370101348E+02 -0.88108634949E+01  0.10610910146E+04  0.10614552062E+04  0.00000000000E+00 0.  1.
         -1    1    1    2    0  501 -0.26370101348E+02  0.88108634949E+01  0.16154509530E+03  0.16392019820E+03  0.00000000000E+00 0. -1.
</event>
<event>
 4    1  0.6824761E+001  0.4096300E+02  0.7546771E-02  0.1342933E+00
          2   -1    0    0  502    0  0.00000000000E+00  0.00000000000E+00  0.12457517151E+04  0.12457517151E+04  0.00000000000E+00 0.  1.
         -2   -1    0    0    0  501 -0.00000000000E+00 -0.00000000000E+00 -0.14556535120E+01  0.14556535120E+01  0.00000000000E+00 0. -1.
          1    1    1    2  502    0  0.35783448578E+02  0.19937700125E+02  0.79255939702E+03  0.79361726599E+03  0.00000000000E+00 0. -1.
         -1    1    1    2    0  501 -0.35783448578E+02 -0.19937700125E+02  0.45173666457E+03  0.45359010262E+03  0.00000000000E+00 0.  1.
</event>
<event>
 4    1  0.6824761E+001  0.2864614E+02  0.7546771E-02  0.1431738E+00
          2   -1    0    0  502    0  0.00000000000E+00  0.00000000000E+00  0.67088097769E+03  0.67088097769E+03  0.00000000000E+00 0.  1.
         -2   -1    0    0    0  501 -0.00000000000E+00 -0.00000000000E+00 -0.19580628402E+01  0.19580628402E+01  0.00000000000E+00 0. -1.
          1    1    1    2  502    0  0.28282840714E+02  0.45477508146E+01  0.12836048298E+03  0.13151811551E+03  0.00000000000E+00 0. -1.
         -1    1    1    2    0  501 -0.28282840714E+02 -0.45477508146E+01  0.54056243187E+03  0.54132092502E+03  0.00000000000E+00 0.  1.
</event>
<event>
 4    1  0.6824761E+001  0.8388974E+02  0.7546771E-02  0.1195094E+00
          2   -1    0    0  502    0  0.00000000000E+00  0.00000000000E+00  0.12923189006E+04  0.12923189006E+04  0.00000000000E+00 0.  1.
         -2   -1    0    0    0  501 -0.00000000000E+00 -0.00000000000E+00 -0.12182179476E+02  0.12182179476E+02  0.00000000000E+00 0. -1.
          1    1    1    2  502    0  0.43126839808E+02  0.71955295985E+02  0.11251007529E+04  0.11282239109E+04  0.00000000000E+00 0.  1.
         -1    1    1    2    0  501 -0.43126839808E+02 -0.71955295985E+02  0.15503596822E+03  0.17627716918E+03  0.00000000000E+00 0. -1.
</event>
<event>
 4    1  0.6824761E+001  0.2580437E+02  0.7546771E-02  0.1460003E+00
          2   -1    0    0  502    0  0.00000000000E+00  0.00000000000E+00  0.79520284206E+03  0.79520284206E+03  0.00000000000E+00 0.  1.
         -2   -1    0    0    0  501 -0.00000000000E+00 -0.00000000000E+00 -0.97303737908E+00  0.97303737908E+00  0.00000000000E+00 0. -1.
          1    1    1    2  502    0  0.25783349836E+02  0.10412489845E+01  0.54576989535E+03  0.54637957868E+03  0.00000000000E+00 0. -1.
         -1    1    1    2    0  501 -0.25783349836E+02 -0.10412489845E+01  0.24845990934E+03  0.24979630076E+03  0.00000000000E+00 0.  1.
</event>
<event>
 4    1  0.6824761E+001  0.3845972E+02  0.7546771E-02  0.1357756E+00
          2   -1    0    0  502    0  0.00000000000E+00  0.00000000000E+00  0.10392527066E+04  0.10392527066E+04  0.00000000000E+00 0. -1.
         -2   -1    0    0    0  501 -0.00000000000E+00 -0.00000000000E+00 -0.34518916954E+01  0.34518916954E+01  0.00000000000E+00 0.  1.
          1    1    1    2  502    0  0.17404630046E+02  0.34296195384E+02  0.91757073839E+03  0.91837639893E+03  0.00000000000E+00 0. -1.
         -1    1    1    2    0  501 -0.17404630046E+02 -0.34296195384E+02  0.11823007655E+03  0.12432819940E+03  0.00000000000E+00 0.  1.
</event>
<event>
 4    1  0.6824761E+001  0.2160969E+02  0.7546771E-02  0.1510735E+00
          2   -1    0    0  502    0  0.00000000000E+00  0.00000000000E+00  0.97503026607E+03  0.97503026607E+03  0.00000000000E+00 0. -1.
         -2   -1    0    0    0  501 -0.00000000000E+00 -0.00000000000E+00 -0.58577097795E+00  0.58577097795E+00  0.00000000000E+00 0.  1.
          1    1    1    2  502    0  0.11091554208E+02  0.18546049788E+02  0.69554597421E+03  0.69588158531E+03  0.00000000000E+00 0. -1.
         -1    1    1    2    0  501 -0.11091554208E+02 -0.18546049788E+02  0.27889852088E+03  0.27973445174E+03  0.00000000000E+00 0.  1.
</event>
<event>
 4    1  0.6824761E+001  0.3050345E+02  0.7546771E-02  0.1415271E+00
          2   -1    0    0  502    0  0.00000000000E+00  0.00000000000E+00  0.14899717452E+02  0.14899717452E+02  0.00000000000E+00 0. -1.
         -2   -1    0    0    0  501 -0.00000000000E+00 -0.00000000000E+00 -0.67269382412E+02  0.67269382412E+02  0.00000000000E+00 0.  1.
          1    1    1    2  502    0 -0.20215259921E+02 -0.22843022919E+02 -0.15185991716E+02  0.34074547306E+02  0.00000000000E+00 0. -1.
         -1    1    1    2    0  501  0.20215259921E+02  0.22843022919E+02 -0.37183673245E+02  0.48094552557E+02  0.00000000000E+00 0.  1.
</event>
<event>
 4    1  0.6824761E+001  0.2041304E+02  0.7546771E-02  0.1527812E+00
          2   -1    0    0  502    0  0.00000000000E+00  0.00000000000E+00  0.23884131374E+02  0.23884131374E+02  0.00000000000E+00 0.  1.
         -2   -1    0    0    0  501 -0.00000000000E+00 -0.00000000000E+00 -0.21854049407E+02  0.21854049407E+02  0.00000000000E+00 0. -1.
          1    1    1    2  502    0  0.12623646879E+02 -0.16041690608E+02  0.11285410356E+02  0.23324939122E+02  0.00000000000E+00 0.  1.
         -1    1    1    2    0  501 -0.12623646879E+02  0.16041690608E+02 -0.92553283895E+01  0.22413241660E+02  0.00000000000E+00 0. -1.
</event>
<event>
 4    1  0.6824761E+001  0.2318502E+02  0.7546771E-02  0.1490188E+00
          2   -1    0    0  502    0  0.00000000000E+00  0.00000000000E+00  0.33190491360E+02  0.33190491360E+02  0.00000000000E+00 0.  1.
         -2   -1    0    0    0  501 -0.00000000000E+00 -0.00000000000E+00 -0.16929466939E+02  0.16929466939E+02  0.00000000000E+00 0. -1.
          1    1    1    2  502    0 -0.20502718356E+02 -0.10825131090E+02  0.13347539811E+02  0.26752602530E+02  0.00000000000E+00 0.  1.
         -1    1    1    2    0  501  0.20502718356E+02  0.10825131090E+02  0.29134846102E+01  0.23367355770E+02  0.00000000000E+00 0. -1.
</event>
<event>
 4    1  0.6824761E+001  0.2243224E+02  0.7546771E-02  0.1499753E+00
          2   -1    0    0  502    0  0.00000000000E+00  0.00000000000E+00  0.11118142708E+04  0.11118142708E+04  0.00000000000E+00 0. -1.
         -2   -1    0    0    0  501 -0.00000000000E+00 -0.00000000000E+00 -0.48059871968E+00  0.48059871968E+00  0.00000000000E+00 0.  1.
          1    1    1    2  502    0 -0.21997772653E+02  0.43935643128E+01  0.42142750277E+03  0.42202410535E+03  0.00000000000E+00 0. -1.
         -1    1    1    2    0  501  0.21997772653E+02 -0.43935643128E+01  0.68990616926E+03  0.69027076412E+03  0.00000000000E+00 0.  1.
</event>
<event>
 4    1  0.6824761E+001  0.5495516E+02  0.7546771E-02  0.1278009E+00
          2   -1    0    0  502    0  0.00000000000E+00  0.00000000000E+00  0.22935183437E+02  0.22935183437E+02  0.00000000000E+00 0. -1.
         -2   -1    0    0    0  501 -0.00000000000E+00 -0.00000000000E+00 -0.13167903500E+03  0.13167903500E+03  0.00000000000E+00 0.  1.
          1    1    1    2  502    0 -0.22205552229E+02 -0.50269102553E+02 -0.54535984836E+02  0.77422495848E+02  0.00000000000E+00 0.  1.
         -1    1    1    2    0  501  0.22205552229E+02  0.50269102553E+02 -0.54207866729E+02  0.77191722591E+02  0.00000000000E+00 0. -1.
</event>
<event>
 4    1  0.6824761E+001  0.2225958E+02  0.7546771E-02  0.1502011E+00
          2   -1    0    0  502    0  0.00000000000E+00  0.00000000000E+00  0.22672187871E+03  0.22672187871E+03  0.00000000000E+00 0.  1.
         -2   -1    0    0    0  501 -0.00000000000E+00 -0.00000000000E+00 -0.22844906018E+01  0.22844906018E+01  0.00000000000E+00 0. -1.
          1    1    1    2  502    0  0.34278384516E+01 -0.21994064504E+02  0.88377215363E+02  0.91137375127E+02  0.00000000000E+00 0. -1.
         -1    1    1    2    0  501 -0.34278384516E+01  0.21994064504E+02  0.13606017275E+03  0.13786899419E+03  0.00000000000E+00 0.  1.
</event>
<event>
 4    1  0.6824761E+001  0.2263911E+02  0.7546771E-02  0.1497080E+00
          2   -1    0    0  502    0  0.00000000000E+00  0.00000000000E+00  0.11175031207E+02  0.11175031207E+02  0.00000000000E+00 0. -1.
         -2   -1    0    0    0  501 -0.00000000000E+00 -0.00000000000E+00 -0.62251324240E+02  0.62251324240E+02  0.00000000000E+00 0.  1.
          1    1    1    2  502    0  0.73265789989E+01  0.21420798669E+02 -0.67014657481E+01  0.23610146518E+02  0.00000000000E+00 0. -1.
         -1    1    1    2    0  501 -0.73265789989E+01 -0.21420798669E+02 -0.44374827285E+02  0.49816208928E+02  0.00000000000E+00 0.  1.
</event>
<event>
 4    1  0.6824761E+001  0.2346611E+02  0.7546771E-02  0.1486727E+00
          2   -1    0    0  502    0  0.00000000000E+00  0.00000000000E+00  0.39467793132E+03  0.39467793132E+03  0.00000000000E+00 0.  1.
         -2   -1    0    0    0  501 -0.00000000000E+00 -0.00000000000E+00 -0.14209413720E+01  0.14209413720E+01  0.00000000000E+00 0. -1.
          1    1    1    2  502    0 -0.19674336723E+02 -0.12789791275E+02  0.16997687359E+03  0.17158903182E+03  0.00000000000E+00 0.  1.
         -1    1    1    2    0  501  0.19674336723E+02  0.12789791275E+02  0.22328011636E+03  0.22450984087E+03  0.00000000000E+00 0. -1.
</event>
<event>
 4    1  0.6824761E+001  0.2070448E+02  0.7546771E-02  0.1523526E+00
          2   -1    0    0  502    0  0.00000000000E+00  0.00000000000E+00  0.82962843989E+02  0.82962843989E+02  0.00000000000E+00 0.  1.
         -2   -1    0    0    0  501 -0.00000000000E+00 -0.00000000000E+00 -0.85206611911E+01  0.85206611911E+01  0.00000000000E+00 0. -1.
          1    1    1    2  502    0 -0.70440011248E+01  0.19469397884E+02  0.85244707368E+01  0.22390667858E+02  0.00000000000E+00 0. -1.
         -1    1    1    2    0  501  0.70440011248E+01 -0.19469397884E+02  0.65917712061E+02  0.69092837322E+02  0.00000000000E+00 0.  1.
</event>
<event>
 4    1  0.6824761E+001  0.2687847E+02  0.7546771E-02  0.1448833E+00
          2   -1    0    0  502    0  0.00000000000E+00  0.00000000000E+00  0.18951412245E+04  0.18951412245E+04  0.00000000000E+00 0.  1.
         -2   -1    0    0    0  501 -0.00000000000E+00 -0.00000000000E+00 -0.52788321242E+00  0.52788321242E+00  0.00000000000E+00 0. -1.
          1    1    1    2  502    0 -0.83851275832E+01 -0.25537065230E+02  0.44769233683E+03  0.44849847326E+03  0.00000000000E+00 0. -1.
         -1    1    1    2    0  501  0.83851275832E+01  0.25537065230E+02  0.14469210044E+04  0.14471706344E+04  0.00000000000E+00 0.  1.
</event>
<event>
 4    1  0.6824761E+001  0.2306396E+02  0.7546771E-02  0.1491697E+00
          2   -1    0    0  502    0  0.00000000000E+00  0.00000000000E+00  0.40993933828E+02  0.40993933828E+02  0.00000000000E+00 0. -1.
         -2   -1    0    0    0  501 -0.00000000000E+00 -0.00000000000E+00 -0.17148178321E+02  0.17148178321E+02  0.00000000000E+00 0.  1.
          1    1    1    2  502    0 -0.22850437235E+02  0.31310894081E+01  0.26261978709E+02  0.34951934545E+02  0.00000000000E+00 0. -1.
         -1    1    1    2    0  501  0.22850437235E+02 -0.31310894081E+01 -0.24162232028E+01  0.23190177604E+02  0.00000000000E+00 0.  1.
</event>
<event>
 4    1  0.6824761E+001  0.2248811E+02  0.7546771E-02  0.1499028E+00
          2   -1    0    0  502    0  0.00000000000E+00  0.00000000000E+00  0.16954101637E+03  0.16954101637E+03  0.00000000000E+00 0.  1.
         -2   -1    0    0    0  501 -0.00000000000E+00 -0.00000000000E+00 -0.32851763299E+01  0.32851763299E+01  0.00000000000E+00 0. -1.
          1    1    1    2  502    0  0.22404492883E+02  0.19374824281E+01  0.56913551428E+02  0.61195322335E+02  0.00000000000E+00 0. -1.
         -1    1    1    2    0  501 -0.22404492883E+02 -0.19374824281E+01  0.10934228861E+03  0.11163087036E+03  0.00000000000E+00 0.  1.
</event>
<event>
 4    1  0.6824761E+001  0.2253289E+02  0.7546771E-02  0.1498448E+00
          2   -1    0    0  502    0  0.00000000000E+00  0.00000000000E+00  0.18722428385E+02  0.18722428385E+02  0.00000000000E+00 0. -1.
         -2   -1    0    0    0  501 -0.00000000000E+00 -0.00000000000E+00 -0.28040706750E+02  0.28040706750E+02  0.00000000000E+00 0.  1.
          1    1    1    2  502    0 -0.17162547487E+02  0.14600620656E+02 -0.88985491989E+01  0.24226335621E+02  0.00000000000E+00 0. -1.
         -1    1    1    2    0  501  0.17162547487E+02 -0.14600620656E+02 -0.41972916658E+00  0.22536799514E+02  0.00000000000E+00 0.  1.
</event>
<event>
 4    1  0.6824761E+001  0.2771022E+02  0.7546771E-02  0.1440601E+00
          2   -1    0    0  502    0  0.00000000000E+00  0.00000000000E+00  0.70142066023E+02  0.70142066023E+02  0.00000000000E+00 0.  1.
         -2   -1    0    0    0  501 -0.00000000000E+00 -0.00000000000E+00 -0.12904027700E+02  0.12904027700E+02  0.00000000000E+00 0. -1.
          1    1    1    2  502    0  0.10357720040E+02 -0.25701633005E+02  0.44788924819E+02  0.52667865820E+02  0.00000000000E+00 0. -1.
         -1    1    1    2    0  501 -0.10357720040E+02  0.25701633005E+02  0.12449113504E+02  0.30378227904E+02  0.00000000000E+00 0.  1.
</event>
<event>
 4    1  0.6824761E+001  0.4500962E+02  0.7546771E-02  0.1321391E+00
          2   -1    0    0  502    0  0.00000000000E+00  0.00000000000E+00  0.15877982724E+04  0.15877982724E+04  0.00000000000E+00 0. -1.
         -2   -1    0    0    0  501 -0.00000000000E+00 -0.00000000000E+00 -0.12902593918E+01  0.12902593918E+01  0.00000000000E+00 0.  1.
          1    1    1    2  502    0 -0.44969203589E+02  0.19069293731E+01  0.70942268520E+03  0.71084907817E+03  0.00000000000E+00 0. -1.
         -1    1    1    2    0  501  0.44969203589E+02 -0.19069293731E+01  0.87708532785E+03  0.87823945367E+03  0.00000000000E+00 0.  1.
</event>
<event>
 4    1  0.6824761E+001  0.2535798E+02  0.7546771E-02  0.1464838E+00
          2   -1    0    0  502    0  0.00000000000E+00  0.00000000000E+00  0.34003906983E+03  0.34003906983E+03  0.00000000000E+00 0.  1.
         -2   -1    0    0    0  501 -0.00000000000E+00 -0.00000000000E+00 -0.99230181706E+01  0.99230181706E+01  0.00000000000E+00 0. -1.
          1    1    1    2  502    0 -0.55805838145E+01 -0.24736289772E+02  0.32248545825E+03  0.32348090783E+03  0.00000000000E+00 0.  1.
         -1    1    1    2    0  501  0.55805838145E+01  0.24736289772E+02  0.76305934065E+01  0.26481180168E+02  0.00000000000E+00 0. -1.
</event>
<event>
 4    1  0.6824761E+001  0.1125091E+03  0.7546771E-02  0.1143737E+00
          2   -1    0    0  502    0  0.00000000000E+00  0.00000000000E+00  0.46010575262E+03  0.46010575262E+03  0.00000000000E+00 0. -1.
         -2   -1    0    0    0  501 -0.00000000000E+00 -0.00000000000E+00 -0.27896797539E+02  0.27896797539E+02  0.00000000000E+00 0.  1.
          1    1    1    2  502    0  0.26801432270E+02 -0.10927025343E+03  0.24477156672E+03  0.26939084047E+03  0.00000000000E+00 0. -1.
         -1    1    1    2    0  501 -0.26801432270E+02  0.10927025343E+03  0.18743738836E+03  0.21861170968E+03  0.00000000000E+00 0.  1.
</event>
<event>
 4    1  0.6824761E+001  0.2453925E+02  0.7546771E-02  0.1474024E+00
          2   -1    0    0  502    0  0.00000000000E+00  0.00000000000E+00  0.72094293606E+01  0.72094293606E+01  0.00000000000E+00 0. -1.
         -2   -1    0    0    0  501 -0.00000000000E+00 -0.00000000000E+00 -0.92947996193E+02  0.92947996193E+02  0.00000000000E+00 0.  1.
          1    1    1    2  502    0 -0.21103207270E+02 -0.12523155020E+02 -0.26925011466E+02  0.36429809376E+02  0.00000000000E+00 0. -1.
         -1    1    1    2    0  501  0.21103207270E+02  0.12523155020E+02 -0.58813555367E+02  0.63727616178E+02  0.00000000000E+00 0.  1.
</event>
<event>
 4    1  0.6824761E+001  0.2069468E+02  0.7546771E-02  0.1523669E+00
          2   -1    0    0  502    0  0.00000000000E+00  0.00000000000E+00  0.31341371745E+03  0.31341371745E+03  0.00000000000E+00 0.  1.
         -2   -1    0    0    0  501 -0.00000000000E+00 -0.00000000000E+00 -0.13841834681E+01  0.13841834681E+01  0.00000000000E+00 0. -1.
          1    1    1    2  502    0  0.20415603959E+02 -0.33871395045E+01  0.17382172731E+03  0.17504931443E+03  0.00000000000E+00 0. -1.
         -1    1    1    2    0  501 -0.20415603959E+02  0.33871395045E+01  0.13820780667E+03  0.13974858649E+03  0.00000000000E+00 0.  1.
</event>
<event>
 4    1  0.6824761E+001  0.3305246E+02  0.7546771E-02  0.1394797E+00
          2   -1    0    0  502    0  0.00000000000E+00  0.00000000000E+00  0.19569721204E+03  0.19569721204E+03  0.00000000000E+00 0.  1.
         -2   -1    0    0    0  501 -0.00000000000E+00 -0.00000000000E+00 -0.75146064596E+01  0.75146064596E+01  0.00000000000E+00 0. -1.
          1    1    1    2  502    0  0.10091820749E+02  0.31474123351E+02  0.14561293838E+03  0.14931708915E+03  0.00000000000E+00 0.  1.
         -1    1    1    2    0  501 -0.10091820749E+02 -0.31474123351E+02  0.42569667198E+02  0.53894729354E+02  0.00000000000E+00 0. -1.
</event>
<event>
 4    1  0.6824761E+001  0.2590343E+02  0.7546771E-02  0.1458946E+00
          2   -1    0    0  502    0  0.00000000000E+00  0.00000000000E+00  0.23427770404E+01  0.23427770404E+01  0.00000000000E+00 0. -1.
         -2   -1    0    0    0  501 -0.00000000000E+00 -0.00000000000E+00 -0.44358470162E+03  0.44358470162E+03  0.00000000000E+00 0.  1.
          1    1    1    2  502    0 -0.21673671592E+02 -0.14185891742E+02 -0.87899385712E+02  0.91636726117E+02  0.00000000000E+00 0. -1.
         -1    1    1    2    0  501  0.21673671592E+02  0.14185891742E+02 -0.35334253886E+03  0.35429075254E+03  0.00000000000E+00 0.  1.
</event>
<event>
 4    1  0.6824761E+001  0.2036942E+02  0.7546771E-02  0.1528461E+00
          2   -1    0    0  502    0  0.00000000000E+00  0.00000000000E+00  0.18488377827E+02  0.18488377827E+02  0.00000000000E+00 0. -1.
         -2   -1    0    0    0  501 -0.00000000000E+00 -0.00000000000E+00 -0.26651694940E+02  0.26651694940E+02  0.00000000000E+00 0.  1.
          1    1    1    2  502    0  0.16880850520E+02 -0.11399563901E+02 -0.13051887663E+02  0.24192249647E+02  0.00000000000E+00 0.  1.
         -1    1    1    2    0  501 -0.16880850520E+02  0.11399563901E+02  0.48885705493E+01  0.20947823119E+02  0.00000000000E+00 0. -1.
</event>
<event>
 4    1  0.6824761E+001  0.5178585E+02  0.7546771E-02  0.1290610E+00
          2   -1    0    0  502    0  0.00000000000E+00  0.00000000000E+00  0.83757599453E+01  0.83757599453E+01  0.00000000000E+00 0.  1.
         -2   -1    0    0    0  501 -0.00000000000E+00 -0.00000000000E+00 -0.41044910602E+03  0.41044910602E+03  0.00000000000E+00 0. -1.
          1    1    1    2  502    0 -0.88273617002E+01  0.51027950447E+02 -0.29924214940E+03  0.30369003609E+03  0.00000000000E+00 0. -1.
         -1    1    1    2    0  501  0.88273617002E+01 -0.51027950447E+02 -0.10283119667E+03  0.11513482988E+03  0.00000000000E+00 0.  1.
</event>
<event>
 4    1  0.6824761E+001  0.4377949E+02  0.7546771E-02  0.1327656E+00
          2   -1    0    0  502    0  0.00000000000E+00  0.00000000000E+00  0.23696992099E+04  0.23696992099E+04  0.00000000000E+00 0.  1.
         -2   -1    0    0    0  501 -0.00000000000E+00 -0.00000000000E+00 -0.80888612586E+00  0.80888612586E+00  0.00000000000E+00 0. -1.
          1    1    1    2  502    0 -0.12500649962E+02 -0.41956851854E+02  0.11731802500E+04  0.11739968240E+04  0.00000000000E+00 0. -1.
         -1    1    1    2    0  501  0.12500649962E+02  0.41956851854E+02  0.11957100737E+04  0.11965112720E+04  0.00000000000E+00 0.  1.
</event>
<event>
 4    1  0.6824761E+001  0.2531052E+02  0.7546771E-02  0.1465359E+00
          2   -1    0    0  502    0  0.00000000000E+00  0.00000000000E+00  0.12188094557E+04  0.12188094557E+04  0.00000000000E+00 0.  1.
         -2   -1    0    0    0  501 -0.00000000000E+00 -0.00000000000E+00 -0.72780458204E+00  0.72780458204E+00  0.00000000000E+00 0. -1.
          1    1    1    2  502    0  0.19168605081E+02  0.16528365965E+02  0.28764588374E+03  0.28875729728E+03  0.00000000000E+00 0. -1.
         -1    1    1    2    0  501 -0.19168605081E+02 -0.16528365965E+02  0.93043576737E+03  0.93077996299E+03  0.00000000000E+00 0.  1.
</event>
<event>
 4    1  0.6824761E+001  0.2102862E+02  0.7546771E-02  0.1518857E+00
          2   -1    0    0  502    0  0.00000000000E+00  0.00000000000E+00  0.10261576920E+02  0.10261576920E+02  0.00000000000E+00 0.  1.
         -2   -1    0    0    0  501 -0.00000000000E+00 -0.00000000000E+00 -0.60763300953E+02  0.60763300953E+02  0.00000000000E+00 0. -1.
          1    1    1    2  502    0  0.87427527523E+00  0.21010436138E+02 -0.61003224109E+01  0.21895586712E+02  0.00000000000E+00 0.  1.
         -1    1    1    2    0  501 -0.87427527523E+00 -0.21010436138E+02 -0.44401401622E+02  0.49129291161E+02  0.00000000000E+00 0. -1.
</event>
<event>
 4    1  0.6824761E+001  0.3476340E+02  0.7546771E-02  0.1382234E+00
          2   -1    0    0  502    0  0.00000000000E+00  0.00000000000E+00  0.45660634764E+03  0.45660634764E+03  0.00000000000E+00 0.  1.
         -2   -1    0    0    0  501 -0.00000000000E+00 -0.00000000000E+00 -0.26621720592E+01  0.26621720592E+01  0.00000000000E+00 0. -1.
          1    1    1    2  502    0  0.13933268403E+02  0.31848988757E+02  0.20945846411E+03  0.21232367329E+03  0.00000000000E+00 0. -1.
         -1    1    1    2    0  501 -0.13933268403E+02 -0.31848988757E+02  0.24448571147E+03  0.24694484640E+03  0.00000000000E+00 0.  1.
</event>
<event>
 4    1  0.6824761E+001  0.2559206E+02  0.7546771E-02  0.1462288E+00
          2   -1    0    0  502    0  0.00000000000E+00  0.00000000000E+00  0.66714547462E+03  0.66714547462E+03  0.00000000000E+00 0. -1.
         -2   -1    0    0    0  501 -0.00000000000E+00 -0.00000000000E+00 -0.98471304735E+00  0.98471304735E+00  0.00000000000E+00 0.  1.
          1    1    1    2  502    0  0.15415086107E+02  0.20428618218E+02  0.35148291013E+03  0.35241337863E+03  0.00000000000E+00 0.  1.
         -1    1    1    2    0  501 -0.15415086107E+02 -0.20428618218E+02  0.31467785144E+03  0.31571680904E+03  0.00000000000E+00 0. -1.
</event>
<event>
 4    1  0.6824761E+001  0.7228848E+02  0.7546771E-02  0.1222979E+00
          2   -1    0    0  502    0  0.00000000000E+00  0.00000000000E+00  0.83475817982E+03  0.83475817982E+03  0.00000000000E+00 0.  1.
         -2   -1    0    0    0  501 -0.00000000000E+00 -0.00000000000E+00 -0.65030954326E+01  0.65030954326E+01  0.00000000000E+00 0. -1.
          1    1    1    2  502    0  0.63457469384E+02 -0.34623314086E+02  0.49544587604E+03  0.50069176185E+03  0.00000000000E+00 0.  1.
         -1    1    1    2    0  501 -0.63457469384E+02  0.34623314086E+02  0.33280920835E+03  0.34056951341E+03  0.00000000000E+00 0. -1.
</event>
<event>
 4    1  0.6824761E+001  0.4206212E+02  0.7546771E-02  0.1336808E+00
          2   -1    0    0  502    0  0.00000000000E+00  0.00000000000E+00  0.61086200387E+03  0.61086200387E+03  0.00000000000E+00 0.  1.
         -2   -1    0    0    0  501 -0.00000000000E+00 -0.00000000000E+00 -0.28970857815E+01  0.28970857815E+01  0.00000000000E+00 0. -1.
          1    1    1    2  502    0 -0.37452244482E+02  0.19145539110E+02  0.29883796132E+03  0.30178361356E+03  0.00000000000E+00 0.  1.
         -1    1    1    2    0  501  0.37452244482E+02 -0.19145539110E+02  0.30912695677E+03  0.31197547610E+03  0.00000000000E+00 0. -1.
</event>
<event>
 4    1  0.6824761E+001  0.2388279E+02  0.7546771E-02  0.1481701E+00
          2   -1    0    0  502    0  0.00000000000E+00  0.00000000000E+00  0.15324538937E+03  0.15324538937E+03  0.00000000000E+00 0.  1.
         -2   -1    0    0    0  501 -0.00000000000E+00 -0.00000000000E+00 -0.52579736877E+01  0.52579736877E+01  0.00000000000E+00 0. -1.
          1    1    1    2  502    0  0.57296553646E+01 -0.23185311188E+02  0.11682720593E+03  0.11924337990E+03  0.00000000000E+00 0.  1.
         -1    1    1    2    0  501 -0.57296553646E+01  0.23185311188E+02  0.31160209754E+02  0.39259983156E+02  0.00000000000E+00 0. -1.
</event>
<event>
 4    1  0.6824761E+001  0.2016993E+02  0.7546771E-02  0.1531454E+00
          2   -1    0    0  502    0  0.00000000000E+00  0.00000000000E+00  0.65794676864E+03  0.65794676864E+03  0.00000000000E+00 0. -1.
         -2   -1    0    0    0  501 -0.00000000000E+00 -0.00000000000E+00 -0.69457273313E+00  0.69457273313E+00  0.00000000000E+00 0.  1.
          1    1    1    2  502    0 -0.19833065595E+02  0.36709260424E+01  0.21951518994E+03  0.22043988932E+03  0.00000000000E+00 0.  1.
         -1    1    1    2    0  501  0.19833065595E+02 -0.36709260424E+01  0.43773700597E+03  0.43820145206E+03  0.00000000000E+00 0. -1.
</event>
<event>
 4    1  0.6824761E+001  0.2200933E+02  0.7546771E-02  0.1505327E+00
          2   -1    0    0  502    0  0.00000000000E+00  0.00000000000E+00  0.50710547665E+03  0.50710547665E+03  0.00000000000E+00 0.  1.
         -2   -1    0    0    0  501 -0.00000000000E+00 -0.00000000000E+00 -0.24620765246E+01  0.24620765246E+01  0.00000000000E+00 0. -1.
          1    1    1    2  502    0 -0.86042472908E+01  0.20257773511E+02  0.45164276883E+03  0.45217872694E+03  0.00000000000E+00 0.  1.
         -1    1    1    2    0  501  0.86042472908E+01 -0.20257773511E+02  0.53000631296E+02  0.57388826237E+02  0.00000000000E+00 0. -1.
</event>
<event>
 4    1  0.6824761E+001  0.2573462E+02  0.7546771E-02  0.1460751E+00
          2   -1    0    0  502    0  0.00000000000E+00  0.00000000000E+00  0.74000713320E+03  0.74000713320E+03  0.00000000000E+00 0. -1.
         -2   -1    0    0    0  501 -0.00000000000E+00 -0.00000000000E+00 -0.89744504379E+00  0.89744504379E+00  0.00000000000E+00 0.  1.
          1    1    1    2  502    0  0.22391277271E+02 -0.12684685636E+02  0.38908161969E+03  0.38993175984E+03  0.00000000000E+00 0. -1.
         -1    1    1    2    0  501 -0.22391277271E+02  0.12684685636E+02  0.35002806847E+03  0.35097281841E+03  0.00000000000E+00 0.  1.
</event>
<event>
 4    1  0.6824761E+001  0.7207730E+02  0.7546771E-02  0.1223541E+00
          2   -1    0    0  502    0  0.00000000000E+00  0.00000000000E+00  0.70811482188E+02  0.70811482188E+02  0.00000000000E+00 0.  1.
         -2   -1    0    0    0  501 -0.00000000000E+00 -0.00000000000E+00 -0.75043847354E+02  0.75043847354E+02  0.00000000000E+00 0. -1.
          1    1    1    2  502    0  0.24276733217E+02  0.67865878636E+02  0.87892721039E+01  0.72611215131E+02  0.00000000000E+00 0.  1.
         -1    1    1    2    0  501 -0.24276733217E+02 -0.67865878636E+02 -0.13021637271E+02  0.73244114411E+02  0.00000000000E+00 0. -1.
</event>
<event>
 4    1  0.6824761E+001  0.2164416E+02  0.7546771E-02  0.1510263E+00
          2   -1    0    0  502    0  0.00000000000E+00  0.00000000000E+00  0.21683747988E+02  0.21683747988E+02  0.00000000000E+00 0. -1.
         -2   -1    0    0    0  501 -0.00000000000E+00 -0.00000000000E+00 -0.25611387406E+02  0.25611387406E+02  0.00000000000E+00 0.  1.
          1    1    1    2  502    0 -0.12153326164E+02 -0.17909946120E+02 -0.11317145517E+02  0.24424317586E+02  0.00000000000E+00 0. -1.
         -1    1    1    2    0  501  0.12153326164E+02  0.17909946120E+02  0.73895060986E+01  0.22870817809E+02  0.00000000000E+00 0.  1.
</event>
<event>
 4    1  0.6824761E+001  0.2256395E+02  0.7546771E-02  0.1498047E+00
          2   -1    0    0  502    0  0.00000000000E+00  0.00000000000E+00  0.22406085373E+03  0.22406085373E+03  0.00000000000E+00 0.  1.
         -2   -1    0    0    0  501 -0.00000000000E+00 -0.00000000000E+00 -0.73365480688E+01  0.73365480688E+01  0.00000000000E+00 0. -1.
          1    1    1    2  502    0  0.22395881393E+02 -0.27488522372E+01  0.20448805444E+03  0.20572918145E+03  0.00000000000E+00 0.  1.
         -1    1    1    2    0  501 -0.22395881393E+02  0.27488522372E+01  0.12236251225E+02  0.25668220352E+02  0.00000000000E+00 0. -1.
</event>
<event>
 4    1  0.6824761E+001  0.2406526E+02  0.7546771E-02  0.1479538E+00
          2   -1    0    0  502    0  0.00000000000E+00  0.00000000000E+00  0.12327273127E+02  0.12327273127E+02  0.00000000000E+00 0.  1.
         -2   -1    0    0    0  501 -0.00000000000E+00 -0.00000000000E+00 -0.87404065357E+02  0.87404065357E+02  0.00000000000E+00 0. -1.
          1    1    1    2  502    0  0.23679262174E+02  0.42929348250E+01 -0.71450536011E+02  0.75394401933E+02  0.00000000000E+00 0. -1.
         -1    1    1    2    0  501 -0.23679262174E+02 -0.42929348250E+01 -0.36262562193E+01  0.24336936551E+02  0.00000000000E+00 0.  1.
</event>
<event>
 4    1  0.6824761E+001  0.2287476E+02  0.7546771E-02  0.1494077E+00
          2   -1    0    0  502    0  0.00000000000E+00  0.00000000000E+00  0.35679221586E+03  0.35679221586E+03  0.00000000000E+00 0. -1.
         -2   -1    0    0    0  501 -0.00000000000E+00 -0.00000000000E+00 -0.18682922034E+01  0.18682922034E+01  0.00000000000E+00 0.  1.
          1    1    1    2  502    0 -0.22177171361E+02 -0.56060359758E+01  0.26061985164E+03  0.26162179122E+03  0.00000000000E+00 0.  1.
         -1    1    1    2    0  501  0.22177171361E+02  0.56060359758E+01  0.94304072017E+02  0.97038716850E+02  0.00000000000E+00 0. -1.
</event>
<event>
 4    1  0.6824761E+001  0.2362160E+02  0.7546771E-02  0.1484837E+00
          2   -1    0    0  502    0  0.00000000000E+00  0.00000000000E+00  0.11021195452E+02  0.11021195452E+02  0.00000000000E+00 0. -1.
         -2   -1    0    0    0  501 -0.00000000000E+00 -0.00000000000E+00 -0.62885463514E+02  0.62885463514E+02  0.00000000000E+00 0.  1.
          1    1    1    2  502    0  0.23487599532E+02 -0.25125034412E+01 -0.96173819518E+01  0.25504392581E+02  0.00000000000E+00 0. -1.
         -1    1    1    2    0  501 -0.23487599532E+02  0.25125034412E+01 -0.42246886110E+02  0.48402266386E+02  0.00000000000E+00 0.  1.
</event>
<event>
 4    1  0.6824761E+001  0.3192200E+02  0.7546771E-02  0.1403598E+00
          2   -1    0    0  502    0  0.00000000000E+00  0.00000000000E+00  0.35446730028E+01  0.35446730028E+01  0.00000000000E+00 0.  1.
         -2   -1    0    0    0  501 -0.00000000000E+00 -0.00000000000E+00 -0.29538677763E+03  0.29538677763E+03  0.00000000000E+00 0. -1.
          1    1    1    2  502    0 -0.15103859177E+02  0.28122724651E+02 -0.17037848421E+03  0.17334313395E+03  0.00000000000E+00 0.  1.
         -1    1    1    2    0  501  0.15103859177E+02 -0.28122724651E+02 -0.12146362041E+03  0.12558831668E+03  0.00000000000E+00 0. -1.
</event>
<event>
 4    1  0.6824761E+001  0.2906954E+02  0.7546771E-02  0.1427858E+00
          2   -1    0    0  502    0  0.00000000000E+00  0.00000000000E+00  0.11921482867E+04  0.11921482867E+04  0.00000000000E+00 0. -1.
         -2   -1    0    0    0  501 -0.00000000000E+00 -0.00000000000E+00 -0.12372238326E+01  0.12372238326E+01  0.00000000000E+00 0.  1.
          1    1    1    2  502    0 -0.11772567502E+02 -0.26579026927E+02  0.20551094602E+03  0.20755670780E+03  0.00000000000E+00 0.  1.
         -1    1    1    2    0  501  0.11772567502E+02  0.26579026927E+02  0.98540011681E+03  0.98582880270E+03  0.00000000000E+00 0. -1.
</event>
<event>
 4    1  0.6824761E+001  0.2901302E+02  0.7546771E-02  0.1428371E+00
          2   -1    0    0  502    0  0.00000000000E+00  0.00000000000E+00  0.15905320306E+04  0.15905320306E+04  0.00000000000E+00 0. -1.
         -2   -1    0    0    0  501 -0.00000000000E+00 -0.00000000000E+00 -0.74378374762E+00  0.74378374762E+00  0.00000000000E+00 0.  1.
          1    1    1    2  502    0 -0.56052372190E+01 -0.28466414306E+02  0.12222221200E+04  0.12225664260E+04  0.00000000000E+00 0. -1.
         -1    1    1    2    0  501  0.56052372190E+01  0.28466414306E+02  0.36756612694E+03  0.36870938841E+03  0.00000000000E+00 0.  1.
</event>
<event>
 4    1  0.6824761E+001  0.2185999E+02  0.7546771E-02  0.1507332E+00
          2   -1    0    0  502    0  0.00000000000E+00  0.00000000000E+00  0.23670669942E+01  0.23670669942E+01  0.00000000000E+00 0.  1.
         -2   -1    0    0    0  501 -0.00000000000E+00 -0.00000000000E+00 -0.20920852218E+03  0.20920852218E+03  0.00000000000E+00 0. -1.
          1    1    1    2  502    0 -0.17613348434E+02  0.12947171948E+02 -0.83618848591E+02  0.86428994812E+02  0.00000000000E+00 0. -1.
         -1    1    1    2    0  501  0.17613348434E+02 -0.12947171948E+02 -0.12322260659E+03  0.12514659436E+03  0.00000000000E+00 0.  1.
</event>
<event>
 4    1  0.6824761E+001  0.2453905E+02  0.7546771E-02  0.1474027E+00
          2   -1    0    0  502    0  0.00000000000E+00  0.00000000000E+00  0.40764648522E+02  0.40764648522E+02  0.00000000000E+00 0.  1.
         -2   -1    0    0    0  501 -0.00000000000E+00 -0.00000000000E+00 -0.15042677667E+02  0.15042677667E+02  0.00000000000E+00 0. -1.
          1    1    1    2  502    0 -0.78438684874E+01 -0.23251643272E+02  0.91162123775E+01  0.26177672085E+02  0.00000000000E+00 0.  1.
         -1    1    1    2    0  501  0.78438684874E+01  0.23251643272E+02  0.16605758478E+02  0.29629654104E+02  0.00000000000E+00 0. -1.
</event>
<event>
 4    1  0.6824761E+001  0.4457877E+02  0.7546771E-02  0.1323559E+00
          2   -1    0    0  502    0  0.00000000000E+00  0.00000000000E+00  0.20615744016E+03  0.20615744016E+03  0.00000000000E+00 0. -1.
         -2   -1    0    0    0  501 -0.00000000000E+00 -0.00000000000E+00 -0.11546348133E+02  0.11546348133E+02  0.00000000000E+00 0.  1.
          1    1    1    2  502    0  0.38216286428E+02 -0.22951726597E+02  0.14154046948E+03  0.14839464547E+03  0.00000000000E+00 0. -1.
         -1    1    1    2    0  501 -0.38216286428E+02  0.22951726597E+02  0.53070622550E+02  0.69309142831E+02  0.00000000000E+00 0.  1.
</event>
<event>
 4    1  0.6824761E+001  0.2654290E+02  0.7546771E-02  0.1452255E+00
          2   -1    0    0  502    0  0.00000000000E+00  0.00000000000E+00  0.45407270704E+02  0.45407270704E+02  0.00000000000E+00 0. -1.
         -2   -1    0    0    0  501 -0.00000000000E+00 -0.00000000000E+00 -0.16951144588E+02  0.16951144588E+02  0.00000000000E+00 0.  1.
          1    1    1    2  502    0 -0.25849332132E+02 -0.60280697289E+01  0.51548991740E+01  0.27038834698E+02  0.00000000000E+00 0.  1.
         -1    1    1    2    0  501  0.25849332132E+02  0.60280697289E+01  0.23301226942E+02  0.35319580594E+02  0.00000000000E+00 0. -1.
</event>
<event>
 4    1  0.6824761E+001  0.2031492E+02  0.7546771E-02  0.1529275E+00
          2   -1    0    0  502    0  0.00000000000E+00  0.00000000000E+00  0.10983715978E+03  0.10983715978E+03  0.00000000000E+00 0. -1.
         -2   -1    0    0    0  501 -0.00000000000E+00 -0.00000000000E+00 -0.47045784705E+01  0.47045784705E+01  0.00000000000E+00 0.  1.
          1    1    1    2  502    0  0.95667167662E+01  0.17921330452E+02  0.26868142697E+02  0.33683723768E+02  0.00000000000E+00 0.  1.
         -1    1    1    2    0  501 -0.95667167662E+01 -0.17921330452E+02  0.78264438615E+02  0.80858014486E+02  0.00000000000E+00 0. -1.
</event>
<event>
 4    1  0.6824761E+001  0.2184329E+02  0.7546771E-02  0.1507557E+00
          2   -1    0    0  502    0  0.00000000000E+00  0.00000000000E+00  0.41212063773E+00  0.41212063773E+00  0.00000000000E+00 0.  1.
         -2   -1    0    0    0  501 -0.00000000000E+00 -0.00000000000E+00 -0.14627383211E+04  0.14627383211E+04  0.00000000000E+00 0. -1.
          1    1    1    2  502    0  0.20563072022E+02 -0.73681412433E+01 -0.10652218533E+04  0.10654457875E+04  0.00000000000E+00 0. -1.
         -1    1    1    2    0  501 -0.20563072022E+02  0.73681412433E+01 -0.39710434722E+03  0.39770465426E+03  0.00000000000E+00 0.  1.
</event>
<event>
 4    1  0.6824761E+001  0.3202741E+02  0.7546771E-02  0.1402759E+00
          2   -1    0    0  502    0  0.00000000000E+00  0.00000000000E+00  0.32876428951E+01  0.32876428951E+01  0.00000000000E+00 0. -1.
         -2   -1    0    0    0  501 -0.00000000000E+00 -0.00000000000E+00 -0.31801718530E+03  0.31801718530E+03  0.00000000000E+00 0.  1.
          1    1    1    2  502    0  0.20393805466E+01  0.31962418854E+02 -0.13527246396E+03  0.13901221096E+03  0.00000000000E+00 0. -1.
         -1    1    1    2    0  501 -0.20393805466E+01 -0.31962418854E+02 -0.17945707845E+03  0.18229261723E+03  0.00000000000E+00 0.  1.
</event>
<event>
 4    1  0.6824761E+001  0.8245380E+02  0.7546771E-02  0.1198263E+00
          2   -1    0    0  502    0  0.00000000000E+00  0.00000000000E+00  0.45633974342E+02  0.45633974342E+02  0.00000000000E+00 0. -1.
         -2   -1    0    0    0  501 -0.00000000000E+00 -0.00000000000E+00 -0.15357976761E+03  0.15357976761E+03  0.00000000000E+00 0.  1.
          1    1    1    2  502    0  0.26673176569E+02  0.78020318766E+02 -0.36738006945E+02  0.90267987919E+02  0.00000000000E+00 0.  1.
         -1    1    1    2    0  501 -0.26673176569E+02 -0.78020318766E+02 -0.71207786322E+02  0.10894575403E+03  0.00000000000E+00 0. -1.
</event>
<event>
 4    1  0.6824761E+001  0.2490422E+02  0.7546771E-02  0.1469878E+00
          2   -1    0    0  502    0  0.00000000000E+00  0.00000000000E+00  0.45711207868E+01  0.45711207868E+01  0.00000000000E+00 0.  1.
         -2   -1    0    0    0  501 -0.00000000000E+00 -0.00000000000E+00 -0.25377604538E+03  0.25377604538E+03  0.00000000000E+00 0. -1.
          1    1    1    2  502    0  0.24688815335E+02  0.32684459993E+01 -0.21271988326E+03  0.21417275521E+03  0.00000000000E+00 0. -1.
         -1    1    1    2    0  501 -0.24688815335E+02 -0.32684459993E+01 -0.36485041329E+02  0.44174410949E+02  0.00000000000E+00 0.  1.
</event>
<event>
 4    1  0.6824761E+001  0.2654986E+02  0.7546771E-02  0.1452183E+00
          2   -1    0    0  502    0  0.00000000000E+00  0.00000000000E+00  0.22447333114E+04  0.22447333114E+04  0.00000000000E+00 0.  1.
         -2   -1    0    0    0  501 -0.00000000000E+00 -0.00000000000E+00 -0.32659320696E+00  0.32659320696E+00  0.00000000000E+00 0. -1.
          1    1    1    2  502    0  0.29929009839E+01 -0.26380630168E+02  0.13424386967E+04  0.13427012138E+04  0.00000000000E+00 0.  1.
         -1    1    1    2    0  501 -0.29929009839E+01  0.26380630168E+02  0.90196802148E+03  0.90235869080E+03  0.00000000000E+00 0. -1.
</event>
<event>
 4    1  0.6824761E+001  0.7039581E+02  0.7546771E-02  0.1228092E+00
          2   -1    0    0  502    0  0.00000000000E+00  0.00000000000E+00  0.34011039244E+03  0.34011039244E+03  0.00000000000E+00 0.  1.
         -2   -1    0    0    0  501 -0.00000000000E+00 -0.00000000000E+00 -0.16419636773E+02  0.16419636773E+02  0.00000000000E+00 0. -1.
          1    1    1    2  502    0 -0.29931992069E+02  0.63715355895E+02  0.22166883938E+03  0.23257825581E+03  0.00000000000E+00 0. -1.
         -1    1    1    2    0  501  0.29931992069E+02 -0.63715355895E+02  0.10202191629E+03  0.12395177340E+03  0.00000000000E+00 0.  1.
</event>
<event>
 4    1  0.6824761E+001  0.2871192E+02  0.7546771E-02  0.1431130E+00
          2   -1    0    0  502    0  0.00000000000E+00  0.00000000000E+00  0.21654763257E+03  0.21654763257E+03  0.00000000000E+00 0. -1.
         -2   -1    0    0    0  501 -0.00000000000E+00 -0.00000000000E+00 -0.38495658107E+01  0.38495658107E+01  0.00000000000E+00 0.  1.
          1    1    1    2  502    0  0.11042742306E+01 -0.28690677514E+02  0.11795092066E+03  0.12139519794E+03  0.00000000000E+00 0. -1.
         -1    1    1    2    0  501 -0.11042742306E+01  0.28690677514E+02  0.94747146099E+02  0.99002000443E+02  0.00000000000E+00 0.  1.
</event>
<event>
 4    1  0.6824761E+001  0.2015085E+02  0.7546771E-02  0.1531742E+00
          2   -1    0    0  502    0  0.00000000000E+00  0.00000000000E+00  0.59583024214E+01  0.59583024214E+01  0.00000000000E+00 0.  1.
         -2   -1    0    0    0  501 -0.00000000000E+00 -0.00000000000E+00 -0.71177804742E+02  0.71177804742E+02  0.00000000000E+00 0. -1.
          1    1    1    2  502    0  0.19040408301E+02  0.65969540830E+01 -0.24654833080E+02  0.31842075084E+02  0.00000000000E+00 0.  1.
         -1    1    1    2    0  501 -0.19040408301E+02 -0.65969540830E+01 -0.40564669240E+02  0.45294032079E+02  0.00000000000E+00 0. -1.
</event>
<event>
 4    1  0.6824761E+001  0.2856029E+02  0.7546771E-02  0.1432534E+00
          2   -1    0    0  502    0  0.00000000000E+00  0.00000000000E+00  0.17346740608E+03  0.17346740608E+03  0.00000000000E+00 0. -1.
         -2   -1    0    0    0  501 -0.00000000000E+00 -0.00000000000E+00 -0.54383166344E+01  0.54383166344E+01  0.00000000000E+00 0.  1.
          1    1    1    2  502    0 -0.17237341372E+02  0.22772005797E+02  0.51105496067E+02  0.58544529325E+02  0.00000000000E+00 0. -1.
         -1    1    1    2    0  501  0.17237341372E+02 -0.22772005797E+02  0.11692359338E+03  0.12036119339E+03  0.00000000000E+00 0.  1.
</event>
<event>
 4    1  0.6824761E+001  0.2125754E+02  0.7546771E-02  0.1515619E+00
          2   -1    0    0  502    0  0.00000000000E+00  0.00000000000E+00  0.40266677374E+01  0.40266677374E+01  0.00000000000E+00 0.  1.
         -2   -1    0    0    0  501 -0.00000000000E+00 -0.00000000000E+00 -0.11279880899E+03  0.11279880899E+03  0.00000000000E+00 0. -1.
          1    1    1    2  502    0  0.15399341460E+02 -0.14654118106E+02 -0.50210972793E+02  0.54525449871E+02  0.00000000000E+00 0. -1.
         -1    1    1    2    0  501 -0.15399341460E+02  0.14654118106E+02 -0.58561168457E+02  0.62300026853E+02  0.00000000000E+00 0.  1.
</event>
<event>
 4    1  0.6824761E+001  0.6640384E+02  0.7546771E-02  0.1239501E+00
          2   -1    0    0  502    0  0.00000000000E+00  0.00000000000E+00  0.12843721787E+02  0.12843721787E+02  0.00000000000E+00 0. -1.
         -2   -1    0    0    0  501 -0.00000000000E+00 -0.00000000000E+00 -0.34555963574E+03  0.34555963574E+03  0.00000000000E+00 0.  1.
          1    1    1    2  502    0 -0.65063003672E+02 -0.13276864032E+02 -0.18079400720E+03  0.19260307008E+03  0.00000000000E+00 0. -1.
         -1    1    1    2    0  501  0.65063003672E+02  0.13276864032E+02 -0.15192190675E+03  0.16580028744E+03  0.00000000000E+00 0.  1.
</event>
<event>
 4    1  0.6824761E+001  0.2647370E+02  0.7546771E-02  0.1452968E+00
          2   -1    0    0  502    0  0.00000000000E+00  0.00000000000E+00  0.21107975037E+03  0.21107975037E+03  0.00000000000E+00 0.  1.
         -2   -1    0    0    0  501 -0.00000000000E+00 -0.00000000000E+00 -0.40063135752E+01  0.40063135752E+01  0.00000000000E+00 0. -1.
          1    1    1    2  502    0 -0.26424884490E+02  0.16069042971E+01  0.59036379826E+02  0.64700469895E+02  0.00000000000E+00 0. -1.
         -1    1    1    2    0  501  0.26424884490E+02 -0.16069042971E+01  0.14803705697E+03  0.15038559405E+03  0.00000000000E+00 0.  1.
</event>
<event>
 4    1  0.6824761E+001  0.2665843E+02  0.7546771E-02  0.1451070E+00
          2   -1    0    0  502    0  0.00000000000E+00  0.00000000000E+00  0.11119802727E+02  0.11119802727E+02  0.00000000000E+00 0. -1.
         -2   -1    0    0    0  501 -0.00000000000E+00 -0.00000000000E+00 -0.65707297446E+02  0.65707297446E+02  0.00000000000E+00 0.  1.
          1    1    1    2  502    0 -0.24353390258E+02 -0.10843626627E+02 -0.20941455728E+02  0.33900094742E+02  0.00000000000E+00 0. -1.
         -1    1    1    2    0  501  0.24353390258E+02  0.10843626627E+02 -0.33646038991E+02  0.42927005431E+02  0.00000000000E+00 0.  1.
</event>
<event>
 4    1  0.6824761E+001  0.2623075E+02  0.7546771E-02  0.1455492E+00
          2   -1    0    0  502    0  0.00000000000E+00  0.00000000000E+00  0.97535794868E+03  0.97535794868E+03  0.00000000000E+00 0. -1.
         -2   -1    0    0    0  501 -0.00000000000E+00 -0.00000000000E+00 -0.82881201099E+00  0.82881201099E+00  0.00000000000E+00 0.  1.
          1    1    1    2  502    0  0.20333982448E+02  0.16570493202E+02  0.29894684068E+03  0.30009542755E+03  0.00000000000E+00 0.  1.
         -1    1    1    2    0  501 -0.20333982448E+02 -0.16570493202E+02  0.67558229599E+03  0.67609133314E+03  0.00000000000E+00 0. -1.
</event>
<event>
 4    1  0.6824761E+001  0.2287484E+02  0.7546771E-02  0.1494076E+00
          2   -1    0    0  502    0  0.00000000000E+00  0.00000000000E+00  0.15226343582E+01  0.15226343582E+01  0.00000000000E+00 0.  1.
         -2   -1    0    0    0  501 -0.00000000000E+00 -0.00000000000E+00 -0.35464857773E+03  0.35464857773E+03  0.00000000000E+00 0. -1.
          1    1    1    2  502    0 -0.22871349474E+02  0.39934845400E+00 -0.20792005140E+03  0.20917458230E+03  0.00000000000E+00 0. -1.
         -1    1    1    2    0  501  0.22871349474E+02 -0.39934845400E+00 -0.14520589196E+03  0.14699662978E+03  0.00000000000E+00 0.  1.
</event>
<event>
 4    1  0.6824761E+001  0.2782385E+02  0.7546771E-02  0.1439503E+00
          2   -1    0    0  502    0  0.00000000000E+00  0.00000000000E+00  0.94241160211E+03  0.94241160211E+03  0.00000000000E+00 0.  1.
         -2   -1    0    0    0  501 -0.00000000000E+00 -0.00000000000E+00 -0.10870668945E+01  0.10870668945E+01  0.00000000000E+00 0. -1.
          1    1    1    2  502    0 -0.16157002904E+02  0.22652108996E+02  0.70384224269E+03  0.70439198560E+03  0.00000000000E+00 0. -1.
         -1    1    1    2    0  501  0.16157002904E+02 -0.22652108996E+02  0.23748229253E+03  0.23910668341E+03  0.00000000000E+00 0.  1.
</event>
<event>
 4    1  0.6824761E+001  0.2035720E+02  0.7546771E-02  0.1528643E+00
          2   -1    0    0  502    0  0.00000000000E+00  0.00000000000E+00  0.33067223848E+03  0.33067223848E+03  0.00000000000E+00 0. -1.
         -2   -1    0    0    0  501 -0.00000000000E+00 -0.00000000000E+00 -0.16276863426E+01  0.16276863426E+01  0.00000000000E+00 0.  1.
          1    1    1    2  502    0  0.12111623037E+02  0.16362283534E+02  0.84832507472E+02  0.87240873787E+02  0.00000000000E+00 0.  1.
         -1    1    1    2    0  501 -0.12111623037E+02 -0.16362283534E+02  0.24421204466E+03  0.24505905103E+03  0.00000000000E+00 0. -1.
</event>
<event>
 4    1  0.6824761E+001  0.3104489E+02  0.7546771E-02  0.1410728E+00
          2   -1    0    0  502    0  0.00000000000E+00  0.00000000000E+00  0.98041811446E+02  0.98041811446E+02  0.00000000000E+00 0. -1.
         -2   -1    0    0    0  501 -0.00000000000E+00 -0.00000000000E+00 -0.10599401618E+02  0.10599401618E+02  0.00000000000E+00 0.  1.
          1    1    1    2  502    0  0.29092741545E+02  0.10835027313E+02  0.58353126848E+02  0.66097449575E+02  0.00000000000E+00 0. -1.
         -1    1    1    2    0  501 -0.29092741545E+02 -0.10835027313E+02  0.29089282980E+02  0.42543763488E+02  0.00000000000E+00 0.  1.
</event>
<event>
 4    1  0.6824761E+001  0.2777661E+02  0.7546771E-02  0.1439959E+00
          2   -1    0    0  502    0  0.00000000000E+00  0.00000000000E+00  0.73273702466E+03  0.73273702466E+03  0.00000000000E+00 0. -1.
         -2   -1    0    0    0  501 -0.00000000000E+00 -0.00000000000E+00 -0.14780554618E+01  0.14780554618E+01  0.00000000000E+00 0.  1.
          1    1    1    2  502    0  0.10248090500E+02  0.25816983473E+02  0.56250563720E+03  0.56319102610E+03  0.00000000000E+00 0. -1.
         -1    1    1    2    0  501 -0.10248090500E+02 -0.25816983473E+02  0.16875333200E+03  0.17102405402E+03  0.00000000000E+00 0.  1.
</event>
<event>
 4    1  0.6824761E+001  0.2121456E+02  0.7546771E-02  0.1516223E+00
          2   -1    0    0  502    0  0.00000000000E+00  0.00000000000E+00  0.67302448573E+03  0.67302448573E+03  0.00000000000E+00 0.  1.
         -2   -1    0    0    0  501 -0.00000000000E+00 -0.00000000000E+00 -0.71862581936E+00  0.71862581936E+00  0.00000000000E+00 0. -1.
          1    1    1    2  502    0  0.17791731174E+02 -0.11554729524E+02  0.24736850976E+03  0.24827653351E+03  0.00000000000E+00 0. -1.
         -1    1    1    2    0  501 -0.17791731174E+02  0.11554729524E+02  0.42493735015E+03  0.42546657804E+03  0.00000000000E+00 0.  1.
</event>
<event>
 4    1  0.6824761E+001  0.2132096E+02  0.7546771E-02  0.1514731E+00
          2   -1    0    0  502    0  0.00000000000E+00  0.00000000000E+00  0.10858933146E+04  0.10858933146E+04  0.00000000000E+00 0. -1.
         -2   -1    0    0    0  501 -0.00000000000E+00 -0.00000000000E+00 -0.41913253520E+00  0.41913253520E+00  0.00000000000E+00 0.  1.
          1    1    1    2  502    0 -0.21048244770E+02 -0.33992420307E+01  0.52385963360E+03  0.52429333314E+03  0.00000000000E+00 0. -1.
         -1    1    1    2    0  501  0.21048244770E+02  0.33992420307E+01  0.56161454850E+03  0.56201911404E+03  0.00000000000E+00 0.  1.
</event>
<event>
 4    1  0.6824761E+001  0.6107405E+02  0.7546771E-02  0.1256226E+00
          2   -1    0    0  502    0  0.00000000000E+00  0.00000000000E+00  0.15535970125E+03  0.15535970125E+03  0.00000000000E+00 0.  1.
         -2   -1    0    0    0  501 -0.00000000000E+00 -0.00000000000E+00 -0.24925098973E+02  0.24925098973E+02  0.00000000000E+00 0. -1.
          1    1    1    2  502    0  0.54420149709E+02  0.27721595378E+02  0.47936298543E+02  0.77639733788E+02  0.00000000000E+00 0. -1.
         -1    1    1    2    0  501 -0.54420149709E+02 -0.27721595378E+02  0.82498303736E+02  0.10264506644E+03  0.00000000000E+00 0.  1.
</event>
<event>
 4    1  0.6824761E+001  0.3424017E+02  0.7546771E-02  0.1385985E+00
          2   -1    0    0  502    0  0.00000000000E+00  0.00000000000E+00  0.10084898486E+04  0.10084898486E+04  0.00000000000E+00 0. -1.
         -2   -1    0    0    0  501 -0.00000000000E+00 -0.00000000000E+00 -0.12118389924E+01  0.12118389924E+01  0.00000000000E+00 0.  1.
          1    1    1    2  502    0  0.10029065944E+02  0.32738467957E+02  0.40179195130E+03  0.40324826295E+03  0.00000000000E+00 0.  1.
         -1    1    1    2    0  501 -0.10029065944E+02 -0.32738467957E+02  0.60548605828E+03  0.60645342461E+03  0.00000000000E+00 0. -1.
</event>
<event>
 4    1  0.6824761E+001  0.2269009E+02  0.7546771E-02  0.1496427E+00
          2   -1    0    0  502    0  0.00000000000E+00  0.00000000000E+00  0.55519182238E+01  0.55519182238E+01  0.00000000000E+00 0. -1.
         -2   -1    0    0    0  501 -0.00000000000E+00 -0.00000000000E+00 -0.98018106659E+02  0.98018106659E+02  0.00000000000E+00 0.  1.
          1    1    1    2  502    0 -0.10338937825E+02 -0.20197692006E+02 -0.58259047308E+02  0.62521652177E+02  0.00000000000E+00 0.  1.
         -1    1    1    2    0  501  0.10338937825E+02  0.20197692006E+02 -0.34207141127E+02  0.41048372706E+02  0.00000000000E+00 0. -1.
</event>
<event>
 4    1  0.6824761E+001  0.2407975E+02  0.7546771E-02  0.1479367E+00
          2   -1    0    0  502    0  0.00000000000E+00  0.00000000000E+00  0.49119668732E+03  0.49119668732E+03  0.00000000000E+00 0. -1.
         -2   -1    0    0    0  501 -0.00000000000E+00 -0.00000000000E+00 -0.15544898471E+01  0.15544898471E+01  0.00000000000E+00 0.  1.
          1    1    1    2  502    0 -0.76660001944E+01 -0.22826882586E+02  0.36567522579E+03  0.36646719483E+03  0.00000000000E+00 0. -1.
         -1    1    1    2    0  501  0.76660001944E+01  0.22826882586E+02  0.12396697169E+03  0.12628398234E+03  0.00000000000E+00 0.  1.
</event>
<event>
 4    1  0.6824761E+001  0.3533641E+02  0.7546771E-02  0.1378213E+00
          2   -1    0    0  502    0  0.00000000000E+00  0.00000000000E+00  0.66228122218E+02  0.66228122218E+02  0.00000000000E+00 0. -1.
         -2   -1    0    0    0  501 -0.00000000000E+00 -0.00000000000E+00 -0.19862259300E+02  0.19862259300E+02  0.00000000000E+00 0.  1.
          1    1    1    2  502    0  0.32959847589E+02 -0.12740111616E+02  0.13484393960E+02  0.37821830701E+02  0.00000000000E+00 0.  1.
         -1    1    1    2    0  501 -0.32959847589E+02  0.12740111616E+02  0.32881468959E+02  0.48268550817E+02  0.00000000000E+00 0. -1.
</event>
<event>
 4    1  0.6824761E+001  0.2073480E+02  0.7546771E-02  0.1523085E+00
          2   -1    0    0  502    0  0.00000000000E+00  0.00000000000E+00  0.64031939227E+01  0.64031939227E+01  0.00000000000E+00 0. -1.
         -2   -1    0    0    0  501 -0.00000000000E+00 -0.00000000000E+00 -0.14358774610E+03  0.14358774610E+03  0.00000000000E+00 0.  1.
          1    1    1    2  502    0  0.14579589998E+02  0.14743385646E+02 -0.12331266566E+03  0.12504377385E+03  0.00000000000E+00 0.  1.
         -1    1    1    2    0  501 -0.14579589998E+02 -0.14743385646E+02 -0.13871886517E+02  0.24947166179E+02  0.00000000000E+00 0. -1.
</event>
<event>
 4    1  0.6824761E+001  0.3459862E+02  0.7546771E-02  0.1383407E+00
          2   -1    0    0  502    0  0.00000000000E+00  0.00000000000E+00  0.66222891412E+03  0.66222891412E+03  0.00000000000E+00 0.  1.
         -2   -1    0    0    0  501 -0.00000000000E+00 -0.00000000000E+00 -0.18093696159E+01  0.18093696159E+01  0.00000000000E+00 0. -1.
          1    1    1    2  502    0  0.27742504457E+02  0.20674092628E+02  0.31991391663E+03  0.32177939448E+03  0.00000000000E+00 0. -1.
         -1    1    1    2    0  501 -0.27742504457E+02 -0.20674092628E+02  0.34050562787E+03  0.34225888925E+03  0.00000000000E+00 0.  1.
</event>
<event>
 4    1  0.6824761E+001  0.3322628E+02  0.7546771E-02  0.1393481E+00
          2   -1    0    0  502    0  0.00000000000E+00  0.00000000000E+00  0.44382986779E+03  0.44382986779E+03  0.00000000000E+00 0.  1.
         -2   -1    0    0    0  501 -0.00000000000E+00 -0.00000000000E+00 -0.37516400046E+01  0.37516400046E+01  0.00000000000E+00 0. -1.
          1    1    1    2  502    0  0.30754769880E+01 -0.33083639070E+02  0.90128378908E+02  0.96057849327E+02  0.00000000000E+00 0. -1.
         -1    1    1    2    0  501 -0.30754769880E+01  0.33083639070E+02  0.34994984888E+03  0.35152365847E+03  0.00000000000E+00 0.  1.
</event>
<event>
 4    1  0.6824761E+001  0.2539873E+02  0.7546771E-02  0.1464392E+00
          2   -1    0    0  502    0  0.00000000000E+00  0.00000000000E+00  0.15355197358E+04  0.15355197358E+04  0.00000000000E+00 0.  1.
         -2   -1    0    0    0  501 -0.00000000000E+00 -0.00000000000E+00 -0.45903258839E+00  0.45903258839E+00  0.00000000000E+00 0. -1.
          1    1    1    2  502    0  0.18117963897E+02 -0.17799859613E+02  0.54391391977E+03  0.54450660945E+03  0.00000000000E+00 0.  1.
         -1    1    1    2    0  501 -0.18117963897E+02  0.17799859613E+02  0.99114678344E+03  0.99147215893E+03  0.00000000000E+00 0. -1.
</event>
<event>
 4    1  0.6824761E+001  0.2178020E+02  0.7546771E-02  0.1508411E+00
          2   -1    0    0  502    0  0.00000000000E+00  0.00000000000E+00  0.17471098725E+04  0.17471098725E+04  0.00000000000E+00 0. -1.
         -2   -1    0    0    0  501 -0.00000000000E+00 -0.00000000000E+00 -0.30819263932E+00  0.30819263932E+00  0.00000000000E+00 0.  1.
          1    1    1    2  502    0 -0.21132345322E+02 -0.52726572058E+01  0.11747855052E+04  0.11749873872E+04  0.00000000000E+00 0. -1.
         -1    1    1    2    0  501  0.21132345322E+02  0.52726572058E+01  0.57201617468E+03  0.57243067793E+03  0.00000000000E+00 0.  1.
</event>
<event>
 4    1  0.6824761E+001  0.2320982E+02  0.7546771E-02  0.1489880E+00
          2   -1    0    0  502    0  0.00000000000E+00  0.00000000000E+00  0.67849437729E+01  0.67849437729E+01  0.00000000000E+00 0. -1.
         -2   -1    0    0    0  501 -0.00000000000E+00 -0.00000000000E+00 -0.82685421818E+02  0.82685421818E+02  0.00000000000E+00 0.  1.
          1    1    1    2  502    0  0.19113547721E+01 -0.23130983564E+02 -0.46873246214E+02  0.52304845744E+02  0.00000000000E+00 0.  1.
         -1    1    1    2    0  501 -0.19113547721E+01  0.23130983564E+02 -0.29027231831E+02  0.37165519847E+02  0.00000000000E+00 0. -1.
</event>
<event>
 4    1  0.6824761E+001  0.2326549E+02  0.7546771E-02  0.1489191E+00
          2   -1    0    0  502    0  0.00000000000E+00  0.00000000000E+00  0.16509482361E+03  0.16509482361E+03  0.00000000000E+00 0. -1.
         -2   -1    0    0    0  501 -0.00000000000E+00 -0.00000000000E+00 -0.33579442139E+01  0.33579442139E+01  0.00000000000E+00 0.  1.
          1    1    1    2  502    0  0.17386745666E+02 -0.15459111851E+02  0.93813867391E+02  0.96655702257E+02  0.00000000000E+00 0.  1.
         -1    1    1    2    0  501 -0.17386745666E+02  0.15459111851E+02  0.67923012000E+02  0.71797065562E+02  0.00000000000E+00 0. -1.
</event>
<event>
 4    1  0.6824761E+001  0.2067912E+02  0.7546771E-02  0.1523896E+00
          2   -1    0    0  502    0  0.00000000000E+00  0.00000000000E+00  0.63436605108E+03  0.63436605108E+03  0.00000000000E+00 0.  1.
         -2   -1    0    0    0  501 -0.00000000000E+00 -0.00000000000E+00 -0.81649140292E+00  0.81649140292E+00  0.00000000000E+00 0. -1.
          1    1    1    2  502    0 -0.99813145147E+01 -0.18110755268E+02  0.18414691551E+03  0.18530437822E+03  0.00000000000E+00 0. -1.
         -1    1    1    2    0  501  0.99813145147E+01  0.18110755268E+02  0.44940264416E+03  0.44987816426E+03  0.00000000000E+00 0.  1.
</event>
<event>
 4    1  0.6824761E+001  0.2195945E+02  0.7546771E-02  0.1505995E+00
          2   -1    0    0  502    0  0.00000000000E+00  0.00000000000E+00  0.16381332249E+04  0.16381332249E+04  0.00000000000E+00 0. -1.
         -2   -1    0    0    0  501 -0.00000000000E+00 -0.00000000000E+00 -0.36485765135E+00  0.36485765135E+00  0.00000000000E+00 0.  1.
          1    1    1    2  502    0 -0.21802092652E+02 -0.26241876642E+01  0.11789734010E+04  0.11791778907E+04  0.00000000000E+00 0. -1.
         -1    1    1    2    0  501  0.21802092652E+02  0.26241876642E+01  0.45879496624E+03  0.45932019186E+03  0.00000000000E+00 0.  1.
</event>
<event>
 4    1  0.6824761E+001  0.4082183E+02  0.7546771E-02  0.1343736E+00
          2   -1    0    0  502    0  0.00000000000E+00  0.00000000000E+00  0.78327046195E+02  0.78327046195E+02  0.00000000000E+00 0.  1.
         -2   -1    0    0    0  501 -0.00000000000E+00 -0.00000000000E+00 -0.21307648798E+02  0.21307648798E+02  0.00000000000E+00 0. -1.
          1    1    1    2  502    0  0.31811491556E+02  0.25582232203E+02  0.30454524498E+02  0.50930341270E+02  0.00000000000E+00 0.  1.
         -1    1    1    2    0  501 -0.31811491556E+02 -0.25582232203E+02  0.26564872899E+02  0.48704353724E+02  0.00000000000E+00 0. -1.
</event>
<event>
 4    1  0.6824761E+001  0.2996414E+02  0.7546771E-02  0.1419908E+00
          2   -1    0    0  502    0  0.00000000000E+00  0.00000000000E+00  0.16439610080E+04  0.16439610080E+04  0.00000000000E+00 0.  1.
         -2   -1    0    0    0  501 -0.00000000000E+00 -0.00000000000E+00 -0.55126628918E+00  0.55126628918E+00  0.00000000000E+00 0. -1.
          1    1    1    2  502    0  0.12090368540E+02  0.27416649770E+02  0.90091739260E+03  0.90141555233E+03  0.00000000000E+00 0.  1.
         -1    1    1    2    0  501 -0.12090368540E+02 -0.27416649770E+02  0.74249234911E+03  0.74309672196E+03  0.00000000000E+00 0. -1.
</event>
<event>
 4    1  0.6824761E+001  0.3721519E+02  0.7546771E-02  0.1365626E+00
          2   -1    0    0  502    0  0.00000000000E+00  0.00000000000E+00  0.81334514772E+01  0.81334514772E+01  0.00000000000E+00 0.  1.
         -2   -1    0    0    0  501 -0.00000000000E+00 -0.00000000000E+00 -0.17349118569E+03  0.17349118569E+03  0.00000000000E+00 0. -1.
          1    1    1    2  502    0 -0.17623412501E+02 -0.32777819595E+02 -0.70325401535E+02  0.79565270229E+02  0.00000000000E+00 0.  1.
         -1    1    1    2    0  501  0.17623412501E+02  0.32777819595E+02 -0.95032332676E+02  0.10205936694E+03  0.00000000000E+00 0. -1.
</event>
<event>
 4    1  0.6824761E+001  0.4411029E+02  0.7546771E-02  0.1325949E+00
          2   -1    0    0  502    0  0.00000000000E+00  0.00000000000E+00  0.22960280563E+03  0.22960280563E+03  0.00000000000E+00 0. -1.
         -2   -1    0    0    0  501 -0.00000000000E+00 -0.00000000000E+00 -0.12426858837E+02  0.12426858837E+02  0.00000000000E+00 0.  1.
          1    1    1    2  502    0  0.34979444868E+02  0.26872956430E+02  0.40338633161E+02  0.59773929734E+02  0.00000000000E+00 0.  1.
         -1    1    1    2    0  501 -0.34979444868E+02 -0.26872956430E+02  0.17683731363E+03  0.18225573473E+03  0.00000000000E+00 0. -1.
</event>
<event>
 4    1  0.6824761E+001  0.2454651E+02  0.7546771E-02  0.1473941E+00
          2   -1    0    0  502    0  0.00000000000E+00  0.00000000000E+00  0.32671820485E+01  0.32671820485E+01  0.00000000000E+00 0.  1.
         -2   -1    0    0    0  501 -0.00000000000E+00 -0.00000000000E+00 -0.19847857902E+03  0.19847857902E+03  0.00000000000E+00 0. -1.
          1    1    1    2  502    0 -0.67235638461E+00  0.24537295664E+02 -0.12445304810E+03  0.12685066860E+03  0.00000000000E+00 0. -1.
         -1    1    1    2    0  501  0.67235638461E+00 -0.24537295664E+02 -0.70758348874E+02  0.74895092476E+02  0.00000000000E+00 0.  1.
</event>
<event>
 4    1  0.6824761E+001  0.2782968E+02  0.7546771E-02  0.1439447E+00
          2   -1    0    0  502    0  0.00000000000E+00  0.00000000000E+00  0.24925543419E+04  0.24925543419E+04  0.00000000000E+00 0. -1.
         -2   -1    0    0    0  501 -0.00000000000E+00 -0.00000000000E+00 -0.40564141826E+00  0.40564141826E+00  0.00000000000E+00 0.  1.
          1    1    1    2  502    0 -0.25123153756E+02 -0.11971565463E+02  0.18490390896E+04  0.18492485085E+04  0.00000000000E+00 0. -1.
         -1    1    1    2    0  501  0.25123153756E+02  0.11971565463E+02  0.64310961089E+03  0.64371147485E+03  0.00000000000E+00 0.  1.
</event>
<event>
 4    1  0.6824761E+001  0.2489045E+02  0.7546771E-02  0.1470033E+00
          2   -1    0    0  502    0  0.00000000000E+00  0.00000000000E+00  0.39258860655E+02  0.39258860655E+02  0.00000000000E+00 0. -1.
         -2   -1    0    0    0  501 -0.00000000000E+00 -0.00000000000E+00 -0.24475852387E+02  0.24475852387E+02  0.00000000000E+00 0.  1.
          1    1    1    2  502    0  0.63235625874E+01 -0.24073778641E+02 -0.11602410369E+02  0.27461795065E+02  0.00000000000E+00 0.  1.
         -1    1    1    2    0  501 -0.63235625874E+01  0.24073778641E+02  0.26385418637E+02  0.36272917976E+02  0.00000000000E+00 0. -1.
</event>
<event>
 4    1  0.6824761E+001  0.2212717E+02  0.7546771E-02  0.1503759E+00
          2   -1    0    0  502    0  0.00000000000E+00  0.00000000000E+00  0.72465489893E+03  0.72465489893E+03  0.00000000000E+00 0. -1.
         -2   -1    0    0    0  501 -0.00000000000E+00 -0.00000000000E+00 -0.16246393318E+01  0.16246393318E+01  0.00000000000E+00 0.  1.
          1    1    1    2  502    0  0.18693428536E+02 -0.11839237289E+02  0.63905565035E+03  0.63943861007E+03  0.00000000000E+00 0. -1.
         -1    1    1    2    0  501 -0.18693428536E+02  0.11839237289E+02  0.83974609248E+02  0.86840928187E+02  0.00000000000E+00 0.  1.
</event>
<event>
 4    1  0.6824761E+001  0.2446667E+02  0.7546771E-02  0.1474859E+00
          2   -1    0    0  502    0  0.00000000000E+00  0.00000000000E+00  0.67197590524E+01  0.67197590524E+01  0.00000000000E+00 0.  1.
         -2   -1    0    0    0  501 -0.00000000000E+00 -0.00000000000E+00 -0.12165527301E+03  0.12165527301E+03  0.00000000000E+00 0. -1.
          1    1    1    2  502    0 -0.24313518876E+02  0.27332814515E+01 -0.90680704209E+02  0.93923416375E+02  0.00000000000E+00 0. -1.
         -1    1    1    2    0  501  0.24313518876E+02 -0.27332814515E+01 -0.24254809751E+02  0.34451615690E+02  0.00000000000E+00 0.  1.
</event>
<event>
 4    1  0.6824761E+001  0.3657906E+02  0.7546771E-02  0.1369789E+00
          2   -1    0    0  502    0  0.00000000000E+00  0.00000000000E+00  0.61801849411E+03  0.61801849411E+03  0.00000000000E+00 0.  1.
         -2   -1    0    0    0  501 -0.00000000000E+00 -0.00000000000E+00 -0.72006235078E+01  0.72006235078E+01  0.00000000000E+00 0. -1.
          1    1    1    2  502    0 -0.22727687451E+02  0.28661466171E+02  0.43986645114E+02  0.57208848689E+02  0.00000000000E+00 0. -1.
         -1    1    1    2    0  501  0.22727687451E+02 -0.28661466171E+02  0.56683122549E+03  0.56801026893E+03  0.00000000000E+00 0.  1.
</event>
<event>
 4    1  0.6824761E+001  0.3516167E+02  0.7546771E-02  0.1379430E+00
          2   -1    0    0  502    0  0.00000000000E+00  0.00000000000E+00  0.25711957484E+03  0.25711957484E+03  0.00000000000E+00 0. -1.
         -2   -1    0    0    0  501 -0.00000000000E+00 -0.00000000000E+00 -0.48390110939E+01  0.48390110939E+01  0.00000000000E+00 0.  1.
          1    1    1    2  502    0  0.28346511042E+02 -0.20804294055E+02  0.11572911497E+03  0.12095276512E+03  0.00000000000E+00 0. -1.
         -1    1    1    2    0  501 -0.28346511042E+02  0.20804294055E+02  0.13655144878E+03  0.14100582081E+03  0.00000000000E+00 0.  1.
</event>
<event>
 4    1  0.6824761E+001  0.2171860E+02  0.7546771E-02  0.1509248E+00
          2   -1    0    0  502    0  0.00000000000E+00  0.00000000000E+00  0.31530356951E+03  0.31530356951E+03  0.00000000000E+00 0. -1.
         -2   -1    0    0    0  501 -0.00000000000E+00 -0.00000000000E+00 -0.40423146408E+01  0.40423146408E+01  0.00000000000E+00 0.  1.
          1    1    1    2  502    0 -0.15199543525E+02  0.15513596091E+02  0.28902996146E+02  0.36153574834E+02  0.00000000000E+00 0.  1.
         -1    1    1    2    0  501  0.15199543525E+02 -0.15513596091E+02  0.28235825872E+03  0.28319230932E+03  0.00000000000E+00 0. -1.
</event>
<event>
 4    1  0.6824761E+001  0.2259437E+02  0.7546771E-02  0.1497655E+00
          2   -1    0    0  502    0  0.00000000000E+00  0.00000000000E+00  0.24298823737E+03  0.24298823737E+03  0.00000000000E+00 0. -1.
         -2   -1    0    0    0  501 -0.00000000000E+00 -0.00000000000E+00 -0.69731556357E+01  0.69731556357E+01  0.00000000000E+00 0.  1.
          1    1    1    2  502    0 -0.12734584648E+02  0.18663760974E+02  0.13537645149E+02  0.26339579648E+02  0.00000000000E+00 0.  1.
         -1    1    1    2    0  501  0.12734584648E+02 -0.18663760974E+02  0.22247743658E+03  0.22362181335E+03  0.00000000000E+00 0. -1.
</event>
<event>
 4    1  0.6824761E+001  0.5661829E+02  0.7546771E-02  0.1271776E+00
          2   -1    0    0  502    0  0.00000000000E+00  0.00000000000E+00  0.58591249989E+03  0.58591249989E+03  0.00000000000E+00 0.  1.
         -2   -1    0    0    0  501 -0.00000000000E+00 -0.00000000000E+00 -0.54743459280E+01  0.54743459280E+01  0.00000000000E+00 0. -1.
          1    1    1    2  502    0  0.40831738248E+02  0.39222440186E+02  0.28310415023E+03  0.28871021897E+03  0.00000000000E+00 0.  1.
         -1    1    1    2    0  501 -0.40831738248E+02 -0.39222440186E+02  0.29733400374E+03  0.30267662685E+03  0.00000000000E+00 0. -1.
</event>
<event>
 4    1  0.6824761E+001  0.2233845E+02  0.7546771E-02  0.1500977E+00
          2   -1    0    0  502    0  0.00000000000E+00  0.00000000000E+00  0.17374305087E+04  0.17374305087E+04  0.00000000000E+00 0. -1.
         -2   -1    0    0    0  501 -0.00000000000E+00 -0.00000000000E+00 -0.31178649805E+00  0.31178649805E+00  0.00000000000E+00 0.  1.
          1    1    1    2  502    0 -0.21484402206E+02 -0.61177476519E+01  0.62461430423E+03  0.62501362819E+03  0.00000000000E+00 0.  1.
         -1    1    1    2    0  501  0.21484402206E+02  0.61177476519E+01  0.11125044180E+04  0.11127286671E+04  0.00000000000E+00 0. -1.
</event>
<event>
 4    1  0.6824761E+001  0.2083832E+02  0.7546771E-02  0.1521586E+00
          2   -1    0    0  502    0  0.00000000000E+00  0.00000000000E+00  0.35293068936E+03  0.35293068936E+03  0.00000000000E+00 0. -1.
         -2   -1    0    0    0  501 -0.00000000000E+00 -0.00000000000E+00 -0.12591862231E+01  0.12591862231E+01  0.00000000000E+00 0.  1.
          1    1    1    2  502    0 -0.54692818942E+01  0.20107771421E+02  0.20262594024E+03  0.20369464198E+03  0.00000000000E+00 0.  1.
         -1    1    1    2    0  501  0.54692818942E+01 -0.20107771421E+02  0.14904556289E+03  0.15049523359E+03  0.00000000000E+00 0. -1.
</event>
<event>
 4    1  0.6824761E+001  0.2133383E+02  0.7546771E-02  0.1514552E+00
          2   -1    0    0  502    0  0.00000000000E+00  0.00000000000E+00  0.20705962072E+02  0.20705962072E+02  0.00000000000E+00 0.  1.
         -2   -1    0    0    0  501 -0.00000000000E+00 -0.00000000000E+00 -0.42378252634E+02  0.42378252634E+02  0.00000000000E+00 0. -1.
          1    1    1    2  502    0 -0.19031179863E+02  0.96408826857E+01 -0.32719190546E+02  0.39059926471E+02  0.00000000000E+00 0. -1.
         -1    1    1    2    0  501  0.19031179863E+02 -0.96408826857E+01  0.11046899983E+02  0.24024288235E+02  0.00000000000E+00 0.  1.
</event>
<event>
 4    1  0.6824761E+001  0.2806601E+02  0.7546771E-02  0.1437184E+00
          2   -1    0    0  502    0  0.00000000000E+00  0.00000000000E+00  0.17445470738E+02  0.17445470738E+02  0.00000000000E+00 0.  1.
         -2   -1    0    0    0  501 -0.00000000000E+00 -0.00000000000E+00 -0.45745054472E+02  0.45745054472E+02  0.00000000000E+00 0. -1.
          1    1    1    2  502    0  0.21515094891E+02 -0.18022247335E+02 -0.17746772932E+02  0.33206153898E+02  0.00000000000E+00 0.  1.
         -1    1    1    2    0  501 -0.21515094891E+02  0.18022247335E+02 -0.10552810802E+02  0.29984371312E+02  0.00000000000E+00 0. -1.
</event>
<event>
 4    1  0.6824761E+001  0.3006665E+02  0.7546771E-02  0.1419018E+00
          2   -1    0    0  502    0  0.00000000000E+00  0.00000000000E+00  0.27236825477E+04  0.27236825477E+04  0.00000000000E+00 0.  1.
         -2   -1    0    0    0  501 -0.00000000000E+00 -0.00000000000E+00 -0.44077620328E+00  0.44077620328E+00  0.00000000000E+00 0. -1.
          1    1    1    2  502    0  0.24258756740E+02 -0.17762781224E+02  0.20385517920E+04  0.20387735068E+04  0.00000000000E+00 0.  1.
         -1    1    1    2    0  501 -0.24258756740E+02  0.17762781224E+02  0.68468997956E+03  0.68534981709E+03  0.00000000000E+00 0. -1.
</event>
<event>
 4    1  0.6824761E+001  0.2398459E+02  0.7546771E-02  0.1480491E+00
          2   -1    0    0  502    0  0.00000000000E+00  0.00000000000E+00  0.14499472280E+03  0.14499472280E+03  0.00000000000E+00 0. -1.
         -2   -1    0    0    0  501 -0.00000000000E+00 -0.00000000000E+00 -0.65944091121E+01  0.65944091121E+01  0.00000000000E+00 0.  1.
          1    1    1    2  502    0 -0.21391775607E+02 -0.10846782638E+02  0.11703848130E+03  0.11947077828E+03  0.00000000000E+00 0. -1.
         -1    1    1    2    0  501  0.21391775607E+02  0.10846782638E+02  0.21361832387E+02  0.32118353634E+02  0.00000000000E+00 0.  1.
</event>
<event>
 4    1  0.6824761E+001  0.2471261E+02  0.7546771E-02  0.1472044E+00
          2   -1    0    0  502    0  0.00000000000E+00  0.00000000000E+00  0.77729982895E+02  0.77729982895E+02  0.00000000000E+00 0.  1.
         -2   -1    0    0    0  501 -0.00000000000E+00 -0.00000000000E+00 -0.14069816439E+02  0.14069816439E+02  0.00000000000E+00 0. -1.
          1    1    1    2  502    0  0.24025676407E+02 -0.57862080008E+01  0.13288925473E+01  0.24748318837E+02  0.00000000000E+00 0. -1.
         -1    1    1    2    0  501 -0.24025676407E+02  0.57862080008E+01  0.62331273909E+02  0.67051480498E+02  0.00000000000E+00 0.  1.
</event>
<event>
 4    1  0.6824761E+001  0.2027241E+02  0.7546771E-02  0.1529911E+00
          2   -1    0    0  502    0  0.00000000000E+00  0.00000000000E+00  0.43586001409E+03  0.43586001409E+03  0.00000000000E+00 0.  1.
         -2   -1    0    0    0  501 -0.00000000000E+00 -0.00000000000E+00 -0.10304159834E+01  0.10304159834E+01  0.00000000000E+00 0. -1.
          1    1    1    2  502    0 -0.46264738857E+01 -0.19737431103E+02  0.28107838386E+03  0.28180849583E+03  0.00000000000E+00 0.  1.
         -1    1    1    2    0  501  0.46264738857E+01  0.19737431103E+02  0.15375121425E+03  0.15508193425E+03  0.00000000000E+00 0. -1.
</event>
<event>
 4    1  0.6824761E+001  0.2024862E+02  0.7546771E-02  0.1530268E+00
          2   -1    0    0  502    0  0.00000000000E+00  0.00000000000E+00  0.96909367132E+03  0.96909367132E+03  0.00000000000E+00 0. -1.
         -2   -1    0    0    0  501 -0.00000000000E+00 -0.00000000000E+00 -0.51712868949E+00  0.51712868949E+00  0.00000000000E+00 0.  1.
          1    1    1    2  502    0 -0.16250078238E+00  0.20247966917E+02  0.69103504449E+03  0.69133164204E+03  0.00000000000E+00 0. -1.
         -1    1    1    2    0  501  0.16250078238E+00 -0.20247966917E+02  0.27754149813E+03  0.27827915796E+03  0.00000000000E+00 0.  1.
</event>
<event>
 4    1  0.6824761E+001  0.2392610E+02  0.7546771E-02  0.1481185E+00
          2   -1    0    0  502    0  0.00000000000E+00  0.00000000000E+00  0.13002454503E+04  0.13002454503E+04  0.00000000000E+00 0.  1.
         -2   -1    0    0    0  501 -0.00000000000E+00 -0.00000000000E+00 -0.60452415585E+00  0.60452415585E+00  0.00000000000E+00 0. -1.
          1    1    1    2  502    0  0.16265693292E+02 -0.17546662098E+02  0.98885935644E+03  0.98914876785E+03  0.00000000000E+00 0. -1.
         -1    1    1    2    0  501 -0.16265693292E+02  0.17546662098E+02  0.31078156972E+03  0.31170120662E+03  0.00000000000E+00 0.  1.
</event>
<event>
 4    1  0.6824761E+001  0.1057014E+03  0.7546771E-02  0.1154279E+00
          2   -1    0    0  502    0  0.00000000000E+00  0.00000000000E+00  0.12818861552E+03  0.12818861552E+03  0.00000000000E+00 0.  1.
         -2   -1    0    0    0  501 -0.00000000000E+00 -0.00000000000E+00 -0.96809238721E+02  0.96809238721E+02  0.00000000000E+00 0. -1.
          1    1    1    2  502    0 -0.14772167851E+02 -0.10466411453E+03  0.51208514794E+02  0.11745256831E+03  0.00000000000E+00 0.  1.
         -1    1    1    2    0  501  0.14772167851E+02  0.10466411453E+03 -0.19829137990E+02  0.10754528594E+03  0.00000000000E+00 0. -1.
</event>
<event>
 4    1  0.6824761E+001  0.3728361E+02  0.7546771E-02  0.1365184E+00
          2   -1    0    0  502    0  0.00000000000E+00  0.00000000000E+00  0.70618660109E+03  0.70618660109E+03  0.00000000000E+00 0. -1.
         -2   -1    0    0    0  501 -0.00000000000E+00 -0.00000000000E+00 -0.26612966488E+01  0.26612966488E+01  0.00000000000E+00 0.  1.
          1    1    1    2  502    0 -0.25285555272E+02  0.27399057394E+02  0.17091776581E+03  0.17493698957E+03  0.00000000000E+00 0. -1.
         -1    1    1    2    0  501  0.25285555272E+02 -0.27399057394E+02  0.53260753863E+03  0.53391090817E+03  0.00000000000E+00 0.  1.
</event>
<event>
 4    1  0.6824761E+001  0.2411705E+02  0.7546771E-02  0.1478928E+00
          2   -1    0    0  502    0  0.00000000000E+00  0.00000000000E+00  0.56514012540E+03  0.56514012540E+03  0.00000000000E+00 0. -1.
         -2   -1    0    0    0  501 -0.00000000000E+00 -0.00000000000E+00 -0.11775438908E+01  0.11775438908E+01  0.00000000000E+00 0.  1.
          1    1    1    2  502    0 -0.23032104938E+02 -0.71522349840E+01  0.18147296868E+03  0.18306848633E+03  0.00000000000E+00 0.  1.
         -1    1    1    2    0  501  0.23032104938E+02  0.71522349840E+01  0.38248961282E+03  0.38324918296E+03  0.00000000000E+00 0. -1.
</event>
<event>
 4    1  0.6824761E+001  0.4544128E+02  0.7546771E-02  0.1319247E+00
          2   -1    0    0  502    0  0.00000000000E+00  0.00000000000E+00  0.94063401941E+02  0.94063401941E+02  0.00000000000E+00 0.  1.
         -2   -1    0    0    0  501 -0.00000000000E+00 -0.00000000000E+00 -0.26331608638E+02  0.26331608638E+02  0.00000000000E+00 0. -1.
          1    1    1    2  502    0  0.33669546493E+02  0.30516739769E+02  0.58415340210E+02  0.74008524773E+02  0.00000000000E+00 0.  1.
         -1    1    1    2    0  501 -0.33669546493E+02 -0.30516739769E+02  0.93164530931E+01  0.46386485806E+02  0.00000000000E+00 0. -1.
</event>
<event>
 4    1  0.6824761E+001  0.3313348E+02  0.7546771E-02  0.1394183E+00
          2   -1    0    0  502    0  0.00000000000E+00  0.00000000000E+00  0.11508573920E+03  0.11508573920E+03  0.00000000000E+00 0.  1.
         -2   -1    0    0    0  501 -0.00000000000E+00 -0.00000000000E+00 -0.10403997948E+02  0.10403997948E+02  0.00000000000E+00 0. -1.
          1    1    1    2  502    0  0.19181316866E+02 -0.27016748256E+02  0.70430582848E+02  0.77835047398E+02  0.00000000000E+00 0.  1.
         -1    1    1    2    0  501 -0.19181316866E+02  0.27016748256E+02  0.34251158400E+02  0.47654689746E+02  0.00000000000E+00 0. -1.
</event>
<event>
 4    1  0.6824761E+001  0.2608206E+02  0.7546771E-02  0.1457053E+00
          2   -1    0    0  502    0  0.00000000000E+00  0.00000000000E+00  0.10644802683E+04  0.10644802683E+04  0.00000000000E+00 0. -1.
         -2   -1    0    0    0  501 -0.00000000000E+00 -0.00000000000E+00 -0.63923394614E+00  0.63923394614E+00  0.00000000000E+00 0.  1.
          1    1    1    2  502    0 -0.21276878104E+02 -0.15085361418E+02  0.54054010060E+03  0.54116898842E+03  0.00000000000E+00 0.  1.
         -1    1    1    2    0  501  0.21276878104E+02  0.15085361418E+02  0.52330093378E+03  0.52395051385E+03  0.00000000000E+00 0. -1.
</event>
<event>
 4    1  0.6824761E+001  0.2628869E+02  0.7546771E-02  0.1454887E+00
          2   -1    0    0  502    0  0.00000000000E+00  0.00000000000E+00  0.93531206786E+03  0.93531206786E+03  0.00000000000E+00 0. -1.
         -2   -1    0    0    0  501 -0.00000000000E+00 -0.00000000000E+00 -0.73899850544E+00  0.73899850544E+00  0.00000000000E+00 0.  1.
          1    1    1    2  502    0 -0.62096597764E+01 -0.25544771215E+02  0.46168499388E+03  0.46243283706E+03  0.00000000000E+00 0. -1.
         -1    1    1    2    0  501  0.62096597764E+01  0.25544771215E+02  0.47288807547E+03  0.47361822931E+03  0.00000000000E+00 0.  1.
</event>
<event>
 4    1  0.6824761E+001  0.2268469E+02  0.7546771E-02  0.1496496E+00
          2   -1    0    0  502    0  0.00000000000E+00  0.00000000000E+00  0.53385355095E+02  0.53385355095E+02  0.00000000000E+00 0.  1.
         -2   -1    0    0    0  501 -0.00000000000E+00 -0.00000000000E+00 -0.96574697464E+01  0.96574697464E+01  0.00000000000E+00 0. -1.
          1    1    1    2  502    0  0.21574578114E+02  0.70094908432E+01  0.20495232555E+02  0.30572045077E+02  0.00000000000E+00 0.  1.
         -1    1    1    2    0  501 -0.21574578114E+02 -0.70094908432E+01  0.23232652794E+02  0.32470779765E+02  0.00000000000E+00 0. -1.
</event>
<event>
 4    1  0.6824761E+001  0.2125891E+02  0.7546771E-02  0.1515600E+00
          2   -1    0    0  502    0  0.00000000000E+00  0.00000000000E+00  0.21232654111E+04  0.21232654111E+04  0.00000000000E+00 0.  1.
         -2   -1    0    0    0  501 -0.00000000000E+00 -0.00000000000E+00 -0.24887040654E+00  0.24887040654E+00  0.00000000000E+00 0. -1.
          1    1    1    2  502    0 -0.16084684232E+02  0.13900508078E+02  0.65758294186E+03  0.65792649028E+03  0.00000000000E+00 0. -1.
         -1    1    1    2    0  501  0.16084684232E+02 -0.13900508078E+02  0.14654335989E+04  0.14655877913E+04  0.00000000000E+00 0.  1.
</event>
<event>
 4    1  0.6824761E+001  0.2193708E+02  0.7546771E-02  0.1506295E+00
          2   -1    0    0  502    0  0.00000000000E+00  0.00000000000E+00  0.31991152626E+03  0.31991152626E+03  0.00000000000E+00 0.  1.
         -2   -1    0    0    0  501 -0.00000000000E+00 -0.00000000000E+00 -0.16270263049E+01  0.16270263049E+01  0.00000000000E+00 0. -1.
          1    1    1    2  502    0  0.30619623039E+01  0.21722337585E+02  0.11498365751E+03  0.11705758010E+03  0.00000000000E+00 0. -1.
         -1    1    1    2    0  501 -0.30619623039E+01 -0.21722337585E+02  0.20330084244E+03  0.20448097246E+03  0.00000000000E+00 0.  1.
</event>
<event>
 4    1  0.6824761E+001  0.2292489E+02  0.7546771E-02  0.1493443E+00
          2   -1    0    0  502    0  0.00000000000E+00  0.00000000000E+00  0.15209528857E+04  0.15209528857E+04  0.00000000000E+00 0.  1.
         -2   -1    0    0    0  501 -0.00000000000E+00 -0.00000000000E+00 -0.34629079770E+00  0.34629079770E+00  0.00000000000E+00 0. -1.
          1    1    1    2  502    0  0.22402389012E+02 -0.48665740879E+01  0.72489318119E+03  0.72525559268E+03  0.00000000000E+00 0. -1.
         -1    1    1    2    0  501 -0.22402389012E+02  0.48665740879E+01  0.79571341369E+03  0.79604358379E+03  0.00000000000E+00 0.  1.
</event>
<event>
 4    1  0.6824761E+001  0.2117187E+02  0.7546771E-02  0.1516825E+00
          2   -1    0    0  502    0  0.00000000000E+00  0.00000000000E+00  0.86662505614E+03  0.86662505614E+03  0.00000000000E+00 0. -1.
         -2   -1    0    0    0  501 -0.00000000000E+00 -0.00000000000E+00 -0.53479123935E+00  0.53479123935E+00  0.00000000000E+00 0.  1.
          1    1    1    2  502    0 -0.93920206962E+01  0.18974667135E+02  0.35448473154E+03  0.35511642167E+03  0.00000000000E+00 0.  1.
         -1    1    1    2    0  501  0.93920206962E+01 -0.18974667135E+02  0.51160553337E+03  0.51204342571E+03  0.00000000000E+00 0. -1.
</event>
<event>
 4    1  0.6824761E+001  0.2978697E+02  0.7546771E-02  0.1421457E+00
          2   -1    0    0  502    0  0.00000000000E+00  0.00000000000E+00  0.19971999850E+02  0.19971999850E+02  0.00000000000E+00 0.  1.
         -2   -1    0    0    0  501 -0.00000000000E+00 -0.00000000000E+00 -0.47203355784E+02  0.47203355784E+02  0.00000000000E+00 0. -1.
          1    1    1    2  502    0  0.21103678160E+02 -0.21021377419E+02 -0.21763815031E+02  0.36890746606E+02  0.00000000000E+00 0.  1.
         -1    1    1    2    0  501 -0.21103678160E+02  0.21021377419E+02 -0.54675409034E+01  0.30284609028E+02  0.00000000000E+00 0. -1.
</event>
<event>
 4    1  0.6824761E+001  0.2517707E+02  0.7546771E-02  0.1466832E+00
          2   -1    0    0  502    0  0.00000000000E+00  0.00000000000E+00  0.12790108833E+03  0.12790108833E+03  0.00000000000E+00 0. -1.
         -2   -1    0    0    0  501 -0.00000000000E+00 -0.00000000000E+00 -0.62949349538E+01  0.62949349538E+01  0.00000000000E+00 0.  1.
          1    1    1    2  502    0  0.82936245233E+01  0.23771845247E+02  0.91747674273E+02  0.95139479548E+02  0.00000000000E+00 0. -1.
         -1    1    1    2    0  501 -0.82936245233E+01 -0.23771845247E+02  0.29858479099E+02  0.39056543732E+02  0.00000000000E+00 0.  1.
</event>
<event>
 4    1  0.6824761E+001  0.2585495E+02  0.7546771E-02  0.1459462E+00
          2   -1    0    0  502    0  0.00000000000E+00  0.00000000000E+00  0.68060935457E+03  0.68060935457E+03  0.00000000000E+00 0.  1.
         -2   -1    0    0    0  501 -0.00000000000E+00 -0.00000000000E+00 -0.16497496733E+01  0.16497496733E+01  0.00000000000E+00 0. -1.
          1    1    1    2  502    0 -0.23795980103E+02  0.10110862361E+02  0.55647988711E+03  0.55708019438E+03  0.00000000000E+00 0.  1.
         -1    1    1    2    0  501  0.23795980103E+02 -0.10110862361E+02  0.12247971779E+03  0.12517890987E+03  0.00000000000E+00 0. -1.
</event>
<event>
 4    1  0.6824761E+001  0.2763348E+02  0.7546771E-02  0.1441346E+00
          2   -1    0    0  502    0  0.00000000000E+00  0.00000000000E+00  0.14823701596E+04  0.14823701596E+04  0.00000000000E+00 0. -1.
         -2   -1    0    0    0  501 -0.00000000000E+00 -0.00000000000E+00 -0.58769472093E+00  0.58769472093E+00  0.00000000000E+00 0.  1.
          1    1    1    2  502    0 -0.36059399098E+01  0.27397196129E+02  0.48033940430E+03  0.48113361188E+03  0.00000000000E+00 0. -1.
         -1    1    1    2    0  501  0.36059399098E+01 -0.27397196129E+02  0.10014430605E+04  0.10018242424E+04  0.00000000000E+00 0.  1.
</event>
<event>
 4    1  0.6824761E+001  0.2367437E+02  0.7546771E-02  0.1484199E+00
          2   -1    0    0  502    0  0.00000000000E+00  0.00000000000E+00  0.14542757148E+03  0.14542757148E+03  0.00000000000E+00 0. -1.
         -2   -1    0    0    0  501 -0.00000000000E+00 -0.00000000000E+00 -0.94528127037E+01  0.94528127037E+01  0.00000000000E+00 0.  1.
          1    1    1    2  502    0 -0.22117796147E+02  0.84426815615E+01  0.12758575461E+03  0.12976363342E+03  0.00000000000E+00 0. -1.
         -1    1    1    2    0  501  0.22117796147E+02 -0.84426815615E+01  0.83890041720E+01  0.25116750772E+02  0.00000000000E+00 0.  1.
</event>
<event>
 4    1  0.6824761E+001  0.2713217E+02  0.7546771E-02  0.1446285E+00
          2   -1    0    0  502    0  0.00000000000E+00  0.00000000000E+00  0.86647656360E+03  0.86647656360E+03  0.00000000000E+00 0.  1.
         -2   -1    0    0    0  501 -0.00000000000E+00 -0.00000000000E+00 -0.12969321026E+01  0.12969321026E+01  0.00000000000E+00 0. -1.
          1    1    1    2  502    0 -0.14741404132E+02  0.22778181568E+02  0.17776893976E+03  0.17982755766E+03  0.00000000000E+00 0. -1.
         -1    1    1    2    0  501  0.14741404132E+02 -0.22778181568E+02  0.68741069173E+03  0.68794593804E+03  0.00000000000E+00 0.  1.
</event>
<event>
 4    1  0.6824761E+001  0.2016152E+02  0.7546771E-02  0.1531581E+00
          2   -1    0    0  502    0  0.00000000000E+00  0.00000000000E+00  0.16199958663E+03  0.16199958663E+03  0.00000000000E+00 0. -1.
         -2   -1    0    0    0  501 -0.00000000000E+00 -0.00000000000E+00 -0.35019723660E+01  0.35019723660E+01  0.00000000000E+00 0.  1.
          1    1    1    2  502    0 -0.15902117660E+02  0.12393934820E+02  0.35188876246E+02  0.40555443258E+02  0.00000000000E+00 0.  1.
         -1    1    1    2    0  501  0.15902117660E+02 -0.12393934820E+02  0.12330873802E+03  0.12494611574E+03  0.00000000000E+00 0. -1.
</event>
<event>
 4    1  0.6824761E+001  0.2639592E+02  0.7546771E-02  0.1453772E+00
          2   -1    0    0  502    0  0.00000000000E+00  0.00000000000E+00  0.22957453596E+02  0.22957453596E+02  0.00000000000E+00 0. -1.
         -2   -1    0    0    0  501 -0.00000000000E+00 -0.00000000000E+00 -0.34226663251E+02  0.34226663251E+02  0.00000000000E+00 0.  1.
          1    1    1    2  502    0  0.63953033381E+01  0.25609462739E+02 -0.15257968481E+02  0.30488523886E+02  0.00000000000E+00 0.  1.
         -1    1    1    2    0  501 -0.63953033381E+01 -0.25609462739E+02  0.39887588258E+01  0.26695592961E+02  0.00000000000E+00 0. -1.
</event>
<event>
 4    1  0.6824761E+001  0.2346792E+02  0.7546771E-02  0.1486705E+00
          2   -1    0    0  502    0  0.00000000000E+00  0.00000000000E+00  0.25927352968E+04  0.25927352968E+04  0.00000000000E+00 0. -1.
         -2   -1    0    0    0  501 -0.00000000000E+00 -0.00000000000E+00 -0.22986341810E+00  0.22986341810E+00  0.00000000000E+00 0.  1.
          1    1    1    2  502    0  0.16321936152E+02 -0.16862309360E+02  0.16534228873E+04  0.16535894253E+04  0.00000000000E+00 0. -1.
         -1    1    1    2    0  501 -0.16321936152E+02  0.16862309360E+02  0.93908254606E+03  0.93937573494E+03  0.00000000000E+00 0.  1.
</event>
<event>
 4    1  0.6824761E+001  0.2038755E+02  0.7546771E-02  0.1528191E+00
          2   -1    0    0  502    0  0.00000000000E+00  0.00000000000E+00  0.31909103035E+03  0.31909103035E+03  0.00000000000E+00 0.  1.
         -2   -1    0    0    0  501 -0.00000000000E+00 -0.00000000000E+00 -0.21887312552E+01  0.21887312552E+01  0.00000000000E+00 0. -1.
          1    1    1    2  502    0  0.19636959503E+02 -0.54810447442E+01  0.56238871520E+02  0.59820253258E+02  0.00000000000E+00 0. -1.
         -1    1    1    2    0  501 -0.19636959503E+02  0.54810447442E+01  0.26066342758E+03  0.26145950835E+03  0.00000000000E+00 0.  1.
</event>
<event>
 4    1  0.6824761E+001  0.4431630E+02  0.7546771E-02  0.1324894E+00
          2   -1    0    0  502    0  0.00000000000E+00  0.00000000000E+00  0.16007891558E+02  0.16007891558E+02  0.00000000000E+00 0. -1.
         -2   -1    0    0    0  501 -0.00000000000E+00 -0.00000000000E+00 -0.15167565118E+03  0.15167565118E+03  0.00000000000E+00 0.  1.
          1    1    1    2  502    0 -0.42399069554E+02  0.12893918899E+02 -0.31179265238E+02  0.54185614552E+02  0.00000000000E+00 0. -1.
         -1    1    1    2    0  501  0.42399069554E+02 -0.12893918899E+02 -0.10448849438E+03  0.11349792819E+03  0.00000000000E+00 0.  1.
</event>
<event>
 4    1  0.6824761E+001  0.2421458E+02  0.7546771E-02  0.1477785E+00
          2   -1    0    0  502    0  0.00000000000E+00  0.00000000000E+00  0.49327565456E+03  0.49327565456E+03  0.00000000000E+00 0. -1.
         -2   -1    0    0    0  501 -0.00000000000E+00 -0.00000000000E+00 -0.12804850814E+01  0.12804850814E+01  0.00000000000E+00 0.  1.
          1    1    1    2  502    0 -0.65758984614E+01  0.23304582507E+02  0.31220947852E+03  0.31314709720E+03  0.00000000000E+00 0.  1.
         -1    1    1    2    0  501  0.65758984614E+01 -0.23304582507E+02  0.17978569096E+03  0.18140904244E+03  0.00000000000E+00 0. -1.
</event>
<event>
 4    1  0.6824761E+001  0.2442213E+02  0.7546771E-02  0.1475373E+00
          2   -1    0    0  502    0  0.00000000000E+00  0.00000000000E+00  0.62288806802E+03  0.62288806802E+03  0.00000000000E+00 0.  1.
         -2   -1    0    0    0  501 -0.00000000000E+00 -0.00000000000E+00 -0.11314447010E+01  0.11314447010E+01  0.00000000000E+00 0. -1.
          1    1    1    2  502    0 -0.10762099417E+02 -0.21922989497E+02  0.18855558716E+03  0.19013061221E+03  0.00000000000E+00 0.  1.
         -1    1    1    2    0  501  0.10762099417E+02  0.21922989497E+02  0.43320103616E+03  0.43388890051E+03  0.00000000000E+00 0. -1.
</event>
<event>
 4    1  0.6824761E+001  0.2123286E+02  0.7546771E-02  0.1515966E+00
          2   -1    0    0  502    0  0.00000000000E+00  0.00000000000E+00  0.20227358895E+02  0.20227358895E+02  0.00000000000E+00 0. -1.
         -2   -1    0    0    0  501 -0.00000000000E+00 -0.00000000000E+00 -0.22346612362E+02  0.22346612362E+02  0.00000000000E+00 0.  1.
          1    1    1    2  502    0  0.19752060377E+02  0.77903960852E+01  0.27440954441E-01  0.21232873411E+02  0.00000000000E+00 0.  1.
         -1    1    1    2    0  501 -0.19752060377E+02 -0.77903960852E+01 -0.21466944213E+01  0.21341097845E+02  0.00000000000E+00 0. -1.
</event>
<event>
 4    1  0.6824761E+001  0.2170564E+02  0.7546771E-02  0.1509424E+00
          2   -1    0    0  502    0  0.00000000000E+00  0.00000000000E+00  0.41411441931E+03  0.41411441931E+03  0.00000000000E+00 0.  1.
         -2   -1    0    0    0  501 -0.00000000000E+00 -0.00000000000E+00 -0.13565164424E+01  0.13565164424E+01  0.00000000000E+00 0. -1.
          1    1    1    2  502    0  0.18277618653E+02  0.11707409545E+02  0.28981346709E+03  0.29062515460E+03  0.00000000000E+00 0. -1.
         -1    1    1    2    0  501 -0.18277618653E+02 -0.11707409545E+02  0.12294443577E+03  0.12484578114E+03  0.00000000000E+00 0.  1.
</event>
<event>
 4    1  0.6824761E+001  0.2589103E+02  0.7546771E-02  0.1459078E+00
          2   -1    0    0  502    0  0.00000000000E+00  0.00000000000E+00  0.69939412716E+03  0.69939412716E+03  0.00000000000E+00 0. -1.
         -2   -1    0    0    0  501 -0.00000000000E+00 -0.00000000000E+00 -0.98632486480E+00  0.98632486480E+00  0.00000000000E+00 0.  1.
          1    1    1    2  502    0 -0.23663706301E+02  0.10505913484E+02  0.40805828664E+03  0.40887884576E+03  0.00000000000E+00 0. -1.
         -1    1    1    2    0  501  0.23663706301E+02 -0.10505913484E+02  0.29034951565E+03  0.29150160626E+03  0.00000000000E+00 0.  1.
</event>
<event>
 4    1  0.6824761E+001  0.2077715E+02  0.7546771E-02  0.1522470E+00
          2   -1    0    0  502    0  0.00000000000E+00  0.00000000000E+00  0.97040244449E+00  0.97040244449E+00  0.00000000000E+00 0. -1.
         -2   -1    0    0    0  501 -0.00000000000E+00 -0.00000000000E+00 -0.54322004236E+03  0.54322004236E+03  0.00000000000E+00 0.  1.
          1    1    1    2  502    0  0.18554853850E+02  0.93491918320E+01 -0.15534049897E+03  0.15672383548E+03  0.00000000000E+00 0. -1.
         -1    1    1    2    0  501 -0.18554853850E+02 -0.93491918320E+01 -0.38690914095E+03  0.38746660932E+03  0.00000000000E+00 0.  1.
</event>
<event>
 4    1  0.6824761E+001  0.2655745E+02  0.7546771E-02  0.1452105E+00
          2   -1    0    0  502    0  0.00000000000E+00  0.00000000000E+00  0.45012618123E+02  0.45012618123E+02  0.00000000000E+00 0. -1.
         -2   -1    0    0    0  501 -0.00000000000E+00 -0.00000000000E+00 -0.31640571628E+02  0.31640571628E+02  0.00000000000E+00 0.  1.
          1    1    1    2  502    0 -0.11617927693E+02 -0.23881418349E+02 -0.20544325865E+02  0.33576296870E+02  0.00000000000E+00 0.  1.
         -1    1    1    2    0  501  0.11617927693E+02  0.23881418349E+02  0.33916372360E+02  0.43076892881E+02  0.00000000000E+00 0. -1.
</event>
<event>
 4    1  0.6824761E+001  0.2258856E+02  0.7546771E-02  0.1497730E+00
          2   -1    0    0  502    0  0.00000000000E+00  0.00000000000E+00  0.13324493264E+01  0.13324493264E+01  0.00000000000E+00 0.  1.
         -2   -1    0    0    0  501 -0.00000000000E+00 -0.00000000000E+00 -0.39929348999E+03  0.39929348999E+03  0.00000000000E+00 0. -1.
          1    1    1    2  502    0 -0.21880937746E+02  0.56095922227E+01 -0.15843715182E+03  0.16003928904E+03  0.00000000000E+00 0.  1.
         -1    1    1    2    0  501  0.21880937746E+02 -0.56095922227E+01 -0.23952388884E+03  0.24058665027E+03  0.00000000000E+00 0. -1.
</event>
<event>
 4    1  0.6824761E+001  0.2207121E+02  0.7546771E-02  0.1504502E+00
          2   -1    0    0  502    0  0.00000000000E+00  0.00000000000E+00  0.42256898391E+02  0.42256898391E+02  0.00000000000E+00 0.  1.
         -2   -1    0    0    0  501 -0.00000000000E+00 -0.00000000000E+00 -0.11857469867E+02  0.11857469867E+02  0.00000000000E+00 0. -1.
          1    1    1    2  502    0 -0.20790825835E+02  0.74081025904E+01  0.10689673969E+02  0.24523612142E+02  0.00000000000E+00 0. -1.
         -1    1    1    2    0  501  0.20790825835E+02 -0.74081025904E+01  0.19709754555E+02  0.29590756116E+02  0.00000000000E+00 0.  1.
</event>
<event>
 4    1  0.6824761E+001  0.2048727E+02  0.7546771E-02  0.1526713E+00
          2   -1    0    0  502    0  0.00000000000E+00  0.00000000000E+00  0.26377734106E+02  0.26377734106E+02  0.00000000000E+00 0.  1.
         -2   -1    0    0    0  501 -0.00000000000E+00 -0.00000000000E+00 -0.16595765695E+02  0.16595765695E+02  0.00000000000E+00 0. -1.
          1    1    1    2  502    0 -0.19025904835E+02  0.75988891845E+01  0.92516971804E+01  0.22479369928E+02  0.00000000000E+00 0.  1.
         -1    1    1    2    0  501  0.19025904835E+02 -0.75988891845E+01  0.53027123048E+00  0.20494129872E+02  0.00000000000E+00 0. -1.
</event>
<event>
 4    1  0.6824761E+001  0.2260972E+02  0.7546771E-02  0.1497458E+00
          2   -1    0    0  502    0  0.00000000000E+00  0.00000000000E+00  0.61921682512E+03  0.61921682512E+03  0.00000000000E+00 0.  1.
         -2   -1    0    0    0  501 -0.00000000000E+00 -0.00000000000E+00 -0.84355528958E+00  0.84355528958E+00  0.00000000000E+00 0. -1.
          1    1    1    2  502    0  0.16326720059E+02  0.15640899099E+02  0.26390223232E+03  0.26486900109E+03  0.00000000000E+00 0. -1.
         -1    1    1    2    0  501 -0.16326720059E+02 -0.15640899099E+02  0.35447103750E+03  0.35519137932E+03  0.00000000000E+00 0.  1.
</event>
<event>
 4    1  0.6824761E+001  0.2982678E+02  0.7546771E-02  0.1421108E+00
          2   -1    0    0  502    0  0.00000000000E+00  0.00000000000E+00  0.64330749820E+03  0.64330749820E+03  0.00000000000E+00 0.  1.
         -2   -1    0    0    0  501 -0.00000000000E+00 -0.00000000000E+00 -0.14697062172E+01  0.14697062172E+01  0.00000000000E+00 0. -1.
          1    1    1    2  502    0 -0.23029415656E+01  0.29737744128E+02  0.24257367586E+03  0.24440054253E+03  0.00000000000E+00 0.  1.
         -1    1    1    2    0  501  0.23029415656E+01 -0.29737744128E+02  0.39926411612E+03  0.40037666189E+03  0.00000000000E+00 0. -1.
</event>
<event>
 4    1  0.6824761E+001  0.3100461E+02  0.7546771E-02  0.1411063E+00
          2   -1    0    0  502    0  0.00000000000E+00  0.00000000000E+00  0.13030050582E+03  0.13030050582E+03  0.00000000000E+00 0. -1.
         -2   -1    0    0    0  501 -0.00000000000E+00 -0.00000000000E+00 -0.75263499657E+01  0.75263499657E+01  0.00000000000E+00 0.  1.
          1    1    1    2  502    0  0.13245284739E+01  0.30976303601E+02  0.51694134913E+02  0.60279095422E+02  0.00000000000E+00 0. -1.
         -1    1    1    2    0  501 -0.13245284739E+01 -0.30976303601E+02  0.71080020946E+02  0.77547760368E+02  0.00000000000E+00 0.  1.
</event>
<event>
 4    1  0.6824761E+001  0.2995708E+02  0.7546771E-02  0.1419970E+00
          2   -1    0    0  502    0  0.00000000000E+00  0.00000000000E+00  0.21402036332E+03  0.21402036332E+03  0.00000000000E+00 0.  1.
         -2   -1    0    0    0  501 -0.00000000000E+00 -0.00000000000E+00 -0.42005639169E+01  0.42005639169E+01  0.00000000000E+00 0. -1.
          1    1    1    2  502    0  0.84154115111E+01  0.28750787610E+02  0.10033676334E+03  0.10471338509E+03  0.00000000000E+00 0.  1.
         -1    1    1    2    0  501 -0.84154115111E+01 -0.28750787610E+02  0.10948303606E+03  0.11350754215E+03  0.00000000000E+00 0. -1.
</event>
<event>
 4    1  0.6824761E+001  0.2624118E+02  0.7546771E-02  0.1455383E+00
          2   -1    0    0  502    0  0.00000000000E+00  0.00000000000E+00  0.11264959334E+03  0.11264959334E+03  0.00000000000E+00 0.  1.
         -2   -1    0    0    0  501 -0.00000000000E+00 -0.00000000000E+00 -0.72600784152E+01  0.72600784152E+01  0.00000000000E+00 0. -1.
          1    1    1    2  502    0  0.19372361357E+02  0.17700594133E+02  0.76528728291E+02  0.80902692607E+02  0.00000000000E+00 0.  1.
         -1    1    1    2    0  501 -0.19372361357E+02 -0.17700594133E+02  0.28860786636E+02  0.39006979151E+02  0.00000000000E+00 0. -1.
</event>
<event>
 4    1  0.6824761E+001  0.2800330E+02  0.7546771E-02  0.1437782E+00
          2   -1    0    0  502    0  0.00000000000E+00  0.00000000000E+00  0.42228834566E+01  0.42228834566E+01  0.00000000000E+00 0.  1.
         -2   -1    0    0    0  501 -0.00000000000E+00 -0.00000000000E+00 -0.18603006590E+03  0.18603006590E+03  0.00000000000E+00 0. -1.
          1    1    1    2  502    0 -0.26504547887E+02  0.90384654150E+01 -0.86890152448E+02  0.91291201702E+02  0.00000000000E+00 0. -1.
         -1    1    1    2    0  501  0.26504547887E+02 -0.90384654150E+01 -0.94917029997E+02  0.98961747657E+02  0.00000000000E+00 0.  1.
</event>
<event>
 4    1  0.6824761E+001  0.2999138E+02  0.7546771E-02  0.1419671E+00
          2   -1    0    0  502    0  0.00000000000E+00  0.00000000000E+00  0.95591535360E+03  0.95591535360E+03  0.00000000000E+00 0. -1.
         -2   -1    0    0    0  501 -0.00000000000E+00 -0.00000000000E+00 -0.24642618865E+01  0.24642618865E+01  0.00000000000E+00 0.  1.
          1    1    1    2  502    0  0.16555755786E+02  0.25007797827E+02  0.85347827134E+03  0.85400506008E+03  0.00000000000E+00 0. -1.
         -1    1    1    2    0  501 -0.16555755786E+02 -0.25007797827E+02  0.99972820375E+02  0.10437455540E+03  0.00000000000E+00 0.  1.
</event>
<event>
 4    1  0.6824761E+001  0.3202920E+02  0.7546771E-02  0.1402745E+00
          2   -1    0    0  502    0  0.00000000000E+00  0.00000000000E+00  0.62445486420E+02  0.62445486420E+02  0.00000000000E+00 0. -1.
         -2   -1    0    0    0  501 -0.00000000000E+00 -0.00000000000E+00 -0.22378620908E+02  0.22378620908E+02  0.00000000000E+00 0.  1.
          1    1    1    2  502    0 -0.23002877839E+02  0.22287609996E+02 -0.18363630450E+01  0.32081804461E+02  0.00000000000E+00 0.  1.
         -1    1    1    2    0  501  0.23002877839E+02 -0.22287609996E+02  0.41903228557E+02  0.52742302867E+02  0.00000000000E+00 0. -1.
</event>
<event>
 4    1  0.6824761E+001  0.2066645E+02  0.7546771E-02  0.1524081E+00
          2   -1    0    0  502    0  0.00000000000E+00  0.00000000000E+00  0.11257024947E+02  0.11257024947E+02  0.00000000000E+00 0.  1.
         -2   -1    0    0    0  501 -0.00000000000E+00 -0.00000000000E+00 -0.10152436510E+03  0.10152436510E+03  0.00000000000E+00 0. -1.
          1    1    1    2  502    0  0.17612324708E+02  0.10812413957E+02 -0.89760312625E+02  0.92108718370E+02  0.00000000000E+00 0. -1.
         -1    1    1    2    0  501 -0.17612324708E+02 -0.10812413957E+02 -0.50702752374E+00  0.20672671673E+02  0.00000000000E+00 0.  1.
</event>
<event>
 4    1  0.6824761E+001  0.2274533E+02  0.7546771E-02  0.1495721E+00
          2   -1    0    0  502    0  0.00000000000E+00  0.00000000000E+00  0.32145772021E+03  0.32145772021E+03  0.00000000000E+00 0. -1.
         -2   -1    0    0    0  501 -0.00000000000E+00 -0.00000000000E+00 -0.18216162974E+01  0.18216162974E+01  0.00000000000E+00 0.  1.
          1    1    1    2  502    0  0.14968256660E+02  0.17126046885E+02  0.10464574172E+03  0.10708912853E+03  0.00000000000E+00 0.  1.
         -1    1    1    2    0  501 -0.14968256660E+02 -0.17126046885E+02  0.21499036219E+03  0.21619020797E+03  0.00000000000E+00 0. -1.
</event>
<event>
 4    1  0.6824761E+001  0.2999815E+02  0.7546771E-02  0.1419613E+00
          2   -1    0    0  502    0  0.00000000000E+00  0.00000000000E+00  0.35093900679E+02  0.35093900679E+02  0.00000000000E+00 0.  1.
         -2   -1    0    0    0  501 -0.00000000000E+00 -0.00000000000E+00 -0.33822292887E+02  0.33822292887E+02  0.00000000000E+00 0. -1.
          1    1    1    2  502    0 -0.31334132713E+01  0.29834050357E+02 -0.16310142981E+02  0.34145418485E+02  0.00000000000E+00 0. -1.
         -1    1    1    2    0  501  0.31334132713E+01 -0.29834050357E+02  0.17581750774E+02  0.34770775081E+02  0.00000000000E+00 0.  1.
</event>
<event>
 4    1  0.6824761E+001  0.2290284E+02  0.7546771E-02  0.1493722E+00
          2   -1    0    0  502    0  0.00000000000E+00  0.00000000000E+00  0.43253233115E+02  0.43253233115E+02  0.00000000000E+00 0.  1.
         -2   -1    0    0    0  501 -0.00000000000E+00 -0.00000000000E+00 -0.12299672035E+02  0.12299672035E+02  0.00000000000E+00 0. -1.
          1    1    1    2  502    0 -0.33622483360E+01  0.22654703135E+02  0.18766044223E+02  0.29609199648E+02  0.00000000000E+00 0.  1.
         -1    1    1    2    0  501  0.33622483360E+01 -0.22654703135E+02  0.12187516857E+02  0.25943705501E+02  0.00000000000E+00 0. -1.
</event>
<event>
 4    1  0.6824761E+001  0.2596610E+02  0.7546771E-02  0.1458280E+00
          2   -1    0    0  502    0  0.00000000000E+00  0.00000000000E+00  0.13183719045E+04  0.13183719045E+04  0.00000000000E+00 0. -1.
         -2   -1    0    0    0  501 -0.00000000000E+00 -0.00000000000E+00 -0.60279219697E+00  0.60279219697E+00  0.00000000000E+00 0.  1.
          1    1    1    2  502    0  0.15991395322E+02  0.20457611364E+02  0.40211980128E+03  0.40295728455E+03  0.00000000000E+00 0.  1.
         -1    1    1    2    0  501 -0.15991395322E+02 -0.20457611364E+02  0.91564931102E+03  0.91601741215E+03  0.00000000000E+00 0. -1.
</event>
<event>
 4    1  0.6824761E+001  0.4791222E+02  0.7546771E-02  0.1307487E+00
          2   -1    0    0  502    0  0.00000000000E+00  0.00000000000E+00  0.16547786784E+04  0.16547786784E+04  0.00000000000E+00 0. -1.
         -2   -1    0    0    0  501 -0.00000000000E+00 -0.00000000000E+00 -0.19790909065E+01  0.19790909065E+01  0.00000000000E+00 0.  1.
          1    1    1    2  502    0 -0.44690447570E+02  0.17272655523E+02  0.12794027900E+04  0.12802996055E+04  0.00000000000E+00 0. -1.
         -1    1    1    2    0  501  0.44690447570E+02 -0.17272655523E+02  0.37339679745E+03  0.37645816378E+03  0.00000000000E+00 0.  1.
</event>
<event>
 4    1  0.6824761E+001  0.2192088E+02  0.7546771E-02  0.1506512E+00
          2   -1    0    0  502    0  0.00000000000E+00  0.00000000000E+00  0.21650924729E+04  0.21650924729E+04  0.00000000000E+00 0.  1.
         -2   -1    0    0    0  501 -0.00000000000E+00 -0.00000000000E+00 -0.22866213228E+00  0.22866213228E+00  0.00000000000E+00 0. -1.
          1    1    1    2  502    0 -0.20457181571E+02 -0.78758185042E+01  0.12680355388E+04  0.12682250007E+04  0.00000000000E+00 0. -1.
         -1    1    1    2    0  501  0.20457181571E+02  0.78758185042E+01  0.89682827194E+03  0.89709613428E+03  0.00000000000E+00 0.  1.
</event>
<event>
 4    1  0.6824761E+001  0.2960933E+02  0.7546771E-02  0.1423022E+00
          2   -1    0    0  502    0  0.00000000000E+00  0.00000000000E+00  0.18315682228E+03  0.18315682228E+03  0.00000000000E+00 0.  1.
         -2   -1    0    0    0  501 -0.00000000000E+00 -0.00000000000E+00 -0.58636746314E+01  0.58636746314E+01  0.00000000000E+00 0. -1.
          1    1    1    2  502    0  0.19318118739E+02 -0.22439316566E+02  0.12915088463E+03  0.13250156089E+03  0.00000000000E+00 0.  1.
         -1    1    1    2    0  501 -0.19318118739E+02  0.22439316566E+02  0.48142263019E+02  0.56518936014E+02  0.00000000000E+00 0. -1.
</event>
<event>
 4    1  0.6824761E+001  0.2336721E+02  0.7546771E-02  0.1487938E+00
          2   -1    0    0  502    0  0.00000000000E+00  0.00000000000E+00  0.38566679652E+03  0.38566679652E+03  0.00000000000E+00 0.  1.
         -2   -1    0    0    0  501 -0.00000000000E+00 -0.00000000000E+00 -0.14207075099E+01  0.14207075099E+01  0.00000000000E+00 0. -1.
          1    1    1    2  502    0 -0.15034643862E+02  0.17888156804E+02  0.18074674360E+03  0.18225095882E+03  0.00000000000E+00 0. -1.
         -1    1    1    2    0  501  0.15034643862E+02 -0.17888156804E+02  0.20349934541E+03  0.20483654521E+03  0.00000000000E+00 0.  1.
</event>
<event>
 4    1  0.6824761E+001  0.2057808E+02  0.7546771E-02  0.1525375E+00
          2   -1    0    0  502    0  0.00000000000E+00  0.00000000000E+00  0.19138115427E+03  0.19138115427E+03  0.00000000000E+00 0. -1.
         -2   -1    0    0    0  501 -0.00000000000E+00 -0.00000000000E+00 -0.28850291915E+01  0.28850291915E+01  0.00000000000E+00 0.  1.
          1    1    1    2  502    0 -0.13631554938E+02  0.15415519365E+02  0.14114047608E+03  0.14263271544E+03  0.00000000000E+00 0. -1.
         -1    1    1    2    0  501  0.13631554938E+02 -0.15415519365E+02  0.47355649007E+02  0.51633468024E+02  0.00000000000E+00 0.  1.
</event>
<event>
 4    1  0.6824761E+001  0.2141369E+02  0.7546771E-02  0.1513440E+00
          2   -1    0    0  502    0  0.00000000000E+00  0.00000000000E+00  0.76833010110E+02  0.76833010110E+02  0.00000000000E+00 0. -1.
         -2   -1    0    0    0  501 -0.00000000000E+00 -0.00000000000E+00 -0.65492954738E+01  0.65492954738E+01  0.00000000000E+00 0.  1.
          1    1    1    2  502    0  0.10111547393E+02 -0.18875979616E+02  0.47561612247E+02  0.52159878803E+02  0.00000000000E+00 0. -1.
         -1    1    1    2    0  501 -0.10111547393E+02  0.18875979616E+02  0.22722102389E+02  0.31222426781E+02  0.00000000000E+00 0.  1.
</event>
<event>
 4    1  0.6824761E+001  0.3128951E+02  0.7546771E-02  0.1408712E+00
          2   -1    0    0  502    0  0.00000000000E+00  0.00000000000E+00  0.82217489582E+02  0.82217489582E+02  0.00000000000E+00 0. -1.
         -2   -1    0    0    0  501 -0.00000000000E+00 -0.00000000000E+00 -0.13130960022E+02  0.13130960022E+02  0.00000000000E+00 0.  1.
          1    1    1    2  502    0 -0.11404144828E+02  0.29137239430E+02  0.49093459131E+02  0.58216844386E+02  0.00000000000E+00 0.  1.
         -1    1    1    2    0  501  0.11404144828E+02 -0.29137239430E+02  0.19993070429E+02  0.37131605218E+02  0.00000000000E+00 0. -1.
</event>
<event>
 4    1  0.6824761E+001  0.2177315E+02  0.7546771E-02  0.1508506E+00
          2   -1    0    0  502    0  0.00000000000E+00  0.00000000000E+00  0.25803345987E+03  0.25803345987E+03  0.00000000000E+00 0. -1.
         -2   -1    0    0    0  501 -0.00000000000E+00 -0.00000000000E+00 -0.21271423884E+01  0.21271423884E+01  0.00000000000E+00 0.  1.
          1    1    1    2  502    0 -0.31246215654E+01  0.21547784379E+02  0.17597475602E+03  0.17731662366E+03  0.00000000000E+00 0. -1.
         -1    1    1    2    0  501  0.31246215654E+01 -0.21547784379E+02  0.79931561465E+02  0.82843978597E+02  0.00000000000E+00 0.  1.
</event>
<event>
 4    1  0.6824761E+001  0.2365218E+02  0.7546771E-02  0.1484467E+00
          2   -1    0    0  502    0  0.00000000000E+00  0.00000000000E+00  0.14498740816E+04  0.14498740816E+04  0.00000000000E+00 0.  1.
         -2   -1    0    0    0  501 -0.00000000000E+00 -0.00000000000E+00 -0.38592989117E+00  0.38592989117E+00  0.00000000000E+00 0. -1.
          1    1    1    2  502    0  0.14194312926E+02  0.18919488030E+02  0.71394076507E+03  0.71433244472E+03  0.00000000000E+00 0. -1.
         -1    1    1    2    0  501 -0.14194312926E+02 -0.18919488030E+02  0.73554738662E+03  0.73592756676E+03  0.00000000000E+00 0.  1.
</event>
<event>
 4    1  0.6824761E+001  0.2313445E+02  0.7546771E-02  0.1490817E+00
          2   -1    0    0  502    0  0.00000000000E+00  0.00000000000E+00  0.12545272419E+04  0.12545272419E+04  0.00000000000E+00 0. -1.
         -2   -1    0    0    0  501 -0.00000000000E+00 -0.00000000000E+00 -0.51512686154E+00  0.51512686154E+00  0.00000000000E+00 0.  1.
          1    1    1    2  502    0  0.16348007014E+02  0.16369033381E+02  0.88712216329E+03  0.88742376303E+03  0.00000000000E+00 0. -1.
         -1    1    1    2    0  501 -0.16348007014E+02 -0.16369033381E+02  0.36688995173E+03  0.36761860571E+03  0.00000000000E+00 0.  1.
</event>
<event>
 4    1  0.6824761E+001  0.4944369E+02  0.7546771E-02  0.1300603E+00
          2   -1    0    0  502    0  0.00000000000E+00  0.00000000000E+00  0.19591688288E+03  0.19591688288E+03  0.00000000000E+00 0. -1.
         -2   -1    0    0    0  501 -0.00000000000E+00 -0.00000000000E+00 -0.12586941308E+02  0.12586941308E+02  0.00000000000E+00 0.  1.
          1    1    1    2  502    0  0.49254214636E+02  0.43244567294E+01  0.81972421791E+02  0.95729601063E+02  0.00000000000E+00 0.  1.
         -1    1    1    2    0  501 -0.49254214636E+02 -0.43244567294E+01  0.10135751978E+03  0.11277422313E+03  0.00000000000E+00 0. -1.
</event>
<event>
 4    1  0.6824761E+001  0.2390512E+02  0.7546771E-02  0.1481435E+00
          2   -1    0    0  502    0  0.00000000000E+00  0.00000000000E+00  0.40875716840E+03  0.40875716840E+03  0.00000000000E+00 0.  1.
         -2   -1    0    0    0  501 -0.00000000000E+00 -0.00000000000E+00 -0.25579423618E+01  0.25579423618E+01  0.00000000000E+00 0. -1.
          1    1    1    2  502    0 -0.23891602587E+02  0.80386372945E+00  0.34158751649E+03  0.34242296402E+03  0.00000000000E+00 0.  1.
         -1    1    1    2    0  501  0.23891602587E+02 -0.80386372945E+00  0.64611709554E+02  0.68892146741E+02  0.00000000000E+00 0. -1.
</event>
<event>
 4    1  0.6824761E+001  0.4500542E+02  0.7546771E-02  0.1321412E+00
          2   -1    0    0  502    0  0.00000000000E+00  0.00000000000E+00  0.15817347009E+04  0.15817347009E+04  0.00000000000E+00 0. -1.
         -2   -1    0    0    0  501 -0.00000000000E+00 -0.00000000000E+00 -0.13113899911E+01  0.13113899911E+01  0.00000000000E+00 0.  1.
          1    1    1    2  502    0  0.30796273577E+02  0.32818857286E+02  0.66882640108E+03  0.67033890133E+03  0.00000000000E+00 0.  1.
         -1    1    1    2    0  501 -0.30796273577E+02 -0.32818857286E+02  0.91159690978E+03  0.91270718951E+03  0.00000000000E+00 0. -1.
</event>
<event>
 4    1  0.6824761E+001  0.2741710E+02  0.7546771E-02  0.1443463E+00
          2   -1    0    0  502    0  0.00000000000E+00  0.00000000000E+00  0.30679867926E+03  0.30679867926E+03  0.00000000000E+00 0.  1.
         -2   -1    0    0    0  501 -0.00000000000E+00 -0.00000000000E+00 -0.31276693969E+01  0.31276693969E+01  0.00000000000E+00 0. -1.
          1    1    1    2  502    0  0.15238773385E+02 -0.22792038073E+02  0.79710680451E+02  0.84294067358E+02  0.00000000000E+00 0. -1.
         -1    1    1    2    0  501 -0.15238773385E+02  0.22792038073E+02  0.22396032941E+03  0.22563228130E+03  0.00000000000E+00 0.  1.
</event>
<event>
 4    1  0.6824761E+001  0.2049122E+02  0.7546771E-02  0.1526654E+00
          2   -1    0    0  502    0  0.00000000000E+00  0.00000000000E+00  0.13045481167E+03  0.13045481167E+03  0.00000000000E+00 0. -1.
         -2   -1    0    0    0  501 -0.00000000000E+00 -0.00000000000E+00 -0.37266934227E+01  0.37266934227E+01  0.00000000000E+00 0.  1.
          1    1    1    2  502    0 -0.14839135994E+01 -0.20437419287E+02  0.38592942283E+02  0.43695598185E+02  0.00000000000E+00 0.  1.
         -1    1    1    2    0  501  0.14839135994E+01  0.20437419287E+02  0.88135175963E+02  0.90485906907E+02  0.00000000000E+00 0. -1.
</event>
<event>
 4    1  0.6824761E+001  0.2883568E+02  0.7546771E-02  0.1429991E+00
          2   -1    0    0  502    0  0.00000000000E+00  0.00000000000E+00  0.24550786465E+03  0.24550786465E+03  0.00000000000E+00 0.  1.
         -2   -1    0    0    0  501 -0.00000000000E+00 -0.00000000000E+00 -0.87539755782E+01  0.87539755782E+01  0.00000000000E+00 0. -1.
          1    1    1    2  502    0 -0.19336228203E+02  0.21391739993E+02  0.21792201107E+03  0.21982151662E+03  0.00000000000E+00 0.  1.
         -1    1    1    2    0  501  0.19336228203E+02 -0.21391739993E+02  0.18831878003E+02  0.34440323607E+02  0.00000000000E+00 0. -1.
</event>
<event>
 4    1  0.6824761E+001  0.2334716E+02  0.7546771E-02  0.1488184E+00
          2   -1    0    0  502    0  0.00000000000E+00  0.00000000000E+00  0.26781076793E+04  0.26781076793E+04  0.00000000000E+00 0. -1.
         -2   -1    0    0    0  501 -0.00000000000E+00 -0.00000000000E+00 -0.21016908310E+00  0.21016908310E+00  0.00000000000E+00 0.  1.
          1    1    1    2  502    0  0.14753026347E+02 -0.18095250740E+02  0.15768644060E+04  0.15770372363E+04  0.00000000000E+00 0.  1.
         -1    1    1    2    0  501 -0.14753026347E+02  0.18095250740E+02  0.11010331042E+04  0.11012806121E+04  0.00000000000E+00 0. -1.
</event>
<event>
 4    1  0.6824761E+001  0.2179938E+02  0.7546771E-02  0.1508151E+00
          2   -1    0    0  502    0  0.00000000000E+00  0.00000000000E+00  0.46942751386E+02  0.46942751386E+02  0.00000000000E+00 0. -1.
         -2   -1    0    0    0  501 -0.00000000000E+00 -0.00000000000E+00 -0.10597934120E+02  0.10597934120E+02  0.00000000000E+00 0.  1.
          1    1    1    2  502    0  0.12322424471E+02  0.17982518582E+02  0.12083525439E+02  0.24924379760E+02  0.00000000000E+00 0. -1.
         -1    1    1    2    0  501 -0.12322424471E+02 -0.17982518582E+02  0.24261291826E+02  0.32616305745E+02  0.00000000000E+00 0.  1.
</event>
<event>
 4    1  0.6824761E+001  0.6018960E+02  0.7546771E-02  0.1259190E+00
          2   -1    0    0  502    0  0.00000000000E+00  0.00000000000E+00  0.54473706058E+03  0.54473706058E+03  0.00000000000E+00 0. -1.
         -2   -1    0    0    0  501 -0.00000000000E+00 -0.00000000000E+00 -0.80514517792E+01  0.80514517792E+01  0.00000000000E+00 0.  1.
          1    1    1    2  502    0 -0.47128933841E+02  0.37438641309E+02  0.38363486421E+03  0.38832782196E+03  0.00000000000E+00 0. -1.
         -1    1    1    2    0  501  0.47128933841E+02 -0.37438641309E+02  0.15305074459E+03  0.16446069040E+03  0.00000000000E+00 0.  1.
</event>
<event>
 4    1  0.6824761E+001  0.4126640E+02  0.7546771E-02  0.1341220E+00
          2   -1    0    0  502    0  0.00000000000E+00  0.00000000000E+00  0.93638929902E+02  0.93638929902E+02  0.00000000000E+00 0. -1.
         -2   -1    0    0    0  501 -0.00000000000E+00 -0.00000000000E+00 -0.37509676650E+02  0.37509676650E+02  0.00000000000E+00 0.  1.
          1    1    1    2  502    0  0.37119549992E+02  0.18029270208E+02  0.75130610969E+02  0.85717701091E+02  0.00000000000E+00 0. -1.
         -1    1    1    2    0  501 -0.37119549992E+02 -0.18029270208E+02 -0.19001357717E+02  0.45430905460E+02  0.00000000000E+00 0.  1.
</event>
<event>
 4    1  0.6824761E+001  0.4185871E+02  0.7546771E-02  0.1337925E+00
          2   -1    0    0  502    0  0.00000000000E+00  0.00000000000E+00  0.42545317542E+02  0.42545317542E+02  0.00000000000E+00 0. -1.
         -2   -1    0    0    0  501 -0.00000000000E+00 -0.00000000000E+00 -0.70168103236E+02  0.70168103236E+02  0.00000000000E+00 0.  1.
          1    1    1    2  502    0  0.13254336738E+02  0.39704839107E+02  0.22409721294E+02  0.47479967348E+02  0.00000000000E+00 0. -1.
         -1    1    1    2    0  501 -0.13254336738E+02 -0.39704839107E+02 -0.50032506988E+02  0.65233453430E+02  0.00000000000E+00 0.  1.
</event>
<event>
 4    1  0.6824761E+001  0.2140049E+02  0.7546771E-02  0.1513623E+00
          2   -1    0    0  502    0  0.00000000000E+00  0.00000000000E+00  0.68470591927E+02  0.68470591927E+02  0.00000000000E+00 0. -1.
         -2   -1    0    0    0  501 -0.00000000000E+00 -0.00000000000E+00 -0.22973633924E+02  0.22973633924E+02  0.00000000000E+00 0.  1.
          1    1    1    2  502    0 -0.62907237438E+01 -0.20455015203E+02 -0.15746503960E+02  0.26569404192E+02  0.00000000000E+00 0.  1.
         -1    1    1    2    0  501  0.62907237438E+01  0.20455015203E+02  0.61243461962E+02  0.64874821659E+02  0.00000000000E+00 0. -1.
</event>
<event>
 4    1  0.6824761E+001  0.2142487E+02  0.7546771E-02  0.1513284E+00
          2   -1    0    0  502    0  0.00000000000E+00  0.00000000000E+00  0.47238481957E+03  0.47238481957E+03  0.00000000000E+00 0.  1.
         -2   -1    0    0    0  501 -0.00000000000E+00 -0.00000000000E+00 -0.10192167433E+01  0.10192167433E+01  0.00000000000E+00 0. -1.
          1    1    1    2  502    0  0.19074109649E+02  0.97572200735E+01  0.28678129499E+03  0.28758048640E+03  0.00000000000E+00 0. -1.
         -1    1    1    2    0  501 -0.19074109649E+02 -0.97572200735E+01  0.18458430783E+03  0.18582354991E+03  0.00000000000E+00 0.  1.
</event>
<event>
 4    1  0.6824761E+001  0.2650160E+02  0.7546771E-02  0.1452680E+00
          2   -1    0    0  502    0  0.00000000000E+00  0.00000000000E+00  0.44922044552E+01  0.44922044552E+01  0.00000000000E+00 0.  1.
         -2   -1    0    0    0  501 -0.00000000000E+00 -0.00000000000E+00 -0.18613650863E+03  0.18613650863E+03  0.00000000000E+00 0. -1.
          1    1    1    2  502    0 -0.26302431473E+02  0.32429770317E+01 -0.12895392593E+03  0.13164896434E+03  0.00000000000E+00 0.  1.
         -1    1    1    2    0  501  0.26302431473E+02 -0.32429770317E+01 -0.52690378247E+02  0.58979748738E+02  0.00000000000E+00 0. -1.
</event>
<event>
 4    1  0.6824761E+001  0.3262661E+02  0.7546771E-02  0.1398063E+00
          2   -1    0    0  502    0  0.00000000000E+00  0.00000000000E+00  0.16068609572E+02  0.16068609572E+02  0.00000000000E+00 0. -1.
         -2   -1    0    0    0  501 -0.00000000000E+00 -0.00000000000E+00 -0.67599040542E+02  0.67599040542E+02  0.00000000000E+00 0.  1.
          1    1    1    2  502    0 -0.93557565224E+01  0.31256448348E+02 -0.31681737824E+02  0.45477777595E+02  0.00000000000E+00 0.  1.
         -1    1    1    2    0  501  0.93557565224E+01 -0.31256448348E+02 -0.19848693146E+02  0.38189872519E+02  0.00000000000E+00 0. -1.
</event>
<event>
 4    1  0.6824761E+001  0.2753287E+02  0.7546771E-02  0.1442328E+00
          2   -1    0    0  502    0  0.00000000000E+00  0.00000000000E+00  0.69993848784E+01  0.69993848784E+01  0.00000000000E+00 0.  1.
         -2   -1    0    0    0  501 -0.00000000000E+00 -0.00000000000E+00 -0.17644749930E+03  0.17644749930E+03  0.00000000000E+00 0. -1.
          1    1    1    2  502    0  0.13989659473E+02 -0.23713879598E+02 -0.14172552584E+03  0.14437514790E+03  0.00000000000E+00 0. -1.
         -1    1    1    2    0  501 -0.13989659473E+02  0.23713879598E+02 -0.27722588580E+02  0.39071736272E+02  0.00000000000E+00 0.  1.
</event>
<event>
 4    1  0.6824761E+001  0.2110415E+02  0.7546771E-02  0.1517783E+00
          2   -1    0    0  502    0  0.00000000000E+00  0.00000000000E+00  0.15746446603E+04  0.15746446603E+04  0.00000000000E+00 0. -1.
         -2   -1    0    0    0  501 -0.00000000000E+00 -0.00000000000E+00 -0.36679413868E+00  0.36679413868E+00  0.00000000000E+00 0.  1.
          1    1    1    2  502    0 -0.17542172460E+02 -0.11732749126E+02  0.11638797597E+04  0.11640710804E+04  0.00000000000E+00 0. -1.
         -1    1    1    2    0  501  0.17542172460E+02  0.11732749126E+02  0.41039810654E+03  0.41094037410E+03  0.00000000000E+00 0.  1.
</event>
<event>
 4    1  0.6824761E+001  0.2696902E+02  0.7546771E-02  0.1447920E+00
          2   -1    0    0  502    0  0.00000000000E+00  0.00000000000E+00  0.30675189434E+01  0.30675189434E+01  0.00000000000E+00 0.  1.
         -2   -1    0    0    0  501 -0.00000000000E+00 -0.00000000000E+00 -0.30590244713E+03  0.30590244713E+03  0.00000000000E+00 0. -1.
          1    1    1    2  502    0 -0.12265693890E+02 -0.24018337267E+02 -0.22467919174E+03  0.22629199494E+03  0.00000000000E+00 0. -1.
         -1    1    1    2    0  501  0.12265693890E+02  0.24018337267E+02 -0.78155736446E+02  0.82677971135E+02  0.00000000000E+00 0.  1.
</event>
<event>
 4    1  0.6824761E+001  0.2475551E+02  0.7546771E-02  0.1471557E+00
          2   -1    0    0  502    0  0.00000000000E+00  0.00000000000E+00  0.50639891566E+02  0.50639891566E+02  0.00000000000E+00 0.  1.
         -2   -1    0    0    0  501 -0.00000000000E+00 -0.00000000000E+00 -0.12287097002E+02  0.12287097002E+02  0.00000000000E+00 0. -1.
          1    1    1    2  502    0 -0.23750217530E+02 -0.69830041859E+01  0.23039937919E+02  0.33818248321E+02  0.00000000000E+00 0. -1.
         -1    1    1    2    0  501  0.23750217530E+02  0.69830041859E+01  0.15312856645E+02  0.29108740248E+02  0.00000000000E+00 0.  1.
</event>
<event>
 4    1  0.6824761E+001  0.2289580E+02  0.7546771E-02  0.1493811E+00
          2   -1    0    0  502    0  0.00000000000E+00  0.00000000000E+00  0.51054651320E+01  0.51054651320E+01  0.00000000000E+00 0. -1.
         -2   -1    0    0    0  501 -0.00000000000E+00 -0.00000000000E+00 -0.30525699635E+03  0.30525699635E+03  0.00000000000E+00 0.  1.
          1    1    1    2  502    0 -0.16138481915E+02 -0.16240902012E+02 -0.27649230314E+03  0.27743866203E+03  0.00000000000E+00 0.  1.
         -1    1    1    2    0  501  0.16138481915E+02  0.16240902012E+02 -0.23659228078E+02  0.32923799446E+02  0.00000000000E+00 0. -1.
</event>
<event>
 4    1  0.6824761E+001  0.3154119E+02  0.7546771E-02  0.1406660E+00
          2   -1    0    0  502    0  0.00000000000E+00  0.00000000000E+00  0.44208929847E+03  0.44208929847E+03  0.00000000000E+00 0. -1.
         -2   -1    0    0    0  501 -0.00000000000E+00 -0.00000000000E+00 -0.93585101688E+01  0.93585101688E+01  0.00000000000E+00 0.  1.
          1    1    1    2  502    0 -0.19225098296E+02 -0.25004842972E+02  0.19643170362E+02  0.37157781398E+02  0.00000000000E+00 0.  1.
         -1    1    1    2    0  501  0.19225098296E+02  0.25004842972E+02  0.41308761794E+03  0.41429002725E+03  0.00000000000E+00 0. -1.
</event>
<event>
 4    1  0.6824761E+001  0.2418303E+02  0.7546771E-02  0.1478154E+00
          2   -1    0    0  502    0  0.00000000000E+00  0.00000000000E+00  0.33719160020E+03  0.33719160020E+03  0.00000000000E+00 0.  1.
         -2   -1    0    0    0  501 -0.00000000000E+00 -0.00000000000E+00 -0.21639212118E+01  0.21639212118E+01  0.00000000000E+00 0. -1.
          1    1    1    2  502    0  0.19611822186E+02  0.14149034552E+02  0.24311109869E+03  0.24431091881E+03  0.00000000000E+00 0.  1.
         -1    1    1    2    0  501 -0.19611822186E+02 -0.14149034552E+02  0.91916580300E+02  0.95044602594E+02  0.00000000000E+00 0. -1.
</event>
<event>
 4    1  0.6824761E+001  0.8417875E+02  0.7546771E-02  0.1194465E+00
          2   -1    0    0  502    0  0.00000000000E+00  0.00000000000E+00  0.15997964488E+04  0.15997964488E+04  0.00000000000E+00 0.  1.
         -2   -1    0    0    0  501 -0.00000000000E+00 -0.00000000000E+00 -0.44893696606E+01  0.44893696606E+01  0.00000000000E+00 0. -1.
          1    1    1    2  502    0  0.62840623649E+02 -0.56009978449E+02  0.70490684375E+03  0.70991529075E+03  0.00000000000E+00 0.  1.
         -1    1    1    2    0  501 -0.62840623649E+02  0.56009978449E+02  0.89040023534E+03  0.89437052767E+03  0.00000000000E+00 0. -1.
</event>
<event>
 4    1  0.6824761E+001  0.3674488E+02  0.7546771E-02  0.1368694E+00
          2   -1    0    0  502    0  0.00000000000E+00  0.00000000000E+00  0.27085622695E+02  0.27085622695E+02  0.00000000000E+00 0.  1.
         -2   -1    0    0    0  501 -0.00000000000E+00 -0.00000000000E+00 -0.68845296312E+02  0.68845296312E+02  0.00000000000E+00 0. -1.
          1    1    1    2  502    0  0.34287915485E+02  0.13210796883E+02  0.43159549046E+01  0.36997483284E+02  0.00000000000E+00 0. -1.
         -1    1    1    2    0  501 -0.34287915485E+02 -0.13210796883E+02 -0.46075628521E+02  0.58933435724E+02  0.00000000000E+00 0.  1.
</event>
<event>
 4    1  0.6824761E+001  0.2249210E+02  0.7546771E-02  0.1498976E+00
          2   -1    0    0  502    0  0.00000000000E+00  0.00000000000E+00  0.59937844744E+01  0.59937844744E+01  0.00000000000E+00 0.  1.
         -2   -1    0    0    0  501 -0.00000000000E+00 -0.00000000000E+00 -0.84430948890E+02  0.84430948890E+02  0.00000000000E+00 0. -1.
          1    1    1    2  502    0 -0.22200068182E+02  0.36127131429E+01 -0.40037903961E+02  0.45923071295E+02  0.00000000000E+00 0.  1.
         -1    1    1    2    0  501  0.22200068182E+02 -0.36127131429E+01 -0.38399260454E+02  0.44501662069E+02  0.00000000000E+00 0. -1.
</event>
<event>
 4    1  0.6824761E+001  0.3270879E+02  0.7546771E-02  0.1397429E+00
          2   -1    0    0  502    0  0.00000000000E+00  0.00000000000E+00  0.38584456120E+02  0.38584456120E+02  0.00000000000E+00 0.  1.
         -2   -1    0    0    0  501 -0.00000000000E+00 -0.00000000000E+00 -0.44173969699E+02  0.44173969699E+02  0.00000000000E+00 0. -1.
          1    1    1    2  502    0  0.29856412837E+02 -0.13358865680E+02 -0.28042961679E+02  0.43084479566E+02  0.00000000000E+00 0. -1.
         -1    1    1    2    0  501 -0.29856412837E+02  0.13358865680E+02  0.22453448100E+02  0.39673946253E+02  0.00000000000E+00 0.  1.
</event>
<event>
 4    1  0.6824761E+001  0.2003840E+02  0.7546771E-02  0.1533450E+00
          2   -1    0    0  502    0  0.00000000000E+00  0.00000000000E+00  0.95201969908E+02  0.95201969908E+02  0.00000000000E+00 0.  1.
         -2   -1    0    0    0  501 -0.00000000000E+00 -0.00000000000E+00 -0.55694759828E+01  0.55694759828E+01  0.00000000000E+00 0. -1.
          1    1    1    2  502    0  0.10527131906E+02 -0.17050418560E+02  0.69638777687E+02  0.72464450850E+02  0.00000000000E+00 0. -1.
         -1    1    1    2    0  501 -0.10527131906E+02  0.17050418560E+02  0.19993716238E+02  0.28306995041E+02  0.00000000000E+00 0.  1.
</event>
<event>
 4    1  0.6824761E+001  0.2694821E+02  0.7546771E-02  0.1448129E+00
          2   -1    0    0  502    0  0.00000000000E+00  0.00000000000E+00  0.42013906382E+03  0.42013906382E+03  0.00000000000E+00 0.  1.
         -2   -1    0    0    0  501 -0.00000000000E+00 -0.00000000000E+00 -0.18263556698E+01  0.18263556698E+01  0.00000000000E+00 0. -1.
          1    1    1    2  502    0 -0.16466950269E+02  0.21331800918E+02  0.25799564102E+03  0.25939922315E+03  0.00000000000E+00 0.  1.
         -1    1    1    2    0  501  0.16466950269E+02 -0.21331800918E+02  0.16031706712E+03  0.16256619634E+03  0.00000000000E+00 0. -1.
</event>
<event>
 4    1  0.6824761E+001  0.2231622E+02  0.7546771E-02  0.1501268E+00
          2   -1    0    0  502    0  0.00000000000E+00  0.00000000000E+00  0.10219227461E+02  0.10219227461E+02  0.00000000000E+00 0.  1.
         -2   -1    0    0    0  501 -0.00000000000E+00 -0.00000000000E+00 -0.50244890225E+02  0.50244890225E+02  0.00000000000E+00 0. -1.
          1    1    1    2  502    0  0.19847647958E+02  0.10202191942E+02 -0.25257023065E+02  0.33703576428E+02  0.00000000000E+00 0.  1.
         -1    1    1    2    0  501 -0.19847647958E+02 -0.10202191942E+02 -0.14768639699E+02  0.26760541258E+02  0.00000000000E+00 0. -1.
</event>
<event>
 4    1  0.6824761E+001  0.2442926E+02  0.7546771E-02  0.1475290E+00
          2   -1    0    0  502    0  0.00000000000E+00  0.00000000000E+00  0.57497428861E+03  0.57497428861E+03  0.00000000000E+00 0. -1.
         -2   -1    0    0    0  501 -0.00000000000E+00 -0.00000000000E+00 -0.10428699223E+01  0.10428699223E+01  0.00000000000E+00 0.  1.
          1    1    1    2  502    0  0.19292333580E+02  0.14986488720E+02  0.26716422826E+03  0.26827879872E+03  0.00000000000E+00 0.  1.
         -1    1    1    2    0  501 -0.19292333580E+02 -0.14986488720E+02  0.30676719043E+03  0.30773835982E+03  0.00000000000E+00 0. -1.
</event>
<event>
 4    1  0.6824761E+001  0.2284997E+02  0.7546771E-02  0.1494391E+00
          2   -1    0    0  502    0  0.00000000000E+00  0.00000000000E+00  0.39299561384E+03  0.39299561384E+03  0.00000000000E+00 0.  1.
         -2   -1    0    0    0  501 -0.00000000000E+00 -0.00000000000E+00 -0.18480044945E+01  0.18480044945E+01  0.00000000000E+00 0. -1.
          1    1    1    2  502    0 -0.21536672212E+02 -0.76349919332E+01  0.90906776552E+02  0.93734536724E+02  0.00000000000E+00 0. -1.
         -1    1    1    2    0  501  0.21536672212E+02  0.76349919332E+01  0.30024083279E+03  0.30110908161E+03  0.00000000000E+00 0.  1.
</event>
<event>
 4    1  0.6824761E+001  0.2743349E+02  0.7546771E-02  0.1443302E+00
          2   -1    0    0  502    0  0.00000000000E+00  0.00000000000E+00  0.28733216022E+03  0.28733216022E+03  0.00000000000E+00 0.  1.
         -2   -1    0    0    0  501 -0.00000000000E+00 -0.00000000000E+00 -0.28985521353E+01  0.28985521353E+01  0.00000000000E+00 0. -1.
          1    1    1    2  502    0 -0.53864788197E+01  0.26899481887E+02  0.18726276242E+03  0.18926156099E+03  0.00000000000E+00 0.  1.
         -1    1    1    2    0  501  0.53864788197E+01 -0.26899481887E+02  0.97170845668E+02  0.10096915137E+03  0.00000000000E+00 0. -1.
</event>
<event>
 4    1  0.6824761E+001  0.2884599E+02  0.7546771E-02  0.1429897E+00
          2   -1    0    0  502    0  0.00000000000E+00  0.00000000000E+00  0.28269759792E+02  0.28269759792E+02  0.00000000000E+00 0. -1.
         -2   -1    0    0    0  501 -0.00000000000E+00 -0.00000000000E+00 -0.31026320242E+02  0.31026320242E+02  0.00000000000E+00 0.  1.
          1    1    1    2  502    0 -0.27241353488E+02  0.94868108595E+01  0.53383555616E+01  0.29335796568E+02  0.00000000000E+00 0. -1.
         -1    1    1    2    0  501  0.27241353488E+02 -0.94868108595E+01 -0.80949160108E+01  0.29960283466E+02  0.00000000000E+00 0.  1.
</event>
<event>
 4    1  0.6824761E+001  0.2062980E+02  0.7546771E-02  0.1524617E+00
          2   -1    0    0  502    0  0.00000000000E+00  0.00000000000E+00  0.24460888277E+03  0.24460888277E+03  0.00000000000E+00 0. -1.
         -2   -1    0    0    0  501 -0.00000000000E+00 -0.00000000000E+00 -0.20410346243E+01  0.20410346243E+01  0.00000000000E+00 0.  1.
          1    1    1    2  502    0 -0.58466198211E+01  0.19783974520E+02  0.73911570915E+02  0.76736620503E+02  0.00000000000E+00 0.  1.
         -1    1    1    2    0  501  0.58466198211E+01 -0.19783974520E+02  0.16865627723E+03  0.16991329689E+03  0.00000000000E+00 0. -1.
</event>
<event>
 4    1  0.6824761E+001  0.2356872E+02  0.7546771E-02  0.1485478E+00
          2   -1    0    0  502    0  0.00000000000E+00  0.00000000000E+00  0.22675239236E+03  0.22675239236E+03  0.00000000000E+00 0.  1.
         -2   -1    0    0    0  501 -0.00000000000E+00 -0.00000000000E+00 -0.48115117539E+01  0.48115117539E+01  0.00000000000E+00 0. -1.
          1    1    1    2  502    0 -0.18914791526E+01  0.23492698235E+02  0.19208876820E+03  0.19352927280E+03  0.00000000000E+00 0.  1.
         -1    1    1    2    0  501  0.18914791526E+01 -0.23492698235E+02  0.29852112410E+02  0.38034631313E+02  0.00000000000E+00 0. -1.
</event>
<event>
 4    1  0.6824761E+001  0.2408074E+02  0.7546771E-02  0.1479356E+00
          2   -1    0    0  502    0  0.00000000000E+00  0.00000000000E+00  0.78455309393E+01  0.78455309393E+01  0.00000000000E+00 0. -1.
         -2   -1    0    0    0  501 -0.00000000000E+00 -0.00000000000E+00 -0.15736339837E+03  0.15736339837E+03  0.00000000000E+00 0.  1.
          1    1    1    2  502    0  0.23202542510E+02 -0.64439234085E+01 -0.13491333255E+03  0.13704557428E+03  0.00000000000E+00 0.  1.
         -1    1    1    2    0  501 -0.23202542510E+02  0.64439234085E+01 -0.14604534878E+02  0.28163355035E+02  0.00000000000E+00 0. -1.
</event>
<event>
 4    1  0.6824761E+001  0.2932439E+02  0.7546771E-02  0.1425560E+00
          2   -1    0    0  502    0  0.00000000000E+00  0.00000000000E+00  0.12440488298E+04  0.12440488298E+04  0.00000000000E+00 0.  1.
         -2   -1    0    0    0  501 -0.00000000000E+00 -0.00000000000E+00 -0.15458862231E+01  0.15458862231E+01  0.00000000000E+00 0. -1.
          1    1    1    2  502    0 -0.26717638823E+02 -0.12086662413E+02  0.10843299461E+04  0.10847263948E+04  0.00000000000E+00 0.  1.
         -1    1    1    2    0  501  0.26717638823E+02  0.12086662413E+02  0.15817299748E+03  0.16086832120E+03  0.00000000000E+00 0. -1.
</event>
<event>
 4    1  0.6824761E+001  0.5493513E+02  0.7546771E-02  0.1278085E+00
          2   -1    0    0  502    0  0.00000000000E+00  0.00000000000E+00  0.19486899021E+03  0.19486899021E+03  0.00000000000E+00 0.  1.
         -2   -1    0    0    0  501 -0.00000000000E+00 -0.00000000000E+00 -0.19284446536E+02  0.19284446536E+02  0.00000000000E+00 0. -1.
          1    1    1    2  502    0  0.40224716353E+02  0.37414445079E+02  0.13531015844E+03  0.14603666486E+03  0.00000000000E+00 0.  1.
         -1    1    1    2    0  501 -0.40224716353E+02 -0.37414445079E+02  0.40274385235E+02  0.68116771887E+02  0.00000000000E+00 0. -1.
</event>
<event>
 4    1  0.6824761E+001  0.5248828E+02  0.7546771E-02  0.1287730E+00
          2   -1    0    0  502    0  0.00000000000E+00  0.00000000000E+00  0.85424537552E+03  0.85424537552E+03  0.00000000000E+00 0.  1.
         -2   -1    0    0    0  501 -0.00000000000E+00 -0.00000000000E+00 -0.47985610648E+01  0.47985610648E+01  0.00000000000E+00 0. -1.
          1    1    1    2  502    0  0.11641967939E+02 -0.51180896264E+02  0.67068031926E+03  0.67273108312E+03  0.00000000000E+00 0.  1.
         -1    1    1    2    0  501 -0.11641967939E+02  0.51180896264E+02  0.17876649519E+03  0.18631285346E+03  0.00000000000E+00 0. -1.
</event>
<event>
 4    1  0.6824761E+001  0.2153803E+02  0.7546771E-02  0.1511720E+00
          2   -1    0    0  502    0  0.00000000000E+00  0.00000000000E+00  0.57067191373E+03  0.57067191373E+03  0.00000000000E+00 0. -1.
         -2   -1    0    0    0  501 -0.00000000000E+00 -0.00000000000E+00 -0.15033388612E+01  0.15033388612E+01  0.00000000000E+00 0.  1.
          1    1    1    2  502    0  0.21507207596E+02  0.11518255297E+01  0.47846747218E+03  0.47895198988E+03  0.00000000000E+00 0. -1.
         -1    1    1    2    0  501 -0.21507207596E+02 -0.11518255297E+01  0.90701102693E+02  0.93223262710E+02  0.00000000000E+00 0.  1.
</event>
<event>
 4    1  0.6824761E+001  0.2362455E+02  0.7546771E-02  0.1484801E+00
          2   -1    0    0  502    0  0.00000000000E+00  0.00000000000E+00  0.98040883772E+03  0.98040883772E+03  0.00000000000E+00 0. -1.
         -2   -1    0    0    0  501 -0.00000000000E+00 -0.00000000000E+00 -0.60001421008E+00  0.60001421008E+00  0.00000000000E+00 0.  1.
          1    1    1    2  502    0  0.23607370379E+02 -0.90089236353E+00  0.60093124476E+03  0.60139544434E+03  0.00000000000E+00 0. -1.
         -1    1    1    2    0  501 -0.23607370379E+02  0.90089236353E+00  0.37887757876E+03  0.37961340760E+03  0.00000000000E+00 0.  1.
</event>
<event>
 4    1  0.6824761E+001  0.2113217E+02  0.7546771E-02  0.1517386E+00
          2   -1    0    0  502    0  0.00000000000E+00  0.00000000000E+00  0.16096003070E+01  0.16096003070E+01  0.00000000000E+00 0. -1.
         -2   -1    0    0    0  501 -0.00000000000E+00 -0.00000000000E+00 -0.54897043777E+03  0.54897043777E+03  0.00000000000E+00 0.  1.
          1    1    1    2  502    0 -0.17192757454E+02  0.12287290696E+02 -0.80071752407E+02  0.82813368214E+02  0.00000000000E+00 0. -1.
         -1    1    1    2    0  501  0.17192757454E+02 -0.12287290696E+02 -0.46728908506E+03  0.46776666987E+03  0.00000000000E+00 0.  1.
</event>
<event>
 4    1  0.6824761E+001  0.2249500E+02  0.7546771E-02  0.1498939E+00
          2   -1    0    0  502    0  0.00000000000E+00  0.00000000000E+00  0.22532843200E+01  0.22532843200E+01  0.00000000000E+00 0. -1.
         -2   -1    0    0    0  501 -0.00000000000E+00 -0.00000000000E+00 -0.26020366494E+03  0.26020366494E+03  0.00000000000E+00 0.  1.
          1    1    1    2  502    0 -0.28524201971E+01 -0.22313422420E+02 -0.80414155404E+02  0.83501266520E+02  0.00000000000E+00 0. -1.
         -1    1    1    2    0  501  0.28524201971E+01  0.22313422420E+02 -0.17753622522E+03  0.17895568274E+03  0.00000000000E+00 0.  1.
</event>
<event>
 4    1  0.6824761E+001  0.4750046E+02  0.7546771E-02  0.1309389E+00
          2   -1    0    0  502    0  0.00000000000E+00  0.00000000000E+00  0.14566077232E+04  0.14566077232E+04  0.00000000000E+00 0.  1.
         -2   -1    0    0    0  501 -0.00000000000E+00 -0.00000000000E+00 -0.20049181256E+01  0.20049181256E+01  0.00000000000E+00 0. -1.
          1    1    1    2  502    0 -0.18971990159E+00 -0.47500085663E+02  0.37952331215E+03  0.38248429850E+03  0.00000000000E+00 0. -1.
         -1    1    1    2    0  501  0.18971990159E+00  0.47500085663E+02  0.10750794929E+04  0.10761283428E+04  0.00000000000E+00 0.  1.
</event>
<event>
 4    1  0.6824761E+001  0.2780334E+02  0.7546771E-02  0.1439701E+00
          2   -1    0    0  502    0  0.00000000000E+00  0.00000000000E+00  0.10761423480E+04  0.10761423480E+04  0.00000000000E+00 0.  1.
         -2   -1    0    0    0  501 -0.00000000000E+00 -0.00000000000E+00 -0.72001841465E+00  0.72001841465E+00  0.00000000000E+00 0. -1.
          1    1    1    2  502    0  0.10344146423E+02 -0.25807447054E+02  0.51164030037E+03  0.51239518212E+03  0.00000000000E+00 0.  1.
         -1    1    1    2    0  501 -0.10344146423E+02  0.25807447054E+02  0.56378202925E+03  0.56446718433E+03  0.00000000000E+00 0. -1.
</event>
<event>
 4    1  0.6824761E+001  0.3119563E+02  0.7546771E-02  0.1409483E+00
          2   -1    0    0  502    0  0.00000000000E+00  0.00000000000E+00  0.89281310093E+02  0.89281310093E+02  0.00000000000E+00 0. -1.
         -2   -1    0    0    0  501 -0.00000000000E+00 -0.00000000000E+00 -0.24281660208E+02  0.24281660208E+02  0.00000000000E+00 0.  1.
          1    1    1    2  502    0  0.20181431138E+02 -0.23788167792E+02 -0.96525851402E+01  0.32654853997E+02  0.00000000000E+00 0.  1.
         -1    1    1    2    0  501 -0.20181431138E+02  0.23788167792E+02  0.74652235024E+02  0.80908116304E+02  0.00000000000E+00 0. -1.
</event>
<event>
 4    1  0.6824761E+001  0.2749580E+02  0.7546771E-02  0.1442690E+00
          2   -1    0    0  502    0  0.00000000000E+00  0.00000000000E+00  0.16495537261E+04  0.16495537261E+04  0.00000000000E+00 0.  1.
         -2   -1    0    0    0  501 -0.00000000000E+00 -0.00000000000E+00 -0.46071701269E+00  0.46071701269E+00  0.00000000000E+00 0. -1.
          1    1    1    2  502    0  0.14726534692E+02  0.23219568631E+02  0.76500630413E+03  0.76550027077E+03  0.00000000000E+00 0.  1.
         -1    1    1    2    0  501 -0.14726534692E+02 -0.23219568631E+02  0.88408670496E+03  0.88451417235E+03  0.00000000000E+00 0. -1.
</event>
<event>
 4    1  0.6824761E+001  0.2092866E+02  0.7546771E-02  0.1520286E+00
          2   -1    0    0  502    0  0.00000000000E+00  0.00000000000E+00  0.10036688627E+04  0.10036688627E+04  0.00000000000E+00 0. -1.
         -2   -1    0    0    0  501 -0.00000000000E+00 -0.00000000000E+00 -0.48397174971E+00  0.48397174971E+00  0.00000000000E+00 0.  1.
          1    1    1    2  502    0 -0.16608631770E+02  0.12734289337E+02  0.34419436303E+03  0.34483005715E+03  0.00000000000E+00 0.  1.
         -1    1    1    2    0  501  0.16608631770E+02 -0.12734289337E+02  0.65899052791E+03  0.65932277728E+03  0.00000000000E+00 0. -1.
</event>
<event>
 4    1  0.6824761E+001  0.6246427E+02  0.7546771E-02  0.1251682E+00
          2   -1    0    0  502    0  0.00000000000E+00  0.00000000000E+00  0.16208723938E+03  0.16208723938E+03  0.00000000000E+00 0. -1.
         -2   -1    0    0    0  501 -0.00000000000E+00 -0.00000000000E+00 -0.29120287491E+02  0.29120287491E+02  0.00000000000E+00 0.  1.
          1    1    1    2  502    0 -0.29636470881E+02 -0.54986040713E+02  0.26677927502E+02  0.67922727384E+02  0.00000000000E+00 0.  1.
         -1    1    1    2    0  501  0.29636470881E+02  0.54986040713E+02  0.10628902439E+03  0.12328479949E+03  0.00000000000E+00 0. -1.
</event>
<event>
 4    1  0.6824761E+001  0.2323543E+02  0.7546771E-02  0.1489563E+00
          2   -1    0    0  502    0  0.00000000000E+00  0.00000000000E+00  0.19646945145E+04  0.19646945145E+04  0.00000000000E+00 0.  1.
         -2   -1    0    0    0  501 -0.00000000000E+00 -0.00000000000E+00 -0.27775069342E+00  0.27775069342E+00  0.00000000000E+00 0. -1.
          1    1    1    2  502    0  0.23231902432E+02 -0.40464297516E+00  0.10835874441E+04  0.10838365348E+04  0.00000000000E+00 0.  1.
         -1    1    1    2    0  501 -0.23231902432E+02  0.40464297516E+00  0.88082931969E+03  0.88113573044E+03  0.00000000000E+00 0. -1.
</event>
<event>
 4    1  0.6824761E+001  0.4598718E+02  0.7546771E-02  0.1316576E+00
          2   -1    0    0  502    0  0.00000000000E+00  0.00000000000E+00  0.89913008503E+01  0.89913008503E+01  0.00000000000E+00 0.  1.
         -2   -1    0    0    0  501 -0.00000000000E+00 -0.00000000000E+00 -0.25720375067E+03  0.25720375067E+03  0.00000000000E+00 0. -1.
          1    1    1    2  502    0  0.24572418791E+02 -0.38871798912E+02 -0.16302925379E+03  0.16939113940E+03  0.00000000000E+00 0. -1.
         -1    1    1    2    0  501 -0.24572418791E+02  0.38871798912E+02 -0.85183196029E+02  0.96803912119E+02  0.00000000000E+00 0.  1.
</event>
<event>
 4    1  0.6824761E+001  0.2241702E+02  0.7546771E-02  0.1499951E+00
          2   -1    0    0  502    0  0.00000000000E+00  0.00000000000E+00  0.38524711408E+01  0.38524711408E+01  0.00000000000E+00 0.  1.
         -2   -1    0    0    0  501 -0.00000000000E+00 -0.00000000000E+00 -0.15501085798E+03  0.15501085798E+03  0.00000000000E+00 0. -1.
          1    1    1    2  502    0 -0.77631335252E+01  0.21029900732E+02 -0.10720251989E+03  0.10952124560E+03  0.00000000000E+00 0.  1.
         -1    1    1    2    0  501  0.77631335252E+01 -0.21029900732E+02 -0.43955866947E+02  0.49342083519E+02  0.00000000000E+00 0. -1.
</event>
<event>
 4    1  0.6824761E+001  0.2584737E+02  0.7546771E-02  0.1459543E+00
          2   -1    0    0  502    0  0.00000000000E+00  0.00000000000E+00  0.22128863924E+04  0.22128863924E+04  0.00000000000E+00 0.  1.
         -2   -1    0    0    0  501 -0.00000000000E+00 -0.00000000000E+00 -0.32343573155E+00  0.32343573155E+00  0.00000000000E+00 0. -1.
          1    1    1    2  502    0  0.38957006896E+01  0.25552100217E+02  0.82078160823E+03  0.82118848915E+03  0.00000000000E+00 0.  1.
         -1    1    1    2    0  501 -0.38957006896E+01 -0.25552100217E+02  0.13917813484E+04  0.13920213390E+04  0.00000000000E+00 0. -1.
</event>
<event>
 4    1  0.6824761E+001  0.2089067E+02  0.7546771E-02  0.1520831E+00
          2   -1    0    0  502    0  0.00000000000E+00  0.00000000000E+00  0.13098286760E+04  0.13098286760E+04  0.00000000000E+00 0. -1.
         -2   -1    0    0    0  501 -0.00000000000E+00 -0.00000000000E+00 -0.46722025764E+00  0.46722025764E+00  0.00000000000E+00 0.  1.
          1    1    1    2  502    0  0.16730743415E+02  0.12510094513E+02  0.10055795651E+04  0.10057965411E+04  0.00000000000E+00 0. -1.
         -1    1    1    2    0  501 -0.16730743415E+02 -0.12510094513E+02  0.30378189056E+03  0.30449935512E+03  0.00000000000E+00 0.  1.
</event>
<event>
 4    1  0.6824761E+001  0.3595638E+02  0.7546771E-02  0.1373961E+00
          2   -1    0    0  502    0  0.00000000000E+00  0.00000000000E+00  0.76799205836E+03  0.76799205836E+03  0.00000000000E+00 0. -1.
         -2   -1    0    0    0  501 -0.00000000000E+00 -0.00000000000E+00 -0.19050193249E+01  0.19050193249E+01  0.00000000000E+00 0.  1.
          1    1    1    2  502    0  0.55117985056E+01 -0.35531409047E+02  0.25175483504E+03  0.25430957103E+03  0.00000000000E+00 0. -1.
         -1    1    1    2    0  501 -0.55117985056E+01  0.35531409047E+02  0.51433220400E+03  0.51558750666E+03  0.00000000000E+00 0.  1.
</event>
<event>
 4    1  0.6824761E+001  0.2104485E+02  0.7546771E-02  0.1518625E+00
          2   -1    0    0  502    0  0.00000000000E+00  0.00000000000E+00  0.35851173285E+01  0.35851173285E+01  0.00000000000E+00 0.  1.
         -2   -1    0    0    0  501 -0.00000000000E+00 -0.00000000000E+00 -0.27083556644E+03  0.27083556644E+03  0.00000000000E+00 0. -1.
          1    1    1    2  502    0 -0.15368787487E+02  0.14376577797E+02 -0.23481507830E+03  0.23575624407E+03  0.00000000000E+00 0. -1.
         -1    1    1    2    0  501  0.15368787487E+02 -0.14376577797E+02 -0.32435370806E+02  0.38664439700E+02  0.00000000000E+00 0.  1.
</event>
<event>
 4    1  0.6824761E+001  0.2418647E+02  0.7546771E-02  0.1478114E+00
          2   -1    0    0  502    0  0.00000000000E+00  0.00000000000E+00  0.52187839376E+03  0.52187839376E+03  0.00000000000E+00 0.  1.
         -2   -1    0    0    0  501 -0.00000000000E+00 -0.00000000000E+00 -0.13408851818E+01  0.13408851818E+01  0.00000000000E+00 0. -1.
          1    1    1    2  502    0  0.21173999723E+02 -0.11689615243E+02  0.15431113440E+03  0.15619510738E+03  0.00000000000E+00 0. -1.
         -1    1    1    2    0  501 -0.21173999723E+02  0.11689615243E+02  0.36622637418E+03  0.36702417157E+03  0.00000000000E+00 0.  1.
</event>
<event>
 4    1  0.6824761E+001  0.2800115E+02  0.7546771E-02  0.1437802E+00
          2   -1    0    0  502    0  0.00000000000E+00  0.00000000000E+00  0.81037611257E+03  0.81037611257E+03  0.00000000000E+00 0. -1.
         -2   -1    0    0    0  501 -0.00000000000E+00 -0.00000000000E+00 -0.13280490737E+01  0.13280490737E+01  0.00000000000E+00 0.  1.
          1    1    1    2  502    0  0.27928014815E+02 -0.20225183031E+01  0.19306618561E+03  0.19508617741E+03  0.00000000000E+00 0.  1.
         -1    1    1    2    0  501 -0.27928014815E+02  0.20225183031E+01  0.61598187789E+03  0.61661798423E+03  0.00000000000E+00 0. -1.
</event>
<event>
 4    1  0.6824761E+001  0.2808983E+02  0.7546771E-02  0.1436957E+00
          2   -1    0    0  502    0  0.00000000000E+00  0.00000000000E+00  0.76430415922E+03  0.76430415922E+03  0.00000000000E+00 0. -1.
         -2   -1    0    0    0  501 -0.00000000000E+00 -0.00000000000E+00 -0.10420307634E+01  0.10420307634E+01  0.00000000000E+00 0.  1.
          1    1    1    2  502    0 -0.12881417647E+02 -0.24962128225E+02  0.41849208640E+03  0.41943374346E+03  0.00000000000E+00 0. -1.
         -1    1    1    2    0  501  0.12881417647E+02  0.24962128225E+02  0.34477004205E+03  0.34591244653E+03  0.00000000000E+00 0.  1.
</event>
<event>
 4    1  0.6824761E+001  0.3097886E+02  0.7546771E-02  0.1411276E+00
          2   -1    0    0  502    0  0.00000000000E+00  0.00000000000E+00  0.13442222094E+04  0.13442222094E+04  0.00000000000E+00 0.  1.
         -2   -1    0    0    0  501 -0.00000000000E+00 -0.00000000000E+00 -0.79537764446E+00  0.79537764446E+00  0.00000000000E+00 0. -1.
          1    1    1    2  502    0  0.19260531271E+02  0.24263593833E+02  0.88690819042E+03  0.88744905673E+03  0.00000000000E+00 0.  1.
         -1    1    1    2    0  501 -0.19260531271E+02 -0.24263593833E+02  0.45651864132E+03  0.45756853030E+03  0.00000000000E+00 0. -1.
</event>
<event>
 4    1  0.6824761E+001  0.2338349E+02  0.7546771E-02  0.1487738E+00
          2   -1    0    0  502    0  0.00000000000E+00  0.00000000000E+00  0.73615417139E+03  0.73615417139E+03  0.00000000000E+00 0. -1.
         -2   -1    0    0    0  501 -0.00000000000E+00 -0.00000000000E+00 -0.85516996361E+00  0.85516996361E+00  0.00000000000E+00 0.  1.
          1    1    1    2  502    0  0.17686893295E+02  0.15295802756E+02  0.23404712385E+03  0.23521233802E+03  0.00000000000E+00 0.  1.
         -1    1    1    2    0  501 -0.17686893295E+02 -0.15295802756E+02  0.50125187758E+03  0.50179700333E+03  0.00000000000E+00 0. -1.
</event>
<event>
 4    1  0.6824761E+001  0.2830224E+02  0.7546771E-02  0.1434948E+00
          2   -1    0    0  502    0  0.00000000000E+00  0.00000000000E+00  0.62012087091E+03  0.62012087091E+03  0.00000000000E+00 0.  1.
         -2   -1    0    0    0  501 -0.00000000000E+00 -0.00000000000E+00 -0.22792039609E+01  0.22792039609E+01  0.00000000000E+00 0. -1.
          1    1    1    2  502    0 -0.27586458762E+02 -0.63248730654E+01  0.10408066291E+03  0.10786009975E+03  0.00000000000E+00 0. -1.
         -1    1    1    2    0  501  0.27586458762E+02  0.63248730654E+01  0.51376100403E+03  0.51453997511E+03  0.00000000000E+00 0.  1.
</event>
<event>
 4    1  0.6824761E+001  0.2051927E+02  0.7546771E-02  0.1526240E+00
          2   -1    0    0  502    0  0.00000000000E+00  0.00000000000E+00  0.18529908991E+01  0.18529908991E+01  0.00000000000E+00 0. -1.
         -2   -1    0    0    0  501 -0.00000000000E+00 -0.00000000000E+00 -0.38028401914E+03  0.38028401914E+03  0.00000000000E+00 0.  1.
          1    1    1    2  502    0 -0.20240323339E+02  0.33718902828E+01 -0.31043397356E+03  0.31111138242E+03  0.00000000000E+00 0.  1.
         -1    1    1    2    0  501  0.20240323339E+02 -0.33718902828E+01 -0.67997054677E+02  0.71025627612E+02  0.00000000000E+00 0. -1.
</event>
<event>
 4    1  0.6824761E+001  0.4031612E+02  0.7546771E-02  0.1346643E+00
          2   -1    0    0  502    0  0.00000000000E+00  0.00000000000E+00  0.52488380589E+02  0.52488380589E+02  0.00000000000E+00 0.  1.
         -2   -1    0    0    0  501 -0.00000000000E+00 -0.00000000000E+00 -0.45302014539E+02  0.45302014539E+02  0.00000000000E+00 0. -1.
          1    1    1    2  502    0  0.35966976481E+02  0.18214456779E+02 -0.23911818137E+02  0.46873925370E+02  0.00000000000E+00 0. -1.
         -1    1    1    2    0  501 -0.35966976481E+02 -0.18214456779E+02  0.31098184186E+02  0.50916469758E+02  0.00000000000E+00 0.  1.
</event>
<event>
 4    1  0.6824761E+001  0.2198544E+02  0.7546771E-02  0.1505647E+00
          2   -1    0    0  502    0  0.00000000000E+00  0.00000000000E+00  0.63047549627E+03  0.63047549627E+03  0.00000000000E+00 0.  1.
         -2   -1    0    0    0  501 -0.00000000000E+00 -0.00000000000E+00 -0.18213942688E+01  0.18213942688E+01  0.00000000000E+00 0. -1.
          1    1    1    2  502    0  0.36168956188E+01 -0.21685889015E+02  0.73746341763E+02  0.76953769496E+02  0.00000000000E+00 0. -1.
         -1    1    1    2    0  501 -0.36168956188E+01  0.21685889015E+02  0.55490776024E+03  0.55534312104E+03  0.00000000000E+00 0.  1.
</event>
<event>
 4    1  0.6824761E+001  0.3139672E+02  0.7546771E-02  0.1407835E+00
          2   -1    0    0  502    0  0.00000000000E+00  0.00000000000E+00  0.33020762962E+03  0.33020762962E+03  0.00000000000E+00 0. -1.
         -2   -1    0    0    0  501 -0.00000000000E+00 -0.00000000000E+00 -0.30033332345E+01  0.30033332345E+01  0.00000000000E+00 0.  1.
          1    1    1    2  502    0 -0.17010006479E+02  0.26389648204E+02  0.15067597215E+03  0.15391232061E+03  0.00000000000E+00 0.  1.
         -1    1    1    2    0  501  0.17010006479E+02 -0.26389648204E+02  0.17652832424E+03  0.17929864225E+03  0.00000000000E+00 0. -1.
</event>
<event>
 4    1  0.6824761E+001  0.2279374E+02  0.7546771E-02  0.1495105E+00
          2   -1    0    0  502    0  0.00000000000E+00  0.00000000000E+00  0.23773370628E+03  0.23773370628E+03  0.00000000000E+00 0. -1.
         -2   -1    0    0    0  501 -0.00000000000E+00 -0.00000000000E+00 -0.24480584868E+01  0.24480584868E+01  0.00000000000E+00 0.  1.
          1    1    1    2  502    0  0.16313855879E+02  0.15918936097E+02  0.15697572529E+03  0.15862198066E+03  0.00000000000E+00 0. -1.
         -1    1    1    2    0  501 -0.16313855879E+02 -0.15918936097E+02  0.78309922503E+02  0.81559784101E+02  0.00000000000E+00 0.  1.
</event>
<event>
 4    1  0.6824761E+001  0.3657093E+02  0.7546771E-02  0.1369843E+00
          2   -1    0    0  502    0  0.00000000000E+00  0.00000000000E+00  0.37439955756E+03  0.37439955756E+03  0.00000000000E+00 0. -1.
         -2   -1    0    0    0  501 -0.00000000000E+00 -0.00000000000E+00 -0.36341492138E+01  0.36341492138E+01  0.00000000000E+00 0.  1.
          1    1    1    2  502    0  0.33384376805E+02  0.14930387593E+02  0.21005951699E+03  0.21321921528E+03  0.00000000000E+00 0. -1.
         -1    1    1    2    0  501 -0.33384376805E+02 -0.14930387593E+02  0.16070589135E+03  0.16481449148E+03  0.00000000000E+00 0.  1.
</event>
<event>
 4    1  0.6824761E+001  0.5008562E+02  0.7546771E-02  0.1297802E+00
          2   -1    0    0  502    0  0.00000000000E+00  0.00000000000E+00  0.40502839543E+03  0.40502839543E+03  0.00000000000E+00 0. -1.
         -2   -1    0    0    0  501 -0.00000000000E+00 -0.00000000000E+00 -0.62660243624E+01  0.62660243624E+01  0.00000000000E+00 0.  1.
          1    1    1    2  502    0 -0.19630921403E+02  0.46078155139E+02  0.17726675319E+03  0.18420659934E+03  0.00000000000E+00 0.  1.
         -1    1    1    2    0  501  0.19630921403E+02 -0.46078155139E+02  0.22149561788E+03  0.22708782045E+03  0.00000000000E+00 0. -1.
</event>
<event>
 4    1  0.6824761E+001  0.2416397E+02  0.7546771E-02  0.1478377E+00
          2   -1    0    0  502    0  0.00000000000E+00  0.00000000000E+00  0.73734776728E+03  0.73734776728E+03  0.00000000000E+00 0.  1.
         -2   -1    0    0    0  501 -0.00000000000E+00 -0.00000000000E+00 -0.81019947823E+00  0.81019947823E+00  0.00000000000E+00 0. -1.
          1    1    1    2  502    0 -0.11135607674E+02 -0.21445173794E+02  0.42375419253E+03  0.42444259084E+03  0.00000000000E+00 0. -1.
         -1    1    1    2    0  501  0.11135607674E+02  0.21445173794E+02  0.31278337527E+03  0.31371537591E+03  0.00000000000E+00 0.  1.
</event>
<event>
 4    1  0.6824761E+001  0.2809888E+02  0.7546771E-02  0.1436871E+00
          2   -1    0    0  502    0  0.00000000000E+00  0.00000000000E+00  0.11077452049E+03  0.11077452049E+03  0.00000000000E+00 0.  1.
         -2   -1    0    0    0  501 -0.00000000000E+00 -0.00000000000E+00 -0.71281305762E+01  0.71281305762E+01  0.00000000000E+00 0. -1.
          1    1    1    2  502    0  0.24837076883E+02 -0.13140261907E+02  0.51274619880E+02  0.58469081700E+02  0.00000000000E+00 0. -1.
         -1    1    1    2    0  501 -0.24837076883E+02  0.13140261907E+02  0.52371770033E+02  0.59433569365E+02  0.00000000000E+00 0.  1.
</event>
<event>
 4    1  0.6824761E+001  0.5661598E+02  0.7546771E-02  0.1271785E+00
          2   -1    0    0  502    0  0.00000000000E+00  0.00000000000E+00  0.73303860454E+03  0.73303860454E+03  0.00000000000E+00 0.  1.
         -2   -1    0    0    0  501 -0.00000000000E+00 -0.00000000000E+00 -0.72515663983E+01  0.72515663983E+01  0.00000000000E+00 0. -1.
          1    1    1    2  502    0  0.52158494626E+02  0.22019542652E+02  0.12967356480E+03  0.14149417737E+03  0.00000000000E+00 0. -1.
         -1    1    1    2    0  501 -0.52158494626E+02 -0.22019542652E+02  0.59611347333E+03  0.59879599357E+03  0.00000000000E+00 0.  1.
</event>
<event>
 4    1  0.6824761E+001  0.2383216E+02  0.7546771E-02  0.1482305E+00
          2   -1    0    0  502    0  0.00000000000E+00  0.00000000000E+00  0.21984264388E+03  0.21984264388E+03  0.00000000000E+00 0. -1.
         -2   -1    0    0    0  501 -0.00000000000E+00 -0.00000000000E+00 -0.15911085928E+02  0.15911085928E+02  0.00000000000E+00 0.  1.
          1    1    1    2  502    0 -0.21197093101E+02 -0.10892901117E+02 -0.59174100791E+01  0.24555809755E+02  0.00000000000E+00 0.  1.
         -1    1    1    2    0  501  0.21197093101E+02  0.10892901117E+02  0.20984896803E+03  0.21119792006E+03  0.00000000000E+00 0. -1.
</event>
<event>
 4    1  0.6824761E+001  0.2497512E+02  0.7546771E-02  0.1469082E+00
          2   -1    0    0  502    0  0.00000000000E+00  0.00000000000E+00  0.80977447866E+03  0.80977447866E+03  0.00000000000E+00 0. -1.
         -2   -1    0    0    0  501 -0.00000000000E+00 -0.00000000000E+00 -0.11031580127E+01  0.11031580127E+01  0.00000000000E+00 0.  1.
          1    1    1    2  502    0  0.94931290026E+01  0.23100586924E+02  0.62704897293E+03  0.62754615055E+03  0.00000000000E+00 0. -1.
         -1    1    1    2    0  501 -0.94931290026E+01 -0.23100586924E+02  0.18162234772E+03  0.18333148613E+03  0.00000000000E+00 0.  1.
</event>
<event>
 4    1  0.6824761E+001  0.4003794E+02  0.7546771E-02  0.1348264E+00
          2   -1    0    0  502    0  0.00000000000E+00  0.00000000000E+00  0.17183675866E+04  0.17183675866E+04  0.00000000000E+00 0.  1.
         -2   -1    0    0    0  501 -0.00000000000E+00 -0.00000000000E+00 -0.97378969465E+00  0.97378969465E+00  0.00000000000E+00 0. -1.
          1    1    1    2  502    0  0.28416999790E+02  0.28204799713E+02  0.68250149248E+03  0.68367486705E+03  0.00000000000E+00 0. -1.
         -1    1    1    2    0  501 -0.28416999790E+02 -0.28204799713E+02  0.10348923044E+04  0.10356665093E+04  0.00000000000E+00 0.  1.
</event>
<event>
 4    1 -0.6824761E+001  0.3493480E+02  0.7546771E-02  0.1381022E+00
          2   -1    0    0  502    0  0.00000000000E+00  0.00000000000E+00  0.43839614588E+00  0.43839614588E+00  0.00000000000E+00 0. -1.
         -2   -1    0    0    0  501 -0.00000000000E+00 -0.00000000000E+00 -0.34484144322E+04  0.34484144322E+04  0.00000000000E+00 0.  1.
          1    1    1    2  502    0  0.30127156987E+02 -0.17685995701E+02 -0.96698894729E+03  0.96761979321E+03  0.00000000000E+00 0. -1.
         -1    1    1    2    0  501 -0.30127156987E+02  0.17685995701E+02 -0.24809870888E+04  0.24812330352E+04  0.00000000000E+00 0.  1.
</event>
<event>
 4    1  0.6824761E+001  0.2256716E+02  0.7546771E-02  0.1498006E+00
          2   -1    0    0  502    0  0.00000000000E+00  0.00000000000E+00  0.23826922547E+02  0.23826922547E+02  0.00000000000E+00 0. -1.
         -2   -1    0    0    0  501 -0.00000000000E+00 -0.00000000000E+00 -0.24886037138E+02  0.24886037138E+02  0.00000000000E+00 0.  1.
          1    1    1    2  502    0 -0.21294044573E+02 -0.74726317176E+01  0.86203441317E+01  0.24157543170E+02  0.00000000000E+00 0. -1.
         -1    1    1    2    0  501  0.21294044573E+02  0.74726317176E+01 -0.96794587223E+01  0.24555416515E+02  0.00000000000E+00 0.  1.
</event>
<event>
 4    1  0.6824761E+001  0.1900987E+03  0.7546771E-02  0.1062387E+00
          2   -1    0    0  502    0  0.00000000000E+00  0.00000000000E+00  0.20610122732E+04  0.20610122732E+04  0.00000000000E+00 0.  1.
         -2   -1    0    0    0  501 -0.00000000000E+00 -0.00000000000E+00 -0.37568813986E+02  0.37568813986E+02  0.00000000000E+00 0. -1.
          1    1    1    2  502    0  0.40877945692E+02  0.18565159777E+03  0.17779815929E+04  0.17881152275E+04  0.00000000000E+00 0.  1.
         -1    1    1    2    0  501 -0.40877945692E+02 -0.18565159777E+03  0.24546186628E+03  0.31046585964E+03  0.00000000000E+00 0. -1.
</event>
<event>
 4    1  0.6824761E+001  0.3363088E+02  0.7546771E-02  0.1390453E+00
          2   -1    0    0  502    0  0.00000000000E+00  0.00000000000E+00  0.31368765885E+02  0.31368765885E+02  0.00000000000E+00 0.  1.
         -2   -1    0    0    0  501 -0.00000000000E+00 -0.00000000000E+00 -0.45836444322E+02  0.45836444322E+02  0.00000000000E+00 0. -1.
          1    1    1    2  502    0 -0.30970188761E+02  0.13110424153E+02  0.10597661890E+02  0.35261115282E+02  0.00000000000E+00 0.  1.
         -1    1    1    2    0  501  0.30970188761E+02 -0.13110424153E+02 -0.25065340328E+02  0.41944094925E+02  0.00000000000E+00 0. -1.
</event>
<event>
 4    1  0.6824761E+001  0.2524930E+02  0.7546771E-02  0.1466034E+00
          2   -1    0    0  502    0  0.00000000000E+00  0.00000000000E+00  0.87663622847E+03  0.87663622847E+03  0.00000000000E+00 0.  1.
         -2   -1    0    0    0  501 -0.00000000000E+00 -0.00000000000E+00 -0.89829744487E+00  0.89829744487E+00  0.00000000000E+00 0. -1.
          1    1    1    2  502    0 -0.68057029559E-01  0.25249207556E+02  0.62933509739E+03  0.62984140220E+03  0.00000000000E+00 0.  1.
         -1    1    1    2    0  501  0.68057029559E-01 -0.25249207556E+02  0.24640283363E+03  0.24769312372E+03  0.00000000000E+00 0. -1.
</event>
<event>
 4    1  0.6824761E+001  0.2480462E+02  0.7546771E-02  0.1471001E+00
          2   -1    0    0  502    0  0.00000000000E+00  0.00000000000E+00  0.17720830391E+03  0.17720830391E+03  0.00000000000E+00 0.  1.
         -2   -1    0    0    0  501 -0.00000000000E+00 -0.00000000000E+00 -0.47776827424E+01  0.47776827424E+01  0.00000000000E+00 0. -1.
          1    1    1    2  502    0 -0.13123522497E+02 -0.21048566429E+02  0.13378348433E+03  0.13606355012E+03  0.00000000000E+00 0.  1.
         -1    1    1    2    0  501  0.13123522497E+02  0.21048566429E+02  0.38647136838E+02  0.45922436534E+02  0.00000000000E+00 0. -1.
</event>
<event>
 4    1  0.6824761E+001  0.2299945E+02  0.7546771E-02  0.1492505E+00
          2   -1    0    0  502    0  0.00000000000E+00  0.00000000000E+00  0.87917979164E+02  0.87917979164E+02  0.00000000000E+00 0.  1.
         -2   -1    0    0    0  501 -0.00000000000E+00 -0.00000000000E+00 -0.10049547091E+02  0.10049547091E+02  0.00000000000E+00 0. -1.
          1    1    1    2  502    0  0.10186245753E+02  0.20620748207E+02  0.79039468939E+01  0.24319688231E+02  0.00000000000E+00 0. -1.
         -1    1    1    2    0  501 -0.10186245753E+02 -0.20620748207E+02  0.69964485179E+02  0.73647838024E+02  0.00000000000E+00 0.  1.
</event>
<event>
 4    1  0.6824761E+001  0.4883004E+02  0.7546771E-02  0.1303326E+00
          2   -1    0    0  502    0  0.00000000000E+00  0.00000000000E+00  0.20856216955E+04  0.20856216955E+04  0.00000000000E+00 0. -1.
         -2   -1    0    0    0  501 -0.00000000000E+00 -0.00000000000E+00 -0.13216106005E+01  0.13216106005E+01  0.00000000000E+00 0.  1.
          1    1    1    2  502    0  0.41362730592E+02 -0.25951829095E+02  0.65880788275E+03  0.66061501595E+03  0.00000000000E+00 0.  1.
         -1    1    1    2    0  501 -0.41362730592E+02  0.25951829095E+02  0.14254922022E+04  0.14263282902E+04  0.00000000000E+00 0. -1.
</event>
<event>
 4    1  0.6824761E+001  0.2086499E+02  0.7546771E-02  0.1521201E+00
          2   -1    0    0  502    0  0.00000000000E+00  0.00000000000E+00  0.73841285589E+02  0.73841285589E+02  0.00000000000E+00 0.  1.
         -2   -1    0    0    0  501 -0.00000000000E+00 -0.00000000000E+00 -0.81811284817E+01  0.81811284817E+01  0.00000000000E+00 0. -1.
          1    1    1    2  502    0 -0.20824125728E+02  0.13051514240E+01  0.11154148108E+02  0.23659303722E+02  0.00000000000E+00 0. -1.
         -1    1    1    2    0  501  0.20824125728E+02 -0.13051514240E+01  0.54506008999E+02  0.58363110349E+02  0.00000000000E+00 0.  1.
</event>
<event>
 4    1  0.6824761E+001  0.2694127E+02  0.7546771E-02  0.1448199E+00
          2   -1    0    0  502    0  0.00000000000E+00  0.00000000000E+00  0.19506148072E+04  0.19506148072E+04  0.00000000000E+00 0.  1.
         -2   -1    0    0    0  501 -0.00000000000E+00 -0.00000000000E+00 -0.47302856797E+00  0.47302856797E+00  0.00000000000E+00 0. -1.
          1    1    1    2  502    0 -0.12526804184E+02 -0.23851862787E+02  0.52446079325E+03  0.52515231680E+03  0.00000000000E+00 0.  1.
         -1    1    1    2    0  501  0.12526804184E+02  0.23851862787E+02  0.14256809854E+04  0.14259355190E+04  0.00000000000E+00 0. -1.
</event>
<event>
 4    1  0.6824761E+001  0.2540937E+02  0.7546771E-02  0.1464275E+00
          2   -1    0    0  502    0  0.00000000000E+00  0.00000000000E+00  0.10007537725E+04  0.10007537725E+04  0.00000000000E+00 0. -1.
         -2   -1    0    0    0  501 -0.00000000000E+00 -0.00000000000E+00 -0.67710538786E+00  0.67710538786E+00  0.00000000000E+00 0.  1.
          1    1    1    2  502    0  0.24607549209E+02  0.63328323860E+01  0.39126179141E+03  0.39208599268E+03  0.00000000000E+00 0.  1.
         -1    1    1    2    0  501 -0.24607549209E+02 -0.63328323860E+01  0.60881487571E+03  0.60934488521E+03  0.00000000000E+00 0. -1.
</event>
<event>
 4    1  0.6824761E+001  0.2403116E+02  0.7546771E-02  0.1479940E+00
          2   -1    0    0  502    0  0.00000000000E+00  0.00000000000E+00  0.39293540622E+02  0.39293540622E+02  0.00000000000E+00 0. -1.
         -2   -1    0    0    0  501 -0.00000000000E+00 -0.00000000000E+00 -0.14921807278E+02  0.14921807278E+02  0.00000000000E+00 0.  1.
          1    1    1    2  502    0  0.19872290448E+02  0.13512546654E+02  0.15513187161E+02  0.28603423232E+02  0.00000000000E+00 0. -1.
         -1    1    1    2    0  501 -0.19872290448E+02 -0.13512546654E+02  0.88585461834E+01  0.25611924668E+02  0.00000000000E+00 0.  1.
</event>
<event>
 4    1  0.6824761E+001  0.3835580E+02  0.7546771E-02  0.1358400E+00
          2   -1    0    0  502    0  0.00000000000E+00  0.00000000000E+00  0.14320984796E+01  0.14320984796E+01  0.00000000000E+00 0.  1.
         -2   -1    0    0    0  501 -0.00000000000E+00 -0.00000000000E+00 -0.10562185892E+04  0.10562185892E+04  0.00000000000E+00 0. -1.
          1    1    1    2  502    0  0.35378029381E+02 -0.14817633736E+02 -0.61492552476E+03  0.61612057929E+03  0.00000000000E+00 0.  1.
         -1    1    1    2    0  501 -0.35378029381E+02  0.14817633736E+02 -0.43986096595E+03  0.44153010837E+03  0.00000000000E+00 0. -1.
</event>
<event>
 4    1  0.6824761E+001  0.2050242E+02  0.7546771E-02  0.1526489E+00
          2   -1    0    0  502    0  0.00000000000E+00  0.00000000000E+00  0.15449519762E+03  0.15449519762E+03  0.00000000000E+00 0.  1.
         -2   -1    0    0    0  501 -0.00000000000E+00 -0.00000000000E+00 -0.28619714921E+01  0.28619714921E+01  0.00000000000E+00 0. -1.
          1    1    1    2  502    0  0.20415328302E+02 -0.18877430878E+01  0.58341876769E+02  0.61839500229E+02  0.00000000000E+00 0. -1.
         -1    1    1    2    0  501 -0.20415328302E+02  0.18877430878E+01  0.93291349362E+02  0.95517668886E+02  0.00000000000E+00 0.  1.
</event>
<event>
 4    1  0.6824761E+001  0.2783272E+02  0.7546771E-02  0.1439418E+00
          2   -1    0    0  502    0  0.00000000000E+00  0.00000000000E+00  0.13240627592E+03  0.13240627592E+03  0.00000000000E+00 0.  1.
         -2   -1    0    0    0  501 -0.00000000000E+00 -0.00000000000E+00 -0.83393094041E+01  0.83393094041E+01  0.00000000000E+00 0. -1.
          1    1    1    2  502    0  0.27778211439E+02  0.17411026155E+01  0.10047707846E+03  0.10426074892E+03  0.00000000000E+00 0. -1.
         -1    1    1    2    0  501 -0.27778211439E+02 -0.17411026155E+01  0.23589888055E+02  0.36484836405E+02  0.00000000000E+00 0.  1.
</event>
<event>
 4    1  0.6824761E+001  0.5990792E+02  0.7546771E-02  0.1260146E+00
          2   -1    0    0  502    0  0.00000000000E+00  0.00000000000E+00  0.21054283484E+03  0.21054283484E+03  0.00000000000E+00 0.  1.
         -2   -1    0    0    0  501 -0.00000000000E+00 -0.00000000000E+00 -0.29413470319E+02  0.29413470319E+02  0.00000000000E+00 0. -1.
          1    1    1    2  502    0 -0.48482129911E+02  0.35191510045E+02  0.12767184726E+02  0.61253247307E+02  0.00000000000E+00 0. -1.
         -1    1    1    2    0  501  0.48482129911E+02 -0.35191510045E+02  0.16836217979E+03  0.17870305785E+03  0.00000000000E+00 0.  1.
</event>
<event>
 4    1  0.6824761E+001  0.2225516E+02  0.7546771E-02  0.1502069E+00
          2   -1    0    0  502    0  0.00000000000E+00  0.00000000000E+00  0.33720870752E+02  0.33720870752E+02  0.00000000000E+00 0. -1.
         -2   -1    0    0    0  501 -0.00000000000E+00 -0.00000000000E+00 -0.15001117849E+02  0.15001117849E+02  0.00000000000E+00 0.  1.
          1    1    1    2  502    0  0.10937029313E+02  0.19382302084E+02  0.12879410443E+02  0.25713254513E+02  0.00000000000E+00 0.  1.
         -1    1    1    2    0  501 -0.10937029313E+02 -0.19382302084E+02  0.58403424599E+01  0.23008734088E+02  0.00000000000E+00 0. -1.
</event>
<event>
 4    1  0.6824761E+001  0.3738465E+02  0.7546771E-02  0.1364533E+00
          2   -1    0    0  502    0  0.00000000000E+00  0.00000000000E+00  0.12770235244E+04  0.12770235244E+04  0.00000000000E+00 0. -1.
         -2   -1    0    0    0  501 -0.00000000000E+00 -0.00000000000E+00 -0.16299555752E+01  0.16299555752E+01  0.00000000000E+00 0.  1.
          1    1    1    2  502    0 -0.28063341329E+02 -0.24699411871E+02  0.27123782670E+03  0.27380206483E+03  0.00000000000E+00 0.  1.
         -1    1    1    2    0  501  0.28063341329E+02  0.24699411871E+02  0.10041557422E+04  0.10048514152E+04  0.00000000000E+00 0. -1.
</event>
<event>
 4    1  0.6824761E+001  0.3699586E+02  0.7546771E-02  0.1367050E+00
          2   -1    0    0  502    0  0.00000000000E+00  0.00000000000E+00  0.38333308109E+02  0.38333308109E+02  0.00000000000E+00 0.  1.
         -2   -1    0    0    0  501 -0.00000000000E+00 -0.00000000000E+00 -0.37540053634E+02  0.37540053634E+02  0.00000000000E+00 0. -1.
          1    1    1    2  502    0 -0.19853642009E+02  0.31217406965E+02  0.87840304910E+01  0.38024371004E+02  0.00000000000E+00 0.  1.
         -1    1    1    2    0  501  0.19853642009E+02 -0.31217406965E+02 -0.79907760158E+01  0.37848990739E+02  0.00000000000E+00 0. -1.
</event>
<event>
 4    1  0.6824761E+001  0.3231874E+02  0.7546771E-02  0.1400461E+00
          2   -1    0    0  502    0  0.00000000000E+00  0.00000000000E+00  0.39389064721E+03  0.39389064721E+03  0.00000000000E+00 0. -1.
         -2   -1    0    0    0  501 -0.00000000000E+00 -0.00000000000E+00 -0.29641548911E+01  0.29641548911E+01  0.00000000000E+00 0.  1.
          1    1    1    2  502    0 -0.30055293932E+02  0.11881929215E+02  0.25988130278E+03  0.26188316569E+03  0.00000000000E+00 0.  1.
         -1    1    1    2    0  501  0.30055293932E+02 -0.11881929215E+02  0.13104518954E+03  0.13497163641E+03  0.00000000000E+00 0. -1.
</event>
<event>
 4    1  0.6824761E+001  0.2963935E+02  0.7546771E-02  0.1422757E+00
          2   -1    0    0  502    0  0.00000000000E+00  0.00000000000E+00  0.12275901552E+02  0.12275901552E+02  0.00000000000E+00 0.  1.
         -2   -1    0    0    0  501 -0.00000000000E+00 -0.00000000000E+00 -0.12653922284E+03  0.12653922284E+03  0.00000000000E+00 0. -1.
          1    1    1    2  502    0 -0.25466701029E+02 -0.15163706943E+02 -0.10288098732E+03  0.10706534650E+03  0.00000000000E+00 0. -1.
         -1    1    1    2    0  501  0.25466701029E+02  0.15163706943E+02 -0.11382333970E+02  0.31749777892E+02  0.00000000000E+00 0.  1.
</event>
<event>
 4    1  0.6824761E+001  0.3097423E+02  0.7546771E-02  0.1411315E+00
          2   -1    0    0  502    0  0.00000000000E+00  0.00000000000E+00  0.23287068679E+02  0.23287068679E+02  0.00000000000E+00 0. -1.
         -2   -1    0    0    0  501 -0.00000000000E+00 -0.00000000000E+00 -0.76362211926E+02  0.76362211926E+02  0.00000000000E+00 0.  1.
          1    1    1    2  502    0  0.30617799439E+02  0.46854317058E+01  0.72727626358E+01  0.31816599270E+02  0.00000000000E+00 0. -1.
         -1    1    1    2    0  501 -0.30617799439E+02 -0.46854317058E+01 -0.60347905883E+02  0.67832681336E+02  0.00000000000E+00 0.  1.
</event>
<event>
 4    1  0.6824761E+001  0.2257433E+02  0.7546771E-02  0.1497914E+00
          2   -1    0    0  502    0  0.00000000000E+00  0.00000000000E+00  0.19424303077E+03  0.19424303077E+03  0.00000000000E+00 0.  1.
         -2   -1    0    0    0  501 -0.00000000000E+00 -0.00000000000E+00 -0.29067929153E+01  0.29067929153E+01  0.00000000000E+00 0. -1.
          1    1    1    2  502    0 -0.57005282045E+01  0.21842721497E+02  0.64895690813E+02  0.68709906056E+02  0.00000000000E+00 0. -1.
         -1    1    1    2    0  501  0.57005282045E+01 -0.21842721497E+02  0.12644054704E+03  0.12843991763E+03  0.00000000000E+00 0.  1.
</event>
<event>
 4    1  0.6824761E+001  0.2965655E+02  0.7546771E-02  0.1422605E+00
          2   -1    0    0  502    0  0.00000000000E+00  0.00000000000E+00  0.59840040472E+02  0.59840040472E+02  0.00000000000E+00 0.  1.
         -2   -1    0    0    0  501 -0.00000000000E+00 -0.00000000000E+00 -0.21965776414E+02  0.21965776414E+02  0.00000000000E+00 0. -1.
          1    1    1    2  502    0 -0.14339424549E+02  0.25959429883E+02 -0.45911699970E+01  0.30009830692E+02  0.00000000000E+00 0. -1.
         -1    1    1    2    0  501  0.14339424549E+02 -0.25959429883E+02  0.42465434055E+02  0.51795986193E+02  0.00000000000E+00 0.  1.
</event>
<event>
 4    1  0.6824761E+001  0.3522164E+02  0.7546771E-02  0.1379012E+00
          2   -1    0    0  502    0  0.00000000000E+00  0.00000000000E+00  0.66426077414E+03  0.66426077414E+03  0.00000000000E+00 0. -1.
         -2   -1    0    0    0  501 -0.00000000000E+00 -0.00000000000E+00 -0.21860240229E+01  0.21860240229E+01  0.00000000000E+00 0.  1.
          1    1    1    2  502    0  0.13167055593E+02  0.32667910483E+02  0.20385676944E+03  0.20687712821E+03  0.00000000000E+00 0.  1.
         -1    1    1    2    0  501 -0.13167055593E+02 -0.32667910483E+02  0.45821798068E+03  0.45956966996E+03  0.00000000000E+00 0. -1.
</event>
<event>
 4    1  0.6824761E+001  0.2281706E+02  0.7546771E-02  0.1494808E+00
          2   -1    0    0  502    0  0.00000000000E+00  0.00000000000E+00  0.34090852091E+03  0.34090852091E+03  0.00000000000E+00 0.  1.
         -2   -1    0    0    0  501 -0.00000000000E+00 -0.00000000000E+00 -0.16579543729E+01  0.16579543729E+01  0.00000000000E+00 0. -1.
          1    1    1    2  502    0 -0.14269530402E+02 -0.17804459939E+02  0.21773584946E+03  0.21892811248E+03  0.00000000000E+00 0.  1.
         -1    1    1    2    0  501  0.14269530402E+02  0.17804459939E+02  0.12151471708E+03  0.12363836281E+03  0.00000000000E+00 0. -1.
</event>
<event>
 4    1  0.6824761E+001  0.2161527E+02  0.7546771E-02  0.1510659E+00
          2   -1    0    0  502    0  0.00000000000E+00  0.00000000000E+00  0.62389774269E+03  0.62389774269E+03  0.00000000000E+00 0. -1.
         -2   -1    0    0    0  501 -0.00000000000E+00 -0.00000000000E+00 -0.12216703025E+01  0.12216703025E+01  0.00000000000E+00 0.  1.
          1    1    1    2  502    0  0.21586585325E+02  0.11131392442E+01  0.11689437355E+03  0.11887604600E+03  0.00000000000E+00 0.  1.
         -1    1    1    2    0  501 -0.21586585325E+02 -0.11131392442E+01  0.50578169884E+03  0.50624336700E+03  0.00000000000E+00 0. -1.
</event>
<event>
 4    1  0.6824761E+001  0.2339728E+02  0.7546771E-02  0.1487569E+00
          2   -1    0    0  502    0  0.00000000000E+00  0.00000000000E+00  0.30474188129E+03  0.30474188129E+03  0.00000000000E+00 0.  1.
         -2   -1    0    0    0  501 -0.00000000000E+00 -0.00000000000E+00 -0.23738834549E+01  0.23738834549E+01  0.00000000000E+00 0. -1.
          1    1    1    2  502    0 -0.94465898128E+00  0.23378202004E+02  0.22692291889E+03  0.22812593852E+03  0.00000000000E+00 0.  1.
         -1    1    1    2    0  501  0.94465898128E+00 -0.23378202004E+02  0.75445078950E+02  0.78989826226E+02  0.00000000000E+00 0. -1.
</event>
<event>
 4    1  0.6824761E+001  0.2799781E+02  0.7546771E-02  0.1437834E+00
          2   -1    0    0  502    0  0.00000000000E+00  0.00000000000E+00  0.54265329443E+02  0.54265329443E+02  0.00000000000E+00 0. -1.
         -2   -1    0    0    0  501 -0.00000000000E+00 -0.00000000000E+00 -0.14797975709E+02  0.14797975709E+02  0.00000000000E+00 0.  1.
          1    1    1    2  502    0  0.18946647204E+02 -0.20613152502E+02  0.14402530249E+02  0.31485081768E+02  0.00000000000E+00 0. -1.
         -1    1    1    2    0  501 -0.18946647204E+02  0.20613152502E+02  0.25064823485E+02  0.37578223384E+02  0.00000000000E+00 0.  1.
</event>
<event>
 4    1  0.6824761E+001  0.2116738E+02  0.7546771E-02  0.1516888E+00
          2   -1    0    0  502    0  0.00000000000E+00  0.00000000000E+00  0.16181512785E+02  0.16181512785E+02  0.00000000000E+00 0.  1.
         -2   -1    0    0    0  501 -0.00000000000E+00 -0.00000000000E+00 -0.27722282472E+02  0.27722282472E+02  0.00000000000E+00 0. -1.
          1    1    1    2  502    0  0.25346355082E+00 -0.21165858308E+02 -0.50153641161E+01  0.21753429130E+02  0.00000000000E+00 0. -1.
         -1    1    1    2    0  501 -0.25346355082E+00  0.21165858308E+02 -0.65254055707E+01  0.22150366127E+02  0.00000000000E+00 0.  1.
</event>
<event>
 4    1  0.6824761E+001  0.3649888E+02  0.7546771E-02  0.1370321E+00
          2   -1    0    0  502    0  0.00000000000E+00  0.00000000000E+00  0.96243218201E+02  0.96243218201E+02  0.00000000000E+00 0.  1.
         -2   -1    0    0    0  501 -0.00000000000E+00 -0.00000000000E+00 -0.37447169189E+02  0.37447169189E+02  0.00000000000E+00 0. -1.
          1    1    1    2  502    0  0.19388234265E+02 -0.30923528236E+02  0.82470232240E+02  0.90185960283E+02  0.00000000000E+00 0.  1.
         -1    1    1    2    0  501 -0.19388234265E+02  0.30923528236E+02 -0.23674183228E+02  0.43504427107E+02  0.00000000000E+00 0. -1.
</event>
<event>
 4    1  0.6824761E+001  0.2395212E+02  0.7546771E-02  0.1480876E+00
          2   -1    0    0  502    0  0.00000000000E+00  0.00000000000E+00  0.90616768736E+03  0.90616768736E+03  0.00000000000E+00 0.  1.
         -2   -1    0    0    0  501 -0.00000000000E+00 -0.00000000000E+00 -0.77440784559E+00  0.77440784559E+00  0.00000000000E+00 0. -1.
          1    1    1    2  502    0  0.17580215746E+02 -0.16267754522E+02  0.25899537117E+03  0.26010056922E+03  0.00000000000E+00 0. -1.
         -1    1    1    2    0  501 -0.17580215746E+02  0.16267754522E+02  0.64639790835E+03  0.64684152599E+03  0.00000000000E+00 0.  1.
</event>
<event>
 4    1  0.6824761E+001  0.3413015E+02  0.7546771E-02  0.1386784E+00
          2   -1    0    0  502    0  0.00000000000E+00  0.00000000000E+00  0.79853144796E+03  0.79853144796E+03  0.00000000000E+00 0. -1.
         -2   -1    0    0    0  501 -0.00000000000E+00 -0.00000000000E+00 -0.15665779050E+01  0.15665779050E+01  0.00000000000E+00 0.  1.
          1    1    1    2  502    0 -0.32780870236E+02 -0.95016784268E+01  0.50343150276E+03  0.50458710379E+03  0.00000000000E+00 0. -1.
         -1    1    1    2    0  501  0.32780870236E+02  0.95016784268E+01  0.29353336730E+03  0.29551092207E+03  0.00000000000E+00 0.  1.
</event>
<event>
 4    1  0.6824761E+001  0.2068454E+02  0.7546771E-02  0.1523817E+00
          2   -1    0    0  502    0  0.00000000000E+00  0.00000000000E+00  0.10230994094E+03  0.10230994094E+03  0.00000000000E+00 0. -1.
         -2   -1    0    0    0  501 -0.00000000000E+00 -0.00000000000E+00 -0.42489563082E+01  0.42489563082E+01  0.00000000000E+00 0.  1.
          1    1    1    2  502    0 -0.16163690520E+02 -0.12906789994E+02  0.42337307740E+02  0.47120035503E+02  0.00000000000E+00 0. -1.
         -1    1    1    2    0  501  0.16163690520E+02  0.12906789994E+02  0.55723676893E+02  0.59438861746E+02  0.00000000000E+00 0.  1.
</event>
<event>
 4    1  0.6824761E+001  0.2016338E+02  0.7546771E-02  0.1531553E+00
          2   -1    0    0  502    0  0.00000000000E+00  0.00000000000E+00  0.22831828448E+03  0.22831828448E+03  0.00000000000E+00 0. -1.
         -2   -1    0    0    0  501 -0.00000000000E+00 -0.00000000000E+00 -0.19053942464E+01  0.19053942464E+01  0.00000000000E+00 0.  1.
          1    1    1    2  502    0  0.20099042164E+02 -0.16094992251E+01  0.83756518101E+02  0.86149383678E+02  0.00000000000E+00 0.  1.
         -1    1    1    2    0  501 -0.20099042164E+02  0.16094992251E+01  0.14265637213E+03  0.14407429504E+03  0.00000000000E+00 0. -1.
</event>
<event>
 4    1  0.6824761E+001  0.2947302E+02  0.7546771E-02  0.1424232E+00
          2   -1    0    0  502    0  0.00000000000E+00  0.00000000000E+00  0.36032432769E+01  0.36032432769E+01  0.00000000000E+00 0.  1.
         -2   -1    0    0    0  501 -0.00000000000E+00 -0.00000000000E+00 -0.26606984192E+03  0.26606984192E+03  0.00000000000E+00 0. -1.
          1    1    1    2  502    0 -0.27922284159E+02  0.94342426049E+01 -0.89907803824E+02  0.94615390263E+02  0.00000000000E+00 0.  1.
         -1    1    1    2    0  501  0.27922284159E+02 -0.94342426049E+01 -0.17255879482E+03  0.17505769494E+03  0.00000000000E+00 0. -1.
</event>
<event>
 4    1  0.6824761E+001  0.2427652E+02  0.7546771E-02  0.1477062E+00
          2   -1    0    0  502    0  0.00000000000E+00  0.00000000000E+00  0.34974802147E+01  0.34974802147E+01  0.00000000000E+00 0. -1.
         -2   -1    0    0    0  501 -0.00000000000E+00 -0.00000000000E+00 -0.22036042160E+03  0.22036042160E+03  0.00000000000E+00 0.  1.
          1    1    1    2  502    0 -0.24133422151E+02 -0.26319737132E+01 -0.54135825051E+02  0.59329898906E+02  0.00000000000E+00 0. -1.
         -1    1    1    2    0  501  0.24133422151E+02  0.26319737132E+01 -0.16272711633E+03  0.16452800290E+03  0.00000000000E+00 0.  1.
</event>
<event>
 4    1  0.6824761E+001  0.2032255E+02  0.7546771E-02  0.1529161E+00
          2   -1    0    0  502    0  0.00000000000E+00  0.00000000000E+00  0.16049678111E+02  0.16049678111E+02  0.00000000000E+00 0.  1.
         -2   -1    0    0    0  501 -0.00000000000E+00 -0.00000000000E+00 -0.31976519496E+02  0.31976519496E+02  0.00000000000E+00 0. -1.
          1    1    1    2  502    0  0.83171661117E+01  0.18542676574E+02 -0.18574215405E+02  0.27531937537E+02  0.00000000000E+00 0. -1.
         -1    1    1    2    0  501 -0.83171661117E+01 -0.18542676574E+02  0.26473740193E+01  0.20494260071E+02  0.00000000000E+00 0.  1.
</event>
<event>
 4    1  0.6824761E+001  0.2329298E+02  0.7546771E-02  0.1488852E+00
          2   -1    0    0  502    0  0.00000000000E+00  0.00000000000E+00  0.18703137077E+04  0.18703137077E+04  0.00000000000E+00 0. -1.
         -2   -1    0    0    0  501 -0.00000000000E+00 -0.00000000000E+00 -0.30527950141E+00  0.30527950141E+00  0.00000000000E+00 0.  1.
          1    1    1    2  502    0 -0.15061840338E+02 -0.17768052557E+02  0.11436223777E+04  0.11438595654E+04  0.00000000000E+00 0.  1.
         -1    1    1    2    0  501  0.15061840338E+02  0.17768052557E+02  0.72638605057E+03  0.72675942181E+03  0.00000000000E+00 0. -1.
</event>
<event>
 4    1  0.6824761E+001  0.3703230E+02  0.7546771E-02  0.1366813E+00
          2   -1    0    0  502    0  0.00000000000E+00  0.00000000000E+00  0.49389308937E+03  0.49389308937E+03  0.00000000000E+00 0. -1.
         -2   -1    0    0    0  501 -0.00000000000E+00 -0.00000000000E+00 -0.33373909917E+01  0.33373909917E+01  0.00000000000E+00 0.  1.
          1    1    1    2  502    0  0.19893567034E+02 -0.31235192173E+02  0.14337476545E+03  0.14808009524E+03  0.00000000000E+00 0.  1.
         -1    1    1    2    0  501 -0.19893567034E+02  0.31235192173E+02  0.34718093293E+03  0.34915038512E+03  0.00000000000E+00 0. -1.
</event>
<event>
 4    1  0.6824761E+001  0.2890804E+02  0.7546771E-02  0.1429329E+00
          2   -1    0    0  502    0  0.00000000000E+00  0.00000000000E+00  0.18172772590E+04  0.18172772590E+04  0.00000000000E+00 0.  1.
         -2   -1    0    0    0  501 -0.00000000000E+00 -0.00000000000E+00 -0.46647221907E+00  0.46647221907E+00  0.00000000000E+00 0. -1.
          1    1    1    2  502    0  0.28833646997E+02 -0.20725645837E+01  0.10166971975E+04  0.10171080897E+04  0.00000000000E+00 0.  1.
         -1    1    1    2    0  501 -0.28833646997E+02  0.20725645837E+01  0.80011358924E+03  0.80063564148E+03  0.00000000000E+00 0. -1.
</event>
<event>
 4    1  0.6824761E+001  0.2838435E+02  0.7546771E-02  0.1434177E+00
          2   -1    0    0  502    0  0.00000000000E+00  0.00000000000E+00  0.64725014320E+03  0.64725014320E+03  0.00000000000E+00 0. -1.
         -2   -1    0    0    0  501 -0.00000000000E+00 -0.00000000000E+00 -0.29759094128E+01  0.29759094128E+01  0.00000000000E+00 0.  1.
          1    1    1    2  502    0 -0.12910477669E+02  0.25278270918E+02  0.57010288509E+03  0.57080904951E+03  0.00000000000E+00 0. -1.
         -1    1    1    2    0  501  0.12910477669E+02 -0.25278270918E+02  0.74171348694E+02  0.79417003100E+02  0.00000000000E+00 0.  1.
</event>
<event>
 4    1  0.6824761E+001  0.2186254E+02  0.7546771E-02  0.1507297E+00
          2   -1    0    0  502    0  0.00000000000E+00  0.00000000000E+00  0.11683510673E+03  0.11683510673E+03  0.00000000000E+00 0. -1.
         -2   -1    0    0    0  501 -0.00000000000E+00 -0.00000000000E+00 -0.40974975681E+01  0.40974975681E+01  0.00000000000E+00 0.  1.
          1    1    1    2  502    0 -0.75742104616E+01 -0.20508588555E+02  0.58779116487E+02  0.62713279325E+02  0.00000000000E+00 0. -1.
         -1    1    1    2    0  501  0.75742104616E+01  0.20508588555E+02  0.53958492671E+02  0.58219324970E+02  0.00000000000E+00 0.  1.
</event>
<event>
 4    1  0.6824761E+001  0.2155744E+02  0.7546771E-02  0.1511453E+00
          2   -1    0    0  502    0  0.00000000000E+00  0.00000000000E+00  0.21081170138E+02  0.21081170138E+02  0.00000000000E+00 0.  1.
         -2   -1    0    0    0  501 -0.00000000000E+00 -0.00000000000E+00 -0.22047618212E+02  0.22047618212E+02  0.00000000000E+00 0. -1.
          1    1    1    2  502    0 -0.12120685441E+02 -0.17827283057E+02 -0.22517881415E+00  0.21558611789E+02  0.00000000000E+00 0.  1.
         -1    1    1    2    0  501  0.12120685441E+02  0.17827283057E+02 -0.74126925928E+00  0.21570176561E+02  0.00000000000E+00 0. -1.
</event>
<event>
 4    1  0.6824761E+001  0.2717924E+02  0.7546771E-02  0.1445816E+00
          2   -1    0    0  502    0  0.00000000000E+00  0.00000000000E+00  0.79720461225E+02  0.79720461225E+02  0.00000000000E+00 0.  1.
         -2   -1    0    0    0  501 -0.00000000000E+00 -0.00000000000E+00 -0.11646495449E+02  0.11646495449E+02  0.00000000000E+00 0. -1.
          1    1    1    2  502    0  0.15887736903E+02 -0.22052001347E+02  0.54689405555E+02  0.61070795208E+02  0.00000000000E+00 0.  1.
         -1    1    1    2    0  501 -0.15887736903E+02  0.22052001347E+02  0.13384560221E+02  0.30296161467E+02  0.00000000000E+00 0. -1.
</event>
<event>
 4    1  0.6824761E+001  0.2424693E+02  0.7546771E-02  0.1477407E+00
          2   -1    0    0  502    0  0.00000000000E+00  0.00000000000E+00  0.49187226068E+02  0.49187226068E+02  0.00000000000E+00 0. -1.
         -2   -1    0    0    0  501 -0.00000000000E+00 -0.00000000000E+00 -0.12773881750E+02  0.12773881750E+02  0.00000000000E+00 0.  1.
          1    1    1    2  502    0  0.10434353678E+02 -0.21886928455E+02  0.10350991139E+02  0.26363922156E+02  0.00000000000E+00 0.  1.
         -1    1    1    2    0  501 -0.10434353678E+02  0.21886928455E+02  0.26062353178E+02  0.35597185662E+02  0.00000000000E+00 0. -1.
</event>
<event>
 4    1  0.6824761E+001  0.2729621E+02  0.7546771E-02  0.1444655E+00
          2   -1    0    0  502    0  0.00000000000E+00  0.00000000000E+00  0.64296332779E+01  0.64296332779E+01  0.00000000000E+00 0.  1.
         -2   -1    0    0    0  501 -0.00000000000E+00 -0.00000000000E+00 -0.21234645649E+03  0.21234645649E+03  0.00000000000E+00 0. -1.
          1    1    1    2  502    0 -0.64003991657E+01 -0.26535222179E+02 -0.17668590769E+03  0.17878197085E+03  0.00000000000E+00 0. -1.
         -1    1    1    2    0  501  0.64003991657E+01  0.26535222179E+02 -0.29230915521E+02  0.39994118915E+02  0.00000000000E+00 0.  1.
</event>
<event>
 4    1  0.6824761E+001  0.2499255E+02  0.7546771E-02  0.1468887E+00
          2   -1    0    0  502    0  0.00000000000E+00  0.00000000000E+00  0.35144173911E+02  0.35144173911E+02  0.00000000000E+00 0. -1.
         -2   -1    0    0    0  501 -0.00000000000E+00 -0.00000000000E+00 -0.18316542759E+02  0.18316542759E+02  0.00000000000E+00 0.  1.
          1    1    1    2  502    0  0.14344479110E+02  0.20466148646E+02  0.38103265867E+01  0.25281335210E+02  0.00000000000E+00 0.  1.
         -1    1    1    2    0  501 -0.14344479110E+02 -0.20466148646E+02  0.13017304566E+02  0.28179381460E+02  0.00000000000E+00 0. -1.
</event>
<event>
 4    1  0.6824761E+001  0.2212443E+02  0.7546771E-02  0.1503795E+00
          2   -1    0    0  502    0  0.00000000000E+00  0.00000000000E+00  0.25335423584E+03  0.25335423584E+03  0.00000000000E+00 0.  1.
         -2   -1    0    0    0  501 -0.00000000000E+00 -0.00000000000E+00 -0.31707321545E+01  0.31707321545E+01  0.00000000000E+00 0. -1.
          1    1    1    2  502    0 -0.20062270556E+02 -0.93271453161E+01  0.20525986918E+03  0.20644879325E+03  0.00000000000E+00 0.  1.
         -1    1    1    2    0  501  0.20062270556E+02  0.93271453161E+01  0.44923634507E+02  0.50076174744E+02  0.00000000000E+00 0. -1.
</event>
<event>
 4    1  0.6824761E+001  0.2114827E+02  0.7546771E-02  0.1517158E+00
          2   -1    0    0  502    0  0.00000000000E+00  0.00000000000E+00  0.12069724687E+03  0.12069724687E+03  0.00000000000E+00 0.  1.
         -2   -1    0    0    0  501 -0.00000000000E+00 -0.00000000000E+00 -0.46708056314E+01  0.46708056314E+01  0.00000000000E+00 0. -1.
          1    1    1    2  502    0 -0.21143053205E+02  0.46966899644E+00  0.86509154545E+02  0.89056628658E+02  0.00000000000E+00 0.  1.
         -1    1    1    2    0  501  0.21143053205E+02 -0.46966899644E+00  0.29517286695E+02  0.36311423845E+02  0.00000000000E+00 0. -1.
</event>
<event>
 4    1  0.6824761E+001  0.2778626E+02  0.7546771E-02  0.1439866E+00
          2   -1    0    0  502    0  0.00000000000E+00  0.00000000000E+00  0.12575148670E+03  0.12575148670E+03  0.00000000000E+00 0.  1.
         -2   -1    0    0    0  501 -0.00000000000E+00 -0.00000000000E+00 -0.96208627906E+01  0.96208627906E+01  0.00000000000E+00 0. -1.
          1    1    1    2  502    0  0.27769897852E+02 -0.95346718095E+00  0.98780379979E+02  0.10261403313E+03  0.00000000000E+00 0.  1.
         -1    1    1    2    0  501 -0.27769897852E+02  0.95346718095E+00  0.17350243931E+02  0.32758316361E+02  0.00000000000E+00 0. -1.
</event>
<event>
 4    1  0.6824761E+001  0.2858584E+02  0.7546771E-02  0.1432297E+00
          2   -1    0    0  502    0  0.00000000000E+00  0.00000000000E+00  0.97518558783E+03  0.97518558783E+03  0.00000000000E+00 0.  1.
         -2   -1    0    0    0  501 -0.00000000000E+00 -0.00000000000E+00 -0.88163504051E+00  0.88163504051E+00  0.00000000000E+00 0. -1.
          1    1    1    2  502    0  0.11803878126E+02 -0.26034947215E+02  0.37850789382E+03  0.37958579491E+03  0.00000000000E+00 0. -1.
         -1    1    1    2    0  501 -0.11803878126E+02  0.26034947215E+02  0.59579605897E+03  0.59648142796E+03  0.00000000000E+00 0.  1.
</event>
<event>
 4    1  0.6824761E+001  0.3713698E+02  0.7546771E-02  0.1366132E+00
          2   -1    0    0  502    0  0.00000000000E+00  0.00000000000E+00  0.60956303328E+01  0.60956303328E+01  0.00000000000E+00 0.  1.
         -2   -1    0    0    0  501 -0.00000000000E+00 -0.00000000000E+00 -0.23214911894E+03  0.23214911894E+03  0.00000000000E+00 0. -1.
          1    1    1    2  502    0  0.15545876125E+02  0.33726567014E+02 -0.94042763907E+02  0.10110982658E+03  0.00000000000E+00 0.  1.
         -1    1    1    2    0  501 -0.15545876125E+02 -0.33726567014E+02 -0.13201072470E+03  0.13713492270E+03  0.00000000000E+00 0. -1.
</event>
<event>
 4    1  0.6824761E+001  0.2267242E+02  0.7546771E-02  0.1496653E+00
          2   -1    0    0  502    0  0.00000000000E+00  0.00000000000E+00  0.50135458242E+02  0.50135458242E+02  0.00000000000E+00 0.  1.
         -2   -1    0    0    0  501 -0.00000000000E+00 -0.00000000000E+00 -0.11040373742E+02  0.11040373742E+02  0.00000000000E+00 0. -1.
          1    1    1    2  502    0  0.23639433914E+01 -0.22548846910E+02  0.27716171192E+02  0.35808167656E+02  0.00000000000E+00 0. -1.
         -1    1    1    2    0  501 -0.23639433914E+01  0.22548846910E+02  0.11378913308E+02  0.25367664327E+02  0.00000000000E+00 0.  1.
</event>
<event>
 4    1  0.6824761E+001  0.4030709E+02  0.7546771E-02  0.1346696E+00
          2   -1    0    0  502    0  0.00000000000E+00  0.00000000000E+00  0.10044973789E+03  0.10044973789E+03  0.00000000000E+00 0.  1.
         -2   -1    0    0    0  501 -0.00000000000E+00 -0.00000000000E+00 -0.28850702212E+02  0.28850702212E+02  0.00000000000E+00 0. -1.
          1    1    1    2  502    0 -0.39394376410E+02 -0.85290657079E+01  0.78654077705E+02  0.88380573625E+02  0.00000000000E+00 0.  1.
         -1    1    1    2    0  501  0.39394376410E+02  0.85290657079E+01 -0.70550420263E+01  0.40919866478E+02  0.00000000000E+00 0. -1.
</event>
<event>
 4    1  0.6824761E+001  0.2426644E+02  0.7546771E-02  0.1477180E+00
          2   -1    0    0  502    0  0.00000000000E+00  0.00000000000E+00  0.18293912172E+02  0.18293912172E+02  0.00000000000E+00 0.  1.
         -2   -1    0    0    0  501 -0.00000000000E+00 -0.00000000000E+00 -0.40441172298E+02  0.40441172298E+02  0.00000000000E+00 0. -1.
          1    1    1    2  502    0 -0.11042670996E+02  0.21608317839E+02 -0.24339747639E+02  0.34369802119E+02  0.00000000000E+00 0. -1.
         -1    1    1    2    0  501  0.11042670996E+02 -0.21608317839E+02  0.21924875129E+01  0.24365282351E+02  0.00000000000E+00 0.  1.
</event>
<event>
 4    1  0.6824761E+001  0.2227307E+02  0.7546771E-02  0.1501834E+00
          2   -1    0    0  502    0  0.00000000000E+00  0.00000000000E+00  0.13963719870E+03  0.13963719870E+03  0.00000000000E+00 0.  1.
         -2   -1    0    0    0  501 -0.00000000000E+00 -0.00000000000E+00 -0.35849195837E+01  0.35849195837E+01  0.00000000000E+00 0. -1.
          1    1    1    2  502    0 -0.11728034993E+00 -0.22272765318E+02  0.61237793620E+02  0.65162544433E+02  0.00000000000E+00 0.  1.
         -1    1    1    2    0  501  0.11728034993E+00  0.22272765318E+02  0.74814485494E+02  0.78059573848E+02  0.00000000000E+00 0. -1.
</event>
<event>
 4    1  0.6824761E+001  0.2286940E+02  0.7546771E-02  0.1494145E+00
          2   -1    0    0  502    0  0.00000000000E+00  0.00000000000E+00  0.47382869337E+03  0.47382869337E+03  0.00000000000E+00 0.  1.
         -2   -1    0    0    0  501 -0.00000000000E+00 -0.00000000000E+00 -0.12267142451E+01  0.12267142451E+01  0.00000000000E+00 0. -1.
          1    1    1    2  502    0  0.22771129015E+02  0.21178587879E+01  0.16111223663E+03  0.16272726395E+03  0.00000000000E+00 0. -1.
         -1    1    1    2    0  501 -0.22771129015E+02 -0.21178587879E+01  0.31148974250E+03  0.31232814366E+03  0.00000000000E+00 0.  1.
</event>
<event>
 4    1  0.6824761E+001  0.3574935E+02  0.7546771E-02  0.1375370E+00
          2   -1    0    0  502    0  0.00000000000E+00  0.00000000000E+00  0.12870694466E+04  0.12870694466E+04  0.00000000000E+00 0. -1.
         -2   -1    0    0    0  501 -0.00000000000E+00 -0.00000000000E+00 -0.99335950689E+00  0.99335950689E+00  0.00000000000E+00 0.  1.
          1    1    1    2  502    0 -0.12554021611E+01  0.35727303645E+02  0.63022051872E+03  0.63123364809E+03  0.00000000000E+00 0. -1.
         -1    1    1    2    0  501  0.12554021611E+01 -0.35727303645E+02  0.65585556835E+03  0.65682915800E+03  0.00000000000E+00 0.  1.
</event>
<event>
 4    1  0.6824761E+001  0.2103202E+02  0.7546771E-02  0.1518808E+00
          2   -1    0    0  502    0  0.00000000000E+00  0.00000000000E+00  0.12197408586E+01  0.12197408586E+01  0.00000000000E+00 0. -1.
         -2   -1    0    0    0  501 -0.00000000000E+00 -0.00000000000E+00 -0.37267551488E+03  0.37267551488E+03  0.00000000000E+00 0.  1.
          1    1    1    2  502    0 -0.20127775504E+02 -0.61006869503E+01 -0.21638200075E+03  0.21740173867E+03  0.00000000000E+00 0.  1.
         -1    1    1    2    0  501  0.20127775504E+02  0.61006869503E+01 -0.15507377328E+03  0.15649351707E+03  0.00000000000E+00 0. -1.
</event>
<event>
 4    1  0.6824761E+001  0.5174998E+02  0.7546771E-02  0.1290758E+00
          2   -1    0    0  502    0  0.00000000000E+00  0.00000000000E+00  0.35327815006E+03  0.35327815006E+03  0.00000000000E+00 0. -1.
         -2   -1    0    0    0  501 -0.00000000000E+00 -0.00000000000E+00 -0.78399589522E+01  0.78399589522E+01  0.00000000000E+00 0.  1.
          1    1    1    2  502    0 -0.17536687761E+02 -0.48688040751E+02  0.13987841975E+03  0.14914433627E+03  0.00000000000E+00 0. -1.
         -1    1    1    2    0  501  0.17536687761E+02  0.48688040751E+02  0.20555977136E+03  0.21197377274E+03  0.00000000000E+00 0.  1.
</event>
<event>
 4    1  0.6824761E+001  0.2431138E+02  0.7546771E-02  0.1476656E+00
          2   -1    0    0  502    0  0.00000000000E+00  0.00000000000E+00  0.19178009582E+02  0.19178009582E+02  0.00000000000E+00 0. -1.
         -2   -1    0    0    0  501 -0.00000000000E+00 -0.00000000000E+00 -0.14905894167E+03  0.14905894167E+03  0.00000000000E+00 0.  1.
          1    1    1    2  502    0 -0.18914946673E+02 -0.15273107092E+02 -0.13985996604E+03  0.14195722282E+03  0.00000000000E+00 0.  1.
         -1    1    1    2    0  501  0.18914946673E+02  0.15273107092E+02  0.99790339573E+01  0.26279728435E+02  0.00000000000E+00 0. -1.
</event>
<event>
 4    1  0.6824761E+001  0.2381061E+02  0.7546771E-02  0.1482563E+00
          2   -1    0    0  502    0  0.00000000000E+00  0.00000000000E+00  0.27459295192E+02  0.27459295192E+02  0.00000000000E+00 0.  1.
         -2   -1    0    0    0  501 -0.00000000000E+00 -0.00000000000E+00 -0.21346048473E+02  0.21346048473E+02  0.00000000000E+00 0. -1.
          1    1    1    2  502    0 -0.19183252209E+02 -0.14104887325E+02 -0.13602209079E+01  0.23849427932E+02  0.00000000000E+00 0.  1.
         -1    1    1    2    0  501  0.19183252209E+02  0.14104887325E+02  0.74734676263E+01  0.24955915734E+02  0.00000000000E+00 0. -1.
</event>
<event>
 4    1  0.6824761E+001  0.3073516E+02  0.7546771E-02  0.1413313E+00
          2   -1    0    0  502    0  0.00000000000E+00  0.00000000000E+00  0.13596708127E+02  0.13596708127E+02  0.00000000000E+00 0. -1.
         -2   -1    0    0    0  501 -0.00000000000E+00 -0.00000000000E+00 -0.13069589256E+03  0.13069589256E+03  0.00000000000E+00 0.  1.
          1    1    1    2  502    0 -0.62768658966E+01 -0.30087387941E+02 -0.10792697380E+03  0.11221800939E+03  0.00000000000E+00 0.  1.
         -1    1    1    2    0  501  0.62768658966E+01  0.30087387941E+02 -0.91722106309E+01  0.32074591291E+02  0.00000000000E+00 0. -1.
</event>
<event>
 4    1  0.6824761E+001  0.4339578E+02  0.7546771E-02  0.1329659E+00
          2   -1    0    0  502    0  0.00000000000E+00  0.00000000000E+00  0.34949912296E+03  0.34949912296E+03  0.00000000000E+00 0.  1.
         -2   -1    0    0    0  501 -0.00000000000E+00 -0.00000000000E+00 -0.63756244055E+01  0.63756244055E+01  0.00000000000E+00 0. -1.
          1    1    1    2  502    0 -0.42989860693E+02 -0.59215919100E+01  0.24158524278E+03  0.24545187492E+03  0.00000000000E+00 0.  1.
         -1    1    1    2    0  501  0.42989860693E+02  0.59215919100E+01  0.10153825577E+03  0.11042287244E+03  0.00000000000E+00 0. -1.
</event>
<event>
 4    1  0.6824761E+001  0.2795005E+02  0.7546771E-02  0.1438291E+00
          2   -1    0    0  502    0  0.00000000000E+00  0.00000000000E+00  0.76421231079E+03  0.76421231079E+03  0.00000000000E+00 0.  1.
         -2   -1    0    0    0  501 -0.00000000000E+00 -0.00000000000E+00 -0.10242333356E+01  0.10242333356E+01  0.00000000000E+00 0. -1.
          1    1    1    2  502    0  0.13167678875E+02 -0.24653957431E+02  0.39849007798E+03  0.39946908220E+03  0.00000000000E+00 0.  1.
         -1    1    1    2    0  501 -0.13167678875E+02  0.24653957431E+02  0.36469799948E+03  0.36576746193E+03  0.00000000000E+00 0. -1.
</event>
<event>
 4    1  0.6824761E+001  0.2368537E+02  0.7546771E-02  0.1484067E+00
          2   -1    0    0  502    0  0.00000000000E+00  0.00000000000E+00  0.14331985266E+03  0.14331985266E+03  0.00000000000E+00 0.  1.
         -2   -1    0    0    0  501 -0.00000000000E+00 -0.00000000000E+00 -0.39905709613E+01  0.39905709613E+01  0.00000000000E+00 0. -1.
          1    1    1    2  502    0  0.23634696823E+02 -0.15485296041E+01  0.79847430981E+02  0.83286307831E+02  0.00000000000E+00 0.  1.
         -1    1    1    2    0  501 -0.23634696823E+02  0.15485296041E+01  0.59481850714E+02  0.64024115787E+02  0.00000000000E+00 0. -1.
</event>
<event>
 4    1  0.6824761E+001  0.2895029E+02  0.7546771E-02  0.1428943E+00
          2   -1    0    0  502    0  0.00000000000E+00  0.00000000000E+00  0.62812844187E+01  0.62812844187E+01  0.00000000000E+00 0. -1.
         -2   -1    0    0    0  501 -0.00000000000E+00 -0.00000000000E+00 -0.18330777258E+03  0.18330777258E+03  0.00000000000E+00 0.  1.
          1    1    1    2  502    0 -0.28639933839E+02 -0.42276860832E+01 -0.13796039290E+03  0.14096520546E+03  0.00000000000E+00 0.  1.
         -1    1    1    2    0  501  0.28639933839E+02  0.42276860832E+01 -0.39066095259E+02  0.48623851541E+02  0.00000000000E+00 0. -1.
</event>
<event>
 4    1  0.6824761E+001  0.2366315E+02  0.7546771E-02  0.1484335E+00
          2   -1    0    0  502    0  0.00000000000E+00  0.00000000000E+00  0.11539208128E+02  0.11539208128E+02  0.00000000000E+00 0.  1.
         -2   -1    0    0    0  501 -0.00000000000E+00 -0.00000000000E+00 -0.54637619554E+02  0.54637619554E+02  0.00000000000E+00 0. -1.
          1    1    1    2  502    0  0.12178039565E+02  0.20288914310E+02 -0.32616196096E+02  0.40295917155E+02  0.00000000000E+00 0. -1.
         -1    1    1    2    0  501 -0.12178039565E+02 -0.20288914310E+02 -0.10482215329E+02  0.25880910528E+02  0.00000000000E+00 0.  1.
</event>
<event>
 4    1  0.6824761E+001  0.2643331E+02  0.7546771E-02  0.1453385E+00
          2   -1    0    0  502    0  0.00000000000E+00  0.00000000000E+00  0.41180219968E+02  0.41180219968E+02  0.00000000000E+00 0. -1.
         -2   -1    0    0    0  501 -0.00000000000E+00 -0.00000000000E+00 -0.18108239936E+02  0.18108239936E+02  0.00000000000E+00 0.  1.
          1    1    1    2  502    0 -0.22087197681E+02 -0.14521559662E+02  0.18976800979E+02  0.32539805958E+02  0.00000000000E+00 0. -1.
         -1    1    1    2    0  501  0.22087197681E+02  0.14521559662E+02  0.40951790532E+01  0.26748653946E+02  0.00000000000E+00 0.  1.
</event>
<event>
 4    1  0.6824761E+001  0.3872002E+02  0.7546771E-02  0.1356154E+00
          2   -1    0    0  502    0  0.00000000000E+00  0.00000000000E+00  0.49063458914E+03  0.49063458914E+03  0.00000000000E+00 0.  1.
         -2   -1    0    0    0  501 -0.00000000000E+00 -0.00000000000E+00 -0.13015015748E+02  0.13015015748E+02  0.00000000000E+00 0. -1.
          1    1    1    2  502    0 -0.29158005476E+02 -0.25476475864E+02  0.45909763884E+03  0.46072755734E+03  0.00000000000E+00 0.  1.
         -1    1    1    2    0  501  0.29158005476E+02  0.25476475864E+02  0.18521934550E+02  0.42922047543E+02  0.00000000000E+00 0. -1.
</event>
<event>
 4    1  0.6824761E+001  0.2851437E+02  0.7546771E-02  0.1432962E+00
          2   -1    0    0  502    0  0.00000000000E+00  0.00000000000E+00  0.46085457474E+03  0.46085457474E+03  0.00000000000E+00 0. -1.
         -2   -1    0    0    0  501 -0.00000000000E+00 -0.00000000000E+00 -0.20642061607E+01  0.20642061607E+01  0.00000000000E+00 0.  1.
          1    1    1    2  502    0  0.52536871329E+01 -0.28026198236E+02  0.31762537451E+03  0.31890272428E+03  0.00000000000E+00 0. -1.
         -1    1    1    2    0  501 -0.52536871329E+01  0.28026198236E+02  0.14116499407E+03  0.14401605663E+03  0.00000000000E+00 0.  1.
</event>
<event>
 4    1  0.6824761E+001  0.2344690E+02  0.7546771E-02  0.1486961E+00
          2   -1    0    0  502    0  0.00000000000E+00  0.00000000000E+00  0.44699867770E+03  0.44699867770E+03  0.00000000000E+00 0. -1.
         -2   -1    0    0    0  501 -0.00000000000E+00 -0.00000000000E+00 -0.19097970113E+01  0.19097970113E+01  0.00000000000E+00 0.  1.
          1    1    1    2  502    0 -0.21106646134E+02  0.10211102196E+02  0.88619810944E+02  0.91669122451E+02  0.00000000000E+00 0.  1.
         -1    1    1    2    0  501  0.21106646134E+02 -0.10211102196E+02  0.35646906974E+03  0.35723935226E+03  0.00000000000E+00 0. -1.
</event>
<event>
 4    1  0.6824761E+001  0.2408348E+02  0.7546771E-02  0.1479323E+00
          2   -1    0    0  502    0  0.00000000000E+00  0.00000000000E+00  0.12678072147E+01  0.12678072147E+01  0.00000000000E+00 0. -1.
         -2   -1    0    0    0  501 -0.00000000000E+00 -0.00000000000E+00 -0.46583344852E+03  0.46583344852E+03  0.00000000000E+00 0.  1.
          1    1    1    2  502    0  0.95022347723E+01  0.22129656116E+02 -0.26353176601E+03  0.26462994132E+03  0.00000000000E+00 0.  1.
         -1    1    1    2    0  501 -0.95022347723E+01 -0.22129656116E+02 -0.20103387530E+03  0.20247131442E+03  0.00000000000E+00 0. -1.
</event>
<event>
 4    1  0.6824761E+001  0.2763746E+02  0.7546771E-02  0.1441308E+00
          2   -1    0    0  502    0  0.00000000000E+00  0.00000000000E+00  0.95433074166E+00  0.95433074166E+00  0.00000000000E+00 0. -1.
         -2   -1    0    0    0  501 -0.00000000000E+00 -0.00000000000E+00 -0.80128650195E+03  0.80128650195E+03  0.00000000000E+00 0.  1.
          1    1    1    2  502    0 -0.11561118510E+02 -0.25103179235E+02 -0.38668870744E+03  0.38767510306E+03  0.00000000000E+00 0.  1.
         -1    1    1    2    0  501  0.11561118510E+02  0.25103179235E+02 -0.41364346377E+03  0.41456572963E+03  0.00000000000E+00 0. -1.
</event>
<event>
 4    1  0.6824761E+001  0.2088904E+02  0.7546771E-02  0.1520855E+00
          2   -1    0    0  502    0  0.00000000000E+00  0.00000000000E+00  0.13169314078E+04  0.13169314078E+04  0.00000000000E+00 0. -1.
         -2   -1    0    0    0  501 -0.00000000000E+00 -0.00000000000E+00 -0.35580725339E+00  0.35580725339E+00  0.00000000000E+00 0.  1.
          1    1    1    2  502    0 -0.77127103700E+00 -0.20874796555E+02  0.83100520875E+03  0.83126771197E+03  0.00000000000E+00 0. -1.
         -1    1    1    2    0  501  0.77127103700E+00  0.20874796555E+02  0.48557039175E+03  0.48601950304E+03  0.00000000000E+00 0.  1.
</event>
<event>
 4    1  0.6824761E+001  0.2621072E+02  0.7546771E-02  0.1455702E+00
          2   -1    0    0  502    0  0.00000000000E+00  0.00000000000E+00  0.10410736986E+04  0.10410736986E+04  0.00000000000E+00 0.  1.
         -2   -1    0    0    0  501 -0.00000000000E+00 -0.00000000000E+00 -0.68023112533E+00  0.68023112533E+00  0.00000000000E+00 0. -1.
          1    1    1    2  502    0 -0.16119657776E+02 -0.20667812614E+02  0.43014020728E+03  0.43093804632E+03  0.00000000000E+00 0. -1.
         -1    1    1    2    0  501  0.16119657776E+02  0.20667812614E+02  0.61025326019E+03  0.61081588340E+03  0.00000000000E+00 0.  1.
</event>
<event>
 4    1  0.6824761E+001  0.2402679E+02  0.7546771E-02  0.1479992E+00
          2   -1    0    0  502    0  0.00000000000E+00  0.00000000000E+00  0.30901275780E+02  0.30901275780E+02  0.00000000000E+00 0.  1.
         -2   -1    0    0    0  501 -0.00000000000E+00 -0.00000000000E+00 -0.18828378522E+02  0.18828378522E+02  0.00000000000E+00 0. -1.
          1    1    1    2  502    0  0.20699610631E+02 -0.12198875531E+02  0.38413493099E+01  0.24331921605E+02  0.00000000000E+00 0. -1.
         -1    1    1    2    0  501 -0.20699610631E+02  0.12198875531E+02  0.82315479478E+01  0.25397732696E+02  0.00000000000E+00 0.  1.
</event>
<event>
 4    1  0.6824761E+001  0.4728996E+02  0.7546771E-02  0.1310370E+00
          2   -1    0    0  502    0  0.00000000000E+00  0.00000000000E+00  0.97289100380E+03  0.97289100380E+03  0.00000000000E+00 0.  1.
         -2   -1    0    0    0  501 -0.00000000000E+00 -0.00000000000E+00 -0.56791053371E+01  0.56791053371E+01  0.00000000000E+00 0. -1.
          1    1    1    2  502    0  0.23279079418E+02  0.41163392382E+02  0.10611261097E+03  0.11617326120E+03  0.00000000000E+00 0. -1.
         -1    1    1    2    0  501 -0.23279079418E+02 -0.41163392382E+02  0.86109928749E+03  0.86239684794E+03  0.00000000000E+00 0.  1.
</event>
<event>
 4    1  0.6824761E+001  0.2212804E+02  0.7546771E-02  0.1503748E+00
          2   -1    0    0  502    0  0.00000000000E+00  0.00000000000E+00  0.64538452159E+03  0.64538452159E+03  0.00000000000E+00 0.  1.
         -2   -1    0    0    0  501 -0.00000000000E+00 -0.00000000000E+00 -0.78686178969E+00  0.78686178969E+00  0.00000000000E+00 0. -1.
          1    1    1    2  502    0  0.15963981197E+02  0.15323236880E+02  0.26117171574E+03  0.26210745008E+03  0.00000000000E+00 0. -1.
         -1    1    1    2    0  501 -0.15963981197E+02 -0.15323236880E+02  0.38342594406E+03  0.38406393330E+03  0.00000000000E+00 0.  1.
</event>
<event>
 4    1  0.6824761E+001  0.2099865E+02  0.7546771E-02  0.1519284E+00
          2   -1    0    0  502    0  0.00000000000E+00  0.00000000000E+00  0.39233655675E+03  0.39233655675E+03  0.00000000000E+00 0.  1.
         -2   -1    0    0    0  501 -0.00000000000E+00 -0.00000000000E+00 -0.11489010306E+01  0.11489010306E+01  0.00000000000E+00 0. -1.
          1    1    1    2  502    0  0.16560023400E+02 -0.12911588614E+02  0.16656595934E+03  0.16788437184E+03  0.00000000000E+00 0.  1.
         -1    1    1    2    0  501 -0.16560023400E+02  0.12911588614E+02  0.22462169638E+03  0.22560108594E+03  0.00000000000E+00 0. -1.
</event>
<event>
 4    1  0.6824761E+001  0.2160169E+02  0.7546771E-02  0.1510845E+00
          2   -1    0    0  502    0  0.00000000000E+00  0.00000000000E+00  0.12564590976E+04  0.12564590976E+04  0.00000000000E+00 0. -1.
         -2   -1    0    0    0  501 -0.00000000000E+00 -0.00000000000E+00 -0.39272842263E+00  0.39272842263E+00  0.00000000000E+00 0.  1.
          1    1    1    2  502    0  0.39411168429E+01  0.21239129098E+02  0.77452592500E+03  0.77482710426E+03  0.00000000000E+00 0.  1.
         -1    1    1    2    0  501 -0.39411168429E+01 -0.21239129098E+02  0.48154044414E+03  0.48202472172E+03  0.00000000000E+00 0. -1.
</event>
<event>
 4    1  0.6824761E+001  0.2216625E+02  0.7546771E-02  0.1503242E+00
          2   -1    0    0  502    0  0.00000000000E+00  0.00000000000E+00  0.60366478506E+03  0.60366478506E+03  0.00000000000E+00 0.  1.
         -2   -1    0    0    0  501 -0.00000000000E+00 -0.00000000000E+00 -0.82979438729E+00  0.82979438729E+00  0.00000000000E+00 0. -1.
          1    1    1    2  502    0  0.76725501411E+01  0.20796024505E+02  0.34320518899E+03  0.34392025879E+03  0.00000000000E+00 0.  1.
         -1    1    1    2    0  501 -0.76725501411E+01 -0.20796024505E+02  0.25962980169E+03  0.26057432065E+03  0.00000000000E+00 0. -1.
</event>
<event>
 4    1  0.6824761E+001  0.2476093E+02  0.7546771E-02  0.1471496E+00
          2   -1    0    0  502    0  0.00000000000E+00  0.00000000000E+00  0.29314763783E+01  0.29314763783E+01  0.00000000000E+00 0.  1.
         -2   -1    0    0    0  501 -0.00000000000E+00 -0.00000000000E+00 -0.24407725472E+03  0.24407725472E+03  0.00000000000E+00 0. -1.
          1    1    1    2  502    0  0.18098832036E+02 -0.16897814377E+02 -0.16729597164E+03  0.16911843773E+03  0.00000000000E+00 0. -1.
         -1    1    1    2    0  501 -0.18098832036E+02  0.16897814377E+02 -0.73849806700E+02  0.77890293371E+02  0.00000000000E+00 0.  1.
</event>
<event>
 4    1  0.6824761E+001  0.2017102E+02  0.7546771E-02  0.1531437E+00
          2   -1    0    0  502    0  0.00000000000E+00  0.00000000000E+00  0.11593071002E+03  0.11593071002E+03  0.00000000000E+00 0.  1.
         -2   -1    0    0    0  501 -0.00000000000E+00 -0.00000000000E+00 -0.45594451866E+01  0.45594451866E+01  0.00000000000E+00 0. -1.
          1    1    1    2  502    0 -0.66582478012E+01  0.19040427851E+02  0.26776925295E+02  0.33524228325E+02  0.00000000000E+00 0. -1.
         -1    1    1    2    0  501  0.66582478012E+01 -0.19040427851E+02  0.84594339540E+02  0.86965926883E+02  0.00000000000E+00 0.  1.
</event>
<event>
 4    1  0.6824761E+001  0.2500878E+02  0.7546771E-02  0.1468705E+00
          2   -1    0    0  502    0  0.00000000000E+00  0.00000000000E+00  0.17149587151E+03  0.17149587151E+03  0.00000000000E+00 0.  1.
         -2   -1    0    0    0  501 -0.00000000000E+00 -0.00000000000E+00 -0.37160012513E+01  0.37160012513E+01  0.00000000000E+00 0. -1.
          1    1    1    2  502    0  0.23460575970E+02  0.86625757860E+01  0.71948812477E+02  0.76171323087E+02  0.00000000000E+00 0. -1.
         -1    1    1    2    0  501 -0.23460575970E+02 -0.86625757860E+01  0.95831057783E+02  0.99040549675E+02  0.00000000000E+00 0.  1.
</event>
<event>
 4    1  0.6824761E+001  0.2239743E+02  0.7546771E-02  0.1500206E+00
          2   -1    0    0  502    0  0.00000000000E+00  0.00000000000E+00  0.94965592803E+03  0.94965592803E+03  0.00000000000E+00 0.  1.
         -2   -1    0    0    0  501 -0.00000000000E+00 -0.00000000000E+00 -0.57597205091E+00  0.57597205091E+00  0.00000000000E+00 0. -1.
          1    1    1    2  502    0  0.22265267744E+02 -0.24295907410E+01  0.33776405736E+03  0.33850583969E+03  0.00000000000E+00 0. -1.
         -1    1    1    2    0  501 -0.22265267744E+02  0.24295907410E+01  0.61131589862E+03  0.61172606039E+03  0.00000000000E+00 0.  1.
</event>
<event>
 4    1  0.6824761E+001  0.2048426E+02  0.7546771E-02  0.1526757E+00
          2   -1    0    0  502    0  0.00000000000E+00  0.00000000000E+00  0.50720890523E+02  0.50720890523E+02  0.00000000000E+00 0.  1.
         -2   -1    0    0    0  501 -0.00000000000E+00 -0.00000000000E+00 -0.97238129144E+01  0.97238129144E+01  0.00000000000E+00 0. -1.
          1    1    1    2  502    0 -0.59552685680E+01  0.19599481743E+02  0.32173146001E+02  0.38140742414E+02  0.00000000000E+00 0.  1.
         -1    1    1    2    0  501  0.59552685680E+01 -0.19599481743E+02  0.88239316082E+01  0.22303961024E+02  0.00000000000E+00 0. -1.
</event>
<event>
 4    1  0.6824761E+001  0.2150570E+02  0.7546771E-02  0.1512166E+00
          2   -1    0    0  502    0  0.00000000000E+00  0.00000000000E+00  0.26767063714E+03  0.26767063714E+03  0.00000000000E+00 0.  1.
         -2   -1    0    0    0  501 -0.00000000000E+00 -0.00000000000E+00 -0.24152287703E+01  0.24152287703E+01  0.00000000000E+00 0. -1.
          1    1    1    2  502    0 -0.73679549354E+00  0.21493079515E+02  0.60584993436E+02  0.64288698574E+02  0.00000000000E+00 0. -1.
         -1    1    1    2    0  501  0.73679549354E+00 -0.21493079515E+02  0.20467041493E+03  0.20579716733E+03  0.00000000000E+00 0.  1.
</event>
<event>
 4    1  0.6824761E+001  0.2660088E+02  0.7546771E-02  0.1451659E+00
          2   -1    0    0  502    0  0.00000000000E+00  0.00000000000E+00  0.48172264776E+01  0.48172264776E+01  0.00000000000E+00 0. -1.
         -2   -1    0    0    0  501 -0.00000000000E+00 -0.00000000000E+00 -0.15210110110E+03  0.15210110110E+03  0.00000000000E+00 0.  1.
          1    1    1    2  502    0 -0.65452321520E+01 -0.25783076141E+02 -0.88163111741E+02  0.92088768865E+02  0.00000000000E+00 0.  1.
         -1    1    1    2    0  501  0.65452321520E+01  0.25783076141E+02 -0.59120762881E+02  0.64829558712E+02  0.00000000000E+00 0. -1.
</event>
<event>
 4    1  0.6824761E+001  0.2018769E+02  0.7546771E-02  0.1531186E+00
          2   -1    0    0  502    0  0.00000000000E+00  0.00000000000E+00  0.82843052886E+01  0.82843052886E+01  0.00000000000E+00 0.  1.
         -2   -1    0    0    0  501 -0.00000000000E+00 -0.00000000000E+00 -0.70447930911E+02  0.70447930911E+02  0.00000000000E+00 0. -1.
          1    1    1    2  502    0  0.18614137406E+02 -0.78138851874E+01 -0.94594981099E+01  0.22294057899E+02  0.00000000000E+00 0.  1.
         -1    1    1    2    0  501 -0.18614137406E+02  0.78138851874E+01 -0.52704127513E+02  0.56438178301E+02  0.00000000000E+00 0. -1.
</event>
<event>
 4    1  0.6824761E+001  0.2099649E+02  0.7546771E-02  0.1519315E+00
          2   -1    0    0  502    0  0.00000000000E+00  0.00000000000E+00  0.57384770323E+03  0.57384770323E+03  0.00000000000E+00 0.  1.
         -2   -1    0    0    0  501 -0.00000000000E+00 -0.00000000000E+00 -0.85745016517E+00  0.85745016517E+00  0.00000000000E+00 0. -1.
          1    1    1    2  502    0  0.16775061267E+02 -0.12627346832E+02  0.19380816752E+03  0.19494219237E+03  0.00000000000E+00 0. -1.
         -1    1    1    2    0  501 -0.16775061267E+02  0.12627346832E+02  0.37918208554E+03  0.37976296102E+03  0.00000000000E+00 0.  1.
</event>
<event>
 4    1  0.6824761E+001  0.2825639E+02  0.7546771E-02  0.1435380E+00
          2   -1    0    0  502    0  0.00000000000E+00  0.00000000000E+00  0.10969975937E+04  0.10969975937E+04  0.00000000000E+00 0. -1.
         -2   -1    0    0    0  501 -0.00000000000E+00 -0.00000000000E+00 -0.75018828934E+00  0.75018828934E+00  0.00000000000E+00 0.  1.
          1    1    1    2  502    0 -0.25913166933E+02 -0.11266374194E+02  0.64288810611E+03  0.64350877258E+03  0.00000000000E+00 0.  1.
         -1    1    1    2    0  501  0.25913166933E+02  0.11266374194E+02  0.45335929928E+03  0.45423900939E+03  0.00000000000E+00 0. -1.
</event>
<event>
 4    1  0.6824761E+001  0.2426822E+02  0.7546771E-02  0.1477159E+00
          2   -1    0    0  502    0  0.00000000000E+00  0.00000000000E+00  0.12251727390E+02  0.12251727390E+02  0.00000000000E+00 0. -1.
         -2   -1    0    0    0  501 -0.00000000000E+00 -0.00000000000E+00 -0.56012671373E+02  0.56012671373E+02  0.00000000000E+00 0.  1.
          1    1    1    2  502    0  0.24223423851E+02 -0.14738785767E+01 -0.90278735973E+01  0.25893031549E+02  0.00000000000E+00 0. -1.
         -1    1    1    2    0  501 -0.24223423851E+02  0.14738785767E+01 -0.34733070386E+02  0.42371367214E+02  0.00000000000E+00 0.  1.
</event>
<event>
 4    1  0.6824761E+001  0.2025897E+02  0.7546771E-02  0.1530113E+00
          2   -1    0    0  502    0  0.00000000000E+00  0.00000000000E+00  0.78551528198E+01  0.78551528198E+01  0.00000000000E+00 0. -1.
         -2   -1    0    0    0  501 -0.00000000000E+00 -0.00000000000E+00 -0.64508756527E+02  0.64508756527E+02  0.00000000000E+00 0.  1.
          1    1    1    2  502    0  0.19354867420E+02  0.59845457384E+01 -0.44099992478E+02  0.48530763615E+02  0.00000000000E+00 0.  1.
         -1    1    1    2    0  501 -0.19354867420E+02 -0.59845457384E+01 -0.12553611229E+02  0.23833145731E+02  0.00000000000E+00 0. -1.
</event>
<event>
 4    1  0.6824761E+001  0.2335667E+02  0.7546771E-02  0.1488067E+00
          2   -1    0    0  502    0  0.00000000000E+00  0.00000000000E+00  0.60833927489E+01  0.60833927489E+01  0.00000000000E+00 0. -1.
         -2   -1    0    0    0  501 -0.00000000000E+00 -0.00000000000E+00 -0.90132141915E+02  0.90132141915E+02  0.00000000000E+00 0.  1.
          1    1    1    2  502    0 -0.10677480725E+02  0.20773190715E+02 -0.45446905176E+02  0.51097507152E+02  0.00000000000E+00 0.  1.
         -1    1    1    2    0  501  0.10677480725E+02 -0.20773190715E+02 -0.38601843990E+02  0.45118027512E+02  0.00000000000E+00 0. -1.
</event>
<event>
 4    1  0.6824761E+001  0.2303161E+02  0.7546771E-02  0.1492102E+00
          2   -1    0    0  502    0  0.00000000000E+00  0.00000000000E+00  0.46790014691E+03  0.46790014691E+03  0.00000000000E+00 0. -1.
         -2   -1    0    0    0  501 -0.00000000000E+00 -0.00000000000E+00 -0.11947843765E+01  0.11947843765E+01  0.00000000000E+00 0.  1.
          1    1    1    2  502    0  0.23031044595E+02  0.16142071228E+00  0.18031600392E+03  0.18178095704E+03  0.00000000000E+00 0.  1.
         -1    1    1    2    0  501 -0.23031044595E+02 -0.16142071228E+00  0.28638935861E+03  0.28731397425E+03  0.00000000000E+00 0. -1.
</event>
<event>
 4    1  0.6824761E+001  0.2185273E+02  0.7546771E-02  0.1507430E+00
          2   -1    0    0  502    0  0.00000000000E+00  0.00000000000E+00  0.13706085900E+04  0.13706085900E+04  0.00000000000E+00 0. -1.
         -2   -1    0    0    0  501 -0.00000000000E+00 -0.00000000000E+00 -0.12567088128E+01  0.12567088128E+01  0.00000000000E+00 0.  1.
          1    1    1    2  502    0 -0.38212930086E+01  0.21516032009E+02  0.12678216602E+04  0.12680099779E+04  0.00000000000E+00 0. -1.
         -1    1    1    2    0  501  0.38212930086E+01 -0.21516032009E+02  0.10153022097E+03  0.10385532092E+03  0.00000000000E+00 0.  1.
</event>
<event>
 4    1  0.6824761E+001  0.2017141E+02  0.7546771E-02  0.1531431E+00
          2   -1    0    0  502    0  0.00000000000E+00  0.00000000000E+00  0.11440545915E+03  0.11440545915E+03  0.00000000000E+00 0.  1.
         -2   -1    0    0    0  501 -0.00000000000E+00 -0.00000000000E+00 -0.36288997356E+01  0.36288997356E+01  0.00000000000E+00 0. -1.
          1    1    1    2  502    0 -0.43771165999E+01  0.19690773701E+02  0.47053606516E+02  0.51194995897E+02  0.00000000000E+00 0. -1.
         -1    1    1    2    0  501  0.43771165999E+01 -0.19690773701E+02  0.63722952901E+02  0.66839362991E+02  0.00000000000E+00 0.  1.
</event>
<event>
 4    1  0.6824761E+001  0.2339841E+02  0.7546771E-02  0.1487555E+00
          2   -1    0    0  502    0  0.00000000000E+00  0.00000000000E+00  0.10296033157E+02  0.10296033157E+02  0.00000000000E+00 0.  1.
         -2   -1    0    0    0  501 -0.00000000000E+00 -0.00000000000E+00 -0.55711461261E+02  0.55711461261E+02  0.00000000000E+00 0. -1.
          1    1    1    2  502    0  0.22702951831E+02 -0.56622760060E+01 -0.15664734868E+02  0.28157935114E+02  0.00000000000E+00 0.  1.
         -1    1    1    2    0  501 -0.22702951831E+02  0.56622760060E+01 -0.29750693237E+02  0.37849559304E+02  0.00000000000E+00 0. -1.
</event>
<event>
 4    1  0.6824761E+001  0.2538651E+02  0.7546771E-02  0.1464526E+00
          2   -1    0    0  502    0  0.00000000000E+00  0.00000000000E+00  0.71770285113E+03  0.71770285113E+03  0.00000000000E+00 0.  1.
         -2   -1    0    0    0  501 -0.00000000000E+00 -0.00000000000E+00 -0.89845819745E+00  0.89845819745E+00  0.00000000000E+00 0. -1.
          1    1    1    2  502    0 -0.24085475126E+02  0.80227516611E+01  0.36678924178E+03  0.36766672754E+03  0.00000000000E+00 0. -1.
         -1    1    1    2    0  501  0.24085475126E+02 -0.80227516611E+01  0.35001515116E+03  0.35093458179E+03  0.00000000000E+00 0.  1.
</event>
<event>
 4    1  0.6824761E+001  0.2389762E+02  0.7546771E-02  0.1481524E+00
          2   -1    0    0  502    0  0.00000000000E+00  0.00000000000E+00  0.27322650202E+01  0.27322650202E+01  0.00000000000E+00 0.  1.
         -2   -1    0    0    0  501 -0.00000000000E+00 -0.00000000000E+00 -0.32459166007E+03  0.32459166007E+03  0.00000000000E+00 0. -1.
          1    1    1    2  502    0 -0.23890605738E+02 -0.57898312687E+00 -0.63272114956E+02  0.67634730686E+02  0.00000000000E+00 0.  1.
         -1    1    1    2    0  501  0.23890605738E+02  0.57898312687E+00 -0.25858728010E+03  0.25968919441E+03  0.00000000000E+00 0. -1.
</event>
<event>
 4    1  0.6824761E+001  0.3759184E+02  0.7546771E-02  0.1363206E+00
          2   -1    0    0  502    0  0.00000000000E+00  0.00000000000E+00  0.58029584275E+03  0.58029584275E+03  0.00000000000E+00 0.  1.
         -2   -1    0    0    0  501 -0.00000000000E+00 -0.00000000000E+00 -0.26492889670E+01  0.26492889670E+01  0.00000000000E+00 0. -1.
          1    1    1    2  502    0 -0.31807512695E+02  0.20035681216E+02  0.20596941215E+03  0.20937178685E+03  0.00000000000E+00 0. -1.
         -1    1    1    2    0  501  0.31807512695E+02 -0.20035681216E+02  0.37167714163E+03  0.37357334487E+03  0.00000000000E+00 0.  1.
</event>
<event>
 4    1  0.6824761E+001  0.5645311E+02  0.7546771E-02  0.1272384E+00
          2   -1    0    0  502    0  0.00000000000E+00  0.00000000000E+00  0.67481102186E+03  0.67481102186E+03  0.00000000000E+00 0.  1.
         -2   -1    0    0    0  501 -0.00000000000E+00 -0.00000000000E+00 -0.47252742468E+01  0.47252742468E+01  0.00000000000E+00 0. -1.
          1    1    1    2  502    0 -0.52895077802E+02  0.19724727242E+02  0.32716770970E+03  0.33200250660E+03  0.00000000000E+00 0.  1.
         -1    1    1    2    0  501  0.52895077802E+02 -0.19724727242E+02  0.34291803792E+03  0.34753378951E+03  0.00000000000E+00 0. -1.
</event>
<event>
 4    1  0.6824761E+001  0.2224628E+02  0.7546771E-02  0.1502186E+00
          2   -1    0    0  502    0  0.00000000000E+00  0.00000000000E+00  0.18191993083E+01  0.18191993083E+01  0.00000000000E+00 0. -1.
         -2   -1    0    0    0  501 -0.00000000000E+00 -0.00000000000E+00 -0.28362484992E+03  0.28362484992E+03  0.00000000000E+00 0.  1.
          1    1    1    2  502    0 -0.18075671303E+02 -0.12967918573E+02 -0.16974614584E+03  0.17119769517E+03  0.00000000000E+00 0.  1.
         -1    1    1    2    0  501  0.18075671303E+02  0.12967918573E+02 -0.11205950478E+03  0.11424635406E+03  0.00000000000E+00 0. -1.
</event>
<event>
 4    1  0.6824761E+001  0.2379049E+02  0.7546771E-02  0.1482803E+00
          2   -1    0    0  502    0  0.00000000000E+00  0.00000000000E+00  0.64931424957E+01  0.64931424957E+01  0.00000000000E+00 0.  1.
         -2   -1    0    0    0  501 -0.00000000000E+00 -0.00000000000E+00 -0.87827251039E+02  0.87827251039E+02  0.00000000000E+00 0. -1.
          1    1    1    2  502    0 -0.20594193307E+02 -0.11910778106E+02 -0.36577917265E+02  0.43634063121E+02  0.00000000000E+00 0. -1.
         -1    1    1    2    0  501  0.20594193307E+02  0.11910778106E+02 -0.44756191278E+02  0.50686330413E+02  0.00000000000E+00 0.  1.
</event>
<event>
 4    1  0.6824761E+001  0.2323302E+02  0.7546771E-02  0.1489593E+00
          2   -1    0    0  502    0  0.00000000000E+00  0.00000000000E+00  0.55966800951E+02  0.55966800951E+02  0.00000000000E+00 0.  1.
         -2   -1    0    0    0  501 -0.00000000000E+00 -0.00000000000E+00 -0.99234905664E+01  0.99234905664E+01  0.00000000000E+00 0. -1.
          1    1    1    2  502    0  0.15858194536E+02  0.16979130510E+02  0.28545412136E+02  0.36805077921E+02  0.00000000000E+00 0.  1.
         -1    1    1    2    0  501 -0.15858194536E+02 -0.16979130510E+02  0.17497898249E+02  0.29085213596E+02  0.00000000000E+00 0. -1.
</event>
<event>
 4    1  0.6824761E+001  0.2806935E+02  0.7546771E-02  0.1437152E+00
          2   -1    0    0  502    0  0.00000000000E+00  0.00000000000E+00  0.29716532871E+02  0.29716532871E+02  0.00000000000E+00 0.  1.
         -2   -1    0    0    0  501 -0.00000000000E+00 -0.00000000000E+00 -0.28304769807E+02  0.28304769807E+02  0.00000000000E+00 0. -1.
          1    1    1    2  502    0  0.15948085859E+02 -0.23098635097E+02 -0.65922531590E+01  0.28833074544E+02  0.00000000000E+00 0. -1.
         -1    1    1    2    0  501 -0.15948085859E+02  0.23098635097E+02  0.80040162227E+01  0.29188228134E+02  0.00000000000E+00 0.  1.
</event>
<event>
 4    1  0.6824761E+001  0.2578598E+02  0.7546771E-02  0.1460200E+00
          2   -1    0    0  502    0  0.00000000000E+00  0.00000000000E+00  0.14218983228E+04  0.14218983228E+04  0.00000000000E+00 0.  1.
         -2   -1    0    0    0  501 -0.00000000000E+00 -0.00000000000E+00 -0.21542323160E+01  0.21542323160E+01  0.00000000000E+00 0. -1.
          1    1    1    2  502    0  0.23447953090E+02  0.10728948412E+02  0.79848768206E+02  0.83909133127E+02  0.00000000000E+00 0. -1.
         -1    1    1    2    0  501 -0.23447953090E+02 -0.10728948412E+02  0.13398953223E+04  0.13401434220E+04  0.00000000000E+00 0.  1.
</event>
<event>
 4    1  0.6824761E+001  0.2713125E+02  0.7546771E-02  0.1446294E+00
          2   -1    0    0  502    0  0.00000000000E+00  0.00000000000E+00  0.17944193465E+03  0.17944193465E+03  0.00000000000E+00 0. -1.
         -2   -1    0    0    0  501 -0.00000000000E+00 -0.00000000000E+00 -0.13563211292E+02  0.13563211292E+02  0.00000000000E+00 0.  1.
          1    1    1    2  502    0  0.17406420881E+02  0.20811564521E+02  0.23409162813E+01  0.27232050872E+02  0.00000000000E+00 0.  1.
         -1    1    1    2    0  501 -0.17406420881E+02 -0.20811564521E+02  0.16353780708E+03  0.16577309507E+03  0.00000000000E+00 0. -1.
</event>
<event>
 4    1  0.6824761E+001  0.2958302E+02  0.7546771E-02  0.1423255E+00
          2   -1    0    0  502    0  0.00000000000E+00  0.00000000000E+00  0.24053741838E+04  0.24053741838E+04  0.00000000000E+00 0. -1.
         -2   -1    0    0    0  501 -0.00000000000E+00 -0.00000000000E+00 -0.36619453059E+00  0.36619453059E+00  0.00000000000E+00 0.  1.
          1    1    1    2  502    0  0.15274098382E+02 -0.25334897563E+02  0.11059130787E+04  0.11063086788E+04  0.00000000000E+00 0. -1.
         -1    1    1    2    0  501 -0.15274098382E+02  0.25334897563E+02  0.12990949106E+04  0.12994316995E+04  0.00000000000E+00 0.  1.
</event>
<event>
 4    1  0.6824761E+001  0.3906623E+02  0.7546771E-02  0.1354046E+00
          2   -1    0    0  502    0  0.00000000000E+00  0.00000000000E+00  0.39435248270E+02  0.39435248270E+02  0.00000000000E+00 0. -1.
         -2   -1    0    0    0  501 -0.00000000000E+00 -0.00000000000E+00 -0.40446241839E+02  0.40446241839E+02  0.00000000000E+00 0.  1.
          1    1    1    2  502    0  0.22875537748E+02 -0.31668280343E+02 -0.88029909500E+01  0.40045759536E+02  0.00000000000E+00 0. -1.
         -1    1    1    2    0  501 -0.22875537748E+02  0.31668280343E+02  0.77919973808E+01  0.39835730573E+02  0.00000000000E+00 0.  1.
</event>
<event>
 4    1  0.6824761E+001  0.2909290E+02  0.7546771E-02  0.1427646E+00
          2   -1    0    0  502    0  0.00000000000E+00  0.00000000000E+00  0.19598574379E+03  0.19598574379E+03  0.00000000000E+00 0.  1.
         -2   -1    0    0    0  501 -0.00000000000E+00 -0.00000000000E+00 -0.43705575053E+01  0.43705575053E+01  0.00000000000E+00 0. -1.
          1    1    1    2  502    0  0.28636087296E+02 -0.51353160419E+01  0.10672332258E+03  0.11061765026E+03  0.00000000000E+00 0. -1.
         -1    1    1    2    0  501 -0.28636087296E+02  0.51353160419E+01  0.84891863707E+02  0.89738651038E+02  0.00000000000E+00 0.  1.
</event>
<event>
 4    1  0.6824761E+001  0.3890227E+02  0.7546771E-02  0.1355041E+00
          2   -1    0    0  502    0  0.00000000000E+00  0.00000000000E+00  0.42131735168E+03  0.42131735168E+03  0.00000000000E+00 0.  1.
         -2   -1    0    0    0  501 -0.00000000000E+00 -0.00000000000E+00 -0.36534440987E+01  0.36534440987E+01  0.00000000000E+00 0. -1.
          1    1    1    2  502    0  0.25771922985E+01  0.38816808856E+02  0.23638027174E+03  0.23956005393E+03  0.00000000000E+00 0.  1.
         -1    1    1    2    0  501 -0.25771922985E+01 -0.38816808856E+02  0.18128363584E+03  0.18541074185E+03  0.00000000000E+00 0. -1.
</event>
<event>
 4    1  0.6824761E+001  0.4511446E+02  0.7546771E-02  0.1320868E+00
          2   -1    0    0  502    0  0.00000000000E+00  0.00000000000E+00  0.52994779565E+03  0.52994779565E+03  0.00000000000E+00 0. -1.
         -2   -1    0    0    0  501 -0.00000000000E+00 -0.00000000000E+00 -0.43303620498E+01  0.43303620498E+01  0.00000000000E+00 0.  1.
          1    1    1    2  502    0  0.41691128329E+02 -0.17238463759E+02  0.17296863566E+03  0.17875531806E+03  0.00000000000E+00 0.  1.
         -1    1    1    2    0  501 -0.41691128329E+02  0.17238463759E+02  0.35264879794E+03  0.35552283963E+03  0.00000000000E+00 0. -1.
</event>
<event>
 4    1  0.6824761E+001  0.3472206E+02  0.7546771E-02  0.1382528E+00
          2   -1    0    0  502    0  0.00000000000E+00  0.00000000000E+00  0.10599303909E+04  0.10599303909E+04  0.00000000000E+00 0. -1.
         -2   -1    0    0    0  501 -0.00000000000E+00 -0.00000000000E+00 -0.12396605509E+01  0.12396605509E+01  0.00000000000E+00 0.  1.
          1    1    1    2  502    0  0.13979539726E+02  0.31783548901E+02  0.68169593036E+03  0.68257963856E+03  0.00000000000E+00 0. -1.
         -1    1    1    2    0  501 -0.13979539726E+02 -0.31783548901E+02  0.37699480000E+03  0.37859041290E+03  0.00000000000E+00 0.  1.
</event>
<event>
 4    1  0.6824761E+001  0.3257011E+02  0.7546771E-02  0.1398501E+00
          2   -1    0    0  502    0  0.00000000000E+00  0.00000000000E+00  0.33837232522E+03  0.33837232522E+03  0.00000000000E+00 0. -1.
         -2   -1    0    0    0  501 -0.00000000000E+00 -0.00000000000E+00 -0.34268042703E+01  0.34268042703E+01  0.00000000000E+00 0.  1.
          1    1    1    2  502    0  0.27749617500E+02 -0.17052004112E+02  0.11760620042E+03  0.12203290742E+03  0.00000000000E+00 0. -1.
         -1    1    1    2    0  501 -0.27749617500E+02  0.17052004112E+02  0.21733932052E+03  0.21976622206E+03  0.00000000000E+00 0.  1.
</event>
<event>
 4    1  0.6824761E+001  0.3364052E+02  0.7546771E-02  0.1390381E+00
          2   -1    0    0  502    0  0.00000000000E+00  0.00000000000E+00  0.38635388969E+03  0.38635388969E+03  0.00000000000E+00 0. -1.
         -2   -1    0    0    0  501 -0.00000000000E+00 -0.00000000000E+00 -0.29548846587E+01  0.29548846587E+01  0.00000000000E+00 0.  1.
          1    1    1    2  502    0  0.32979957873E+02  0.66337744159E+01  0.20986881733E+03  0.21254788889E+03  0.00000000000E+00 0. -1.
         -1    1    1    2    0  501 -0.32979957873E+02 -0.66337744159E+01  0.17353018770E+03  0.17676088546E+03  0.00000000000E+00 0.  1.
</event>
<event>
 4    1  0.6824761E+001  0.2692682E+02  0.7546771E-02  0.1448345E+00
          2   -1    0    0  502    0  0.00000000000E+00  0.00000000000E+00  0.20891427113E+04  0.20891427113E+04  0.00000000000E+00 0. -1.
         -2   -1    0    0    0  501 -0.00000000000E+00 -0.00000000000E+00 -0.38971733335E+00  0.38971733335E+00  0.00000000000E+00 0.  1.
          1    1    1    2  502    0  0.30564014550E+01 -0.26752790448E+02  0.69871418310E+03  0.69923283894E+03  0.00000000000E+00 0.  1.
         -1    1    1    2    0  501 -0.30564014550E+01  0.26752790448E+02  0.13900388108E+04  0.13902995897E+04  0.00000000000E+00 0. -1.
</event>
<event>
 4    1  0.6824761E+001  0.2073307E+02  0.7546771E-02  0.1523110E+00
          2   -1    0    0  502    0  0.00000000000E+00  0.00000000000E+00  0.91432500628E+03  0.91432500628E+03  0.00000000000E+00 0. -1.
         -2   -1    0    0    0  501 -0.00000000000E+00 -0.00000000000E+00 -0.61232821984E+00  0.61232821984E+00  0.00000000000E+00 0.  1.
          1    1    1    2  502    0  0.17401635748E+02 -0.11271343215E+02  0.23641039274E+03  0.23731779095E+03  0.00000000000E+00 0.  1.
         -1    1    1    2    0  501 -0.17401635748E+02  0.11271343215E+02  0.67730228532E+03  0.67761954355E+03  0.00000000000E+00 0. -1.
</event>
<event>
 4    1  0.6824761E+001  0.2547526E+02  0.7546771E-02  0.1463556E+00
          2   -1    0    0  502    0  0.00000000000E+00  0.00000000000E+00  0.61248773393E+03  0.61248773393E+03  0.00000000000E+00 0. -1.
         -2   -1    0    0    0  501 -0.00000000000E+00 -0.00000000000E+00 -0.10647943787E+01  0.10647943787E+01  0.00000000000E+00 0.  1.
          1    1    1    2  502    0 -0.60367556161E+01 -0.24749671499E+02  0.32714945087E+03  0.32813983584E+03  0.00000000000E+00 0.  1.
         -1    1    1    2    0  501  0.60367556161E+01  0.24749671499E+02  0.28427348868E+03  0.28541269247E+03  0.00000000000E+00 0. -1.
</event>
<event>
 4    1  0.6824761E+001  0.3295469E+02  0.7546771E-02  0.1395542E+00
          2   -1    0    0  502    0  0.00000000000E+00  0.00000000000E+00  0.10727443163E+04  0.10727443163E+04  0.00000000000E+00 0.  1.
         -2   -1    0    0    0  501 -0.00000000000E+00 -0.00000000000E+00 -0.10541099754E+01  0.10541099754E+01  0.00000000000E+00 0. -1.
          1    1    1    2  502    0 -0.30170008214E+02  0.13258288753E+02  0.64268617921E+03  0.64353052496E+03  0.00000000000E+00 0.  1.
         -1    1    1    2    0  501  0.30170008214E+02 -0.13258288753E+02  0.42900402715E+03  0.43026790134E+03  0.00000000000E+00 0. -1.
</event>
<event>
 4    1  0.6824761E+001  0.3257427E+02  0.7546771E-02  0.1398469E+00
          2   -1    0    0  502    0  0.00000000000E+00  0.00000000000E+00  0.11936302446E+03  0.11936302446E+03  0.00000000000E+00 0. -1.
         -2   -1    0    0    0  501 -0.00000000000E+00 -0.00000000000E+00 -0.94894671939E+01  0.94894671939E+01  0.00000000000E+00 0.  1.
          1    1    1    2  502    0  0.28933324595E+02  0.14964829258E+02  0.71135775949E+02  0.78239261287E+02  0.00000000000E+00 0.  1.
         -1    1    1    2    0  501 -0.28933324595E+02 -0.14964829258E+02  0.38737781319E+02  0.50613230369E+02  0.00000000000E+00 0. -1.
</event>
<event>
 4    1  0.6824761E+001  0.2151384E+02  0.7546771E-02  0.1512053E+00
          2   -1    0    0  502    0  0.00000000000E+00  0.00000000000E+00  0.21757643976E+02  0.21757643976E+02  0.00000000000E+00 0. -1.
         -2   -1    0    0    0  501 -0.00000000000E+00 -0.00000000000E+00 -0.25089457814E+02  0.25089457814E+02  0.00000000000E+00 0.  1.
          1    1    1    2  502    0  0.15126704239E+02  0.15297976241E+02  0.74699790342E+01  0.22773797333E+02  0.00000000000E+00 0. -1.
         -1    1    1    2    0  501 -0.15126704239E+02 -0.15297976241E+02 -0.10801792872E+02  0.24073304457E+02  0.00000000000E+00 0.  1.
</event>
<event>
 4    1  0.6824761E+001  0.4247713E+02  0.7546771E-02  0.1334551E+00
          2   -1    0    0  502    0  0.00000000000E+00  0.00000000000E+00  0.13879465963E+04  0.13879465963E+04  0.00000000000E+00 0. -1.
         -2   -1    0    0    0  501 -0.00000000000E+00 -0.00000000000E+00 -0.15018560032E+01  0.15018560032E+01  0.00000000000E+00 0.  1.
          1    1    1    2  502    0  0.36204707630E+02 -0.22215439926E+02  0.43851723968E+03  0.44056971766E+03  0.00000000000E+00 0.  1.
         -1    1    1    2    0  501 -0.36204707630E+02  0.22215439926E+02  0.94792750066E+03  0.94887873468E+03  0.00000000000E+00 0. -1.
</event>
<event>
 4    1  0.6824761E+001  0.2180432E+02  0.7546771E-02  0.1508084E+00
          2   -1    0    0  502    0  0.00000000000E+00  0.00000000000E+00  0.18742591085E+04  0.18742591085E+04  0.00000000000E+00 0.  1.
         -2   -1    0    0    0  501 -0.00000000000E+00 -0.00000000000E+00 -0.30254161007E+00  0.30254161007E+00  0.00000000000E+00 0. -1.
          1    1    1    2  502    0  0.21802362161E+02  0.29206109846E+00  0.13137177214E+04  0.13138986566E+04  0.00000000000E+00 0.  1.
         -1    1    1    2    0  501 -0.21802362161E+02 -0.29206109846E+00  0.56023884544E+03  0.56066299346E+03  0.00000000000E+00 0. -1.
</event>
<event>
 4    1  0.6824761E+001  0.2280622E+02  0.7546771E-02  0.1494946E+00
          2   -1    0    0  502    0  0.00000000000E+00  0.00000000000E+00  0.20244955929E+03  0.20244955929E+03  0.00000000000E+00 0. -1.
         -2   -1    0    0    0  501 -0.00000000000E+00 -0.00000000000E+00 -0.26531889374E+01  0.26531889374E+01  0.00000000000E+00 0.  1.
          1    1    1    2  502    0  0.20249096920E+02  0.10492743687E+02  0.11814948095E+03  0.12033047596E+03  0.00000000000E+00 0. -1.
         -1    1    1    2    0  501 -0.20249096920E+02 -0.10492743687E+02  0.81646889406E+02  0.84772272270E+02  0.00000000000E+00 0.  1.
</event>
<event>
 4    1  0.6824761E+001  0.2882548E+02  0.7546771E-02  0.1430085E+00
          2   -1    0    0  502    0  0.00000000000E+00  0.00000000000E+00  0.15540942679E+03  0.15540942679E+03  0.00000000000E+00 0.  1.
         -2   -1    0    0    0  501 -0.00000000000E+00 -0.00000000000E+00 -0.70778449484E+01  0.70778449484E+01  0.00000000000E+00 0. -1.
          1    1    1    2  502    0 -0.25416232154E+02  0.13598657206E+02  0.33984759572E+02  0.44563126214E+02  0.00000000000E+00 0. -1.
         -1    1    1    2    0  501  0.25416232154E+02 -0.13598657206E+02  0.11434682227E+03  0.11792414553E+03  0.00000000000E+00 0.  1.
</event>
<event>
 4    1  0.6824761E+001  0.3078891E+02  0.7546771E-02  0.1412862E+00
          2   -1    0    0  502    0  0.00000000000E+00  0.00000000000E+00  0.21623726312E+02  0.21623726312E+02  0.00000000000E+00 0. -1.
         -2   -1    0    0    0  501 -0.00000000000E+00 -0.00000000000E+00 -0.53531059640E+02  0.53531059640E+02  0.00000000000E+00 0.  1.
          1    1    1    2  502    0 -0.19321315718E+01 -0.30728223825E+02 -0.31943268003E+02  0.44365856721E+02  0.00000000000E+00 0.  1.
         -1    1    1    2    0  501  0.19321315718E+01  0.30728223825E+02  0.35934675034E-01  0.30788929231E+02  0.00000000000E+00 0. -1.
</event>
<event>
 4    1  0.6824761E+001  0.2422953E+02  0.7546771E-02  0.1477610E+00
          2   -1    0    0  502    0  0.00000000000E+00  0.00000000000E+00  0.21405970316E+02  0.21405970316E+02  0.00000000000E+00 0.  1.
         -2   -1    0    0    0  501 -0.00000000000E+00 -0.00000000000E+00 -0.40475208790E+02  0.40475208790E+02  0.00000000000E+00 0. -1.
          1    1    1    2  502    0  0.25128606861E+00  0.24228228678E+02 -0.27103085414E+02  0.36354469443E+02  0.00000000000E+00 0. -1.
         -1    1    1    2    0  501 -0.25128606861E+00 -0.24228228678E+02  0.80338469393E+01  0.25526709663E+02  0.00000000000E+00 0.  1.
</event>
<event>
 4    1  0.6824761E+001  0.3631260E+02  0.7546771E-02  0.1371563E+00
          2   -1    0    0  502    0  0.00000000000E+00  0.00000000000E+00  0.11041101102E+02  0.11041101102E+02  0.00000000000E+00 0.  1.
         -2   -1    0    0    0  501 -0.00000000000E+00 -0.00000000000E+00 -0.13416925438E+03  0.13416925438E+03  0.00000000000E+00 0. -1.
          1    1    1    2  502    0 -0.74485572386E+01 -0.35540451797E+02 -0.85631200368E+02  0.93012403449E+02  0.00000000000E+00 0.  1.
         -1    1    1    2    0  501  0.74485572386E+01  0.35540451797E+02 -0.37496952908E+02  0.52197952032E+02  0.00000000000E+00 0. -1.
</event>
<event>
 4    1  0.6824761E+001  0.2193877E+02  0.7546771E-02  0.1506272E+00
          2   -1    0    0  502    0  0.00000000000E+00  0.00000000000E+00  0.34652251189E+03  0.34652251189E+03  0.00000000000E+00 0. -1.
         -2   -1    0    0    0  501 -0.00000000000E+00 -0.00000000000E+00 -0.16054172935E+01  0.16054172935E+01  0.00000000000E+00 0.  1.
          1    1    1    2  502    0 -0.98586634182E+01 -0.19598886079E+02  0.10854537350E+03  0.11074027130E+03  0.00000000000E+00 0.  1.
         -1    1    1    2    0  501  0.98586634182E+01  0.19598886079E+02  0.23637172110E+03  0.23738765788E+03  0.00000000000E+00 0. -1.
</event>
<event>
 4    1  0.6824761E+001  0.3386700E+02  0.7546771E-02  0.1388708E+00
          2   -1    0    0  502    0  0.00000000000E+00  0.00000000000E+00  0.97169300495E+03  0.97169300495E+03  0.00000000000E+00 0. -1.
         -2   -1    0    0    0  501 -0.00000000000E+00 -0.00000000000E+00 -0.11996515475E+01  0.11996515475E+01  0.00000000000E+00 0.  1.
          1    1    1    2  502    0  0.28538655749E+02  0.18235091286E+02  0.42360264868E+03  0.42495432389E+03  0.00000000000E+00 0.  1.
         -1    1    1    2    0  501 -0.28538655749E+02 -0.18235091286E+02  0.54689070472E+03  0.54793833260E+03  0.00000000000E+00 0. -1.
</event>
<event>
 4    1  0.6824761E+001  0.2177750E+02  0.7546771E-02  0.1508447E+00
          2   -1    0    0  502    0  0.00000000000E+00  0.00000000000E+00  0.14695866493E+02  0.14695866493E+02  0.00000000000E+00 0. -1.
         -2   -1    0    0    0  501 -0.00000000000E+00 -0.00000000000E+00 -0.33299026041E+02  0.33299026041E+02  0.00000000000E+00 0.  1.
          1    1    1    2  502    0 -0.20699844414E+02  0.67657919892E+01 -0.50863703609E+01  0.22363601308E+02  0.00000000000E+00 0. -1.
         -1    1    1    2    0  501  0.20699844414E+02 -0.67657919892E+01 -0.13516789187E+02  0.25631291227E+02  0.00000000000E+00 0.  1.
</event>
<event>
 4    1  0.6824761E+001  0.2155611E+02  0.7546771E-02  0.1511471E+00
          2   -1    0    0  502    0  0.00000000000E+00  0.00000000000E+00  0.44045982239E+01  0.44045982239E+01  0.00000000000E+00 0.  1.
         -2   -1    0    0    0  501 -0.00000000000E+00 -0.00000000000E+00 -0.10571964164E+03  0.10571964164E+03  0.00000000000E+00 0. -1.
          1    1    1    2  502    0 -0.79339743294E+01  0.20042899147E+02 -0.53192268095E+02  0.57394103704E+02  0.00000000000E+00 0. -1.
         -1    1    1    2    0  501  0.79339743294E+01 -0.20042899147E+02 -0.48122775321E+02  0.52730136160E+02  0.00000000000E+00 0.  1.
</event>
<event>
 4    1  0.6824761E+001  0.6341766E+02  0.7546771E-02  0.1248643E+00
          2   -1    0    0  502    0  0.00000000000E+00  0.00000000000E+00  0.22128859388E+03  0.22128859388E+03  0.00000000000E+00 0.  1.
         -2   -1    0    0    0  501 -0.00000000000E+00 -0.00000000000E+00 -0.18279757538E+02  0.18279757538E+02  0.00000000000E+00 0. -1.
          1    1    1    2  502    0 -0.12969636321E+02  0.62077272149E+02  0.92412878209E+02  0.11208005729E+03  0.00000000000E+00 0.  1.
         -1    1    1    2    0  501  0.12969636321E+02 -0.62077272149E+02  0.11059595813E+03  0.12748829413E+03  0.00000000000E+00 0. -1.
</event>
<event>
 4    1  0.6824761E+001  0.2426040E+02  0.7546771E-02  0.1477250E+00
          2   -1    0    0  502    0  0.00000000000E+00  0.00000000000E+00  0.18172665821E+03  0.18172665821E+03  0.00000000000E+00 0.  1.
         -2   -1    0    0    0  501 -0.00000000000E+00 -0.00000000000E+00 -0.36002002385E+01  0.36002002385E+01  0.00000000000E+00 0. -1.
          1    1    1    2  502    0 -0.11376962866E+02 -0.21427361892E+02  0.59702312754E+02  0.64443256202E+02  0.00000000000E+00 0. -1.
         -1    1    1    2    0  501  0.11376962866E+02  0.21427361892E+02  0.11842414521E+03  0.12088360224E+03  0.00000000000E+00 0.  1.
</event>
<event>
 4    1  0.6824761E+001  0.2271442E+02  0.7546771E-02  0.1496116E+00
          2   -1    0    0  502    0  0.00000000000E+00  0.00000000000E+00  0.23265173580E+03  0.23265173580E+03  0.00000000000E+00 0. -1.
         -2   -1    0    0    0  501 -0.00000000000E+00 -0.00000000000E+00 -0.23474412834E+01  0.23474412834E+01  0.00000000000E+00 0.  1.
          1    1    1    2  502    0  0.39203749416E+01  0.22373547824E+02  0.14277870581E+03  0.14457421559E+03  0.00000000000E+00 0.  1.
         -1    1    1    2    0  501 -0.39203749416E+01 -0.22373547824E+02  0.87525588709E+02  0.90424961491E+02  0.00000000000E+00 0. -1.
</event>
<event>
 4    1  0.6824761E+001  0.2454511E+02  0.7546771E-02  0.1473957E+00
          2   -1    0    0  502    0  0.00000000000E+00  0.00000000000E+00  0.30135411423E+02  0.30135411423E+02  0.00000000000E+00 0. -1.
         -2   -1    0    0    0  501 -0.00000000000E+00 -0.00000000000E+00 -0.32268086743E+02  0.32268086743E+02  0.00000000000E+00 0.  1.
          1    1    1    2  502    0 -0.39867826224E+01 -0.24219170503E+02 -0.20311649019E+02  0.31859468630E+02  0.00000000000E+00 0.  1.
         -1    1    1    2    0  501  0.39867826224E+01  0.24219170503E+02  0.18178973699E+02  0.30544029535E+02  0.00000000000E+00 0. -1.
</event>
<event>
 4    1  0.6824761E+001  0.2184861E+02  0.7546771E-02  0.1507485E+00
          2   -1    0    0  502    0  0.00000000000E+00  0.00000000000E+00  0.22098751160E+02  0.22098751160E+02  0.00000000000E+00 0.  1.
         -2   -1    0    0    0  501 -0.00000000000E+00 -0.00000000000E+00 -0.12873965195E+03  0.12873965195E+03  0.00000000000E+00 0. -1.
          1    1    1    2  502    0  0.46918263258E+01  0.21338901789E+02  0.15481100254E+02  0.26777349177E+02  0.00000000000E+00 0.  1.
         -1    1    1    2    0  501 -0.46918263258E+01 -0.21338901789E+02 -0.12212200105E+03  0.12406105394E+03  0.00000000000E+00 0. -1.
</event>
<event>
 4    1  0.6824761E+001  0.2954211E+02  0.7546771E-02  0.1423618E+00
          2   -1    0    0  502    0  0.00000000000E+00  0.00000000000E+00  0.54928054227E+01  0.54928054227E+01  0.00000000000E+00 0. -1.
         -2   -1    0    0    0  501 -0.00000000000E+00 -0.00000000000E+00 -0.17856563418E+03  0.17856563418E+03  0.00000000000E+00 0.  1.
          1    1    1    2  502    0 -0.19141431952E+02 -0.22502040323E+02 -0.55985617197E+02  0.63301860706E+02  0.00000000000E+00 0. -1.
         -1    1    1    2    0  501  0.19141431952E+02  0.22502040323E+02 -0.11708721156E+03  0.12075657890E+03  0.00000000000E+00 0.  1.
</event>
<event>
 4    1  0.6824761E+001  0.2247459E+02  0.7546771E-02  0.1499203E+00
          2   -1    0    0  502    0  0.00000000000E+00  0.00000000000E+00  0.14021400602E+04  0.14021400602E+04  0.00000000000E+00 0. -1.
         -2   -1    0    0    0  501 -0.00000000000E+00 -0.00000000000E+00 -0.46917026052E+00  0.46917026052E+00  0.00000000000E+00 0.  1.
          1    1    1    2  502    0  0.19027610043E+02 -0.11960648368E+02  0.36291414867E+03  0.36360938706E+03  0.00000000000E+00 0.  1.
         -1    1    1    2    0  501 -0.19027610043E+02  0.11960648368E+02  0.10387567412E+04  0.10389998434E+04  0.00000000000E+00 0. -1.
</event>
<event>
 4    1  0.6824761E+001  0.2410605E+02  0.7546771E-02  0.1479058E+00
          2   -1    0    0  502    0  0.00000000000E+00  0.00000000000E+00  0.50288677400E+01  0.50288677400E+01  0.00000000000E+00 0.  1.
         -2   -1    0    0    0  501 -0.00000000000E+00 -0.00000000000E+00 -0.11558419387E+03  0.11558419387E+03  0.00000000000E+00 0. -1.
          1    1    1    2  502    0 -0.19371252445E+02 -0.14347691699E+02 -0.56265456915E+02  0.61211954064E+02  0.00000000000E+00 0. -1.
         -1    1    1    2    0  501  0.19371252445E+02  0.14347691699E+02 -0.54289869214E+02  0.59401107546E+02  0.00000000000E+00 0.  1.
</event>
<event>
 4    1  0.6824761E+001  0.2576146E+02  0.7546771E-02  0.1460462E+00
          2   -1    0    0  502    0  0.00000000000E+00  0.00000000000E+00  0.36243216661E+03  0.36243216661E+03  0.00000000000E+00 0. -1.
         -2   -1    0    0    0  501 -0.00000000000E+00 -0.00000000000E+00 -0.20204433570E+01  0.20204433570E+01  0.00000000000E+00 0.  1.
          1    1    1    2  502    0  0.25695405740E+02 -0.18435775505E+01  0.23598899581E+03  0.23739094085E+03  0.00000000000E+00 0.  1.
         -1    1    1    2    0  501 -0.25695405740E+02  0.18435775505E+01  0.12442272744E+03  0.12706166911E+03  0.00000000000E+00 0. -1.
</event>
<event>
 4    1  0.6824761E+001  0.2183263E+02  0.7546771E-02  0.1507701E+00
          2   -1    0    0  502    0  0.00000000000E+00  0.00000000000E+00  0.35211797297E+03  0.35211797297E+03  0.00000000000E+00 0.  1.
         -2   -1    0    0    0  501 -0.00000000000E+00 -0.00000000000E+00 -0.13624137931E+02  0.13624137931E+02  0.00000000000E+00 0. -1.
          1    1    1    2  502    0  0.18773852449E+02 -0.11144778086E+02 -0.43014012812E+01  0.22252318247E+02  0.00000000000E+00 0. -1.
         -1    1    1    2    0  501 -0.18773852449E+02  0.11144778086E+02  0.34279523632E+03  0.34348979266E+03  0.00000000000E+00 0.  1.
</event>
<event>
 4    1  0.6824761E+001  0.2387443E+02  0.7546771E-02  0.1481800E+00
          2   -1    0    0  502    0  0.00000000000E+00  0.00000000000E+00  0.52097334647E+03  0.52097334647E+03  0.00000000000E+00 0.  1.
         -2   -1    0    0    0  501 -0.00000000000E+00 -0.00000000000E+00 -0.13259316471E+01  0.13259316471E+01  0.00000000000E+00 0. -1.
          1    1    1    2  502    0 -0.23247016186E+02 -0.54373416186E+01  0.36902568192E+03  0.36979716381E+03  0.00000000000E+00 0. -1.
         -1    1    1    2    0  501  0.23247016186E+02  0.54373416186E+01  0.15062173290E+03  0.15250211430E+03  0.00000000000E+00 0.  1.
</event>
<event>
 4    1  0.6824761E+001  0.2492267E+02  0.7546771E-02  0.1469670E+00
          2   -1    0    0  502    0  0.00000000000E+00  0.00000000000E+00  0.55783235280E+03  0.55783235280E+03  0.00000000000E+00 0.  1.
         -2   -1    0    0    0  501 -0.00000000000E+00 -0.00000000000E+00 -0.11351541394E+01  0.11351541394E+01  0.00000000000E+00 0. -1.
          1    1    1    2  502    0 -0.74556994900E+01  0.23781341036E+02  0.23973681995E+03  0.24102880009E+03  0.00000000000E+00 0. -1.
         -1    1    1    2    0  501  0.74556994900E+01 -0.23781341036E+02  0.31696037871E+03  0.31793870684E+03  0.00000000000E+00 0.  1.
</event>
<event>
 4    1  0.6824761E+001  0.2820920E+02  0.7546771E-02  0.1435826E+00
          2   -1    0    0  502    0  0.00000000000E+00  0.00000000000E+00  0.39953646518E+02  0.39953646518E+02  0.00000000000E+00 0. -1.
         -2   -1    0    0    0  501 -0.00000000000E+00 -0.00000000000E+00 -0.21795452979E+02  0.21795452979E+02  0.00000000000E+00 0.  1.
          1    1    1    2  502    0  0.55390728459E+00  0.28203759029E+02  0.15263874548E-01  0.28209201861E+02  0.00000000000E+00 0.  1.
         -1    1    1    2    0  501 -0.55390728459E+00 -0.28203759029E+02  0.18142929664E+02  0.33539897636E+02  0.00000000000E+00 0. -1.
</event>
<event>
 4    1  0.6824761E+001  0.2314924E+02  0.7546771E-02  0.1490633E+00
          2   -1    0    0  502    0  0.00000000000E+00  0.00000000000E+00  0.75139389461E+01  0.75139389461E+01  0.00000000000E+00 0. -1.
         -2   -1    0    0    0  501 -0.00000000000E+00 -0.00000000000E+00 -0.83282745029E+02  0.83282745029E+02  0.00000000000E+00 0.  1.
          1    1    1    2  502    0  0.16895228580E+02  0.15825258060E+02 -0.20677852877E+02  0.31039670440E+02  0.00000000000E+00 0. -1.
         -1    1    1    2    0  501 -0.16895228580E+02 -0.15825258060E+02 -0.55090953206E+02  0.59757013534E+02  0.00000000000E+00 0.  1.
</event>
<event>
 4    1  0.6824761E+001  0.2493505E+02  0.7546771E-02  0.1469531E+00
          2   -1    0    0  502    0  0.00000000000E+00  0.00000000000E+00  0.27658995099E+02  0.27658995099E+02  0.00000000000E+00 0. -1.
         -2   -1    0    0    0  501 -0.00000000000E+00 -0.00000000000E+00 -0.84499888328E+02  0.84499888328E+02  0.00000000000E+00 0.  1.
          1    1    1    2  502    0 -0.97748843460E+01 -0.22939233336E+02 -0.76464905791E+02  0.80427847215E+02  0.00000000000E+00 0.  1.
         -1    1    1    2    0  501  0.97748843460E+01  0.22939233336E+02  0.19624012563E+02  0.31731036212E+02  0.00000000000E+00 0. -1.
</event>
<event>
 4    1  0.6824761E+001  0.2028280E+02  0.7546771E-02  0.1529756E+00
          2   -1    0    0  502    0  0.00000000000E+00  0.00000000000E+00  0.15348425427E+02  0.15348425427E+02  0.00000000000E+00 0. -1.
         -2   -1    0    0    0  501 -0.00000000000E+00 -0.00000000000E+00 -0.30128288355E+02  0.30128288355E+02  0.00000000000E+00 0.  1.
          1    1    1    2  502    0  0.18277575726E+02 -0.87933043442E+01  0.16363258683E+00  0.20283460044E+02  0.00000000000E+00 0. -1.
         -1    1    1    2    0  501 -0.18277575726E+02  0.87933043442E+01 -0.14943495515E+02  0.25193253738E+02  0.00000000000E+00 0.  1.
</event>
<event>
 4    1  0.6824761E+001  0.3507183E+02  0.7546771E-02  0.1380059E+00
          2   -1    0    0  502    0  0.00000000000E+00  0.00000000000E+00  0.74882552915E+01  0.74882552915E+01  0.00000000000E+00 0. -1.
         -2   -1    0    0    0  501 -0.00000000000E+00 -0.00000000000E+00 -0.16649553204E+03  0.16649553204E+03  0.00000000000E+00 0.  1.
          1    1    1    2  502    0  0.31348965715E+02 -0.15724994292E+02 -0.89580111654E+02  0.96200984927E+02  0.00000000000E+00 0.  1.
         -1    1    1    2    0  501 -0.31348965715E+02  0.15724994292E+02 -0.69427165090E+02  0.77782802401E+02  0.00000000000E+00 0. -1.
</event>
<event>
 4    1  0.6824761E+001  0.2942479E+02  0.7546771E-02  0.1424662E+00
          2   -1    0    0  502    0  0.00000000000E+00  0.00000000000E+00  0.15453137718E+04  0.15453137718E+04  0.00000000000E+00 0.  1.
         -2   -1    0    0    0  501 -0.00000000000E+00 -0.00000000000E+00 -0.62273033229E+00  0.62273033229E+00  0.00000000000E+00 0. -1.
          1    1    1    2  502    0  0.27912792542E+02  0.93109744542E+01  0.52757624828E+03  0.52839617333E+03  0.00000000000E+00 0.  1.
         -1    1    1    2    0  501 -0.27912792542E+02 -0.93109744542E+01  0.10171147932E+04  0.10175403288E+04  0.00000000000E+00 0. -1.
</event>
<event>
 4    1  0.6824761E+001  0.2099328E+02  0.7546771E-02  0.1519361E+00
          2   -1    0    0  502    0  0.00000000000E+00  0.00000000000E+00  0.14682059064E+04  0.14682059064E+04  0.00000000000E+00 0.  1.
         -2   -1    0    0    0  501 -0.00000000000E+00 -0.00000000000E+00 -0.38585166060E+00  0.38585166060E+00  0.00000000000E+00 0. -1.
          1    1    1    2  502    0 -0.13405057944E+02  0.16156183840E+02  0.38789605031E+03  0.38846372250E+03  0.00000000000E+00 0. -1.
         -1    1    1    2    0  501  0.13405057944E+02 -0.16156183840E+02  0.10799240045E+04  0.10801280356E+04  0.00000000000E+00 0.  1.
</event>
<event>
 4    1  0.6824761E+001  0.2127114E+02  0.7546771E-02  0.1515429E+00
          2   -1    0    0  502    0  0.00000000000E+00  0.00000000000E+00  0.42597454954E+03  0.42597454954E+03  0.00000000000E+00 0.  1.
         -2   -1    0    0    0  501 -0.00000000000E+00 -0.00000000000E+00 -0.15895282785E+01  0.15895282785E+01  0.00000000000E+00 0. -1.
          1    1    1    2  502    0  0.15960735516E+02 -0.14061165060E+02  0.33532879677E+03  0.33600277288E+03  0.00000000000E+00 0.  1.
         -1    1    1    2    0  501 -0.15960735516E+02  0.14061165060E+02  0.89056224495E+02  0.91561304941E+02  0.00000000000E+00 0. -1.
</event>
<event>
 4    1  0.6824761E+001  0.2868276E+02  0.7546771E-02  0.1431399E+00
          2   -1    0    0  502    0  0.00000000000E+00  0.00000000000E+00  0.15801811799E+04  0.15801811799E+04  0.00000000000E+00 0. -1.
         -2   -1    0    0    0  501 -0.00000000000E+00 -0.00000000000E+00 -0.12069674582E+01  0.12069674582E+01  0.00000000000E+00 0.  1.
          1    1    1    2  502    0 -0.14153452558E+02  0.24947552195E+02  0.19323849373E+03  0.19535561430E+03  0.00000000000E+00 0.  1.
         -1    1    1    2    0  501  0.14153452558E+02 -0.24947552195E+02  0.13857357187E+04  0.13860325330E+04  0.00000000000E+00 0. -1.
</event>
<event>
 4    1  0.6824761E+001  0.2534252E+02  0.7546771E-02  0.1465008E+00
          2   -1    0    0  502    0  0.00000000000E+00  0.00000000000E+00  0.42141692800E+03  0.42141692800E+03  0.00000000000E+00 0. -1.
         -2   -1    0    0    0  501 -0.00000000000E+00 -0.00000000000E+00 -0.16002645400E+01  0.16002645400E+01  0.00000000000E+00 0.  1.
          1    1    1    2  502    0 -0.18040779917E+02 -0.17798132886E+02  0.25607911796E+03  0.25733005640E+03  0.00000000000E+00 0.  1.
         -1    1    1    2    0  501  0.18040779917E+02  0.17798132886E+02  0.16373754550E+03  0.16568713613E+03  0.00000000000E+00 0. -1.
</event>
<event>
 4    1  0.6824761E+001  0.2582591E+02  0.7546771E-02  0.1459772E+00
          2   -1    0    0  502    0  0.00000000000E+00  0.00000000000E+00  0.37015345541E+03  0.37015345541E+03  0.00000000000E+00 0. -1.
         -2   -1    0    0    0  501 -0.00000000000E+00 -0.00000000000E+00 -0.25230297204E+01  0.25230297204E+01  0.00000000000E+00 0.  1.
          1    1    1    2  502    0 -0.25314547591E+02  0.51138558297E+01  0.84194678237E+02  0.88066575297E+02  0.00000000000E+00 0. -1.
         -1    1    1    2    0  501  0.25314547591E+02 -0.51138558297E+01  0.28343574745E+03  0.28460990983E+03  0.00000000000E+00 0.  1.
</event>
<event>
 4    1  0.6824761E+001  0.2372603E+02  0.7546771E-02  0.1483577E+00
          2   -1    0    0  502    0  0.00000000000E+00  0.00000000000E+00  0.56670242369E+01  0.56670242369E+01  0.00000000000E+00 0.  1.
         -2   -1    0    0    0  501 -0.00000000000E+00 -0.00000000000E+00 -0.20551430704E+03  0.20551430704E+03  0.00000000000E+00 0. -1.
          1    1    1    2  502    0 -0.23427243784E+02  0.37535035951E+01 -0.24026083708E+02  0.33766510612E+02  0.00000000000E+00 0.  1.
         -1    1    1    2    0  501  0.23427243784E+02 -0.37535035951E+01 -0.17582119910E+03  0.17741482067E+03  0.00000000000E+00 0. -1.
</event>
<event>
 4    1  0.6824761E+001  0.2867540E+02  0.7546771E-02  0.1431467E+00
          2   -1    0    0  502    0  0.00000000000E+00  0.00000000000E+00  0.27686256143E+04  0.27686256143E+04  0.00000000000E+00 0.  1.
         -2   -1    0    0    0  501 -0.00000000000E+00 -0.00000000000E+00 -0.32078343359E+00  0.32078343359E+00  0.00000000000E+00 0. -1.
          1    1    1    2  502    0  0.28618835934E+02  0.18002976344E+01  0.10071660497E+04  0.10075741811E+04  0.00000000000E+00 0. -1.
         -1    1    1    2    0  501 -0.28618835934E+02 -0.18002976344E+01  0.17611387811E+04  0.17613722166E+04  0.00000000000E+00 0.  1.
</event>
<event>
 4    1  0.6824761E+001  0.5341605E+02  0.7546771E-02  0.1284004E+00
          2   -1    0    0  502    0  0.00000000000E+00  0.00000000000E+00  0.30370132435E+02  0.30370132435E+02  0.00000000000E+00 0.  1.
         -2   -1    0    0    0  501 -0.00000000000E+00 -0.00000000000E+00 -0.94097189492E+02  0.94097189492E+02  0.00000000000E+00 0. -1.
          1    1    1    2  502    0  0.18043060952E+02  0.50276458257E+02 -0.34324790749E+02  0.63493823033E+02  0.00000000000E+00 0. -1.
         -1    1    1    2    0  501 -0.18043060952E+02 -0.50276458257E+02 -0.29402266308E+02  0.60973498894E+02  0.00000000000E+00 0.  1.
</event>
<event>
 4    1  0.6824761E+001  0.7470983E+02  0.7546771E-02  0.1216692E+00
          2   -1    0    0  502    0  0.00000000000E+00  0.00000000000E+00  0.22133088438E+03  0.22133088438E+03  0.00000000000E+00 0.  1.
         -2   -1    0    0    0  501 -0.00000000000E+00 -0.00000000000E+00 -0.29614633698E+02  0.29614633698E+02  0.00000000000E+00 0. -1.
          1    1    1    2  502    0  0.49129904403E+02  0.56283308717E+02  0.14420276756E+03  0.16240688569E+03  0.00000000000E+00 0.  1.
         -1    1    1    2    0  501 -0.49129904403E+02 -0.56283308717E+02  0.47513483118E+02  0.88538632386E+02  0.00000000000E+00 0. -1.
</event>
<event>
 4    1  0.6824761E+001  0.2353188E+02  0.7546771E-02  0.1485925E+00
          2   -1    0    0  502    0  0.00000000000E+00  0.00000000000E+00  0.15741742731E+01  0.15741742731E+01  0.00000000000E+00 0. -1.
         -2   -1    0    0    0  501 -0.00000000000E+00 -0.00000000000E+00 -0.35388275371E+03  0.35388275371E+03  0.00000000000E+00 0.  1.
          1    1    1    2  502    0 -0.13915727187E+02 -0.18976349197E+02 -0.18988271058E+03  0.19133528966E+03  0.00000000000E+00 0. -1.
         -1    1    1    2    0  501  0.13915727187E+02  0.18976349197E+02 -0.16242586886E+03  0.16412163832E+03  0.00000000000E+00 0.  1.
</event>
<event>
 4    1  0.6824761E+001  0.3636272E+02  0.7546771E-02  0.1371228E+00
          2   -1    0    0  502    0  0.00000000000E+00  0.00000000000E+00  0.20490798712E+04  0.20490798712E+04  0.00000000000E+00 0.  1.
         -2   -1    0    0    0  501 -0.00000000000E+00 -0.00000000000E+00 -0.88459684461E+00  0.88459684461E+00  0.00000000000E+00 0. -1.
          1    1    1    2  502    0  0.35708738450E+02  0.68654019772E+01  0.49098063239E+03  0.49232532855E+03  0.00000000000E+00 0. -1.
         -1    1    1    2    0  501 -0.35708738450E+02 -0.68654019772E+01  0.15572146419E+04  0.15576391395E+04  0.00000000000E+00 0.  1.
</event>
<event>
 4    1  0.6824761E+001  0.2088463E+02  0.7546771E-02  0.1520918E+00
          2   -1    0    0  502    0  0.00000000000E+00  0.00000000000E+00  0.20481018388E+03  0.20481018388E+03  0.00000000000E+00 0. -1.
         -2   -1    0    0    0  501 -0.00000000000E+00 -0.00000000000E+00 -0.22954506907E+01  0.22954506907E+01  0.00000000000E+00 0.  1.
          1    1    1    2  502    0 -0.19327940945E+02  0.79119228041E+01  0.73424326409E+02  0.76336750863E+02  0.00000000000E+00 0.  1.
         -1    1    1    2    0  501  0.19327940945E+02 -0.79119228041E+01  0.12909040678E+03  0.13076888371E+03  0.00000000000E+00 0. -1.
</event>
<event>
 4    1  0.6824761E+001  0.3768604E+02  0.7546771E-02  0.1362606E+00
          2   -1    0    0  502    0  0.00000000000E+00  0.00000000000E+00  0.32673854932E+03  0.32673854932E+03  0.00000000000E+00 0.  1.
         -2   -1    0    0    0  501 -0.00000000000E+00 -0.00000000000E+00 -0.51300114714E+01  0.51300114714E+01  0.00000000000E+00 0. -1.
          1    1    1    2  502    0 -0.30762869512E+01  0.37560270914E+02  0.22564406079E+03  0.22876949023E+03  0.00000000000E+00 0.  1.
         -1    1    1    2    0  501  0.30762869512E+01 -0.37560270914E+02  0.95964477063E+02  0.10309907056E+03  0.00000000000E+00 0. -1.
</event>
<event>
 4    1  0.6824761E+001  0.2371588E+02  0.7546771E-02  0.1483699E+00
          2   -1    0    0  502    0  0.00000000000E+00  0.00000000000E+00  0.81574094788E+02  0.81574094788E+02  0.00000000000E+00 0. -1.
         -2   -1    0    0    0  501 -0.00000000000E+00 -0.00000000000E+00 -0.70030705859E+01  0.70030705859E+01  0.00000000000E+00 0.  1.
          1    1    1    2  502    0  0.19650207071E+02 -0.13278261126E+02  0.31780472723E+02  0.39654020010E+02  0.00000000000E+00 0.  1.
         -1    1    1    2    0  501 -0.19650207071E+02  0.13278261126E+02  0.42790551479E+02  0.48923145364E+02  0.00000000000E+00 0. -1.
</event>
<event>
 4    1  0.6824761E+001  0.2008687E+02  0.7546771E-02  0.1532712E+00
          2   -1    0    0  502    0  0.00000000000E+00  0.00000000000E+00  0.52946659656E+02  0.52946659656E+02  0.00000000000E+00 0.  1.
         -2   -1    0    0    0  501 -0.00000000000E+00 -0.00000000000E+00 -0.10533627714E+02  0.10533627714E+02  0.00000000000E+00 0. -1.
          1    1    1    2  502    0 -0.51177270011E+01 -0.19423986878E+02  0.37898052732E+02  0.42892246348E+02  0.00000000000E+00 0.  1.
         -1    1    1    2    0  501  0.51177270011E+01  0.19423986878E+02  0.45149792096E+01  0.20588041022E+02  0.00000000000E+00 0. -1.
</event>
<event>
 4    1  0.6824761E+001  0.2020270E+02  0.7546771E-02  0.1530959E+00
          2   -1    0    0  502    0  0.00000000000E+00  0.00000000000E+00  0.43240314197E+03  0.43240314197E+03  0.00000000000E+00 0. -1.
         -2   -1    0    0    0  501 -0.00000000000E+00 -0.00000000000E+00 -0.18963145519E+01  0.18963145519E+01  0.00000000000E+00 0.  1.
          1    1    1    2  502    0  0.20001826888E+02 -0.28418093254E+01  0.61361713884E+02  0.64601926363E+02  0.00000000000E+00 0.  1.
         -1    1    1    2    0  501 -0.20001826888E+02  0.28418093254E+01  0.36914511354E+03  0.36969753016E+03  0.00000000000E+00 0. -1.
</event>
<event>
 4    1  0.6824761E+001  0.2209524E+02  0.7546771E-02  0.1504183E+00
          2   -1    0    0  502    0  0.00000000000E+00  0.00000000000E+00  0.53695253179E+03  0.53695253179E+03  0.00000000000E+00 0.  1.
         -2   -1    0    0    0  501 -0.00000000000E+00 -0.00000000000E+00 -0.22157949584E+01  0.22157949584E+01  0.00000000000E+00 0. -1.
          1    1    1    2  502    0 -0.14998743565E+02  0.16224589863E+02  0.47438218999E+03  0.47489647483E+03  0.00000000000E+00 0.  1.
         -1    1    1    2    0  501  0.14998743565E+02 -0.16224589863E+02  0.60354546840E+02  0.64271851918E+02  0.00000000000E+00 0. -1.
</event>
<event>
 4    1  0.6824761E+001  0.4313694E+02  0.7546771E-02  0.1331023E+00
          2   -1    0    0  502    0  0.00000000000E+00  0.00000000000E+00  0.66900007177E+03  0.66900007177E+03  0.00000000000E+00 0.  1.
         -2   -1    0    0    0  501 -0.00000000000E+00 -0.00000000000E+00 -0.43238436053E+01  0.43238436053E+01  0.00000000000E+00 0. -1.
          1    1    1    2  502    0 -0.18140381975E+02  0.39137223310E+02  0.53341192803E+03  0.53515332445E+03  0.00000000000E+00 0.  1.
         -1    1    1    2    0  501  0.18140381975E+02 -0.39137223310E+02  0.13126430014E+03  0.13817059093E+03  0.00000000000E+00 0. -1.
</event>
<event>
 4    1  0.6824761E+001  0.3236879E+02  0.7546771E-02  0.1400069E+00
          2   -1    0    0  502    0  0.00000000000E+00  0.00000000000E+00  0.61526906858E+03  0.61526906858E+03  0.00000000000E+00 0. -1.
         -2   -1    0    0    0  501 -0.00000000000E+00 -0.00000000000E+00 -0.18910229191E+01  0.18910229191E+01  0.00000000000E+00 0.  1.
          1    1    1    2  502    0 -0.22413108341E+02  0.23353611443E+02  0.40401888773E+03  0.40531345923E+03  0.00000000000E+00 0. -1.
         -1    1    1    2    0  501  0.22413108341E+02 -0.23353611443E+02  0.20935915794E+03  0.21184663227E+03  0.00000000000E+00 0.  1.
</event>
<event>
 4    1  0.6824761E+001  0.7582114E+02  0.7546771E-02  0.1213896E+00
          2   -1    0    0  502    0  0.00000000000E+00  0.00000000000E+00  0.12818875754E+04  0.12818875754E+04  0.00000000000E+00 0. -1.
         -2   -1    0    0    0  501 -0.00000000000E+00 -0.00000000000E+00 -0.44990611279E+01  0.44990611279E+01  0.00000000000E+00 0.  1.
          1    1    1    2  502    0 -0.34084673496E+02  0.67727989253E+02  0.60231986830E+03  0.60707336397E+03  0.00000000000E+00 0. -1.
         -1    1    1    2    0  501  0.34084673496E+02 -0.67727989253E+02  0.67506864593E+03  0.67931327252E+03  0.00000000000E+00 0.  1.
</event>
<event>
 4    1  0.6824761E+001  0.2834148E+02  0.7546771E-02  0.1434579E+00
          2   -1    0    0  502    0  0.00000000000E+00  0.00000000000E+00  0.12500059741E+04  0.12500059741E+04  0.00000000000E+00 0.  1.
         -2   -1    0    0    0  501 -0.00000000000E+00 -0.00000000000E+00 -0.68642980086E+00  0.68642980086E+00  0.00000000000E+00 0. -1.
          1    1    1    2  502    0  0.18754989968E+02  0.21248285705E+02  0.78269897860E+03  0.78321193198E+03  0.00000000000E+00 0.  1.
         -1    1    1    2    0  501 -0.18754989968E+02 -0.21248285705E+02  0.46662056566E+03  0.46748047188E+03  0.00000000000E+00 0. -1.
</event>
<event>
 4    1  0.6824761E+001  0.4188853E+02  0.7546771E-02  0.1337761E+00
          2   -1    0    0  502    0  0.00000000000E+00  0.00000000000E+00  0.66489831491E+02  0.66489831491E+02  0.00000000000E+00 0.  1.
         -2   -1    0    0    0  501 -0.00000000000E+00 -0.00000000000E+00 -0.27078351343E+02  0.27078351343E+02  0.00000000000E+00 0. -1.
          1    1    1    2  502    0 -0.68174347668E+01 -0.41330030255E+02  0.27166391939E+02  0.49926562757E+02  0.00000000000E+00 0.  1.
         -1    1    1    2    0  501  0.68174347668E+01  0.41330030255E+02  0.12245088209E+02  0.43641620077E+02  0.00000000000E+00 0. -1.
</event>
<event>
 4    1  0.6824761E+001  0.3608937E+02  0.7546771E-02  0.1373062E+00
          2   -1    0    0  502    0  0.00000000000E+00  0.00000000000E+00  0.18813885843E+03  0.18813885843E+03  0.00000000000E+00 0.  1.
         -2   -1    0    0    0  501 -0.00000000000E+00 -0.00000000000E+00 -0.73990236168E+01  0.73990236168E+01  0.00000000000E+00 0. -1.
          1    1    1    2  502    0 -0.23320683675E+01 -0.36013941024E+02  0.65565343734E+02  0.74841544546E+02  0.00000000000E+00 0. -1.
         -1    1    1    2    0  501  0.23320683675E+01  0.36013941024E+02  0.11517449108E+03  0.12069633750E+03  0.00000000000E+00 0.  1.
</event>
<event>
 4    1  0.6824761E+001  0.4187745E+02  0.7546771E-02  0.1337822E+00
          2   -1    0    0  502    0  0.00000000000E+00  0.00000000000E+00  0.13499993809E+04  0.13499993809E+04  0.00000000000E+00 0.  1.
         -2   -1    0    0    0  501 -0.00000000000E+00 -0.00000000000E+00 -0.26678483660E+01  0.26678483660E+01  0.00000000000E+00 0. -1.
          1    1    1    2  502    0  0.35076361105E+02 -0.22877272843E+02  0.11581165559E+04  0.11588734520E+04  0.00000000000E+00 0.  1.
         -1    1    1    2    0  501 -0.35076361105E+02  0.22877272843E+02  0.18921497665E+03  0.19379377727E+03  0.00000000000E+00 0. -1.
</event>
<event>
 4    1  0.6824761E+001  0.2225518E+02  0.7546771E-02  0.1502069E+00
          2   -1    0    0  502    0  0.00000000000E+00  0.00000000000E+00  0.68742941065E+03  0.68742941065E+03  0.00000000000E+00 0. -1.
         -2   -1    0    0    0  501 -0.00000000000E+00 -0.00000000000E+00 -0.10835605449E+01  0.10835605449E+01  0.00000000000E+00 0.  1.
          1    1    1    2  502    0  0.16751230952E+02  0.14652284263E+02  0.54244425599E+03  0.54290060234E+03  0.00000000000E+00 0. -1.
         -1    1    1    2    0  501 -0.16751230952E+02 -0.14652284263E+02  0.14390159412E+03  0.14561236885E+03  0.00000000000E+00 0.  1.
</event>
<event>
 4    1  0.6824761E+001  0.2011491E+02  0.7546771E-02  0.1532286E+00
          2   -1    0    0  502    0  0.00000000000E+00  0.00000000000E+00  0.35976727597E+03  0.35976727597E+03  0.00000000000E+00 0. -1.
         -2   -1    0    0    0  501 -0.00000000000E+00 -0.00000000000E+00 -0.11439764156E+01  0.11439764156E+01  0.00000000000E+00 0.  1.
          1    1    1    2  502    0  0.18490142031E+02  0.79198528775E+01  0.15585173761E+03  0.15714443528E+03  0.00000000000E+00 0.  1.
         -1    1    1    2    0  501 -0.18490142031E+02 -0.79198528775E+01  0.20277156194E+03  0.20376681711E+03  0.00000000000E+00 0. -1.
</event>
<event>
 4    1  0.6824761E+001  0.3289117E+02  0.7546771E-02  0.1396028E+00
          2   -1    0    0  502    0  0.00000000000E+00  0.00000000000E+00  0.14050150342E+04  0.14050150342E+04  0.00000000000E+00 0. -1.
         -2   -1    0    0    0  501 -0.00000000000E+00 -0.00000000000E+00 -0.13209299584E+01  0.13209299584E+01  0.00000000000E+00 0.  1.
          1    1    1    2  502    0  0.31496316254E+02 -0.94768601044E+01  0.24772083248E+03  0.24989485721E+03  0.00000000000E+00 0.  1.
         -1    1    1    2    0  501 -0.31496316254E+02  0.94768601044E+01  0.11559732718E+04  0.11564411070E+04  0.00000000000E+00 0. -1.
</event>
<event>
 4    1  0.6824761E+001  0.2120927E+02  0.7546771E-02  0.1516298E+00
          2   -1    0    0  502    0  0.00000000000E+00  0.00000000000E+00  0.40279489075E+02  0.40279489075E+02  0.00000000000E+00 0. -1.
         -2   -1    0    0    0  501 -0.00000000000E+00 -0.00000000000E+00 -0.26449366458E+02  0.26449366458E+02  0.00000000000E+00 0.  1.
          1    1    1    2  502    0 -0.12192747230E+02 -0.17354247192E+02 -0.18445571494E+02  0.28108221010E+02  0.00000000000E+00 0.  1.
         -1    1    1    2    0  501  0.12192747230E+02  0.17354247192E+02  0.32275694111E+02  0.38620634523E+02  0.00000000000E+00 0. -1.
</event>
<event>
 4    1  0.6824761E+001  0.4805018E+02  0.7546771E-02  0.1306855E+00
          2   -1    0    0  502    0  0.00000000000E+00  0.00000000000E+00  0.27719954204E+04  0.27719954204E+04  0.00000000000E+00 0.  1.
         -2   -1    0    0    0  501 -0.00000000000E+00 -0.00000000000E+00 -0.11231026313E+01  0.11231026313E+01  0.00000000000E+00 0. -1.
          1    1    1    2  502    0 -0.99859800532E+01  0.47001065316E+02  0.20902471221E+04  0.20907993331E+04  0.00000000000E+00 0.  1.
         -1    1    1    2    0  501  0.99859800532E+01 -0.47001065316E+02  0.68062519566E+03  0.68231918990E+03  0.00000000000E+00 0. -1.
</event>
<event>
 4    1  0.6824761E+001  0.2059511E+02  0.7546771E-02  0.1525125E+00
          2   -1    0    0  502    0  0.00000000000E+00  0.00000000000E+00  0.24577573457E+01  0.24577573457E+01  0.00000000000E+00 0. -1.
         -2   -1    0    0    0  501 -0.00000000000E+00 -0.00000000000E+00 -0.17262095997E+03  0.17262095997E+03  0.00000000000E+00 0.  1.
          1    1    1    2  502    0 -0.15275458052E+02  0.13813716512E+02 -0.86439267984E+02  0.88858907444E+02  0.00000000000E+00 0. -1.
         -1    1    1    2    0  501  0.15275458052E+02 -0.13813716512E+02 -0.83723934638E+02  0.86219809869E+02  0.00000000000E+00 0.  1.
</event>
<event>
 4    1  0.6824761E+001  0.2803090E+02  0.7546771E-02  0.1437519E+00
          2   -1    0    0  502    0  0.00000000000E+00  0.00000000000E+00  0.14683096622E+04  0.14683096622E+04  0.00000000000E+00 0. -1.
         -2   -1    0    0    0  501 -0.00000000000E+00 -0.00000000000E+00 -0.82184765935E+00  0.82184765935E+00  0.00000000000E+00 0.  1.
          1    1    1    2  502    0  0.92068750320E+01  0.26475741267E+02  0.11676191622E+04  0.11679555811E+04  0.00000000000E+00 0. -1.
         -1    1    1    2    0  501 -0.92068750320E+01 -0.26475741267E+02  0.29986865230E+03  0.30117592874E+03  0.00000000000E+00 0.  1.
</event>
<event>
 4    1  0.6824761E+001  0.3491808E+02  0.7546771E-02  0.1381140E+00
          2   -1    0    0  502    0  0.00000000000E+00  0.00000000000E+00  0.26559099696E+02  0.26559099696E+02  0.00000000000E+00 0.  1.
         -2   -1    0    0    0  501 -0.00000000000E+00 -0.00000000000E+00 -0.63814387406E+02  0.63814387406E+02  0.00000000000E+00 0. -1.
          1    1    1    2  502    0  0.34044831955E+02 -0.77602679485E+01  0.53086557446E+01  0.35319317198E+02  0.00000000000E+00 0.  1.
         -1    1    1    2    0  501 -0.34044831955E+02  0.77602679485E+01 -0.42563943454E+02  0.55054169904E+02  0.00000000000E+00 0. -1.
</event>
<event>
 4    1  0.6824761E+001  0.2446954E+02  0.7546771E-02  0.1474826E+00
          2   -1    0    0  502    0  0.00000000000E+00  0.00000000000E+00  0.52129940840E+03  0.52129940840E+03  0.00000000000E+00 0. -1.
         -2   -1    0    0    0  501 -0.00000000000E+00 -0.00000000000E+00 -0.12301162714E+01  0.12301162714E+01  0.00000000000E+00 0.  1.
          1    1    1    2  502    0  0.15604085492E+02  0.18848629773E+02  0.19277393599E+03  0.19432073674E+03  0.00000000000E+00 0.  1.
         -1    1    1    2    0  501 -0.15604085492E+02 -0.18848629773E+02  0.32729535614E+03  0.32820878793E+03  0.00000000000E+00 0. -1.
</event>
<event>
 4    1  0.6824761E+001  0.2255576E+02  0.7546771E-02  0.1498153E+00
          2   -1    0    0  502    0  0.00000000000E+00  0.00000000000E+00  0.68414703483E+03  0.68414703483E+03  0.00000000000E+00 0.  1.
         -2   -1    0    0    0  501 -0.00000000000E+00 -0.00000000000E+00 -0.68491198381E+01  0.68491198381E+01  0.00000000000E+00 0. -1.
          1    1    1    2  502    0 -0.47540403984E+00  0.22550748466E+02  0.66485198587E+03  0.66523448902E+03  0.00000000000E+00 0.  1.
         -1    1    1    2    0  501  0.47540403984E+00 -0.22550748466E+02  0.12445929125E+02  0.25761665652E+02  0.00000000000E+00 0. -1.
</event>
<event>
 4    1  0.6824761E+001  0.2130813E+02  0.7546771E-02  0.1514911E+00
          2   -1    0    0  502    0  0.00000000000E+00  0.00000000000E+00  0.25068857273E+04  0.25068857273E+04  0.00000000000E+00 0.  1.
         -2   -1    0    0    0  501 -0.00000000000E+00 -0.00000000000E+00 -0.18273367872E+00  0.18273367872E+00  0.00000000000E+00 0. -1.
          1    1    1    2  502    0 -0.11572444518E+02  0.17891751717E+02  0.11353957019E+04  0.11355956306E+04  0.00000000000E+00 0.  1.
         -1    1    1    2    0  501  0.11572444518E+02 -0.17891751717E+02  0.13713072917E+04  0.13714728304E+04  0.00000000000E+00 0. -1.
</event>
<event>
 4    1  0.6824761E+001  0.8113205E+02  0.7546771E-02  0.1201244E+00
          2   -1    0    0  502    0  0.00000000000E+00  0.00000000000E+00  0.80866450437E+03  0.80866450437E+03  0.00000000000E+00 0.  1.
         -2   -1    0    0    0  501 -0.00000000000E+00 -0.00000000000E+00 -0.99519171901E+01  0.99519171901E+01  0.00000000000E+00 0. -1.
          1    1    1    2  502    0  0.61247718046E+02  0.53208335920E+02  0.57401245087E+03  0.57971777938E+03  0.00000000000E+00 0.  1.
         -1    1    1    2    0  501 -0.61247718046E+02 -0.53208335920E+02  0.22470013632E+03  0.23889864219E+03  0.00000000000E+00 0. -1.
</event>
<event>
 4    1  0.6824761E+001  0.6789723E+02  0.7546771E-02  0.1235129E+00
          2   -1    0    0  502    0  0.00000000000E+00  0.00000000000E+00  0.24431444647E+04  0.24431444647E+04  0.00000000000E+00 0.  1.
         -2   -1    0    0    0  501 -0.00000000000E+00 -0.00000000000E+00 -0.19500445395E+01  0.19500445395E+01  0.00000000000E+00 0. -1.
          1    1    1    2  502    0  0.25103309365E+02 -0.63086112489E+02  0.10006489314E+04  0.10029498082E+04  0.00000000000E+00 0. -1.
         -1    1    1    2    0  501 -0.25103309365E+02  0.63086112489E+02  0.14405454887E+04  0.14421447011E+04  0.00000000000E+00 0.  1.
</event>
<event>
 4    1  0.6824761E+001  0.2256559E+02  0.7546771E-02  0.1498026E+00
          2   -1    0    0  502    0  0.00000000000E+00  0.00000000000E+00  0.47663715597E+03  0.47663715597E+03  0.00000000000E+00 0. -1.
         -2   -1    0    0    0  501 -0.00000000000E+00 -0.00000000000E+00 -0.14278061311E+01  0.14278061311E+01  0.00000000000E+00 0.  1.
          1    1    1    2  502    0  0.21588997055E+02 -0.65666709470E+01  0.11766659588E+03  0.11981082484E+03  0.00000000000E+00 0.  1.
         -1    1    1    2    0  501 -0.21588997055E+02  0.65666709470E+01  0.35754275396E+03  0.35825413727E+03  0.00000000000E+00 0. -1.
</event>
<event>
 4    1  0.6824761E+001  0.2759573E+02  0.7546771E-02  0.1441714E+00
          2   -1    0    0  502    0  0.00000000000E+00  0.00000000000E+00  0.63268044940E+03  0.63268044940E+03  0.00000000000E+00 0. -1.
         -2   -1    0    0    0  501 -0.00000000000E+00 -0.00000000000E+00 -0.12382430145E+01  0.12382430145E+01  0.00000000000E+00 0.  1.
          1    1    1    2  502    0 -0.26247023268E+02  0.85216184197E+01  0.26274124198E+03  0.26418645773E+03  0.00000000000E+00 0. -1.
         -1    1    1    2    0  501  0.26247023268E+02 -0.85216184197E+01  0.36870096441E+03  0.36973223469E+03  0.00000000000E+00 0.  1.
</event>
<event>
 4    1  0.6824761E+001  0.2338425E+02  0.7546771E-02  0.1487729E+00
          2   -1    0    0  502    0  0.00000000000E+00  0.00000000000E+00  0.31505914880E+02  0.31505914880E+02  0.00000000000E+00 0. -1.
         -2   -1    0    0    0  501 -0.00000000000E+00 -0.00000000000E+00 -0.18884290700E+02  0.18884290700E+02  0.00000000000E+00 0.  1.
          1    1    1    2  502    0 -0.19280245553E+02  0.13232364522E+02 -0.85620846716E+00  0.23399923768E+02  0.00000000000E+00 0.  1.
         -1    1    1    2    0  501  0.19280245553E+02 -0.13232364522E+02  0.13477832647E+02  0.26990281812E+02  0.00000000000E+00 0. -1.
</event>
<event>
 4    1  0.6824761E+001  0.3064762E+02  0.7546771E-02  0.1414050E+00
          2   -1    0    0  502    0  0.00000000000E+00  0.00000000000E+00  0.60304475555E+03  0.60304475555E+03  0.00000000000E+00 0. -1.
         -2   -1    0    0    0  501 -0.00000000000E+00 -0.00000000000E+00 -0.31855039992E+01  0.31855039992E+01  0.00000000000E+00 0.  1.
          1    1    1    2  502    0 -0.26089546516E+02 -0.16081431507E+02  0.51661949241E+03  0.51752775464E+03  0.00000000000E+00 0. -1.
         -1    1    1    2    0  501  0.26089546516E+02  0.16081431507E+02  0.83239759141E+02  0.88702504917E+02  0.00000000000E+00 0.  1.
</event>
<event>
 4    1  0.6824761E+001  0.7060385E+02  0.7546771E-02  0.1227521E+00
          2   -1    0    0  502    0  0.00000000000E+00  0.00000000000E+00  0.27462179093E+03  0.27462179093E+03  0.00000000000E+00 0.  1.
         -2   -1    0    0    0  501 -0.00000000000E+00 -0.00000000000E+00 -0.24042165858E+02  0.24042165858E+02  0.00000000000E+00 0. -1.
          1    1    1    2  502    0  0.58375712357E+02 -0.39713729027E+02  0.19920503788E+03  0.21134699237E+03  0.00000000000E+00 0.  1.
         -1    1    1    2    0  501 -0.58375712357E+02  0.39713729027E+02  0.51374587192E+02  0.87316964421E+02  0.00000000000E+00 0. -1.
</event>
<event>
 4    1  0.6824761E+001  0.3056961E+02  0.7546771E-02  0.1414710E+00
          2   -1    0    0  502    0  0.00000000000E+00  0.00000000000E+00  0.12149945636E+04  0.12149945636E+04  0.00000000000E+00 0.  1.
         -2   -1    0    0    0  501 -0.00000000000E+00 -0.00000000000E+00 -0.10167019915E+01  0.10167019915E+01  0.00000000000E+00 0. -1.
          1    1    1    2  502    0  0.25889927789E+02  0.16254620639E+02  0.30696724123E+03  0.30848563701E+03  0.00000000000E+00 0. -1.
         -1    1    1    2    0  501 -0.25889927789E+02 -0.16254620639E+02  0.90701062035E+03  0.90752562855E+03  0.00000000000E+00 0.  1.
</event>
<event>
 4    1  0.6824761E+001  0.3391306E+02  0.7546771E-02  0.1388370E+00
          2   -1    0    0  502    0  0.00000000000E+00  0.00000000000E+00  0.55964427626E+03  0.55964427626E+03  0.00000000000E+00 0. -1.
         -2   -1    0    0    0  501 -0.00000000000E+00 -0.00000000000E+00 -0.23345963421E+01  0.23345963421E+01  0.00000000000E+00 0.  1.
          1    1    1    2  502    0 -0.32601055498E+02  0.93416716519E+01  0.37588764914E+03  0.37741438821E+03  0.00000000000E+00 0. -1.
         -1    1    1    2    0  501  0.32601055498E+02 -0.93416716519E+01  0.18142203077E+03  0.18456448439E+03  0.00000000000E+00 0.  1.
</event>
<event>
 4    1  0.6824761E+001  0.2940864E+02  0.7546771E-02  0.1424806E+00
          2   -1    0    0  502    0  0.00000000000E+00  0.00000000000E+00  0.57716817384E+03  0.57716817384E+03  0.00000000000E+00 0.  1.
         -2   -1    0    0    0  501 -0.00000000000E+00 -0.00000000000E+00 -0.15042067453E+01  0.15042067453E+01  0.00000000000E+00 0. -1.
          1    1    1    2  502    0 -0.55150176470E+01 -0.28886899205E+02  0.30570245798E+03  0.30711375934E+03  0.00000000000E+00 0. -1.
         -1    1    1    2    0  501  0.55150176470E+01  0.28886899205E+02  0.26996150912E+03  0.27155862124E+03  0.00000000000E+00 0.  1.
</event>
<event>
 4    1  0.6824761E+001  0.2326109E+02  0.7546771E-02  0.1489245E+00
          2   -1    0    0  502    0  0.00000000000E+00  0.00000000000E+00  0.23202937916E+03  0.23202937916E+03  0.00000000000E+00 0.  1.
         -2   -1    0    0    0  501 -0.00000000000E+00 -0.00000000000E+00 -0.50133045978E+01  0.50133045978E+01  0.00000000000E+00 0. -1.
          1    1    1    2  502    0 -0.34785421944E+01  0.22999518215E+02  0.20018678386E+03  0.20153368584E+03  0.00000000000E+00 0.  1.
         -1    1    1    2    0  501  0.34785421944E+01 -0.22999518215E+02  0.26829290702E+02  0.35508997923E+02  0.00000000000E+00 0. -1.
</event>
<event>
 4    1  0.6824761E+001  0.3823242E+02  0.7546771E-02  0.1359167E+00
          2   -1    0    0  502    0  0.00000000000E+00  0.00000000000E+00  0.11724409336E+04  0.11724409336E+04  0.00000000000E+00 0. -1.
         -2   -1    0    0    0  501 -0.00000000000E+00 -0.00000000000E+00 -0.40557720646E+01  0.40557720646E+01  0.00000000000E+00 0.  1.
          1    1    1    2  502    0 -0.31656009106E+02 -0.21438635682E+02  0.94635852866E+02  0.10206695185E+03  0.00000000000E+00 0.  1.
         -1    1    1    2    0  501  0.31656009106E+02  0.21438635682E+02  0.10737493087E+04  0.10744297538E+04  0.00000000000E+00 0. -1.
</event>
<event>
 4    1  0.6824761E+001  0.2011468E+02  0.7546771E-02  0.1532290E+00
          2   -1    0    0  502    0  0.00000000000E+00  0.00000000000E+00  0.72955026277E+02  0.72955026277E+02  0.00000000000E+00 0.  1.
         -2   -1    0    0    0  501 -0.00000000000E+00 -0.00000000000E+00 -0.10337700416E+02  0.10337700416E+02  0.00000000000E+00 0. -1.
          1    1    1    2  502    0  0.16365788124E+02  0.11694500242E+02  0.29546164647E+01  0.20330521766E+02  0.00000000000E+00 0. -1.
         -1    1    1    2    0  501 -0.16365788124E+02 -0.11694500242E+02  0.59662709396E+02  0.62962204927E+02  0.00000000000E+00 0.  1.
</event>
<event>
 4    1  0.6824761E+001  0.2481370E+02  0.7546771E-02  0.1470898E+00
          2   -1    0    0  502    0  0.00000000000E+00  0.00000000000E+00  0.34930339631E+03  0.34930339631E+03  0.00000000000E+00 0.  1.
         -2   -1    0    0    0  501 -0.00000000000E+00 -0.00000000000E+00 -0.19909193772E+01  0.19909193772E+01  0.00000000000E+00 0. -1.
          1    1    1    2  502    0 -0.18343631749E+02  0.16710208739E+02  0.23312418013E+03  0.23444104432E+03  0.00000000000E+00 0.  1.
         -1    1    1    2    0  501  0.18343631749E+02 -0.16710208739E+02  0.11418829681E+03  0.11685327137E+03  0.00000000000E+00 0. -1.
</event>
<event>
 4    1  0.6824761E+001  0.4129762E+02  0.7546771E-02  0.1341045E+00
          2   -1    0    0  502    0  0.00000000000E+00  0.00000000000E+00  0.82418940787E+03  0.82418940787E+03  0.00000000000E+00 0.  1.
         -2   -1    0    0    0  501 -0.00000000000E+00 -0.00000000000E+00 -0.25183744751E+01  0.25183744751E+01  0.00000000000E+00 0. -1.
          1    1    1    2  502    0 -0.16836067687E+02 -0.37709953340E+02  0.23628470439E+03  0.23986653640E+03  0.00000000000E+00 0. -1.
         -1    1    1    2    0  501  0.16836067687E+02  0.37709953340E+02  0.58538632900E+03  0.58684124594E+03  0.00000000000E+00 0.  1.
</event>
<event>
 4    1  0.6824761E+001  0.2452020E+02  0.7546771E-02  0.1474243E+00
          2   -1    0    0  502    0  0.00000000000E+00  0.00000000000E+00  0.11588855583E+02  0.11588855583E+02  0.00000000000E+00 0. -1.
         -2   -1    0    0    0  501 -0.00000000000E+00 -0.00000000000E+00 -0.58715230062E+02  0.58715230062E+02  0.00000000000E+00 0.  1.
          1    1    1    2  502    0 -0.16448164153E+02  0.18185111095E+02 -0.11570324787E+02  0.27112963417E+02  0.00000000000E+00 0.  1.
         -1    1    1    2    0  501  0.16448164153E+02 -0.18185111095E+02 -0.35556049692E+02  0.43191122228E+02  0.00000000000E+00 0. -1.
</event>
<event>
 4    1  0.6824761E+001  0.2311178E+02  0.7546771E-02  0.1491099E+00
          2   -1    0    0  502    0  0.00000000000E+00  0.00000000000E+00  0.77914687923E+03  0.77914687923E+03  0.00000000000E+00 0.  1.
         -2   -1    0    0    0  501 -0.00000000000E+00 -0.00000000000E+00 -0.12272761852E+01  0.12272761852E+01  0.00000000000E+00 0. -1.
          1    1    1    2  502    0  0.18993709033E+02 -0.13167886529E+02  0.12972908549E+03  0.13177173384E+03  0.00000000000E+00 0. -1.
         -1    1    1    2    0  501 -0.18993709033E+02  0.13167886529E+02  0.64819051755E+03  0.64860242157E+03  0.00000000000E+00 0.  1.
</event>
<event>
 4    1  0.6824761E+001  0.2084886E+02  0.7546771E-02  0.1521434E+00
          2   -1    0    0  502    0  0.00000000000E+00  0.00000000000E+00  0.56069437524E+03  0.56069437524E+03  0.00000000000E+00 0. -1.
         -2   -1    0    0    0  501 -0.00000000000E+00 -0.00000000000E+00 -0.78527311630E+00  0.78527311630E+00  0.00000000000E+00 0.  1.
          1    1    1    2  502    0 -0.13208880515E+02 -0.16130725927E+02  0.24822754305E+03  0.24910156156E+03  0.00000000000E+00 0. -1.
         -1    1    1    2    0  501  0.13208880515E+02  0.16130725927E+02  0.31168155907E+03  0.31237808679E+03  0.00000000000E+00 0.  1.
</event>
<event>
 4    1  0.6824761E+001  0.5054588E+02  0.7546771E-02  0.1295823E+00
          2   -1    0    0  502    0  0.00000000000E+00  0.00000000000E+00  0.66585304199E+03  0.66585304199E+03  0.00000000000E+00 0.  1.
         -2   -1    0    0    0  501 -0.00000000000E+00 -0.00000000000E+00 -0.38438225384E+01  0.38438225384E+01  0.00000000000E+00 0. -1.
          1    1    1    2  502    0  0.41798996303E+02  0.28420591032E+02  0.34509939828E+03  0.34878142264E+03  0.00000000000E+00 0.  1.
         -1    1    1    2    0  501 -0.41798996303E+02 -0.28420591032E+02  0.31690982117E+03  0.32091544189E+03  0.00000000000E+00 0. -1.
</event>
<event>
 4    1  0.6824761E+001  0.2464578E+02  0.7546771E-02  0.1472805E+00
          2   -1    0    0  502    0  0.00000000000E+00  0.00000000000E+00  0.28408416045E+04  0.28408416045E+04  0.00000000000E+00 0. -1.
         -2   -1    0    0    0  501 -0.00000000000E+00 -0.00000000000E+00 -0.21852551680E+00  0.21852551680E+00  0.00000000000E+00 0.  1.
          1    1    1    2  502    0 -0.21214150519E+02  0.12544898339E+02  0.12117511337E+04  0.12120017429E+04  0.00000000000E+00 0. -1.
         -1    1    1    2    0  501  0.21214150519E+02 -0.12544898339E+02  0.16288719453E+04  0.16290583872E+04  0.00000000000E+00 0.  1.
</event>
<event>
 4    1  0.6824761E+001  0.4688028E+02  0.7546771E-02  0.1312296E+00
          2   -1    0    0  502    0  0.00000000000E+00  0.00000000000E+00  0.11385849702E+03  0.11385849702E+03  0.00000000000E+00 0. -1.
         -2   -1    0    0    0  501 -0.00000000000E+00 -0.00000000000E+00 -0.24097985363E+02  0.24097985363E+02  0.00000000000E+00 0.  1.
          1    1    1    2  502    0 -0.38529142108E+02 -0.26707033282E+02  0.14109700302E+02  0.48957574092E+02  0.00000000000E+00 0.  1.
         -1    1    1    2    0  501  0.38529142108E+02  0.26707033282E+02  0.75650811352E+02  0.88998908288E+02  0.00000000000E+00 0. -1.
</event>
<event>
 4    1  0.6824761E+001  0.3803488E+02  0.7546771E-02  0.1360403E+00
          2   -1    0    0  502    0  0.00000000000E+00  0.00000000000E+00  0.15699062876E+04  0.15699062876E+04  0.00000000000E+00 0.  1.
         -2   -1    0    0    0  501 -0.00000000000E+00 -0.00000000000E+00 -0.92673345755E+00  0.92673345755E+00  0.00000000000E+00 0. -1.
          1    1    1    2  502    0 -0.37951736480E+02 -0.25135016216E+01  0.72540758324E+03  0.72640402932E+03  0.00000000000E+00 0. -1.
         -1    1    1    2    0  501  0.37951736480E+02  0.25135016216E+01  0.84357197088E+03  0.84442899172E+03  0.00000000000E+00 0.  1.
</event>
<event>
 4    1  0.6824761E+001  0.3480420E+02  0.7546771E-02  0.1381945E+00
          2   -1    0    0  502    0  0.00000000000E+00  0.00000000000E+00  0.31030278248E+03  0.31030278248E+03  0.00000000000E+00 0. -1.
         -2   -1    0    0    0  501 -0.00000000000E+00 -0.00000000000E+00 -0.45437487232E+01  0.45437487232E+01  0.00000000000E+00 0.  1.
          1    1    1    2  502    0  0.34657748149E+02 -0.31894534842E+01  0.93796203873E+02  0.10004528965E+03  0.00000000000E+00 0.  1.
         -1    1    1    2    0  501 -0.34657748149E+02  0.31894534842E+01  0.21196282989E+03  0.21480124156E+03  0.00000000000E+00 0. -1.
</event>
<event>
 4    1  0.6824761E+001  0.2262796E+02  0.7546771E-02  0.1497223E+00
          2   -1    0    0  502    0  0.00000000000E+00  0.00000000000E+00  0.15067395585E+04  0.15067395585E+04  0.00000000000E+00 0. -1.
         -2   -1    0    0    0  501 -0.00000000000E+00 -0.00000000000E+00 -0.34278776863E+00  0.34278776863E+00  0.00000000000E+00 0.  1.
          1    1    1    2  502    0  0.20057580672E+02 -0.10474643229E+02  0.68311858883E+03  0.68349325608E+03  0.00000000000E+00 0.  1.
         -1    1    1    2    0  501 -0.20057580672E+02  0.10474643229E+02  0.82327818186E+03  0.82358909015E+03  0.00000000000E+00 0. -1.
</event>
<event>
 4    1  0.6824761E+001  0.2837657E+02  0.7546771E-02  0.1434250E+00
          2   -1    0    0  502    0  0.00000000000E+00  0.00000000000E+00  0.10560095808E+04  0.10560095808E+04  0.00000000000E+00 0. -1.
         -2   -1    0    0    0  501 -0.00000000000E+00 -0.00000000000E+00 -0.86822413608E+00  0.86822413608E+00  0.00000000000E+00 0.  1.
          1    1    1    2  502    0  0.27906608487E+02  0.51430604350E+01  0.71195417185E+03  0.71251945425E+03  0.00000000000E+00 0. -1.
         -1    1    1    2    0  501 -0.27906608487E+02 -0.51430604350E+01  0.34318718486E+03  0.34435835073E+03  0.00000000000E+00 0.  1.
</event>
<event>
 4    1  0.6824761E+001  0.3619859E+02  0.7546771E-02  0.1372327E+00
          2   -1    0    0  502    0  0.00000000000E+00  0.00000000000E+00  0.67672700207E+03  0.67672700207E+03  0.00000000000E+00 0.  1.
         -2   -1    0    0    0  501 -0.00000000000E+00 -0.00000000000E+00 -0.20228113048E+01  0.20228113048E+01  0.00000000000E+00 0. -1.
          1    1    1    2  502    0  0.31550389706E+02 -0.17745728873E+02  0.40754125388E+03  0.40914570949E+03  0.00000000000E+00 0.  1.
         -1    1    1    2    0  501 -0.31550389706E+02  0.17745728873E+02  0.26716293689E+03  0.26960410388E+03  0.00000000000E+00 0. -1.
</event>
<event>
 4    1  0.6824761E+001  0.2085103E+02  0.7546771E-02  0.1521402E+00
          2   -1    0    0  502    0  0.00000000000E+00  0.00000000000E+00  0.14554521236E+01  0.14554521236E+01  0.00000000000E+00 0.  1.
         -2   -1    0    0    0  501 -0.00000000000E+00 -0.00000000000E+00 -0.38450706208E+03  0.38450706208E+03  0.00000000000E+00 0. -1.
          1    1    1    2  502    0  0.18231253657E+02 -0.10118633021E+02 -0.28268208385E+03  0.28345004124E+03  0.00000000000E+00 0.  1.
         -1    1    1    2    0  501 -0.18231253657E+02  0.10118633021E+02 -0.10036952611E+03  0.10251247297E+03  0.00000000000E+00 0. -1.
</event>
<event>
 4    1  0.6824761E+001  0.2098699E+02  0.7546771E-02  0.1519451E+00
          2   -1    0    0  502    0  0.00000000000E+00  0.00000000000E+00  0.88560237543E+01  0.88560237543E+01  0.00000000000E+00 0.  1.
         -2   -1    0    0    0  501 -0.00000000000E+00 -0.00000000000E+00 -0.78419067124E+02  0.78419067124E+02  0.00000000000E+00 0. -1.
          1    1    1    2  502    0  0.20525203989E+02  0.43783276591E+01 -0.83896405076E+01  0.22601765855E+02  0.00000000000E+00 0.  1.
         -1    1    1    2    0  501 -0.20525203989E+02 -0.43783276591E+01 -0.61173402862E+02  0.64673325024E+02  0.00000000000E+00 0. -1.
</event>
<event>
 4    1  0.6824761E+001  0.2975835E+02  0.7546771E-02  0.1421708E+00
          2   -1    0    0  502    0  0.00000000000E+00  0.00000000000E+00  0.23105272427E+03  0.23105272427E+03  0.00000000000E+00 0. -1.
         -2   -1    0    0    0  501 -0.00000000000E+00 -0.00000000000E+00 -0.16087909911E+02  0.16087909911E+02  0.00000000000E+00 0.  1.
          1    1    1    2  502    0  0.86704440109E+01 -0.28467220061E+02 -0.36866368038E+00  0.29760630542E+02  0.00000000000E+00 0.  1.
         -1    1    1    2    0  501 -0.86704440109E+01  0.28467220061E+02  0.21533347804E+03  0.21738000364E+03  0.00000000000E+00 0. -1.
</event>
<event>
 4    1  0.6824761E+001  0.2054641E+02  0.7546771E-02  0.1525840E+00
          2   -1    0    0  502    0  0.00000000000E+00  0.00000000000E+00  0.68046630526E+01  0.68046630526E+01  0.00000000000E+00 0. -1.
         -2   -1    0    0    0  501 -0.00000000000E+00 -0.00000000000E+00 -0.10398400742E+03  0.10398400742E+03  0.00000000000E+00 0.  1.
          1    1    1    2  502    0 -0.48802213477E+01  0.19958419019E+02 -0.83771774889E+02  0.86254653893E+02  0.00000000000E+00 0.  1.
         -1    1    1    2    0  501  0.48802213477E+01 -0.19958419019E+02 -0.13407569475E+02  0.24534016576E+02  0.00000000000E+00 0. -1.
</event>
<event>
 4    1  0.6824761E+001  0.2271842E+02  0.7546771E-02  0.1496065E+00
          2   -1    0    0  502    0  0.00000000000E+00  0.00000000000E+00  0.15279932150E+03  0.15279932150E+03  0.00000000000E+00 0. -1.
         -2   -1    0    0    0  501 -0.00000000000E+00 -0.00000000000E+00 -0.34069334037E+01  0.34069334037E+01  0.00000000000E+00 0.  1.
          1    1    1    2  502    0 -0.20205826975E+02  0.10385138876E+02  0.67474598123E+02  0.71196544474E+02  0.00000000000E+00 0.  1.
         -1    1    1    2    0  501  0.20205826975E+02 -0.10385138876E+02  0.81917789973E+02  0.85009710429E+02  0.00000000000E+00 0. -1.
</event>
<event>
 4    1  0.6824761E+001  0.2152000E+02  0.7546771E-02  0.1511968E+00
          2   -1    0    0  502    0  0.00000000000E+00  0.00000000000E+00  0.14934673518E+01  0.14934673518E+01  0.00000000000E+00 0. -1.
         -2   -1    0    0    0  501 -0.00000000000E+00 -0.00000000000E+00 -0.67159526039E+03  0.67159526039E+03  0.00000000000E+00 0.  1.
          1    1    1    2  502    0  0.19763253578E+02 -0.85161248496E+01 -0.88137129678E+02  0.90726314828E+02  0.00000000000E+00 0. -1.
         -1    1    1    2    0  501 -0.19763253578E+02  0.85161248496E+01 -0.58196466336E+03  0.58236241291E+03  0.00000000000E+00 0.  1.
</event>
<event>
 4    1  0.6824761E+001  0.3183001E+02  0.7546771E-02  0.1404333E+00
          2   -1    0    0  502    0  0.00000000000E+00  0.00000000000E+00  0.15965735740E+02  0.15965735740E+02  0.00000000000E+00 0.  1.
         -2   -1    0    0    0  501 -0.00000000000E+00 -0.00000000000E+00 -0.65303358514E+02  0.65303358514E+02  0.00000000000E+00 0. -1.
          1    1    1    2  502    0 -0.16865435897E+02 -0.26994569329E+02 -0.17837608155E+02  0.36487394618E+02  0.00000000000E+00 0. -1.
         -1    1    1    2    0  501  0.16865435897E+02  0.26994569329E+02 -0.31500014619E+02  0.44781699636E+02  0.00000000000E+00 0.  1.
</event>
<event>
 4    1  0.6824761E+001  0.2725006E+02  0.7546771E-02  0.1445112E+00
          2   -1    0    0  502    0  0.00000000000E+00  0.00000000000E+00  0.15926095614E+04  0.15926095614E+04  0.00000000000E+00 0.  1.
         -2   -1    0    0    0  501 -0.00000000000E+00 -0.00000000000E+00 -0.46869065628E+00  0.46869065628E+00  0.00000000000E+00 0. -1.
          1    1    1    2  502    0 -0.25783216966E+02  0.88199422004E+01  0.73867508574E+03  0.73917754833E+03  0.00000000000E+00 0. -1.
         -1    1    1    2    0  501  0.25783216966E+02 -0.88199422004E+01  0.85346578495E+03  0.85390070368E+03  0.00000000000E+00 0.  1.
</event>
<event>
 4    1  0.6824761E+001  0.2017622E+02  0.7546771E-02  0.1531359E+00
          2   -1    0    0  502    0  0.00000000000E+00  0.00000000000E+00  0.86133352881E+03  0.86133352881E+03  0.00000000000E+00 0.  1.
         -2   -1    0    0    0  501 -0.00000000000E+00 -0.00000000000E+00 -0.51904223620E+00  0.51904223620E+00  0.00000000000E+00 0. -1.
          1    1    1    2  502    0  0.19761659190E+02 -0.40689962520E+01  0.30152771682E+03  0.30220199191E+03  0.00000000000E+00 0. -1.
         -1    1    1    2    0  501 -0.19761659190E+02  0.40689962520E+01  0.55928676976E+03  0.55965057914E+03  0.00000000000E+00 0.  1.
</event>
<event>
 4    1  0.6824761E+001  0.2164171E+02  0.7546771E-02  0.1510297E+00
          2   -1    0    0  502    0  0.00000000000E+00  0.00000000000E+00  0.28494309414E+02  0.28494309414E+02  0.00000000000E+00 0.  1.
         -2   -1    0    0    0  501 -0.00000000000E+00 -0.00000000000E+00 -0.19540656802E+02  0.19540656802E+02  0.00000000000E+00 0. -1.
          1    1    1    2  502    0 -0.16712048632E+02 -0.13750308489E+02 -0.50948588224E+01  0.22233333970E+02  0.00000000000E+00 0.  1.
         -1    1    1    2    0  501  0.16712048632E+02  0.13750308489E+02  0.14048511434E+02  0.25801632245E+02  0.00000000000E+00 0. -1.
</event>
<event>
 4    1  0.6824761E+001  0.2327622E+02  0.7546771E-02  0.1489058E+00
          2   -1    0    0  502    0  0.00000000000E+00  0.00000000000E+00  0.21580597050E+03  0.21580597050E+03  0.00000000000E+00 0.  1.
         -2   -1    0    0    0  501 -0.00000000000E+00 -0.00000000000E+00 -0.30919209928E+01  0.30919209928E+01  0.00000000000E+00 0. -1.
          1    1    1    2  502    0 -0.22912744926E+02 -0.40973648130E+01  0.58895647335E+02  0.63328347155E+02  0.00000000000E+00 0. -1.
         -1    1    1    2    0  501  0.22912744926E+02  0.40973648130E+01  0.15381840218E+03  0.15556954434E+03  0.00000000000E+00 0.  1.
</event>
<event>
 4    1  0.6824761E+001  0.2217026E+02  0.7546771E-02  0.1503189E+00
          2   -1    0    0  502    0  0.00000000000E+00  0.00000000000E+00  0.21612901876E+04  0.21612901876E+04  0.00000000000E+00 0. -1.
         -2   -1    0    0    0  501 -0.00000000000E+00 -0.00000000000E+00 -0.24121730709E+00  0.24121730709E+00  0.00000000000E+00 0.  1.
          1    1    1    2  502    0  0.14414093941E+02  0.16845006825E+02  0.82204484118E+03  0.82234374885E+03  0.00000000000E+00 0.  1.
         -1    1    1    2    0  501 -0.14414093941E+02 -0.16845006825E+02  0.13390041291E+04  0.13391876561E+04  0.00000000000E+00 0. -1.
</event>
<event>
 4    1  0.6824761E+001  0.2195594E+02  0.7546771E-02  0.1506042E+00
          2   -1    0    0  502    0  0.00000000000E+00  0.00000000000E+00  0.39759702545E+03  0.39759702545E+03  0.00000000000E+00 0. -1.
         -2   -1    0    0    0  501 -0.00000000000E+00 -0.00000000000E+00 -0.13135619218E+01  0.13135619218E+01  0.00000000000E+00 0.  1.
          1    1    1    2  502    0 -0.74729874726E+01  0.20645037207E+02  0.25348182609E+03  0.25443093220E+03  0.00000000000E+00 0. -1.
         -1    1    1    2    0  501  0.74729874726E+01 -0.20645037207E+02  0.14280163743E+03  0.14447965516E+03  0.00000000000E+00 0.  1.
</event>
<event>
 4    1  0.6824761E+001  0.2391198E+02  0.7546771E-02  0.1481353E+00
          2   -1    0    0  502    0  0.00000000000E+00  0.00000000000E+00  0.50030409828E+03  0.50030409828E+03  0.00000000000E+00 0.  1.
         -2   -1    0    0    0  501 -0.00000000000E+00 -0.00000000000E+00 -0.21683262692E+01  0.21683262692E+01  0.00000000000E+00 0. -1.
          1    1    1    2  502    0  0.22658278304E+02  0.76410240715E+01  0.42184188099E+03  0.42251905920E+03  0.00000000000E+00 0.  1.
         -1    1    1    2    0  501 -0.22658278304E+02 -0.76410240715E+01  0.76293891017E+02  0.79953365352E+02  0.00000000000E+00 0. -1.
</event>
<event>
 4    1  0.6824761E+001  0.2879992E+02  0.7546771E-02  0.1430320E+00
          2   -1    0    0  502    0  0.00000000000E+00  0.00000000000E+00  0.15840482137E+02  0.15840482137E+02  0.00000000000E+00 0. -1.
         -2   -1    0    0    0  501 -0.00000000000E+00 -0.00000000000E+00 -0.52566555829E+02  0.52566555829E+02  0.00000000000E+00 0.  1.
          1    1    1    2  502    0 -0.13838616131E+02 -0.25257239923E+02 -0.16228122127E+02  0.33057335233E+02  0.00000000000E+00 0.  1.
         -1    1    1    2    0  501  0.13838616131E+02  0.25257239923E+02 -0.20497951565E+02  0.35349702733E+02  0.00000000000E+00 0. -1.
</event>
<event>
 4    1  0.6824761E+001  0.3314227E+02  0.7546771E-02  0.1394116E+00
          2   -1    0    0  502    0  0.00000000000E+00  0.00000000000E+00  0.22307170401E+02  0.22307170401E+02  0.00000000000E+00 0. -1.
         -2   -1    0    0    0  501 -0.00000000000E+00 -0.00000000000E+00 -0.55165931954E+02  0.55165931954E+02  0.00000000000E+00 0.  1.
          1    1    1    2  502    0 -0.19060346973E+02  0.27112976667E+02 -0.29125037222E+02  0.44121175457E+02  0.00000000000E+00 0.  1.
         -1    1    1    2    0  501  0.19060346973E+02 -0.27112976667E+02 -0.37337243306E+01  0.33351926899E+02  0.00000000000E+00 0. -1.
</event>
<event>
 4    1  0.6824761E+001  0.2223230E+02  0.7546771E-02  0.1502370E+00
          2   -1    0    0  502    0  0.00000000000E+00  0.00000000000E+00  0.59057155700E+02  0.59057155700E+02  0.00000000000E+00 0.  1.
         -2   -1    0    0    0  501 -0.00000000000E+00 -0.00000000000E+00 -0.84697057395E+01  0.84697057395E+01  0.00000000000E+00 0. -1.
          1    1    1    2  502    0  0.39831719234E+01 -0.21872569959E+02  0.28967405431E+02  0.36515552202E+02  0.00000000000E+00 0.  1.
         -1    1    1    2    0  501 -0.39831719234E+01  0.21872569959E+02  0.21620044529E+02  0.31011309237E+02  0.00000000000E+00 0. -1.
</event>
<event>
 4    1  0.6824761E+001  0.2039393E+02  0.7546771E-02  0.1528097E+00
          2   -1    0    0  502    0  0.00000000000E+00  0.00000000000E+00  0.59878042944E+01  0.59878042944E+01  0.00000000000E+00 0. -1.
         -2   -1    0    0    0  501 -0.00000000000E+00 -0.00000000000E+00 -0.73585647619E+02  0.73585647619E+02  0.00000000000E+00 0.  1.
          1    1    1    2  502    0 -0.20375075329E+02  0.87677058684E+00 -0.24378034611E+02  0.31783659211E+02  0.00000000000E+00 0.  1.
         -1    1    1    2    0  501  0.20375075329E+02 -0.87677058684E+00 -0.43219808713E+02  0.47789792702E+02  0.00000000000E+00 0. -1.
</event>
<event>
 4    1  0.6824761E+001  0.3231513E+02  0.7546771E-02  0.1400490E+00
          2   -1    0    0  502    0  0.00000000000E+00  0.00000000000E+00  0.20747254492E+03  0.20747254492E+03  0.00000000000E+00 0. -1.
         -2   -1    0    0    0  501 -0.00000000000E+00 -0.00000000000E+00 -0.81746931553E+01  0.81746931553E+01  0.00000000000E+00 0.  1.
          1    1    1    2  502    0  0.32103937168E+02 -0.36884974111E+01  0.16648956221E+03  0.16959670433E+03  0.00000000000E+00 0. -1.
         -1    1    1    2    0  501 -0.32103937168E+02  0.36884974111E+01  0.32808289561E+02  0.46050533751E+02  0.00000000000E+00 0.  1.
</event>
<event>
 4    1  0.6824761E+001  0.2658662E+02  0.7546771E-02  0.1451805E+00
          2   -1    0    0  502    0  0.00000000000E+00  0.00000000000E+00  0.46126684089E+03  0.46126684089E+03  0.00000000000E+00 0.  1.
         -2   -1    0    0    0  501 -0.00000000000E+00 -0.00000000000E+00 -0.31664333813E+01  0.31664333813E+01  0.00000000000E+00 0. -1.
          1    1    1    2  502    0 -0.71920154346E+01  0.25595379251E+02  0.62234209261E+02  0.67675293330E+02  0.00000000000E+00 0. -1.
         -1    1    1    2    0  501  0.71920154346E+01 -0.25595379251E+02  0.39586619825E+03  0.39675798094E+03  0.00000000000E+00 0.  1.
</event>
<event>
 4    1  0.6824761E+001  0.2653401E+02  0.7546771E-02  0.1452346E+00
          2   -1    0    0  502    0  0.00000000000E+00  0.00000000000E+00  0.32233941053E+03  0.32233941053E+03  0.00000000000E+00 0.  1.
         -2   -1    0    0    0  501 -0.00000000000E+00 -0.00000000000E+00 -0.33426546951E+01  0.33426546951E+01  0.00000000000E+00 0. -1.
          1    1    1    2  502    0 -0.16993738234E+02  0.20378087705E+02  0.63633902481E+02  0.68944377165E+02  0.00000000000E+00 0. -1.
         -1    1    1    2    0  501  0.16993738234E+02 -0.20378087705E+02  0.25536285335E+03  0.25673768806E+03  0.00000000000E+00 0.  1.
</event>
<event>
 4    1  0.6824761E+001  0.9570043E+02  0.7546771E-02  0.1171474E+00
          2   -1    0    0  502    0  0.00000000000E+00  0.00000000000E+00  0.10995349983E+04  0.10995349983E+04  0.00000000000E+00 0.  1.
         -2   -1    0    0    0  501 -0.00000000000E+00 -0.00000000000E+00 -0.11041078219E+02  0.11041078219E+02  0.00000000000E+00 0. -1.
          1    1    1    2  502    0  0.81453462577E+02  0.50238481217E+02  0.81943149449E+03  0.82500093680E+03  0.00000000000E+00 0.  1.
         -1    1    1    2    0  501 -0.81453462577E+02 -0.50238481217E+02  0.26906242562E+03  0.28557513975E+03  0.00000000000E+00 0. -1.
</event>
<event>
 4    1  0.6824761E+001  0.2195215E+02  0.7546771E-02  0.1506093E+00
          2   -1    0    0  502    0  0.00000000000E+00  0.00000000000E+00  0.25129177619E+03  0.25129177619E+03  0.00000000000E+00 0.  1.
         -2   -1    0    0    0  501 -0.00000000000E+00 -0.00000000000E+00 -0.24118816043E+01  0.24118816043E+01  0.00000000000E+00 0. -1.
          1    1    1    2  502    0  0.12626161519E+01  0.21915808106E+02  0.67018853500E+02  0.70522503990E+02  0.00000000000E+00 0. -1.
         -1    1    1    2    0  501 -0.12626161519E+01 -0.21915808106E+02  0.18186104109E+03  0.18318115380E+03  0.00000000000E+00 0.  1.
</event>
<event>
 4    1  0.6824761E+001  0.2534719E+02  0.7546771E-02  0.1464957E+00
          2   -1    0    0  502    0  0.00000000000E+00  0.00000000000E+00  0.34345864594E+03  0.34345864594E+03  0.00000000000E+00 0.  1.
         -2   -1    0    0    0  501 -0.00000000000E+00 -0.00000000000E+00 -0.27075361416E+01  0.27075361416E+01  0.00000000000E+00 0. -1.
          1    1    1    2  502    0 -0.12808694287E+02 -0.21872755419E+02  0.26660520048E+03  0.26780741775E+03  0.00000000000E+00 0.  1.
         -1    1    1    2    0  501  0.12808694287E+02  0.21872755419E+02  0.74145909321E+02  0.78358764334E+02  0.00000000000E+00 0. -1.
</event>
<event>
 4    1  0.6824761E+001  0.2074959E+02  0.7546771E-02  0.1522870E+00
          2   -1    0    0  502    0  0.00000000000E+00  0.00000000000E+00  0.12203836820E+04  0.12203836820E+04  0.00000000000E+00 0. -1.
         -2   -1    0    0    0  501 -0.00000000000E+00 -0.00000000000E+00 -0.48861830757E+00  0.48861830757E+00  0.00000000000E+00 0.  1.
          1    1    1    2  502    0  0.30469247669E+01 -0.20524662276E+02  0.28810591641E+03  0.28885215004E+03  0.00000000000E+00 0.  1.
         -1    1    1    2    0  501 -0.30469247669E+01  0.20524662276E+02  0.93178914729E+03  0.93202015027E+03  0.00000000000E+00 0. -1.
</event>
<event>
 4    1  0.6824761E+001  0.2684363E+02  0.7546771E-02  0.1449185E+00
          2   -1    0    0  502    0  0.00000000000E+00  0.00000000000E+00  0.80887573214E+03  0.80887573214E+03  0.00000000000E+00 0. -1.
         -2   -1    0    0    0  501 -0.00000000000E+00 -0.00000000000E+00 -0.10201307858E+01  0.10201307858E+01  0.00000000000E+00 0.  1.
          1    1    1    2  502    0 -0.20960092487E+01  0.26761670996E+02  0.54809022326E+03  0.54874718507E+03  0.00000000000E+00 0. -1.
         -1    1    1    2    0  501  0.20960092487E+01 -0.26761670996E+02  0.25976537809E+03  0.26114867786E+03  0.00000000000E+00 0.  1.
</event>
<event>
 4    1  0.6824761E+001  0.2324655E+02  0.7546771E-02  0.1489425E+00
          2   -1    0    0  502    0  0.00000000000E+00  0.00000000000E+00  0.23314693590E+03  0.23314693590E+03  0.00000000000E+00 0. -1.
         -2   -1    0    0    0  501 -0.00000000000E+00 -0.00000000000E+00 -0.23203821188E+01  0.23203821188E+01  0.00000000000E+00 0.  1.
          1    1    1    2  502    0 -0.22671121356E+02 -0.51402549835E+01  0.11929478680E+03  0.12153866925E+03  0.00000000000E+00 0.  1.
         -1    1    1    2    0  501  0.22671121356E+02  0.51402549835E+01  0.11153176698E+03  0.11392864877E+03  0.00000000000E+00 0. -1.
</event>
<event>
 4    1  0.6824761E+001  0.2267921E+02  0.7546771E-02  0.1496566E+00
          2   -1    0    0  502    0  0.00000000000E+00  0.00000000000E+00  0.40356097410E+03  0.40356097410E+03  0.00000000000E+00 0.  1.
         -2   -1    0    0    0  501 -0.00000000000E+00 -0.00000000000E+00 -0.12811981933E+01  0.12811981933E+01  0.00000000000E+00 0. -1.
          1    1    1    2  502    0 -0.18685123928E+02  0.12853507032E+02  0.21575424727E+03  0.21694294576E+03  0.00000000000E+00 0. -1.
         -1    1    1    2    0  501  0.18685123928E+02 -0.12853507032E+02  0.18652552863E+03  0.18789922653E+03  0.00000000000E+00 0.  1.
</event>
<event>
 4    1  0.6824761E+001  0.2254430E+02  0.7546771E-02  0.1498301E+00
          2   -1    0    0  502    0  0.00000000000E+00  0.00000000000E+00  0.69953099437E+03  0.69953099437E+03  0.00000000000E+00 0. -1.
         -2   -1    0    0    0  501 -0.00000000000E+00 -0.00000000000E+00 -0.13673289854E+01  0.13673289854E+01  0.00000000000E+00 0.  1.
          1    1    1    2  502    0  0.12774223534E+02  0.18575911111E+02  0.58898840903E+03  0.58941970720E+03  0.00000000000E+00 0. -1.
         -1    1    1    2    0  501 -0.12774223534E+02 -0.18575911111E+02  0.10917525635E+03  0.11147861615E+03  0.00000000000E+00 0.  1.
</event>
<event>
 4    1  0.6824761E+001  0.2034782E+02  0.7546771E-02  0.1528783E+00
          2   -1    0    0  502    0  0.00000000000E+00  0.00000000000E+00  0.18372668949E+02  0.18372668949E+02  0.00000000000E+00 0.  1.
         -2   -1    0    0    0  501 -0.00000000000E+00 -0.00000000000E+00 -0.23884133785E+02  0.23884133785E+02  0.00000000000E+00 0. -1.
          1    1    1    2  502    0  0.18232689487E+02  0.90334201097E+01  0.22652739660E+01  0.20473522192E+02  0.00000000000E+00 0. -1.
         -1    1    1    2    0  501 -0.18232689487E+02 -0.90334201097E+01 -0.77767388012E+01  0.21783280542E+02  0.00000000000E+00 0.  1.
</event>
<event>
 4    1  0.6824761E+001  0.2787656E+02  0.7546771E-02  0.1438996E+00
          2   -1    0    0  502    0  0.00000000000E+00  0.00000000000E+00  0.38444281687E+01  0.38444281687E+01  0.00000000000E+00 0.  1.
         -2   -1    0    0    0  501 -0.00000000000E+00 -0.00000000000E+00 -0.26651920829E+03  0.26651920829E+03  0.00000000000E+00 0. -1.
          1    1    1    2  502    0  0.17290235211E+02 -0.21866650822E+02 -0.64896465610E+02  0.70630403514E+02  0.00000000000E+00 0.  1.
         -1    1    1    2    0  501 -0.17290235211E+02  0.21866650822E+02 -0.19777831451E+03  0.19973323294E+03  0.00000000000E+00 0. -1.
</event>
<event>
 4    1  0.6824761E+001  0.2135073E+02  0.7546771E-02  0.1514316E+00
          2   -1    0    0  502    0  0.00000000000E+00  0.00000000000E+00  0.91767930717E+03  0.91767930717E+03  0.00000000000E+00 0. -1.
         -2   -1    0    0    0  501 -0.00000000000E+00 -0.00000000000E+00 -0.11791932703E+01  0.11791932703E+01  0.00000000000E+00 0.  1.
          1    1    1    2  502    0 -0.20491324253E+02  0.59965939682E+01  0.10873917509E+03  0.11081543985E+03  0.00000000000E+00 0.  1.
         -1    1    1    2    0  501  0.20491324253E+02 -0.59965939682E+01  0.80776093881E+03  0.80804306059E+03  0.00000000000E+00 0. -1.
</event>
<event>
 4    1  0.6824761E+001  0.2011360E+02  0.7546771E-02  0.1532306E+00
          2   -1    0    0  502    0  0.00000000000E+00  0.00000000000E+00  0.30919497750E+03  0.30919497750E+03  0.00000000000E+00 0.  1.
         -2   -1    0    0    0  501 -0.00000000000E+00 -0.00000000000E+00 -0.13282245064E+01  0.13282245064E+01  0.00000000000E+00 0. -1.
          1    1    1    2  502    0 -0.11506451082E+02 -0.16497226329E+02  0.17289215296E+03  0.17405818983E+03  0.00000000000E+00 0.  1.
         -1    1    1    2    0  501  0.11506451082E+02  0.16497226329E+02  0.13497460003E+03  0.13646501217E+03  0.00000000000E+00 0. -1.
</event>
<event>
 4    1  0.6824761E+001  0.2607597E+02  0.7546771E-02  0.1457118E+00
          2   -1    0    0  502    0  0.00000000000E+00  0.00000000000E+00  0.11801136066E+02  0.11801136066E+02  0.00000000000E+00 0. -1.
         -2   -1    0    0    0  501 -0.00000000000E+00 -0.00000000000E+00 -0.59588497757E+02  0.59588497757E+02  0.00000000000E+00 0.  1.
          1    1    1    2  502    0  0.26067559105E+02  0.66217267704E+00 -0.17402432426E+02  0.31349653343E+02  0.00000000000E+00 0.  1.
         -1    1    1    2    0  501 -0.26067559105E+02 -0.66217267704E+00 -0.30384929265E+02  0.40039980480E+02  0.00000000000E+00 0. -1.
</event>
<event>
 4    1  0.6824761E+001  0.2231904E+02  0.7546771E-02  0.1501231E+00
          2   -1    0    0  502    0  0.00000000000E+00  0.00000000000E+00  0.18778396104E+04  0.18778396104E+04  0.00000000000E+00 0.  1.
         -2   -1    0    0    0  501 -0.00000000000E+00 -0.00000000000E+00 -0.27816681783E+00  0.27816681783E+00  0.00000000000E+00 0. -1.
          1    1    1    2  502    0 -0.20107478589E+02 -0.96865337162E+01  0.73660194604E+03  0.73694000200E+03  0.00000000000E+00 0. -1.
         -1    1    1    2    0  501  0.20107478589E+02  0.96865337162E+01  0.11409594976E+04  0.11411777753E+04  0.00000000000E+00 0.  1.
</event>
<event>
 4    1  0.6824761E+001  0.2477478E+02  0.7546771E-02  0.1471339E+00
          2   -1    0    0  502    0  0.00000000000E+00  0.00000000000E+00  0.36312857136E+01  0.36312857136E+01  0.00000000000E+00 0. -1.
         -2   -1    0    0    0  501 -0.00000000000E+00 -0.00000000000E+00 -0.33202325726E+03  0.33202325726E+03  0.00000000000E+00 0.  1.
          1    1    1    2  502    0  0.23837805164E+02 -0.67489862963E+01 -0.28178465297E+03  0.28287166776E+03  0.00000000000E+00 0.  1.
         -1    1    1    2    0  501 -0.23837805164E+02  0.67489862963E+01 -0.46607318573E+02  0.52782875212E+02  0.00000000000E+00 0. -1.
</event>
<event>
 4    1  0.6824761E+001  0.2429335E+02  0.7546771E-02  0.1476866E+00
          2   -1    0    0  502    0  0.00000000000E+00  0.00000000000E+00  0.36930968366E+02  0.36930968366E+02  0.00000000000E+00 0.  1.
         -2   -1    0    0    0  501 -0.00000000000E+00 -0.00000000000E+00 -0.16015784154E+02  0.16015784154E+02  0.00000000000E+00 0. -1.
          1    1    1    2  502    0 -0.21179461454E+02 -0.11899473945E+02  0.92110721306E+01  0.25980972219E+02  0.00000000000E+00 0. -1.
         -1    1    1    2    0  501  0.21179461454E+02  0.11899473945E+02  0.11704112081E+02  0.26965780301E+02  0.00000000000E+00 0.  1.
</event>
<event>
 4    1  0.6824761E+001  0.2288147E+02  0.7546771E-02  0.1493992E+00
          2   -1    0    0  502    0  0.00000000000E+00  0.00000000000E+00  0.10331559293E+04  0.10331559293E+04  0.00000000000E+00 0.  1.
         -2   -1    0    0    0  501 -0.00000000000E+00 -0.00000000000E+00 -0.51057636176E+00  0.51057636176E+00  0.00000000000E+00 0. -1.
          1    1    1    2  502    0 -0.22880846593E+02 -0.16936094719E+00  0.47163785798E+03  0.47219257820E+03  0.00000000000E+00 0. -1.
         -1    1    1    2    0  501  0.22880846593E+02  0.16936094719E+00  0.56100749499E+03  0.56147392749E+03  0.00000000000E+00 0.  1.
</event>
<event>
 4    1  0.6824761E+001  0.2032568E+02  0.7546771E-02  0.1529114E+00
          2   -1    0    0  502    0  0.00000000000E+00  0.00000000000E+00  0.92389106221E+03  0.92389106221E+03  0.00000000000E+00 0. -1.
         -2   -1    0    0    0  501 -0.00000000000E+00 -0.00000000000E+00 -0.51112351483E+00  0.51112351483E+00  0.00000000000E+00 0.  1.
          1    1    1    2  502    0  0.15585368475E+02 -0.13047200828E+02  0.62518781312E+03  0.62551813309E+03  0.00000000000E+00 0. -1.
         -1    1    1    2    0  501 -0.15585368475E+02  0.13047200828E+02  0.29819212558E+03  0.29888405264E+03  0.00000000000E+00 0.  1.
</event>
<event>
 4    1  0.6824761E+001  0.2139565E+02  0.7546771E-02  0.1513690E+00
          2   -1    0    0  502    0  0.00000000000E+00  0.00000000000E+00  0.30807841213E+03  0.30807841213E+03  0.00000000000E+00 0.  1.
         -2   -1    0    0    0  501 -0.00000000000E+00 -0.00000000000E+00 -0.20481025017E+01  0.20481025017E+01  0.00000000000E+00 0. -1.
          1    1    1    2  502    0  0.35223686175E+01  0.21103718774E+02  0.23425686400E+03  0.23523191186E+03  0.00000000000E+00 0.  1.
         -1    1    1    2    0  501 -0.35223686175E+01 -0.21103718774E+02  0.71773445625E+02  0.74894602768E+02  0.00000000000E+00 0. -1.
</event>
<event>
 4    1  0.6824761E+001  0.2234307E+02  0.7546771E-02  0.1500916E+00
          2   -1    0    0  502    0  0.00000000000E+00  0.00000000000E+00  0.13772022163E+04  0.13772022163E+04  0.00000000000E+00 0. -1.
         -2   -1    0    0    0  501 -0.00000000000E+00 -0.00000000000E+00 -0.43370879914E+00  0.43370879914E+00  0.00000000000E+00 0.  1.
          1    1    1    2  502    0 -0.89739887145E+01  0.20461673748E+02  0.96752525048E+03  0.96778320036E+03  0.00000000000E+00 0. -1.
         -1    1    1    2    0  501  0.89739887145E+01 -0.20461673748E+02  0.40924325697E+03  0.40985272470E+03  0.00000000000E+00 0.  1.
</event>
<event>
 4    1  0.6824761E+001  0.3533545E+02  0.7546771E-02  0.1378220E+00
          2   -1    0    0  502    0  0.00000000000E+00  0.00000000000E+00  0.10864159646E+04  0.10864159646E+04  0.00000000000E+00 0. -1.
         -2   -1    0    0    0  501 -0.00000000000E+00 -0.00000000000E+00 -0.14958629317E+01  0.14958629317E+01  0.00000000000E+00 0.  1.
          1    1    1    2  502    0  0.26562911731E+02  0.23302480130E+02  0.80429203871E+03  0.80506787129E+03  0.00000000000E+00 0. -1.
         -1    1    1    2    0  501 -0.26562911731E+02 -0.23302480130E+02  0.28062806299E+03  0.28284395627E+03  0.00000000000E+00 0.  1.
</event>
<event>
 4    1  0.6824761E+001  0.2037508E+02  0.7546771E-02  0.1528377E+00
          2   -1    0    0  502    0  0.00000000000E+00  0.00000000000E+00  0.21695801299E+04  0.21695801299E+04  0.00000000000E+00 0. -1.
         -2   -1    0    0    0  501 -0.00000000000E+00 -0.00000000000E+00 -0.19743616941E+00  0.19743616941E+00  0.00000000000E+00 0.  1.
          1    1    1    2  502    0 -0.19970669166E+02 -0.40393213003E+01  0.89417471280E+03  0.89440682061E+03  0.00000000000E+00 0.  1.
         -1    1    1    2    0  501  0.19970669166E+02  0.40393213003E+01  0.12752079809E+04  0.12753707454E+04  0.00000000000E+00 0. -1.
</event>
<event>
 4    1  0.6824761E+001  0.2801031E+02  0.7546771E-02  0.1437715E+00
          2   -1    0    0  502    0  0.00000000000E+00  0.00000000000E+00  0.53313101681E+02  0.53313101681E+02  0.00000000000E+00 0. -1.
         -2   -1    0    0    0  501 -0.00000000000E+00 -0.00000000000E+00 -0.14889971483E+02  0.14889971483E+02  0.00000000000E+00 0.  1.
          1    1    1    2  502    0 -0.26541883194E+02 -0.89501898176E+01  0.15529819922E+02  0.32027375291E+02  0.00000000000E+00 0. -1.
         -1    1    1    2    0  501  0.26541883194E+02  0.89501898176E+01  0.22893310275E+02  0.36175697873E+02  0.00000000000E+00 0.  1.
</event>
<event>
 4    1  0.6824761E+001  0.2489683E+02  0.7546771E-02  0.1469961E+00
          2   -1    0    0  502    0  0.00000000000E+00  0.00000000000E+00  0.31233108257E+02  0.31233108257E+02  0.00000000000E+00 0.  1.
         -2   -1    0    0    0  501 -0.00000000000E+00 -0.00000000000E+00 -0.19851458784E+02  0.19851458784E+02  0.00000000000E+00 0. -1.
          1    1    1    2  502    0 -0.20990602361E+02 -0.13388315165E+02  0.52673972701E+01  0.25447943815E+02  0.00000000000E+00 0.  1.
         -1    1    1    2    0  501  0.20990602361E+02  0.13388315165E+02  0.61142522024E+01  0.25636623226E+02  0.00000000000E+00 0. -1.
</event>
<event>
 4    1  0.6824761E+001  0.2437056E+02  0.7546771E-02  0.1475970E+00
          2   -1    0    0  502    0  0.00000000000E+00  0.00000000000E+00  0.59637075837E+03  0.59637075837E+03  0.00000000000E+00 0.  1.
         -2   -1    0    0    0  501 -0.00000000000E+00 -0.00000000000E+00 -0.25580199906E+01  0.25580199906E+01  0.00000000000E+00 0. -1.
          1    1    1    2  502    0 -0.24269392583E+02 -0.22182564775E+01  0.62887553419E+02  0.67444558366E+02  0.00000000000E+00 0. -1.
         -1    1    1    2    0  501  0.24269392583E+02  0.22182564775E+01  0.53092518496E+03  0.53148421999E+03  0.00000000000E+00 0.  1.
</event>
<event>
 4    1  0.6824761E+001  0.4042928E+02  0.7546771E-02  0.1345988E+00
          2   -1    0    0  502    0  0.00000000000E+00  0.00000000000E+00  0.14075499633E+04  0.14075499633E+04  0.00000000000E+00 0. -1.
         -2   -1    0    0    0  501 -0.00000000000E+00 -0.00000000000E+00 -0.11978753557E+01  0.11978753557E+01  0.00000000000E+00 0.  1.
          1    1    1    2  502    0  0.39685446158E+02 -0.77196094912E+01  0.82632986287E+03  0.82731829986E+03  0.00000000000E+00 0.  1.
         -1    1    1    2    0  501 -0.39685446158E+02  0.77196094912E+01  0.58002222506E+03  0.58142953879E+03  0.00000000000E+00 0. -1.
</event>
<event>
 4    1  0.6824761E+001  0.2399151E+02  0.7546771E-02  0.1480409E+00
          2   -1    0    0  502    0  0.00000000000E+00  0.00000000000E+00  0.35725470758E+03  0.35725470758E+03  0.00000000000E+00 0. -1.
         -2   -1    0    0    0  501 -0.00000000000E+00 -0.00000000000E+00 -0.19542035689E+01  0.19542035689E+01  0.00000000000E+00 0.  1.
          1    1    1    2  502    0  0.11129248963E+02  0.21253991079E+02  0.10239952489E+03  0.10517250124E+03  0.00000000000E+00 0.  1.
         -1    1    1    2    0  501 -0.11129248963E+02 -0.21253991079E+02  0.25290097913E+03  0.25403640991E+03  0.00000000000E+00 0. -1.
</event>
<event>
 4    1  0.6824761E+001  0.5275576E+02  0.7546771E-02  0.1286647E+00
          2   -1    0    0  502    0  0.00000000000E+00  0.00000000000E+00  0.14641604148E+04  0.14641604148E+04  0.00000000000E+00 0. -1.
         -2   -1    0    0    0  501 -0.00000000000E+00 -0.00000000000E+00 -0.22508565912E+01  0.22508565912E+01  0.00000000000E+00 0.  1.
          1    1    1    2  502    0  0.33322056409E+02 -0.40900006851E+02  0.10200768397E+04  0.10214401250E+04  0.00000000000E+00 0. -1.
         -1    1    1    2    0  501 -0.33322056409E+02  0.40900006851E+02  0.44183271852E+03  0.44497114643E+03  0.00000000000E+00 0.  1.
</event>
<event>
 4    1  0.6824761E+001  0.3445462E+02  0.7546771E-02  0.1384438E+00
          2   -1    0    0  502    0  0.00000000000E+00  0.00000000000E+00  0.57288340793E+01  0.57288340793E+01  0.00000000000E+00 0.  1.
         -2   -1    0    0    0  501 -0.00000000000E+00 -0.00000000000E+00 -0.37611756847E+03  0.37611756847E+03  0.00000000000E+00 0. -1.
          1    1    1    2  502    0 -0.46980556634E+01  0.34132817837E+02 -0.31313556011E+03  0.31502539577E+03  0.00000000000E+00 0. -1.
         -1    1    1    2    0  501  0.46980556634E+01 -0.34132817837E+02 -0.57253174281E+02  0.66821006770E+02  0.00000000000E+00 0.  1.
</event>
<event>
 4    1  0.6824761E+001  0.3140204E+02  0.7546771E-02  0.1407792E+00
          2   -1    0    0  502    0  0.00000000000E+00  0.00000000000E+00  0.63007212783E+02  0.63007212783E+02  0.00000000000E+00 0.  1.
         -2   -1    0    0    0  501 -0.00000000000E+00 -0.00000000000E+00 -0.23290649038E+02  0.23290649038E+02  0.00000000000E+00 0. -1.
          1    1    1    2  502    0 -0.14643107462E+02 -0.27778898827E+02 -0.48551536042E+01  0.31775152757E+02  0.00000000000E+00 0. -1.
         -1    1    1    2    0  501  0.14643107462E+02  0.27778898827E+02  0.44571717350E+02  0.54522709064E+02  0.00000000000E+00 0.  1.
</event>
<event>
 4    1  0.6824761E+001  0.2269716E+02  0.7546771E-02  0.1496336E+00
          2   -1    0    0  502    0  0.00000000000E+00  0.00000000000E+00  0.91199180389E+00  0.91199180389E+00  0.00000000000E+00 0.  1.
         -2   -1    0    0    0  501 -0.00000000000E+00 -0.00000000000E+00 -0.60928931040E+03  0.60928931040E+03  0.00000000000E+00 0. -1.
          1    1    1    2  502    0  0.13746672651E+02  0.18060731985E+02 -0.22181382768E+03  0.22297205026E+03  0.00000000000E+00 0.  1.
         -1    1    1    2    0  501 -0.13746672651E+02 -0.18060731985E+02 -0.38656349092E+03  0.38722925194E+03  0.00000000000E+00 0. -1.
</event>
<event>
 4    1  0.6824761E+001  0.3516817E+02  0.7546771E-02  0.1379385E+00
          2   -1    0    0  502    0  0.00000000000E+00  0.00000000000E+00  0.10810055029E+01  0.10810055029E+01  0.00000000000E+00 0. -1.
         -2   -1    0    0    0  501 -0.00000000000E+00 -0.00000000000E+00 -0.11598173709E+04  0.11598173709E+04  0.00000000000E+00 0.  1.
          1    1    1    2  502    0  0.31953949985E+02  0.14688265383E+02 -0.51184042876E+03  0.51304719527E+03  0.00000000000E+00 0. -1.
         -1    1    1    2    0  501 -0.31953949985E+02 -0.14688265383E+02 -0.64689593660E+03  0.64785118110E+03  0.00000000000E+00 0.  1.
</event>
<event>
 4    1  0.6824761E+001  0.6556454E+02  0.7546771E-02  0.1242014E+00
          2   -1    0    0  502    0  0.00000000000E+00  0.00000000000E+00  0.84297694289E+03  0.84297694289E+03  0.00000000000E+00 0. -1.
         -2   -1    0    0    0  501 -0.00000000000E+00 -0.00000000000E+00 -0.51578984219E+01  0.51578984219E+01  0.00000000000E+00 0.  1.
          1    1    1    2  502    0  0.35485312839E+02  0.55131670860E+02  0.37376241648E+03  0.37946943557E+03  0.00000000000E+00 0.  1.
         -1    1    1    2    0  501 -0.35485312839E+02 -0.55131670860E+02  0.46405662799E+03  0.46866540575E+03  0.00000000000E+00 0. -1.
</event>
<event>
 4    1  0.6824761E+001  0.2304674E+02  0.7546771E-02  0.1491912E+00
          2   -1    0    0  502    0  0.00000000000E+00  0.00000000000E+00  0.73219822020E+02  0.73219822020E+02  0.00000000000E+00 0.  1.
         -2   -1    0    0    0  501 -0.00000000000E+00 -0.00000000000E+00 -0.13023499192E+02  0.13023499192E+02  0.00000000000E+00 0. -1.
          1    1    1    2  502    0  0.14250534359E+02  0.18112823669E+02  0.58798876207E+02  0.63154255232E+02  0.00000000000E+00 0.  1.
         -1    1    1    2    0  501 -0.14250534359E+02 -0.18112823669E+02  0.13974466219E+01  0.23089065980E+02  0.00000000000E+00 0. -1.
</event>
<event>
 4    1  0.6824761E+001  0.2019356E+02  0.7546771E-02  0.1531097E+00
          2   -1    0    0  502    0  0.00000000000E+00  0.00000000000E+00  0.32257108277E+01  0.32257108277E+01  0.00000000000E+00 0.  1.
         -2   -1    0    0    0  501 -0.00000000000E+00 -0.00000000000E+00 -0.14906807417E+03  0.14906807417E+03  0.00000000000E+00 0. -1.
          1    1    1    2  502    0 -0.90662620111E+01 -0.18043909166E+02 -0.10260494016E+03  0.10457319690E+03  0.00000000000E+00 0. -1.
         -1    1    1    2    0  501  0.90662620111E+01  0.18043909166E+02 -0.43237423181E+02  0.47720588095E+02  0.00000000000E+00 0.  1.
</event>
<event>
 4    1  0.6824761E+001  0.2255121E+02  0.7546771E-02  0.1498212E+00
          2   -1    0    0  502    0  0.00000000000E+00  0.00000000000E+00  0.57706216927E+03  0.57706216927E+03  0.00000000000E+00 0. -1.
         -2   -1    0    0    0  501 -0.00000000000E+00 -0.00000000000E+00 -0.89559759216E+00  0.89559759216E+00  0.00000000000E+00 0.  1.
          1    1    1    2  502    0 -0.18069904594E+02  0.13492052306E+02  0.25155321102E+03  0.25256202189E+03  0.00000000000E+00 0.  1.
         -1    1    1    2    0  501  0.18069904594E+02 -0.13492052306E+02  0.32461336065E+03  0.32539574497E+03  0.00000000000E+00 0. -1.
</event>
<event>
 4    1  0.6824761E+001  0.2568529E+02  0.7546771E-02  0.1461281E+00
          2   -1    0    0  502    0  0.00000000000E+00  0.00000000000E+00  0.11163296591E+02  0.11163296591E+02  0.00000000000E+00 0.  1.
         -2   -1    0    0    0  501 -0.00000000000E+00 -0.00000000000E+00 -0.84934249108E+02  0.84934249108E+02  0.00000000000E+00 0. -1.
          1    1    1    2  502    0 -0.98907095407E+00  0.25666239394E+02 -0.10385139860E+02  0.27705328655E+02  0.00000000000E+00 0.  1.
         -1    1    1    2    0  501  0.98907095407E+00 -0.25666239394E+02 -0.63385812658E+02  0.68392217044E+02  0.00000000000E+00 0. -1.
</event>
<event>
 4    1  0.6824761E+001  0.2925076E+02  0.7546771E-02  0.1426221E+00
          2   -1    0    0  502    0  0.00000000000E+00  0.00000000000E+00  0.14703482942E+01  0.14703482942E+01  0.00000000000E+00 0.  1.
         -2   -1    0    0    0  501 -0.00000000000E+00 -0.00000000000E+00 -0.99920674715E+03  0.99920674715E+03  0.00000000000E+00 0. -1.
          1    1    1    2  502    0  0.17622059571E+00 -0.29250227729E+02 -0.82220863797E+03  0.82272878352E+03  0.00000000000E+00 0. -1.
         -1    1    1    2    0  501 -0.17622059571E+00  0.29250227729E+02 -0.17552776088E+03  0.17794831192E+03  0.00000000000E+00 0.  1.
</event>
<event>
 4    1  0.6824761E+001  0.2569377E+02  0.7546771E-02  0.1461190E+00
          2   -1    0    0  502    0  0.00000000000E+00  0.00000000000E+00  0.39455214609E+00  0.39455214609E+00  0.00000000000E+00 0. -1.
         -2   -1    0    0    0  501 -0.00000000000E+00 -0.00000000000E+00 -0.16761914962E+04  0.16761914962E+04  0.00000000000E+00 0.  1.
          1    1    1    2  502    0 -0.22304300911E+02 -0.12754926207E+02 -0.87323267465E+03  0.87361059635E+03  0.00000000000E+00 0. -1.
         -1    1    1    2    0  501  0.22304300911E+02  0.12754926207E+02 -0.80256426943E+03  0.80297545202E+03  0.00000000000E+00 0.  1.
</event>
<event>
 4    1  0.6824761E+001  0.2082463E+02  0.7546771E-02  0.1521783E+00
          2   -1    0    0  502    0  0.00000000000E+00  0.00000000000E+00  0.97424657612E+01  0.97424657612E+01  0.00000000000E+00 0. -1.
         -2   -1    0    0    0  501 -0.00000000000E+00 -0.00000000000E+00 -0.45015137626E+02  0.45015137626E+02  0.00000000000E+00 0.  1.
          1    1    1    2  502    0  0.11498535117E+02 -0.17362289387E+02 -0.20528279662E+02  0.29241676909E+02  0.00000000000E+00 0.  1.
         -1    1    1    2    0  501 -0.11498535117E+02  0.17362289387E+02 -0.14744392203E+02  0.25515926478E+02  0.00000000000E+00 0. -1.
</event>
<event>
 4    1  0.6824761E+001  0.2871148E+02  0.7546771E-02  0.1431134E+00
          2   -1    0    0  502    0  0.00000000000E+00  0.00000000000E+00  0.43259421668E+01  0.43259421668E+01  0.00000000000E+00 0.  1.
         -2   -1    0    0    0  501 -0.00000000000E+00 -0.00000000000E+00 -0.19110230710E+03  0.19110230710E+03  0.00000000000E+00 0. -1.
          1    1    1    2  502    0  0.10524385655E+02  0.26713040091E+02 -0.88180277534E+02  0.92736781001E+02  0.00000000000E+00 0.  1.
         -1    1    1    2    0  501 -0.10524385655E+02 -0.26713040091E+02 -0.98596087394E+02  0.10269146826E+03  0.00000000000E+00 0. -1.
</event>
<event>
 4    1  0.6824761E+001  0.2439353E+02  0.7546771E-02  0.1475704E+00
          2   -1    0    0  502    0  0.00000000000E+00  0.00000000000E+00  0.17681659146E+04  0.17681659146E+04  0.00000000000E+00 0. -1.
         -2   -1    0    0    0  501 -0.00000000000E+00 -0.00000000000E+00 -0.35024044635E+00  0.35024044635E+00  0.00000000000E+00 0.  1.
          1    1    1    2  502    0 -0.19657827954E+02  0.14443476780E+02  0.70896679502E+03  0.70938632680E+03  0.00000000000E+00 0. -1.
         -1    1    1    2    0  501  0.19657827954E+02 -0.14443476780E+02  0.10588488791E+04  0.10591298282E+04  0.00000000000E+00 0.  1.
</event>
<event>
 4    1  0.6824761E+001  0.2479695E+02  0.7546771E-02  0.1471088E+00
          2   -1    0    0  502    0  0.00000000000E+00  0.00000000000E+00  0.71702884183E+03  0.71702884183E+03  0.00000000000E+00 0. -1.
         -2   -1    0    0    0  501 -0.00000000000E+00 -0.00000000000E+00 -0.87705214526E+00  0.87705214526E+00  0.00000000000E+00 0.  1.
          1    1    1    2  502    0 -0.35830436889E+01  0.24536717409E+02  0.30455093116E+03  0.30555876419E+03  0.00000000000E+00 0.  1.
         -1    1    1    2    0  501  0.35830436889E+01 -0.24536717409E+02  0.41160085853E+03  0.41234712979E+03  0.00000000000E+00 0. -1.
</event>
<event>
 4    1  0.6824761E+001  0.9573549E+02  0.7546771E-02  0.1171410E+00
          2   -1    0    0  502    0  0.00000000000E+00  0.00000000000E+00  0.13540462200E+04  0.13540462200E+04  0.00000000000E+00 0.  1.
         -2   -1    0    0    0  501 -0.00000000000E+00 -0.00000000000E+00 -0.69432286548E+01  0.69432286548E+01  0.00000000000E+00 0. -1.
          1    1    1    2  502    0 -0.46868821035E+02 -0.83478129611E+02  0.56569710847E+03  0.57374079778E+03  0.00000000000E+00 0.  1.
         -1    1    1    2    0  501  0.46868821035E+02  0.83478129611E+02  0.78140588288E+03  0.78724865088E+03  0.00000000000E+00 0. -1.
</event>
<event>
 4    1  0.6824761E+001  0.3399304E+02  0.7546771E-02  0.1387784E+00
          2   -1    0    0  502    0  0.00000000000E+00  0.00000000000E+00  0.34267788844E+02  0.34267788844E+02  0.00000000000E+00 0. -1.
         -2   -1    0    0    0  501 -0.00000000000E+00 -0.00000000000E+00 -0.37273142257E+02  0.37273142257E+02  0.00000000000E+00 0.  1.
          1    1    1    2  502    0 -0.29264258932E+02 -0.17295377436E+02  0.95407131233E+01  0.35306545263E+02  0.00000000000E+00 0.  1.
         -1    1    1    2    0  501  0.29264258932E+02  0.17295377436E+02 -0.12546066536E+02  0.36234385838E+02  0.00000000000E+00 0. -1.
</event>
<event>
 4    1  0.6824761E+001  0.2001667E+02  0.7546771E-02  0.1533781E+00
          2   -1    0    0  502    0  0.00000000000E+00  0.00000000000E+00  0.67877660525E+02  0.67877660525E+02  0.00000000000E+00 0. -1.
         -2   -1    0    0    0  501 -0.00000000000E+00 -0.00000000000E+00 -0.85919557067E+01  0.85919557067E+01  0.00000000000E+00 0.  1.
          1    1    1    2  502    0 -0.12872737268E+02  0.15328393542E+02  0.51033422114E+02  0.54818584312E+02  0.00000000000E+00 0. -1.
         -1    1    1    2    0  501  0.12872737268E+02 -0.15328393542E+02  0.82522827048E+01  0.21651031920E+02  0.00000000000E+00 0.  1.
</event>
<event>
 4    1  0.6824761E+001  0.2009810E+02  0.7546771E-02  0.1532541E+00
          2   -1    0    0  502    0  0.00000000000E+00  0.00000000000E+00  0.53712637934E+03  0.53712637934E+03  0.00000000000E+00 0.  1.
         -2   -1    0    0    0  501 -0.00000000000E+00 -0.00000000000E+00 -0.17300512636E+01  0.17300512636E+01  0.00000000000E+00 0. -1.
          1    1    1    2  502    0 -0.15049956816E+02 -0.13320372299E+02  0.47027436009E+03  0.47070362998E+03  0.00000000000E+00 0.  1.
         -1    1    1    2    0  501  0.15049956816E+02  0.13320372299E+02  0.65121967979E+02  0.68152800617E+02  0.00000000000E+00 0. -1.
</event>
<event>
 4    1  0.6824761E+001  0.2055658E+02  0.7546771E-02  0.1525691E+00
          2   -1    0    0  502    0  0.00000000000E+00  0.00000000000E+00  0.31790390755E+02  0.31790390755E+02  0.00000000000E+00 0.  1.
         -2   -1    0    0    0  501 -0.00000000000E+00 -0.00000000000E+00 -0.13846740806E+02  0.13846740806E+02  0.00000000000E+00 0. -1.
          1    1    1    2  502    0 -0.43908460128E+01 -0.20082162634E+02  0.13537194575E+02  0.24613582058E+02  0.00000000000E+00 0.  1.
         -1    1    1    2    0  501  0.43908460128E+01  0.20082162634E+02  0.44064553737E+01  0.21023549503E+02  0.00000000000E+00 0. -1.
</event>
<event>
 4    1  0.6824761E+001  0.2466188E+02  0.7546771E-02  0.1472622E+00
          2   -1    0    0  502    0  0.00000000000E+00  0.00000000000E+00  0.12665269266E+03  0.12665269266E+03  0.00000000000E+00 0. -1.
         -2   -1    0    0    0  501 -0.00000000000E+00 -0.00000000000E+00 -0.49107195568E+01  0.49107195568E+01  0.00000000000E+00 0.  1.
          1    1    1    2  502    0  0.13564533075E+02  0.20596400973E+02  0.51091000604E+02  0.56731813238E+02  0.00000000000E+00 0.  1.
         -1    1    1    2    0  501 -0.13564533075E+02 -0.20596400973E+02  0.70650972494E+02  0.74831598974E+02  0.00000000000E+00 0. -1.
</event>
<event>
 4    1  0.6824761E+001  0.2921511E+02  0.7546771E-02  0.1426542E+00
          2   -1    0    0  502    0  0.00000000000E+00  0.00000000000E+00  0.84867146967E+03  0.84867146967E+03  0.00000000000E+00 0. -1.
         -2   -1    0    0    0  501 -0.00000000000E+00 -0.00000000000E+00 -0.10670634244E+01  0.10670634244E+01  0.00000000000E+00 0.  1.
          1    1    1    2  502    0 -0.10685785092E+02 -0.27190744753E+02  0.32192949877E+03  0.32325241652E+03  0.00000000000E+00 0. -1.
         -1    1    1    2    0  501  0.10685785092E+02  0.27190744753E+02  0.52567490748E+03  0.52648611658E+03  0.00000000000E+00 0.  1.
</event>
<event>
 4    1  0.6824761E+001  0.2092080E+02  0.7546771E-02  0.1520399E+00
          2   -1    0    0  502    0  0.00000000000E+00  0.00000000000E+00  0.97030191038E+03  0.97030191038E+03  0.00000000000E+00 0. -1.
         -2   -1    0    0    0  501 -0.00000000000E+00 -0.00000000000E+00 -0.49244666564E+00  0.49244666564E+00  0.00000000000E+00 0.  1.
          1    1    1    2  502    0 -0.20884454283E+02  0.12326924746E+01  0.34421461400E+03  0.34484979405E+03  0.00000000000E+00 0. -1.
         -1    1    1    2    0  501  0.20884454283E+02 -0.12326924746E+01  0.62559484971E+03  0.62594456300E+03  0.00000000000E+00 0.  1.
</event>
<event>
 4    1  0.6824761E+001  0.1067417E+03  0.7546771E-02  0.1152612E+00
          2   -1    0    0  502    0  0.00000000000E+00  0.00000000000E+00  0.92236312671E+03  0.92236312671E+03  0.00000000000E+00 0.  1.
         -2   -1    0    0    0  501 -0.00000000000E+00 -0.00000000000E+00 -0.13271291198E+02  0.13271291198E+02  0.00000000000E+00 0. -1.
          1    1    1    2  502    0  0.29819444331E+02 -0.10249190122E+03  0.33147611496E+03  0.34823871678E+03  0.00000000000E+00 0. -1.
         -1    1    1    2    0  501 -0.29819444331E+02  0.10249190122E+03  0.57761572056E+03  0.58739570113E+03  0.00000000000E+00 0.  1.
</event>
<event>
 4    1  0.6824761E+001  0.2663249E+02  0.7546771E-02  0.1451335E+00
          2   -1    0    0  502    0  0.00000000000E+00  0.00000000000E+00  0.31703581513E+02  0.31703581513E+02  0.00000000000E+00 0. -1.
         -2   -1    0    0    0  501 -0.00000000000E+00 -0.00000000000E+00 -0.38936595468E+02  0.38936595468E+02  0.00000000000E+00 0.  1.
          1    1    1    2  502    0  0.11427369170E+02  0.24056286040E+02 -0.26653517773E+02  0.37678902238E+02  0.00000000000E+00 0.  1.
         -1    1    1    2    0  501 -0.11427369170E+02 -0.24056286040E+02  0.19420503818E+02  0.32961274743E+02  0.00000000000E+00 0. -1.
</event>
<event>
 4    1  0.6824761E+001  0.3175112E+02  0.7546771E-02  0.1404966E+00
          2   -1    0    0  502    0  0.00000000000E+00  0.00000000000E+00  0.19038602690E+02  0.19038602690E+02  0.00000000000E+00 0. -1.
         -2   -1    0    0    0  501 -0.00000000000E+00 -0.00000000000E+00 -0.53213058794E+02  0.53213058794E+02  0.00000000000E+00 0.  1.
          1    1    1    2  502    0  0.19914089203E+02 -0.24729792595E+02 -0.19617180219E+02  0.37322477816E+02  0.00000000000E+00 0. -1.
         -1    1    1    2    0  501 -0.19914089203E+02  0.24729792595E+02 -0.14557275885E+02  0.34929183669E+02  0.00000000000E+00 0.  1.
</event>
<event>
 4    1  0.6824761E+001  0.2003004E+02  0.7546771E-02  0.1533577E+00
          2   -1    0    0  502    0  0.00000000000E+00  0.00000000000E+00  0.18640118387E+03  0.18640118387E+03  0.00000000000E+00 0.  1.
         -2   -1    0    0    0  501 -0.00000000000E+00 -0.00000000000E+00 -0.21549342842E+01  0.21549342842E+01  0.00000000000E+00 0. -1.
          1    1    1    2  502    0  0.97181178114E+00  0.20006452988E+02  0.95381224005E+02  0.97461687201E+02  0.00000000000E+00 0.  1.
         -1    1    1    2    0  501 -0.97181178114E+00 -0.20006452988E+02  0.88865025584E+02  0.91094430957E+02  0.00000000000E+00 0. -1.
</event>
<event>
 4    1  0.6824761E+001  0.2373889E+02  0.7546771E-02  0.1483423E+00
          2   -1    0    0  502    0  0.00000000000E+00  0.00000000000E+00  0.14680037120E+02  0.14680037120E+02  0.00000000000E+00 0. -1.
         -2   -1    0    0    0  501 -0.00000000000E+00 -0.00000000000E+00 -0.55915526136E+02  0.55915526136E+02  0.00000000000E+00 0.  1.
          1    1    1    2  502    0 -0.23600756759E+02  0.25572120982E+01 -0.85517628133E+00  0.23754291819E+02  0.00000000000E+00 0. -1.
         -1    1    1    2    0  501  0.23600756759E+02 -0.25572120982E+01 -0.40380312735E+02  0.46841271438E+02  0.00000000000E+00 0.  1.
</event>
<event>
 4    1  0.6824761E+001  0.2012206E+02  0.7546771E-02  0.1532178E+00
          2   -1    0    0  502    0  0.00000000000E+00  0.00000000000E+00  0.21521707051E+03  0.21521707051E+03  0.00000000000E+00 0. -1.
         -2   -1    0    0    0  501 -0.00000000000E+00 -0.00000000000E+00 -0.20867542721E+01  0.20867542721E+01  0.00000000000E+00 0.  1.
          1    1    1    2  502    0  0.19788331213E+02  0.36495689569E+01  0.72476296682E+02  0.75217757123E+02  0.00000000000E+00 0.  1.
         -1    1    1    2    0  501 -0.19788331213E+02 -0.36495689569E+01  0.14065401956E+03  0.14208606766E+03  0.00000000000E+00 0. -1.
</event>
<event>
 4    1  0.6824761E+001  0.4967557E+02  0.7546771E-02  0.1299585E+00
          2   -1    0    0  502    0  0.00000000000E+00  0.00000000000E+00  0.46057435183E+03  0.46057435183E+03  0.00000000000E+00 0.  1.
         -2   -1    0    0    0  501 -0.00000000000E+00 -0.00000000000E+00 -0.54492190679E+01  0.54492190679E+01  0.00000000000E+00 0. -1.
          1    1    1    2  502    0  0.48466053782E+02 -0.10895151252E+02  0.19738095565E+03  0.20353600257E+03  0.00000000000E+00 0. -1.
         -1    1    1    2    0  501 -0.48466053782E+02  0.10895151252E+02  0.25774417711E+03  0.26248756833E+03  0.00000000000E+00 0.  1.
</event>
<event>
 4    1  0.6824761E+001  0.2378728E+02  0.7546771E-02  0.1482842E+00
          2   -1    0    0  502    0  0.00000000000E+00  0.00000000000E+00  0.16208530678E+03  0.16208530678E+03  0.00000000000E+00 0. -1.
         -2   -1    0    0    0  501 -0.00000000000E+00 -0.00000000000E+00 -0.40581076204E+01  0.40581076204E+01  0.00000000000E+00 0.  1.
          1    1    1    2  502    0  0.23487764028E+02 -0.37629347495E+01  0.11006892408E+03  0.11260995864E+03  0.00000000000E+00 0. -1.
         -1    1    1    2    0  501 -0.23487764028E+02  0.37629347495E+01  0.47958275080E+02  0.53533455760E+02  0.00000000000E+00 0.  1.
</event>
<event>
 4    1  0.6824761E+001  0.3122366E+02  0.7546771E-02  0.1409253E+00
          2   -1    0    0  502    0  0.00000000000E+00  0.00000000000E+00  0.70689231388E+03  0.70689231388E+03  0.00000000000E+00 0. -1.
         -2   -1    0    0    0  501 -0.00000000000E+00 -0.00000000000E+00 -0.20493512551E+01  0.20493512551E+01  0.00000000000E+00 0.  1.
          1    1    1    2  502    0 -0.45819050508E+01  0.30885645015E+02  0.55512999772E+03  0.55600740219E+03  0.00000000000E+00 0. -1.
         -1    1    1    2    0  501  0.45819050508E+01 -0.30885645015E+02  0.14971296491E+03  0.15293426295E+03  0.00000000000E+00 0.  1.
</event>
<event>
 4    1  0.6824761E+001  0.2465190E+02  0.7546771E-02  0.1472735E+00
          2   -1    0    0  502    0  0.00000000000E+00  0.00000000000E+00  0.20535652469E+04  0.20535652469E+04  0.00000000000E+00 0. -1.
         -2   -1    0    0    0  501 -0.00000000000E+00 -0.00000000000E+00 -0.31942538175E+00  0.31942538175E+00  0.00000000000E+00 0.  1.
          1    1    1    2  502    0  0.15089692835E+02  0.19494027922E+02  0.13051278087E+04  0.13053606065E+04  0.00000000000E+00 0.  1.
         -1    1    1    2    0  501 -0.15089692835E+02 -0.19494027922E+02  0.74811801286E+03  0.74852406583E+03  0.00000000000E+00 0. -1.
</event>
<event>
 4    1  0.6824761E+001  0.3262978E+02  0.7546771E-02  0.1398039E+00
          2   -1    0    0  502    0  0.00000000000E+00  0.00000000000E+00  0.14478822296E+04  0.14478822296E+04  0.00000000000E+00 0. -1.
         -2   -1    0    0    0  501 -0.00000000000E+00 -0.00000000000E+00 -0.37058582358E+01  0.37058582358E+01  0.00000000000E+00 0.  1.
          1    1    1    2  502    0 -0.12875053884E+02 -0.29982251892E+02  0.13718950072E+04  0.13722829931E+04  0.00000000000E+00 0. -1.
         -1    1    1    2    0  501  0.12875053884E+02  0.29982251892E+02  0.72281364125E+02  0.79305094671E+02  0.00000000000E+00 0.  1.
</event>
<event>
 4    1  0.6824761E+001  0.2157529E+02  0.7546771E-02  0.1511207E+00
          2   -1    0    0  502    0  0.00000000000E+00  0.00000000000E+00  0.11906856480E+03  0.11906856480E+03  0.00000000000E+00 0.  1.
         -2   -1    0    0    0  501 -0.00000000000E+00 -0.00000000000E+00 -0.44218049909E+01  0.44218049909E+01  0.00000000000E+00 0. -1.
          1    1    1    2  502    0 -0.17250382643E+02  0.12958296865E+02  0.78341157929E+02  0.81257800762E+02  0.00000000000E+00 0.  1.
         -1    1    1    2    0  501  0.17250382643E+02 -0.12958296865E+02  0.36305601884E+02  0.42232569033E+02  0.00000000000E+00 0. -1.
</event>
<event>
 4    1  0.6824761E+001  0.2411811E+02  0.7546771E-02  0.1478916E+00
          2   -1    0    0  502    0  0.00000000000E+00  0.00000000000E+00  0.19466619459E+04  0.19466619459E+04  0.00000000000E+00 0. -1.
         -2   -1    0    0    0  501 -0.00000000000E+00 -0.00000000000E+00 -0.44376248725E+00  0.44376248725E+00  0.00000000000E+00 0.  1.
          1    1    1    2  502    0  0.20965379551E+02 -0.11922083735E+02  0.41669748496E+03  0.41739486963E+03  0.00000000000E+00 0.  1.
         -1    1    1    2    0  501 -0.20965379551E+02  0.11922083735E+02  0.15295206985E+04  0.15297108388E+04  0.00000000000E+00 0. -1.
</event>
<event>
 4    1  0.6824761E+001  0.6183111E+02  0.7546771E-02  0.1253735E+00
          2   -1    0    0  502    0  0.00000000000E+00  0.00000000000E+00  0.95760223654E+03  0.95760223654E+03  0.00000000000E+00 0. -1.
         -2   -1    0    0    0  501 -0.00000000000E+00 -0.00000000000E+00 -0.43289534359E+01  0.43289534359E+01  0.00000000000E+00 0.  1.
          1    1    1    2  502    0  0.31174986827E+02 -0.53396694046E+02  0.34252097813E+03  0.34805704590E+03  0.00000000000E+00 0.  1.
         -1    1    1    2    0  501 -0.31174986827E+02  0.53396694046E+02  0.61075230498E+03  0.61387414408E+03  0.00000000000E+00 0. -1.
</event>
<event>
 4    1  0.6824761E+001  0.2553990E+02  0.7546771E-02  0.1462853E+00
          2   -1    0    0  502    0  0.00000000000E+00  0.00000000000E+00  0.17644506267E+01  0.17644506267E+01  0.00000000000E+00 0. -1.
         -2   -1    0    0    0  501 -0.00000000000E+00 -0.00000000000E+00 -0.40102018497E+03  0.40102018497E+03  0.00000000000E+00 0.  1.
          1    1    1    2  502    0 -0.23501682067E+02 -0.99978589871E+01 -0.14332969215E+03  0.14558738577E+03  0.00000000000E+00 0. -1.
         -1    1    1    2    0  501  0.23501682067E+02  0.99978589871E+01 -0.25592604220E+03  0.25719724983E+03  0.00000000000E+00 0.  1.
</event>
<event>
 4    1  0.6824761E+001  0.5462130E+02  0.7546771E-02  0.1279290E+00
          2   -1    0    0  502    0  0.00000000000E+00  0.00000000000E+00  0.85711415723E+03  0.85711415723E+03  0.00000000000E+00 0.  1.
         -2   -1    0    0    0  501 -0.00000000000E+00 -0.00000000000E+00 -0.35027998844E+01  0.35027998844E+01  0.00000000000E+00 0. -1.
          1    1    1    2  502    0  0.46725949418E+02  0.28287313279E+02  0.46086853928E+03  0.46409406044E+03  0.00000000000E+00 0.  1.
         -1    1    1    2    0  501 -0.46725949418E+02 -0.28287313279E+02  0.39274281807E+03  0.39652289667E+03  0.00000000000E+00 0. -1.
</event>
<event>
 4    1  0.6824761E+001  0.1232978E+03  0.7546771E-02  0.1128630E+00
          2   -1    0    0  502    0  0.00000000000E+00  0.00000000000E+00  0.25895549222E+03  0.25895549222E+03  0.00000000000E+00 0.  1.
         -2   -1    0    0    0  501 -0.00000000000E+00 -0.00000000000E+00 -0.93738537300E+02  0.93738537300E+02  0.00000000000E+00 0. -1.
          1    1    1    2  502    0 -0.50456152609E+02  0.11250121480E+03 -0.25197364628E+02  0.12584615151E+03  0.00000000000E+00 0. -1.
         -1    1    1    2    0  501  0.50456152609E+02 -0.11250121480E+03  0.19041431955E+03  0.22684787801E+03  0.00000000000E+00 0.  1.
</event>
<event>
 4    1  0.6824761E+001  0.2721108E+02  0.7546771E-02  0.1445499E+00
          2   -1    0    0  502    0  0.00000000000E+00  0.00000000000E+00  0.26819648721E+03  0.26819648721E+03  0.00000000000E+00 0. -1.
         -2   -1    0    0    0  501 -0.00000000000E+00 -0.00000000000E+00 -0.27660669750E+01  0.27660669750E+01  0.00000000000E+00 0.  1.
          1    1    1    2  502    0 -0.79850388347E+00 -0.27199366267E+02  0.12681642906E+03  0.12970292908E+03  0.00000000000E+00 0. -1.
         -1    1    1    2    0  501  0.79850388347E+00  0.27199366267E+02  0.13861399118E+03  0.14125962510E+03  0.00000000000E+00 0.  1.
</event>
<event>
 4    1  0.6824761E+001  0.2174691E+02  0.7546771E-02  0.1508863E+00
          2   -1    0    0  502    0  0.00000000000E+00  0.00000000000E+00  0.92545630058E+01  0.92545630058E+01  0.00000000000E+00 0. -1.
         -2   -1    0    0    0  501 -0.00000000000E+00 -0.00000000000E+00 -0.51220351034E+02  0.51220351034E+02  0.00000000000E+00 0.  1.
          1    1    1    2  502    0  0.21510459490E+02  0.31981287833E+01 -0.19530218178E+02  0.29229391326E+02  0.00000000000E+00 0.  1.
         -1    1    1    2    0  501 -0.21510459490E+02 -0.31981287833E+01 -0.22435569850E+02  0.31245522714E+02  0.00000000000E+00 0. -1.
</event>
<event>
 4    1  0.6824761E+001  0.3130065E+02  0.7546771E-02  0.1408621E+00
          2   -1    0    0  502    0  0.00000000000E+00  0.00000000000E+00  0.23799892444E+02  0.23799892444E+02  0.00000000000E+00 0.  1.
         -2   -1    0    0    0  501 -0.00000000000E+00 -0.00000000000E+00 -0.43679897888E+02  0.43679897888E+02  0.00000000000E+00 0. -1.
          1    1    1    2  502    0  0.31279716724E+02 -0.11445146157E+01 -0.18035322398E+02  0.36124831432E+02  0.00000000000E+00 0. -1.
         -1    1    1    2    0  501 -0.31279716724E+02  0.11445146157E+01 -0.18446830459E+01  0.31354958899E+02  0.00000000000E+00 0.  1.
</event>
<event>
 4    1  0.6824761E+001  0.2396009E+02  0.7546771E-02  0.1480782E+00
          2   -1    0    0  502    0  0.00000000000E+00  0.00000000000E+00  0.70438136577E+01  0.70438136577E+01  0.00000000000E+00 0.  1.
         -2   -1    0    0    0  501 -0.00000000000E+00 -0.00000000000E+00 -0.82275845637E+02  0.82275845637E+02  0.00000000000E+00 0. -1.
          1    1    1    2  502    0  0.23789209884E+02 -0.28564701624E+01 -0.41946805728E+02  0.48307560894E+02  0.00000000000E+00 0.  1.
         -1    1    1    2    0  501 -0.23789209884E+02  0.28564701624E+01 -0.33285226251E+02  0.41012098401E+02  0.00000000000E+00 0. -1.
</event>
<event>
 4    1  0.6824761E+001  0.2102237E+02  0.7546771E-02  0.1518946E+00
          2   -1    0    0  502    0  0.00000000000E+00  0.00000000000E+00  0.76607671712E+01  0.76607671712E+01  0.00000000000E+00 0. -1.
         -2   -1    0    0    0  501 -0.00000000000E+00 -0.00000000000E+00 -0.60871005844E+02  0.60871005844E+02  0.00000000000E+00 0.  1.
          1    1    1    2  502    0  0.18871972154E+02 -0.92622282939E+01 -0.18770404809E+02  0.28182766057E+02  0.00000000000E+00 0. -1.
         -1    1    1    2    0  501 -0.18871972154E+02  0.92622282939E+01 -0.34439833864E+02  0.40349006958E+02  0.00000000000E+00 0.  1.
</event>
<event>
 4    1  0.6824761E+001  0.2797587E+02  0.7546771E-02  0.1438044E+00
          2   -1    0    0  502    0  0.00000000000E+00  0.00000000000E+00  0.65653581284E+02  0.65653581284E+02  0.00000000000E+00 0.  1.
         -2   -1    0    0    0  501 -0.00000000000E+00 -0.00000000000E+00 -0.11982487340E+02  0.11982487340E+02  0.00000000000E+00 0. -1.
          1    1    1    2  502    0  0.10515963421E+02 -0.25924188568E+02  0.29618753150E+02  0.40742110619E+02  0.00000000000E+00 0.  1.
         -1    1    1    2    0  501 -0.10515963421E+02  0.25924188568E+02  0.24052340795E+02  0.36893958005E+02  0.00000000000E+00 0. -1.
</event>
<event>
 4    1  0.6824761E+001  0.2230870E+02  0.7546771E-02  0.1501366E+00
          2   -1    0    0  502    0  0.00000000000E+00  0.00000000000E+00  0.45520854632E+02  0.45520854632E+02  0.00000000000E+00 0.  1.
         -2   -1    0    0    0  501 -0.00000000000E+00 -0.00000000000E+00 -0.20356605075E+02  0.20356605075E+02  0.00000000000E+00 0. -1.
          1    1    1    2  502    0 -0.21381309882E+02  0.63653557378E+01 -0.98289863250E+01  0.24378005212E+02  0.00000000000E+00 0. -1.
         -1    1    1    2    0  501  0.21381309882E+02 -0.63653557378E+01  0.34993235882E+02  0.41499454496E+02  0.00000000000E+00 0.  1.
</event>
<event>
 4    1  0.6824761E+001  0.2434353E+02  0.7546771E-02  0.1476283E+00
          2   -1    0    0  502    0  0.00000000000E+00  0.00000000000E+00  0.14119283236E+02  0.14119283236E+02  0.00000000000E+00 0.  1.
         -2   -1    0    0    0  501 -0.00000000000E+00 -0.00000000000E+00 -0.60823484637E+02  0.60823484637E+02  0.00000000000E+00 0. -1.
          1    1    1    2  502    0  0.24097578950E+02 -0.34517002005E+01 -0.44213459030E+02  0.50472145832E+02  0.00000000000E+00 0. -1.
         -1    1    1    2    0  501 -0.24097578950E+02  0.34517002005E+01 -0.24907423712E+01  0.24470622041E+02  0.00000000000E+00 0.  1.
</event>
<event>
 4    1  0.6824761E+001  0.4942436E+02  0.7546771E-02  0.1300688E+00
          2   -1    0    0  502    0  0.00000000000E+00  0.00000000000E+00  0.23639032762E+03  0.23639032762E+03  0.00000000000E+00 0. -1.
         -2   -1    0    0    0  501 -0.00000000000E+00 -0.00000000000E+00 -0.12295061503E+02  0.12295061503E+02  0.00000000000E+00 0.  1.
          1    1    1    2  502    0 -0.36357453294E+02  0.33479896070E+02  0.62383531170E+02  0.79589401380E+02  0.00000000000E+00 0. -1.
         -1    1    1    2    0  501  0.36357453294E+02 -0.33479896070E+02  0.16171173495E+03  0.16909598775E+03  0.00000000000E+00 0.  1.
</event>
<event>
 4    1  0.6824761E+001  0.2424750E+02  0.7546771E-02  0.1477400E+00
          2   -1    0    0  502    0  0.00000000000E+00  0.00000000000E+00  0.14655670213E+02  0.14655670213E+02  0.00000000000E+00 0. -1.
         -2   -1    0    0    0  501 -0.00000000000E+00 -0.00000000000E+00 -0.42251007880E+02  0.42251007880E+02  0.00000000000E+00 0.  1.
          1    1    1    2  502    0 -0.20027877793E+02 -0.13668403901E+02 -0.74030411209E+01  0.25352439172E+02  0.00000000000E+00 0.  1.
         -1    1    1    2    0  501  0.20027877793E+02  0.13668403901E+02 -0.20192296546E+02  0.31554238922E+02  0.00000000000E+00 0. -1.
</event>
<event>
 4    1  0.6824761E+001  0.3001164E+02  0.7546771E-02  0.1419495E+00
          2   -1    0    0  502    0  0.00000000000E+00  0.00000000000E+00  0.33984241549E+01  0.33984241549E+01  0.00000000000E+00 0.  1.
         -2   -1    0    0    0  501 -0.00000000000E+00 -0.00000000000E+00 -0.26531746288E+03  0.26531746288E+03  0.00000000000E+00 0. -1.
          1    1    1    2  502    0 -0.19637565139E+02 -0.22695037175E+02 -0.13534951437E+03  0.13863689883E+03  0.00000000000E+00 0. -1.
         -1    1    1    2    0  501  0.19637565139E+02  0.22695037175E+02 -0.12656952435E+03  0.13007898820E+03  0.00000000000E+00 0.  1.
</event>
<event>
 4    1  0.6824761E+001  0.2023888E+02  0.7546771E-02  0.1530415E+00
          2   -1    0    0  502    0  0.00000000000E+00  0.00000000000E+00  0.73683077031E+02  0.73683077031E+02  0.00000000000E+00 0.  1.
         -2   -1    0    0    0  501 -0.00000000000E+00 -0.00000000000E+00 -0.55959223899E+01  0.55959223899E+01  0.00000000000E+00 0. -1.
          1    1    1    2  502    0  0.14319960655E+01 -0.20188153915E+02  0.30828421173E+02  0.36878228309E+02  0.00000000000E+00 0. -1.
         -1    1    1    2    0  501 -0.14319960655E+01  0.20188153915E+02  0.37258733468E+02  0.42400771112E+02  0.00000000000E+00 0.  1.
</event>
<event>
 4    1  0.6824761E+001  0.3839305E+02  0.7546771E-02  0.1358169E+00
          2   -1    0    0  502    0  0.00000000000E+00  0.00000000000E+00  0.13945572494E+02  0.13945572494E+02  0.00000000000E+00 0. -1.
         -2   -1    0    0    0  501 -0.00000000000E+00 -0.00000000000E+00 -0.13402819095E+03  0.13402819095E+03  0.00000000000E+00 0.  1.
          1    1    1    2  502    0  0.51799849125E+01 -0.38042001123E+02 -0.94056864513E+02  0.10159094377E+03  0.00000000000E+00 0. -1.
         -1    1    1    2    0  501 -0.51799849125E+01  0.38042001123E+02 -0.26025753943E+02  0.46382819679E+02  0.00000000000E+00 0.  1.
</event>
<event>
 4    1  0.6824761E+001  0.2038315E+02  0.7546771E-02  0.1528257E+00
          2   -1    0    0  502    0  0.00000000000E+00  0.00000000000E+00  0.19274667740E+04  0.19274667740E+04  0.00000000000E+00 0. -1.
         -2   -1    0    0    0  501 -0.00000000000E+00 -0.00000000000E+00 -0.30141519294E+00  0.30141519294E+00  0.00000000000E+00 0.  1.
          1    1    1    2  502    0  0.14482469757E+02 -0.14343323372E+02  0.14780302490E+04  0.14781707918E+04  0.00000000000E+00 0. -1.
         -1    1    1    2    0  501 -0.14482469757E+02  0.14343323372E+02  0.44913510988E+03  0.44959739743E+03  0.00000000000E+00 0.  1.
</event>
<event>
 4    1  0.6824761E+001  0.2027578E+02  0.7546771E-02  0.1529861E+00
          2   -1    0    0  502    0  0.00000000000E+00  0.00000000000E+00  0.16425167724E+01  0.16425167724E+01  0.00000000000E+00 0.  1.
         -2   -1    0    0    0  501 -0.00000000000E+00 -0.00000000000E+00 -0.25815441716E+03  0.25815441716E+03  0.00000000000E+00 0. -1.
          1    1    1    2  502    0 -0.99756239177E+01 -0.17652029861E+02 -0.15092685253E+03  0.15228270435E+03  0.00000000000E+00 0.  1.
         -1    1    1    2    0  501  0.99756239177E+01  0.17652029861E+02 -0.10558504786E+03  0.10751422958E+03  0.00000000000E+00 0. -1.
</event>
<event>
 4    1  0.6824761E+001  0.6306134E+02  0.7546771E-02  0.1249771E+00
          2   -1    0    0  502    0  0.00000000000E+00  0.00000000000E+00  0.34205534214E+02  0.34205534214E+02  0.00000000000E+00 0.  1.
         -2   -1    0    0    0  501 -0.00000000000E+00 -0.00000000000E+00 -0.12495014530E+03  0.12495014530E+03  0.00000000000E+00 0. -1.
          1    1    1    2  502    0 -0.54624495459E+02  0.31510269674E+02 -0.24385838507E+02  0.67612141800E+02  0.00000000000E+00 0.  1.
         -1    1    1    2    0  501  0.54624495459E+02 -0.31510269674E+02 -0.66358772580E+02  0.91543537715E+02  0.00000000000E+00 0. -1.
</event>
<event>
 4    1  0.6824761E+001  0.2080016E+02  0.7546771E-02  0.1522137E+00
          2   -1    0    0  502    0  0.00000000000E+00  0.00000000000E+00  0.29894025410E+03  0.29894025410E+03  0.00000000000E+00 0. -1.
         -2   -1    0    0    0  501 -0.00000000000E+00 -0.00000000000E+00 -0.17277504415E+01  0.17277504415E+01  0.00000000000E+00 0.  1.
          1    1    1    2  502    0 -0.48586578048E+01 -0.20224734883E+02  0.88034506354E+02  0.90458392456E+02  0.00000000000E+00 0. -1.
         -1    1    1    2    0  501  0.48586578048E+01  0.20224734883E+02  0.20917799730E+03  0.21020961209E+03  0.00000000000E+00 0.  1.
</event>
<event>
 4    1  0.6824761E+001  0.2577751E+02  0.7546771E-02  0.1460290E+00
          2   -1    0    0  502    0  0.00000000000E+00  0.00000000000E+00  0.10816117932E+03  0.10816117932E+03  0.00000000000E+00 0.  1.
         -2   -1    0    0    0  501 -0.00000000000E+00 -0.00000000000E+00 -0.62377960177E+01  0.62377960177E+01  0.00000000000E+00 0. -1.
          1    1    1    2  502    0  0.21560604082E+02  0.14128704584E+02  0.43926124773E+02  0.50931172961E+02  0.00000000000E+00 0.  1.
         -1    1    1    2    0  501 -0.21560604082E+02 -0.14128704584E+02  0.57997258534E+02  0.63467802381E+02  0.00000000000E+00 0. -1.
</event>
<event>
 4    1  0.6824761E+001  0.4806745E+02  0.7546771E-02  0.1306776E+00
          2   -1    0    0  502    0  0.00000000000E+00  0.00000000000E+00  0.99083643553E+01  0.99083643553E+01  0.00000000000E+00 0. -1.
         -2   -1    0    0    0  501 -0.00000000000E+00 -0.00000000000E+00 -0.41208224532E+03  0.41208224532E+03  0.00000000000E+00 0.  1.
          1    1    1    2  502    0  0.34155019178E+02  0.33821799929E+02 -0.34010875969E+03  0.34348864305E+03  0.00000000000E+00 0. -1.
         -1    1    1    2    0  501 -0.34155019178E+02 -0.33821799929E+02 -0.62065121278E+02  0.78501966630E+02  0.00000000000E+00 0.  1.
</event>
<event>
 4    1  0.6824761E+001  0.3018290E+02  0.7546771E-02  0.1418013E+00
          2   -1    0    0  502    0  0.00000000000E+00  0.00000000000E+00  0.32555062787E+04  0.32555062787E+04  0.00000000000E+00 0.  1.
         -2   -1    0    0    0  501 -0.00000000000E+00 -0.00000000000E+00 -0.28577583107E+00  0.28577583107E+00  0.00000000000E+00 0. -1.
          1    1    1    2  502    0  0.25197407108E+02 -0.16616206688E+02  0.13929155593E+04  0.13932425356E+04  0.00000000000E+00 0. -1.
         -1    1    1    2    0  501 -0.25197407108E+02  0.16616206688E+02  0.18623049435E+04  0.18625495189E+04  0.00000000000E+00 0.  1.
</event>
<event>
 4    1  0.6824761E+001  0.2012491E+02  0.7546771E-02  0.1532135E+00
          2   -1    0    0  502    0  0.00000000000E+00  0.00000000000E+00  0.96530792575E+03  0.96530792575E+03  0.00000000000E+00 0.  1.
         -2   -1    0    0    0  501 -0.00000000000E+00 -0.00000000000E+00 -0.12649349052E+01  0.12649349052E+01  0.00000000000E+00 0. -1.
          1    1    1    2  502    0 -0.18100398214E+02  0.87970281855E+01  0.86934089779E+02  0.89233110929E+02  0.00000000000E+00 0. -1.
         -1    1    1    2    0  501  0.18100398214E+02 -0.87970281855E+01  0.87710890106E+03  0.87733974972E+03  0.00000000000E+00 0.  1.
</event>
<event>
 4    1  0.6824761E+001  0.2898077E+02  0.7546771E-02  0.1428665E+00
          2   -1    0    0  502    0  0.00000000000E+00  0.00000000000E+00  0.31113618156E+03  0.31113618156E+03  0.00000000000E+00 0.  1.
         -2   -1    0    0    0  501 -0.00000000000E+00 -0.00000000000E+00 -0.33157873961E+01  0.33157873961E+01  0.00000000000E+00 0. -1.
          1    1    1    2  502    0 -0.11291768265E+02  0.26690468815E+02  0.86122143638E+02  0.90867534251E+02  0.00000000000E+00 0.  1.
         -1    1    1    2    0  501  0.11291768265E+02 -0.26690468815E+02  0.22169825052E+03  0.22358443470E+03  0.00000000000E+00 0. -1.
</event>
<event>
 4    1  0.6824761E+001  0.2426287E+02  0.7546771E-02  0.1477221E+00
          2   -1    0    0  502    0  0.00000000000E+00  0.00000000000E+00  0.22351985452E+04  0.22351985452E+04  0.00000000000E+00 0.  1.
         -2   -1    0    0    0  501 -0.00000000000E+00 -0.00000000000E+00 -0.26338105976E+00  0.26338105976E+00  0.00000000000E+00 0. -1.
          1    1    1    2  502    0 -0.19718101594E+02 -0.14138008716E+02  0.11106129744E+04  0.11108779706E+04  0.00000000000E+00 0.  1.
         -1    1    1    2    0  501  0.19718101594E+02  0.14138008716E+02  0.11243221898E+04  0.11245839556E+04  0.00000000000E+00 0. -1.
</event>
<event>
 4    1  0.6824761E+001  0.3307433E+02  0.7546771E-02  0.1394631E+00
          2   -1    0    0  502    0  0.00000000000E+00  0.00000000000E+00  0.29562149978E+04  0.29562149978E+04  0.00000000000E+00 0. -1.
         -2   -1    0    0    0  501 -0.00000000000E+00 -0.00000000000E+00 -0.43705515058E+00  0.43705515058E+00  0.00000000000E+00 0.  1.
          1    1    1    2  502    0  0.32817138561E+02  0.41166454370E+01  0.89899948185E+03  0.89960768101E+03  0.00000000000E+00 0.  1.
         -1    1    1    2    0  501 -0.32817138561E+02 -0.41166454370E+01  0.20567784608E+04  0.20570443720E+04  0.00000000000E+00 0. -1.
</event>
<event>
 4    1  0.6824761E+001  0.2342310E+02  0.7546771E-02  0.1487253E+00
          2   -1    0    0  502    0  0.00000000000E+00  0.00000000000E+00  0.80840224980E+02  0.80840224980E+02  0.00000000000E+00 0.  1.
         -2   -1    0    0    0  501 -0.00000000000E+00 -0.00000000000E+00 -0.90079587058E+01  0.90079587058E+01  0.00000000000E+00 0. -1.
          1    1    1    2  502    0 -0.94899472115E+01 -0.21414540044E+02  0.13608076829E+02  0.27089137645E+02  0.00000000000E+00 0. -1.
         -1    1    1    2    0  501  0.94899472115E+01  0.21414540044E+02  0.58224189446E+02  0.62759046041E+02  0.00000000000E+00 0.  1.
</event>
<event>
 4    1  0.6824761E+001  0.2337202E+02  0.7546771E-02  0.1487879E+00
          2   -1    0    0  502    0  0.00000000000E+00  0.00000000000E+00  0.61224448949E+02  0.61224448949E+02  0.00000000000E+00 0. -1.
         -2   -1    0    0    0  501 -0.00000000000E+00 -0.00000000000E+00 -0.11141531268E+02  0.11141531268E+02  0.00000000000E+00 0.  1.
          1    1    1    2  502    0 -0.22098180176E+02 -0.76106295796E+01  0.88922253728E+01  0.25006457601E+02  0.00000000000E+00 0. -1.
         -1    1    1    2    0  501  0.22098180176E+02  0.76106295796E+01  0.41190692308E+02  0.47359522616E+02  0.00000000000E+00 0.  1.
</event>
<event>
 4    1  0.6824761E+001  0.9706836E+02  0.7546771E-02  0.1168987E+00
          2   -1    0    0  502    0  0.00000000000E+00  0.00000000000E+00  0.55094423053E+03  0.55094423053E+03  0.00000000000E+00 0.  1.
         -2   -1    0    0    0  501 -0.00000000000E+00 -0.00000000000E+00 -0.10876819579E+03  0.10876819579E+03  0.00000000000E+00 0. -1.
          1    1    1    2  502    0 -0.47173302892E+02  0.84834817240E+02  0.52390360787E+03  0.53282009821E+03  0.00000000000E+00 0.  1.
         -1    1    1    2    0  501  0.47173302892E+02 -0.84834817240E+02 -0.81727573137E+02  0.12689232811E+03  0.00000000000E+00 0. -1.
</event>
<event>
 4    1  0.6824761E+001  0.2465218E+02  0.7546771E-02  0.1472732E+00
          2   -1    0    0  502    0  0.00000000000E+00  0.00000000000E+00  0.13617547274E+03  0.13617547274E+03  0.00000000000E+00 0. -1.
         -2   -1    0    0    0  501 -0.00000000000E+00 -0.00000000000E+00 -0.57173618627E+01  0.57173618627E+01  0.00000000000E+00 0.  1.
          1    1    1    2  502    0  0.15560765611E+02 -0.19120475737E+02  0.98462158300E+02  0.10150136273E+03  0.00000000000E+00 0. -1.
         -1    1    1    2    0  501 -0.15560765611E+02  0.19120475737E+02  0.31995952581E+02  0.40391471877E+02  0.00000000000E+00 0.  1.
</event>
<event>
 4    1  0.6824761E+001  0.2152434E+02  0.7546771E-02  0.1511909E+00
          2   -1    0    0  502    0  0.00000000000E+00  0.00000000000E+00  0.95809496210E+03  0.95809496210E+03  0.00000000000E+00 0.  1.
         -2   -1    0    0    0  501 -0.00000000000E+00 -0.00000000000E+00 -0.59175726919E+00  0.59175726919E+00  0.00000000000E+00 0. -1.
          1    1    1    2  502    0 -0.15079705780E+02  0.15359025708E+02  0.27378580593E+03  0.27463059685E+03  0.00000000000E+00 0. -1.
         -1    1    1    2    0  501  0.15079705780E+02 -0.15359025708E+02  0.68371739890E+03  0.68405612252E+03  0.00000000000E+00 0.  1.
</event>
<event>
 4    1  0.6824761E+001  0.2088409E+02  0.7546771E-02  0.1520926E+00
          2   -1    0    0  502    0  0.00000000000E+00  0.00000000000E+00  0.68263335444E+01  0.68263335444E+01  0.00000000000E+00 0. -1.
         -2   -1    0    0    0  501 -0.00000000000E+00 -0.00000000000E+00 -0.64073599388E+02  0.64073599388E+02  0.00000000000E+00 0.  1.
          1    1    1    2  502    0 -0.20423848102E+02 -0.43602203535E+01 -0.26734075583E+02  0.33924266980E+02  0.00000000000E+00 0. -1.
         -1    1    1    2    0  501  0.20423848102E+02  0.43602203535E+01 -0.30513190260E+02  0.36975665953E+02  0.00000000000E+00 0.  1.
</event>
<event>
 4    1  0.6824761E+001  0.2585986E+02  0.7546771E-02  0.1459410E+00
          2   -1    0    0  502    0  0.00000000000E+00  0.00000000000E+00  0.11356059605E+04  0.11356059605E+04  0.00000000000E+00 0. -1.
         -2   -1    0    0    0  501 -0.00000000000E+00 -0.00000000000E+00 -0.92064620879E+00  0.92064620879E+00  0.00000000000E+00 0.  1.
          1    1    1    2  502    0  0.25806807143E+02  0.16555895709E+01  0.22621161405E+03  0.22768492836E+03  0.00000000000E+00 0.  1.
         -1    1    1    2    0  501 -0.25806807143E+02 -0.16555895709E+01  0.90847370024E+03  0.90884167835E+03  0.00000000000E+00 0. -1.
</event>
<event>
 4    1  0.6824761E+001  0.2608371E+02  0.7546771E-02  0.1457036E+00
          2   -1    0    0  502    0  0.00000000000E+00  0.00000000000E+00  0.56984945502E+03  0.56984945502E+03  0.00000000000E+00 0. -1.
         -2   -1    0    0    0  501 -0.00000000000E+00 -0.00000000000E+00 -0.12077565358E+01  0.12077565358E+01  0.00000000000E+00 0.  1.
          1    1    1    2  502    0  0.59497439137E+01 -0.25396074323E+02  0.25376985625E+03  0.25510684033E+03  0.00000000000E+00 0. -1.
         -1    1    1    2    0  501 -0.59497439137E+01  0.25396074323E+02  0.31487184223E+03  0.31595037122E+03  0.00000000000E+00 0.  1.
</event>
<event>
 4    1  0.6824761E+001  0.2006460E+02  0.7546771E-02  0.1533051E+00
          2   -1    0    0  502    0  0.00000000000E+00  0.00000000000E+00  0.59367609552E+03  0.59367609552E+03  0.00000000000E+00 0. -1.
         -2   -1    0    0    0  501 -0.00000000000E+00 -0.00000000000E+00 -0.19758114821E+01  0.19758114821E+01  0.00000000000E+00 0.  1.
          1    1    1    2  502    0 -0.18853703880E+01  0.19975819785E+02  0.54485146713E+02  0.58062201215E+02  0.00000000000E+00 0.  1.
         -1    1    1    2    0  501  0.18853703880E+01 -0.19975819785E+02  0.53721513732E+03  0.53758970578E+03  0.00000000000E+00 0. -1.
</event>
<event>
 4    1  0.6824761E+001  0.2334651E+02  0.7546771E-02  0.1488192E+00
          2   -1    0    0  502    0  0.00000000000E+00  0.00000000000E+00  0.11186756614E+04  0.11186756614E+04  0.00000000000E+00 0.  1.
         -2   -1    0    0    0  501 -0.00000000000E+00 -0.00000000000E+00 -0.52505582200E+00  0.52505582200E+00  0.00000000000E+00 0. -1.
          1    1    1    2  502    0  0.97316244632E+01  0.21221570894E+02  0.40888833192E+03  0.40955430357E+03  0.00000000000E+00 0. -1.
         -1    1    1    2    0  501 -0.97316244632E+01 -0.21221570894E+02  0.70926227366E+03  0.70964641367E+03  0.00000000000E+00 0.  1.
</event>
<event>
 4    1  0.6824761E+001  0.2893097E+02  0.7546771E-02  0.1429119E+00
          2   -1    0    0  502    0  0.00000000000E+00  0.00000000000E+00  0.61683881012E+01  0.61683881012E+01  0.00000000000E+00 0. -1.
         -2   -1    0    0    0  501 -0.00000000000E+00 -0.00000000000E+00 -0.13601508745E+03  0.13601508745E+03  0.00000000000E+00 0.  1.
          1    1    1    2  502    0 -0.28468249723E+02 -0.51536239172E+01 -0.61458632276E+02  0.67927642113E+02  0.00000000000E+00 0. -1.
         -1    1    1    2    0  501  0.28468249723E+02  0.51536239172E+01 -0.68388067077E+02  0.74255833443E+02  0.00000000000E+00 0.  1.
</event>
<event>
 4    1  0.6824761E+001  0.2491306E+02  0.7546771E-02  0.1469778E+00
          2   -1    0    0  502    0  0.00000000000E+00  0.00000000000E+00  0.91010568690E+01  0.91010568690E+01  0.00000000000E+00 0.  1.
         -2   -1    0    0    0  501 -0.00000000000E+00 -0.00000000000E+00 -0.70551707161E+02  0.70551707161E+02  0.00000000000E+00 0. -1.
          1    1    1    2  502    0 -0.24714657751E+02 -0.31378635230E+01 -0.38001931949E+02  0.45440151046E+02  0.00000000000E+00 0. -1.
         -1    1    1    2    0  501  0.24714657751E+02  0.31378635230E+01 -0.23448718344E+02  0.34212612984E+02  0.00000000000E+00 0.  1.
</event>
<event>
 4    1  0.6824761E+001  0.2531751E+02  0.7546771E-02  0.1465283E+00
          2   -1    0    0  502    0  0.00000000000E+00  0.00000000000E+00  0.71581596168E+03  0.71581596168E+03  0.00000000000E+00 0.  1.
         -2   -1    0    0    0  501 -0.00000000000E+00 -0.00000000000E+00 -0.24235146665E+01  0.24235146665E+01  0.00000000000E+00 0. -1.
          1    1    1    2  502    0 -0.24615034092E+02  0.59225335305E+01  0.64185551961E+03  0.64235464065E+03  0.00000000000E+00 0.  1.
         -1    1    1    2    0  501  0.24615034092E+02 -0.59225335305E+01  0.71536927399E+02  0.75884835695E+02  0.00000000000E+00 0. -1.
</event>
<event>
 4    1  0.6824761E+001  0.2535849E+02  0.7546771E-02  0.1464833E+00
          2   -1    0    0  502    0  0.00000000000E+00  0.00000000000E+00  0.23923153981E+01  0.23923153981E+01  0.00000000000E+00 0.  1.
         -2   -1    0    0    0  501 -0.00000000000E+00 -0.00000000000E+00 -0.27724826448E+03  0.27724826448E+03  0.00000000000E+00 0. -1.
          1    1    1    2  502    0 -0.18942570654E+02  0.16859180557E+02 -0.16183612444E+03  0.16381081809E+03  0.00000000000E+00 0. -1.
         -1    1    1    2    0  501  0.18942570654E+02 -0.16859180557E+02 -0.11301982464E+03  0.11582976178E+03  0.00000000000E+00 0.  1.
</event>
<event>
 4    1  0.6824761E+001  0.2159415E+02  0.7546771E-02  0.1510949E+00
          2   -1    0    0  502    0  0.00000000000E+00  0.00000000000E+00  0.10207056025E+04  0.10207056025E+04  0.00000000000E+00 0.  1.
         -2   -1    0    0    0  501 -0.00000000000E+00 -0.00000000000E+00 -0.47654336177E+00  0.47654336177E+00  0.00000000000E+00 0. -1.
          1    1    1    2  502    0 -0.21341775713E+02  0.32917699695E+01  0.61391656153E+03  0.61429622468E+03  0.00000000000E+00 0.  1.
         -1    1    1    2    0  501  0.21341775713E+02 -0.32917699695E+01  0.40631249764E+03  0.40688592121E+03  0.00000000000E+00 0. -1.
</event>
<event>
 4    1  0.6824761E+001  0.3261267E+02  0.7546771E-02  0.1398171E+00
          2   -1    0    0  502    0  0.00000000000E+00  0.00000000000E+00  0.44857329708E+01  0.44857329708E+01  0.00000000000E+00 0.  1.
         -2   -1    0    0    0  501 -0.00000000000E+00 -0.00000000000E+00 -0.26972961358E+03  0.26972961358E+03  0.00000000000E+00 0. -1.
          1    1    1    2  502    0 -0.16646507374E+02 -0.28044250762E+02 -0.84937648355E+02  0.90983461776E+02  0.00000000000E+00 0.  1.
         -1    1    1    2    0  501  0.16646507374E+02  0.28044250762E+02 -0.18030623225E+03  0.18323188477E+03  0.00000000000E+00 0. -1.
</event>
<event>
 4    1  0.6824761E+001  0.3695785E+02  0.7546771E-02  0.1367298E+00
          2   -1    0    0  502    0  0.00000000000E+00  0.00000000000E+00  0.64444071052E+01  0.64444071052E+01  0.00000000000E+00 0. -1.
         -2   -1    0    0    0  501 -0.00000000000E+00 -0.00000000000E+00 -0.21197701769E+03  0.21197701769E+03  0.00000000000E+00 0.  1.
          1    1    1    2  502    0 -0.35794198945E+02  0.92009830258E+01 -0.10150079077E+03  0.10801987453E+03  0.00000000000E+00 0. -1.
         -1    1    1    2    0  501  0.35794198945E+02 -0.92009830258E+01 -0.10403181981E+03  0.11040155026E+03  0.00000000000E+00 0.  1.
</event>
<event>
 4    1  0.6824761E+001  0.3669731E+02  0.7546771E-02  0.1369008E+00
          2   -1    0    0  502    0  0.00000000000E+00  0.00000000000E+00  0.27210473477E+03  0.27210473477E+03  0.00000000000E+00 0. -1.
         -2   -1    0    0    0  501 -0.00000000000E+00 -0.00000000000E+00 -0.60615710495E+01  0.60615710495E+01  0.00000000000E+00 0.  1.
          1    1    1    2  502    0 -0.26217478261E+01 -0.36603538052E+02  0.73439915651E+02  0.82098195903E+02  0.00000000000E+00 0. -1.
         -1    1    1    2    0  501  0.26217478261E+01  0.36603538052E+02  0.19260324807E+03  0.19606810991E+03  0.00000000000E+00 0.  1.
</event>
<event>
 4    1  0.6824761E+001  0.2435290E+02  0.7546771E-02  0.1476174E+00
          2   -1    0    0  502    0  0.00000000000E+00  0.00000000000E+00  0.17934518533E+04  0.17934518533E+04  0.00000000000E+00 0. -1.
         -2   -1    0    0    0  501 -0.00000000000E+00 -0.00000000000E+00 -0.36461979026E+00  0.36461979026E+00  0.00000000000E+00 0.  1.
          1    1    1    2  502    0  0.23667379144E+02 -0.57374908519E+01  0.11701742476E+04  0.11704276284E+04  0.00000000000E+00 0.  1.
         -1    1    1    2    0  501 -0.23667379144E+02  0.57374908519E+01  0.62291298592E+03  0.62338884468E+03  0.00000000000E+00 0. -1.
</event>
<event>
 4    1  0.6824761E+001  0.2550256E+02  0.7546771E-02  0.1463259E+00
          2   -1    0    0  502    0  0.00000000000E+00  0.00000000000E+00  0.10540277981E+03  0.10540277981E+03  0.00000000000E+00 0.  1.
         -2   -1    0    0    0  501 -0.00000000000E+00 -0.00000000000E+00 -0.70614525912E+01  0.70614525912E+01  0.00000000000E+00 0. -1.
          1    1    1    2  502    0  0.45367945723E+01 -0.25095781705E+02  0.29195925606E+02  0.38765743078E+02  0.00000000000E+00 0. -1.
         -1    1    1    2    0  501 -0.45367945723E+01  0.25095781705E+02  0.69145401612E+02  0.73698489322E+02  0.00000000000E+00 0.  1.
</event>
<event>
 4    1  0.6824761E+001  0.3371461E+02  0.7546771E-02  0.1389832E+00
          2   -1    0    0  502    0  0.00000000000E+00  0.00000000000E+00  0.73295463198E+03  0.73295463198E+03  0.00000000000E+00 0.  1.
         -2   -1    0    0    0  501 -0.00000000000E+00 -0.00000000000E+00 -0.15512280225E+01  0.15512280225E+01  0.00000000000E+00 0. -1.
          1    1    1    2  502    0  0.30608613555E+02 -0.14134625889E+02  0.37171567686E+03  0.37324150265E+03  0.00000000000E+00 0. -1.
         -1    1    1    2    0  501 -0.30608613555E+02  0.14134625889E+02  0.35968772710E+03  0.36126435736E+03  0.00000000000E+00 0.  1.
</event>
<event>
 4    1  0.6824761E+001  0.2764796E+02  0.7546771E-02  0.1441206E+00
          2   -1    0    0  502    0  0.00000000000E+00  0.00000000000E+00  0.35708335622E+02  0.35708335622E+02  0.00000000000E+00 0.  1.
         -2   -1    0    0    0  501 -0.00000000000E+00 -0.00000000000E+00 -0.21999829650E+02  0.21999829650E+02  0.00000000000E+00 0. -1.
          1    1    1    2  502    0 -0.23765461040E+02  0.14128439114E+02  0.11590629993E+02  0.29979203357E+02  0.00000000000E+00 0. -1.
         -1    1    1    2    0  501  0.23765461040E+02 -0.14128439114E+02  0.21178759784E+01  0.27728961916E+02  0.00000000000E+00 0.  1.
</event>
<event>
 4    1  0.6824761E+001  0.3140993E+02  0.7546771E-02  0.1407727E+00
          2   -1    0    0  502    0  0.00000000000E+00  0.00000000000E+00  0.98930748490E+03  0.98930748490E+03  0.00000000000E+00 0.  1.
         -2   -1    0    0    0  501 -0.00000000000E+00 -0.00000000000E+00 -0.11205973956E+01  0.11205973956E+01  0.00000000000E+00 0. -1.
          1    1    1    2  502    0  0.20646996664E+02  0.23670348301E+02  0.65839380877E+03  0.65914261832E+03  0.00000000000E+00 0.  1.
         -1    1    1    2    0  501 -0.20646996664E+02 -0.23670348301E+02  0.32979307874E+03  0.33128546398E+03  0.00000000000E+00 0. -1.
</event>
<event>
 4    1  0.6824761E+001  0.2318473E+02  0.7546771E-02  0.1490191E+00
          2   -1    0    0  502    0  0.00000000000E+00  0.00000000000E+00  0.29456062017E+01  0.29456062017E+01  0.00000000000E+00 0. -1.
         -2   -1    0    0    0  501 -0.00000000000E+00 -0.00000000000E+00 -0.18404225777E+03  0.18404225777E+03  0.00000000000E+00 0.  1.
          1    1    1    2  502    0  0.17447010600E+02  0.15268714603E+02 -0.81950895260E+02  0.85167370855E+02  0.00000000000E+00 0. -1.
         -1    1    1    2    0  501 -0.17447010600E+02 -0.15268714603E+02 -0.99145756306E+02  0.10182049311E+03  0.00000000000E+00 0.  1.
</event>
<event>
 4    1  0.6824761E+001  0.2890347E+02  0.7546771E-02  0.1429371E+00
          2   -1    0    0  502    0  0.00000000000E+00  0.00000000000E+00  0.11670226803E+04  0.11670226803E+04  0.00000000000E+00 0.  1.
         -2   -1    0    0    0  501 -0.00000000000E+00 -0.00000000000E+00 -0.71615791050E+00  0.71615791050E+00  0.00000000000E+00 0. -1.
          1    1    1    2  502    0  0.25203140526E+02  0.14149642352E+02  0.59530218769E+03  0.59600344406E+03  0.00000000000E+00 0. -1.
         -1    1    1    2    0  501 -0.25203140526E+02 -0.14149642352E+02  0.57100433472E+03  0.57173539417E+03  0.00000000000E+00 0.  1.
</event>
<event>
 4    1  0.6824761E+001  0.5787717E+02  0.7546771E-02  0.1267221E+00
          2   -1    0    0  502    0  0.00000000000E+00  0.00000000000E+00  0.13604773274E+04  0.13604773274E+04  0.00000000000E+00 0. -1.
         -2   -1    0    0    0  501 -0.00000000000E+00 -0.00000000000E+00 -0.24935599094E+01  0.24935599094E+01  0.00000000000E+00 0.  1.
          1    1    1    2  502    0 -0.29265373488E+02  0.49932997799E+02  0.75541746796E+03  0.75763138613E+03  0.00000000000E+00 0. -1.
         -1    1    1    2    0  501  0.29265373488E+02 -0.49932997799E+02  0.60256629952E+03  0.60533950116E+03  0.00000000000E+00 0.  1.
</event>
<event>
 4    1  0.6824761E+001  0.2186148E+02  0.7546771E-02  0.1507312E+00
          2   -1    0    0  502    0  0.00000000000E+00  0.00000000000E+00  0.24930925817E+03  0.24930925817E+03  0.00000000000E+00 0.  1.
         -2   -1    0    0    0  501 -0.00000000000E+00 -0.00000000000E+00 -0.24710511187E+01  0.24710511187E+01  0.00000000000E+00 0. -1.
          1    1    1    2  502    0 -0.10430391865E+02  0.19212790416E+02  0.18303033751E+03  0.18433130184E+03  0.00000000000E+00 0.  1.
         -1    1    1    2    0  501  0.10430391865E+02 -0.19212790416E+02  0.63807869541E+02  0.67449007445E+02  0.00000000000E+00 0. -1.
</event>
<event>
 4    1  0.6824761E+001  0.3972793E+02  0.7546771E-02  0.1350088E+00
          2   -1    0    0  502    0  0.00000000000E+00  0.00000000000E+00  0.18157659985E+03  0.18157659985E+03  0.00000000000E+00 0. -1.
         -2   -1    0    0    0  501 -0.00000000000E+00 -0.00000000000E+00 -0.92500127004E+01  0.92500127004E+01  0.00000000000E+00 0.  1.
          1    1    1    2  502    0  0.14481293147E+02  0.36994605881E+02  0.10959282235E+03  0.11657141770E+03  0.00000000000E+00 0. -1.
         -1    1    1    2    0  501 -0.14481293147E+02 -0.36994605881E+02  0.62733764807E+02  0.74255194851E+02  0.00000000000E+00 0.  1.
</event>
<event>
 4    1  0.6824761E+001  0.2030126E+02  0.7546771E-02  0.1529479E+00
          2   -1    0    0  502    0  0.00000000000E+00  0.00000000000E+00  0.48142417093E+03  0.48142417093E+03  0.00000000000E+00 0.  1.
         -2   -1    0    0    0  501 -0.00000000000E+00 -0.00000000000E+00 -0.10178689853E+01  0.10178689853E+01  0.00000000000E+00 0. -1.
          1    1    1    2  502    0  0.54326109179E+01 -0.19560880866E+02  0.14403454508E+03  0.14545821221E+03  0.00000000000E+00 0.  1.
         -1    1    1    2    0  501 -0.54326109179E+01  0.19560880866E+02  0.33637175686E+03  0.33698382771E+03  0.00000000000E+00 0. -1.
</event>
<event>
 4    1  0.6824761E+001  0.2382701E+02  0.7546771E-02  0.1482366E+00
          2   -1    0    0  502    0  0.00000000000E+00  0.00000000000E+00  0.13277146547E+04  0.13277146547E+04  0.00000000000E+00 0.  1.
         -2   -1    0    0    0  501 -0.00000000000E+00 -0.00000000000E+00 -0.43374344873E+00  0.43374344873E+00  0.00000000000E+00 0. -1.
          1    1    1    2  502    0  0.11589172358E+02  0.20818683669E+02  0.74269378999E+03  0.74307589935E+03  0.00000000000E+00 0.  1.
         -1    1    1    2    0  501 -0.11589172358E+02 -0.20818683669E+02  0.58458712127E+03  0.58507249880E+03  0.00000000000E+00 0. -1.
</event>
<event>
 4    1  0.6824761E+001  0.2810596E+02  0.7546771E-02  0.1436804E+00
          2   -1    0    0  502    0  0.00000000000E+00  0.00000000000E+00  0.88569917908E+03  0.88569917908E+03  0.00000000000E+00 0.  1.
         -2   -1    0    0    0  501 -0.00000000000E+00 -0.00000000000E+00 -0.18135435391E+01  0.18135435391E+01  0.00000000000E+00 0. -1.
          1    1    1    2  502    0 -0.83229254116E+01 -0.26845371097E+02  0.75829057977E+03  0.75881127324E+03  0.00000000000E+00 0.  1.
         -1    1    1    2    0  501  0.83229254116E+01  0.26845371097E+02  0.12559505577E+03  0.12870144937E+03  0.00000000000E+00 0. -1.
</event>
<event>
 4    1  0.6824761E+001  0.2015205E+02  0.7546771E-02  0.1531724E+00
          2   -1    0    0  502    0  0.00000000000E+00  0.00000000000E+00  0.37430747470E+03  0.37430747470E+03  0.00000000000E+00 0. -1.
         -2   -1    0    0    0  501 -0.00000000000E+00 -0.00000000000E+00 -0.17025403966E+01  0.17025403966E+01  0.00000000000E+00 0.  1.
          1    1    1    2  502    0  0.16970867959E+02  0.10867145451E+02  0.29953485755E+03  0.30021198526E+03  0.00000000000E+00 0. -1.
         -1    1    1    2    0  501 -0.16970867959E+02 -0.10867145451E+02  0.73070076760E+02  0.75798029838E+02  0.00000000000E+00 0.  1.
</event>
<event>
 4    1  0.6824761E+001  0.2017507E+02  0.7546771E-02  0.1531376E+00
          2   -1    0    0  502    0  0.00000000000E+00  0.00000000000E+00  0.17499549511E+04  0.17499549511E+04  0.00000000000E+00 0.  1.
         -2   -1    0    0    0  501 -0.00000000000E+00 -0.00000000000E+00 -0.27212974464E+00  0.27212974464E+00  0.00000000000E+00 0. -1.
          1    1    1    2  502    0 -0.11396152878E+02 -0.16648160510E+02  0.12083884956E+04  0.12085569039E+04  0.00000000000E+00 0. -1.
         -1    1    1    2    0  501  0.11396152878E+02  0.16648160510E+02  0.54129432578E+03  0.54167017702E+03  0.00000000000E+00 0.  1.
</event>
<event>
 4    1  0.6824761E+001  0.4470931E+02  0.7546771E-02  0.1322899E+00
          2   -1    0    0  502    0  0.00000000000E+00  0.00000000000E+00  0.69570510468E+03  0.69570510468E+03  0.00000000000E+00 0. -1.
         -2   -1    0    0    0  501 -0.00000000000E+00 -0.00000000000E+00 -0.29501156867E+01  0.29501156867E+01  0.00000000000E+00 0.  1.
          1    1    1    2  502    0  0.44652069060E+01 -0.44485777988E+02  0.40277099880E+03  0.40524486424E+03  0.00000000000E+00 0. -1.
         -1    1    1    2    0  501 -0.44652069060E+01  0.44485777988E+02  0.28998399020E+03  0.29341035613E+03  0.00000000000E+00 0.  1.
</event>
<event>
 4    1  0.6824761E+001  0.2116488E+02  0.7546771E-02  0.1516924E+00
          2   -1    0    0  502    0  0.00000000000E+00  0.00000000000E+00  0.30582074268E+03  0.30582074268E+03  0.00000000000E+00 0.  1.
         -2   -1    0    0    0  501 -0.00000000000E+00 -0.00000000000E+00 -0.15122603636E+01  0.15122603636E+01  0.00000000000E+00 0. -1.
          1    1    1    2  502    0 -0.12666083187E+02 -0.16956489555E+02  0.12491837833E+03  0.12669867184E+03  0.00000000000E+00 0. -1.
         -1    1    1    2    0  501  0.12666083187E+02  0.16956489555E+02  0.17939010399E+03  0.18063433121E+03  0.00000000000E+00 0.  1.
</event>
<event>
 4    1  0.6824761E+001  0.2083468E+02  0.7546771E-02  0.1521638E+00
          2   -1    0    0  502    0  0.00000000000E+00  0.00000000000E+00  0.10255035901E+04  0.10255035901E+04  0.00000000000E+00 0.  1.
         -2   -1    0    0    0  501 -0.00000000000E+00 -0.00000000000E+00 -0.52876573533E+00  0.52876573533E+00  0.00000000000E+00 0. -1.
          1    1    1    2  502    0  0.19992235238E+02  0.58646655713E+01  0.74161584619E+03  0.74190844927E+03  0.00000000000E+00 0. -1.
         -1    1    1    2    0  501 -0.19992235238E+02 -0.58646655713E+01  0.28335897819E+03  0.28412390658E+03  0.00000000000E+00 0.  1.
</event>
<event>
 4    1  0.6824761E+001  0.2503040E+02  0.7546771E-02  0.1468464E+00
          2   -1    0    0  502    0  0.00000000000E+00  0.00000000000E+00  0.83081165109E+03  0.83081165109E+03  0.00000000000E+00 0.  1.
         -2   -1    0    0    0  501 -0.00000000000E+00 -0.00000000000E+00 -0.75411750109E+00  0.75411750109E+00  0.00000000000E+00 0. -1.
          1    1    1    2  502    0 -0.24748721761E+01  0.24907751096E+02  0.41656465786E+03  0.41731598967E+03  0.00000000000E+00 0.  1.
         -1    1    1    2    0  501  0.24748721761E+01 -0.24907751096E+02  0.41349287572E+03  0.41424977892E+03  0.00000000000E+00 0. -1.
</event>
<event>
 4    1  0.6824761E+001  0.3038987E+02  0.7546771E-02  0.1416238E+00
          2   -1    0    0  502    0  0.00000000000E+00  0.00000000000E+00  0.13947904771E+04  0.13947904771E+04  0.00000000000E+00 0. -1.
         -2   -1    0    0    0  501 -0.00000000000E+00 -0.00000000000E+00 -0.67338736326E+00  0.67338736326E+00  0.00000000000E+00 0.  1.
          1    1    1    2  502    0  0.11137834531E+02 -0.28275299510E+02  0.78724017941E+03  0.78782653167E+03  0.00000000000E+00 0.  1.
         -1    1    1    2    0  501 -0.11137834531E+02  0.28275299510E+02  0.60687691030E+03  0.60763733277E+03  0.00000000000E+00 0. -1.
</event>
<event>
 4    1  0.6824761E+001  0.2677556E+02  0.7546771E-02  0.1449876E+00
          2   -1    0    0  502    0  0.00000000000E+00  0.00000000000E+00  0.89254864202E+03  0.89254864202E+03  0.00000000000E+00 0.  1.
         -2   -1    0    0    0  501 -0.00000000000E+00 -0.00000000000E+00 -0.88075128983E+00  0.88075128983E+00  0.00000000000E+00 0. -1.
          1    1    1    2  502    0  0.25582799135E+02  0.79026077399E+01  0.57835531735E+03  0.57897478696E+03  0.00000000000E+00 0.  1.
         -1    1    1    2    0  501 -0.25582799135E+02 -0.79026077399E+01  0.31331257337E+03  0.31445460635E+03  0.00000000000E+00 0. -1.
</event>
<event>
 4    1  0.6824761E+001  0.2073743E+02  0.7546771E-02  0.1523047E+00
          2   -1    0    0  502    0  0.00000000000E+00  0.00000000000E+00  0.15479989611E+01  0.15479989611E+01  0.00000000000E+00 0.  1.
         -2   -1    0    0    0  501 -0.00000000000E+00 -0.00000000000E+00 -0.31497462340E+03  0.31497462340E+03  0.00000000000E+00 0. -1.
          1    1    1    2  502    0  0.17639125763E+02 -0.10904223126E+02 -0.10234637402E+03  0.10442615148E+03  0.00000000000E+00 0. -1.
         -1    1    1    2    0  501 -0.17639125763E+02  0.10904223126E+02 -0.21108025042E+03  0.21209647088E+03  0.00000000000E+00 0.  1.
</event>
<event>
 4    1  0.6824761E+001  0.2086848E+02  0.7546771E-02  0.1521151E+00
          2   -1    0    0  502    0  0.00000000000E+00  0.00000000000E+00  0.10152011078E+03  0.10152011078E+03  0.00000000000E+00 0.  1.
         -2   -1    0    0    0  501 -0.00000000000E+00 -0.00000000000E+00 -0.53515612212E+01  0.53515612212E+01  0.00000000000E+00 0. -1.
          1    1    1    2  502    0  0.12093656822E+02 -0.17006966938E+02  0.71886684171E+02  0.74854450909E+02  0.00000000000E+00 0.  1.
         -1    1    1    2    0  501 -0.12093656822E+02  0.17006966938E+02  0.24281865389E+02  0.32017221094E+02  0.00000000000E+00 0. -1.
</event>
<event>
 4    1  0.6824761E+001  0.2135568E+02  0.7546771E-02  0.1514247E+00
          2   -1    0    0  502    0  0.00000000000E+00  0.00000000000E+00  0.21112036550E+03  0.21112036550E+03  0.00000000000E+00 0. -1.
         -2   -1    0    0    0  501 -0.00000000000E+00 -0.00000000000E+00 -0.22561116569E+01  0.22561116569E+01  0.00000000000E+00 0.  1.
          1    1    1    2  502    0 -0.16922001739E+02 -0.13027318415E+02  0.82436301599E+02  0.85157553917E+02  0.00000000000E+00 0. -1.
         -1    1    1    2    0  501  0.16922001739E+02  0.13027318415E+02  0.12642795224E+03  0.12821892324E+03  0.00000000000E+00 0.  1.
</event>
<event>
 4    1  0.6824761E+001  0.3034867E+02  0.7546771E-02  0.1416590E+00
          2   -1    0    0  502    0  0.00000000000E+00  0.00000000000E+00  0.23093960721E+04  0.23093960721E+04  0.00000000000E+00 0.  1.
         -2   -1    0    0    0  501 -0.00000000000E+00 -0.00000000000E+00 -0.50138273971E+00  0.50138273971E+00  0.00000000000E+00 0. -1.
          1    1    1    2  502    0  0.12968167940E+01  0.30320949155E+02  0.63209305381E+03  0.63282119937E+03  0.00000000000E+00 0. -1.
         -1    1    1    2    0  501 -0.12968167940E+01 -0.30320949155E+02  0.16768016355E+04  0.16770762555E+04  0.00000000000E+00 0.  1.
</event>
<event>
 4    1  0.6824761E+001  0.3687138E+02  0.7546771E-02  0.1367864E+00
          2   -1    0    0  502    0  0.00000000000E+00  0.00000000000E+00  0.52758403699E+03  0.52758403699E+03  0.00000000000E+00 0.  1.
         -2   -1    0    0    0  501 -0.00000000000E+00 -0.00000000000E+00 -0.42695503389E+01  0.42695503389E+01  0.00000000000E+00 0. -1.
          1    1    1    2  502    0 -0.33214221617E+02  0.16009815547E+02  0.42909854043E+03  0.43067976050E+03  0.00000000000E+00 0.  1.
         -1    1    1    2    0  501  0.33214221617E+02 -0.16009815547E+02  0.94215946228E+02  0.10117382683E+03  0.00000000000E+00 0. -1.
</event>
<event>
 4    1  0.6824761E+001  0.3603009E+02  0.7546771E-02  0.1373462E+00
          2   -1    0    0  502    0  0.00000000000E+00  0.00000000000E+00  0.54871695547E+03  0.54871695547E+03  0.00000000000E+00 0.  1.
         -2   -1    0    0    0  501 -0.00000000000E+00 -0.00000000000E+00 -0.23812313242E+01  0.23812313242E+01  0.00000000000E+00 0. -1.
          1    1    1    2  502    0  0.32134071283E+02 -0.16296281216E+02  0.25100260936E+03  0.25357538766E+03  0.00000000000E+00 0.  1.
         -1    1    1    2    0  501 -0.32134071283E+02  0.16296281216E+02  0.29533311478E+03  0.29752279914E+03  0.00000000000E+00 0. -1.
</event>
<event>
 4    1  0.6824761E+001  0.2115167E+02  0.7546771E-02  0.1517110E+00
          2   -1    0    0  502    0  0.00000000000E+00  0.00000000000E+00  0.17023546790E+04  0.17023546790E+04  0.00000000000E+00 0.  1.
         -2   -1    0    0    0  501 -0.00000000000E+00 -0.00000000000E+00 -0.26460582471E+00  0.26460582471E+00  0.00000000000E+00 0. -1.
          1    1    1    2  502    0  0.63215253131E+01  0.20184930903E+02  0.78088131651E+03  0.78116773077E+03  0.00000000000E+00 0.  1.
         -1    1    1    2    0  501 -0.63215253131E+01 -0.20184930903E+02  0.92120875665E+03  0.92145155404E+03  0.00000000000E+00 0. -1.
</event>
<event>
 4    1  0.6824761E+001  0.3363007E+02  0.7546771E-02  0.1390459E+00
          2   -1    0    0  502    0  0.00000000000E+00  0.00000000000E+00  0.59642239260E+03  0.59642239260E+03  0.00000000000E+00 0. -1.
         -2   -1    0    0    0  501 -0.00000000000E+00 -0.00000000000E+00 -0.19184376187E+01  0.19184376187E+01  0.00000000000E+00 0.  1.
          1    1    1    2  502    0 -0.20076723383E+02 -0.26979749757E+02  0.26509750131E+03  0.26722213030E+03  0.00000000000E+00 0. -1.
         -1    1    1    2    0  501  0.20076723383E+02  0.26979749757E+02  0.32940645368E+03  0.33111869993E+03  0.00000000000E+00 0.  1.
</event>
<event>
 4    1  0.6824761E+001  0.2017359E+02  0.7546771E-02  0.1531398E+00
          2   -1    0    0  502    0  0.00000000000E+00  0.00000000000E+00  0.48475947884E+03  0.48475947884E+03  0.00000000000E+00 0. -1.
         -2   -1    0    0    0  501 -0.00000000000E+00 -0.00000000000E+00 -0.88757111578E+00  0.88757111578E+00  0.00000000000E+00 0.  1.
          1    1    1    2  502    0  0.10795365005E+02  0.17042118595E+02  0.29842474455E+03  0.29910583724E+03  0.00000000000E+00 0. -1.
         -1    1    1    2    0  501 -0.10795365005E+02 -0.17042118595E+02  0.18544716317E+03  0.18654121271E+03  0.00000000000E+00 0.  1.
</event>
<event>
 4    1  0.6824761E+001  0.2578007E+02  0.7546771E-02  0.1460263E+00
          2   -1    0    0  502    0  0.00000000000E+00  0.00000000000E+00  0.34824594531E+03  0.34824594531E+03  0.00000000000E+00 0. -1.
         -2   -1    0    0    0  501 -0.00000000000E+00 -0.00000000000E+00 -0.19110060587E+01  0.19110060587E+01  0.00000000000E+00 0.  1.
          1    1    1    2  502    0  0.64731731262E+00 -0.25771944110E+02  0.16677214846E+03  0.16875296034E+03  0.00000000000E+00 0.  1.
         -1    1    1    2    0  501 -0.64731731262E+00  0.25771944110E+02  0.17956279079E+03  0.18140399103E+03  0.00000000000E+00 0. -1.
</event>
<event>
 4    1  0.6824761E+001  0.2119512E+02  0.7546771E-02  0.1516497E+00
          2   -1    0    0  502    0  0.00000000000E+00  0.00000000000E+00  0.14760253547E+04  0.14760253547E+04  0.00000000000E+00 0.  1.
         -2   -1    0    0    0  501 -0.00000000000E+00 -0.00000000000E+00 -0.26560440087E+01  0.26560440087E+01  0.00000000000E+00 0. -1.
          1    1    1    2  502    0 -0.15097284959E+02 -0.14876325166E+02  0.40992525988E+02  0.46147808728E+02  0.00000000000E+00 0. -1.
         -1    1    1    2    0  501  0.15097284959E+02  0.14876325166E+02  0.14323767847E+04  0.14325335899E+04  0.00000000000E+00 0.  1.
</event>
<event>
 4    1  0.6824761E+001  0.2063777E+02  0.7546771E-02  0.1524500E+00
          2   -1    0    0  502    0  0.00000000000E+00  0.00000000000E+00  0.58337010282E+03  0.58337010282E+03  0.00000000000E+00 0. -1.
         -2   -1    0    0    0  501 -0.00000000000E+00 -0.00000000000E+00 -0.73399194108E+00  0.73399194108E+00  0.00000000000E+00 0.  1.
          1    1    1    2  502    0  0.20564982754E+02 -0.17318129226E+01  0.31258848142E+03  0.31326901603E+03  0.00000000000E+00 0.  1.
         -1    1    1    2    0  501 -0.20564982754E+02  0.17318129226E+01  0.27004762946E+03  0.27083507873E+03  0.00000000000E+00 0. -1.
</event>
<event>
 4    1  0.6824761E+001  0.2050655E+02  0.7546771E-02  0.1526428E+00
          2   -1    0    0  502    0  0.00000000000E+00  0.00000000000E+00  0.11581350470E+04  0.11581350470E+04  0.00000000000E+00 0. -1.
         -2   -1    0    0    0  501 -0.00000000000E+00 -0.00000000000E+00 -0.38272423196E+00  0.38272423196E+00  0.00000000000E+00 0.  1.
          1    1    1    2  502    0  0.11222318943E+02  0.17163279519E+02  0.71004426785E+03  0.71034032753E+03  0.00000000000E+00 0. -1.
         -1    1    1    2    0  501 -0.11222318943E+02 -0.17163279519E+02  0.44770805492E+03  0.44817744371E+03  0.00000000000E+00 0.  1.
</event>
<event>
 4    1  0.6824761E+001  0.6394870E+02  0.7546771E-02  0.1246976E+00
          2   -1    0    0  502    0  0.00000000000E+00  0.00000000000E+00  0.11328394920E+04  0.11328394920E+04  0.00000000000E+00 0.  1.
         -2   -1    0    0    0  501 -0.00000000000E+00 -0.00000000000E+00 -0.36108305293E+01  0.36108305293E+01  0.00000000000E+00 0. -1.
          1    1    1    2  502    0  0.58111008159E+02  0.26693577619E+02  0.55548849268E+03  0.55915731405E+03  0.00000000000E+00 0. -1.
         -1    1    1    2    0  501 -0.58111008159E+02 -0.26693577619E+02  0.57374016879E+03  0.57729300848E+03  0.00000000000E+00 0.  1.
</event>
<event>
 4    1  0.6824761E+001  0.2350967E+02  0.7546771E-02  0.1486195E+00
          2   -1    0    0  502    0  0.00000000000E+00  0.00000000000E+00  0.58506264173E+00  0.58506264173E+00  0.00000000000E+00 0.  1.
         -2   -1    0    0    0  501 -0.00000000000E+00 -0.00000000000E+00 -0.95714010228E+03  0.95714010228E+03  0.00000000000E+00 0. -1.
          1    1    1    2  502    0 -0.22522516148E+02  0.67409840803E+01 -0.42366946021E+03  0.42432124165E+03  0.00000000000E+00 0.  1.
         -1    1    1    2    0  501  0.22522516148E+02 -0.67409840803E+01 -0.53288557943E+03  0.53340392327E+03  0.00000000000E+00 0. -1.
</event>
<event>
 4    1  0.6824761E+001  0.2098884E+02  0.7546771E-02  0.1519424E+00
          2   -1    0    0  502    0  0.00000000000E+00  0.00000000000E+00  0.61861250420E+01  0.61861250420E+01  0.00000000000E+00 0. -1.
         -2   -1    0    0    0  501 -0.00000000000E+00 -0.00000000000E+00 -0.82897803134E+02  0.82897803134E+02  0.00000000000E+00 0.  1.
          1    1    1    2  502    0  0.19220508054E+02 -0.84322868422E+01 -0.55078752853E+02  0.58942348164E+02  0.00000000000E+00 0.  1.
         -1    1    1    2    0  501 -0.19220508054E+02  0.84322868422E+01 -0.21632925239E+02  0.30141580012E+02  0.00000000000E+00 0. -1.
</event>
<event>
 4    1  0.6824761E+001  0.5981298E+02  0.7546771E-02  0.1260469E+00
          2   -1    0    0  502    0  0.00000000000E+00  0.00000000000E+00  0.55807196792E+03  0.55807196792E+03  0.00000000000E+00 0. -1.
         -2   -1    0    0    0  501 -0.00000000000E+00 -0.00000000000E+00 -0.16681255241E+02  0.16681255241E+02  0.00000000000E+00 0.  1.
          1    1    1    2  502    0 -0.39526493473E+02  0.44891527040E+02  0.49618961975E+03  0.49978168398E+03  0.00000000000E+00 0. -1.
         -1    1    1    2    0  501  0.39526493473E+02 -0.44891527040E+02  0.45201092926E+02  0.74971539186E+02  0.00000000000E+00 0.  1.
</event>
<event>
 4    1  0.6824761E+001  0.5276802E+02  0.7546771E-02  0.1286598E+00
          2   -1    0    0  502    0  0.00000000000E+00  0.00000000000E+00  0.46561380622E+01  0.46561380622E+01  0.00000000000E+00 0.  1.
         -2   -1    0    0    0  501 -0.00000000000E+00 -0.00000000000E+00 -0.61260714573E+03  0.61260714573E+03  0.00000000000E+00 0. -1.
          1    1    1    2  502    0  0.11210683551E+01  0.52756109600E+02 -0.25635062231E+03  0.26172524803E+03  0.00000000000E+00 0.  1.
         -1    1    1    2    0  501 -0.11210683551E+01 -0.52756109600E+02 -0.35160038536E+03  0.35553803577E+03  0.00000000000E+00 0. -1.
</event>
<event>
 4    1  0.6824761E+001  0.4981261E+02  0.7546771E-02  0.1298987E+00
          2   -1    0    0  502    0  0.00000000000E+00  0.00000000000E+00  0.20355305052E+03  0.20355305052E+03  0.00000000000E+00 0. -1.
         -2   -1    0    0    0  501 -0.00000000000E+00 -0.00000000000E+00 -0.33272955162E+02  0.33272955162E+02  0.00000000000E+00 0.  1.
          1    1    1    2  502    0  0.31662193603E+02  0.38455191908E+02 -0.91183882019E+01  0.50640312912E+02  0.00000000000E+00 0.  1.
         -1    1    1    2    0  501 -0.31662193603E+02 -0.38455191908E+02  0.17939848356E+03  0.18618569277E+03  0.00000000000E+00 0. -1.
</event>
<event>
 4    1  0.6824761E+001  0.2366260E+02  0.7546771E-02  0.1484341E+00
          2   -1    0    0  502    0  0.00000000000E+00  0.00000000000E+00  0.34688555232E+02  0.34688555232E+02  0.00000000000E+00 0.  1.
         -2   -1    0    0    0  501 -0.00000000000E+00 -0.00000000000E+00 -0.25079601117E+02  0.25079601117E+02  0.00000000000E+00 0. -1.
          1    1    1    2  502    0  0.89944585867E+01 -0.21886485400E+02 -0.13036019404E+02  0.27015853315E+02  0.00000000000E+00 0. -1.
         -1    1    1    2    0  501 -0.89944585867E+01  0.21886485400E+02  0.22644973519E+02  0.32752303035E+02  0.00000000000E+00 0.  1.
</event>
<event>
 4    1  0.6824761E+001  0.2489466E+02  0.7546771E-02  0.1469985E+00
          2   -1    0    0  502    0  0.00000000000E+00  0.00000000000E+00  0.21592502907E+04  0.21592502907E+04  0.00000000000E+00 0. -1.
         -2   -1    0    0    0  501 -0.00000000000E+00 -0.00000000000E+00 -0.30459949339E+00  0.30459949339E+00  0.00000000000E+00 0.  1.
          1    1    1    2  502    0 -0.17300302462E+02  0.17900943807E+02  0.82005827102E+03  0.82043604999E+03  0.00000000000E+00 0.  1.
         -1    1    1    2    0  501  0.17300302462E+02 -0.17900943807E+02  0.13388874202E+04  0.13391188402E+04  0.00000000000E+00 0. -1.
</event>
<event>
 4    1  0.6824761E+001  0.2222370E+02  0.7546771E-02  0.1502483E+00
          2   -1    0    0  502    0  0.00000000000E+00  0.00000000000E+00  0.85870694248E+02  0.85870694248E+02  0.00000000000E+00 0.  1.
         -2   -1    0    0    0  501 -0.00000000000E+00 -0.00000000000E+00 -0.67951311858E+01  0.67951311858E+01  0.00000000000E+00 0. -1.
          1    1    1    2  502    0 -0.11473451515E+02  0.19032935053E+02  0.57694871794E+02  0.61827105203E+02  0.00000000000E+00 0.  1.
         -1    1    1    2    0  501  0.11473451515E+02 -0.19032935053E+02  0.21380691268E+02  0.30838720231E+02  0.00000000000E+00 0. -1.
</event>
<event>
 4    1  0.6824761E+001  0.3243916E+02  0.7546771E-02  0.1399520E+00
          2   -1    0    0  502    0  0.00000000000E+00  0.00000000000E+00  0.29093483171E+02  0.29093483171E+02  0.00000000000E+00 0. -1.
         -2   -1    0    0    0  501 -0.00000000000E+00 -0.00000000000E+00 -0.36553371752E+02  0.36553371752E+02  0.00000000000E+00 0.  1.
          1    1    1    2  502    0  0.31131224136E+02 -0.91184287383E+01 -0.70932943760E+01  0.33205627293E+02  0.00000000000E+00 0.  1.
         -1    1    1    2    0  501 -0.31131224136E+02  0.91184287383E+01 -0.36659420460E+00  0.32441227630E+02  0.00000000000E+00 0. -1.
</event>
<event>
 4    1  0.6824761E+001  0.2148955E+02  0.7546771E-02  0.1512389E+00
          2   -1    0    0  502    0  0.00000000000E+00  0.00000000000E+00  0.78644767055E+00  0.78644767055E+00  0.00000000000E+00 0.  1.
         -2   -1    0    0    0  501 -0.00000000000E+00 -0.00000000000E+00 -0.13610496513E+04  0.13610496513E+04  0.00000000000E+00 0. -1.
          1    1    1    2  502    0  0.16785473872E+02 -0.13418216567E+02 -0.11935680062E+04  0.11937614444E+04  0.00000000000E+00 0. -1.
         -1    1    1    2    0  501 -0.16785473872E+02  0.13418216567E+02 -0.16669519740E+03  0.16807465456E+03  0.00000000000E+00 0.  1.
</event>
<event>
 4    1  0.6824761E+001  0.2921187E+02  0.7546771E-02  0.1426571E+00
          2   -1    0    0  502    0  0.00000000000E+00  0.00000000000E+00  0.23993069873E+02  0.23993069873E+02  0.00000000000E+00 0. -1.
         -2   -1    0    0    0  501 -0.00000000000E+00 -0.00000000000E+00 -0.99433147434E+02  0.99433147434E+02  0.00000000000E+00 0.  1.
          1    1    1    2  502    0 -0.22698289780E+02 -0.18388062830E+02  0.11739629638E+02  0.31482568472E+02  0.00000000000E+00 0. -1.
         -1    1    1    2    0  501  0.22698289780E+02  0.18388062830E+02 -0.87179707200E+02  0.91943648835E+02  0.00000000000E+00 0.  1.
</event>
<event>
 4    1  0.6824761E+001  0.2028161E+02  0.7546771E-02  0.1529773E+00
          2   -1    0    0  502    0  0.00000000000E+00  0.00000000000E+00  0.70502528723E+02  0.70502528723E+02  0.00000000000E+00 0. -1.
         -2   -1    0    0    0  501 -0.00000000000E+00 -0.00000000000E+00 -0.59222998829E+01  0.59222998829E+01  0.00000000000E+00 0.  1.
          1    1    1    2  502    0  0.96623202904E+00 -0.20258579632E+02  0.36944086372E+02  0.42145096642E+02  0.00000000000E+00 0.  1.
         -1    1    1    2    0  501 -0.96623202904E+00  0.20258579632E+02  0.27636142468E+02  0.34279731964E+02  0.00000000000E+00 0. -1.
</event>
<event>
 4    1  0.6824761E+001  0.2016436E+02  0.7546771E-02  0.1531538E+00
          2   -1    0    0  502    0  0.00000000000E+00  0.00000000000E+00  0.94543794793E+01  0.94543794793E+01  0.00000000000E+00 0.  1.
         -2   -1    0    0    0  501 -0.00000000000E+00 -0.00000000000E+00 -0.43160771654E+02  0.43160771654E+02  0.00000000000E+00 0. -1.
          1    1    1    2  502    0  0.17065989521E+02 -0.10740271532E+02 -0.18425121866E+02  0.27314584871E+02  0.00000000000E+00 0. -1.
         -1    1    1    2    0  501 -0.17065989521E+02  0.10740271532E+02 -0.15281270309E+02  0.25300566262E+02  0.00000000000E+00 0.  1.
</event>
<event>
 4    1  0.6824761E+001  0.3409202E+02  0.7546771E-02  0.1387061E+00
          2   -1    0    0  502    0  0.00000000000E+00  0.00000000000E+00  0.67567810057E+02  0.67567810057E+02  0.00000000000E+00 0.  1.
         -2   -1    0    0    0  501 -0.00000000000E+00 -0.00000000000E+00 -0.17363616760E+02  0.17363616760E+02  0.00000000000E+00 0. -1.
          1    1    1    2  502    0  0.15793635164E+02  0.30213027262E+02  0.20998476935E+02  0.40040004516E+02  0.00000000000E+00 0. -1.
         -1    1    1    2    0  501 -0.15793635164E+02 -0.30213027262E+02  0.29205716362E+02  0.44891422301E+02  0.00000000000E+00 0.  1.
</event>
<event>
 4    1  0.6824761E+001  0.2325504E+02  0.7546771E-02  0.1489320E+00
          2   -1    0    0  502    0  0.00000000000E+00  0.00000000000E+00  0.94879697783E+03  0.94879697783E+03  0.00000000000E+00 0.  1.
         -2   -1    0    0    0  501 -0.00000000000E+00 -0.00000000000E+00 -0.57247317961E+00  0.57247317961E+00  0.00000000000E+00 0. -1.
          1    1    1    2  502    0 -0.20582849960E+02  0.10823267372E+02  0.50542810130E+03  0.50596280734E+03  0.00000000000E+00 0.  1.
         -1    1    1    2    0  501  0.20582849960E+02 -0.10823267372E+02  0.44279640336E+03  0.44340664368E+03  0.00000000000E+00 0. -1.
</event>
<event>
 4    1  0.6824761E+001  0.2364462E+02  0.7546771E-02  0.1484558E+00
          2   -1    0    0  502    0  0.00000000000E+00  0.00000000000E+00  0.14259900983E+03  0.14259900983E+03  0.00000000000E+00 0. -1.
         -2   -1    0    0    0  501 -0.00000000000E+00 -0.00000000000E+00 -0.40866383548E+01  0.40866383548E+01  0.00000000000E+00 0.  1.
          1    1    1    2  502    0  0.87986907510E+01  0.21946552599E+02  0.54470903733E+02  0.59381373203E+02  0.00000000000E+00 0.  1.
         -1    1    1    2    0  501 -0.87986907510E+01 -0.21946552599E+02  0.84041467743E+02  0.87304274983E+02  0.00000000000E+00 0. -1.
</event>
<event>
 4    1  0.6824761E+001  0.2611050E+02  0.7546771E-02  0.1456754E+00
          2   -1    0    0  502    0  0.00000000000E+00  0.00000000000E+00  0.11762223123E+03  0.11762223123E+03  0.00000000000E+00 0. -1.
         -2   -1    0    0    0  501 -0.00000000000E+00 -0.00000000000E+00 -0.12517665041E+02  0.12517665041E+02  0.00000000000E+00 0.  1.
          1    1    1    2  502    0  0.90230065165E+01  0.24501911921E+02  0.48705788072E+01  0.26560889901E+02  0.00000000000E+00 0.  1.
         -1    1    1    2    0  501 -0.90230065165E+01 -0.24501911921E+02  0.10023398738E+03  0.10357900637E+03  0.00000000000E+00 0. -1.
</event>
<event>
 4    1  0.6824761E+001  0.2694784E+02  0.7546771E-02  0.1448133E+00
          2   -1    0    0  502    0  0.00000000000E+00  0.00000000000E+00  0.10991290726E+04  0.10991290726E+04  0.00000000000E+00 0. -1.
         -2   -1    0    0    0  501 -0.00000000000E+00 -0.00000000000E+00 -0.77608669105E+00  0.77608669105E+00  0.00000000000E+00 0.  1.
          1    1    1    2  502    0  0.20787804214E+02 -0.17147985773E+02  0.33711476525E+03  0.33819011099E+03  0.00000000000E+00 0.  1.
         -1    1    1    2    0  501 -0.20787804214E+02  0.17147985773E+02  0.76123822064E+03  0.76171504828E+03  0.00000000000E+00 0. -1.
</event>
<event>
 4    1  0.6824761E+001  0.3095876E+02  0.7546771E-02  0.1411444E+00
          2   -1    0    0  502    0  0.00000000000E+00  0.00000000000E+00  0.78634583216E+03  0.78634583216E+03  0.00000000000E+00 0. -1.
         -2   -1    0    0    0  501 -0.00000000000E+00 -0.00000000000E+00 -0.19549302395E+01  0.19549302395E+01  0.00000000000E+00 0.  1.
          1    1    1    2  502    0  0.15215040020E+02 -0.26961964036E+02  0.63405105131E+03  0.63480641192E+03  0.00000000000E+00 0. -1.
         -1    1    1    2    0  501 -0.15215040020E+02  0.26961964036E+02  0.15033985061E+03  0.15349435048E+03  0.00000000000E+00 0.  1.
</event>
<event>
 4    1  0.6824761E+001  0.2110039E+02  0.7546771E-02  0.1517836E+00
          2   -1    0    0  502    0  0.00000000000E+00  0.00000000000E+00  0.35188293290E+03  0.35188293290E+03  0.00000000000E+00 0.  1.
         -2   -1    0    0    0  501 -0.00000000000E+00 -0.00000000000E+00 -0.13290231295E+01  0.13290231295E+01  0.00000000000E+00 0. -1.
          1    1    1    2  502    0  0.16817860157E+02  0.12743076278E+02  0.21395769500E+03  0.21499563173E+03  0.00000000000E+00 0.  1.
         -1    1    1    2    0  501 -0.16817860157E+02 -0.12743076278E+02  0.13659621477E+03  0.13821632430E+03  0.00000000000E+00 0. -1.
</event>
<event>
 4    1  0.6824761E+001  0.2030996E+02  0.7546771E-02  0.1529349E+00
          2   -1    0    0  502    0  0.00000000000E+00  0.00000000000E+00  0.11560460886E+04  0.11560460886E+04  0.00000000000E+00 0. -1.
         -2   -1    0    0    0  501 -0.00000000000E+00 -0.00000000000E+00 -0.55918641190E+00  0.55918641190E+00  0.00000000000E+00 0.  1.
          1    1    1    2  502    0 -0.42969636067E+01 -0.19850199143E+02  0.22984562773E+03  0.23074121194E+03  0.00000000000E+00 0.  1.
         -1    1    1    2    0  501  0.42969636067E+01  0.19850199143E+02  0.92564127446E+03  0.92586406307E+03  0.00000000000E+00 0. -1.
</event>
<event>
 4    1  0.6824761E+001  0.3234467E+02  0.7546771E-02  0.1400258E+00
          2   -1    0    0  502    0  0.00000000000E+00  0.00000000000E+00  0.89696841363E+02  0.89696841363E+02  0.00000000000E+00 0.  1.
         -2   -1    0    0    0  501 -0.00000000000E+00 -0.00000000000E+00 -0.18546328107E+02  0.18546328107E+02  0.00000000000E+00 0. -1.
          1    1    1    2  502    0  0.94295646617E+01  0.30939632087E+02  0.26047549872E+01  0.32449380147E+02  0.00000000000E+00 0. -1.
         -1    1    1    2    0  501 -0.94295646617E+01 -0.30939632087E+02  0.68545758268E+02  0.75793789323E+02  0.00000000000E+00 0.  1.
</event>
<event>
 4    1  0.6824761E+001  0.3180537E+02  0.7546771E-02  0.1404530E+00
          2   -1    0    0  502    0  0.00000000000E+00  0.00000000000E+00  0.11599478261E+03  0.11599478261E+03  0.00000000000E+00 0. -1.
         -2   -1    0    0    0  501 -0.00000000000E+00 -0.00000000000E+00 -0.97445225695E+01  0.97445225695E+01  0.00000000000E+00 0.  1.
          1    1    1    2  502    0 -0.31476021091E+02 -0.45652904908E+01  0.32748824933E+02  0.45651586122E+02  0.00000000000E+00 0. -1.
         -1    1    1    2    0  501  0.31476021091E+02  0.45652904908E+01  0.73501435104E+02  0.80087719054E+02  0.00000000000E+00 0.  1.
</event>
<event>
 4    1  0.6824761E+001  0.5039482E+02  0.7546771E-02  0.1296470E+00
          2   -1    0    0  502    0  0.00000000000E+00  0.00000000000E+00  0.20758785295E+03  0.20758785295E+03  0.00000000000E+00 0. -1.
         -2   -1    0    0    0  501 -0.00000000000E+00 -0.00000000000E+00 -0.14057831583E+02  0.14057831583E+02  0.00000000000E+00 0.  1.
          1    1    1    2  502    0  0.49124598864E+02 -0.11243282349E+02  0.56848001125E+02  0.75969288817E+02  0.00000000000E+00 0.  1.
         -1    1    1    2    0  501 -0.49124598864E+02  0.11243282349E+02  0.13668202025E+03  0.14567639572E+03  0.00000000000E+00 0. -1.
</event>
<event>
 4    1  0.6824761E+001  0.2125952E+02  0.7546771E-02  0.1515592E+00
          2   -1    0    0  502    0  0.00000000000E+00  0.00000000000E+00  0.10887134371E+03  0.10887134371E+03  0.00000000000E+00 0.  1.
         -2   -1    0    0    0  501 -0.00000000000E+00 -0.00000000000E+00 -0.43241280190E+01  0.43241280190E+01  0.00000000000E+00 0. -1.
          1    1    1    2  502    0  0.33925273648E+01 -0.20987089755E+02  0.63585790295E+02  0.67045655383E+02  0.00000000000E+00 0. -1.
         -1    1    1    2    0  501 -0.33925273648E+01  0.20987089755E+02  0.40961425395E+02  0.46149816345E+02  0.00000000000E+00 0.  1.
</event>
<event>
 4    1  0.6824761E+001  0.2618292E+02  0.7546771E-02  0.1455993E+00
          2   -1    0    0  502    0  0.00000000000E+00  0.00000000000E+00  0.17820533242E+03  0.17820533242E+03  0.00000000000E+00 0. -1.
         -2   -1    0    0    0  501 -0.00000000000E+00 -0.00000000000E+00 -0.40485211586E+01  0.40485211586E+01  0.00000000000E+00 0.  1.
          1    1    1    2  502    0  0.19550644103E+02 -0.17416009856E+02  0.10741247572E+03  0.11055760952E+03  0.00000000000E+00 0. -1.
         -1    1    1    2    0  501 -0.19550644103E+02  0.17416009856E+02  0.66744335543E+02  0.71696244053E+02  0.00000000000E+00 0.  1.
</event>
<event>
 4    1  0.6824761E+001  0.2432873E+02  0.7546771E-02  0.1476455E+00
          2   -1    0    0  502    0  0.00000000000E+00  0.00000000000E+00  0.66896263945E+01  0.66896263945E+01  0.00000000000E+00 0. -1.
         -2   -1    0    0    0  501 -0.00000000000E+00 -0.00000000000E+00 -0.89896646581E+02  0.89896646581E+02  0.00000000000E+00 0.  1.
          1    1    1    2  502    0 -0.21524905112E+02 -0.11338681180E+02 -0.47669397188E+02  0.53518769224E+02  0.00000000000E+00 0. -1.
         -1    1    1    2    0  501  0.21524905112E+02  0.11338681180E+02 -0.35537622999E+02  0.43067503752E+02  0.00000000000E+00 0.  1.
</event>
<event>
 4    1  0.6824761E+001  0.2127925E+02  0.7546771E-02  0.1515315E+00
          2   -1    0    0  502    0  0.00000000000E+00  0.00000000000E+00  0.15878776035E+03  0.15878776035E+03  0.00000000000E+00 0. -1.
         -2   -1    0    0    0  501 -0.00000000000E+00 -0.00000000000E+00 -0.28516987415E+01  0.28516987415E+01  0.00000000000E+00 0.  1.
          1    1    1    2  502    0 -0.21269377658E+02 -0.64825377738E+00  0.77624158916E+02  0.80487991069E+02  0.00000000000E+00 0.  1.
         -1    1    1    2    0  501  0.21269377658E+02  0.64825377738E+00  0.78311902695E+02  0.81151468025E+02  0.00000000000E+00 0. -1.
</event>
<event>
 4    1  0.6824761E+001  0.2118624E+02  0.7546771E-02  0.1516622E+00
          2   -1    0    0  502    0  0.00000000000E+00  0.00000000000E+00  0.99642903725E+03  0.99642903725E+03  0.00000000000E+00 0.  1.
         -2   -1    0    0    0  501 -0.00000000000E+00 -0.00000000000E+00 -0.49489955391E+00  0.49489955391E+00  0.00000000000E+00 0. -1.
          1    1    1    2  502    0  0.18887706407E+02  0.95974564408E+01  0.34860757124E+03  0.34925076285E+03  0.00000000000E+00 0.  1.
         -1    1    1    2    0  501 -0.18887706407E+02 -0.95974564408E+01  0.64732656646E+03  0.64767317396E+03  0.00000000000E+00 0. -1.
</event>
<event>
 4    1  0.6824761E+001  0.3254398E+02  0.7546771E-02  0.1398704E+00
          2   -1    0    0  502    0  0.00000000000E+00  0.00000000000E+00  0.13032957039E+03  0.13032957039E+03  0.00000000000E+00 0. -1.
         -2   -1    0    0    0  501 -0.00000000000E+00 -0.00000000000E+00 -0.88562429608E+01  0.88562429608E+01  0.00000000000E+00 0.  1.
          1    1    1    2  502    0  0.14121500278E+02 -0.29320537015E+02  0.40758575713E+02  0.52157186994E+02  0.00000000000E+00 0.  1.
         -1    1    1    2    0  501 -0.14121500278E+02  0.29320537015E+02  0.80714751719E+02  0.87028626360E+02  0.00000000000E+00 0. -1.
</event>
<event>
 4    1  0.6824761E+001  0.2074717E+02  0.7546771E-02  0.1522905E+00
          2   -1    0    0  502    0  0.00000000000E+00  0.00000000000E+00  0.31869806571E+03  0.31869806571E+03  0.00000000000E+00 0. -1.
         -2   -1    0    0    0  501 -0.00000000000E+00 -0.00000000000E+00 -0.18314111707E+01  0.18314111707E+01  0.00000000000E+00 0.  1.
          1    1    1    2  502    0  0.13764682208E+02 -0.15523488920E+02  0.24054708327E+03  0.24144014674E+03  0.00000000000E+00 0. -1.
         -1    1    1    2    0  501 -0.13764682208E+02  0.15523488920E+02  0.76319571267E+02  0.79089330145E+02  0.00000000000E+00 0.  1.
</event>
<event>
 4    1  0.6824761E+001  0.2125045E+02  0.7546771E-02  0.1515719E+00
          2   -1    0    0  502    0  0.00000000000E+00  0.00000000000E+00  0.17492452833E+01  0.17492452833E+01  0.00000000000E+00 0.  1.
         -2   -1    0    0    0  501 -0.00000000000E+00 -0.00000000000E+00 -0.25815819824E+03  0.25815819824E+03  0.00000000000E+00 0. -1.
          1    1    1    2  502    0  0.12688493863E+02 -0.17046515042E+02 -0.12807345327E+03  0.12982446220E+03  0.00000000000E+00 0.  1.
         -1    1    1    2    0  501 -0.12688493863E+02  0.17046515042E+02 -0.12833549968E+03  0.13008298132E+03  0.00000000000E+00 0. -1.
</event>
<event>
 4    1  0.6824761E+001  0.3774916E+02  0.7546771E-02  0.1362206E+00
          2   -1    0    0  502    0  0.00000000000E+00  0.00000000000E+00  0.11843700981E+02  0.11843700981E+02  0.00000000000E+00 0.  1.
         -2   -1    0    0    0  501 -0.00000000000E+00 -0.00000000000E+00 -0.12633413467E+03  0.12633413467E+03  0.00000000000E+00 0. -1.
          1    1    1    2  502    0  0.36512889873E+02  0.95816401189E+01 -0.72323147204E+02  0.81582084895E+02  0.00000000000E+00 0.  1.
         -1    1    1    2    0  501 -0.36512889873E+02 -0.95816401189E+01 -0.42167286489E+02  0.56595750760E+02  0.00000000000E+00 0. -1.
</event>
<event>
 4    1  0.6824761E+001  0.2656511E+02  0.7546771E-02  0.1452026E+00
          2   -1    0    0  502    0  0.00000000000E+00  0.00000000000E+00  0.25092298451E+04  0.25092298451E+04  0.00000000000E+00 0.  1.
         -2   -1    0    0    0  501 -0.00000000000E+00 -0.00000000000E+00 -0.35108287100E+00  0.35108287100E+00  0.00000000000E+00 0. -1.
          1    1    1    2  502    0 -0.20008165584E+02 -0.17475076619E+02  0.69478998192E+03  0.69529765134E+03  0.00000000000E+00 0. -1.
         -1    1    1    2    0  501  0.20008165584E+02  0.17475076619E+02  0.18140887803E+04  0.18142832766E+04  0.00000000000E+00 0.  1.
</event>
<event>
 4    1  0.6824761E+001  0.3772417E+02  0.7546771E-02  0.1362364E+00
          2   -1    0    0  502    0  0.00000000000E+00  0.00000000000E+00  0.14886148410E+03  0.14886148410E+03  0.00000000000E+00 0.  1.
         -2   -1    0    0    0  501 -0.00000000000E+00 -0.00000000000E+00 -0.96458293041E+01  0.96458293041E+01  0.00000000000E+00 0. -1.
          1    1    1    2  502    0  0.29552930292E+02 -0.23446482896E+02  0.62131118605E+02  0.72686925565E+02  0.00000000000E+00 0. -1.
         -1    1    1    2    0  501 -0.29552930292E+02  0.23446482896E+02  0.77084536189E+02  0.85820387837E+02  0.00000000000E+00 0.  1.
</event>
<event>
 4    1  0.6824761E+001  0.3121296E+02  0.7546771E-02  0.1409341E+00
          2   -1    0    0  502    0  0.00000000000E+00  0.00000000000E+00  0.30136764803E+01  0.30136764803E+01  0.00000000000E+00 0.  1.
         -2   -1    0    0    0  501 -0.00000000000E+00 -0.00000000000E+00 -0.32946399195E+03  0.32946399195E+03  0.00000000000E+00 0. -1.
          1    1    1    2  502    0  0.33670147100E+01 -0.31030822817E+02 -0.18600808329E+03  0.18860873735E+03  0.00000000000E+00 0.  1.
         -1    1    1    2    0  501 -0.33670147100E+01  0.31030822817E+02 -0.14044223218E+03  0.14386893109E+03  0.00000000000E+00 0. -1.
</event>
<event>
 4    1  0.6824761E+001  0.6771260E+02  0.7546771E-02  0.1235663E+00
          2   -1    0    0  502    0  0.00000000000E+00  0.00000000000E+00  0.16447498678E+02  0.16447498678E+02  0.00000000000E+00 0.  1.
         -2   -1    0    0    0  501 -0.00000000000E+00 -0.00000000000E+00 -0.34556670732E+03  0.34556670732E+03  0.00000000000E+00 0. -1.
          1    1    1    2  502    0 -0.60581248849E+02 -0.30247457460E+02 -0.84976369418E+02  0.10865532548E+03  0.00000000000E+00 0. -1.
         -1    1    1    2    0  501  0.60581248849E+02  0.30247457460E+02 -0.24414283922E+03  0.25335888052E+03  0.00000000000E+00 0.  1.
</event>
<event>
 4    1  0.6824761E+001  0.3590860E+02  0.7546771E-02  0.1374286E+00
          2   -1    0    0  502    0  0.00000000000E+00  0.00000000000E+00  0.13540162466E+04  0.13540162466E+04  0.00000000000E+00 0.  1.
         -2   -1    0    0    0  501 -0.00000000000E+00 -0.00000000000E+00 -0.96955710240E+00  0.96955710240E+00  0.00000000000E+00 0. -1.
          1    1    1    2  502    0  0.35456182231E+02 -0.56821596419E+01  0.76691314268E+03  0.76775334334E+03  0.00000000000E+00 0. -1.
         -1    1    1    2    0  501 -0.35456182231E+02  0.56821596419E+01  0.58613354679E+03  0.58723246033E+03  0.00000000000E+00 0.  1.
</event>
<event>
 4    1  0.6824761E+001  0.2306195E+02  0.7546771E-02  0.1491722E+00
          2   -1    0    0  502    0  0.00000000000E+00  0.00000000000E+00  0.20792193362E+03  0.20792193362E+03  0.00000000000E+00 0. -1.
         -2   -1    0    0    0  501 -0.00000000000E+00 -0.00000000000E+00 -0.25925373254E+01  0.25925373254E+01  0.00000000000E+00 0.  1.
          1    1    1    2  502    0  0.10089444014E+01  0.23039867601E+02  0.11482267447E+03  0.11711575488E+03  0.00000000000E+00 0. -1.
         -1    1    1    2    0  501 -0.10089444014E+01 -0.23039867601E+02  0.90506721823E+02  0.93398716067E+02  0.00000000000E+00 0.  1.
</event>
<event>
 4    1  0.6824761E+001  0.2840783E+02  0.7546771E-02  0.1433957E+00
          2   -1    0    0  502    0  0.00000000000E+00  0.00000000000E+00  0.23109617389E+02  0.23109617389E+02  0.00000000000E+00 0. -1.
         -2   -1    0    0    0  501 -0.00000000000E+00 -0.00000000000E+00 -0.64800981212E+02  0.64800981212E+02  0.00000000000E+00 0.  1.
          1    1    1    2  502    0  0.48986269942E+00 -0.28403602183E+02 -0.50693501616E+02  0.58110547137E+02  0.00000000000E+00 0.  1.
         -1    1    1    2    0  501 -0.48986269942E+00  0.28403602183E+02  0.90021377924E+01  0.29800051464E+02  0.00000000000E+00 0. -1.
</event>
<event>
 4    1  0.6824761E+001  0.2969866E+02  0.7546771E-02  0.1422233E+00
          2   -1    0    0  502    0  0.00000000000E+00  0.00000000000E+00  0.11878795128E+03  0.11878795128E+03  0.00000000000E+00 0. -1.
         -2   -1    0    0    0  501 -0.00000000000E+00 -0.00000000000E+00 -0.81729734329E+01  0.81729734329E+01  0.00000000000E+00 0.  1.
          1    1    1    2  502    0  0.11706831829E+02 -0.27293967617E+02  0.36104511052E+02  0.46749826717E+02  0.00000000000E+00 0.  1.
         -1    1    1    2    0  501 -0.11706831829E+02  0.27293967617E+02  0.74510466797E+02  0.80211097998E+02  0.00000000000E+00 0. -1.
</event>
<event>
 4    1  0.6824761E+001  0.2237634E+02  0.7546771E-02  0.1500482E+00
          2   -1    0    0  502    0  0.00000000000E+00  0.00000000000E+00  0.18651595850E+03  0.18651595850E+03  0.00000000000E+00 0.  1.
         -2   -1    0    0    0  501 -0.00000000000E+00 -0.00000000000E+00 -0.32338742901E+01  0.32338742901E+01  0.00000000000E+00 0. -1.
          1    1    1    2  502    0 -0.21918863135E+02 -0.45015705597E+01  0.52536522517E+02  0.57103300227E+02  0.00000000000E+00 0. -1.
         -1    1    1    2    0  501  0.21918863135E+02  0.45015705597E+01  0.13074556169E+03  0.13264653257E+03  0.00000000000E+00 0.  1.
</event>
<event>
 4    1  0.6824761E+001  0.3205906E+02  0.7546771E-02  0.1402508E+00
          2   -1    0    0  502    0  0.00000000000E+00  0.00000000000E+00  0.30594196317E+01  0.30594196317E+01  0.00000000000E+00 0.  1.
         -2   -1    0    0    0  501 -0.00000000000E+00 -0.00000000000E+00 -0.33636166546E+03  0.33636166546E+03  0.00000000000E+00 0. -1.
          1    1    1    2  502    0 -0.79124413125E+01  0.31067287421E+02 -0.16064612772E+03  0.16381380109E+03  0.00000000000E+00 0. -1.
         -1    1    1    2    0  501  0.79124413125E+01 -0.31067287421E+02 -0.17265611811E+03  0.17560728401E+03  0.00000000000E+00 0.  1.
</event>
<event>
 4    1  0.6824761E+001  0.2476679E+02  0.7546771E-02  0.1471429E+00
          2   -1    0    0  502    0  0.00000000000E+00  0.00000000000E+00  0.66398256814E+01  0.66398256814E+01  0.00000000000E+00 0. -1.
         -2   -1    0    0    0  501 -0.00000000000E+00 -0.00000000000E+00 -0.13769183288E+03  0.13769183288E+03  0.00000000000E+00 0.  1.
          1    1    1    2  502    0  0.20377598315E+02  0.14076478224E+02 -0.10692392419E+03  0.10975481455E+03  0.00000000000E+00 0.  1.
         -1    1    1    2    0  501 -0.20377598315E+02 -0.14076478224E+02 -0.24128083010E+02  0.34576844015E+02  0.00000000000E+00 0. -1.
</event>
<event>
 4    1  0.6824761E+001  0.2892574E+02  0.7546771E-02  0.1429167E+00
          2   -1    0    0  502    0  0.00000000000E+00  0.00000000000E+00  0.14649344029E+03  0.14649344029E+03  0.00000000000E+00 0. -1.
         -2   -1    0    0    0  501 -0.00000000000E+00 -0.00000000000E+00 -0.26863718088E+02  0.26863718088E+02  0.00000000000E+00 0.  1.
          1    1    1    2  502    0 -0.27416109447E+02  0.92225444947E+01 -0.17099352488E+02  0.33601878514E+02  0.00000000000E+00 0.  1.
         -1    1    1    2    0  501  0.27416109447E+02 -0.92225444947E+01  0.13672907469E+03  0.13975527986E+03  0.00000000000E+00 0. -1.
</event>
<event>
 4    1  0.6824761E+001  0.3287033E+02  0.7546771E-02  0.1396187E+00
          2   -1    0    0  502    0  0.00000000000E+00  0.00000000000E+00  0.13952794718E+02  0.13952794718E+02  0.00000000000E+00 0. -1.
         -2   -1    0    0    0  501 -0.00000000000E+00 -0.00000000000E+00 -0.80683114420E+02  0.80683114420E+02  0.00000000000E+00 0.  1.
          1    1    1    2  502    0 -0.30676429855E+02  0.11807429786E+02 -0.23873659872E+02  0.40625243168E+02  0.00000000000E+00 0. -1.
         -1    1    1    2    0  501  0.30676429855E+02 -0.11807429786E+02 -0.42856659829E+02  0.54010665970E+02  0.00000000000E+00 0.  1.
</event>
<event>
 4    1  0.6824761E+001  0.2237548E+02  0.7546771E-02  0.1500493E+00
          2   -1    0    0  502    0  0.00000000000E+00  0.00000000000E+00  0.61814101789E+03  0.61814101789E+03  0.00000000000E+00 0. -1.
         -2   -1    0    0    0  501 -0.00000000000E+00 -0.00000000000E+00 -0.11586821873E+01  0.11586821873E+01  0.00000000000E+00 0.  1.
          1    1    1    2  502    0 -0.18731252279E+02  0.12239377998E+02  0.13861366605E+03  0.14040801473E+03  0.00000000000E+00 0.  1.
         -1    1    1    2    0  501  0.18731252279E+02 -0.12239377998E+02  0.47836866966E+03  0.47889168535E+03  0.00000000000E+00 0. -1.
</event>
<event>
 4    1  0.6824761E+001  0.3152381E+02  0.7546771E-02  0.1406801E+00
          2   -1    0    0  502    0  0.00000000000E+00  0.00000000000E+00  0.10617326972E+04  0.10617326972E+04  0.00000000000E+00 0.  1.
         -2   -1    0    0    0  501 -0.00000000000E+00 -0.00000000000E+00 -0.93709935931E+00  0.93709935931E+00  0.00000000000E+00 0. -1.
          1    1    1    2  502    0  0.22285020043E+02  0.22296373040E+02  0.51195545323E+03  0.51292507880E+03  0.00000000000E+00 0. -1.
         -1    1    1    2    0  501 -0.22285020043E+02 -0.22296373040E+02  0.54884014461E+03  0.54974471776E+03  0.00000000000E+00 0.  1.
</event>
<event>
 4    1  0.6824761E+001  0.3098441E+02  0.7546771E-02  0.1411230E+00
          2   -1    0    0  502    0  0.00000000000E+00  0.00000000000E+00  0.15426604089E+02  0.15426604089E+02  0.00000000000E+00 0.  1.
         -2   -1    0    0    0  501 -0.00000000000E+00 -0.00000000000E+00 -0.62671812422E+02  0.62671812422E+02  0.00000000000E+00 0. -1.
          1    1    1    2  502    0 -0.22828058838E+02  0.20950266539E+02 -0.26892495696E+02  0.41027311185E+02  0.00000000000E+00 0. -1.
         -1    1    1    2    0  501  0.22828058838E+02 -0.20950266539E+02 -0.20352712638E+02  0.37071105326E+02  0.00000000000E+00 0.  1.
</event>
<event>
 4    1  0.6824761E+001  0.3907446E+02  0.7546771E-02  0.1353996E+00
          2   -1    0    0  502    0  0.00000000000E+00  0.00000000000E+00  0.18632978955E+04  0.18632978955E+04  0.00000000000E+00 0.  1.
         -2   -1    0    0    0  501 -0.00000000000E+00 -0.00000000000E+00 -0.82215157707E+00  0.82215157707E+00  0.00000000000E+00 0. -1.
          1    1    1    2  502    0 -0.17784005322E+02 -0.34792856071E+02  0.98501478710E+03  0.98578950313E+03  0.00000000000E+00 0. -1.
         -1    1    1    2    0  501  0.17784005322E+02  0.34792856071E+02  0.87746095685E+03  0.87833054397E+03  0.00000000000E+00 0.  1.
</event>
<event>
 4    1  0.6824761E+001  0.2152817E+02  0.7546771E-02  0.1511856E+00
          2   -1    0    0  502    0  0.00000000000E+00  0.00000000000E+00  0.17206208088E+03  0.17206208088E+03  0.00000000000E+00 0.  1.
         -2   -1    0    0    0  501 -0.00000000000E+00 -0.00000000000E+00 -0.41056190679E+01  0.41056190679E+01  0.00000000000E+00 0. -1.
          1    1    1    2  502    0  0.56698090879E+01 -0.20768131462E+02  0.13563546840E+03  0.13733332555E+03  0.00000000000E+00 0.  1.
         -1    1    1    2    0  501 -0.56698090879E+01  0.20768131462E+02  0.32320993416E+02  0.38834374399E+02  0.00000000000E+00 0. -1.
</event>
<event>
 4    1  0.6824761E+001  0.2288880E+02  0.7546771E-02  0.1493899E+00
          2   -1    0    0  502    0  0.00000000000E+00  0.00000000000E+00  0.11880683413E+04  0.11880683413E+04  0.00000000000E+00 0.  1.
         -2   -1    0    0    0  501 -0.00000000000E+00 -0.00000000000E+00 -0.11124228833E+01  0.11124228833E+01  0.00000000000E+00 0. -1.
          1    1    1    2  502    0  0.79450207663E+01 -0.21465644387E+02  0.13153098774E+03  0.13350767012E+03  0.00000000000E+00 0. -1.
         -1    1    1    2    0  501 -0.79450207663E+01  0.21465644387E+02  0.10554249307E+04  0.10556730941E+04  0.00000000000E+00 0.  1.
</event>
<event>
 4    1  0.6824761E+001  0.3399543E+02  0.7546771E-02  0.1387766E+00
          2   -1    0    0  502    0  0.00000000000E+00  0.00000000000E+00  0.17862328452E+03  0.17862328452E+03  0.00000000000E+00 0.  1.
         -2   -1    0    0    0  501 -0.00000000000E+00 -0.00000000000E+00 -0.71634840014E+01  0.71634840014E+01  0.00000000000E+00 0. -1.
          1    1    1    2  502    0  0.31489014815E+02 -0.12811370091E+02  0.56826641631E+02  0.66219003743E+02  0.00000000000E+00 0.  1.
         -1    1    1    2    0  501 -0.31489014815E+02  0.12811370091E+02  0.11463315889E+03  0.11956776478E+03  0.00000000000E+00 0. -1.
</event>
<event>
 4    1  0.6824761E+001  0.2204868E+02  0.7546771E-02  0.1504802E+00
          2   -1    0    0  502    0  0.00000000000E+00  0.00000000000E+00  0.62874816036E+02  0.62874816036E+02  0.00000000000E+00 0.  1.
         -2   -1    0    0    0  501 -0.00000000000E+00 -0.00000000000E+00 -0.86050066562E+01  0.86050066562E+01  0.00000000000E+00 0. -1.
          1    1    1    2  502    0  0.18053316079E+02  0.12657888663E+02  0.38519073379E+02  0.44383142980E+02  0.00000000000E+00 0. -1.
         -1    1    1    2    0  501 -0.18053316079E+02 -0.12657888663E+02  0.15750736001E+02  0.27096679712E+02  0.00000000000E+00 0.  1.
</event>
<event>
 4    1  0.6824761E+001  0.2263055E+02  0.7546771E-02  0.1497190E+00
          2   -1    0    0  502    0  0.00000000000E+00  0.00000000000E+00  0.33483017493E+02  0.33483017493E+02  0.00000000000E+00 0. -1.
         -2   -1    0    0    0  501 -0.00000000000E+00 -0.00000000000E+00 -0.20350184658E+02  0.20350184658E+02  0.00000000000E+00 0.  1.
          1    1    1    2  502    0 -0.54424627110E+01  0.21966373062E+02 -0.68482515744E+01  0.23644037208E+02  0.00000000000E+00 0.  1.
         -1    1    1    2    0  501  0.54424627110E+01 -0.21966373062E+02  0.19981084409E+02  0.30189164944E+02  0.00000000000E+00 0. -1.
</event>
<event>
 4    1  0.6824761E+001  0.2597255E+02  0.7546771E-02  0.1458211E+00
          2   -1    0    0  502    0  0.00000000000E+00  0.00000000000E+00  0.51032729635E+03  0.51032729635E+03  0.00000000000E+00 0.  1.
         -2   -1    0    0    0  501 -0.00000000000E+00 -0.00000000000E+00 -0.16175725776E+01  0.16175725776E+01  0.00000000000E+00 0. -1.
          1    1    1    2  502    0 -0.16376228772E+02 -0.20159177066E+02  0.14490690717E+03  0.14721611676E+03  0.00000000000E+00 0. -1.
         -1    1    1    2    0  501  0.16376228772E+02  0.20159177066E+02  0.36380281661E+03  0.36472875217E+03  0.00000000000E+00 0.  1.
</event>
<event>
 4    1  0.6824761E+001  0.2133509E+02  0.7546771E-02  0.1514534E+00
          2   -1    0    0  502    0  0.00000000000E+00  0.00000000000E+00  0.31517691057E+03  0.31517691057E+03  0.00000000000E+00 0.  1.
         -2   -1    0    0    0  501 -0.00000000000E+00 -0.00000000000E+00 -0.24438319972E+01  0.24438319972E+01  0.00000000000E+00 0. -1.
          1    1    1    2  502    0 -0.20329322512E+02 -0.64733807325E+01  0.25793481527E+03  0.25881567754E+03  0.00000000000E+00 0.  1.
         -1    1    1    2    0  501  0.20329322512E+02  0.64733807325E+01  0.54798263302E+02  0.58805065027E+02  0.00000000000E+00 0. -1.
</event>
<event>
 4    1  0.6824761E+001  0.4088066E+02  0.7546771E-02  0.1343401E+00
          2   -1    0    0  502    0  0.00000000000E+00  0.00000000000E+00  0.46846396290E+03  0.46846396290E+03  0.00000000000E+00 0.  1.
         -2   -1    0    0    0  501 -0.00000000000E+00 -0.00000000000E+00 -0.57194290677E+01  0.57194290677E+01  0.00000000000E+00 0. -1.
          1    1    1    2  502    0  0.61099000626E+01 -0.40421497586E+02  0.85941060145E+02  0.95168766750E+02  0.00000000000E+00 0. -1.
         -1    1    1    2    0  501 -0.61099000626E+01  0.40421497586E+02  0.37680347369E+03  0.37901462522E+03  0.00000000000E+00 0.  1.
</event>
<event>
 4    1  0.6824761E+001  0.2034842E+02  0.7546771E-02  0.1528774E+00
          2   -1    0    0  502    0  0.00000000000E+00  0.00000000000E+00  0.50875218920E+03  0.50875218920E+03  0.00000000000E+00 0.  1.
         -2   -1    0    0    0  501 -0.00000000000E+00 -0.00000000000E+00 -0.11841849489E+01  0.11841849489E+01  0.00000000000E+00 0. -1.
          1    1    1    2  502    0 -0.18196303435E+02  0.91078298997E+01  0.39636511097E+03  0.39688708623E+03  0.00000000000E+00 0. -1.
         -1    1    1    2    0  501  0.18196303435E+02 -0.91078298997E+01  0.11120289328E+03  0.11304928791E+03  0.00000000000E+00 0.  1.
</event>
<event>
 4    1  0.6824761E+001  0.2165921E+02  0.7546771E-02  0.1510058E+00
          2   -1    0    0  502    0  0.00000000000E+00  0.00000000000E+00  0.16366397491E+02  0.16366397491E+02  0.00000000000E+00 0. -1.
         -2   -1    0    0    0  501 -0.00000000000E+00 -0.00000000000E+00 -0.28884918810E+02  0.28884918810E+02  0.00000000000E+00 0.  1.
          1    1    1    2  502    0  0.18332663470E+02 -0.11534064543E+02 -0.42791227369E+01  0.22077864168E+02  0.00000000000E+00 0.  1.
         -1    1    1    2    0  501 -0.18332663470E+02  0.11534064543E+02 -0.82393985818E+01  0.23173452134E+02  0.00000000000E+00 0. -1.
</event>
<event>
 4    1  0.6824761E+001  0.2465271E+02  0.7546771E-02  0.1472726E+00
          2   -1    0    0  502    0  0.00000000000E+00  0.00000000000E+00  0.59640401266E+02  0.59640401266E+02  0.00000000000E+00 0. -1.
         -2   -1    0    0    0  501 -0.00000000000E+00 -0.00000000000E+00 -0.10191271872E+02  0.10191271872E+02  0.00000000000E+00 0.  1.
          1    1    1    2  502    0  0.16038997749E+02  0.18721829016E+02  0.24391782441E+02  0.34680187156E+02  0.00000000000E+00 0. -1.
         -1    1    1    2    0  501 -0.16038997749E+02 -0.18721829016E+02  0.25057346952E+02  0.35151485983E+02  0.00000000000E+00 0.  1.
</event>
<event>
 4    1  0.6824761E+001  0.3630196E+02  0.7546771E-02  0.1371634E+00
          2   -1    0    0  502    0  0.00000000000E+00  0.00000000000E+00  0.20477956318E+03  0.20477956318E+03  0.00000000000E+00 0. -1.
         -2   -1    0    0    0  501 -0.00000000000E+00 -0.00000000000E+00 -0.66815505621E+01  0.66815505621E+01  0.00000000000E+00 0.  1.
          1    1    1    2  502    0 -0.27468216319E+02  0.23734564427E+02  0.78754059694E+02  0.86718131752E+02  0.00000000000E+00 0.  1.
         -1    1    1    2    0  501  0.27468216319E+02 -0.23734564427E+02  0.11934395293E+03  0.12474298199E+03  0.00000000000E+00 0. -1.
</event>
<event>
 4    1  0.6824761E+001  0.2048868E+02  0.7546771E-02  0.1526692E+00
          2   -1    0    0  502    0  0.00000000000E+00  0.00000000000E+00  0.13140526983E+02  0.13140526983E+02  0.00000000000E+00 0.  1.
         -2   -1    0    0    0  501 -0.00000000000E+00 -0.00000000000E+00 -0.33147240595E+02  0.33147240595E+02  0.00000000000E+00 0. -1.
          1    1    1    2  502    0  0.17308058365E+02 -0.10964359786E+02 -0.14409353097E+02  0.25048263943E+02  0.00000000000E+00 0. -1.
         -1    1    1    2    0  501 -0.17308058365E+02  0.10964359786E+02 -0.55973605152E+01  0.21239503635E+02  0.00000000000E+00 0.  1.
</event>
<event>
 4    1  0.6824761E+001  0.3313839E+02  0.7546771E-02  0.1394145E+00
          2   -1    0    0  502    0  0.00000000000E+00  0.00000000000E+00  0.24836333957E+04  0.24836333957E+04  0.00000000000E+00 0.  1.
         -2   -1    0    0    0  501 -0.00000000000E+00 -0.00000000000E+00 -0.44629844381E+00  0.44629844381E+00  0.00000000000E+00 0. -1.
          1    1    1    2  502    0 -0.30742077948E+02 -0.12372444010E+02  0.13612580997E+04  0.13616613994E+04  0.00000000000E+00 0.  1.
         -1    1    1    2    0  501  0.30742077948E+02  0.12372444010E+02  0.11219289975E+04  0.11224182947E+04  0.00000000000E+00 0. -1.
</event>
<event>
 4    1  0.6824761E+001  0.2732910E+02  0.7546771E-02  0.1444330E+00
          2   -1    0    0  502    0  0.00000000000E+00  0.00000000000E+00  0.10926816655E+04  0.10926816655E+04  0.00000000000E+00 0.  1.
         -2   -1    0    0    0  501 -0.00000000000E+00 -0.00000000000E+00 -0.11795780406E+01  0.11795780406E+01  0.00000000000E+00 0. -1.
          1    1    1    2  502    0  0.26279472284E+02 -0.75012671361E+01  0.90042653631E+03  0.90084117744E+03  0.00000000000E+00 0.  1.
         -1    1    1    2    0  501 -0.26279472284E+02  0.75012671361E+01  0.19107555116E+03  0.19302006612E+03  0.00000000000E+00 0. -1.
</event>
<event>
 4    1  0.6824761E+001  0.4052493E+02  0.7546771E-02  0.1345437E+00
          2   -1    0    0  502    0  0.00000000000E+00  0.00000000000E+00  0.92089528405E+03  0.92089528405E+03  0.00000000000E+00 0.  1.
         -2   -1    0    0    0  501 -0.00000000000E+00 -0.00000000000E+00 -0.21267087466E+01  0.21267087466E+01  0.00000000000E+00 0. -1.
          1    1    1    2  502    0 -0.36335522267E+02 -0.17944359508E+02  0.27394239002E+03  0.27692364158E+03  0.00000000000E+00 0. -1.
         -1    1    1    2    0  501  0.36335522267E+02  0.17944359508E+02  0.64482618528E+03  0.64609835121E+03  0.00000000000E+00 0.  1.
</event>
<event>
 4    1  0.6824761E+001  0.2326139E+02  0.7546771E-02  0.1489242E+00
          2   -1    0    0  502    0  0.00000000000E+00  0.00000000000E+00  0.17911170981E+01  0.17911170981E+01  0.00000000000E+00 0. -1.
         -2   -1    0    0    0  501 -0.00000000000E+00 -0.00000000000E+00 -0.32752795837E+03  0.32752795837E+03  0.00000000000E+00 0.  1.
          1    1    1    2  502    0 -0.74382840697E+01 -0.22040060982E+02 -0.11698687091E+03  0.11927707376E+03  0.00000000000E+00 0. -1.
         -1    1    1    2    0  501  0.74382840697E+01  0.22040060982E+02 -0.20874997036E+03  0.21004200171E+03  0.00000000000E+00 0.  1.
</event>
<event>
 4    1  0.6824761E+001  0.2180579E+02  0.7546771E-02  0.1508064E+00
          2   -1    0    0  502    0  0.00000000000E+00  0.00000000000E+00  0.57338538143E+03  0.57338538143E+03  0.00000000000E+00 0. -1.
         -2   -1    0    0    0  501 -0.00000000000E+00 -0.00000000000E+00 -0.17756264882E+01  0.17756264882E+01  0.00000000000E+00 0.  1.
          1    1    1    2  502    0 -0.29568241391E+01 -0.21604385059E+02  0.75857416055E+02  0.78929334428E+02  0.00000000000E+00 0.  1.
         -1    1    1    2    0  501  0.29568241391E+01  0.21604385059E+02  0.49575233889E+03  0.49623167349E+03  0.00000000000E+00 0. -1.
</event>
<event>
 4    1  0.6824761E+001  0.2134883E+02  0.7546771E-02  0.1514342E+00
          2   -1    0    0  502    0  0.00000000000E+00  0.00000000000E+00  0.73538418574E+03  0.73538418574E+03  0.00000000000E+00 0. -1.
         -2   -1    0    0    0  501 -0.00000000000E+00 -0.00000000000E+00 -0.71072086388E+00  0.71072086388E+00  0.00000000000E+00 0.  1.
          1    1    1    2  502    0  0.27243927157E+01  0.21174287223E+02  0.23567920593E+03  0.23664416507E+03  0.00000000000E+00 0. -1.
         -1    1    1    2    0  501 -0.27243927157E+01 -0.21174287223E+02  0.49899425895E+03  0.49945074154E+03  0.00000000000E+00 0.  1.
</event>
<event>
 4    1  0.6824761E+001  0.3446285E+02  0.7546771E-02  0.1384379E+00
          2   -1    0    0  502    0  0.00000000000E+00  0.00000000000E+00  0.46845502616E+02  0.46845502616E+02  0.00000000000E+00 0. -1.
         -2   -1    0    0    0  501 -0.00000000000E+00 -0.00000000000E+00 -0.27755174349E+02  0.27755174349E+02  0.00000000000E+00 0.  1.
          1    1    1    2  502    0  0.13286513076E+02  0.31798684426E+02  0.20517941145E+02  0.40108274331E+02  0.00000000000E+00 0. -1.
         -1    1    1    2    0  501 -0.13286513076E+02 -0.31798684426E+02 -0.14276128783E+01  0.34492402634E+02  0.00000000000E+00 0.  1.
</event>
<event>
 4    1  0.6824761E+001  0.4331559E+02  0.7546771E-02  0.1330080E+00
          2   -1    0    0  502    0  0.00000000000E+00  0.00000000000E+00  0.59348742983E+03  0.59348742983E+03  0.00000000000E+00 0. -1.
         -2   -1    0    0    0  501 -0.00000000000E+00 -0.00000000000E+00 -0.66434261397E+01  0.66434261397E+01  0.00000000000E+00 0.  1.
          1    1    1    2  502    0 -0.45444897019E+01  0.43076535543E+02  0.51066063433E+03  0.51249441339E+03  0.00000000000E+00 0. -1.
         -1    1    1    2    0  501  0.45444897019E+01 -0.43076535543E+02  0.76183369357E+02  0.87636442578E+02  0.00000000000E+00 0.  1.
</event>
<event>
 4    1  0.6824761E+001  0.2055340E+02  0.7546771E-02  0.1525738E+00
          2   -1    0    0  502    0  0.00000000000E+00  0.00000000000E+00  0.98439153361E+03  0.98439153361E+03  0.00000000000E+00 0.  1.
         -2   -1    0    0    0  501 -0.00000000000E+00 -0.00000000000E+00 -0.43910625997E+00  0.43910625997E+00  0.00000000000E+00 0. -1.
          1    1    1    2  502    0  0.20355645705E+02  0.28442539624E+01  0.56615948616E+03  0.56653244026E+03  0.00000000000E+00 0.  1.
         -1    1    1    2    0  501 -0.20355645705E+02 -0.28442539624E+01  0.41779294119E+03  0.41829819962E+03  0.00000000000E+00 0. -1.
</event>
<event>
 4    1  0.6824761E+001  0.5778958E+02  0.7546771E-02  0.1267534E+00
          2   -1    0    0  502    0  0.00000000000E+00  0.00000000000E+00  0.29576126086E+03  0.29576126086E+03  0.00000000000E+00 0.  1.
         -2   -1    0    0    0  501 -0.00000000000E+00 -0.00000000000E+00 -0.11460777325E+02  0.11460777325E+02  0.00000000000E+00 0. -1.
          1    1    1    2  502    0 -0.55919354115E+02  0.14582909535E+02  0.16081017907E+03  0.17087875558E+03  0.00000000000E+00 0.  1.
         -1    1    1    2    0  501  0.55919354115E+02 -0.14582909535E+02  0.12349030447E+03  0.13634328261E+03  0.00000000000E+00 0. -1.
</event>
<event>
 4    1  0.6824761E+001  0.2080997E+02  0.7546771E-02  0.1521995E+00
          2   -1    0    0  502    0  0.00000000000E+00  0.00000000000E+00  0.16422104987E+04  0.16422104987E+04  0.00000000000E+00 0.  1.
         -2   -1    0    0    0  501 -0.00000000000E+00 -0.00000000000E+00 -0.31368420353E+00  0.31368420353E+00  0.00000000000E+00 0. -1.
          1    1    1    2  502    0 -0.17731743245E+02 -0.10892199181E+02  0.49312364633E+03  0.49356254446E+03  0.00000000000E+00 0. -1.
         -1    1    1    2    0  501  0.17731743245E+02  0.10892199181E+02  0.11487731682E+04  0.11489616385E+04  0.00000000000E+00 0.  1.
</event>
<event>
 4    1  0.6824761E+001  0.2159922E+02  0.7546771E-02  0.1510879E+00
          2   -1    0    0  502    0  0.00000000000E+00  0.00000000000E+00  0.79344856610E+03  0.79344856610E+03  0.00000000000E+00 0. -1.
         -2   -1    0    0    0  501 -0.00000000000E+00 -0.00000000000E+00 -0.12184343685E+01  0.12184343685E+01  0.00000000000E+00 0.  1.
          1    1    1    2  502    0  0.14841235645E+02 -0.15692802516E+02  0.68192897254E+03  0.68227095052E+03  0.00000000000E+00 0. -1.
         -1    1    1    2    0  501 -0.14841235645E+02  0.15692802516E+02  0.11030115919E+03  0.11239604995E+03  0.00000000000E+00 0.  1.
</event>
<event>
 4    1  0.6824761E+001  0.2151250E+02  0.7546771E-02  0.1512072E+00
          2   -1    0    0  502    0  0.00000000000E+00  0.00000000000E+00  0.14212477640E+04  0.14212477640E+04  0.00000000000E+00 0.  1.
         -2   -1    0    0    0  501 -0.00000000000E+00 -0.00000000000E+00 -0.34056171544E+00  0.34056171544E+00  0.00000000000E+00 0. -1.
          1    1    1    2  502    0  0.19706934068E+02  0.86269541287E+01  0.56157336116E+03  0.56198525564E+03  0.00000000000E+00 0. -1.
         -1    1    1    2    0  501 -0.19706934068E+02 -0.86269541287E+01  0.85933384117E+03  0.85960307012E+03  0.00000000000E+00 0.  1.
</event>
<event>
 4    1  0.6824761E+001  0.5697495E+02  0.7546771E-02  0.1270472E+00
          2   -1    0    0  502    0  0.00000000000E+00  0.00000000000E+00  0.14173930331E+03  0.14173930331E+03  0.00000000000E+00 0. -1.
         -2   -1    0    0    0  501 -0.00000000000E+00 -0.00000000000E+00 -0.23718567200E+02  0.23718567200E+02  0.00000000000E+00 0.  1.
          1    1    1    2  502    0  0.22625587901E+02 -0.52289848086E+02  0.74358279565E+02  0.93676566870E+02  0.00000000000E+00 0. -1.
         -1    1    1    2    0  501 -0.22625587901E+02  0.52289848086E+02  0.43662456546E+02  0.71781303641E+02  0.00000000000E+00 0.  1.
</event>
<event>
 4    1  0.6824761E+001  0.2465316E+02  0.7546771E-02  0.1472721E+00
          2   -1    0    0  502    0  0.00000000000E+00  0.00000000000E+00  0.23670161544E+03  0.23670161544E+03  0.00000000000E+00 0.  1.
         -2   -1    0    0    0  501 -0.00000000000E+00 -0.00000000000E+00 -0.37027569703E+01  0.37027569703E+01  0.00000000000E+00 0. -1.
          1    1    1    2  502    0  0.80867482322E+01  0.23289112995E+02  0.18305109984E+03  0.18470377211E+03  0.00000000000E+00 0.  1.
         -1    1    1    2    0  501 -0.80867482322E+01 -0.23289112995E+02  0.49947758630E+02  0.55700600296E+02  0.00000000000E+00 0. -1.
</event>
<event>
 4    1  0.6824761E+001  0.2408658E+02  0.7546771E-02  0.1479287E+00
          2   -1    0    0  502    0  0.00000000000E+00  0.00000000000E+00  0.42923696812E+03  0.42923696812E+03  0.00000000000E+00 0. -1.
         -2   -1    0    0    0  501 -0.00000000000E+00 -0.00000000000E+00 -0.14423980897E+01  0.14423980897E+01  0.00000000000E+00 0.  1.
          1    1    1    2  502    0 -0.21793613898E+02  0.10256786262E+02  0.15987372950E+03  0.16167799063E+03  0.00000000000E+00 0. -1.
         -1    1    1    2    0  501  0.21793613898E+02 -0.10256786262E+02  0.26792084053E+03  0.26900137558E+03  0.00000000000E+00 0.  1.
</event>
<event>
 4    1  0.6824761E+001  0.2310592E+02  0.7546771E-02  0.1491172E+00
          2   -1    0    0  502    0  0.00000000000E+00  0.00000000000E+00  0.13235463863E+04  0.13235463863E+04  0.00000000000E+00 0. -1.
         -2   -1    0    0    0  501 -0.00000000000E+00 -0.00000000000E+00 -0.51851422629E+00  0.51851422629E+00  0.00000000000E+00 0.  1.
          1    1    1    2  502    0  0.16456451927E+02  0.16219395133E+02  0.97348430735E+03  0.97375848147E+03  0.00000000000E+00 0. -1.
         -1    1    1    2    0  501 -0.16456451927E+02 -0.16219395133E+02  0.34954356470E+03  0.35030641903E+03  0.00000000000E+00 0.  1.
</event>
<event>
 4    1  0.6824761E+001  0.1044625E+03  0.7546771E-02  0.1156292E+00
          2   -1    0    0  502    0  0.00000000000E+00  0.00000000000E+00  0.58414814484E+03  0.58414814484E+03  0.00000000000E+00 0.  1.
         -2   -1    0    0    0  501 -0.00000000000E+00 -0.00000000000E+00 -0.38310233850E+02  0.38310233850E+02  0.00000000000E+00 0. -1.
          1    1    1    2  502    0  0.58259932709E+02 -0.86707546170E+02  0.49569864867E+03  0.50658619071E+03  0.00000000000E+00 0.  1.
         -1    1    1    2    0  501 -0.58259932709E+02  0.86707546170E+02  0.50139262320E+02  0.11587218798E+03  0.00000000000E+00 0. -1.
</event>
<event>
 4    1  0.6824761E+001  0.2176811E+02  0.7546771E-02  0.1508575E+00
          2   -1    0    0  502    0  0.00000000000E+00  0.00000000000E+00  0.30435119768E+03  0.30435119768E+03  0.00000000000E+00 0.  1.
         -2   -1    0    0    0  501 -0.00000000000E+00 -0.00000000000E+00 -0.24160204283E+01  0.24160204283E+01  0.00000000000E+00 0. -1.
          1    1    1    2  502    0 -0.28390803534E+01 -0.21582174524E+02  0.24243164954E+03  0.24340697470E+03  0.00000000000E+00 0.  1.
         -1    1    1    2    0  501  0.28390803534E+01  0.21582174524E+02  0.59503527709E+02  0.63360243404E+02  0.00000000000E+00 0. -1.
</event>
<event>
 4    1  0.6824761E+001  0.2492721E+02  0.7546771E-02  0.1469619E+00
          2   -1    0    0  502    0  0.00000000000E+00  0.00000000000E+00  0.95485424453E+03  0.95485424453E+03  0.00000000000E+00 0. -1.
         -2   -1    0    0    0  501 -0.00000000000E+00 -0.00000000000E+00 -0.73667266002E+00  0.73667266002E+00  0.00000000000E+00 0.  1.
          1    1    1    2  502    0  0.17643344853E+02  0.17609036888E+02  0.31387634530E+03  0.31486461525E+03  0.00000000000E+00 0.  1.
         -1    1    1    2    0  501 -0.17643344853E+02 -0.17609036888E+02  0.64024122657E+03  0.64072630194E+03  0.00000000000E+00 0. -1.
</event>
<event>
 4    1  0.6824761E+001  0.2674234E+02  0.7546771E-02  0.1450214E+00
          2   -1    0    0  502    0  0.00000000000E+00  0.00000000000E+00  0.77676096234E+03  0.77676096234E+03  0.00000000000E+00 0.  1.
         -2   -1    0    0    0  501 -0.00000000000E+00 -0.00000000000E+00 -0.14510344676E+01  0.14510344676E+01  0.00000000000E+00 0. -1.
          1    1    1    2  502    0 -0.19771945692E+02  0.18006186723E+02  0.15241565039E+03  0.15474392744E+03  0.00000000000E+00 0. -1.
         -1    1    1    2    0  501  0.19771945692E+02 -0.18006186723E+02  0.62289427748E+03  0.62346806936E+03  0.00000000000E+00 0.  1.
</event>
<event>
 4    1  0.6824761E+001  0.2138531E+02  0.7546771E-02  0.1513834E+00
          2   -1    0    0  502    0  0.00000000000E+00  0.00000000000E+00  0.28242013794E+03  0.28242013794E+03  0.00000000000E+00 0. -1.
         -2   -1    0    0    0  501 -0.00000000000E+00 -0.00000000000E+00 -0.16558422729E+01  0.16558422729E+01  0.00000000000E+00 0.  1.
          1    1    1    2  502    0  0.20355054507E+02  0.65576908158E+01  0.16147383366E+03  0.16288379450E+03  0.00000000000E+00 0.  1.
         -1    1    1    2    0  501 -0.20355054507E+02 -0.65576908158E+01  0.11929046201E+03  0.12119218571E+03  0.00000000000E+00 0. -1.
</event>
<event>
 4    1  0.6824761E+001  0.2094127E+02  0.7546771E-02  0.1520105E+00
          2   -1    0    0  502    0  0.00000000000E+00  0.00000000000E+00  0.10531423518E+01  0.10531423518E+01  0.00000000000E+00 0. -1.
         -2   -1    0    0    0  501 -0.00000000000E+00 -0.00000000000E+00 -0.43645154589E+03  0.43645154589E+03  0.00000000000E+00 0.  1.
          1    1    1    2  502    0 -0.77493616298E+01 -0.19454673568E+02 -0.17082092077E+03  0.17209974986E+03  0.00000000000E+00 0. -1.
         -1    1    1    2    0  501  0.77493616298E+01  0.19454673568E+02 -0.26457748277E+03  0.26540493838E+03  0.00000000000E+00 0.  1.
</event>
<event>
 4    1  0.6824761E+001  0.5096336E+02  0.7546771E-02  0.1294049E+00
          2   -1    0    0  502    0  0.00000000000E+00  0.00000000000E+00  0.81989756035E+02  0.81989756035E+02  0.00000000000E+00 0.  1.
         -2   -1    0    0    0  501 -0.00000000000E+00 -0.00000000000E+00 -0.33255846890E+02  0.33255846890E+02  0.00000000000E+00 0. -1.
          1    1    1    2  502    0 -0.28087739704E+02 -0.42524615551E+02  0.11815175592E+02  0.52315030572E+02  0.00000000000E+00 0. -1.
         -1    1    1    2    0  501  0.28087739704E+02  0.42524615551E+02  0.36918733553E+02  0.62930572352E+02  0.00000000000E+00 0.  1.
</event>
<event>
 4    1  0.6824761E+001  0.4049128E+02  0.7546771E-02  0.1345631E+00
          2   -1    0    0  502    0  0.00000000000E+00  0.00000000000E+00  0.76270708574E+02  0.76270708574E+02  0.00000000000E+00 0. -1.
         -2   -1    0    0    0  501 -0.00000000000E+00 -0.00000000000E+00 -0.23710597652E+02  0.23710597652E+02  0.00000000000E+00 0.  1.
          1    1    1    2  502    0  0.40041332536E+02 -0.60196215587E+01  0.11003420961E+02  0.41959735793E+02  0.00000000000E+00 0.  1.
         -1    1    1    2    0  501 -0.40041332536E+02  0.60196215587E+01  0.41556689961E+02  0.58021570433E+02  0.00000000000E+00 0. -1.
</event>
<event>
 4    1  0.6824761E+001  0.3183380E+02  0.7546771E-02  0.1404303E+00
          2   -1    0    0  502    0  0.00000000000E+00  0.00000000000E+00  0.63108469951E+02  0.63108469951E+02  0.00000000000E+00 0. -1.
         -2   -1    0    0    0  501 -0.00000000000E+00 -0.00000000000E+00 -0.26561859243E+02  0.26561859243E+02  0.00000000000E+00 0.  1.
          1    1    1    2  502    0  0.18330677255E+01 -0.31780983842E+02  0.46467879032E+02  0.56326324689E+02  0.00000000000E+00 0. -1.
         -1    1    1    2    0  501 -0.18330677255E+01  0.31780983842E+02 -0.99212683240E+01  0.33344004505E+02  0.00000000000E+00 0.  1.
</event>
<event>
 4    1  0.6824761E+001  0.3042896E+02  0.7546771E-02  0.1415905E+00
          2   -1    0    0  502    0  0.00000000000E+00  0.00000000000E+00  0.47903264889E+03  0.47903264889E+03  0.00000000000E+00 0.  1.
         -2   -1    0    0    0  501 -0.00000000000E+00 -0.00000000000E+00 -0.19394012258E+01  0.19394012258E+01  0.00000000000E+00 0. -1.
          1    1    1    2  502    0  0.15661468906E+02  0.26089072583E+02  0.25247228157E+03  0.25429937923E+03  0.00000000000E+00 0.  1.
         -1    1    1    2    0  501 -0.15661468906E+02 -0.26089072583E+02  0.22462096610E+03  0.22667267088E+03  0.00000000000E+00 0. -1.
</event>
<event>
 4    1  0.6824761E+001  0.5445070E+02  0.7546771E-02  0.1279949E+00
          2   -1    0    0  502    0  0.00000000000E+00  0.00000000000E+00  0.19025260145E+04  0.19025260145E+04  0.00000000000E+00 0. -1.
         -2   -1    0    0    0  501 -0.00000000000E+00 -0.00000000000E+00 -0.34287174481E+01  0.34287174481E+01  0.00000000000E+00 0.  1.
          1    1    1    2  502    0 -0.53834808482E+02  0.81665014711E+01  0.16533911854E+04  0.16542875476E+04  0.00000000000E+00 0. -1.
         -1    1    1    2    0  501  0.53834808482E+02 -0.81665014711E+01  0.24570611174E+03  0.25166718438E+03  0.00000000000E+00 0.  1.
</event>
<event>
 4    1  0.6824761E+001  0.2088421E+02  0.7546771E-02  0.1520925E+00
          2   -1    0    0  502    0  0.00000000000E+00  0.00000000000E+00  0.16676048147E+04  0.16676048147E+04  0.00000000000E+00 0. -1.
         -2   -1    0    0    0  501 -0.00000000000E+00 -0.00000000000E+00 -0.66352442405E+00  0.66352442405E+00  0.00000000000E+00 0.  1.
          1    1    1    2  502    0 -0.20394578080E+02 -0.44956944253E+01  0.18422276700E+03  0.18540274530E+03  0.00000000000E+00 0.  1.
         -1    1    1    2    0  501  0.20394578080E+02  0.44956944253E+01  0.14827185232E+04  0.14828655938E+04  0.00000000000E+00 0. -1.
</event>
<event>
 4    1  0.6824761E+001  0.2224419E+02  0.7546771E-02  0.1502213E+00
          2   -1    0    0  502    0  0.00000000000E+00  0.00000000000E+00  0.16333241110E+04  0.16333241110E+04  0.00000000000E+00 0.  1.
         -2   -1    0    0    0  501 -0.00000000000E+00 -0.00000000000E+00 -0.37502860070E+00  0.37502860070E+00  0.00000000000E+00 0. -1.
          1    1    1    2  502    0 -0.14283041838E+02  0.17052824378E+02  0.45834993980E+03  0.45888938909E+03  0.00000000000E+00 0. -1.
         -1    1    1    2    0  501  0.14283041838E+02 -0.17052824378E+02  0.11745991426E+04  0.11748097505E+04  0.00000000000E+00 0.  1.
</event>
<event>
 4    1  0.6824761E+001  0.2500645E+02  0.7546771E-02  0.1468731E+00
          2   -1    0    0  502    0  0.00000000000E+00  0.00000000000E+00  0.19787043535E+02  0.19787043535E+02  0.00000000000E+00 0. -1.
         -2   -1    0    0    0  501 -0.00000000000E+00 -0.00000000000E+00 -0.48925723116E+02  0.48925723116E+02  0.00000000000E+00 0.  1.
          1    1    1    2  502    0  0.38844004915E+01 -0.24702911963E+02 -0.35012670429E+02  0.43025684390E+02  0.00000000000E+00 0.  1.
         -1    1    1    2    0  501 -0.38844004915E+01  0.24702911963E+02  0.58739908481E+01  0.25687082261E+02  0.00000000000E+00 0. -1.
</event>
<event>
 4    1  0.6824761E+001  0.3665920E+02  0.7546771E-02  0.1369259E+00
          2   -1    0    0  502    0  0.00000000000E+00  0.00000000000E+00  0.10252083560E+04  0.10252083560E+04  0.00000000000E+00 0. -1.
         -2   -1    0    0    0  501 -0.00000000000E+00 -0.00000000000E+00 -0.13512652145E+01  0.13512652145E+01  0.00000000000E+00 0.  1.
          1    1    1    2  502    0  0.17701635704E+02  0.32102165682E+02  0.42316332537E+03  0.42474827473E+03  0.00000000000E+00 0.  1.
         -1    1    1    2    0  501 -0.17701635704E+02 -0.32102165682E+02  0.60069376539E+03  0.60181134646E+03  0.00000000000E+00 0. -1.
</event>
<event>
 4    1  0.6824761E+001  0.2652315E+02  0.7546771E-02  0.1452458E+00
          2   -1    0    0  502    0  0.00000000000E+00  0.00000000000E+00  0.14287849690E+04  0.14287849690E+04  0.00000000000E+00 0. -1.
         -2   -1    0    0    0  501 -0.00000000000E+00 -0.00000000000E+00 -0.60677706767E+00  0.60677706767E+00  0.00000000000E+00 0.  1.
          1    1    1    2  502    0 -0.26447478811E+02  0.20021293094E+01  0.10244383128E+04  0.10247816033E+04  0.00000000000E+00 0. -1.
         -1    1    1    2    0  501  0.26447478811E+02 -0.20021293094E+01  0.40373987909E+03  0.40461014276E+03  0.00000000000E+00 0.  1.
</event>
<event>
 4    1  0.6824761E+001  0.1067873E+03  0.7546771E-02  0.1152539E+00
          2   -1    0    0  502    0  0.00000000000E+00  0.00000000000E+00  0.12129389361E+04  0.12129389361E+04  0.00000000000E+00 0.  1.
         -2   -1    0    0    0  501 -0.00000000000E+00 -0.00000000000E+00 -0.10790069015E+02  0.10790069015E+02  0.00000000000E+00 0. -1.
          1    1    1    2  502    0 -0.10420873029E+03  0.23325192705E+02  0.82056544422E+03  0.82748484720E+03  0.00000000000E+00 0.  1.
         -1    1    1    2    0  501  0.10420873029E+03 -0.23325192705E+02  0.38158342285E+03  0.39624415791E+03  0.00000000000E+00 0. -1.
</event>
<event>
 4    1  0.6824761E+001  0.2343566E+02  0.7546771E-02  0.1487099E+00
          2   -1    0    0  502    0  0.00000000000E+00  0.00000000000E+00  0.89566775228E+03  0.89566775228E+03  0.00000000000E+00 0. -1.
         -2   -1    0    0    0  501 -0.00000000000E+00 -0.00000000000E+00 -0.66416708376E+00  0.66416708376E+00  0.00000000000E+00 0.  1.
          1    1    1    2  502    0 -0.20122492249E+02 -0.12013130256E+02  0.57164244807E+03  0.57212264282E+03  0.00000000000E+00 0. -1.
         -1    1    1    2    0  501  0.20122492249E+02  0.12013130256E+02  0.32336113713E+03  0.32420927654E+03  0.00000000000E+00 0.  1.
</event>
<event>
 4    1  0.6824761E+001  0.2256694E+02  0.7546771E-02  0.1498009E+00
          2   -1    0    0  502    0  0.00000000000E+00  0.00000000000E+00  0.30459981526E+01  0.30459981526E+01  0.00000000000E+00 0. -1.
         -2   -1    0    0    0  501 -0.00000000000E+00 -0.00000000000E+00 -0.18640269385E+03  0.18640269385E+03  0.00000000000E+00 0.  1.
          1    1    1    2  502    0 -0.24731864535E+01 -0.22431011388E+02 -0.12208758773E+03  0.12415573286E+03  0.00000000000E+00 0.  1.
         -1    1    1    2    0  501  0.24731864535E+01  0.22431011388E+02 -0.61269107972E+02  0.65292959152E+02  0.00000000000E+00 0. -1.
</event>
<event>
 4    1  0.6824761E+001  0.2699924E+02  0.7546771E-02  0.1447616E+00
          2   -1    0    0  502    0  0.00000000000E+00  0.00000000000E+00  0.45121915893E+02  0.45121915893E+02  0.00000000000E+00 0.  1.
         -2   -1    0    0    0  501 -0.00000000000E+00 -0.00000000000E+00 -0.17611190534E+02  0.17611190534E+02  0.00000000000E+00 0. -1.
          1    1    1    2  502    0 -0.61657500494E+01 -0.26285788679E+02  0.47368845484E+01  0.27411625916E+02  0.00000000000E+00 0. -1.
         -1    1    1    2    0  501  0.61657500494E+01  0.26285788679E+02  0.22773840810E+02  0.35321480510E+02  0.00000000000E+00 0.  1.
</event>
<event>
 4    1  0.6824761E+001  0.2986705E+02  0.7546771E-02  0.1420755E+00
          2   -1    0    0  502    0  0.00000000000E+00  0.00000000000E+00  0.98223740273E+03  0.98223740273E+03  0.00000000000E+00 0.  1.
         -2   -1    0    0    0  501 -0.00000000000E+00 -0.00000000000E+00 -0.98138281285E+00  0.98138281285E+00  0.00000000000E+00 0. -1.
          1    1    1    2  502    0 -0.22699459246E+02 -0.19410705995E+02  0.62490054897E+03  0.62561388816E+03  0.00000000000E+00 0. -1.
         -1    1    1    2    0  501  0.22699459246E+02  0.19410705995E+02  0.35635547095E+03  0.35760489738E+03  0.00000000000E+00 0.  1.
</event>
<event>
 4    1  0.6824761E+001  0.3188348E+02  0.7546771E-02  0.1403906E+00
          2   -1    0    0  502    0  0.00000000000E+00  0.00000000000E+00  0.61780025172E+03  0.61780025172E+03  0.00000000000E+00 0. -1.
         -2   -1    0    0    0  501 -0.00000000000E+00 -0.00000000000E+00 -0.23502988098E+01  0.23502988098E+01  0.00000000000E+00 0.  1.
          1    1    1    2  502    0 -0.19421374858E+02  0.25285696523E+02  0.47753181086E+03  0.47859501317E+03  0.00000000000E+00 0. -1.
         -1    1    1    2    0  501  0.19421374858E+02 -0.25285696523E+02  0.13791814205E+03  0.14155553736E+03  0.00000000000E+00 0.  1.
</event>
<event>
 4    1  0.6824761E+001  0.3183253E+02  0.7546771E-02  0.1404313E+00
          2   -1    0    0  502    0  0.00000000000E+00  0.00000000000E+00  0.17474550760E+02  0.17474550760E+02  0.00000000000E+00 0. -1.
         -2   -1    0    0    0  501 -0.00000000000E+00 -0.00000000000E+00 -0.58863639095E+02  0.58863639095E+02  0.00000000000E+00 0.  1.
          1    1    1    2  502    0 -0.20733689388E+02  0.24154171362E+02 -0.16038543607E+02  0.35644701582E+02  0.00000000000E+00 0. -1.
         -1    1    1    2    0  501  0.20733689388E+02 -0.24154171362E+02 -0.25350544728E+02  0.40693488273E+02  0.00000000000E+00 0.  1.
</event>
<event>
 4    1  0.6824761E+001  0.2943283E+02  0.7546771E-02  0.1424590E+00
          2   -1    0    0  502    0  0.00000000000E+00  0.00000000000E+00  0.96476802619E+03  0.96476802619E+03  0.00000000000E+00 0. -1.
         -2   -1    0    0    0  501 -0.00000000000E+00 -0.00000000000E+00 -0.12655636641E+01  0.12655636641E+01  0.00000000000E+00 0.  1.
          1    1    1    2  502    0  0.40480134736E+01  0.29153126609E+02  0.22141796010E+03  0.22336562909E+03  0.00000000000E+00 0.  1.
         -1    1    1    2    0  501 -0.40480134736E+01 -0.29153126609E+02  0.74208450242E+03  0.74266796076E+03  0.00000000000E+00 0. -1.
</event>
<event>
 4    1  0.6824761E+001  0.2960014E+02  0.7546771E-02  0.1423103E+00
          2   -1    0    0  502    0  0.00000000000E+00  0.00000000000E+00  0.59854801762E+00  0.59854801762E+00  0.00000000000E+00 0. -1.
         -2   -1    0    0    0  501 -0.00000000000E+00 -0.00000000000E+00 -0.14787189118E+04  0.14787189118E+04  0.00000000000E+00 0.  1.
          1    1    1    2  502    0  0.21037836236E+02  0.20822525790E+02 -0.81329839368E+03  0.81383686651E+03  0.00000000000E+00 0. -1.
         -1    1    1    2    0  501 -0.21037836236E+02 -0.20822525790E+02 -0.66482197009E+03  0.66548059330E+03  0.00000000000E+00 0.  1.
</event>
<event>
 4    1  0.6824761E+001  0.4620550E+02  0.7546771E-02  0.1315519E+00
          2   -1    0    0  502    0  0.00000000000E+00  0.00000000000E+00  0.33061215975E+03  0.33061215975E+03  0.00000000000E+00 0.  1.
         -2   -1    0    0    0  501 -0.00000000000E+00 -0.00000000000E+00 -0.64627168265E+01  0.64627168265E+01  0.00000000000E+00 0. -1.
          1    1    1    2  502    0  0.13264855173E+02 -0.44260503291E+02  0.15731486381E+03  0.16396010158E+03  0.00000000000E+00 0. -1.
         -1    1    1    2    0  501 -0.13264855173E+02  0.44260503291E+02  0.16683457911E+03  0.17311477500E+03  0.00000000000E+00 0.  1.
</event>
<event>
 4    1  0.6824761E+001  0.2000985E+02  0.7546771E-02  0.1533885E+00
          2   -1    0    0  502    0  0.00000000000E+00  0.00000000000E+00  0.11230590576E+03  0.11230590576E+03  0.00000000000E+00 0. -1.
         -2   -1    0    0    0  501 -0.00000000000E+00 -0.00000000000E+00 -0.40838269684E+01  0.40838269684E+01  0.00000000000E+00 0.  1.
          1    1    1    2  502    0  0.19371849530E+02 -0.50125436414E+01  0.74849395795E+02  0.77477907811E+02  0.00000000000E+00 0. -1.
         -1    1    1    2    0  501 -0.19371849530E+02  0.50125436414E+01  0.33372682997E+02  0.38911824917E+02  0.00000000000E+00 0.  1.
</event>
<event>
 4    1  0.6824761E+001  0.2119945E+02  0.7546771E-02  0.1516436E+00
          2   -1    0    0  502    0  0.00000000000E+00  0.00000000000E+00  0.37715122253E+01  0.37715122253E+01  0.00000000000E+00 0. -1.
         -2   -1    0    0    0  501 -0.00000000000E+00 -0.00000000000E+00 -0.15075685527E+03  0.15075685527E+03  0.00000000000E+00 0.  1.
          1    1    1    2  502    0  0.19773942357E+02  0.76425005664E+01 -0.10886435736E+03  0.11090926433E+03  0.00000000000E+00 0.  1.
         -1    1    1    2    0  501 -0.19773942357E+02 -0.76425005664E+01 -0.38120985687E+02  0.43619103166E+02  0.00000000000E+00 0. -1.
</event>
<event>
 4    1  0.6824761E+001  0.2148126E+02  0.7546771E-02  0.1512503E+00
          2   -1    0    0  502    0  0.00000000000E+00  0.00000000000E+00  0.16297582041E+04  0.16297582041E+04  0.00000000000E+00 0. -1.
         -2   -1    0    0    0  501 -0.00000000000E+00 -0.00000000000E+00 -0.31785508872E+00  0.31785508872E+00  0.00000000000E+00 0.  1.
          1    1    1    2  502    0  0.17050800517E+02 -0.13065783924E+02  0.10840860033E+04  0.10842988089E+04  0.00000000000E+00 0. -1.
         -1    1    1    2    0  501 -0.17050800517E+02  0.13065783924E+02  0.54535434569E+03  0.54577725023E+03  0.00000000000E+00 0.  1.
</event>
<event>
 4    1  0.6824761E+001  0.3266169E+02  0.7546771E-02  0.1397792E+00
          2   -1    0    0  502    0  0.00000000000E+00  0.00000000000E+00  0.16497283743E+03  0.16497283743E+03  0.00000000000E+00 0. -1.
         -2   -1    0    0    0  501 -0.00000000000E+00 -0.00000000000E+00 -0.16947480929E+02  0.16947480929E+02  0.00000000000E+00 0.  1.
          1    1    1    2  502    0  0.20533768238E+01  0.32597084655E+02  0.24805860876E+01  0.32755756620E+02  0.00000000000E+00 0.  1.
         -1    1    1    2    0  501 -0.20533768238E+01 -0.32597084655E+02  0.14554477042E+03  0.14916456174E+03  0.00000000000E+00 0. -1.
</event>
<event>
 4    1  0.6824761E+001  0.3249407E+02  0.7546771E-02  0.1399092E+00
          2   -1    0    0  502    0  0.00000000000E+00  0.00000000000E+00  0.15417467188E+04  0.15417467188E+04  0.00000000000E+00 0.  1.
         -2   -1    0    0    0  501 -0.00000000000E+00 -0.00000000000E+00 -0.92967571356E+00  0.92967571356E+00  0.00000000000E+00 0. -1.
          1    1    1    2  502    0  0.23899695181E+02  0.22015199381E+02  0.37457909768E+03  0.37598585725E+03  0.00000000000E+00 0. -1.
         -1    1    1    2    0  501 -0.23899695181E+02 -0.22015199381E+02  0.11662379454E+04  0.11666905372E+04  0.00000000000E+00 0.  1.
</event>
<event>
 4    1  0.6824761E+001  0.3749307E+02  0.7546771E-02  0.1363837E+00
          2   -1    0    0  502    0  0.00000000000E+00  0.00000000000E+00  0.10342487969E+03  0.10342487969E+03  0.00000000000E+00 0. -1.
         -2   -1    0    0    0  501 -0.00000000000E+00 -0.00000000000E+00 -0.14780405354E+02  0.14780405354E+02  0.00000000000E+00 0.  1.
          1    1    1    2  502    0  0.36002264831E+02  0.10467453125E+02  0.61082542161E+02  0.71671525759E+02  0.00000000000E+00 0. -1.
         -1    1    1    2    0  501 -0.36002264831E+02 -0.10467453125E+02  0.27561932173E+02  0.46533759282E+02  0.00000000000E+00 0.  1.
</event>
<event>
 4    1  0.6824761E+001  0.2143586E+02  0.7546771E-02  0.1513132E+00
          2   -1    0    0  502    0  0.00000000000E+00  0.00000000000E+00  0.78393681506E+03  0.78393681506E+03  0.00000000000E+00 0. -1.
         -2   -1    0    0    0  501 -0.00000000000E+00 -0.00000000000E+00 -0.11124618770E+01  0.11124618770E+01  0.00000000000E+00 0.  1.
          1    1    1    2  502    0 -0.19693062247E+02 -0.84663721320E+01  0.12142050777E+03  0.12329815840E+03  0.00000000000E+00 0. -1.
         -1    1    1    2    0  501  0.19693062247E+02  0.84663721320E+01  0.66140384542E+03  0.66175111854E+03  0.00000000000E+00 0.  1.
</event>
<event>
 4    1  0.6824761E+001  0.2070929E+02  0.7546771E-02  0.1523456E+00
          2   -1    0    0  502    0  0.00000000000E+00  0.00000000000E+00  0.18072174787E+01  0.18072174787E+01  0.00000000000E+00 0. -1.
         -2   -1    0    0    0  501 -0.00000000000E+00 -0.00000000000E+00 -0.24392962048E+03  0.24392962048E+03  0.00000000000E+00 0.  1.
          1    1    1    2  502    0 -0.16475097564E+02 -0.12547750205E+02 -0.14129839112E+03  0.14280794869E+03  0.00000000000E+00 0. -1.
         -1    1    1    2    0  501  0.16475097564E+02  0.12547750205E+02 -0.10082401188E+03  0.10292888927E+03  0.00000000000E+00 0.  1.
</event>
<event>
 4    1  0.6824761E+001  0.2206839E+02  0.7546771E-02  0.1504540E+00
          2   -1    0    0  502    0  0.00000000000E+00  0.00000000000E+00  0.29946087780E+03  0.29946087780E+03  0.00000000000E+00 0.  1.
         -2   -1    0    0    0  501 -0.00000000000E+00 -0.00000000000E+00 -0.20139907691E+01  0.20139907691E+01  0.00000000000E+00 0. -1.
          1    1    1    2  502    0  0.93041400272E+01 -0.20011163778E+02  0.82588006328E+02  0.85485627369E+02  0.00000000000E+00 0. -1.
         -1    1    1    2    0  501 -0.93041400272E+01  0.20011163778E+02  0.21485888071E+03  0.21598924120E+03  0.00000000000E+00 0.  1.
</event>
<event>
 4    1  0.6824761E+001  0.2616536E+02  0.7546771E-02  0.1456177E+00
          2   -1    0    0  502    0  0.00000000000E+00  0.00000000000E+00  0.69745945200E+03  0.69745945200E+03  0.00000000000E+00 0.  1.
         -2   -1    0    0    0  501 -0.00000000000E+00 -0.00000000000E+00 -0.27092424655E+01  0.27092424655E+01  0.00000000000E+00 0. -1.
          1    1    1    2  502    0  0.76594701479E+01 -0.25019166948E+02  0.67814680137E+02  0.72687392578E+02  0.00000000000E+00 0. -1.
         -1    1    1    2    0  501 -0.76594701479E+01  0.25019166948E+02  0.62693552940E+03  0.62748130189E+03  0.00000000000E+00 0.  1.
</event>
<event>
 4    1  0.6824761E+001  0.4881605E+02  0.7546771E-02  0.1303389E+00
          2   -1    0    0  502    0  0.00000000000E+00  0.00000000000E+00  0.35998527619E+04  0.35998527619E+04  0.00000000000E+00 0.  1.
         -2   -1    0    0    0  501 -0.00000000000E+00 -0.00000000000E+00 -0.74383401703E+00  0.74383401703E+00  0.00000000000E+00 0. -1.
          1    1    1    2  502    0  0.46340713629E+02 -0.15347473164E+02  0.23967877902E+04  0.23972848637E+04  0.00000000000E+00 0.  1.
         -1    1    1    2    0  501 -0.46340713629E+02  0.15347473164E+02  0.12023211378E+04  0.12033117323E+04  0.00000000000E+00 0. -1.
</event>
<event>
 4    1  0.6824761E+001  0.2144599E+02  0.7546771E-02  0.1512992E+00
          2   -1    0    0  502    0  0.00000000000E+00  0.00000000000E+00  0.39667721958E+01  0.39667721958E+01  0.00000000000E+00 0. -1.
         -2   -1    0    0    0  501 -0.00000000000E+00 -0.00000000000E+00 -0.12369314035E+03  0.12369314035E+03  0.00000000000E+00 0.  1.
          1    1    1    2  502    0  0.16531438476E+02 -0.13661702133E+02 -0.43888652046E+02  0.48848176442E+02  0.00000000000E+00 0. -1.
         -1    1    1    2    0  501 -0.16531438476E+02  0.13661702133E+02 -0.75837716110E+02  0.78811736106E+02  0.00000000000E+00 0.  1.
</event>
<event>
 4    1  0.6824761E+001  0.2120926E+02  0.7546771E-02  0.1516298E+00
          2   -1    0    0  502    0  0.00000000000E+00  0.00000000000E+00  0.51633133473E+01  0.51633133473E+01  0.00000000000E+00 0.  1.
         -2   -1    0    0    0  501 -0.00000000000E+00 -0.00000000000E+00 -0.96298722448E+02  0.96298722448E+02  0.00000000000E+00 0. -1.
          1    1    1    2  502    0 -0.21200842957E+02 -0.59759581923E+00 -0.29906271318E+02  0.36663577662E+02  0.00000000000E+00 0. -1.
         -1    1    1    2    0  501  0.21200842957E+02  0.59759581923E+00 -0.61229137782E+02  0.64798458132E+02  0.00000000000E+00 0.  1.
</event>
<event>
 4    1  0.6824761E+001  0.3225613E+02  0.7546771E-02  0.1400953E+00
          2   -1    0    0  502    0  0.00000000000E+00  0.00000000000E+00  0.33395356437E+03  0.33395356437E+03  0.00000000000E+00 0.  1.
         -2   -1    0    0    0  501 -0.00000000000E+00 -0.00000000000E+00 -0.44274982211E+01  0.44274982211E+01  0.00000000000E+00 0. -1.
          1    1    1    2  502    0  0.32115198662E+02 -0.30119510581E+01  0.72664897363E+02  0.79502485137E+02  0.00000000000E+00 0. -1.
         -1    1    1    2    0  501 -0.32115198662E+02  0.30119510581E+01  0.25686116878E+03  0.25887857745E+03  0.00000000000E+00 0.  1.
</event>
<event>
 4    1  0.6824761E+001  0.3163222E+02  0.7546771E-02  0.1405923E+00
          2   -1    0    0  502    0  0.00000000000E+00  0.00000000000E+00  0.74049662934E+02  0.74049662934E+02  0.00000000000E+00 0.  1.
         -2   -1    0    0    0  501 -0.00000000000E+00 -0.00000000000E+00 -0.30859278972E+02  0.30859278972E+02  0.00000000000E+00 0. -1.
          1    1    1    2  502    0 -0.25399998959E+02 -0.18853054965E+02 -0.17732529261E+02  0.36263483322E+02  0.00000000000E+00 0. -1.
         -1    1    1    2    0  501  0.25399998959E+02  0.18853054965E+02  0.60922913223E+02  0.68645458584E+02  0.00000000000E+00 0.  1.
</event>
<event>
 4    1  0.6824761E+001  0.2529537E+02  0.7546771E-02  0.1465526E+00
          2   -1    0    0  502    0  0.00000000000E+00  0.00000000000E+00  0.48420089609E+03  0.48420089609E+03  0.00000000000E+00 0. -1.
         -2   -1    0    0    0  501 -0.00000000000E+00 -0.00000000000E+00 -0.15039439264E+01  0.15039439264E+01  0.00000000000E+00 0.  1.
          1    1    1    2  502    0 -0.93815314002E+01  0.23491334321E+02  0.15675642125E+03  0.15878422946E+03  0.00000000000E+00 0. -1.
         -1    1    1    2    0  501  0.93815314002E+01 -0.23491334321E+02  0.32594053091E+03  0.32692061056E+03  0.00000000000E+00 0.  1.
</event>
<event>
 4    1  0.6824761E+001  0.2796694E+02  0.7546771E-02  0.1438130E+00
          2   -1    0    0  502    0  0.00000000000E+00  0.00000000000E+00  0.87287227680E+03  0.87287227680E+03  0.00000000000E+00 0.  1.
         -2   -1    0    0    0  501 -0.00000000000E+00 -0.00000000000E+00 -0.10519386341E+01  0.10519386341E+01  0.00000000000E+00 0. -1.
          1    1    1    2  502    0 -0.31617804495E+01 -0.27787638894E+02  0.60411397116E+03  0.60476097748E+03  0.00000000000E+00 0. -1.
         -1    1    1    2    0  501  0.31617804495E+01  0.27787638894E+02  0.26770636701E+03  0.26916323796E+03  0.00000000000E+00 0.  1.
</event>
<event>
 4    1  0.6824761E+001  0.2552326E+02  0.7546771E-02  0.1463034E+00
          2   -1    0    0  502    0  0.00000000000E+00  0.00000000000E+00  0.66003008607E+02  0.66003008607E+02  0.00000000000E+00 0.  1.
         -2   -1    0    0    0  501 -0.00000000000E+00 -0.00000000000E+00 -0.12380487298E+02  0.12380487298E+02  0.00000000000E+00 0. -1.
          1    1    1    2  502    0  0.25523254463E+02 -0.22768399212E-01  0.91622093349E+01  0.27117948238E+02  0.00000000000E+00 0. -1.
         -1    1    1    2    0  501 -0.25523254463E+02  0.22768399212E-01  0.44460311974E+02  0.51265547667E+02  0.00000000000E+00 0.  1.
</event>
<event>
 4    1  0.6824761E+001  0.2731031E+02  0.7546771E-02  0.1444516E+00
          2   -1    0    0  502    0  0.00000000000E+00  0.00000000000E+00  0.17403194485E+04  0.17403194485E+04  0.00000000000E+00 0.  1.
         -2   -1    0    0    0  501 -0.00000000000E+00 -0.00000000000E+00 -0.11908077291E+01  0.11908077291E+01  0.00000000000E+00 0. -1.
          1    1    1    2  502    0 -0.27099915765E+02 -0.33834566196E+01  0.17290620369E+03  0.17504973147E+03  0.00000000000E+00 0. -1.
         -1    1    1    2    0  501  0.27099915765E+02  0.33834566196E+01  0.15662224371E+04  0.15664605248E+04  0.00000000000E+00 0.  1.
</event>
<event>
 4    1  0.6824761E+001  0.2692480E+02  0.7546771E-02  0.1448365E+00
          2   -1    0    0  502    0  0.00000000000E+00  0.00000000000E+00  0.52299053184E+03  0.52299053184E+03  0.00000000000E+00 0.  1.
         -2   -1    0    0    0  501 -0.00000000000E+00 -0.00000000000E+00 -0.16137786604E+01  0.16137786604E+01  0.00000000000E+00 0. -1.
          1    1    1    2  502    0 -0.26352712998E+02  0.55208044155E+01  0.16217601664E+03  0.16439587932E+03  0.00000000000E+00 0.  1.
         -1    1    1    2    0  501  0.26352712998E+02 -0.55208044155E+01  0.35920073654E+03  0.36020843118E+03  0.00000000000E+00 0. -1.
</event>
<event>
 4    1  0.6824761E+001  0.2272413E+02  0.7546771E-02  0.1495992E+00
          2   -1    0    0  502    0  0.00000000000E+00  0.00000000000E+00  0.93095725305E+02  0.93095725305E+02  0.00000000000E+00 0. -1.
         -2   -1    0    0    0  501 -0.00000000000E+00 -0.00000000000E+00 -0.55928029769E+01  0.55928029769E+01  0.00000000000E+00 0.  1.
          1    1    1    2  502    0  0.15317608003E+02 -0.16785620504E+02  0.39277700044E+02  0.45377570356E+02  0.00000000000E+00 0.  1.
         -1    1    1    2    0  501 -0.15317608003E+02  0.16785620504E+02  0.48225222283E+02  0.53310957925E+02  0.00000000000E+00 0. -1.
</event>
<event>
 4    1  0.6824761E+001  0.2018667E+02  0.7546771E-02  0.1531201E+00
          2   -1    0    0  502    0  0.00000000000E+00  0.00000000000E+00  0.17696095474E+02  0.17696095474E+02  0.00000000000E+00 0. -1.
         -2   -1    0    0    0  501 -0.00000000000E+00 -0.00000000000E+00 -0.25496420489E+02  0.25496420489E+02  0.00000000000E+00 0.  1.
          1    1    1    2  502    0 -0.13266811014E+02  0.15214901603E+02  0.28198372381E+01  0.20382663892E+02  0.00000000000E+00 0. -1.
         -1    1    1    2    0  501  0.13266811014E+02 -0.15214901603E+02 -0.10620162253E+02  0.22809852072E+02  0.00000000000E+00 0.  1.
</event>
<event>
 4    1  0.6824761E+001  0.4759436E+02  0.7546771E-02  0.1308953E+00
          2   -1    0    0  502    0  0.00000000000E+00  0.00000000000E+00  0.16274616404E+04  0.16274616404E+04  0.00000000000E+00 0. -1.
         -2   -1    0    0    0  501 -0.00000000000E+00 -0.00000000000E+00 -0.15296407239E+01  0.15296407239E+01  0.00000000000E+00 0.  1.
          1    1    1    2  502    0 -0.47490597150E+02  0.31410821617E+01  0.56853032411E+03  0.57051902041E+03  0.00000000000E+00 0. -1.
         -1    1    1    2    0  501  0.47490597150E+02 -0.31410821617E+01  0.10574016756E+04  0.10584722607E+04  0.00000000000E+00 0.  1.
</event>
<event>
 4    1  0.6824761E+001  0.3091547E+02  0.7546771E-02  0.1411804E+00
          2   -1    0    0  502    0  0.00000000000E+00  0.00000000000E+00  0.22024835368E+02  0.22024835368E+02  0.00000000000E+00 0.  1.
         -2   -1    0    0    0  501 -0.00000000000E+00 -0.00000000000E+00 -0.43480655554E+02  0.43480655554E+02  0.00000000000E+00 0. -1.
          1    1    1    2  502    0  0.29003008129E+02  0.10704763596E+02 -0.12182114568E+02  0.33229058962E+02  0.00000000000E+00 0.  1.
         -1    1    1    2    0  501 -0.29003008129E+02 -0.10704763596E+02 -0.92737056170E+01  0.32276431960E+02  0.00000000000E+00 0. -1.
</event>
<event>
 4    1  0.6824761E+001  0.2246613E+02  0.7546771E-02  0.1499313E+00
          2   -1    0    0  502    0  0.00000000000E+00  0.00000000000E+00  0.38689273160E+03  0.38689273160E+03  0.00000000000E+00 0.  1.
         -2   -1    0    0    0  501 -0.00000000000E+00 -0.00000000000E+00 -0.55886831788E+01  0.55886831788E+01  0.00000000000E+00 0. -1.
          1    1    1    2  502    0 -0.16456666042E+02 -0.15293952214E+02  0.18835447552E+02  0.29317246051E+02  0.00000000000E+00 0. -1.
         -1    1    1    2    0  501  0.16456666042E+02  0.15293952214E+02  0.36246860087E+03  0.36316416873E+03  0.00000000000E+00 0.  1.
</event>
<event>
 4    1  0.6824761E+001  0.3404050E+02  0.7546771E-02  0.1387437E+00
          2   -1    0    0  502    0  0.00000000000E+00  0.00000000000E+00  0.36982615023E+02  0.36982615023E+02  0.00000000000E+00 0. -1.
         -2   -1    0    0    0  501 -0.00000000000E+00 -0.00000000000E+00 -0.31418238675E+02  0.31418238675E+02  0.00000000000E+00 0.  1.
          1    1    1    2  502    0 -0.20558708174E+02  0.27131079350E+02  0.45693123872E+01  0.34345808539E+02  0.00000000000E+00 0. -1.
         -1    1    1    2    0  501  0.20558708174E+02 -0.27131079350E+02  0.99506396091E+00  0.34055045159E+02  0.00000000000E+00 0.  1.
</event>
<event>
 4    1  0.6824761E+001  0.2371270E+02  0.7546771E-02  0.1483738E+00
          2   -1    0    0  502    0  0.00000000000E+00  0.00000000000E+00  0.31290354304E+01  0.31290354304E+01  0.00000000000E+00 0. -1.
         -2   -1    0    0    0  501 -0.00000000000E+00 -0.00000000000E+00 -0.31265294687E+03  0.31265294687E+03  0.00000000000E+00 0.  1.
          1    1    1    2  502    0  0.18272575167E+02 -0.15113078075E+02 -0.25772295310E+03  0.25881153893E+03  0.00000000000E+00 0.  1.
         -1    1    1    2    0  501 -0.18272575167E+02  0.15113078075E+02 -0.51800958339E+02  0.56970443363E+02  0.00000000000E+00 0. -1.
</event>
<event>
 4    1  0.6824761E+001  0.1145193E+03  0.7546771E-02  0.1140782E+00
          2   -1    0    0  502    0  0.00000000000E+00  0.00000000000E+00  0.96762321669E+03  0.96762321669E+03  0.00000000000E+00 0. -1.
         -2   -1    0    0    0  501 -0.00000000000E+00 -0.00000000000E+00 -0.16646447937E+02  0.16646447937E+02  0.00000000000E+00 0.  1.
          1    1    1    2  502    0  0.78939760519E+02 -0.82964959040E+02  0.68762245353E+03  0.69709347208E+03  0.00000000000E+00 0. -1.
         -1    1    1    2    0  501 -0.78939760519E+02  0.82964959040E+02  0.26335431523E+03  0.28717619255E+03  0.00000000000E+00 0.  1.
</event>
<event>
 4    1  0.6824761E+001  0.3477804E+02  0.7546771E-02  0.1382130E+00
          2   -1    0    0  502    0  0.00000000000E+00  0.00000000000E+00  0.12406324104E+03  0.12406324104E+03  0.00000000000E+00 0. -1.
         -2   -1    0    0    0  501 -0.00000000000E+00 -0.00000000000E+00 -0.12532869684E+02  0.12532869684E+02  0.00000000000E+00 0.  1.
          1    1    1    2  502    0  0.29009511876E+01  0.34656835405E+02  0.23577078265E+02  0.42016548854E+02  0.00000000000E+00 0.  1.
         -1    1    1    2    0  501 -0.29009511876E+01 -0.34656835405E+02  0.87953293090E+02  0.94579561870E+02  0.00000000000E+00 0. -1.
</event>
<event>
 4    1  0.6824761E+001  0.2360086E+02  0.7546771E-02  0.1485088E+00
          2   -1    0    0  502    0  0.00000000000E+00  0.00000000000E+00  0.32383105929E+03  0.32383105929E+03  0.00000000000E+00 0.  1.
         -2   -1    0    0    0  501 -0.00000000000E+00 -0.00000000000E+00 -0.21144437149E+01  0.21144437149E+01  0.00000000000E+00 0. -1.
          1    1    1    2  502    0  0.13675974614E+02  0.19234555149E+02  0.23124503971E+03  0.23244627075E+03  0.00000000000E+00 0.  1.
         -1    1    1    2    0  501 -0.13675974614E+02 -0.19234555149E+02  0.90471575861E+02  0.93499232255E+02  0.00000000000E+00 0. -1.
</event>
<event>
 4    1  0.6824761E+001  0.3540385E+02  0.7546771E-02  0.1377746E+00
          2   -1    0    0  502    0  0.00000000000E+00  0.00000000000E+00  0.12300235518E+04  0.12300235518E+04  0.00000000000E+00 0.  1.
         -2   -1    0    0    0  501 -0.00000000000E+00 -0.00000000000E+00 -0.11090205670E+01  0.11090205670E+01  0.00000000000E+00 0. -1.
          1    1    1    2  502    0  0.11323843617E+02 -0.33544048676E+02  0.78980498217E+03  0.79059809163E+03  0.00000000000E+00 0.  1.
         -1    1    1    2    0  501 -0.11323843617E+02  0.33544048676E+02  0.43910954909E+03  0.44053448075E+03  0.00000000000E+00 0. -1.
</event>
<event>
 4    1  0.6824761E+001  0.2569744E+02  0.7546771E-02  0.1461150E+00
          2   -1    0    0  502    0  0.00000000000E+00  0.00000000000E+00  0.33345372160E+03  0.33345372160E+03  0.00000000000E+00 0.  1.
         -2   -1    0    0    0  501 -0.00000000000E+00 -0.00000000000E+00 -0.28029772269E+01  0.28029772269E+01  0.00000000000E+00 0. -1.
          1    1    1    2  502    0 -0.21605027760E+02  0.13913344393E+02  0.74243889288E+02  0.78565345245E+02  0.00000000000E+00 0. -1.
         -1    1    1    2    0  501  0.21605027760E+02 -0.13913344393E+02  0.25640685509E+03  0.25769135359E+03  0.00000000000E+00 0.  1.
</event>
<event>
 4    1  0.6824761E+001  0.3313240E+02  0.7546771E-02  0.1394191E+00
          2   -1    0    0  502    0  0.00000000000E+00  0.00000000000E+00  0.49041224001E+03  0.49041224001E+03  0.00000000000E+00 0. -1.
         -2   -1    0    0    0  501 -0.00000000000E+00 -0.00000000000E+00 -0.43886629194E+01  0.43886629194E+01  0.00000000000E+00 0.  1.
          1    1    1    2  502    0  0.30731451423E+02 -0.12382793433E+02  0.69840186992E+02  0.77300759368E+02  0.00000000000E+00 0.  1.
         -1    1    1    2    0  501 -0.30731451423E+02  0.12382793433E+02  0.41618339010E+03  0.41750014356E+03  0.00000000000E+00 0. -1.
</event>
<event>
 4    1  0.6824761E+001  0.3799944E+02  0.7546771E-02  0.1360625E+00
          2   -1    0    0  502    0  0.00000000000E+00  0.00000000000E+00  0.10720209377E+04  0.10720209377E+04  0.00000000000E+00 0. -1.
         -2   -1    0    0    0  501 -0.00000000000E+00 -0.00000000000E+00 -0.22231128620E+01  0.22231128620E+01  0.00000000000E+00 0.  1.
          1    1    1    2  502    0  0.95997890482E+01 -0.36766857933E+02  0.19770104955E+03  0.20131980227E+03  0.00000000000E+00 0.  1.
         -1    1    1    2    0  501 -0.95997890482E+01  0.36766857933E+02  0.87209677533E+03  0.87292424834E+03  0.00000000000E+00 0. -1.
</event>
<event>
 4    1  0.6824761E+001  0.2931485E+02  0.7546771E-02  0.1425645E+00
          2   -1    0    0  502    0  0.00000000000E+00  0.00000000000E+00  0.15428918712E+04  0.15428918712E+04  0.00000000000E+00 0.  1.
         -2   -1    0    0    0  501 -0.00000000000E+00 -0.00000000000E+00 -0.91366175240E+00  0.91366175240E+00  0.00000000000E+00 0. -1.
          1    1    1    2  502    0 -0.19575247199E+02 -0.21821325989E+02  0.12532811088E+04  0.12536239062E+04  0.00000000000E+00 0.  1.
         -1    1    1    2    0  501  0.19575247199E+02  0.21821325989E+02  0.28869710064E+03  0.29018162672E+03  0.00000000000E+00 0. -1.
</event>
<event>
 4    1  0.6824761E+001  0.2963687E+02  0.7546771E-02  0.1422779E+00
          2   -1    0    0  502    0  0.00000000000E+00  0.00000000000E+00  0.70124934821E+03  0.70124934821E+03  0.00000000000E+00 0.  1.
         -2   -1    0    0    0  501 -0.00000000000E+00 -0.00000000000E+00 -0.12704003232E+01  0.12704003232E+01  0.00000000000E+00 0. -1.
          1    1    1    2  502    0 -0.97399297958E+01  0.27990671886E+02  0.30834244138E+03  0.30976346637E+03  0.00000000000E+00 0. -1.
         -1    1    1    2    0  501  0.97399297958E+01 -0.27990671886E+02  0.39163650651E+03  0.39275628216E+03  0.00000000000E+00 0.  1.
</event>
<event>
 4    1  0.6824761E+001  0.3455521E+02  0.7546771E-02  0.1383717E+00
          2   -1    0    0  502    0  0.00000000000E+00  0.00000000000E+00  0.18748554011E+04  0.18748554011E+04  0.00000000000E+00 0. -1.
         -2   -1    0    0    0  501 -0.00000000000E+00 -0.00000000000E+00 -0.66640514856E+00  0.66640514856E+00  0.00000000000E+00 0.  1.
          1    1    1    2  502    0  0.21480328688E+02  0.27067652669E+02  0.73971519859E+03  0.74052186825E+03  0.00000000000E+00 0.  1.
         -1    1    1    2    0  501 -0.21480328688E+02 -0.27067652669E+02  0.11344737974E+04  0.11349999380E+04  0.00000000000E+00 0. -1.
</event>
<event>
 4    1  0.6824761E+001  0.6103500E+02  0.7546771E-02  0.1256356E+00
          2   -1    0    0  502    0  0.00000000000E+00  0.00000000000E+00  0.15562931361E+04  0.15562931361E+04  0.00000000000E+00 0.  1.
         -2   -1    0    0    0  501 -0.00000000000E+00 -0.00000000000E+00 -0.24425479307E+01  0.24425479307E+01  0.00000000000E+00 0. -1.
          1    1    1    2  502    0  0.20139576147E+02 -0.57616567804E+02  0.88716104435E+03  0.88925811215E+03  0.00000000000E+00 0. -1.
         -1    1    1    2    0  501 -0.20139576147E+02  0.57616567804E+02  0.66668954382E+03  0.66947757188E+03  0.00000000000E+00 0.  1.
</event>
<event>
 4    1  0.6824761E+001  0.2114770E+02  0.7546771E-02  0.1517166E+00
          2   -1    0    0  502    0  0.00000000000E+00  0.00000000000E+00  0.75677829330E+02  0.75677829330E+02  0.00000000000E+00 0. -1.
         -2   -1    0    0    0  501 -0.00000000000E+00 -0.00000000000E+00 -0.10479531563E+02  0.10479531563E+02  0.00000000000E+00 0.  1.
          1    1    1    2  502    0  0.13970067880E+02  0.15876479843E+02  0.61046804905E+02  0.64606019827E+02  0.00000000000E+00 0. -1.
         -1    1    1    2    0  501 -0.13970067880E+02 -0.15876479843E+02  0.41514928627E+01  0.21551341066E+02  0.00000000000E+00 0.  1.
</event>
<event>
 4    1  0.6824761E+001  0.2163225E+02  0.7546771E-02  0.1510426E+00
          2   -1    0    0  502    0  0.00000000000E+00  0.00000000000E+00  0.58306616652E+03  0.58306616652E+03  0.00000000000E+00 0. -1.
         -2   -1    0    0    0  501 -0.00000000000E+00 -0.00000000000E+00 -0.87945129946E+00  0.87945129946E+00  0.00000000000E+00 0.  1.
          1    1    1    2  502    0 -0.20825874732E+02 -0.58512636099E+01  0.37741757900E+03  0.37803701311E+03  0.00000000000E+00 0. -1.
         -1    1    1    2    0  501  0.20825874732E+02  0.58512636099E+01  0.20476913622E+03  0.20590860470E+03  0.00000000000E+00 0.  1.
</event>
<event>
 4    1  0.6824761E+001  0.3666023E+02  0.7546771E-02  0.1369252E+00
          2   -1    0    0  502    0  0.00000000000E+00  0.00000000000E+00  0.23566194810E+03  0.23566194810E+03  0.00000000000E+00 0.  1.
         -2   -1    0    0    0  501 -0.00000000000E+00 -0.00000000000E+00 -0.11979745681E+02  0.11979745681E+02  0.00000000000E+00 0. -1.
          1    1    1    2  502    0  0.33110301329E+02 -0.15737855114E+02  0.20146800721E+03  0.20477629274E+03  0.00000000000E+00 0.  1.
         -1    1    1    2    0  501 -0.33110301329E+02  0.15737855114E+02  0.22214195202E+02  0.42865401038E+02  0.00000000000E+00 0. -1.
</event>
<event>
 4    1  0.6824761E+001  0.2582532E+02  0.7546771E-02  0.1459779E+00
          2   -1    0    0  502    0  0.00000000000E+00  0.00000000000E+00  0.34489774552E+01  0.34489774552E+01  0.00000000000E+00 0. -1.
         -2   -1    0    0    0  501 -0.00000000000E+00 -0.00000000000E+00 -0.19343958320E+03  0.19343958320E+03  0.00000000000E+00 0.  1.
          1    1    1    2  502    0  0.25102182948E+02  0.60685750279E+01 -0.96789325521E+02  0.10017544972E+03  0.00000000000E+00 0. -1.
         -1    1    1    2    0  501 -0.25102182948E+02 -0.60685750279E+01 -0.93201280226E+02  0.96713110939E+02  0.00000000000E+00 0.  1.
</event>
<event>
 4    1  0.6824761E+001  0.4695116E+02  0.7546771E-02  0.1311961E+00
          2   -1    0    0  502    0  0.00000000000E+00  0.00000000000E+00  0.13342921232E+04  0.13342921232E+04  0.00000000000E+00 0.  1.
         -2   -1    0    0    0  501 -0.00000000000E+00 -0.00000000000E+00 -0.17005449166E+01  0.17005449166E+01  0.00000000000E+00 0. -1.
          1    1    1    2  502    0 -0.30775088338E+02 -0.35458500373E+02  0.55357281956E+03  0.55556032784E+03  0.00000000000E+00 0. -1.
         -1    1    1    2    0  501  0.30775088338E+02  0.35458500373E+02  0.77901875869E+03  0.78043234025E+03  0.00000000000E+00 0.  1.
</event>
<event>
 4    1  0.6824761E+001  0.3054031E+02  0.7546771E-02  0.1414958E+00
          2   -1    0    0  502    0  0.00000000000E+00  0.00000000000E+00  0.67394908507E+03  0.67394908507E+03  0.00000000000E+00 0. -1.
         -2   -1    0    0    0  501 -0.00000000000E+00 -0.00000000000E+00 -0.14074755614E+01  0.14074755614E+01  0.00000000000E+00 0.  1.
          1    1    1    2  502    0 -0.19790372231E+02  0.23260515440E+02  0.37992964611E+03  0.38115514742E+03  0.00000000000E+00 0. -1.
         -1    1    1    2    0  501  0.19790372231E+02 -0.23260515440E+02  0.29261196341E+03  0.29420141322E+03  0.00000000000E+00 0.  1.
</event>
<event>
 4    1  0.6824761E+001  0.2706678E+02  0.7546771E-02  0.1446938E+00
          2   -1    0    0  502    0  0.00000000000E+00  0.00000000000E+00  0.11337114737E+04  0.11337114737E+04  0.00000000000E+00 0. -1.
         -2   -1    0    0    0  501 -0.00000000000E+00 -0.00000000000E+00 -0.15036646491E+01  0.15036646491E+01  0.00000000000E+00 0.  1.
          1    1    1    2  502    0 -0.14386999188E+02  0.22926515019E+02  0.99473072989E+03  0.99509890756E+03  0.00000000000E+00 0. -1.
         -1    1    1    2    0  501  0.14386999188E+02 -0.22926515019E+02  0.13747707921E+03  0.14011623084E+03  0.00000000000E+00 0.  1.
</event>
<event>
 4    1  0.6824761E+001  0.3757795E+02  0.7546771E-02  0.1363295E+00
          2   -1    0    0  502    0  0.00000000000E+00  0.00000000000E+00  0.61805692098E+02  0.61805692098E+02  0.00000000000E+00 0.  1.
         -2   -1    0    0    0  501 -0.00000000000E+00 -0.00000000000E+00 -0.27617174790E+02  0.27617174790E+02  0.00000000000E+00 0. -1.
          1    1    1    2  502    0 -0.19179810658E+02  0.32314657398E+02 -0.14870290091E+01  0.37607359318E+02  0.00000000000E+00 0. -1.
         -1    1    1    2    0  501  0.19179810658E+02 -0.32314657398E+02  0.35675546317E+02  0.51815507569E+02  0.00000000000E+00 0.  1.
</event>
<event>
 4    1  0.6824761E+001  0.2064382E+02  0.7546771E-02  0.1524411E+00
          2   -1    0    0  502    0  0.00000000000E+00  0.00000000000E+00  0.19689082243E+02  0.19689082243E+02  0.00000000000E+00 0.  1.
         -2   -1    0    0    0  501 -0.00000000000E+00 -0.00000000000E+00 -0.21788833308E+02  0.21788833308E+02  0.00000000000E+00 0. -1.
          1    1    1    2  502    0  0.11647993719E+02 -0.17043814616E+02  0.63595957097E+00  0.20653615154E+02  0.00000000000E+00 0. -1.
         -1    1    1    2    0  501 -0.11647993719E+02  0.17043814616E+02 -0.27357106352E+01  0.20824300397E+02  0.00000000000E+00 0.  1.
</event>
<event>
 4    1  0.6824761E+001  0.2848892E+02  0.7546771E-02  0.1433199E+00
          2   -1    0    0  502    0  0.00000000000E+00  0.00000000000E+00  0.85851803685E+02  0.85851803685E+02  0.00000000000E+00 0.  1.
         -2   -1    0    0    0  501 -0.00000000000E+00 -0.00000000000E+00 -0.14589870918E+02  0.14589870918E+02  0.00000000000E+00 0. -1.
          1    1    1    2  502    0 -0.11178017810E+02  0.26204401973E+02  0.58336477018E+01  0.29080065516E+02  0.00000000000E+00 0. -1.
         -1    1    1    2    0  501  0.11178017810E+02 -0.26204401973E+02  0.65428285065E+02  0.71361609087E+02  0.00000000000E+00 0.  1.
</event>
<event>
 4    1  0.6824761E+001  0.2018693E+02  0.7546771E-02  0.1531197E+00
          2   -1    0    0  502    0  0.00000000000E+00  0.00000000000E+00  0.67970902869E+01  0.67970902869E+01  0.00000000000E+00 0.  1.
         -2   -1    0    0    0  501 -0.00000000000E+00 -0.00000000000E+00 -0.61661680666E+02  0.61661680666E+02  0.00000000000E+00 0. -1.
          1    1    1    2  502    0  0.15198538555E+02 -0.13285946317E+02 -0.33128818209E+02  0.38794723091E+02  0.00000000000E+00 0.  1.
         -1    1    1    2    0  501 -0.15198538555E+02  0.13285946317E+02 -0.21735772170E+02  0.29664047862E+02  0.00000000000E+00 0. -1.
</event>
<event>
 4    1  0.6824761E+001  0.3298538E+02  0.7546771E-02  0.1395308E+00
          2   -1    0    0  502    0  0.00000000000E+00  0.00000000000E+00  0.53353799133E+02  0.53353799133E+02  0.00000000000E+00 0.  1.
         -2   -1    0    0    0  501 -0.00000000000E+00 -0.00000000000E+00 -0.53198187712E+02  0.53198187712E+02  0.00000000000E+00 0. -1.
          1    1    1    2  502    0  0.32862530550E+02 -0.28442244357E+01  0.41914316412E+02  0.53337092601E+02  0.00000000000E+00 0.  1.
         -1    1    1    2    0  501 -0.32862530550E+02  0.28442244357E+01 -0.41758704992E+02  0.53214894244E+02  0.00000000000E+00 0. -1.
</event>
<event>
 4    1  0.6824761E+001  0.6958344E+02  0.7546771E-02  0.1230343E+00
          2   -1    0    0  502    0  0.00000000000E+00  0.00000000000E+00  0.36032297459E+03  0.36032297459E+03  0.00000000000E+00 0. -1.
         -2   -1    0    0    0  501 -0.00000000000E+00 -0.00000000000E+00 -0.56369393979E+02  0.56369393979E+02  0.00000000000E+00 0.  1.
          1    1    1    2  502    0  0.69452660268E+02  0.42641600488E+01 -0.29848244838E+02  0.75715076433E+02  0.00000000000E+00 0.  1.
         -1    1    1    2    0  501 -0.69452660268E+02 -0.42641600488E+01  0.33380182545E+03  0.34097729214E+03  0.00000000000E+00 0. -1.
</event>
<event>
 4    1  0.6824761E+001  0.2184172E+02  0.7546771E-02  0.1507578E+00
          2   -1    0    0  502    0  0.00000000000E+00  0.00000000000E+00  0.48420975911E+02  0.48420975911E+02  0.00000000000E+00 0.  1.
         -2   -1    0    0    0  501 -0.00000000000E+00 -0.00000000000E+00 -0.10000884038E+02  0.10000884038E+02  0.00000000000E+00 0. -1.
          1    1    1    2  502    0 -0.21809017030E+02 -0.11948254923E+01  0.22769850921E+02  0.31551972089E+02  0.00000000000E+00 0. -1.
         -1    1    1    2    0  501  0.21809017030E+02  0.11948254923E+01  0.15650240951E+02  0.26869887860E+02  0.00000000000E+00 0.  1.
</event>
<event>
 4    1  0.6824761E+001  0.2964806E+02  0.7546771E-02  0.1422680E+00
          2   -1    0    0  502    0  0.00000000000E+00  0.00000000000E+00  0.23279223181E+04  0.23279223181E+04  0.00000000000E+00 0. -1.
         -2   -1    0    0    0  501 -0.00000000000E+00 -0.00000000000E+00 -0.38313928885E+00  0.38313928885E+00  0.00000000000E+00 0.  1.
          1    1    1    2  502    0  0.23920357457E+02  0.17516387707E+02  0.10237044547E+04  0.10241336914E+04  0.00000000000E+00 0.  1.
         -1    1    1    2    0  501 -0.23920357457E+02 -0.17516387707E+02  0.13038347241E+04  0.13041717659E+04  0.00000000000E+00 0. -1.
</event>
<event>
 4    1  0.6824761E+001  0.2347250E+02  0.7546771E-02  0.1486649E+00
          2   -1    0    0  502    0  0.00000000000E+00  0.00000000000E+00  0.23974786580E+02  0.23974786580E+02  0.00000000000E+00 0. -1.
         -2   -1    0    0    0  501 -0.00000000000E+00 -0.00000000000E+00 -0.27245667467E+02  0.27245667467E+02  0.00000000000E+00 0.  1.
          1    1    1    2  502    0 -0.22913888427E+01 -0.23360389661E+02  0.84971543126E+01  0.24963170859E+02  0.00000000000E+00 0. -1.
         -1    1    1    2    0  501  0.22913888427E+01  0.23360389661E+02 -0.11768035199E+02  0.26257283187E+02  0.00000000000E+00 0.  1.
</event>
<event>
 4    1  0.6824761E+001  0.2568949E+02  0.7546771E-02  0.1461236E+00
          2   -1    0    0  502    0  0.00000000000E+00  0.00000000000E+00  0.16047175216E+02  0.16047175216E+02  0.00000000000E+00 0. -1.
         -2   -1    0    0    0  501 -0.00000000000E+00 -0.00000000000E+00 -0.10034167084E+03  0.10034167084E+03  0.00000000000E+00 0.  1.
          1    1    1    2  502    0 -0.75137954026E+01  0.24566089724E+02  0.25582006432E+01  0.25816550432E+02  0.00000000000E+00 0. -1.
         -1    1    1    2    0  501  0.75137954026E+01 -0.24566089724E+02 -0.86852696266E+02  0.90572295623E+02  0.00000000000E+00 0.  1.
</event>
<event>
 4    1  0.6824761E+001  0.2183922E+02  0.7546771E-02  0.1507612E+00
          2   -1    0    0  502    0  0.00000000000E+00  0.00000000000E+00  0.43942915046E+02  0.43942915046E+02  0.00000000000E+00 0. -1.
         -2   -1    0    0    0  501 -0.00000000000E+00 -0.00000000000E+00 -0.11026064603E+02  0.11026064603E+02  0.00000000000E+00 0.  1.
          1    1    1    2  502    0 -0.51210471744E+01 -0.21230323136E+02  0.19892872374E+02  0.29541125840E+02  0.00000000000E+00 0. -1.
         -1    1    1    2    0  501  0.51210471744E+01  0.21230323136E+02  0.13023978068E+02  0.25427853809E+02  0.00000000000E+00 0.  1.
</event>
<event>
 4    1  0.6824761E+001  0.2665135E+02  0.7546771E-02  0.1451142E+00
          2   -1    0    0  502    0  0.00000000000E+00  0.00000000000E+00  0.17951148876E+03  0.17951148876E+03  0.00000000000E+00 0.  1.
         -2   -1    0    0    0  501 -0.00000000000E+00 -0.00000000000E+00 -0.50377248549E+01  0.50377248549E+01  0.00000000000E+00 0. -1.
          1    1    1    2  502    0  0.26651152607E+02 -0.10209898284E+00  0.12997929521E+03  0.13268350140E+03  0.00000000000E+00 0.  1.
         -1    1    1    2    0  501 -0.26651152607E+02  0.10209898284E+00  0.44494468695E+02  0.51865712219E+02  0.00000000000E+00 0. -1.
</event>
<event>
 4    1  0.6824761E+001  0.2313770E+02  0.7546771E-02  0.1490776E+00
          2   -1    0    0  502    0  0.00000000000E+00  0.00000000000E+00  0.12299448584E+02  0.12299448584E+02  0.00000000000E+00 0.  1.
         -2   -1    0    0    0  501 -0.00000000000E+00 -0.00000000000E+00 -0.43914940058E+02  0.43914940058E+02  0.00000000000E+00 0. -1.
          1    1    1    2  502    0  0.11540900391E+02 -0.20053942006E+02 -0.18450926430E+02  0.29593743560E+02  0.00000000000E+00 0.  1.
         -1    1    1    2    0  501 -0.11540900391E+02  0.20053942006E+02 -0.13164565044E+02  0.26620645082E+02  0.00000000000E+00 0. -1.
</event>
<event>
 4    1  0.6824761E+001  0.2031587E+02  0.7546771E-02  0.1529261E+00
          2   -1    0    0  502    0  0.00000000000E+00  0.00000000000E+00  0.11755039899E+04  0.11755039899E+04  0.00000000000E+00 0. -1.
         -2   -1    0    0    0  501 -0.00000000000E+00 -0.00000000000E+00 -0.13109705477E+01  0.13109705477E+01  0.00000000000E+00 0.  1.
          1    1    1    2  502    0 -0.19450027472E+02  0.58677955727E+01  0.10905798867E+04  0.10907690974E+04  0.00000000000E+00 0. -1.
         -1    1    1    2    0  501  0.19450027472E+02 -0.58677955727E+01  0.83613132617E+02  0.86045863001E+02  0.00000000000E+00 0.  1.
</event>
<event>
 4    1  0.6824761E+001  0.2489344E+02  0.7546771E-02  0.1469999E+00
          2   -1    0    0  502    0  0.00000000000E+00  0.00000000000E+00  0.45890709954E+02  0.45890709954E+02  0.00000000000E+00 0.  1.
         -2   -1    0    0    0  501 -0.00000000000E+00 -0.00000000000E+00 -0.33572939856E+03  0.33572939856E+03  0.00000000000E+00 0. -1.
          1    1    1    2  502    0  0.57558671690E+01  0.24218861785E+02  0.42014018562E+02  0.48835038945E+02  0.00000000000E+00 0.  1.
         -1    1    1    2    0  501 -0.57558671690E+01 -0.24218861785E+02 -0.33185270717E+03  0.33278506957E+03  0.00000000000E+00 0. -1.
</event>
<event>
 4    1  0.6824761E+001  0.2410601E+02  0.7546771E-02  0.1479058E+00
          2   -1    0    0  502    0  0.00000000000E+00  0.00000000000E+00  0.23446103915E+01  0.23446103915E+01  0.00000000000E+00 0.  1.
         -2   -1    0    0    0  501 -0.00000000000E+00 -0.00000000000E+00 -0.24970412766E+03  0.24970412766E+03  0.00000000000E+00 0. -1.
          1    1    1    2  502    0  0.23981903234E+02  0.24429261932E+01 -0.11280509649E+03  0.11535202367E+03  0.00000000000E+00 0. -1.
         -1    1    1    2    0  501 -0.23981903234E+02 -0.24429261932E+01 -0.13455442078E+03  0.13669671438E+03  0.00000000000E+00 0.  1.
</event>
<event>
 4    1  0.6824761E+001  0.2795455E+02  0.7546771E-02  0.1438248E+00
          2   -1    0    0  502    0  0.00000000000E+00  0.00000000000E+00  0.92570293055E+03  0.92570293055E+03  0.00000000000E+00 0. -1.
         -2   -1    0    0    0  501 -0.00000000000E+00 -0.00000000000E+00 -0.11864768494E+01  0.11864768494E+01  0.00000000000E+00 0.  1.
          1    1    1    2  502    0  0.27947015961E+02 -0.64882276757E+00  0.21333125737E+03  0.21515501863E+03  0.00000000000E+00 0.  1.
         -1    1    1    2    0  501 -0.27947015961E+02  0.64882276757E+00  0.71118519633E+03  0.71173438877E+03  0.00000000000E+00 0. -1.
</event>
<event>
 4    1  0.6824761E+001  0.2329494E+02  0.7546771E-02  0.1488827E+00
          2   -1    0    0  502    0  0.00000000000E+00  0.00000000000E+00  0.70364152978E+02  0.70364152978E+02  0.00000000000E+00 0.  1.
         -2   -1    0    0    0  501 -0.00000000000E+00 -0.00000000000E+00 -0.77170312403E+01  0.77170312403E+01  0.00000000000E+00 0. -1.
          1    1    1    2  502    0  0.21511865114E+02  0.89383270274E+01  0.32312375128E+02  0.39833950559E+02  0.00000000000E+00 0. -1.
         -1    1    1    2    0  501 -0.21511865114E+02 -0.89383270274E+01  0.30334746609E+02  0.38247233659E+02  0.00000000000E+00 0.  1.
</event>
<event>
 4    1  0.6824761E+001  0.3083017E+02  0.7546771E-02  0.1412517E+00
          2   -1    0    0  502    0  0.00000000000E+00  0.00000000000E+00  0.94151411756E+03  0.94151411756E+03  0.00000000000E+00 0.  1.
         -2   -1    0    0    0  501 -0.00000000000E+00 -0.00000000000E+00 -0.10822873087E+01  0.10822873087E+01  0.00000000000E+00 0. -1.
          1    1    1    2  502    0 -0.16221290243E+01  0.30787468806E+02  0.59240214456E+03  0.59320384390E+03  0.00000000000E+00 0.  1.
         -1    1    1    2    0  501  0.16221290243E+01 -0.30787468806E+02  0.34802968569E+03  0.34939256097E+03  0.00000000000E+00 0. -1.
</event>
<event>
 4    1  0.6824761E+001  0.2336227E+02  0.7546771E-02  0.1487999E+00
          2   -1    0    0  502    0  0.00000000000E+00  0.00000000000E+00  0.16076973190E+01  0.16076973190E+01  0.00000000000E+00 0. -1.
         -2   -1    0    0    0  501 -0.00000000000E+00 -0.00000000000E+00 -0.34774538309E+03  0.34774538309E+03  0.00000000000E+00 0.  1.
          1    1    1    2  502    0 -0.16925690978E+02 -0.16103307980E+02 -0.19998412963E+03  0.20134410259E+03  0.00000000000E+00 0.  1.
         -1    1    1    2    0  501  0.16925690978E+02  0.16103307980E+02 -0.14615355613E+03  0.14800897781E+03  0.00000000000E+00 0. -1.
</event>
<event>
 4    1  0.6824761E+001  0.3440041E+02  0.7546771E-02  0.1384828E+00
          2   -1    0    0  502    0  0.00000000000E+00  0.00000000000E+00  0.74272236626E+03  0.74272236626E+03  0.00000000000E+00 0. -1.
         -2   -1    0    0    0  501 -0.00000000000E+00 -0.00000000000E+00 -0.15988254992E+01  0.15988254992E+01  0.00000000000E+00 0.  1.
          1    1    1    2  502    0  0.22692946562E+02 -0.25853788305E+02  0.39241711136E+03  0.39392204493E+03  0.00000000000E+00 0.  1.
         -1    1    1    2    0  501 -0.22692946562E+02  0.25853788305E+02  0.34870642939E+03  0.35039914682E+03  0.00000000000E+00 0. -1.
</event>
<event>
 4    1  0.6824761E+001  0.2521560E+02  0.7546771E-02  0.1466406E+00
          2   -1    0    0  502    0  0.00000000000E+00  0.00000000000E+00  0.35313948757E+03  0.35313948757E+03  0.00000000000E+00 0.  1.
         -2   -1    0    0    0  501 -0.00000000000E+00 -0.00000000000E+00 -0.25271620644E+01  0.25271620644E+01  0.00000000000E+00 0. -1.
          1    1    1    2  502    0 -0.25213213891E+02  0.34655292038E+00  0.79946649649E+02  0.83828951107E+02  0.00000000000E+00 0. -1.
         -1    1    1    2    0  501  0.25213213891E+02 -0.34655292038E+00  0.27066567585E+03  0.27183769852E+03  0.00000000000E+00 0.  1.
</event>
<event>
 4    1  0.6824761E+001  0.5376429E+02  0.7546771E-02  0.1282628E+00
          2   -1    0    0  502    0  0.00000000000E+00  0.00000000000E+00  0.98374439344E+02  0.98374439344E+02  0.00000000000E+00 0.  1.
         -2   -1    0    0    0  501 -0.00000000000E+00 -0.00000000000E+00 -0.49386472585E+02  0.49386472585E+02  0.00000000000E+00 0. -1.
          1    1    1    2  502    0  0.25595718532E+02 -0.47280630590E+02 -0.22524795240E+02  0.58292068386E+02  0.00000000000E+00 0. -1.
         -1    1    1    2    0  501 -0.25595718532E+02  0.47280630590E+02  0.71512761999E+02  0.89468843543E+02  0.00000000000E+00 0.  1.
</event>
<event>
 4    1  0.6824761E+001  0.3074740E+02  0.7546771E-02  0.1413211E+00
          2   -1    0    0  502    0  0.00000000000E+00  0.00000000000E+00  0.54519459617E+03  0.54519459617E+03  0.00000000000E+00 0. -1.
         -2   -1    0    0    0  501 -0.00000000000E+00 -0.00000000000E+00 -0.19820197149E+01  0.19820197149E+01  0.00000000000E+00 0.  1.
          1    1    1    2  502    0 -0.28666070164E+02 -0.11120212142E+02  0.36837389672E+03  0.36965488024E+03  0.00000000000E+00 0. -1.
         -1    1    1    2    0  501  0.28666070164E+02  0.11120212142E+02  0.17483867973E+03  0.17752173565E+03  0.00000000000E+00 0.  1.
</event>
<event>
 4    1  0.6824761E+001  0.2400929E+02  0.7546771E-02  0.1480199E+00
          2   -1    0    0  502    0  0.00000000000E+00  0.00000000000E+00  0.41696632631E+02  0.41696632631E+02  0.00000000000E+00 0.  1.
         -2   -1    0    0    0  501 -0.00000000000E+00 -0.00000000000E+00 -0.47156860731E+02  0.47156860731E+02  0.00000000000E+00 0. -1.
          1    1    1    2  502    0  0.20025686537E+02 -0.13244534217E+02 -0.40081217090E+02  0.46722048021E+02  0.00000000000E+00 0. -1.
         -1    1    1    2    0  501 -0.20025686537E+02  0.13244534217E+02  0.34620988990E+02  0.42131445341E+02  0.00000000000E+00 0.  1.
</event>
<event>
 4    1  0.6824761E+001  0.5163683E+02  0.7546771E-02  0.1291228E+00
          2   -1    0    0  502    0  0.00000000000E+00  0.00000000000E+00  0.13227477176E+04  0.13227477176E+04  0.00000000000E+00 0. -1.
         -2   -1    0    0    0  501 -0.00000000000E+00 -0.00000000000E+00 -0.21916384070E+01  0.21916384070E+01  0.00000000000E+00 0.  1.
          1    1    1    2  502    0 -0.46719714909E+02  0.21991588389E+02  0.84793701913E+03  0.84950782818E+03  0.00000000000E+00 0.  1.
         -1    1    1    2    0  501  0.46719714909E+02 -0.21991588389E+02  0.47261906006E+03  0.47543152783E+03  0.00000000000E+00 0. -1.
</event>
<event>
 4    1  0.6824761E+001  0.2131426E+02  0.7546771E-02  0.1514825E+00
          2   -1    0    0  502    0  0.00000000000E+00  0.00000000000E+00  0.36094895072E+02  0.36094895072E+02  0.00000000000E+00 0. -1.
         -2   -1    0    0    0  501 -0.00000000000E+00 -0.00000000000E+00 -0.17809583012E+02  0.17809583012E+02  0.00000000000E+00 0.  1.
          1    1    1    2  502    0  0.51448336217E+01 -0.20684012436E+02  0.23738989535E+02  0.31903562616E+02  0.00000000000E+00 0. -1.
         -1    1    1    2    0  501 -0.51448336217E+01  0.20684012436E+02 -0.54536774740E+01  0.22000915468E+02  0.00000000000E+00 0.  1.
</event>
<event>
 4    1  0.6824761E+001  0.2011672E+02  0.7546771E-02  0.1532259E+00
          2   -1    0    0  502    0  0.00000000000E+00  0.00000000000E+00  0.58244477742E+03  0.58244477742E+03  0.00000000000E+00 0. -1.
         -2   -1    0    0    0  501 -0.00000000000E+00 -0.00000000000E+00 -0.76735546608E+00  0.76735546608E+00  0.00000000000E+00 0.  1.
          1    1    1    2  502    0 -0.60673470853E+01 -0.19179932116E+02  0.20117142613E+03  0.20217473924E+03  0.00000000000E+00 0.  1.
         -1    1    1    2    0  501  0.60673470853E+01  0.19179932116E+02  0.38050599582E+03  0.38103739364E+03  0.00000000000E+00 0. -1.
</event>
<event>
 4    1  0.6824761E+001  0.3256226E+02  0.7546771E-02  0.1398562E+00
          2   -1    0    0  502    0  0.00000000000E+00  0.00000000000E+00  0.58539553568E+03  0.58539553568E+03  0.00000000000E+00 0.  1.
         -2   -1    0    0    0  501 -0.00000000000E+00 -0.00000000000E+00 -0.62641487853E+01  0.62641487853E+01  0.00000000000E+00 0. -1.
          1    1    1    2  502    0 -0.31375059869E+02  0.87124098758E+01  0.40145203515E+02  0.51690790600E+02  0.00000000000E+00 0. -1.
         -1    1    1    2    0  501  0.31375059869E+02 -0.87124098758E+01  0.53898618338E+03  0.53996889386E+03  0.00000000000E+00 0.  1.
</event>
<event>
 4    1  0.6824761E+001  0.2358874E+02  0.7546771E-02  0.1485235E+00
          2   -1    0    0  502    0  0.00000000000E+00  0.00000000000E+00  0.15623743960E+02  0.15623743960E+02  0.00000000000E+00 0. -1.
         -2   -1    0    0    0  501 -0.00000000000E+00 -0.00000000000E+00 -0.42331073076E+02  0.42331073076E+02  0.00000000000E+00 0.  1.
          1    1    1    2  502    0  0.23347053519E+02 -0.33680313079E+01 -0.24896448774E+02  0.34296671916E+02  0.00000000000E+00 0.  1.
         -1    1    1    2    0  501 -0.23347053519E+02  0.33680313079E+01 -0.18108803414E+01  0.23658145121E+02  0.00000000000E+00 0. -1.
</event>
<event>
 4    1  0.6824761E+001  0.2588556E+02  0.7546771E-02  0.1459136E+00
          2   -1    0    0  502    0  0.00000000000E+00  0.00000000000E+00  0.14314096325E+04  0.14314096325E+04  0.00000000000E+00 0. -1.
         -2   -1    0    0    0  501 -0.00000000000E+00 -0.00000000000E+00 -0.70748390582E+00  0.70748390582E+00  0.00000000000E+00 0.  1.
          1    1    1    2  502    0  0.21910590185E+02 -0.13783615012E+02  0.29884092187E+03  0.29995992830E+03  0.00000000000E+00 0.  1.
         -1    1    1    2    0  501 -0.21910590185E+02  0.13783615012E+02  0.11318612267E+04  0.11321571881E+04  0.00000000000E+00 0. -1.
</event>
<event>
 4    1  0.6824761E+001  0.2548230E+02  0.7546771E-02  0.1463480E+00
          2   -1    0    0  502    0  0.00000000000E+00  0.00000000000E+00  0.20153903192E+04  0.20153903192E+04  0.00000000000E+00 0. -1.
         -2   -1    0    0    0  501 -0.00000000000E+00 -0.00000000000E+00 -0.36891103233E+00  0.36891103233E+00  0.00000000000E+00 0.  1.
          1    1    1    2  502    0 -0.17846740966E+02  0.18189044873E+02  0.13661711694E+04  0.13664088011E+04  0.00000000000E+00 0. -1.
         -1    1    1    2    0  501  0.17846740966E+02 -0.18189044873E+02  0.64885023881E+03  0.64935042921E+03  0.00000000000E+00 0.  1.
</event>
<event>
 4    1  0.6824761E+001  0.2405207E+02  0.7546771E-02  0.1479694E+00
          2   -1    0    0  502    0  0.00000000000E+00  0.00000000000E+00  0.37569113154E+03  0.37569113154E+03  0.00000000000E+00 0.  1.
         -2   -1    0    0    0  501 -0.00000000000E+00 -0.00000000000E+00 -0.15652193197E+01  0.15652193197E+01  0.00000000000E+00 0. -1.
          1    1    1    2  502    0 -0.12696038775E+02 -0.20428229839E+02  0.21108502174E+03  0.21245090816E+03  0.00000000000E+00 0.  1.
         -1    1    1    2    0  501  0.12696038775E+02  0.20428229839E+02  0.16304089049E+03  0.16480544270E+03  0.00000000000E+00 0. -1.
</event>
<event>
 4    1  0.6824761E+001  0.3022159E+02  0.7546771E-02  0.1417680E+00
          2   -1    0    0  502    0  0.00000000000E+00  0.00000000000E+00  0.34187141566E+02  0.34187141566E+02  0.00000000000E+00 0.  1.
         -2   -1    0    0    0  501 -0.00000000000E+00 -0.00000000000E+00 -0.85249574602E+02  0.85249574602E+02  0.00000000000E+00 0. -1.
          1    1    1    2  502    0 -0.29885572409E+02 -0.44941140175E+01  0.23952713301E+02  0.38562637014E+02  0.00000000000E+00 0.  1.
         -1    1    1    2    0  501  0.29885572409E+02  0.44941140175E+01 -0.75015146337E+02  0.80874079154E+02  0.00000000000E+00 0. -1.
</event>
<event>
 4    1  0.6824761E+001  0.3352800E+02  0.7546771E-02  0.1391218E+00
          2   -1    0    0  502    0  0.00000000000E+00  0.00000000000E+00  0.10685928710E+04  0.10685928710E+04  0.00000000000E+00 0. -1.
         -2   -1    0    0    0  501 -0.00000000000E+00 -0.00000000000E+00 -0.10605327644E+01  0.10605327644E+01  0.00000000000E+00 0.  1.
          1    1    1    2  502    0  0.95027050535E+01 -0.32153153004E+02  0.48570641419E+03  0.48686224688E+03  0.00000000000E+00 0. -1.
         -1    1    1    2    0  501 -0.95027050535E+01  0.32153153004E+02  0.58182592406E+03  0.58279115690E+03  0.00000000000E+00 0.  1.
</event>
<event>
 4    1  0.6824761E+001  0.2009168E+02  0.7546771E-02  0.1532639E+00
          2   -1    0    0  502    0  0.00000000000E+00  0.00000000000E+00  0.38523180099E+03  0.38523180099E+03  0.00000000000E+00 0. -1.
         -2   -1    0    0    0  501 -0.00000000000E+00 -0.00000000000E+00 -0.13014401631E+01  0.13014401631E+01  0.00000000000E+00 0.  1.
          1    1    1    2  502    0 -0.16783875609E+02  0.11044323980E+02  0.27727278883E+03  0.27799977517E+03  0.00000000000E+00 0.  1.
         -1    1    1    2    0  501  0.16783875609E+02 -0.11044323980E+02  0.10665757200E+03  0.10853346598E+03  0.00000000000E+00 0. -1.
</event>
<event>
 4    1  0.6824761E+001  0.2085630E+02  0.7546771E-02  0.1521327E+00
          2   -1    0    0  502    0  0.00000000000E+00  0.00000000000E+00  0.28496437092E+02  0.28496437092E+02  0.00000000000E+00 0.  1.
         -2   -1    0    0    0  501 -0.00000000000E+00 -0.00000000000E+00 -0.16600693816E+02  0.16600693816E+02  0.00000000000E+00 0. -1.
          1    1    1    2  502    0 -0.81504246184E+01  0.19197804570E+02 -0.44923150343E+00  0.20861134454E+02  0.00000000000E+00 0. -1.
         -1    1    1    2    0  501  0.81504246184E+01 -0.19197804570E+02  0.12344974779E+02  0.24235996453E+02  0.00000000000E+00 0.  1.
</event>
<event>
 4    1  0.6824761E+001  0.1162174E+03  0.7546771E-02  0.1138339E+00
          2   -1    0    0  502    0  0.00000000000E+00  0.00000000000E+00  0.11660088583E+03  0.11660088583E+03  0.00000000000E+00 0. -1.
         -2   -1    0    0    0  501 -0.00000000000E+00 -0.00000000000E+00 -0.13224075771E+03  0.13224075771E+03  0.00000000000E+00 0.  1.
          1    1    1    2  502    0 -0.43363758028E+02  0.10782426922E+03  0.36003428586E+02  0.12166649257E+03  0.00000000000E+00 0. -1.
         -1    1    1    2    0  501  0.43363758028E+02 -0.10782426922E+03 -0.51643300468E+02  0.12717515098E+03  0.00000000000E+00 0.  1.
</event>
<event>
 4    1  0.6824761E+001  0.2062796E+02  0.7546771E-02  0.1524643E+00
          2   -1    0    0  502    0  0.00000000000E+00  0.00000000000E+00  0.40569750998E+03  0.40569750998E+03  0.00000000000E+00 0. -1.
         -2   -1    0    0    0  501 -0.00000000000E+00 -0.00000000000E+00 -0.11392917693E+01  0.11392917693E+01  0.00000000000E+00 0.  1.
          1    1    1    2  502    0 -0.20276849688E+02 -0.37897561664E+01  0.14496326029E+03  0.14642356272E+03  0.00000000000E+00 0.  1.
         -1    1    1    2    0  501  0.20276849688E+02  0.37897561664E+01  0.25959495791E+03  0.26041323902E+03  0.00000000000E+00 0. -1.
</event>
<event>
 4    1  0.6824761E+001  0.2417133E+02  0.7546771E-02  0.1478291E+00
          2   -1    0    0  502    0  0.00000000000E+00  0.00000000000E+00  0.10826204612E+03  0.10826204612E+03  0.00000000000E+00 0. -1.
         -2   -1    0    0    0  501 -0.00000000000E+00 -0.00000000000E+00 -0.55145854955E+01  0.55145854955E+01  0.00000000000E+00 0.  1.
          1    1    1    2  502    0 -0.24156671107E+02  0.84170680450E+00  0.59692791388E+02  0.64400951647E+02  0.00000000000E+00 0.  1.
         -1    1    1    2    0  501  0.24156671107E+02 -0.84170680450E+00  0.43054669238E+02  0.49375679970E+02  0.00000000000E+00 0. -1.
</event>
<event>
 4    1  0.6824761E+001  0.2351085E+02  0.7546771E-02  0.1486181E+00
          2   -1    0    0  502    0  0.00000000000E+00  0.00000000000E+00  0.47841888015E+02  0.47841888015E+02  0.00000000000E+00 0. -1.
         -2   -1    0    0    0  501 -0.00000000000E+00 -0.00000000000E+00 -0.26423285235E+02  0.26423285235E+02  0.00000000000E+00 0.  1.
          1    1    1    2  502    0  0.13373481785E+02  0.19336755307E+02 -0.17146033567E+02  0.29098910425E+02  0.00000000000E+00 0.  1.
         -1    1    1    2    0  501 -0.13373481785E+02 -0.19336755307E+02  0.38564636348E+02  0.45166262824E+02  0.00000000000E+00 0. -1.
</event>
<event>
 4    1  0.6824761E+001  0.3087470E+02  0.7546771E-02  0.1412144E+00
          2   -1    0    0  502    0  0.00000000000E+00  0.00000000000E+00  0.36953489210E+02  0.36953489210E+02  0.00000000000E+00 0. -1.
         -2   -1    0    0    0  501 -0.00000000000E+00 -0.00000000000E+00 -0.32360047058E+02  0.32360047058E+02  0.00000000000E+00 0.  1.
          1    1    1    2  502    0  0.11170885803E+02 -0.28782952508E+02 -0.13312238409E+02  0.33622354709E+02  0.00000000000E+00 0.  1.
         -1    1    1    2    0  501 -0.11170885803E+02  0.28782952508E+02  0.17905680561E+02  0.35691181559E+02  0.00000000000E+00 0. -1.
</event>
<event>
 4    1  0.6824761E+001  0.2176412E+02  0.7546771E-02  0.1508629E+00
          2   -1    0    0  502    0  0.00000000000E+00  0.00000000000E+00  0.10522571297E+02  0.10522571297E+02  0.00000000000E+00 0.  1.
         -2   -1    0    0    0  501 -0.00000000000E+00 -0.00000000000E+00 -0.45567556892E+02  0.45567556892E+02  0.00000000000E+00 0. -1.
          1    1    1    2  502    0  0.10882416147E+02 -0.18848075470E+02 -0.14435108606E+02  0.26116073415E+02  0.00000000000E+00 0. -1.
         -1    1    1    2    0  501 -0.10882416147E+02  0.18848075470E+02 -0.20609876988E+02  0.29974054774E+02  0.00000000000E+00 0.  1.
</event>
<event>
 4    1  0.6824761E+001  0.2128303E+02  0.7546771E-02  0.1515262E+00
          2   -1    0    0  502    0  0.00000000000E+00  0.00000000000E+00  0.14988848384E+04  0.14988848384E+04  0.00000000000E+00 0.  1.
         -2   -1    0    0    0  501 -0.00000000000E+00 -0.00000000000E+00 -0.30342152636E+00  0.30342152636E+00  0.00000000000E+00 0. -1.
          1    1    1    2  502    0  0.21258333346E+02 -0.10250403734E+01  0.70178711725E+03  0.70210976733E+03  0.00000000000E+00 0. -1.
         -1    1    1    2    0  501 -0.21258333346E+02  0.10250403734E+01  0.79679429966E+03  0.79707849263E+03  0.00000000000E+00 0.  1.
</event>
<event>
 4    1  0.6824761E+001  0.2630634E+02  0.7546771E-02  0.1454703E+00
          2   -1    0    0  502    0  0.00000000000E+00  0.00000000000E+00  0.20510413563E+02  0.20510413563E+02  0.00000000000E+00 0.  1.
         -2   -1    0    0    0  501 -0.00000000000E+00 -0.00000000000E+00 -0.34502253733E+02  0.34502253733E+02  0.00000000000E+00 0. -1.
          1    1    1    2  502    0  0.10166499958E+02 -0.24262432681E+02 -0.29077319703E+01  0.26466549949E+02  0.00000000000E+00 0.  1.
         -1    1    1    2    0  501 -0.10166499958E+02  0.24262432681E+02 -0.11084108200E+02  0.28546117347E+02  0.00000000000E+00 0. -1.
</event>
<event>
 4    1  0.6824761E+001  0.2397790E+02  0.7546771E-02  0.1480571E+00
          2   -1    0    0  502    0  0.00000000000E+00  0.00000000000E+00  0.59344985206E+01  0.59344985206E+01  0.00000000000E+00 0.  1.
         -2   -1    0    0    0  501 -0.00000000000E+00 -0.00000000000E+00 -0.97205536939E+02  0.97205536939E+02  0.00000000000E+00 0. -1.
          1    1    1    2  502    0 -0.21586345707E+02  0.10438835453E+02 -0.48615718032E+02  0.54207265623E+02  0.00000000000E+00 0.  1.
         -1    1    1    2    0  501  0.21586345707E+02 -0.10438835453E+02 -0.42655320386E+02  0.48932769836E+02  0.00000000000E+00 0. -1.
</event>
<event>
 4    1  0.6824761E+001  0.2368872E+02  0.7546771E-02  0.1484026E+00
          2   -1    0    0  502    0  0.00000000000E+00  0.00000000000E+00  0.98306611399E+02  0.98306611399E+02  0.00000000000E+00 0.  1.
         -2   -1    0    0    0  501 -0.00000000000E+00 -0.00000000000E+00 -0.75015730795E+01  0.75015730795E+01  0.00000000000E+00 0. -1.
          1    1    1    2  502    0 -0.20620827767E+02  0.11659197013E+02  0.19535497287E+02  0.30704902981E+02  0.00000000000E+00 0. -1.
         -1    1    1    2    0  501  0.20620827767E+02 -0.11659197013E+02  0.71269541032E+02  0.75103281497E+02  0.00000000000E+00 0.  1.
</event>
<event>
 4    1  0.6824761E+001  0.2604848E+02  0.7546771E-02  0.1457408E+00
          2   -1    0    0  502    0  0.00000000000E+00  0.00000000000E+00  0.26175336859E+03  0.26175336859E+03  0.00000000000E+00 0.  1.
         -2   -1    0    0    0  501 -0.00000000000E+00 -0.00000000000E+00 -0.29669346334E+01  0.29669346334E+01  0.00000000000E+00 0. -1.
          1    1    1    2  502    0  0.16517588181E+02  0.20141808536E+02  0.17643152639E+03  0.17834406823E+03  0.00000000000E+00 0.  1.
         -1    1    1    2    0  501 -0.16517588181E+02 -0.20141808536E+02  0.82354907568E+02  0.86376234990E+02  0.00000000000E+00 0. -1.
</event>
<event>
 4    1  0.6824761E+001  0.3318505E+02  0.7546771E-02  0.1393792E+00
          2   -1    0    0  502    0  0.00000000000E+00  0.00000000000E+00  0.54341991329E+03  0.54341991329E+03  0.00000000000E+00 0.  1.
         -2   -1    0    0    0  501 -0.00000000000E+00 -0.00000000000E+00 -0.20265698445E+01  0.20265698445E+01  0.00000000000E+00 0. -1.
          1    1    1    2  502    0  0.22684985049E+02  0.24220630375E+02  0.26925142937E+03  0.27128873862E+03  0.00000000000E+00 0. -1.
         -1    1    1    2    0  501 -0.22684985049E+02 -0.24220630375E+02  0.27214191408E+03  0.27415774452E+03  0.00000000000E+00 0.  1.
</event>
<event>
 4    1  0.6824761E+001  0.3491424E+02  0.7546771E-02  0.1381167E+00
          2   -1    0    0  502    0  0.00000000000E+00  0.00000000000E+00  0.14289300394E+04  0.14289300394E+04  0.00000000000E+00 0. -1.
         -2   -1    0    0    0  501 -0.00000000000E+00 -0.00000000000E+00 -0.86052489569E+00  0.86052489569E+00  0.00000000000E+00 0.  1.
          1    1    1    2  502    0 -0.13445424431E+02  0.32221494057E+02  0.64757861265E+03  0.64851913131E+03  0.00000000000E+00 0.  1.
         -1    1    1    2    0  501  0.13445424431E+02 -0.32221494057E+02  0.78049090188E+03  0.78127143300E+03  0.00000000000E+00 0. -1.
</event>
<event>
 4    1  0.6824761E+001  0.3678136E+02  0.7546771E-02  0.1368454E+00
          2   -1    0    0  502    0  0.00000000000E+00  0.00000000000E+00  0.12872940978E+04  0.12872940978E+04  0.00000000000E+00 0.  1.
         -2   -1    0    0    0  501 -0.00000000000E+00 -0.00000000000E+00 -0.31417389064E+01  0.31417389064E+01  0.00000000000E+00 0. -1.
          1    1    1    2  502    0 -0.27747156641E+02  0.24144644908E+02  0.11572266233E+03  0.12142735752E+03  0.00000000000E+00 0. -1.
         -1    1    1    2    0  501  0.27747156641E+02 -0.24144644908E+02  0.11684296966E+04  0.11690084792E+04  0.00000000000E+00 0.  1.
</event>
<event>
 4    1  0.6824761E+001  0.2251303E+02  0.7546771E-02  0.1498705E+00
          2   -1    0    0  502    0  0.00000000000E+00  0.00000000000E+00  0.81143310143E+03  0.81143310143E+03  0.00000000000E+00 0.  1.
         -2   -1    0    0    0  501 -0.00000000000E+00 -0.00000000000E+00 -0.87062709759E+00  0.87062709759E+00  0.00000000000E+00 0. -1.
          1    1    1    2  502    0 -0.19200273267E+02 -0.11755263157E+02  0.62117836959E+03  0.62158619961E+03  0.00000000000E+00 0.  1.
         -1    1    1    2    0  501  0.19200273267E+02  0.11755263157E+02  0.18938410474E+03  0.19071752891E+03  0.00000000000E+00 0. -1.
</event>
<event>
 4    1  0.6824761E+001  0.2030440E+02  0.7546771E-02  0.1529432E+00
          2   -1    0    0  502    0  0.00000000000E+00  0.00000000000E+00  0.17084639220E+03  0.17084639220E+03  0.00000000000E+00 0.  1.
         -2   -1    0    0    0  501 -0.00000000000E+00 -0.00000000000E+00 -0.24368967346E+01  0.24368967346E+01  0.00000000000E+00 0. -1.
          1    1    1    2  502    0  0.20285067116E+02 -0.88595009252E+00  0.75642309760E+02  0.78320034993E+02  0.00000000000E+00 0.  1.
         -1    1    1    2    0  501 -0.20285067116E+02  0.88595009252E+00  0.92767185709E+02  0.94963253945E+02  0.00000000000E+00 0. -1.
</event>
<event>
 4    1  0.6824761E+001  0.2382581E+02  0.7546771E-02  0.1482381E+00
          2   -1    0    0  502    0  0.00000000000E+00  0.00000000000E+00  0.55074413403E+03  0.55074413403E+03  0.00000000000E+00 0.  1.
         -2   -1    0    0    0  501 -0.00000000000E+00 -0.00000000000E+00 -0.10311483810E+01  0.10311483810E+01  0.00000000000E+00 0. -1.
          1    1    1    2  502    0 -0.75217693380E+01  0.22607351927E+02  0.26930981988E+03  0.27036169932E+03  0.00000000000E+00 0. -1.
         -1    1    1    2    0  501  0.75217693380E+01 -0.22607351927E+02  0.28040316577E+03  0.28141358309E+03  0.00000000000E+00 0.  1.
</event>
<event>
 4    1  0.6824761E+001  0.2700940E+02  0.7546771E-02  0.1447514E+00
          2   -1    0    0  502    0  0.00000000000E+00  0.00000000000E+00  0.22515543747E+03  0.22515543747E+03  0.00000000000E+00 0. -1.
         -2   -1    0    0    0  501 -0.00000000000E+00 -0.00000000000E+00 -0.32653619066E+01  0.32653619066E+01  0.00000000000E+00 0.  1.
          1    1    1    2  502    0 -0.25010516947E+02 -0.10197133733E+02  0.12100701808E+03  0.12398470034E+03  0.00000000000E+00 0. -1.
         -1    1    1    2    0  501  0.25010516947E+02  0.10197133733E+02  0.10088305748E+03  0.10443609903E+03  0.00000000000E+00 0.  1.
</event>
<event>
 4    1  0.6824761E+001  0.3827527E+02  0.7546771E-02  0.1358900E+00
          2   -1    0    0  502    0  0.00000000000E+00  0.00000000000E+00  0.31537349983E+03  0.31537349983E+03  0.00000000000E+00 0. -1.
         -2   -1    0    0    0  501 -0.00000000000E+00 -0.00000000000E+00 -0.52526254134E+01  0.52526254134E+01  0.00000000000E+00 0.  1.
          1    1    1    2  502    0  0.38243030873E+02 -0.15705203070E+01  0.10054730409E+03  0.10758604140E+03  0.00000000000E+00 0.  1.
         -1    1    1    2    0  501 -0.38243030873E+02  0.15705203070E+01  0.20957357033E+03  0.21304008385E+03  0.00000000000E+00 0. -1.
</event>
<event>
 4    1  0.6824761E+001  0.2004133E+02  0.7546771E-02  0.1533405E+00
          2   -1    0    0  502    0  0.00000000000E+00  0.00000000000E+00  0.56124904658E+02  0.56124904658E+02  0.00000000000E+00 0.  1.
         -2   -1    0    0    0  501 -0.00000000000E+00 -0.00000000000E+00 -0.71829933664E+01  0.71829933664E+01  0.00000000000E+00 0. -1.
          1    1    1    2  502    0 -0.52817151471E+01 -0.19332827299E+02  0.22546518030E+02  0.30166209598E+02  0.00000000000E+00 0. -1.
         -1    1    1    2    0  501  0.52817151471E+01  0.19332827299E+02  0.26395393262E+02  0.33141688426E+02  0.00000000000E+00 0.  1.
</event>
<event>
 4    1  0.6824761E+001  0.2469078E+02  0.7546771E-02  0.1472292E+00
          2   -1    0    0  502    0  0.00000000000E+00  0.00000000000E+00  0.55193544109E+03  0.55193544109E+03  0.00000000000E+00 0. -1.
         -2   -1    0    0    0  501 -0.00000000000E+00 -0.00000000000E+00 -0.12489094525E+01  0.12489094525E+01  0.00000000000E+00 0.  1.
          1    1    1    2  502    0  0.43039524007E+01 -0.24312764856E+02  0.18130324913E+03  0.18297678183E+03  0.00000000000E+00 0.  1.
         -1    1    1    2    0  501 -0.43039524007E+01  0.24312764856E+02  0.36938328250E+03  0.37020756872E+03  0.00000000000E+00 0. -1.
</event>
<event>
 4    1  0.6824761E+001  0.3252497E+02  0.7546771E-02  0.1398852E+00
          2   -1    0    0  502    0  0.00000000000E+00  0.00000000000E+00  0.13999644023E+03  0.13999644023E+03  0.00000000000E+00 0. -1.
         -2   -1    0    0    0  501 -0.00000000000E+00 -0.00000000000E+00 -0.84718576067E+01  0.84718576067E+01  0.00000000000E+00 0.  1.
          1    1    1    2  502    0  0.32475546852E+01  0.32362435816E+02  0.41360289249E+02  0.52616987657E+02  0.00000000000E+00 0.  1.
         -1    1    1    2    0  501 -0.32475546852E+01 -0.32362435816E+02  0.90164293375E+02  0.95851310180E+02  0.00000000000E+00 0. -1.
</event>
<event>
 4    1  0.6824761E+001  0.2001645E+02  0.7546771E-02  0.1533784E+00
          2   -1    0    0  502    0  0.00000000000E+00  0.00000000000E+00  0.83654037414E+03  0.83654037414E+03  0.00000000000E+00 0.  1.
         -2   -1    0    0    0  501 -0.00000000000E+00 -0.00000000000E+00 -0.52501221158E+00  0.52501221158E+00  0.00000000000E+00 0. -1.
          1    1    1    2  502    0 -0.18469166505E+02  0.77167570773E+01  0.29403342508E+03  0.29471395202E+03  0.00000000000E+00 0.  1.
         -1    1    1    2    0  501  0.18469166505E+02 -0.77167570773E+01  0.54198193684E+03  0.54235143433E+03  0.00000000000E+00 0. -1.
</event>
<event>
 4    1  0.6824761E+001  0.2067298E+02  0.7546771E-02  0.1523986E+00
          2   -1    0    0  502    0  0.00000000000E+00  0.00000000000E+00  0.69640972271E+02  0.69640972271E+02  0.00000000000E+00 0. -1.
         -2   -1    0    0    0  501 -0.00000000000E+00 -0.00000000000E+00 -0.80650786502E+01  0.80650786502E+01  0.00000000000E+00 0.  1.
          1    1    1    2  502    0  0.13257307898E+02  0.15862398499E+02  0.11789995897E+02  0.23798653367E+02  0.00000000000E+00 0.  1.
         -1    1    1    2    0  501 -0.13257307898E+02 -0.15862398499E+02  0.49785897724E+02  0.53907397554E+02  0.00000000000E+00 0. -1.
</event>
<event>
 4    1  0.6824761E+001  0.2076436E+02  0.7546771E-02  0.1522656E+00
          2   -1    0    0  502    0  0.00000000000E+00  0.00000000000E+00  0.56760584029E+01  0.56760584029E+01  0.00000000000E+00 0.  1.
         -2   -1    0    0    0  501 -0.00000000000E+00 -0.00000000000E+00 -0.77223477243E+02  0.77223477243E+02  0.00000000000E+00 0. -1.
          1    1    1    2  502    0  0.81813106068E+01  0.19084674444E+02 -0.30473753609E+02  0.36875578652E+02  0.00000000000E+00 0.  1.
         -1    1    1    2    0  501 -0.81813106068E+01 -0.19084674444E+02 -0.41073665231E+02  0.46023956994E+02  0.00000000000E+00 0. -1.
</event>
<event>
 4    1  0.6824761E+001  0.3061563E+02  0.7546771E-02  0.1414321E+00
          2   -1    0    0  502    0  0.00000000000E+00  0.00000000000E+00  0.75010523950E+02  0.75010523950E+02  0.00000000000E+00 0. -1.
         -2   -1    0    0    0  501 -0.00000000000E+00 -0.00000000000E+00 -0.12738679701E+02  0.12738679701E+02  0.00000000000E+00 0.  1.
          1    1    1    2  502    0  0.27374598801E+02 -0.13709407871E+02  0.25077683590E+02  0.39575329915E+02  0.00000000000E+00 0.  1.
         -1    1    1    2    0  501 -0.27374598801E+02  0.13709407871E+02  0.37194160658E+02  0.48173873736E+02  0.00000000000E+00 0. -1.
</event>
<event>
 4    1  0.6824761E+001  0.4187064E+02  0.7546771E-02  0.1337859E+00
          2   -1    0    0  502    0  0.00000000000E+00  0.00000000000E+00  0.82031264725E+01  0.82031264725E+01  0.00000000000E+00 0. -1.
         -2   -1    0    0    0  501 -0.00000000000E+00 -0.00000000000E+00 -0.32667361656E+03  0.32667361656E+03  0.00000000000E+00 0.  1.
          1    1    1    2  502    0  0.41210304324E+02 -0.74068532607E+01 -0.60776776202E+02  0.73803571615E+02  0.00000000000E+00 0. -1.
         -1    1    1    2    0  501 -0.41210304324E+02  0.74068532607E+01 -0.25769371389E+03  0.26107317142E+03  0.00000000000E+00 0.  1.
</event>
<event>
 4    1  0.6824761E+001  0.2017390E+02  0.7546771E-02  0.1531394E+00
          2   -1    0    0  502    0  0.00000000000E+00  0.00000000000E+00  0.42165730711E+02  0.42165730711E+02  0.00000000000E+00 0. -1.
         -2   -1    0    0    0  501 -0.00000000000E+00 -0.00000000000E+00 -0.14700179537E+02  0.14700179537E+02  0.00000000000E+00 0.  1.
          1    1    1    2  502    0 -0.14370811769E+02  0.14158594965E+02  0.30394717578E+02  0.36480472845E+02  0.00000000000E+00 0. -1.
         -1    1    1    2    0  501  0.14370811769E+02 -0.14158594965E+02 -0.29291664050E+01  0.20385437403E+02  0.00000000000E+00 0.  1.
</event>
<event>
 4    1  0.6824761E+001  0.2098958E+02  0.7546771E-02  0.1519414E+00
          2   -1    0    0  502    0  0.00000000000E+00  0.00000000000E+00  0.91576861532E+03  0.91576861532E+03  0.00000000000E+00 0.  1.
         -2   -1    0    0    0  501 -0.00000000000E+00 -0.00000000000E+00 -0.52616729131E+00  0.52616729131E+00  0.00000000000E+00 0. -1.
          1    1    1    2  502    0 -0.96212555209E+01 -0.18654599176E+02  0.32351595442E+03  0.32419613723E+03  0.00000000000E+00 0. -1.
         -1    1    1    2    0  501  0.96212555209E+01  0.18654599176E+02  0.59172649361E+03  0.59209864539E+03  0.00000000000E+00 0.  1.
</event>
<event>
 4    1  0.6824761E+001  0.2371455E+02  0.7546771E-02  0.1483715E+00
          2   -1    0    0  502    0  0.00000000000E+00  0.00000000000E+00  0.44691142330E+03  0.44691142330E+03  0.00000000000E+00 0.  1.
         -2   -1    0    0    0  501 -0.00000000000E+00 -0.00000000000E+00 -0.12691099361E+01  0.12691099361E+01  0.00000000000E+00 0. -1.
          1    1    1    2  502    0  0.23680799295E+02 -0.12647542828E+01  0.24343587221E+03  0.24458823303E+03  0.00000000000E+00 0. -1.
         -1    1    1    2    0  501 -0.23680799295E+02  0.12647542828E+01  0.20220644116E+03  0.20359230021E+03  0.00000000000E+00 0.  1.
</event>
<event>
 4    1  0.6824761E+001  0.2006827E+02  0.7546771E-02  0.1532995E+00
          2   -1    0    0  502    0  0.00000000000E+00  0.00000000000E+00  0.61411752789E+02  0.61411752789E+02  0.00000000000E+00 0.  1.
         -2   -1    0    0    0  501 -0.00000000000E+00 -0.00000000000E+00 -0.66070458742E+01  0.66070458742E+01  0.00000000000E+00 0. -1.
          1    1    1    2  502    0  0.66581091366E+01  0.18931589593E+02  0.30333897117E+02  0.36371428568E+02  0.00000000000E+00 0. -1.
         -1    1    1    2    0  501 -0.66581091366E+01 -0.18931589593E+02  0.24470809797E+02  0.31647370094E+02  0.00000000000E+00 0.  1.
</event>
<event>
 4    1  0.6824761E+001  0.3632481E+02  0.7546771E-02  0.1371481E+00
          2   -1    0    0  502    0  0.00000000000E+00  0.00000000000E+00  0.99341976293E+01  0.99341976293E+01  0.00000000000E+00 0. -1.
         -2   -1    0    0    0  501 -0.00000000000E+00 -0.00000000000E+00 -0.14336809400E+03  0.14336809400E+03  0.00000000000E+00 0.  1.
          1    1    1    2  502    0 -0.17640538603E+02  0.31753788732E+02 -0.45928888475E+02  0.58557275360E+02  0.00000000000E+00 0.  1.
         -1    1    1    2    0  501  0.17640538603E+02 -0.31753788732E+02 -0.87505007893E+02  0.94745016266E+02  0.00000000000E+00 0. -1.
</event>
<event>
 4    1  0.6824761E+001  0.2168975E+02  0.7546771E-02  0.1509641E+00
          2   -1    0    0  502    0  0.00000000000E+00  0.00000000000E+00  0.43749280508E+03  0.43749280508E+03  0.00000000000E+00 0.  1.
         -2   -1    0    0    0  501 -0.00000000000E+00 -0.00000000000E+00 -0.13989727064E+01  0.13989727064E+01  0.00000000000E+00 0. -1.
          1    1    1    2  502    0  0.15074559067E+02  0.15594970626E+02  0.11249614469E+03  0.11456800605E+03  0.00000000000E+00 0.  1.
         -1    1    1    2    0  501 -0.15074559067E+02 -0.15594970626E+02  0.32359768768E+03  0.32432377173E+03  0.00000000000E+00 0. -1.
</event>
<event>
 4    1  0.6824761E+001  0.2511372E+02  0.7546771E-02  0.1467535E+00
          2   -1    0    0  502    0  0.00000000000E+00  0.00000000000E+00  0.11195559717E+04  0.11195559717E+04  0.00000000000E+00 0. -1.
         -2   -1    0    0    0  501 -0.00000000000E+00 -0.00000000000E+00 -0.67058204003E+00  0.67058204003E+00  0.00000000000E+00 0.  1.
          1    1    1    2  502    0 -0.10525591590E+02 -0.22801558267E+02  0.78342675368E+03  0.78382917623E+03  0.00000000000E+00 0. -1.
         -1    1    1    2    0  501  0.10525591590E+02  0.22801558267E+02  0.33545863595E+03  0.33639737747E+03  0.00000000000E+00 0.  1.
</event>
<event>
 4    1  0.6824761E+001  0.2194766E+02  0.7546771E-02  0.1506153E+00
          2   -1    0    0  502    0  0.00000000000E+00  0.00000000000E+00  0.88272075770E+00  0.88272075770E+00  0.00000000000E+00 0.  1.
         -2   -1    0    0    0  501 -0.00000000000E+00 -0.00000000000E+00 -0.60618948414E+03  0.60618948414E+03  0.00000000000E+00 0. -1.
          1    1    1    2  502    0  0.10408216570E+02  0.19322751604E+02 -0.39853828297E+03  0.39914215850E+03  0.00000000000E+00 0.  1.
         -1    1    1    2    0  501 -0.10408216570E+02 -0.19322751604E+02 -0.20676848041E+03  0.20793004639E+03  0.00000000000E+00 0. -1.
</event>
<event>
 4    1  0.6824761E+001  0.3361450E+02  0.7546771E-02  0.1390574E+00
          2   -1    0    0  502    0  0.00000000000E+00  0.00000000000E+00  0.14932760719E+03  0.14932760719E+03  0.00000000000E+00 0. -1.
         -2   -1    0    0    0  501 -0.00000000000E+00 -0.00000000000E+00 -0.76259689611E+01  0.76259689611E+01  0.00000000000E+00 0.  1.
          1    1    1    2  502    0  0.12083773968E+02  0.31367447859E+02  0.63939107544E+02  0.72236720939E+02  0.00000000000E+00 0.  1.
         -1    1    1    2    0  501 -0.12083773968E+02 -0.31367447859E+02  0.77762530685E+02  0.84716855212E+02  0.00000000000E+00 0. -1.
</event>
<event>
 4    1  0.6824761E+001  0.4973404E+02  0.7546771E-02  0.1299330E+00
          2   -1    0    0  502    0  0.00000000000E+00  0.00000000000E+00  0.10105637142E+04  0.10105637142E+04  0.00000000000E+00 0.  1.
         -2   -1    0    0    0  501 -0.00000000000E+00 -0.00000000000E+00 -0.25057850793E+01  0.25057850793E+01  0.00000000000E+00 0. -1.
          1    1    1    2  502    0 -0.40439678016E+02 -0.28950083097E+02  0.58120323263E+03  0.58332724305E+03  0.00000000000E+00 0.  1.
         -1    1    1    2    0  501  0.40439678016E+02  0.28950083097E+02  0.42685469646E+03  0.42974225620E+03  0.00000000000E+00 0. -1.
</event>
<event>
 4    1  0.6824761E+001  0.2612051E+02  0.7546771E-02  0.1456649E+00
          2   -1    0    0  502    0  0.00000000000E+00  0.00000000000E+00  0.16611327659E+01  0.16611327659E+01  0.00000000000E+00 0. -1.
         -2   -1    0    0    0  501 -0.00000000000E+00 -0.00000000000E+00 -0.41190728249E+03  0.41190728249E+03  0.00000000000E+00 0.  1.
          1    1    1    2  502    0  0.23365201796E+02 -0.11676830900E+02 -0.21616681752E+03  0.21773923402E+03  0.00000000000E+00 0.  1.
         -1    1    1    2    0  501 -0.23365201796E+02  0.11676830900E+02 -0.19407933220E+03  0.19582918123E+03  0.00000000000E+00 0. -1.
</event>
<event>
 4    1  0.6824761E+001  0.2452012E+02  0.7546771E-02  0.1474244E+00
          2   -1    0    0  502    0  0.00000000000E+00  0.00000000000E+00  0.14746813485E+04  0.14746813485E+04  0.00000000000E+00 0.  1.
         -2   -1    0    0    0  501 -0.00000000000E+00 -0.00000000000E+00 -0.99199616660E+00  0.99199616660E+00  0.00000000000E+00 0. -1.
          1    1    1    2  502    0  0.23437937207E+02 -0.72041133535E+01  0.17057983143E+03  0.17233315131E+03  0.00000000000E+00 0. -1.
         -1    1    1    2    0  501 -0.23437937207E+02  0.72041133535E+01  0.13031095210E+04  0.13033401934E+04  0.00000000000E+00 0.  1.
</event>
<event>
 4    1  0.6824761E+001  0.3446363E+02  0.7546771E-02  0.1384374E+00
          2   -1    0    0  502    0  0.00000000000E+00  0.00000000000E+00  0.64486128358E+03  0.64486128358E+03  0.00000000000E+00 0.  1.
         -2   -1    0    0    0  501 -0.00000000000E+00 -0.00000000000E+00 -0.19634628841E+01  0.19634628841E+01  0.00000000000E+00 0. -1.
          1    1    1    2  502    0  0.63995440665E+01  0.33864252887E+02  0.24096224938E+03  0.24341435334E+03  0.00000000000E+00 0. -1.
         -1    1    1    2    0  501 -0.63995440665E+01 -0.33864252887E+02  0.40193557132E+03  0.40341039312E+03  0.00000000000E+00 0.  1.
</event>
<event>
 4    1  0.6824761E+001  0.2104003E+02  0.7546771E-02  0.1518694E+00
          2   -1    0    0  502    0  0.00000000000E+00  0.00000000000E+00  0.98018459526E+02  0.98018459526E+02  0.00000000000E+00 0. -1.
         -2   -1    0    0    0  501 -0.00000000000E+00 -0.00000000000E+00 -0.54737254756E+01  0.54737254756E+01  0.00000000000E+00 0.  1.
          1    1    1    2  502    0  0.14482341199E+02  0.15262522892E+02  0.67913690519E+02  0.71098186837E+02  0.00000000000E+00 0. -1.
         -1    1    1    2    0  501 -0.14482341199E+02 -0.15262522892E+02  0.24631043532E+02  0.32393998165E+02  0.00000000000E+00 0.  1.
</event>
<event>
 4    1  0.6824761E+001  0.2467529E+02  0.7546771E-02  0.1472469E+00
          2   -1    0    0  502    0  0.00000000000E+00  0.00000000000E+00  0.12474729537E+03  0.12474729537E+03  0.00000000000E+00 0.  1.
         -2   -1    0    0    0  501 -0.00000000000E+00 -0.00000000000E+00 -0.63578304335E+01  0.63578304335E+01  0.00000000000E+00 0. -1.
          1    1    1    2  502    0 -0.24428982242E+02 -0.34777537055E+01  0.27599177703E+02  0.37021406701E+02  0.00000000000E+00 0. -1.
         -1    1    1    2    0  501  0.24428982242E+02  0.34777537055E+01  0.90790287238E+02  0.94083719107E+02  0.00000000000E+00 0.  1.
</event>
<event>
 4    1  0.6824761E+001  0.2141957E+02  0.7546771E-02  0.1513358E+00
          2   -1    0    0  502    0  0.00000000000E+00  0.00000000000E+00  0.33588664262E+03  0.33588664262E+03  0.00000000000E+00 0.  1.
         -2   -1    0    0    0  501 -0.00000000000E+00 -0.00000000000E+00 -0.14686011268E+01  0.14686011268E+01  0.00000000000E+00 0. -1.
          1    1    1    2  502    0  0.65926638740E+01  0.20379762608E+02  0.12260974344E+03  0.12446665066E+03  0.00000000000E+00 0.  1.
         -1    1    1    2    0  501 -0.65926638740E+01 -0.20379762608E+02  0.21180829806E+03  0.21288859309E+03  0.00000000000E+00 0. -1.
</event>
<event>
 4    1  0.6824761E+001  0.2206872E+02  0.7546771E-02  0.1504535E+00
          2   -1    0    0  502    0  0.00000000000E+00  0.00000000000E+00  0.12341549375E+04  0.12341549375E+04  0.00000000000E+00 0. -1.
         -2   -1    0    0    0  501 -0.00000000000E+00 -0.00000000000E+00 -0.39463169935E+00  0.39463169935E+00  0.00000000000E+00 0.  1.
          1    1    1    2  502    0  0.16344380538E+02 -0.14828673405E+02  0.61432730892E+03  0.61472357268E+03  0.00000000000E+00 0.  1.
         -1    1    1    2    0  501 -0.16344380538E+02  0.14828673405E+02  0.61943299691E+03  0.61982599654E+03  0.00000000000E+00 0. -1.
</event>
<event>
 4    1  0.6824761E+001  0.2637173E+02  0.7546771E-02  0.1454023E+00
          2   -1    0    0  502    0  0.00000000000E+00  0.00000000000E+00  0.21249660025E+04  0.21249660025E+04  0.00000000000E+00 0. -1.
         -2   -1    0    0    0  501 -0.00000000000E+00 -0.00000000000E+00 -0.33265098843E+00  0.33265098843E+00  0.00000000000E+00 0.  1.
          1    1    1    2  502    0 -0.25146476670E+02  0.79449992989E+01  0.92734482864E+03  0.92771973112E+03  0.00000000000E+00 0. -1.
         -1    1    1    2    0  501  0.25146476670E+02 -0.79449992989E+01  0.11972885229E+04  0.11975789223E+04  0.00000000000E+00 0.  1.
</event>
<event>
 4    1  0.6824761E+001  0.2143507E+02  0.7546771E-02  0.1513143E+00
          2   -1    0    0  502    0  0.00000000000E+00  0.00000000000E+00  0.23170468617E+03  0.23170468617E+03  0.00000000000E+00 0.  1.
         -2   -1    0    0    0  501 -0.00000000000E+00 -0.00000000000E+00 -0.26383898569E+01  0.26383898569E+01  0.00000000000E+00 0. -1.
          1    1    1    2  502    0 -0.18663656017E+02 -0.10541826072E+02  0.56132954626E+02  0.60086360747E+02  0.00000000000E+00 0. -1.
         -1    1    1    2    0  501  0.18663656017E+02  0.10541826072E+02  0.17293334169E+03  0.17425671528E+03  0.00000000000E+00 0.  1.
</event>
<event>
 4    1  0.6824761E+001  0.2394659E+02  0.7546771E-02  0.1480942E+00
          2   -1    0    0  502    0  0.00000000000E+00  0.00000000000E+00  0.17986575818E+02  0.17986575818E+02  0.00000000000E+00 0.  1.
         -2   -1    0    0    0  501 -0.00000000000E+00 -0.00000000000E+00 -0.43600398939E+02  0.43600398939E+02  0.00000000000E+00 0. -1.
          1    1    1    2  502    0 -0.21427842392E+02 -0.10690508800E+02  0.31576371346E+01  0.24153883337E+02  0.00000000000E+00 0.  1.
         -1    1    1    2    0  501  0.21427842392E+02  0.10690508800E+02 -0.28771460255E+02  0.37433091419E+02  0.00000000000E+00 0. -1.
</event>
<event>
 4    1  0.6824761E+001  0.2204909E+02  0.7546771E-02  0.1504797E+00
          2   -1    0    0  502    0  0.00000000000E+00  0.00000000000E+00  0.10844398804E+04  0.10844398804E+04  0.00000000000E+00 0.  1.
         -2   -1    0    0    0  501 -0.00000000000E+00 -0.00000000000E+00 -0.46696526930E+00  0.46696526930E+00  0.00000000000E+00 0. -1.
          1    1    1    2  502    0  0.19995402160E+02 -0.92922788574E+01  0.65041653914E+03  0.65079016352E+03  0.00000000000E+00 0.  1.
         -1    1    1    2    0  501 -0.19995402160E+02  0.92922788574E+01  0.43355637603E+03  0.43411668219E+03  0.00000000000E+00 0. -1.
</event>
<event>
 4    1  0.6824761E+001  0.2026484E+02  0.7546771E-02  0.1530025E+00
          2   -1    0    0  502    0  0.00000000000E+00  0.00000000000E+00  0.51259376527E+03  0.51259376527E+03  0.00000000000E+00 0. -1.
         -2   -1    0    0    0  501 -0.00000000000E+00 -0.00000000000E+00 -0.13157375322E+01  0.13157375322E+01  0.00000000000E+00 0.  1.
          1    1    1    2  502    0 -0.12433568624E+02 -0.16002187212E+02  0.41633401523E+03  0.41682691356E+03  0.00000000000E+00 0. -1.
         -1    1    1    2    0  501  0.12433568624E+02  0.16002187212E+02  0.94944012508E+02  0.97082589249E+02  0.00000000000E+00 0.  1.
</event>
<event>
 4    1  0.6824761E+001  0.2208250E+02  0.7546771E-02  0.1504352E+00
          2   -1    0    0  502    0  0.00000000000E+00  0.00000000000E+00  0.17907119015E+03  0.17907119015E+03  0.00000000000E+00 0. -1.
         -2   -1    0    0    0  501 -0.00000000000E+00 -0.00000000000E+00 -0.50336180049E+01  0.50336180049E+01  0.00000000000E+00 0.  1.
          1    1    1    2  502    0 -0.19044800238E+02 -0.11177314527E+02  0.24653132451E+02  0.33097034849E+02  0.00000000000E+00 0.  1.
         -1    1    1    2    0  501  0.19044800238E+02  0.11177314527E+02  0.14938443970E+03  0.15100777331E+03  0.00000000000E+00 0. -1.
</event>
<event>
 4    1  0.6824761E+001  0.2052721E+02  0.7546771E-02  0.1526123E+00
          2   -1    0    0  502    0  0.00000000000E+00  0.00000000000E+00  0.97915214881E+03  0.97915214881E+03  0.00000000000E+00 0.  1.
         -2   -1    0    0    0  501 -0.00000000000E+00 -0.00000000000E+00 -0.43490440565E+00  0.43490440565E+00  0.00000000000E+00 0. -1.
          1    1    1    2  502    0 -0.15173181486E+02 -0.13825369861E+02  0.43916971796E+03  0.43964918681E+03  0.00000000000E+00 0. -1.
         -1    1    1    2    0  501  0.15173181486E+02  0.13825369861E+02  0.53954752644E+03  0.53993786640E+03  0.00000000000E+00 0.  1.
</event>
<event>
 4    1  0.6824761E+001  0.2506025E+02  0.7546771E-02  0.1468131E+00
          2   -1    0    0  502    0  0.00000000000E+00  0.00000000000E+00  0.28002597409E+03  0.28002597409E+03  0.00000000000E+00 0.  1.
         -2   -1    0    0    0  501 -0.00000000000E+00 -0.00000000000E+00 -0.29232619357E+01  0.29232619357E+01  0.00000000000E+00 0. -1.
          1    1    1    2  502    0 -0.23208277048E+02 -0.94547215478E+01  0.20681298275E+03  0.20832576825E+03  0.00000000000E+00 0. -1.
         -1    1    1    2    0  501  0.23208277048E+02  0.94547215478E+01  0.70289729403E+02  0.74623467774E+02  0.00000000000E+00 0.  1.
</event>
<event>
 4    1  0.6824761E+001  0.2274162E+02  0.7546771E-02  0.1495768E+00
          2   -1    0    0  502    0  0.00000000000E+00  0.00000000000E+00  0.17206178384E+04  0.17206178384E+04  0.00000000000E+00 0.  1.
         -2   -1    0    0    0  501 -0.00000000000E+00 -0.00000000000E+00 -0.40550988624E+00  0.40550988624E+00  0.00000000000E+00 0. -1.
          1    1    1    2  502    0 -0.10417823656E+01  0.22717747515E+02  0.42237447696E+03  0.42298626473E+03  0.00000000000E+00 0. -1.
         -1    1    1    2    0  501  0.10417823656E+01 -0.22717747515E+02  0.12978378515E+04  0.12980370835E+04  0.00000000000E+00 0.  1.
</event>
<event>
 4    1  0.6824761E+001  0.5437983E+02  0.7546771E-02  0.1280224E+00
          2   -1    0    0  502    0  0.00000000000E+00  0.00000000000E+00  0.93755660864E+03  0.93755660864E+03  0.00000000000E+00 0.  1.
         -2   -1    0    0    0  501 -0.00000000000E+00 -0.00000000000E+00 -0.31716647457E+01  0.31716647457E+01  0.00000000000E+00 0. -1.
          1    1    1    2  502    0 -0.46547315218E+02 -0.28116069897E+02  0.50217615705E+03  0.50511192686E+03  0.00000000000E+00 0. -1.
         -1    1    1    2    0  501  0.46547315218E+02  0.28116069897E+02  0.43220878685E+03  0.43561634653E+03  0.00000000000E+00 0.  1.
</event>
<event>
 4    1  0.6824761E+001  0.4543531E+02  0.7546771E-02  0.1319277E+00
          2   -1    0    0  502    0  0.00000000000E+00  0.00000000000E+00  0.72267178973E+03  0.72267178973E+03  0.00000000000E+00 0. -1.
         -2   -1    0    0    0  501 -0.00000000000E+00 -0.00000000000E+00 -0.31161855511E+01  0.31161855511E+01  0.00000000000E+00 0.  1.
          1    1    1    2  502    0 -0.41977230871E+02 -0.17386186769E+02  0.25503411457E+03  0.25904973846E+03  0.00000000000E+00 0.  1.
         -1    1    1    2    0  501  0.41977230871E+02  0.17386186769E+02  0.46452148961E+03  0.46673823682E+03  0.00000000000E+00 0. -1.
</event>
<event>
 4    1  0.6824761E+001  0.2036385E+02  0.7546771E-02  0.1528544E+00
          2   -1    0    0  502    0  0.00000000000E+00  0.00000000000E+00  0.17158983714E+03  0.17158983714E+03  0.00000000000E+00 0.  1.
         -2   -1    0    0    0  501 -0.00000000000E+00 -0.00000000000E+00 -0.35259443359E+01  0.35259443359E+01  0.00000000000E+00 0. -1.
          1    1    1    2  502    0  0.17782697804E+02  0.99228136412E+01  0.34922504344E+02  0.40426079223E+02  0.00000000000E+00 0.  1.
         -1    1    1    2    0  501 -0.17782697804E+02 -0.99228136412E+01  0.13314138846E+03  0.13468970225E+03  0.00000000000E+00 0. -1.
</event>
<event>
 4    1  0.6824761E+001  0.3690413E+02  0.7546771E-02  0.1367649E+00
          2   -1    0    0  502    0  0.00000000000E+00  0.00000000000E+00  0.15080406787E+04  0.15080406787E+04  0.00000000000E+00 0.  1.
         -2   -1    0    0    0  501 -0.00000000000E+00 -0.00000000000E+00 -0.14354128835E+01  0.14354128835E+01  0.00000000000E+00 0. -1.
          1    1    1    2  502    0  0.35536072830E+02 -0.99550152191E+01  0.29369161721E+03  0.29600115003E+03  0.00000000000E+00 0.  1.
         -1    1    1    2    0  501 -0.35536072830E+02  0.99550152191E+01  0.12129136486E+04  0.12134749416E+04  0.00000000000E+00 0. -1.
</event>
<event>
 4    1  0.6824761E+001  0.2063594E+02  0.7546771E-02  0.1524527E+00
          2   -1    0    0  502    0  0.00000000000E+00  0.00000000000E+00  0.10194853400E+03  0.10194853400E+03  0.00000000000E+00 0. -1.
         -2   -1    0    0    0  501 -0.00000000000E+00 -0.00000000000E+00 -0.58569689423E+01  0.58569689423E+01  0.00000000000E+00 0.  1.
          1    1    1    2  502    0 -0.16011611091E+02  0.13018083549E+02  0.76914074604E+02  0.79634270646E+02  0.00000000000E+00 0. -1.
         -1    1    1    2    0  501  0.16011611091E+02 -0.13018083549E+02  0.19177490453E+02  0.28171232296E+02  0.00000000000E+00 0.  1.
</event>
<event>
 4    1  0.6824761E+001  0.3601716E+02  0.7546771E-02  0.1373550E+00
          2   -1    0    0  502    0  0.00000000000E+00  0.00000000000E+00  0.15006487066E+04  0.15006487066E+04  0.00000000000E+00 0.  1.
         -2   -1    0    0    0  501 -0.00000000000E+00 -0.00000000000E+00 -0.86651814966E+00  0.86651814966E+00  0.00000000000E+00 0. -1.
          1    1    1    2  502    0  0.83042415732E+01  0.35046764431E+02  0.78656670463E+03  0.78739089210E+03  0.00000000000E+00 0. -1.
         -1    1    1    2    0  501 -0.83042415732E+01 -0.35046764431E+02  0.71321548384E+03  0.71412433267E+03  0.00000000000E+00 0.  1.
</event>
<event>
 4    1  0.6824761E+001  0.2312501E+02  0.7546771E-02  0.1490934E+00
          2   -1    0    0  502    0  0.00000000000E+00  0.00000000000E+00  0.25202943233E+04  0.25202943233E+04  0.00000000000E+00 0.  1.
         -2   -1    0    0    0  501 -0.00000000000E+00 -0.00000000000E+00 -0.24240161393E+00  0.24240161393E+00  0.00000000000E+00 0. -1.
          1    1    1    2  502    0  0.20587989961E+02  0.10530942537E+02  0.81506131577E+03  0.81538930244E+03  0.00000000000E+00 0. -1.
         -1    1    1    2    0  501 -0.20587989961E+02 -0.10530942537E+02  0.17049906059E+04  0.17051474225E+04  0.00000000000E+00 0.  1.
</event>
<event>
 4    1  0.6824761E+001  0.2021171E+02  0.7546771E-02  0.1530824E+00
          2   -1    0    0  502    0  0.00000000000E+00  0.00000000000E+00  0.44301088512E+02  0.44301088512E+02  0.00000000000E+00 0.  1.
         -2   -1    0    0    0  501 -0.00000000000E+00 -0.00000000000E+00 -0.95541753384E+01  0.95541753384E+01  0.00000000000E+00 0. -1.
          1    1    1    2  502    0  0.19770980611E+02 -0.41977870813E+01  0.22399778193E+02  0.30170567675E+02  0.00000000000E+00 0. -1.
         -1    1    1    2    0  501 -0.19770980611E+02  0.41977870813E+01  0.12347134980E+02  0.23684696175E+02  0.00000000000E+00 0.  1.
</event>
<event>
 4    1  0.6824761E+001  0.5991371E+02  0.7546771E-02  0.1260126E+00
          2   -1    0    0  502    0  0.00000000000E+00  0.00000000000E+00  0.46634163120E+03  0.46634163120E+03  0.00000000000E+00 0. -1.
         -2   -1    0    0    0  501 -0.00000000000E+00 -0.00000000000E+00 -0.90388814868E+01  0.90388814868E+01  0.00000000000E+00 0.  1.
          1    1    1    2  502    0  0.20040942982E+01  0.59880180381E+02  0.13708532904E+03  0.14960628273E+03  0.00000000000E+00 0.  1.
         -1    1    1    2    0  501 -0.20040942982E+01 -0.59880180381E+02  0.32021742068E+03  0.32577422995E+03  0.00000000000E+00 0. -1.
</event>
<event>
 4    1  0.6824761E+001  0.3368732E+02  0.7546771E-02  0.1390034E+00
          2   -1    0    0  502    0  0.00000000000E+00  0.00000000000E+00  0.36999051301E+03  0.36999051301E+03  0.00000000000E+00 0.  1.
         -2   -1    0    0    0  501 -0.00000000000E+00 -0.00000000000E+00 -0.30672114615E+01  0.30672114615E+01  0.00000000000E+00 0. -1.
          1    1    1    2  502    0  0.19518240344E+02 -0.27456768886E+02  0.18377868698E+03  0.18684068522E+03  0.00000000000E+00 0.  1.
         -1    1    1    2    0  501 -0.19518240344E+02  0.27456768886E+02  0.18314461457E+03  0.18621703926E+03  0.00000000000E+00 0. -1.
</event>
<event>
 4    1  0.6824761E+001  0.3282633E+02  0.7546771E-02  0.1396524E+00
          2   -1    0    0  502    0  0.00000000000E+00  0.00000000000E+00  0.95024674827E+03  0.95024674827E+03  0.00000000000E+00 0. -1.
         -2   -1    0    0    0  501 -0.00000000000E+00 -0.00000000000E+00 -0.11578717635E+01  0.11578717635E+01  0.00000000000E+00 0.  1.
          1    1    1    2  502    0 -0.24708794236E+02 -0.21611184628E+02  0.54286668068E+03  0.54385825433E+03  0.00000000000E+00 0.  1.
         -1    1    1    2    0  501  0.24708794236E+02  0.21611184628E+02  0.40622219583E+03  0.40754636570E+03  0.00000000000E+00 0. -1.
</event>
<event>
 4    1  0.6824761E+001  0.2601324E+02  0.7546771E-02  0.1457780E+00
          2   -1    0    0  502    0  0.00000000000E+00  0.00000000000E+00  0.26525574732E+02  0.26525574732E+02  0.00000000000E+00 0. -1.
         -2   -1    0    0    0  501 -0.00000000000E+00 -0.00000000000E+00 -0.25639178999E+02  0.25639178999E+02  0.00000000000E+00 0.  1.
          1    1    1    2  502    0 -0.25485302223E+02  0.52142004157E+01 -0.14024529042E+01  0.26051015135E+02  0.00000000000E+00 0.  1.
         -1    1    1    2    0  501  0.25485302223E+02 -0.52142004157E+01  0.22888486368E+01  0.26113738596E+02  0.00000000000E+00 0. -1.
</event>
<event>
 4    1  0.6824761E+001  0.2056621E+02  0.7546771E-02  0.1525549E+00
          2   -1    0    0  502    0  0.00000000000E+00  0.00000000000E+00  0.45811559436E+03  0.45811559436E+03  0.00000000000E+00 0. -1.
         -2   -1    0    0    0  501 -0.00000000000E+00 -0.00000000000E+00 -0.11395324969E+01  0.11395324969E+01  0.00000000000E+00 0.  1.
          1    1    1    2  502    0  0.15984516859E+02  0.12940793101E+02  0.32852058520E+03  0.32916370366E+03  0.00000000000E+00 0. -1.
         -1    1    1    2    0  501 -0.15984516859E+02 -0.12940793101E+02  0.12845547667E+03  0.13009142320E+03  0.00000000000E+00 0.  1.
</event>
<event>
 4    1  0.6824761E+001  0.3053718E+02  0.7546771E-02  0.1414985E+00
          2   -1    0    0  502    0  0.00000000000E+00  0.00000000000E+00  0.16661926632E+03  0.16661926632E+03  0.00000000000E+00 0.  1.
         -2   -1    0    0    0  501 -0.00000000000E+00 -0.00000000000E+00 -0.59910888356E+01  0.59910888356E+01  0.00000000000E+00 0. -1.
          1    1    1    2  502    0  0.18483082296E+02  0.24308332626E+02  0.10245736713E+03  0.10691132515E+03  0.00000000000E+00 0. -1.
         -1    1    1    2    0  501 -0.18483082296E+02 -0.24308332626E+02  0.58170810351E+02  0.65699030002E+02  0.00000000000E+00 0.  1.
</event>
<event>
 4    1  0.6824761E+001  0.2494283E+02  0.7546771E-02  0.1469444E+00
          2   -1    0    0  502    0  0.00000000000E+00  0.00000000000E+00  0.71351687737E+03  0.71351687737E+03  0.00000000000E+00 0. -1.
         -2   -1    0    0    0  501 -0.00000000000E+00 -0.00000000000E+00 -0.21451202815E+01  0.21451202815E+01  0.00000000000E+00 0.  1.
          1    1    1    2  502    0  0.37271819153E+00  0.24940043078E+02  0.80011181435E+02  0.83808912547E+02  0.00000000000E+00 0.  1.
         -1    1    1    2    0  501 -0.37271819153E+00 -0.24940043078E+02  0.63136057565E+03  0.63185308510E+03  0.00000000000E+00 0. -1.
</event>
<event>
 4    1  0.6824761E+001  0.1012452E+03  0.7546771E-02  0.1161668E+00
          2   -1    0    0  502    0  0.00000000000E+00  0.00000000000E+00  0.33952934949E+02  0.33952934949E+02  0.00000000000E+00 0.  1.
         -2   -1    0    0    0  501 -0.00000000000E+00 -0.00000000000E+00 -0.41479006117E+03  0.41479006117E+03  0.00000000000E+00 0. -1.
          1    1    1    2  502    0 -0.77664020314E+01  0.10094685028E+03 -0.73368820271E+02  0.12503426478E+03  0.00000000000E+00 0.  1.
         -1    1    1    2    0  501  0.77664020314E+01 -0.10094685028E+03 -0.30746830595E+03  0.32370873134E+03  0.00000000000E+00 0. -1.
</event>
<event>
 4    1  0.6824761E+001  0.2000565E+02  0.7546771E-02  0.1533949E+00
          2   -1    0    0  502    0  0.00000000000E+00  0.00000000000E+00  0.15548754561E+04  0.15548754561E+04  0.00000000000E+00 0. -1.
         -2   -1    0    0    0  501 -0.00000000000E+00 -0.00000000000E+00 -0.40736403187E+00  0.40736403187E+00  0.00000000000E+00 0.  1.
          1    1    1    2  502    0  0.19339465390E+02 -0.51196777847E+01  0.12490586537E+04  0.12492188545E+04  0.00000000000E+00 0. -1.
         -1    1    1    2    0  501 -0.19339465390E+02  0.51196777847E+01  0.30540943841E+03  0.30606396569E+03  0.00000000000E+00 0.  1.
</event>
<event>
 4    1  0.6824761E+001  0.2178262E+02  0.7546771E-02  0.1508378E+00
          2   -1    0    0  502    0  0.00000000000E+00  0.00000000000E+00  0.12519633232E+03  0.12519633232E+03  0.00000000000E+00 0.  1.
         -2   -1    0    0    0  501 -0.00000000000E+00 -0.00000000000E+00 -0.43948777151E+01  0.43948777151E+01  0.00000000000E+00 0. -1.
          1    1    1    2  502    0  0.13274722899E+02 -0.17270325213E+02  0.84441005326E+02  0.87205308218E+02  0.00000000000E+00 0.  1.
         -1    1    1    2    0  501 -0.13274722899E+02  0.17270325213E+02  0.36360449277E+02  0.42385901815E+02  0.00000000000E+00 0. -1.
</event>
<event>
 4    1  0.6824761E+001  0.2877876E+02  0.7546771E-02  0.1430514E+00
          2   -1    0    0  502    0  0.00000000000E+00  0.00000000000E+00  0.28403409239E+03  0.28403409239E+03  0.00000000000E+00 0. -1.
         -2   -1    0    0    0  501 -0.00000000000E+00 -0.00000000000E+00 -0.35566585719E+01  0.35566585719E+01  0.00000000000E+00 0.  1.
          1    1    1    2  502    0  0.27232928632E+02  0.93050860887E+01  0.20127226736E+03  0.20331931201E+03  0.00000000000E+00 0. -1.
         -1    1    1    2    0  501 -0.27232928632E+02 -0.93050860887E+01  0.79205166463E+02  0.84271438954E+02  0.00000000000E+00 0.  1.
</event>
<event>
 4    1  0.6824761E+001  0.2131648E+02  0.7546771E-02  0.1514794E+00
          2   -1    0    0  502    0  0.00000000000E+00  0.00000000000E+00  0.23292149007E+03  0.23292149007E+03  0.00000000000E+00 0.  1.
         -2   -1    0    0    0  501 -0.00000000000E+00 -0.00000000000E+00 -0.21514906330E+01  0.21514906330E+01  0.00000000000E+00 0. -1.
          1    1    1    2  502    0  0.81615590939E+01 -0.19692164478E+02  0.79490818566E+02  0.82299347658E+02  0.00000000000E+00 0. -1.
         -1    1    1    2    0  501 -0.81615590939E+01  0.19692164478E+02  0.15127918087E+03  0.15277363305E+03  0.00000000000E+00 0.  1.
</event>
<event>
 4    1  0.6824761E+001  0.2612638E+02  0.7546771E-02  0.1456587E+00
          2   -1    0    0  502    0  0.00000000000E+00  0.00000000000E+00  0.18090375213E+04  0.18090375213E+04  0.00000000000E+00 0.  1.
         -2   -1    0    0    0  501 -0.00000000000E+00 -0.00000000000E+00 -0.41235237952E+00  0.41235237952E+00  0.00000000000E+00 0. -1.
          1    1    1    2  502    0 -0.23165785215E+02  0.12080317833E+02  0.64061176046E+03  0.64114430149E+03  0.00000000000E+00 0.  1.
         -1    1    1    2    0  501  0.23165785215E+02 -0.12080317833E+02  0.11680134084E+04  0.11683055722E+04  0.00000000000E+00 0. -1.
</event>
<event>
 4    1  0.6824761E+001  0.5380424E+02  0.7546771E-02  0.1282471E+00
          2   -1    0    0  502    0  0.00000000000E+00  0.00000000000E+00  0.14590631734E+03  0.14590631734E+03  0.00000000000E+00 0.  1.
         -2   -1    0    0    0  501 -0.00000000000E+00 -0.00000000000E+00 -0.19975863441E+02  0.19975863441E+02  0.00000000000E+00 0. -1.
          1    1    1    2  502    0  0.45539082720E+02  0.28654629986E+02  0.56144825209E+02  0.77763341443E+02  0.00000000000E+00 0. -1.
         -1    1    1    2    0  501 -0.45539082720E+02 -0.28654629986E+02  0.69785628690E+02  0.88118839338E+02  0.00000000000E+00 0.  1.
</event>
<event>
 4    1  0.6824761E+001  0.4124552E+02  0.7546771E-02  0.1341338E+00
          2   -1    0    0  502    0  0.00000000000E+00  0.00000000000E+00  0.66034167781E+03  0.66034167781E+03  0.00000000000E+00 0. -1.
         -2   -1    0    0    0  501 -0.00000000000E+00 -0.00000000000E+00 -0.30292119573E+01  0.30292119573E+01  0.00000000000E+00 0.  1.
          1    1    1    2  502    0  0.20262437535E+02  0.35925287339E+02  0.45691929268E+03  0.45877710565E+03  0.00000000000E+00 0. -1.
         -1    1    1    2    0  501 -0.20262437535E+02 -0.35925287339E+02  0.20039317317E+03  0.20459378412E+03  0.00000000000E+00 0.  1.
</event>
<event>
 4    1  0.6824761E+001  0.3695573E+02  0.7546771E-02  0.1367312E+00
          2   -1    0    0  502    0  0.00000000000E+00  0.00000000000E+00  0.30428985529E+02  0.30428985529E+02  0.00000000000E+00 0.  1.
         -2   -1    0    0    0  501 -0.00000000000E+00 -0.00000000000E+00 -0.28077556597E+03  0.28077556597E+03  0.00000000000E+00 0. -1.
          1    1    1    2  502    0  0.41896637690E+01 -0.36717476080E+02 -0.26779773123E+03  0.27033562693E+03  0.00000000000E+00 0. -1.
         -1    1    1    2    0  501 -0.41896637690E+01  0.36717476080E+02  0.17451150788E+02  0.40868924576E+02  0.00000000000E+00 0.  1.
</event>
<event>
 4    1  0.6824761E+001  0.2703545E+02  0.7546771E-02  0.1447252E+00
          2   -1    0    0  502    0  0.00000000000E+00  0.00000000000E+00  0.10736894400E+04  0.10736894400E+04  0.00000000000E+00 0.  1.
         -2   -1    0    0    0  501 -0.00000000000E+00 -0.00000000000E+00 -0.78398871703E+00  0.78398871703E+00  0.00000000000E+00 0. -1.
          1    1    1    2  502    0 -0.24758751105E+01  0.26921846211E+02  0.34150023102E+03  0.34256871361E+03  0.00000000000E+00 0. -1.
         -1    1    1    2    0  501  0.24758751105E+01 -0.26921846211E+02  0.73140522024E+03  0.73190471508E+03  0.00000000000E+00 0.  1.
</event>
<event>
 4    1  0.6824761E+001  0.3401587E+02  0.7546771E-02  0.1387617E+00
          2   -1    0    0  502    0  0.00000000000E+00  0.00000000000E+00  0.79861649581E+02  0.79861649581E+02  0.00000000000E+00 0. -1.
         -2   -1    0    0    0  501 -0.00000000000E+00 -0.00000000000E+00 -0.22442284163E+02  0.22442284163E+02  0.00000000000E+00 0.  1.
          1    1    1    2  502    0  0.85089950213E+01 -0.32934429999E+02 -0.17422096410E+01  0.34060460509E+02  0.00000000000E+00 0.  1.
         -1    1    1    2    0  501 -0.85089950213E+01  0.32934429999E+02  0.59161575059E+02  0.68243473235E+02  0.00000000000E+00 0. -1.
</event>
<event>
 4    1  0.6824761E+001  0.2301546E+02  0.7546771E-02  0.1492304E+00
          2   -1    0    0  502    0  0.00000000000E+00  0.00000000000E+00  0.14936799936E+03  0.14936799936E+03  0.00000000000E+00 0.  1.
         -2   -1    0    0    0  501 -0.00000000000E+00 -0.00000000000E+00 -0.37353856318E+01  0.37353856318E+01  0.00000000000E+00 0. -1.
          1    1    1    2  502    0  0.54368202905E+01 -0.22364086704E+02  0.55595341506E+02  0.60171034445E+02  0.00000000000E+00 0. -1.
         -1    1    1    2    0  501 -0.54368202905E+01  0.22364086704E+02  0.90037272220E+02  0.92932350545E+02  0.00000000000E+00 0.  1.
</event>
<event>
 4    1  0.6824761E+001  0.3927057E+02  0.7546771E-02  0.1352814E+00
          2   -1    0    0  502    0  0.00000000000E+00  0.00000000000E+00  0.15481283748E+03  0.15481283748E+03  0.00000000000E+00 0. -1.
         -2   -1    0    0    0  501 -0.00000000000E+00 -0.00000000000E+00 -0.19738221796E+02  0.19738221796E+02  0.00000000000E+00 0.  1.
          1    1    1    2  502    0 -0.20881169101E+02 -0.33258894530E+02  0.61139169338E+01  0.39743644381E+02  0.00000000000E+00 0. -1.
         -1    1    1    2    0  501  0.20881169101E+02  0.33258894530E+02  0.12896069875E+03  0.13480741489E+03  0.00000000000E+00 0.  1.
</event>
<event>
 4    1  0.6824761E+001  0.2094114E+02  0.7546771E-02  0.1520107E+00
          2   -1    0    0  502    0  0.00000000000E+00  0.00000000000E+00  0.77086234317E+02  0.77086234317E+02  0.00000000000E+00 0.  1.
         -2   -1    0    0    0  501 -0.00000000000E+00 -0.00000000000E+00 -0.57057179102E+01  0.57057179102E+01  0.00000000000E+00 0. -1.
          1    1    1    2  502    0 -0.19180225917E+02  0.84053622612E+01  0.33438745633E+02  0.39454795532E+02  0.00000000000E+00 0. -1.
         -1    1    1    2    0  501  0.19180225917E+02 -0.84053622612E+01  0.37941770774E+02  0.43337156695E+02  0.00000000000E+00 0.  1.
</event>
<event>
 4    1  0.6824761E+001  0.2833147E+02  0.7546771E-02  0.1434673E+00
          2   -1    0    0  502    0  0.00000000000E+00  0.00000000000E+00  0.13738857986E+04  0.13738857986E+04  0.00000000000E+00 0. -1.
         -2   -1    0    0    0  501 -0.00000000000E+00 -0.00000000000E+00 -0.71296810092E+00  0.71296810092E+00  0.00000000000E+00 0.  1.
          1    1    1    2  502    0 -0.27560169421E+02  0.65657465449E+01  0.97863578241E+03  0.97904579392E+03  0.00000000000E+00 0. -1.
         -1    1    1    2    0  501  0.27560169421E+02 -0.65657465449E+01  0.39453704807E+03  0.39555297277E+03  0.00000000000E+00 0.  1.
</event>
<event>
 4    1  0.6824761E+001  0.3358658E+02  0.7546771E-02  0.1390782E+00
          2   -1    0    0  502    0  0.00000000000E+00  0.00000000000E+00  0.98485208822E+02  0.98485208822E+02  0.00000000000E+00 0.  1.
         -2   -1    0    0    0  501 -0.00000000000E+00 -0.00000000000E+00 -0.23682540468E+02  0.23682540468E+02  0.00000000000E+00 0. -1.
          1    1    1    2  502    0 -0.24187426156E+02  0.23302935206E+02  0.81294626825E+02  0.87959506160E+02  0.00000000000E+00 0.  1.
         -1    1    1    2    0  501  0.24187426156E+02 -0.23302935206E+02 -0.64919584711E+01  0.34208243130E+02  0.00000000000E+00 0. -1.
</event>
<event>
 4    1  0.6824761E+001  0.3426302E+02  0.7546771E-02  0.1385820E+00
          2   -1    0    0  502    0  0.00000000000E+00  0.00000000000E+00  0.58354819757E+01  0.58354819757E+01  0.00000000000E+00 0.  1.
         -2   -1    0    0    0  501 -0.00000000000E+00 -0.00000000000E+00 -0.20736197918E+03  0.20736197918E+03  0.00000000000E+00 0. -1.
          1    1    1    2  502    0 -0.28821001263E+02  0.18528469290E+02 -0.11917603727E+03  0.12400355699E+03  0.00000000000E+00 0.  1.
         -1    1    1    2    0  501  0.28821001263E+02 -0.18528469290E+02 -0.82350459937E+02  0.89193904163E+02  0.00000000000E+00 0. -1.
</event>
<event>
 4    1  0.6824761E+001  0.2518521E+02  0.7546771E-02  0.1466742E+00
          2   -1    0    0  502    0  0.00000000000E+00  0.00000000000E+00  0.27234018571E+01  0.27234018571E+01  0.00000000000E+00 0.  1.
         -2   -1    0    0    0  501 -0.00000000000E+00 -0.00000000000E+00 -0.24391097849E+03  0.24391097849E+03  0.00000000000E+00 0. -1.
          1    1    1    2  502    0 -0.98161976597E+00  0.25166073742E+02 -0.14678861320E+03  0.14893351473E+03  0.00000000000E+00 0. -1.
         -1    1    1    2    0  501  0.98161976597E+00 -0.25166073742E+02 -0.94398963431E+02  0.97700865614E+02  0.00000000000E+00 0.  1.
</event>
<event>
 4    1  0.6824761E+001  0.2666781E+02  0.7546771E-02  0.1450974E+00
          2   -1    0    0  502    0  0.00000000000E+00  0.00000000000E+00  0.96883923285E+03  0.96883923285E+03  0.00000000000E+00 0. -1.
         -2   -1    0    0    0  501 -0.00000000000E+00 -0.00000000000E+00 -0.73407667361E+00  0.73407667361E+00  0.00000000000E+00 0.  1.
          1    1    1    2  502    0 -0.11044387783E+02  0.24273308271E+02  0.48088905791E+03  0.48162792487E+03  0.00000000000E+00 0. -1.
         -1    1    1    2    0  501  0.11044387783E+02 -0.24273308271E+02  0.48721609827E+03  0.48794538466E+03  0.00000000000E+00 0.  1.
</event>
<event>
 4    1  0.6824761E+001  0.3851748E+02  0.7546771E-02  0.1357399E+00
          2   -1    0    0  502    0  0.00000000000E+00  0.00000000000E+00  0.55062158645E+03  0.55062158645E+03  0.00000000000E+00 0.  1.
         -2   -1    0    0    0  501 -0.00000000000E+00 -0.00000000000E+00 -0.26993093970E+01  0.26993093970E+01  0.00000000000E+00 0. -1.
          1    1    1    2  502    0 -0.37435668954E+02 -0.90645860601E+01  0.26216510065E+03  0.26497950115E+03  0.00000000000E+00 0.  1.
         -1    1    1    2    0  501  0.37435668954E+02  0.90645860601E+01  0.28575717641E+03  0.28834139471E+03  0.00000000000E+00 0. -1.
</event>
<event>
 4    1  0.6824761E+001  0.3931386E+02  0.7546771E-02  0.1352554E+00
          2   -1    0    0  502    0  0.00000000000E+00  0.00000000000E+00  0.12866761872E+04  0.12866761872E+04  0.00000000000E+00 0.  1.
         -2   -1    0    0    0  501 -0.00000000000E+00 -0.00000000000E+00 -0.12448613221E+01  0.12448613221E+01  0.00000000000E+00 0. -1.
          1    1    1    2  502    0  0.41086186565E+01  0.39098580369E+02  0.52214177665E+03  0.52361972333E+03  0.00000000000E+00 0. -1.
         -1    1    1    2    0  501 -0.41086186565E+01 -0.39098580369E+02  0.76328954922E+03  0.76430132519E+03  0.00000000000E+00 0.  1.
</event>
<event>
 4    1  0.6824761E+001  0.3156077E+02  0.7546771E-02  0.1406501E+00
          2   -1    0    0  502    0  0.00000000000E+00  0.00000000000E+00  0.17824712186E+02  0.17824712186E+02  0.00000000000E+00 0. -1.
         -2   -1    0    0    0  501 -0.00000000000E+00 -0.00000000000E+00 -0.10015756346E+03  0.10015756346E+03  0.00000000000E+00 0.  1.
          1    1    1    2  502    0 -0.99741244920E+00 -0.31545006917E+02 -0.80388130812E+02  0.86361645818E+02  0.00000000000E+00 0.  1.
         -1    1    1    2    0  501  0.99741244920E+00  0.31545006917E+02 -0.19447204611E+01  0.31620629827E+02  0.00000000000E+00 0. -1.
</event>
<event>
 4    1  0.6824761E+001  0.5310732E+02  0.7546771E-02  0.1285234E+00
          2   -1    0    0  502    0  0.00000000000E+00  0.00000000000E+00  0.39870819460E+03  0.39870819460E+03  0.00000000000E+00 0.  1.
         -2   -1    0    0    0  501 -0.00000000000E+00 -0.00000000000E+00 -0.71689689824E+01  0.71689689824E+01  0.00000000000E+00 0. -1.
          1    1    1    2  502    0 -0.30747405410E+02  0.43301086453E+02  0.21915019735E+03  0.22549322834E+03  0.00000000000E+00 0. -1.
         -1    1    1    2    0  501  0.30747405410E+02 -0.43301086453E+02  0.17238902826E+03  0.18038393524E+03  0.00000000000E+00 0.  1.
</event>
<event>
 4    1  0.6824761E+001  0.2506872E+02  0.7546771E-02  0.1468036E+00
          2   -1    0    0  502    0  0.00000000000E+00  0.00000000000E+00  0.16432993162E+04  0.16432993162E+04  0.00000000000E+00 0. -1.
         -2   -1    0    0    0  501 -0.00000000000E+00 -0.00000000000E+00 -0.57953786206E+00  0.57953786206E+00  0.00000000000E+00 0.  1.
          1    1    1    2  502    0  0.17548771518E+02 -0.17901997230E+02  0.34200744106E+03  0.34292496355E+03  0.00000000000E+00 0.  1.
         -1    1    1    2    0  501 -0.17548771518E+02  0.17901997230E+02  0.13007123372E+04  0.13009538905E+04  0.00000000000E+00 0. -1.
</event>
<event>
 4    1  0.6824761E+001  0.3451099E+02  0.7546771E-02  0.1384034E+00
          2   -1    0    0  502    0  0.00000000000E+00  0.00000000000E+00  0.14162625678E+03  0.14162625678E+03  0.00000000000E+00 0.  1.
         -2   -1    0    0    0  501 -0.00000000000E+00 -0.00000000000E+00 -0.94839034774E+01  0.94839034774E+01  0.00000000000E+00 0. -1.
          1    1    1    2  502    0 -0.25658867265E+02  0.23078800546E+02  0.40640949103E+02  0.53316932094E+02  0.00000000000E+00 0.  1.
         -1    1    1    2    0  501  0.25658867265E+02 -0.23078800546E+02  0.91501404197E+02  0.97793228160E+02  0.00000000000E+00 0. -1.
</event>
<event>
 4    1  0.6824761E+001  0.2005388E+02  0.7546771E-02  0.1533214E+00
          2   -1    0    0  502    0  0.00000000000E+00  0.00000000000E+00  0.12847667505E+03  0.12847667505E+03  0.00000000000E+00 0. -1.
         -2   -1    0    0    0  501 -0.00000000000E+00 -0.00000000000E+00 -0.34587525547E+01  0.34587525547E+01  0.00000000000E+00 0.  1.
          1    1    1    2  502    0  0.91738906738E+01 -0.17832495550E+02  0.82840565364E+02  0.85233311783E+02  0.00000000000E+00 0. -1.
         -1    1    1    2    0  501 -0.91738906738E+01  0.17832495550E+02  0.42177357128E+02  0.46702115818E+02  0.00000000000E+00 0.  1.
</event>
<event>
 4    1  0.6824761E+001  0.2206414E+02  0.7546771E-02  0.1504596E+00
          2   -1    0    0  502    0  0.00000000000E+00  0.00000000000E+00  0.13617071190E+02  0.13617071190E+02  0.00000000000E+00 0.  1.
         -2   -1    0    0    0  501 -0.00000000000E+00 -0.00000000000E+00 -0.40378503998E+02  0.40378503998E+02  0.00000000000E+00 0. -1.
          1    1    1    2  502    0 -0.22029491007E+02 -0.12359549095E+01 -0.22520145511E+02  0.31527496132E+02  0.00000000000E+00 0. -1.
         -1    1    1    2    0  501  0.22029491007E+02  0.12359549095E+01 -0.42412872972E+01  0.22468079056E+02  0.00000000000E+00 0.  1.
</event>
<event>
 4    1  0.6824761E+001  0.7408601E+02  0.7546771E-02  0.1218285E+00
          2   -1    0    0  502    0  0.00000000000E+00  0.00000000000E+00  0.72643433857E+01  0.72643433857E+01  0.00000000000E+00 0.  1.
         -2   -1    0    0    0  501 -0.00000000000E+00 -0.00000000000E+00 -0.76498221164E+03  0.76498221164E+03  0.00000000000E+00 0. -1.
          1    1    1    2  502    0  0.73412490289E+02 -0.99670979757E+01 -0.42168347027E+03  0.42814213279E+03  0.00000000000E+00 0. -1.
         -1    1    1    2    0  501 -0.73412490289E+02  0.99670979757E+01 -0.33603439799E+03  0.34410442224E+03  0.00000000000E+00 0.  1.
</event>
<event>
 4    1  0.6824761E+001  0.2252018E+02  0.7546771E-02  0.1498613E+00
          2   -1    0    0  502    0  0.00000000000E+00  0.00000000000E+00  0.16052237904E+03  0.16052237904E+03  0.00000000000E+00 0.  1.
         -2   -1    0    0    0  501 -0.00000000000E+00 -0.00000000000E+00 -0.31613705863E+01  0.31613705863E+01  0.00000000000E+00 0. -1.
          1    1    1    2  502    0  0.11398122408E+02 -0.19422701535E+02  0.80710453889E+02  0.83793412010E+02  0.00000000000E+00 0.  1.
         -1    1    1    2    0  501 -0.11398122408E+02  0.19422701535E+02  0.76650554568E+02  0.79890337620E+02  0.00000000000E+00 0. -1.
</event>
<event>
 4    1  0.6824761E+001  0.2288782E+02  0.7546771E-02  0.1493912E+00
          2   -1    0    0  502    0  0.00000000000E+00  0.00000000000E+00  0.64189942241E+03  0.64189942241E+03  0.00000000000E+00 0. -1.
         -2   -1    0    0    0  501 -0.00000000000E+00 -0.00000000000E+00 -0.11648646723E+01  0.11648646723E+01  0.00000000000E+00 0.  1.
          1    1    1    2  502    0 -0.22871494381E+02 -0.86440070929E+00  0.14443135467E+03  0.14623360987E+03  0.00000000000E+00 0.  1.
         -1    1    1    2    0  501  0.22871494381E+02  0.86440070929E+00  0.49630320307E+03  0.49683067721E+03  0.00000000000E+00 0. -1.
</event>
<event>
 4    1  0.6824761E+001  0.3375470E+02  0.7546771E-02  0.1389536E+00
          2   -1    0    0  502    0  0.00000000000E+00  0.00000000000E+00  0.43968240378E+03  0.43968240378E+03  0.00000000000E+00 0.  1.
         -2   -1    0    0    0  501 -0.00000000000E+00 -0.00000000000E+00 -0.27278502834E+01  0.27278502834E+01  0.00000000000E+00 0. -1.
          1    1    1    2  502    0  0.14168849006E+02  0.30636957597E+02  0.26795629834E+03  0.27007398481E+03  0.00000000000E+00 0.  1.
         -1    1    1    2    0  501 -0.14168849006E+02 -0.30636957597E+02  0.16899825515E+03  0.17233626925E+03  0.00000000000E+00 0. -1.
</event>
<event>
 4    1  0.6824761E+001  0.3782365E+02  0.7546771E-02  0.1361734E+00
          2   -1    0    0  502    0  0.00000000000E+00  0.00000000000E+00  0.27663556716E+04  0.27663556716E+04  0.00000000000E+00 0.  1.
         -2   -1    0    0    0  501 -0.00000000000E+00 -0.00000000000E+00 -0.59502597964E+00  0.59502597964E+00  0.00000000000E+00 0. -1.
          1    1    1    2  502    0 -0.26919880218E+02 -0.26569698539E+02  0.18833723493E+04  0.18837521161E+04  0.00000000000E+00 0.  1.
         -1    1    1    2    0  501  0.26919880218E+02  0.26569698539E+02  0.88238829631E+03  0.88319858146E+03  0.00000000000E+00 0. -1.
</event>
<event>
 4    1  0.6824761E+001  0.2161622E+02  0.7546771E-02  0.1510646E+00
          2   -1    0    0  502    0  0.00000000000E+00  0.00000000000E+00  0.87596007616E+01  0.87596007616E+01  0.00000000000E+00 0. -1.
         -2   -1    0    0    0  501 -0.00000000000E+00 -0.00000000000E+00 -0.54662572691E+02  0.54662572691E+02  0.00000000000E+00 0.  1.
          1    1    1    2  502    0 -0.21613203225E+02  0.36111198094E+00 -0.18023966403E+02  0.28144703239E+02  0.00000000000E+00 0. -1.
         -1    1    1    2    0  501  0.21613203225E+02 -0.36111198094E+00 -0.27879005526E+02  0.35277470213E+02  0.00000000000E+00 0.  1.
</event>
<event>
 4    1  0.6824761E+001  0.2232278E+02  0.7546771E-02  0.1501182E+00
          2   -1    0    0  502    0  0.00000000000E+00  0.00000000000E+00  0.10510535746E+04  0.10510535746E+04  0.00000000000E+00 0. -1.
         -2   -1    0    0    0  501 -0.00000000000E+00 -0.00000000000E+00 -0.56312624394E+00  0.56312624394E+00  0.00000000000E+00 0.  1.
          1    1    1    2  502    0 -0.21346380044E+02  0.65298066913E+01  0.73430929590E+03  0.73464852029E+03  0.00000000000E+00 0. -1.
         -1    1    1    2    0  501  0.21346380044E+02 -0.65298066913E+01  0.31618115247E+03  0.31696818057E+03  0.00000000000E+00 0.  1.
</event>
<event>
 4    1  0.6824761E+001  0.2218231E+02  0.7546771E-02  0.1503029E+00
          2   -1    0    0  502    0  0.00000000000E+00  0.00000000000E+00  0.26261654442E+03  0.26261654442E+03  0.00000000000E+00 0.  1.
         -2   -1    0    0    0  501 -0.00000000000E+00 -0.00000000000E+00 -0.33217761920E+01  0.33217761920E+01  0.00000000000E+00 0. -1.
          1    1    1    2  502    0  0.20569798598E+02 -0.83028974399E+01  0.21744184193E+03  0.21857037618E+03  0.00000000000E+00 0.  1.
         -1    1    1    2    0  501 -0.20569798598E+02  0.83028974399E+01  0.41852926294E+02  0.47367944431E+02  0.00000000000E+00 0. -1.
</event>
<event>
 4    1  0.6824761E+001  0.6012322E+02  0.7546771E-02  0.1259415E+00
          2   -1    0    0  502    0  0.00000000000E+00  0.00000000000E+00  0.14782688903E+04  0.14782688903E+04  0.00000000000E+00 0. -1.
         -2   -1    0    0    0  501 -0.00000000000E+00 -0.00000000000E+00 -0.30665855616E+01  0.30665855616E+01  0.00000000000E+00 0.  1.
          1    1    1    2  502    0 -0.48212998148E+02 -0.35920867333E+02  0.10709843034E+04  0.10726705832E+04  0.00000000000E+00 0. -1.
         -1    1    1    2    0  501  0.48212998148E+02  0.35920867333E+02  0.40421800130E+03  0.40866489264E+03  0.00000000000E+00 0.  1.
</event>
<event>
 4    1  0.6824761E+001  0.2985584E+02  0.7546771E-02  0.1420853E+00
          2   -1    0    0  502    0  0.00000000000E+00  0.00000000000E+00  0.62835018085E+03  0.62835018085E+03  0.00000000000E+00 0.  1.
         -2   -1    0    0    0  501 -0.00000000000E+00 -0.00000000000E+00 -0.14225546954E+01  0.14225546954E+01  0.00000000000E+00 0. -1.
          1    1    1    2  502    0  0.29774473645E+02  0.22027175470E+01  0.33008750817E+03  0.33143496239E+03  0.00000000000E+00 0. -1.
         -1    1    1    2    0  501 -0.29774473645E+02 -0.22027175470E+01  0.29684011798E+03  0.29833777315E+03  0.00000000000E+00 0.  1.
</event>
<event>
 4    1  0.6824761E+001  0.2571545E+02  0.7546771E-02  0.1460957E+00
          2   -1    0    0  502    0  0.00000000000E+00  0.00000000000E+00  0.50172459662E+01  0.50172459662E+01  0.00000000000E+00 0.  1.
         -2   -1    0    0    0  501 -0.00000000000E+00 -0.00000000000E+00 -0.16280035240E+03  0.16280035240E+03  0.00000000000E+00 0. -1.
          1    1    1    2  502    0 -0.19795838059E+02  0.16413687072E+02 -0.42277537711E+02  0.49484083528E+02  0.00000000000E+00 0.  1.
         -1    1    1    2    0  501  0.19795838059E+02 -0.16413687072E+02 -0.11550556873E+03  0.11833351484E+03  0.00000000000E+00 0. -1.
</event>
<event>
 4    1  0.6824761E+001  0.2168489E+02  0.7546771E-02  0.1509707E+00
          2   -1    0    0  502    0  0.00000000000E+00  0.00000000000E+00  0.75632331599E+03  0.75632331599E+03  0.00000000000E+00 0.  1.
         -2   -1    0    0    0  501 -0.00000000000E+00 -0.00000000000E+00 -0.71445130298E+00  0.71445130298E+00  0.00000000000E+00 0. -1.
          1    1    1    2  502    0 -0.15718432371E+02 -0.14938712345E+02  0.24144837406E+03  0.24242019631E+03  0.00000000000E+00 0. -1.
         -1    1    1    2    0  501  0.15718432371E+02  0.14938712345E+02  0.51416049063E+03  0.51461757099E+03  0.00000000000E+00 0.  1.
</event>
<event>
 4    1  0.6824761E+001  0.2591001E+02  0.7546771E-02  0.1458876E+00
          2   -1    0    0  502    0  0.00000000000E+00  0.00000000000E+00  0.51807443480E+03  0.51807443480E+03  0.00000000000E+00 0. -1.
         -2   -1    0    0    0  501 -0.00000000000E+00 -0.00000000000E+00 -0.17706420743E+01  0.17706420743E+01  0.00000000000E+00 0.  1.
          1    1    1    2  502    0 -0.11635178629E+01 -0.25883869982E+02  0.39275231076E+03  0.39360602905E+03  0.00000000000E+00 0. -1.
         -1    1    1    2    0  501  0.11635178629E+01  0.25883869982E+02  0.12355148196E+03  0.12623904782E+03  0.00000000000E+00 0.  1.
</event>
<event>
 4    1  0.6824761E+001  0.2147083E+02  0.7546771E-02  0.1512648E+00
          2   -1    0    0  502    0  0.00000000000E+00  0.00000000000E+00  0.44422510319E+03  0.44422510319E+03  0.00000000000E+00 0.  1.
         -2   -1    0    0    0  501 -0.00000000000E+00 -0.00000000000E+00 -0.12119071942E+01  0.12119071942E+01  0.00000000000E+00 0. -1.
          1    1    1    2  502    0 -0.15541826235E+02 -0.14813776464E+02  0.30593478454E+03  0.30668728165E+03  0.00000000000E+00 0.  1.
         -1    1    1    2    0  501  0.15541826235E+02  0.14813776464E+02  0.13707841146E+03  0.13874972873E+03  0.00000000000E+00 0. -1.
</event>
<event>
 4    1  0.6824761E+001  0.2392942E+02  0.7546771E-02  0.1481146E+00
          2   -1    0    0  502    0  0.00000000000E+00  0.00000000000E+00  0.25062804068E+02  0.25062804068E+02  0.00000000000E+00 0. -1.
         -2   -1    0    0    0  501 -0.00000000000E+00 -0.00000000000E+00 -0.69055703796E+02  0.69055703796E+02  0.00000000000E+00 0.  1.
          1    1    1    2  502    0 -0.19222591192E+02 -0.14251641938E+02 -0.60491577205E+02  0.65052657308E+02  0.00000000000E+00 0.  1.
         -1    1    1    2    0  501  0.19222591192E+02  0.14251641938E+02  0.16498677477E+02  0.29065850556E+02  0.00000000000E+00 0. -1.
</event>
<event>
 4    1  0.6824761E+001  0.3209938E+02  0.7546771E-02  0.1402189E+00
          2   -1    0    0  502    0  0.00000000000E+00  0.00000000000E+00  0.35598170619E+03  0.35598170619E+03  0.00000000000E+00 0. -1.
         -2   -1    0    0    0  501 -0.00000000000E+00 -0.00000000000E+00 -0.33658433095E+01  0.33658433095E+01  0.00000000000E+00 0.  1.
          1    1    1    2  502    0 -0.27742221481E+02  0.16147428604E+02  0.10906747136E+03  0.11369293563E+03  0.00000000000E+00 0.  1.
         -1    1    1    2    0  501  0.27742221481E+02 -0.16147428604E+02  0.24354839152E+03  0.24565461387E+03  0.00000000000E+00 0. -1.
</event>
<event>
 4    1  0.6824761E+001  0.2016661E+02  0.7546771E-02  0.1531504E+00
          2   -1    0    0  502    0  0.00000000000E+00  0.00000000000E+00  0.36730198044E+02  0.36730198044E+02  0.00000000000E+00 0.  1.
         -2   -1    0    0    0  501 -0.00000000000E+00 -0.00000000000E+00 -0.16034939919E+02  0.16034939919E+02  0.00000000000E+00 0. -1.
          1    1    1    2  502    0 -0.18117488803E+02 -0.88571354332E+01  0.25024533377E+02  0.32139065316E+02  0.00000000000E+00 0.  1.
         -1    1    1    2    0  501  0.18117488803E+02  0.88571354332E+01 -0.43292752529E+01  0.20626072647E+02  0.00000000000E+00 0. -1.
</event>
<event>
 4    1  0.6824761E+001  0.4701159E+02  0.7546771E-02  0.1311676E+00
          2   -1    0    0  502    0  0.00000000000E+00  0.00000000000E+00  0.40164508462E+03  0.40164508462E+03  0.00000000000E+00 0. -1.
         -2   -1    0    0    0  501 -0.00000000000E+00 -0.00000000000E+00 -0.67340180021E+01  0.67340180021E+01  0.00000000000E+00 0.  1.
          1    1    1    2  502    0 -0.31162798330E+02  0.35199002901E+02  0.28477281310E+03  0.28862717282E+03  0.00000000000E+00 0. -1.
         -1    1    1    2    0  501  0.31162798330E+02 -0.35199002901E+02  0.11013825351E+03  0.11975192980E+03  0.00000000000E+00 0.  1.
</event>
<event>
 4    1  0.6824761E+001  0.2401352E+02  0.7546771E-02  0.1480149E+00
          2   -1    0    0  502    0  0.00000000000E+00  0.00000000000E+00  0.10057181367E+04  0.10057181367E+04  0.00000000000E+00 0. -1.
         -2   -1    0    0    0  501 -0.00000000000E+00 -0.00000000000E+00 -0.58629103316E+00  0.58629103316E+00  0.00000000000E+00 0.  1.
          1    1    1    2  502    0 -0.76240505170E+01  0.22771097864E+02  0.42787220203E+03  0.42854552887E+03  0.00000000000E+00 0. -1.
         -1    1    1    2    0  501  0.76240505170E+01 -0.22771097864E+02  0.57725964363E+03  0.57775889886E+03  0.00000000000E+00 0.  1.
</event>
<event>
 4    1  0.6824761E+001  0.2113912E+02  0.7546771E-02  0.1517288E+00
          2   -1    0    0  502    0  0.00000000000E+00  0.00000000000E+00  0.32316468207E+03  0.32316468207E+03  0.00000000000E+00 0.  1.
         -2   -1    0    0    0  501 -0.00000000000E+00 -0.00000000000E+00 -0.14008916993E+01  0.14008916993E+01  0.00000000000E+00 0. -1.
          1    1    1    2  502    0  0.85595363106E+01  0.19328648772E+02  0.17933941854E+03  0.18058097732E+03  0.00000000000E+00 0. -1.
         -1    1    1    2    0  501 -0.85595363106E+01 -0.19328648772E+02  0.14242437182E+03  0.14398459645E+03  0.00000000000E+00 0.  1.
</event>
<event>
 4    1  0.6824761E+001  0.2146421E+02  0.7546771E-02  0.1512739E+00
          2   -1    0    0  502    0  0.00000000000E+00  0.00000000000E+00  0.37937744921E+03  0.37937744921E+03  0.00000000000E+00 0. -1.
         -2   -1    0    0    0  501 -0.00000000000E+00 -0.00000000000E+00 -0.13966580816E+01  0.13966580816E+01  0.00000000000E+00 0.  1.
          1    1    1    2  502    0  0.41689086372E+01 -0.21055459166E+02  0.12021268111E+03  0.12211388480E+03  0.00000000000E+00 0.  1.
         -1    1    1    2    0  501 -0.41689086372E+01  0.21055459166E+02  0.25776811001E+03  0.25866022249E+03  0.00000000000E+00 0. -1.
</event>
<event>
 4    1  0.6824761E+001  0.2496137E+02  0.7546771E-02  0.1469236E+00
          2   -1    0    0  502    0  0.00000000000E+00  0.00000000000E+00  0.75588553816E+03  0.75588553816E+03  0.00000000000E+00 0.  1.
         -2   -1    0    0    0  501 -0.00000000000E+00 -0.00000000000E+00 -0.10837309074E+01  0.10837309074E+01  0.00000000000E+00 0. -1.
          1    1    1    2  502    0 -0.24623704375E+02 -0.40918639826E+01  0.56258570316E+03  0.56313918667E+03  0.00000000000E+00 0.  1.
         -1    1    1    2    0  501  0.24623704375E+02  0.40918639826E+01  0.19221610410E+03  0.19383008240E+03  0.00000000000E+00 0. -1.
</event>
<event>
 4    1  0.6824761E+001  0.3789745E+02  0.7546771E-02  0.1361267E+00
          2   -1    0    0  502    0  0.00000000000E+00  0.00000000000E+00  0.34040092582E+01  0.34040092582E+01  0.00000000000E+00 0. -1.
         -2   -1    0    0    0  501 -0.00000000000E+00 -0.00000000000E+00 -0.44995875872E+03  0.44995875872E+03  0.00000000000E+00 0.  1.
          1    1    1    2  502    0 -0.11797979958E+02  0.36014226248E+02 -0.16669056913E+03  0.17094432620E+03  0.00000000000E+00 0.  1.
         -1    1    1    2    0  501  0.11797979958E+02 -0.36014226248E+02 -0.27986418033E+03  0.28241844178E+03  0.00000000000E+00 0. -1.
</event>
<event>
 4    1  0.6824761E+001  0.2719990E+02  0.7546771E-02  0.1445610E+00
          2   -1    0    0  502    0  0.00000000000E+00  0.00000000000E+00  0.10107057688E+04  0.10107057688E+04  0.00000000000E+00 0.  1.
         -2   -1    0    0    0  501 -0.00000000000E+00 -0.00000000000E+00 -0.10198944381E+01  0.10198944381E+01  0.00000000000E+00 0. -1.
          1    1    1    2  502    0 -0.17268623222E+01  0.27145028047E+02  0.23607757016E+03  0.23763933541E+03  0.00000000000E+00 0. -1.
         -1    1    1    2    0  501  0.17268623222E+01 -0.27145028047E+02  0.77360830424E+03  0.77408632787E+03  0.00000000000E+00 0.  1.
</event>
<event>
 4    1  0.6824761E+001  0.2398118E+02  0.7546771E-02  0.1480532E+00
          2   -1    0    0  502    0  0.00000000000E+00  0.00000000000E+00  0.93365534234E+02  0.93365534234E+02  0.00000000000E+00 0.  1.
         -2   -1    0    0    0  501 -0.00000000000E+00 -0.00000000000E+00 -0.71193029341E+01  0.71193029341E+01  0.00000000000E+00 0. -1.
          1    1    1    2  502    0  0.14915737820E+02  0.18778117842E+02  0.61569612917E+02  0.66075064731E+02  0.00000000000E+00 0.  1.
         -1    1    1    2    0  501 -0.14915737820E+02 -0.18778117842E+02  0.24676618382E+02  0.34409772437E+02  0.00000000000E+00 0. -1.
</event>
<event>
 4    1  0.6824761E+001  0.2099476E+02  0.7546771E-02  0.1519340E+00
          2   -1    0    0  502    0  0.00000000000E+00  0.00000000000E+00  0.51594719540E+02  0.51594719540E+02  0.00000000000E+00 0. -1.
         -2   -1    0    0    0  501 -0.00000000000E+00 -0.00000000000E+00 -0.13061657804E+02  0.13061657804E+02  0.00000000000E+00 0.  1.
          1    1    1    2  502    0  0.74475762349E+01  0.19629400143E+02  0.38280873277E+02  0.43660107657E+02  0.00000000000E+00 0. -1.
         -1    1    1    2    0  501 -0.74475762349E+01 -0.19629400143E+02  0.25218845909E+00  0.20996269687E+02  0.00000000000E+00 0.  1.
</event>
<event>
 4    1  0.6824761E+001  0.2330145E+02  0.7546771E-02  0.1488747E+00
          2   -1    0    0  502    0  0.00000000000E+00  0.00000000000E+00  0.29390260429E+01  0.29390260429E+01  0.00000000000E+00 0.  1.
         -2   -1    0    0    0  501 -0.00000000000E+00 -0.00000000000E+00 -0.24179385038E+03  0.24179385038E+03  0.00000000000E+00 0. -1.
          1    1    1    2  502    0 -0.18555811869E+02  0.14093942669E+02 -0.59987252468E+02  0.64353926319E+02  0.00000000000E+00 0.  1.
         -1    1    1    2    0  501  0.18555811869E+02 -0.14093942669E+02 -0.17886757187E+03  0.18037895010E+03  0.00000000000E+00 0. -1.
</event>
<event>
 4    1  0.6824761E+001  0.2351533E+02  0.7546771E-02  0.1486127E+00
          2   -1    0    0  502    0  0.00000000000E+00  0.00000000000E+00  0.22062493120E+04  0.22062493120E+04  0.00000000000E+00 0.  1.
         -2   -1    0    0    0  501 -0.00000000000E+00 -0.00000000000E+00 -0.35094893983E+00  0.35094893983E+00  0.00000000000E+00 0. -1.
          1    1    1    2  502    0  0.87461307427E+01  0.21828328112E+02  0.16928039175E+04  0.16929672394E+04  0.00000000000E+00 0.  1.
         -1    1    1    2    0  501 -0.87461307427E+01 -0.21828328112E+02  0.51309444553E+03  0.51363302147E+03  0.00000000000E+00 0. -1.
</event>
<event>
 4    1  0.6824761E+001  0.2307300E+02  0.7546771E-02  0.1491583E+00
          2   -1    0    0  502    0  0.00000000000E+00  0.00000000000E+00  0.42364753485E+01  0.42364753485E+01  0.00000000000E+00 0. -1.
         -2   -1    0    0    0  501 -0.00000000000E+00 -0.00000000000E+00 -0.12782476030E+03  0.12782476030E+03  0.00000000000E+00 0.  1.
          1    1    1    2  502    0  0.57884868148E+00 -0.23065740389E+02 -0.70383375392E+02  0.74068771942E+02  0.00000000000E+00 0.  1.
         -1    1    1    2    0  501 -0.57884868148E+00  0.23065740389E+02 -0.53204909560E+02  0.57992463706E+02  0.00000000000E+00 0. -1.
</event>
<event>
 4    1  0.6824761E+001  0.3228859E+02  0.7546771E-02  0.1400698E+00
          2   -1    0    0  502    0  0.00000000000E+00  0.00000000000E+00  0.21533453775E+04  0.21533453775E+04  0.00000000000E+00 0.  1.
         -2   -1    0    0    0  501 -0.00000000000E+00 -0.00000000000E+00 -0.84541611917E+00  0.84541611917E+00  0.00000000000E+00 0. -1.
          1    1    1    2  502    0  0.31403863360E+02 -0.75067100702E+01  0.17803419778E+04  0.17806347495E+04  0.00000000000E+00 0.  1.
         -1    1    1    2    0  501 -0.31403863360E+02  0.75067100702E+01  0.37215798364E+03  0.37355604415E+03  0.00000000000E+00 0. -1.
</event>
<event>
 4    1  0.6824761E+001  0.2986348E+02  0.7546771E-02  0.1420787E+00
          2   -1    0    0  502    0  0.00000000000E+00  0.00000000000E+00  0.25742725523E+03  0.25742725523E+03  0.00000000000E+00 0. -1.
         -2   -1    0    0    0  501 -0.00000000000E+00 -0.00000000000E+00 -0.35932200865E+01  0.35932200865E+01  0.00000000000E+00 0.  1.
          1    1    1    2  502    0 -0.95881342048E+01  0.28282412345E+02  0.10220435951E+03  0.10647797081E+03  0.00000000000E+00 0.  1.
         -1    1    1    2    0  501  0.95881342048E+01 -0.28282412345E+02  0.15162967563E+03  0.15454250450E+03  0.00000000000E+00 0. -1.
</event>
<event>
 4    1  0.6824761E+001  0.2724068E+02  0.7546771E-02  0.1445205E+00
          2   -1    0    0  502    0  0.00000000000E+00  0.00000000000E+00  0.11132458032E+04  0.11132458032E+04  0.00000000000E+00 0. -1.
         -2   -1    0    0    0  501 -0.00000000000E+00 -0.00000000000E+00 -0.93514750577E+00  0.93514750577E+00  0.00000000000E+00 0.  1.
          1    1    1    2  502    0  0.27088126153E+02  0.28788947296E+01  0.25760215989E+03  0.25903846701E+03  0.00000000000E+00 0.  1.
         -1    1    1    2    0  501 -0.27088126153E+02 -0.28788947296E+01  0.85470849577E+03  0.85514248366E+03  0.00000000000E+00 0. -1.
</event>
<event>
 4    1  0.6824761E+001  0.3070825E+02  0.7546771E-02  0.1413540E+00
          2   -1    0    0  502    0  0.00000000000E+00  0.00000000000E+00  0.19293991570E+04  0.19293991570E+04  0.00000000000E+00 0.  1.
         -2   -1    0    0    0  501 -0.00000000000E+00 -0.00000000000E+00 -0.81776593354E+00  0.81776593354E+00  0.00000000000E+00 0. -1.
          1    1    1    2  502    0  0.27218766728E+02  0.14217425102E+02  0.15764566765E+04  0.15767557354E+04  0.00000000000E+00 0.  1.
         -1    1    1    2    0  501 -0.27218766728E+02 -0.14217425102E+02  0.35212471465E+03  0.35346118755E+03  0.00000000000E+00 0. -1.
</event>
<event>
 4    1  0.6824761E+001  0.2601386E+02  0.7546771E-02  0.1457774E+00
          2   -1    0    0  502    0  0.00000000000E+00  0.00000000000E+00  0.15227235828E+03  0.15227235828E+03  0.00000000000E+00 0.  1.
         -2   -1    0    0    0  501 -0.00000000000E+00 -0.00000000000E+00 -0.11637383721E+02  0.11637383721E+02  0.00000000000E+00 0. -1.
          1    1    1    2  502    0 -0.15105446681E+02 -0.21178917542E+02  0.58843606717E+01  0.26671084871E+02  0.00000000000E+00 0. -1.
         -1    1    1    2    0  501  0.15105446681E+02  0.21178917542E+02  0.13475061389E+03  0.13723865713E+03  0.00000000000E+00 0.  1.
</event>
<event>
 4    1  0.6824761E+001  0.2094842E+02  0.7546771E-02  0.1520002E+00
          2   -1    0    0  502    0  0.00000000000E+00  0.00000000000E+00  0.12643637121E+04  0.12643637121E+04  0.00000000000E+00 0. -1.
         -2   -1    0    0    0  501 -0.00000000000E+00 -0.00000000000E+00 -0.36763078873E+00  0.36763078873E+00  0.00000000000E+00 0.  1.
          1    1    1    2  502    0 -0.16412141080E+02 -0.13018376346E+02  0.48248913411E+03  0.48294368309E+03  0.00000000000E+00 0.  1.
         -1    1    1    2    0  501  0.16412141080E+02  0.13018376346E+02  0.78150694722E+03  0.78178765982E+03  0.00000000000E+00 0. -1.
</event>
<event>
 4    1  0.6824761E+001  0.2247348E+02  0.7546771E-02  0.1499218E+00
          2   -1    0    0  502    0  0.00000000000E+00  0.00000000000E+00  0.47350690555E+03  0.47350690555E+03  0.00000000000E+00 0.  1.
         -2   -1    0    0    0  501 -0.00000000000E+00 -0.00000000000E+00 -0.10690072065E+01  0.10690072065E+01  0.00000000000E+00 0. -1.
          1    1    1    2  502    0  0.13936825526E+02  0.17630145723E+02  0.22503159183E+03  0.22615099926E+03  0.00000000000E+00 0. -1.
         -1    1    1    2    0  501 -0.13936825526E+02 -0.17630145723E+02  0.24740630651E+03  0.24842491349E+03  0.00000000000E+00 0.  1.
</event>
<event>
 4    1  0.6824761E+001  0.7579021E+02  0.7546771E-02  0.1213973E+00
          2   -1    0    0  502    0  0.00000000000E+00  0.00000000000E+00  0.11795984781E+03  0.11795984781E+03  0.00000000000E+00 0.  1.
         -2   -1    0    0    0  501 -0.00000000000E+00 -0.00000000000E+00 -0.48929436735E+02  0.48929436735E+02  0.00000000000E+00 0. -1.
          1    1    1    2  502    0 -0.35883143988E+02 -0.66757435359E+02  0.28749714382E+02  0.81059862294E+02  0.00000000000E+00 0. -1.
         -1    1    1    2    0  501  0.35883143988E+02  0.66757435359E+02  0.40280696697E+02  0.85829422254E+02  0.00000000000E+00 0.  1.
</event>
<event>
 4    1  0.6824761E+001  0.3064342E+02  0.7546771E-02  0.1414086E+00
          2   -1    0    0  502    0  0.00000000000E+00  0.00000000000E+00  0.20795074088E+04  0.20795074088E+04  0.00000000000E+00 0. -1.
         -2   -1    0    0    0  501 -0.00000000000E+00 -0.00000000000E+00 -0.52144824855E+00  0.52144824855E+00  0.00000000000E+00 0.  1.
          1    1    1    2  502    0  0.26780856897E+02 -0.14893108062E+02  0.65874209762E+03  0.65945444887E+03  0.00000000000E+00 0.  1.
         -1    1    1    2    0  501 -0.26780856897E+02  0.14893108062E+02  0.14202438629E+04  0.14205744082E+04  0.00000000000E+00 0. -1.
</event>
<event>
 4    1  0.6824761E+001  0.2422252E+02  0.7546771E-02  0.1477692E+00
          2   -1    0    0  502    0  0.00000000000E+00  0.00000000000E+00  0.28361923155E+02  0.28361923155E+02  0.00000000000E+00 0.  1.
         -2   -1    0    0    0  501 -0.00000000000E+00 -0.00000000000E+00 -0.27343309521E+02  0.27343309521E+02  0.00000000000E+00 0. -1.
          1    1    1    2  502    0 -0.19485757102E+02 -0.14388736954E+02  0.14251268298E+02  0.28103898823E+02  0.00000000000E+00 0.  1.
         -1    1    1    2    0  501  0.19485757102E+02  0.14388736954E+02 -0.13232654664E+02  0.27601333852E+02  0.00000000000E+00 0. -1.
</event>
<event>
 4    1  0.6824761E+001  0.2321118E+02  0.7546771E-02  0.1489863E+00
          2   -1    0    0  502    0  0.00000000000E+00  0.00000000000E+00  0.13942825187E+04  0.13942825187E+04  0.00000000000E+00 0.  1.
         -2   -1    0    0    0  501 -0.00000000000E+00 -0.00000000000E+00 -0.15587228476E+01  0.15587228476E+01  0.00000000000E+00 0. -1.
          1    1    1    2  502    0  0.19679425151E+02 -0.12307693430E+02  0.13016248447E+04  0.13018317846E+04  0.00000000000E+00 0.  1.
         -1    1    1    2    0  501 -0.19679425151E+02  0.12307693430E+02  0.91098951153E+02  0.94009456934E+02  0.00000000000E+00 0. -1.
</event>
<event>
 4    1  0.6824761E+001  0.2237155E+02  0.7546771E-02  0.1500544E+00
          2   -1    0    0  502    0  0.00000000000E+00  0.00000000000E+00  0.21899815594E+03  0.21899815594E+03  0.00000000000E+00 0. -1.
         -2   -1    0    0    0  501 -0.00000000000E+00 -0.00000000000E+00 -0.37739402603E+01  0.37739402603E+01  0.00000000000E+00 0.  1.
          1    1    1    2  502    0 -0.14041890621E+02  0.17415837829E+02  0.17756759121E+03  0.17897132605E+03  0.00000000000E+00 0. -1.
         -1    1    1    2    0  501  0.14041890621E+02 -0.17415837829E+02  0.37656624474E+02  0.43800770155E+02  0.00000000000E+00 0.  1.
</event>
<event>
 4    1  0.6824761E+001  0.2027324E+02  0.7546771E-02  0.1529899E+00
          2   -1    0    0  502    0  0.00000000000E+00  0.00000000000E+00  0.19456533751E+03  0.19456533751E+03  0.00000000000E+00 0.  1.
         -2   -1    0    0    0  501 -0.00000000000E+00 -0.00000000000E+00 -0.26906977793E+01  0.26906977793E+01  0.00000000000E+00 0. -1.
          1    1    1    2  502    0  0.12241426186E+02  0.16160193293E+02  0.14166033251E+03  0.14310364834E+03  0.00000000000E+00 0.  1.
         -1    1    1    2    0  501 -0.12241426186E+02 -0.16160193293E+02  0.50214307227E+02  0.54152386952E+02  0.00000000000E+00 0. -1.
</event>
<event>
 4    1  0.6824761E+001  0.6905201E+02  0.7546771E-02  0.1231834E+00
          2   -1    0    0  502    0  0.00000000000E+00  0.00000000000E+00  0.11665867150E+04  0.11665867150E+04  0.00000000000E+00 0. -1.
         -2   -1    0    0    0  501 -0.00000000000E+00 -0.00000000000E+00 -0.57010491914E+01  0.57010491914E+01  0.00000000000E+00 0.  1.
          1    1    1    2  502    0  0.37332748602E+02 -0.58089978278E+02  0.26859262644E+03  0.27732684448E+03  0.00000000000E+00 0.  1.
         -1    1    1    2    0  501 -0.37332748602E+02  0.58089978278E+02  0.89229303936E+03  0.89496091970E+03  0.00000000000E+00 0. -1.
</event>
<event>
 4    1  0.6824761E+001  0.3568102E+02  0.7546771E-02  0.1375838E+00
          2   -1    0    0  502    0  0.00000000000E+00  0.00000000000E+00  0.27162464936E+03  0.27162464936E+03  0.00000000000E+00 0.  1.
         -2   -1    0    0    0  501 -0.00000000000E+00 -0.00000000000E+00 -0.46872491409E+01  0.46872491409E+01  0.00000000000E+00 0. -1.
          1    1    1    2  502    0 -0.13882007418E+02 -0.32869819200E+02  0.13272130838E+03  0.13743391445E+03  0.00000000000E+00 0. -1.
         -1    1    1    2    0  501  0.13882007418E+02  0.32869819200E+02  0.13421609184E+03  0.13887798405E+03  0.00000000000E+00 0.  1.
</event>
<event>
 4    1  0.6824761E+001  0.2374558E+02  0.7546771E-02  0.1483342E+00
          2   -1    0    0  502    0  0.00000000000E+00  0.00000000000E+00  0.10901690750E+03  0.10901690750E+03  0.00000000000E+00 0.  1.
         -2   -1    0    0    0  501 -0.00000000000E+00 -0.00000000000E+00 -0.53803057249E+01  0.53803057249E+01  0.00000000000E+00 0. -1.
          1    1    1    2  502    0  0.18022692547E+02 -0.15460759567E+02  0.63068730830E+02  0.67390780834E+02  0.00000000000E+00 0.  1.
         -1    1    1    2    0  501 -0.18022692547E+02  0.15460759567E+02  0.40567870943E+02  0.47006432388E+02  0.00000000000E+00 0. -1.
</event>
<event>
 4    1  0.6824761E+001  0.2251486E+02  0.7546771E-02  0.1498682E+00
          2   -1    0    0  502    0  0.00000000000E+00  0.00000000000E+00  0.10187579836E+02  0.10187579836E+02  0.00000000000E+00 0. -1.
         -2   -1    0    0    0  501 -0.00000000000E+00 -0.00000000000E+00 -0.51473783696E+02  0.51473783696E+02  0.00000000000E+00 0.  1.
          1    1    1    2  502    0 -0.21631315006E+02  0.62454157801E+01 -0.26271102548E+02  0.34598986058E+02  0.00000000000E+00 0.  1.
         -1    1    1    2    0  501  0.21631315006E+02 -0.62454157801E+01 -0.15015101312E+02  0.27062377474E+02  0.00000000000E+00 0. -1.
</event>
<event>
 4    1  0.6824761E+001  0.5152631E+02  0.7546771E-02  0.1291687E+00
          2   -1    0    0  502    0  0.00000000000E+00  0.00000000000E+00  0.31732897184E+01  0.31732897184E+01  0.00000000000E+00 0.  1.
         -2   -1    0    0    0  501 -0.00000000000E+00 -0.00000000000E+00 -0.86508988346E+03  0.86508988346E+03  0.00000000000E+00 0. -1.
          1    1    1    2  502    0 -0.11365578331E+02  0.50257175985E+02 -0.35225570047E+03  0.35600426770E+03  0.00000000000E+00 0.  1.
         -1    1    1    2    0  501  0.11365578331E+02 -0.50257175985E+02 -0.50966089327E+03  0.51225890547E+03  0.00000000000E+00 0. -1.
</event>
<event>
 4    1  0.6824761E+001  0.2530903E+02  0.7546771E-02  0.1465376E+00
          2   -1    0    0  502    0  0.00000000000E+00  0.00000000000E+00  0.70094519594E+03  0.70094519594E+03  0.00000000000E+00 0. -1.
         -2   -1    0    0    0  501 -0.00000000000E+00 -0.00000000000E+00 -0.93508311168E+00  0.93508311168E+00  0.00000000000E+00 0.  1.
          1    1    1    2  502    0  0.10991831244E+02  0.22797512797E+02  0.29710121641E+03  0.29817726228E+03  0.00000000000E+00 0. -1.
         -1    1    1    2    0  501 -0.10991831244E+02 -0.22797512797E+02  0.40290889642E+03  0.40370301678E+03  0.00000000000E+00 0.  1.
</event>
<event>
 4    1  0.6824761E+001  0.2208454E+02  0.7546771E-02  0.1504325E+00
          2   -1    0    0  502    0  0.00000000000E+00  0.00000000000E+00  0.16310478256E+04  0.16310478256E+04  0.00000000000E+00 0. -1.
         -2   -1    0    0    0  501 -0.00000000000E+00 -0.00000000000E+00 -0.30165977019E+00  0.30165977019E+00  0.00000000000E+00 0.  1.
          1    1    1    2  502    0 -0.16077518381E+02  0.15140684214E+02  0.73916761219E+03  0.73949745491E+03  0.00000000000E+00 0.  1.
         -1    1    1    2    0  501  0.16077518381E+02 -0.15140684214E+02  0.89157855369E+03  0.89185203050E+03  0.00000000000E+00 0. -1.
</event>
<event>
 4    1  0.6824761E+001  0.2812832E+02  0.7546771E-02  0.1436592E+00
          2   -1    0    0  502    0  0.00000000000E+00  0.00000000000E+00  0.14735229162E+03  0.14735229162E+03  0.00000000000E+00 0.  1.
         -2   -1    0    0    0  501 -0.00000000000E+00 -0.00000000000E+00 -0.61163787751E+01  0.61163787751E+01  0.00000000000E+00 0. -1.
          1    1    1    2  502    0 -0.44783366786E+01 -0.27769530547E+02  0.43802878808E+02  0.52056647203E+02  0.00000000000E+00 0. -1.
         -1    1    1    2    0  501  0.44783366786E+01  0.27769530547E+02  0.97433034033E+02  0.10141202319E+03  0.00000000000E+00 0.  1.
</event>
<event>
 4    1  0.6824761E+001  0.2730188E+02  0.7546771E-02  0.1444599E+00
          2   -1    0    0  502    0  0.00000000000E+00  0.00000000000E+00  0.35539908626E+02  0.35539908626E+02  0.00000000000E+00 0.  1.
         -2   -1    0    0    0  501 -0.00000000000E+00 -0.00000000000E+00 -0.23368894361E+02  0.23368894361E+02  0.00000000000E+00 0. -1.
          1    1    1    2  502    0  0.13615540997E+02 -0.23664524447E+02 -0.33448646014E+01  0.27506013764E+02  0.00000000000E+00 0. -1.
         -1    1    1    2    0  501 -0.13615540997E+02  0.23664524447E+02  0.15515878866E+02  0.31402789223E+02  0.00000000000E+00 0.  1.
</event>
<event>
 4    1  0.6824761E+001  0.4124467E+02  0.7546771E-02  0.1341342E+00
          2   -1    0    0  502    0  0.00000000000E+00  0.00000000000E+00  0.35690493252E+02  0.35690493252E+02  0.00000000000E+00 0.  1.
         -2   -1    0    0    0  501 -0.00000000000E+00 -0.00000000000E+00 -0.72372192018E+02  0.72372192018E+02  0.00000000000E+00 0. -1.
          1    1    1    2  502    0 -0.27994068838E+01  0.41149559534E+02 -0.49911785343E+02  0.64748044332E+02  0.00000000000E+00 0. -1.
         -1    1    1    2    0  501  0.27994068838E+01 -0.41149559534E+02  0.13230086577E+02  0.43314640938E+02  0.00000000000E+00 0.  1.
</event>
<event>
 4    1  0.6824761E+001  0.2617106E+02  0.7546771E-02  0.1456117E+00
          2   -1    0    0  502    0  0.00000000000E+00  0.00000000000E+00  0.31955675563E+03  0.31955675563E+03  0.00000000000E+00 0.  1.
         -2   -1    0    0    0  501 -0.00000000000E+00 -0.00000000000E+00 -0.27317956435E+01  0.27317956435E+01  0.00000000000E+00 0. -1.
          1    1    1    2  502    0  0.18997096081E+02 -0.18000969791E+02  0.83622924643E+02  0.87622588975E+02  0.00000000000E+00 0. -1.
         -1    1    1    2    0  501 -0.18997096081E+02  0.18000969791E+02  0.23320203535E+03  0.23466596230E+03  0.00000000000E+00 0.  1.
</event>
<event>
 4    1  0.6824761E+001  0.2829488E+02  0.7546771E-02  0.1435017E+00
          2   -1    0    0  502    0  0.00000000000E+00  0.00000000000E+00  0.75867547772E+02  0.75867547772E+02  0.00000000000E+00 0. -1.
         -2   -1    0    0    0  501 -0.00000000000E+00 -0.00000000000E+00 -0.18809409758E+02  0.18809409758E+02  0.00000000000E+00 0.  1.
          1    1    1    2  502    0  0.27402229251E+02  0.70511110707E+01 -0.28350213842E+01  0.28436555373E+02  0.00000000000E+00 0.  1.
         -1    1    1    2    0  501 -0.27402229251E+02 -0.70511110707E+01  0.59893159397E+02  0.66240402157E+02  0.00000000000E+00 0. -1.
</event>
<event>
 4    1  0.6824761E+001  0.2242214E+02  0.7546771E-02  0.1499885E+00
          2   -1    0    0  502    0  0.00000000000E+00  0.00000000000E+00  0.60798380553E+03  0.60798380553E+03  0.00000000000E+00 0.  1.
         -2   -1    0    0    0  501 -0.00000000000E+00 -0.00000000000E+00 -0.83468320145E+00  0.83468320145E+00  0.00000000000E+00 0. -1.
          1    1    1    2  502    0  0.62629574980E+01 -0.21529691624E+02  0.27421185319E+03  0.27512704826E+03  0.00000000000E+00 0. -1.
         -1    1    1    2    0  501 -0.62629574980E+01  0.21529691624E+02  0.33293726914E+03  0.33369144047E+03  0.00000000000E+00 0.  1.
</event>
<event>
 4    1  0.6824761E+001  0.2461072E+02  0.7546771E-02  0.1473206E+00
          2   -1    0    0  502    0  0.00000000000E+00  0.00000000000E+00  0.25846253648E+03  0.25846253648E+03  0.00000000000E+00 0.  1.
         -2   -1    0    0    0  501 -0.00000000000E+00 -0.00000000000E+00 -0.23438888235E+01  0.23438888235E+01  0.00000000000E+00 0. -1.
          1    1    1    2  502    0  0.68827400234E+01  0.23628700031E+02  0.12989368826E+03  0.13220460591E+03  0.00000000000E+00 0.  1.
         -1    1    1    2    0  501 -0.68827400234E+01 -0.23628700031E+02  0.12622495940E+03  0.12860181939E+03  0.00000000000E+00 0. -1.
</event>
<event>
 4    1  0.6824761E+001  0.2244936E+02  0.7546771E-02  0.1499531E+00
          2   -1    0    0  502    0  0.00000000000E+00  0.00000000000E+00  0.14077102430E+04  0.14077102430E+04  0.00000000000E+00 0. -1.
         -2   -1    0    0    0  501 -0.00000000000E+00 -0.00000000000E+00 -0.44760337507E+00  0.44760337507E+00  0.00000000000E+00 0.  1.
          1    1    1    2  502    0  0.52127251709E+01  0.21835781733E+02  0.38862922894E+03  0.38927708827E+03  0.00000000000E+00 0.  1.
         -1    1    1    2    0  501 -0.52127251709E+01 -0.21835781733E+02  0.10186334107E+04  0.10188807581E+04  0.00000000000E+00 0. -1.
</event>
<event>
 4    1  0.6824761E+001  0.3656932E+02  0.7546771E-02  0.1369854E+00
          2   -1    0    0  502    0  0.00000000000E+00  0.00000000000E+00  0.11587144306E+04  0.11587144306E+04  0.00000000000E+00 0. -1.
         -2   -1    0    0    0  501 -0.00000000000E+00 -0.00000000000E+00 -0.12021994768E+01  0.12021994768E+01  0.00000000000E+00 0.  1.
          1    1    1    2  502    0 -0.21682139051E+02  0.29448262525E+02  0.46279534111E+03  0.46423791645E+03  0.00000000000E+00 0.  1.
         -1    1    1    2    0  501  0.21682139051E+02 -0.29448262525E+02  0.69471689005E+03  0.69567871366E+03  0.00000000000E+00 0. -1.
</event>
<event>
 4    1  0.6824761E+001  0.2364651E+02  0.7546771E-02  0.1484536E+00
          2   -1    0    0  502    0  0.00000000000E+00  0.00000000000E+00  0.74058319111E+02  0.74058319111E+02  0.00000000000E+00 0. -1.
         -2   -1    0    0    0  501 -0.00000000000E+00 -0.00000000000E+00 -0.80043202298E+01  0.80043202298E+01  0.00000000000E+00 0.  1.
          1    1    1    2  502    0  0.15914993233E+02  0.17489145837E+02  0.23254063477E+02  0.33164871474E+02  0.00000000000E+00 0.  1.
         -1    1    1    2    0  501 -0.15914993233E+02 -0.17489145837E+02  0.42799935405E+02  0.48897767867E+02  0.00000000000E+00 0. -1.
</event>
<event>
 4    1  0.6824761E+001  0.2576559E+02  0.7546771E-02  0.1460418E+00
          2   -1    0    0  502    0  0.00000000000E+00  0.00000000000E+00  0.32942310996E+04  0.32942310996E+04  0.00000000000E+00 0. -1.
         -2   -1    0    0    0  501 -0.00000000000E+00 -0.00000000000E+00 -0.20318576902E+00  0.20318576902E+00  0.00000000000E+00 0.  1.
          1    1    1    2  502    0 -0.46331808164E+01  0.25345596349E+02  0.14980334072E+04  0.14982549698E+04  0.00000000000E+00 0. -1.
         -1    1    1    2    0  501  0.46331808164E+01 -0.25345596349E+02  0.17959945067E+04  0.17961793155E+04  0.00000000000E+00 0.  1.
</event>
<event>
 4    1  0.6824761E+001  0.9012278E+02  0.7546771E-02  0.1182120E+00
          2   -1    0    0  502    0  0.00000000000E+00  0.00000000000E+00  0.53460338571E+03  0.53460338571E+03  0.00000000000E+00 0. -1.
         -2   -1    0    0    0  501 -0.00000000000E+00 -0.00000000000E+00 -0.15200445154E+02  0.15200445154E+02  0.00000000000E+00 0.  1.
          1    1    1    2  502    0  0.82309297000E+02  0.36705519035E+02  0.26587174751E+03  0.28073101293E+03  0.00000000000E+00 0. -1.
         -1    1    1    2    0  501 -0.82309297000E+02 -0.36705519035E+02  0.25353119305E+03  0.26907281793E+03  0.00000000000E+00 0.  1.
</event>
<event>
 4    1  0.6824761E+001  0.2632158E+02  0.7546771E-02  0.1454545E+00
          2   -1    0    0  502    0  0.00000000000E+00  0.00000000000E+00  0.18264537550E+04  0.18264537550E+04  0.00000000000E+00 0. -1.
         -2   -1    0    0    0  501 -0.00000000000E+00 -0.00000000000E+00 -0.43079242323E+00  0.43079242323E+00  0.00000000000E+00 0.  1.
          1    1    1    2  502    0 -0.11198555601E+02 -0.23820540455E+02  0.12287291680E+04  0.12290110634E+04  0.00000000000E+00 0. -1.
         -1    1    1    2    0  501  0.11198555601E+02  0.23820540455E+02  0.59729379455E+03  0.59787348394E+03  0.00000000000E+00 0.  1.
</event>
<event>
 4    1  0.6824761E+001  0.2105354E+02  0.7546771E-02  0.1518502E+00
          2   -1    0    0  502    0  0.00000000000E+00  0.00000000000E+00  0.38415078411E+01  0.38415078411E+01  0.00000000000E+00 0.  1.
         -2   -1    0    0    0  501 -0.00000000000E+00 -0.00000000000E+00 -0.11582927629E+03  0.11582927629E+03  0.00000000000E+00 0. -1.
          1    1    1    2  502    0  0.19569250031E+02  0.77650509445E+01 -0.59700518649E+02  0.63304055872E+02  0.00000000000E+00 0.  1.
         -1    1    1    2    0  501 -0.19569250031E+02 -0.77650509445E+01 -0.52287249804E+02  0.56366728263E+02  0.00000000000E+00 0. -1.
</event>
<event>
 4    1  0.6824761E+001  0.2527551E+02  0.7546771E-02  0.1465745E+00
          2   -1    0    0  502    0  0.00000000000E+00  0.00000000000E+00  0.67332117425E+03  0.67332117425E+03  0.00000000000E+00 0.  1.
         -2   -1    0    0    0  501 -0.00000000000E+00 -0.00000000000E+00 -0.99026300884E+00  0.99026300884E+00  0.00000000000E+00 0. -1.
          1    1    1    2  502    0  0.11423826482E+01 -0.25249676339E+02  0.40515035783E+03  0.40593800468E+03  0.00000000000E+00 0.  1.
         -1    1    1    2    0  501 -0.11423826482E+01  0.25249676339E+02  0.26718055342E+03  0.26837343258E+03  0.00000000000E+00 0. -1.
</event>
<event>
 4    1  0.6824761E+001  0.4380264E+02  0.7546771E-02  0.1327536E+00
          2   -1    0    0  502    0  0.00000000000E+00  0.00000000000E+00  0.14411400029E+04  0.14411400029E+04  0.00000000000E+00 0.  1.
         -2   -1    0    0    0  501 -0.00000000000E+00 -0.00000000000E+00 -0.15530646736E+01  0.15530646736E+01  0.00000000000E+00 0. -1.
          1    1    1    2  502    0 -0.49595231479E+01 -0.43520960841E+02  0.44724724348E+03  0.44938710229E+03  0.00000000000E+00 0.  1.
         -1    1    1    2    0  501  0.49595231479E+01  0.43520960841E+02  0.99233969478E+03  0.99330596532E+03  0.00000000000E+00 0. -1.
</event>
<event>
 4    1  0.6824761E+001  0.2174831E+02  0.7546771E-02  0.1508844E+00
          2   -1    0    0  502    0  0.00000000000E+00  0.00000000000E+00  0.79152187661E+02  0.79152187661E+02  0.00000000000E+00 0.  1.
         -2   -1    0    0    0  501 -0.00000000000E+00 -0.00000000000E+00 -0.60563622408E+01  0.60563622408E+01  0.00000000000E+00 0. -1.
          1    1    1    2  502    0 -0.14018076963E+02 -0.16627765930E+02  0.31630865522E+02  0.38386205012E+02  0.00000000000E+00 0.  1.
         -1    1    1    2    0  501  0.14018076963E+02  0.16627765930E+02  0.41464959898E+02  0.46822344890E+02  0.00000000000E+00 0. -1.
</event>
<event>
 4    1  0.6824761E+001  0.2767796E+02  0.7546771E-02  0.1440914E+00
          2   -1    0    0  502    0  0.00000000000E+00  0.00000000000E+00  0.62546085187E+01  0.62546085187E+01  0.00000000000E+00 0. -1.
         -2   -1    0    0    0  501 -0.00000000000E+00 -0.00000000000E+00 -0.13147846556E+03  0.13147846556E+03  0.00000000000E+00 0.  1.
          1    1    1    2  502    0  0.26527823533E+02 -0.78958416887E+01 -0.80627364029E+02  0.85245771552E+02  0.00000000000E+00 0.  1.
         -1    1    1    2    0  501 -0.26527823533E+02  0.78958416887E+01 -0.44596493008E+02  0.52487302522E+02  0.00000000000E+00 0. -1.
</event>
<event>
 4    1  0.6824761E+001  0.2378697E+02  0.7546771E-02  0.1482846E+00
          2   -1    0    0  502    0  0.00000000000E+00  0.00000000000E+00  0.18465939849E+03  0.18465939849E+03  0.00000000000E+00 0. -1.
         -2   -1    0    0    0  501 -0.00000000000E+00 -0.00000000000E+00 -0.39445334478E+01  0.39445334478E+01  0.00000000000E+00 0.  1.
          1    1    1    2  502    0  0.16048366444E+02  0.17557614735E+02  0.45805713781E+02  0.51613789976E+02  0.00000000000E+00 0.  1.
         -1    1    1    2    0  501 -0.16048366444E+02 -0.17557614735E+02  0.13490915126E+03  0.13699014196E+03  0.00000000000E+00 0. -1.
</event>
<event>
 4    1  0.6824761E+001  0.2780949E+02  0.7546771E-02  0.1439642E+00
          2   -1    0    0  502    0  0.00000000000E+00  0.00000000000E+00  0.12112328086E+04  0.12112328086E+04  0.00000000000E+00 0.  1.
         -2   -1    0    0    0  501 -0.00000000000E+00 -0.00000000000E+00 -0.91874848550E+00  0.91874848550E+00  0.00000000000E+00 0. -1.
          1    1    1    2  502    0 -0.26794874317E+01 -0.27680101304E+02  0.93989356604E+03  0.94030488840E+03  0.00000000000E+00 0.  1.
         -1    1    1    2    0  501  0.26794874317E+01  0.27680101304E+02  0.27042049403E+03  0.27184666864E+03  0.00000000000E+00 0. -1.
</event>
<event>
 4    1  0.6824761E+001  0.2763300E+02  0.7546771E-02  0.1441351E+00
          2   -1    0    0  502    0  0.00000000000E+00  0.00000000000E+00  0.16249732756E+03  0.16249732756E+03  0.00000000000E+00 0. -1.
         -2   -1    0    0    0  501 -0.00000000000E+00 -0.00000000000E+00 -0.60203658675E+01  0.60203658675E+01  0.00000000000E+00 0.  1.
          1    1    1    2  502    0  0.27620556150E+02 -0.82919475031E+00  0.38764786071E+02  0.47605580819E+02  0.00000000000E+00 0.  1.
         -1    1    1    2    0  501 -0.27620556150E+02  0.82919475031E+00  0.11771217563E+03  0.12091211261E+03  0.00000000000E+00 0. -1.
</event>
<event>
 4    1  0.6824761E+001  0.2712045E+02  0.7546771E-02  0.1446402E+00
          2   -1    0    0  502    0  0.00000000000E+00  0.00000000000E+00  0.32344643229E+03  0.32344643229E+03  0.00000000000E+00 0.  1.
         -2   -1    0    0    0  501 -0.00000000000E+00 -0.00000000000E+00 -0.29946245468E+01  0.29946245468E+01  0.00000000000E+00 0. -1.
          1    1    1    2  502    0  0.26575165166E+02  0.54110479297E+01  0.24029345986E+03  0.24181907637E+03  0.00000000000E+00 0.  1.
         -1    1    1    2    0  501 -0.26575165166E+02 -0.54110479297E+01  0.80158347879E+02  0.84621980466E+02  0.00000000000E+00 0. -1.
</event>
<event>
 4    1  0.6824761E+001  0.2250441E+02  0.7546771E-02  0.1498817E+00
          2   -1    0    0  502    0  0.00000000000E+00  0.00000000000E+00  0.54655121091E+03  0.54655121091E+03  0.00000000000E+00 0. -1.
         -2   -1    0    0    0  501 -0.00000000000E+00 -0.00000000000E+00 -0.95270250133E+00  0.95270250133E+00  0.00000000000E+00 0.  1.
          1    1    1    2  502    0 -0.20713446938E+02 -0.87978069126E+01  0.22750872641E+03  0.22861904751E+03  0.00000000000E+00 0. -1.
         -1    1    1    2    0  501  0.20713446938E+02  0.87978069126E+01  0.31808978200E+03  0.31888486590E+03  0.00000000000E+00 0.  1.
</event>
<event>
 4    1  0.6824761E+001  0.2342445E+02  0.7546771E-02  0.1487236E+00
          2   -1    0    0  502    0  0.00000000000E+00  0.00000000000E+00  0.14514657425E+03  0.14514657425E+03  0.00000000000E+00 0.  1.
         -2   -1    0    0    0  501 -0.00000000000E+00 -0.00000000000E+00 -0.45242428580E+01  0.45242428580E+01  0.00000000000E+00 0. -1.
          1    1    1    2  502    0  0.22407727541E+02 -0.68263318329E+01  0.39966038957E+02  0.46324824120E+02  0.00000000000E+00 0. -1.
         -1    1    1    2    0  501 -0.22407727541E+02  0.68263318329E+01  0.10065629244E+03  0.10334599299E+03  0.00000000000E+00 0.  1.
</event>
<event>
 4    1  0.6824761E+001  0.2199505E+02  0.7546771E-02  0.1505518E+00
          2   -1    0    0  502    0  0.00000000000E+00  0.00000000000E+00  0.46380283341E+01  0.46380283341E+01  0.00000000000E+00 0.  1.
         -2   -1    0    0    0  501 -0.00000000000E+00 -0.00000000000E+00 -0.12304414432E+03  0.12304414432E+03  0.00000000000E+00 0. -1.
          1    1    1    2  502    0 -0.13375786270E+02  0.17460539029E+02 -0.84115330617E+02  0.86943492720E+02  0.00000000000E+00 0. -1.
         -1    1    1    2    0  501  0.13375786270E+02 -0.17460539029E+02 -0.34290785366E+02  0.40738679932E+02  0.00000000000E+00 0.  1.
</event>
<event>
 4    1  0.6824761E+001  0.2412517E+02  0.7546771E-02  0.1478833E+00
          2   -1    0    0  502    0  0.00000000000E+00  0.00000000000E+00  0.25841476200E+03  0.25841476200E+03  0.00000000000E+00 0. -1.
         -2   -1    0    0    0  501 -0.00000000000E+00 -0.00000000000E+00 -0.32818864432E+01  0.32818864432E+01  0.00000000000E+00 0.  1.
          1    1    1    2  502    0  0.24116856219E+02 -0.63334571138E+00  0.54277098309E+02  0.59397199273E+02  0.00000000000E+00 0.  1.
         -1    1    1    2    0  501 -0.24116856219E+02  0.63334571138E+00  0.20085577725E+03  0.20229944917E+03  0.00000000000E+00 0. -1.
</event>
<event>
 4    1  0.6824761E+001  0.6467958E+02  0.7546771E-02  0.1244711E+00
          2   -1    0    0  502    0  0.00000000000E+00  0.00000000000E+00  0.30148051772E+03  0.30148051772E+03  0.00000000000E+00 0. -1.
         -2   -1    0    0    0  501 -0.00000000000E+00 -0.00000000000E+00 -0.15026290342E+02  0.15026290342E+02  0.00000000000E+00 0.  1.
          1    1    1    2  502    0  0.35982493718E+02 -0.53746705120E+02  0.99448151294E+02  0.11863128998E+03  0.00000000000E+00 0. -1.
         -1    1    1    2    0  501 -0.35982493718E+02  0.53746705120E+02  0.18700607609E+03  0.19787551809E+03  0.00000000000E+00 0.  1.
</event>
<event>
 4    1  0.6824761E+001  0.3169646E+02  0.7546771E-02  0.1405405E+00
          2   -1    0    0  502    0  0.00000000000E+00  0.00000000000E+00  0.45076387907E+03  0.45076387907E+03  0.00000000000E+00 0. -1.
         -2   -1    0    0    0  501 -0.00000000000E+00 -0.00000000000E+00 -0.22875766825E+01  0.22875766825E+01  0.00000000000E+00 0.  1.
          1    1    1    2  502    0  0.23957026004E+02  0.20753947444E+02  0.18792963479E+03  0.19058387408E+03  0.00000000000E+00 0.  1.
         -1    1    1    2    0  501 -0.23957026004E+02 -0.20753947444E+02  0.26054666760E+03  0.26246758167E+03  0.00000000000E+00 0. -1.
</event>
<event>
 4    1  0.6824761E+001  0.3528538E+02  0.7546771E-02  0.1378568E+00
          2   -1    0    0  502    0  0.00000000000E+00  0.00000000000E+00  0.65063118494E+02  0.65063118494E+02  0.00000000000E+00 0. -1.
         -2   -1    0    0    0  501 -0.00000000000E+00 -0.00000000000E+00 -0.27296588302E+02  0.27296588302E+02  0.00000000000E+00 0.  1.
          1    1    1    2  502    0 -0.15223950883E+02 -0.31832202746E+02  0.44132895129E+02  0.56504603747E+02  0.00000000000E+00 0. -1.
         -1    1    1    2    0  501  0.15223950883E+02  0.31832202746E+02 -0.63663649364E+01  0.35855103049E+02  0.00000000000E+00 0.  1.
</event>
<event>
 4    1  0.6824761E+001  0.4951270E+02  0.7546771E-02  0.1300299E+00
          2   -1    0    0  502    0  0.00000000000E+00  0.00000000000E+00  0.86471410035E+03  0.86471410035E+03  0.00000000000E+00 0. -1.
         -2   -1    0    0    0  501 -0.00000000000E+00 -0.00000000000E+00 -0.33982047758E+01  0.33982047758E+01  0.00000000000E+00 0.  1.
          1    1    1    2  502    0  0.40362091100E+02  0.28677668029E+02  0.60735745061E+03  0.60937228346E+03  0.00000000000E+00 0. -1.
         -1    1    1    2    0  501 -0.40362091100E+02 -0.28677668029E+02  0.25395844497E+03  0.25874002167E+03  0.00000000000E+00 0.  1.
</event>
<event>
 4    1  0.6824761E+001  0.2043006E+02  0.7546771E-02  0.1527560E+00
          2   -1    0    0  502    0  0.00000000000E+00  0.00000000000E+00  0.15310348362E+03  0.15310348362E+03  0.00000000000E+00 0. -1.
         -2   -1    0    0    0  501 -0.00000000000E+00 -0.00000000000E+00 -0.53750013912E+01  0.53750013912E+01  0.00000000000E+00 0.  1.
          1    1    1    2  502    0 -0.83960218113E+01 -0.18625092924E+02  0.18238274725E+02  0.27386528324E+02  0.00000000000E+00 0.  1.
         -1    1    1    2    0  501  0.83960218113E+01  0.18625092924E+02  0.12949020750E+03  0.13109195669E+03  0.00000000000E+00 0. -1.
</event>
<event>
 4    1  0.6824761E+001  0.4876355E+02  0.7546771E-02  0.1303624E+00
          2   -1    0    0  502    0  0.00000000000E+00  0.00000000000E+00  0.10731646912E+03  0.10731646912E+03  0.00000000000E+00 0.  1.
         -2   -1    0    0    0  501 -0.00000000000E+00 -0.00000000000E+00 -0.23967776341E+02  0.23967776341E+02  0.00000000000E+00 0. -1.
          1    1    1    2  502    0  0.30310523380E+02  0.38198894316E+02  0.59713671731E+02  0.77094785467E+02  0.00000000000E+00 0.  1.
         -1    1    1    2    0  501 -0.30310523380E+02 -0.38198894316E+02  0.23635021047E+02  0.54189459994E+02  0.00000000000E+00 0. -1.
</event>
<event>
 4    1  0.6824761E+001  0.2052697E+02  0.7546771E-02  0.1526127E+00
          2   -1    0    0  502    0  0.00000000000E+00  0.00000000000E+00  0.46316016267E+01  0.46316016267E+01  0.00000000000E+00 0. -1.
         -2   -1    0    0    0  501 -0.00000000000E+00 -0.00000000000E+00 -0.13918574223E+03  0.13918574223E+03  0.00000000000E+00 0.  1.
          1    1    1    2  502    0 -0.17405369773E+02 -0.10881614273E+02 -0.24955747216E+02  0.32313244115E+02  0.00000000000E+00 0. -1.
         -1    1    1    2    0  501  0.17405369773E+02  0.10881614273E+02 -0.10959839339E+03  0.11150409974E+03  0.00000000000E+00 0.  1.
</event>
<event>
 4    1  0.6824761E+001  0.2955171E+02  0.7546771E-02  0.1423533E+00
          2   -1    0    0  502    0  0.00000000000E+00  0.00000000000E+00  0.60767534103E+03  0.60767534103E+03  0.00000000000E+00 0. -1.
         -2   -1    0    0    0  501 -0.00000000000E+00 -0.00000000000E+00 -0.14822587198E+01  0.14822587198E+01  0.00000000000E+00 0.  1.
          1    1    1    2  502    0  0.22515895808E+02  0.19139952569E+02  0.24994637030E+03  0.25168728886E+03  0.00000000000E+00 0.  1.
         -1    1    1    2    0  501 -0.22515895808E+02 -0.19139952569E+02  0.35624671201E+03  0.35747031089E+03  0.00000000000E+00 0. -1.
</event>
<event>
 4    1  0.6824761E+001  0.2374210E+02  0.7546771E-02  0.1483384E+00
          2   -1    0    0  502    0  0.00000000000E+00  0.00000000000E+00  0.86776228436E+02  0.86776228436E+02  0.00000000000E+00 0.  1.
         -2   -1    0    0    0  501 -0.00000000000E+00 -0.00000000000E+00 -0.73208164431E+01  0.73208164431E+01  0.00000000000E+00 0. -1.
          1    1    1    2  502    0  0.21493531885E+02  0.10085415019E+02  0.55521187045E+02  0.60384515564E+02  0.00000000000E+00 0.  1.
         -1    1    1    2    0  501 -0.21493531885E+02 -0.10085415019E+02  0.23934224948E+02  0.33712529315E+02  0.00000000000E+00 0. -1.
</event>
<event>
 4    1  0.6824761E+001  0.2152454E+02  0.7546771E-02  0.1511906E+00
          2   -1    0    0  502    0  0.00000000000E+00  0.00000000000E+00  0.20574915227E+02  0.20574915227E+02  0.00000000000E+00 0.  1.
         -2   -1    0    0    0  501 -0.00000000000E+00 -0.00000000000E+00 -0.24457261684E+02  0.24457261684E+02  0.00000000000E+00 0. -1.
          1    1    1    2  502    0  0.20689207251E+02 -0.59382092369E+01 -0.82814607986E+01  0.23062701892E+02  0.00000000000E+00 0. -1.
         -1    1    1    2    0  501 -0.20689207251E+02  0.59382092369E+01  0.43991143420E+01  0.21969475019E+02  0.00000000000E+00 0.  1.
</event>
<event>
 4    1  0.6824761E+001  0.5444906E+02  0.7546771E-02  0.1279955E+00
          2   -1    0    0  502    0  0.00000000000E+00  0.00000000000E+00  0.13511203126E+04  0.13511203126E+04  0.00000000000E+00 0.  1.
         -2   -1    0    0    0  501 -0.00000000000E+00 -0.00000000000E+00 -0.34419811241E+01  0.34419811241E+01  0.00000000000E+00 0. -1.
          1    1    1    2  502    0  0.12099458840E+02  0.53087691125E+02  0.10816180372E+04  0.10829876630E+04  0.00000000000E+00 0.  1.
         -1    1    1    2    0  501 -0.12099458840E+02 -0.53087691125E+02  0.26606029431E+03  0.27157463074E+03  0.00000000000E+00 0. -1.
</event>
<event>
 4    1  0.6824761E+001  0.2744493E+02  0.7546771E-02  0.1443189E+00
          2   -1    0    0  502    0  0.00000000000E+00  0.00000000000E+00  0.21398735398E+01  0.21398735398E+01  0.00000000000E+00 0.  1.
         -2   -1    0    0    0  501 -0.00000000000E+00 -0.00000000000E+00 -0.37765977638E+03  0.37765977638E+03  0.00000000000E+00 0. -1.
          1    1    1    2  502    0  0.25964506129E+02 -0.88920462420E+01 -0.13825532420E+03  0.14095303734E+03  0.00000000000E+00 0.  1.
         -1    1    1    2    0  501 -0.25964506129E+02  0.88920462420E+01 -0.23726457864E+03  0.23884661258E+03  0.00000000000E+00 0. -1.
</event>
<event>
 4    1  0.6824761E+001  0.4860107E+02  0.7546771E-02  0.1304354E+00
          2   -1    0    0  502    0  0.00000000000E+00  0.00000000000E+00  0.17071442150E+02  0.17071442150E+02  0.00000000000E+00 0. -1.
         -2   -1    0    0    0  501 -0.00000000000E+00 -0.00000000000E+00 -0.20687291330E+03  0.20687291330E+03  0.00000000000E+00 0.  1.
          1    1    1    2  502    0 -0.75449244970E+01  0.48011851969E+02 -0.15933747526E+03  0.16658479774E+03  0.00000000000E+00 0.  1.
         -1    1    1    2    0  501  0.75449244970E+01 -0.48011851969E+02 -0.30463995889E+02  0.57359557710E+02  0.00000000000E+00 0. -1.
</event>
<event>
 4    1  0.6824761E+001  0.2492056E+02  0.7546771E-02  0.1469694E+00
          2   -1    0    0  502    0  0.00000000000E+00  0.00000000000E+00  0.10886152056E+02  0.10886152056E+02  0.00000000000E+00 0.  1.
         -2   -1    0    0    0  501 -0.00000000000E+00 -0.00000000000E+00 -0.11109835029E+03  0.11109835029E+03  0.00000000000E+00 0. -1.
          1    1    1    2  502    0 -0.20612240370E+02 -0.14006061333E+02 -0.75639188293E+01  0.26043177133E+02  0.00000000000E+00 0.  1.
         -1    1    1    2    0  501  0.20612240370E+02  0.14006061333E+02 -0.92648279407E+02  0.95941325216E+02  0.00000000000E+00 0. -1.
</event>
<event>
 4    1  0.6824761E+001  0.2334047E+02  0.7546771E-02  0.1488266E+00
          2   -1    0    0  502    0  0.00000000000E+00  0.00000000000E+00  0.21168749493E+01  0.21168749493E+01  0.00000000000E+00 0.  1.
         -2   -1    0    0    0  501 -0.00000000000E+00 -0.00000000000E+00 -0.27450240856E+03  0.27450240856E+03  0.00000000000E+00 0. -1.
          1    1    1    2  502    0  0.20961587100E+01  0.23246157047E+02 -0.10161934630E+03  0.10426537892E+03  0.00000000000E+00 0.  1.
         -1    1    1    2    0  501 -0.20961587100E+01 -0.23246157047E+02 -0.17076618731E+03  0.17235390459E+03  0.00000000000E+00 0. -1.
</event>
<event>
 4    1  0.6824761E+001  0.1207012E+03  0.7546771E-02  0.1132104E+00
          2   -1    0    0  502    0  0.00000000000E+00  0.00000000000E+00  0.24351115530E+03  0.24351115530E+03  0.00000000000E+00 0. -1.
         -2   -1    0    0    0  501 -0.00000000000E+00 -0.00000000000E+00 -0.98730675219E+02  0.98730675219E+02  0.00000000000E+00 0.  1.
          1    1    1    2  502    0 -0.10942726497E+03  0.50935882512E+02 -0.35025186882E+02  0.12568036507E+03  0.00000000000E+00 0.  1.
         -1    1    1    2    0  501  0.10942726497E+03 -0.50935882512E+02  0.17980566696E+03  0.21656146545E+03  0.00000000000E+00 0. -1.
</event>
<event>
 4    1  0.6824761E+001  0.3013640E+02  0.7546771E-02  0.1418415E+00
          2   -1    0    0  502    0  0.00000000000E+00  0.00000000000E+00  0.64068251704E+03  0.64068251704E+03  0.00000000000E+00 0. -1.
         -2   -1    0    0    0  501 -0.00000000000E+00 -0.00000000000E+00 -0.14213835577E+01  0.14213835577E+01  0.00000000000E+00 0.  1.
          1    1    1    2  502    0 -0.18488886935E+01 -0.30079630735E+02  0.30296773323E+03  0.30446288764E+03  0.00000000000E+00 0.  1.
         -1    1    1    2    0  501  0.18488886935E+01  0.30079630735E+02  0.33629340025E+03  0.33764101295E+03  0.00000000000E+00 0. -1.
</event>
<event>
 4    1  0.6824761E+001  0.2027692E+02  0.7546771E-02  0.1529844E+00
          2   -1    0    0  502    0  0.00000000000E+00  0.00000000000E+00  0.66163375989E+03  0.66163375989E+03  0.00000000000E+00 0. -1.
         -2   -1    0    0    0  501 -0.00000000000E+00 -0.00000000000E+00 -0.73181820033E+00  0.73181820033E+00  0.00000000000E+00 0.  1.
          1    1    1    2  502    0  0.12002717564E+01 -0.20241359813E+02  0.20182027142E+03  0.20283632627E+03  0.00000000000E+00 0.  1.
         -1    1    1    2    0  501 -0.12002717564E+01  0.20241359813E+02  0.45908167026E+03  0.45952925181E+03  0.00000000000E+00 0. -1.
</event>
<event>
 4    1  0.6824761E+001  0.2487172E+02  0.7546771E-02  0.1470244E+00
          2   -1    0    0  502    0  0.00000000000E+00  0.00000000000E+00  0.17896812642E+03  0.17896812642E+03  0.00000000000E+00 0.  1.
         -2   -1    0    0    0  501 -0.00000000000E+00 -0.00000000000E+00 -0.41378450151E+01  0.41378450151E+01  0.00000000000E+00 0. -1.
          1    1    1    2  502    0  0.13547292606E+02 -0.20858410223E+02  0.50264135170E+02  0.56081063635E+02  0.00000000000E+00 0. -1.
         -1    1    1    2    0  501 -0.13547292606E+02  0.20858410223E+02  0.12456614623E+03  0.12702490780E+03  0.00000000000E+00 0.  1.
</event>
<event>
 4    1  0.6824761E+001  0.2623461E+02  0.7546771E-02  0.1455452E+00
          2   -1    0    0  502    0  0.00000000000E+00  0.00000000000E+00  0.72871929237E+03  0.72871929237E+03  0.00000000000E+00 0. -1.
         -2   -1    0    0    0  501 -0.00000000000E+00 -0.00000000000E+00 -0.12132001728E+01  0.12132001728E+01  0.00000000000E+00 0.  1.
          1    1    1    2  502    0 -0.16502963514E+02 -0.20393798917E+02  0.53552142271E+03  0.53616364015E+03  0.00000000000E+00 0. -1.
         -1    1    1    2    0  501  0.16502963514E+02  0.20393798917E+02  0.19198466949E+03  0.19376885240E+03  0.00000000000E+00 0.  1.
</event>
<event>
 4    1  0.6824761E+001  0.2710087E+02  0.7546771E-02  0.1446597E+00
          2   -1    0    0  502    0  0.00000000000E+00  0.00000000000E+00  0.18255214815E+04  0.18255214815E+04  0.00000000000E+00 0.  1.
         -2   -1    0    0    0  501 -0.00000000000E+00 -0.00000000000E+00 -0.45189913938E+00  0.45189913938E+00  0.00000000000E+00 0. -1.
          1    1    1    2  502    0  0.26869413938E+02 -0.35343532690E+01  0.12149205787E+04  0.12152228066E+04  0.00000000000E+00 0.  1.
         -1    1    1    2    0  501 -0.26869413938E+02  0.35343532690E+01  0.61014900370E+03  0.61075057411E+03  0.00000000000E+00 0. -1.
</event>
<event>
 4    1  0.6824761E+001  0.2476752E+02  0.7546771E-02  0.1471421E+00
          2   -1    0    0  502    0  0.00000000000E+00  0.00000000000E+00  0.64719593285E+03  0.64719593285E+03  0.00000000000E+00 0. -1.
         -2   -1    0    0    0  501 -0.00000000000E+00 -0.00000000000E+00 -0.95332428568E+00  0.95332428568E+00  0.00000000000E+00 0.  1.
          1    1    1    2  502    0  0.24120780922E+02  0.56229683106E+01  0.29851225355E+03  0.29953796982E+03  0.00000000000E+00 0.  1.
         -1    1    1    2    0  501 -0.24120780922E+02 -0.56229683106E+01  0.34773035502E+03  0.34861128732E+03  0.00000000000E+00 0. -1.
</event>
<event>
 4    1  0.6824761E+001  0.3423008E+02  0.7546771E-02  0.1386058E+00
          2   -1    0    0  502    0  0.00000000000E+00  0.00000000000E+00  0.73984544580E+02  0.73984544580E+02  0.00000000000E+00 0. -1.
         -2   -1    0    0    0  501 -0.00000000000E+00 -0.00000000000E+00 -0.17020781860E+02  0.17020781860E+02  0.00000000000E+00 0.  1.
          1    1    1    2  502    0 -0.26299308841E+02 -0.21909917300E+02  0.16482170506E+02  0.37991578885E+02  0.00000000000E+00 0.  1.
         -1    1    1    2    0  501  0.26299308841E+02  0.21909917300E+02  0.40481592214E+02  0.53013747555E+02  0.00000000000E+00 0. -1.
</event>
<event>
 4    1  0.6824761E+001  0.3416306E+02  0.7546771E-02  0.1386544E+00
          2   -1    0    0  502    0  0.00000000000E+00  0.00000000000E+00  0.18066560005E+04  0.18066560005E+04  0.00000000000E+00 0. -1.
         -2   -1    0    0    0  501 -0.00000000000E+00 -0.00000000000E+00 -0.81431936316E+00  0.81431936316E+00  0.00000000000E+00 0.  1.
          1    1    1    2  502    0 -0.32574796709E+02 -0.10295493340E+02  0.49205477048E+03  0.49323930471E+03  0.00000000000E+00 0.  1.
         -1    1    1    2    0  501  0.32574796709E+02  0.10295493340E+02  0.13137869107E+04  0.13142310151E+04  0.00000000000E+00 0. -1.
</event>
<event>
 4    1  0.6824761E+001  0.2252328E+02  0.7546771E-02  0.1498573E+00
          2   -1    0    0  502    0  0.00000000000E+00  0.00000000000E+00  0.26647215537E+01  0.26647215537E+01  0.00000000000E+00 0.  1.
         -2   -1    0    0    0  501 -0.00000000000E+00 -0.00000000000E+00 -0.38330710066E+03  0.38330710066E+03  0.00000000000E+00 0. -1.
          1    1    1    2  502    0 -0.22174040671E+02  0.39509502817E+01 -0.53405350736E+02  0.57960586394E+02  0.00000000000E+00 0.  1.
         -1    1    1    2    0  501  0.22174040671E+02 -0.39509502817E+01 -0.32723702837E+03  0.32801123582E+03  0.00000000000E+00 0. -1.
</event>
<event>
 4    1  0.6824761E+001  0.2656131E+02  0.7546771E-02  0.1452065E+00
          2   -1    0    0  502    0  0.00000000000E+00  0.00000000000E+00  0.15653281043E+04  0.15653281043E+04  0.00000000000E+00 0. -1.
         -2   -1    0    0    0  501 -0.00000000000E+00 -0.00000000000E+00 -0.68766854118E+00  0.68766854118E+00  0.00000000000E+00 0.  1.
          1    1    1    2  502    0 -0.26096667331E+02 -0.49464096634E+01  0.12419585744E+04  0.12422425704E+04  0.00000000000E+00 0. -1.
         -1    1    1    2    0  501  0.26096667331E+02  0.49464096634E+01  0.32268186134E+03  0.32377320250E+03  0.00000000000E+00 0.  1.
</event>
<event>
 4    1  0.6824761E+001  0.2017020E+02  0.7546771E-02  0.1531450E+00
          2   -1    0    0  502    0  0.00000000000E+00  0.00000000000E+00  0.40439158557E+03  0.40439158557E+03  0.00000000000E+00 0.  1.
         -2   -1    0    0    0  501 -0.00000000000E+00 -0.00000000000E+00 -0.10220868976E+01  0.10220868976E+01  0.00000000000E+00 0. -1.
          1    1    1    2  502    0 -0.17973784404E+02 -0.91531508573E+01  0.17629139378E+03  0.17744151887E+03  0.00000000000E+00 0. -1.
         -1    1    1    2    0  501  0.17973784404E+02  0.91531508573E+01  0.22707810489E+03  0.22797215360E+03  0.00000000000E+00 0.  1.
</event>
<event>
 4    1  0.6824761E+001  0.2653349E+02  0.7546771E-02  0.1452351E+00
          2   -1    0    0  502    0  0.00000000000E+00  0.00000000000E+00  0.11940281199E+03  0.11940281199E+03  0.00000000000E+00 0. -1.
         -2   -1    0    0    0  501 -0.00000000000E+00 -0.00000000000E+00 -0.76350457672E+01  0.76350457672E+01  0.00000000000E+00 0.  1.
          1    1    1    2  502    0 -0.13959063136E+02 -0.22564807953E+02  0.25571185359E+02  0.36849851048E+02  0.00000000000E+00 0.  1.
         -1    1    1    2    0  501  0.13959063136E+02  0.22564807953E+02  0.86196580859E+02  0.90188006705E+02  0.00000000000E+00 0. -1.
</event>
<event>
 4    1  0.6824761E+001  0.3077087E+02  0.7546771E-02  0.1413014E+00
          2   -1    0    0  502    0  0.00000000000E+00  0.00000000000E+00  0.11122697574E+03  0.11122697574E+03  0.00000000000E+00 0. -1.
         -2   -1    0    0    0  501 -0.00000000000E+00 -0.00000000000E+00 -0.87556055179E+01  0.87556055179E+01  0.00000000000E+00 0.  1.
          1    1    1    2  502    0  0.24639561082E+02  0.18431990773E+02  0.61227137302E+02  0.68524510916E+02  0.00000000000E+00 0. -1.
         -1    1    1    2    0  501 -0.24639561082E+02 -0.18431990773E+02  0.41244232924E+02  0.51458070345E+02  0.00000000000E+00 0.  1.
</event>
<event>
 4    1  0.6824761E+001  0.2015202E+02  0.7546771E-02  0.1531724E+00
          2   -1    0    0  502    0  0.00000000000E+00  0.00000000000E+00  0.71493206931E+01  0.71493206931E+01  0.00000000000E+00 0. -1.
         -2   -1    0    0    0  501 -0.00000000000E+00 -0.00000000000E+00 -0.61150737281E+02  0.61150737281E+02  0.00000000000E+00 0.  1.
          1    1    1    2  502    0  0.17092041492E+02 -0.10675480424E+02 -0.36106455259E+02  0.41349484592E+02  0.00000000000E+00 0. -1.
         -1    1    1    2    0  501 -0.17092041492E+02  0.10675480424E+02 -0.17894961329E+02  0.26950573382E+02  0.00000000000E+00 0.  1.
</event>
<event>
 4    1  0.6824761E+001  0.3757928E+02  0.7546771E-02  0.1363286E+00
          2   -1    0    0  502    0  0.00000000000E+00  0.00000000000E+00  0.82722869501E+03  0.82722869501E+03  0.00000000000E+00 0.  1.
         -2   -1    0    0    0  501 -0.00000000000E+00 -0.00000000000E+00 -0.17212237015E+01  0.17212237015E+01  0.00000000000E+00 0. -1.
          1    1    1    2  502    0  0.28109744655E+01  0.37474004030E+02  0.45023384082E+03  0.45179941785E+03  0.00000000000E+00 0.  1.
         -1    1    1    2    0  501 -0.28109744655E+01 -0.37474004030E+02  0.37527363049E+03  0.37715050086E+03  0.00000000000E+00 0. -1.
</event>
<event>
 4    1  0.6824761E+001  0.2094919E+02  0.7546771E-02  0.1519991E+00
          2   -1    0    0  502    0  0.00000000000E+00  0.00000000000E+00  0.57853597470E+03  0.57853597470E+03  0.00000000000E+00 0.  1.
         -2   -1    0    0    0  501 -0.00000000000E+00 -0.00000000000E+00 -0.33423604825E+01  0.33423604825E+01  0.00000000000E+00 0. -1.
          1    1    1    2  502    0  0.20618800052E+02  0.37059143165E+01  0.31795397220E+02  0.38076449425E+02  0.00000000000E+00 0. -1.
         -1    1    1    2    0  501 -0.20618800052E+02 -0.37059143165E+01  0.54339821700E+03  0.54380188576E+03  0.00000000000E+00 0.  1.
</event>
<event>
 4    1  0.6824761E+001  0.2883504E+02  0.7546771E-02  0.1429997E+00
          2   -1    0    0  502    0  0.00000000000E+00  0.00000000000E+00  0.88015044687E+03  0.88015044687E+03  0.00000000000E+00 0. -1.
         -2   -1    0    0    0  501 -0.00000000000E+00 -0.00000000000E+00 -0.10787529956E+01  0.10787529956E+01  0.00000000000E+00 0.  1.
          1    1    1    2  502    0 -0.10407791594E+02  0.26891219506E+02  0.28420066071E+03  0.28565971953E+03  0.00000000000E+00 0.  1.
         -1    1    1    2    0  501  0.10407791594E+02 -0.26891219506E+02  0.59487103316E+03  0.59556948034E+03  0.00000000000E+00 0. -1.
</event>
<event>
 4    1  0.6824761E+001  0.3539307E+02  0.7546771E-02  0.1377821E+00
          2   -1    0    0  502    0  0.00000000000E+00  0.00000000000E+00  0.16634277775E+01  0.16634277775E+01  0.00000000000E+00 0. -1.
         -2   -1    0    0    0  501 -0.00000000000E+00 -0.00000000000E+00 -0.77357428552E+03  0.77357428552E+03  0.00000000000E+00 0.  1.
          1    1    1    2  502    0 -0.31975025268E+02  0.15174552431E+02 -0.44906988951E+03  0.45046246786E+03  0.00000000000E+00 0.  1.
         -1    1    1    2    0  501  0.31975025268E+02 -0.15174552431E+02 -0.32284096823E+03  0.32477524544E+03  0.00000000000E+00 0. -1.
</event>
<event>
 4    1  0.6824761E+001  0.2204480E+02  0.7546771E-02  0.1504854E+00
          2   -1    0    0  502    0  0.00000000000E+00  0.00000000000E+00  0.13102622831E+04  0.13102622831E+04  0.00000000000E+00 0. -1.
         -2   -1    0    0    0  501 -0.00000000000E+00 -0.00000000000E+00 -0.50391164575E+00  0.50391164575E+00  0.00000000000E+00 0.  1.
          1    1    1    2  502    0  0.10081051691E+02  0.19604736235E+02  0.31816097597E+03  0.31892378387E+03  0.00000000000E+00 0.  1.
         -1    1    1    2    0  501 -0.10081051691E+02 -0.19604736235E+02  0.99159739550E+03  0.99184241089E+03  0.00000000000E+00 0. -1.
</event>
<event>
 4    1  0.6824761E+001  0.2175729E+02  0.7546771E-02  0.1508722E+00
          2   -1    0    0  502    0  0.00000000000E+00  0.00000000000E+00  0.12514618403E+04  0.12514618403E+04  0.00000000000E+00 0. -1.
         -2   -1    0    0    0  501 -0.00000000000E+00 -0.00000000000E+00 -0.41140975868E+00  0.41140975868E+00  0.00000000000E+00 0.  1.
          1    1    1    2  502    0 -0.99875089412E+01  0.19329489427E+02  0.44785067899E+03  0.44837886901E+03  0.00000000000E+00 0.  1.
         -1    1    1    2    0  501  0.99875089412E+01 -0.19329489427E+02  0.80319975155E+03  0.80349438106E+03  0.00000000000E+00 0. -1.
</event>
<event>
 4    1  0.6824761E+001  0.3693500E+02  0.7546771E-02  0.1367447E+00
          2   -1    0    0  502    0  0.00000000000E+00  0.00000000000E+00  0.21281782314E+04  0.21281782314E+04  0.00000000000E+00 0. -1.
         -2   -1    0    0    0  501 -0.00000000000E+00 -0.00000000000E+00 -0.77757544842E+00  0.77757544842E+00  0.00000000000E+00 0.  1.
          1    1    1    2  502    0 -0.26093514616E+02 -0.26140440005E+02  0.15097958802E+04  0.15102475936E+04  0.00000000000E+00 0. -1.
         -1    1    1    2    0  501  0.26093514616E+02  0.26140440005E+02  0.61760477577E+03  0.61870821326E+03  0.00000000000E+00 0.  1.
</event>
<event>
 4    1  0.6824761E+001  0.2045895E+02  0.7546771E-02  0.1527132E+00
          2   -1    0    0  502    0  0.00000000000E+00  0.00000000000E+00  0.15716477952E+04  0.15716477952E+04  0.00000000000E+00 0. -1.
         -2   -1    0    0    0  501 -0.00000000000E+00 -0.00000000000E+00 -0.28451824398E+00  0.28451824398E+00  0.00000000000E+00 0.  1.
          1    1    1    2  502    0 -0.17116653957E+02 -0.11206649083E+02  0.58693219150E+03  0.58728865666E+03  0.00000000000E+00 0.  1.
         -1    1    1    2    0  501  0.17116653957E+02  0.11206649083E+02  0.98443108544E+03  0.98464365677E+03  0.00000000000E+00 0. -1.
</event>
<event>
 4    1  0.6824761E+001  0.2287676E+02  0.7546771E-02  0.1494051E+00
          2   -1    0    0  502    0  0.00000000000E+00  0.00000000000E+00  0.52075910141E+01  0.52075910141E+01  0.00000000000E+00 0.  1.
         -2   -1    0    0    0  501 -0.00000000000E+00 -0.00000000000E+00 -0.16784914896E+03  0.16784914896E+03  0.00000000000E+00 0. -1.
          1    1    1    2  502    0  0.22590495786E+02  0.36077287551E+01 -0.13613273999E+03  0.13804154847E+03  0.00000000000E+00 0. -1.
         -1    1    1    2    0  501 -0.22590495786E+02 -0.36077287551E+01 -0.26508817950E+02  0.35015191499E+02  0.00000000000E+00 0.  1.
</event>
<event>
 4    1  0.6824761E+001  0.2913955E+02  0.7546771E-02  0.1427224E+00
          2   -1    0    0  502    0  0.00000000000E+00  0.00000000000E+00  0.16061713255E+02  0.16061713255E+02  0.00000000000E+00 0. -1.
         -2   -1    0    0    0  501 -0.00000000000E+00 -0.00000000000E+00 -0.54653300211E+02  0.54653300211E+02  0.00000000000E+00 0.  1.
          1    1    1    2  502    0  0.31406124003E+01  0.28969809034E+02 -0.25690371756E+02  0.38847245497E+02  0.00000000000E+00 0.  1.
         -1    1    1    2    0  501 -0.31406124003E+01 -0.28969809034E+02 -0.12901215199E+02  0.31867767969E+02  0.00000000000E+00 0. -1.
</event>
<event>
 4    1  0.6824761E+001  0.6313413E+02  0.7546771E-02  0.1249540E+00
          2   -1    0    0  502    0  0.00000000000E+00  0.00000000000E+00  0.11796685333E+04  0.11796685333E+04  0.00000000000E+00 0. -1.
         -2   -1    0    0    0  501 -0.00000000000E+00 -0.00000000000E+00 -0.34439133529E+01  0.34439133529E+01  0.00000000000E+00 0.  1.
          1    1    1    2  502    0 -0.37514429268E+02 -0.50779781845E+02  0.50680108201E+03  0.51071837188E+03  0.00000000000E+00 0.  1.
         -1    1    1    2    0  501  0.37514429268E+02  0.50779781845E+02  0.66942353791E+03  0.67239407474E+03  0.00000000000E+00 0. -1.
</event>
<event>
 4    1  0.6824761E+001  0.2443111E+02  0.7546771E-02  0.1475269E+00
          2   -1    0    0  502    0  0.00000000000E+00  0.00000000000E+00  0.28753909195E+03  0.28753909195E+03  0.00000000000E+00 0. -1.
         -2   -1    0    0    0  501 -0.00000000000E+00 -0.00000000000E+00 -0.21262883813E+01  0.21262883813E+01  0.00000000000E+00 0.  1.
          1    1    1    2  502    0  0.23764173878E+02  0.56695088602E+01  0.12039294767E+03  0.12284681982E+03  0.00000000000E+00 0. -1.
         -1    1    1    2    0  501 -0.23764173878E+02 -0.56695088602E+01  0.16501985590E+03  0.16681856051E+03  0.00000000000E+00 0.  1.
</event>
<event>
 4    1  0.6824761E+001  0.3615025E+02  0.7546771E-02  0.1372652E+00
          2   -1    0    0  502    0  0.00000000000E+00  0.00000000000E+00  0.21213970870E+04  0.21213970870E+04  0.00000000000E+00 0.  1.
         -2   -1    0    0    0  501 -0.00000000000E+00 -0.00000000000E+00 -0.20891955969E+01  0.20891955969E+01  0.00000000000E+00 0. -1.
          1    1    1    2  502    0  0.33480591388E+02  0.13634162131E+02  0.19512250124E+04  0.19515598605E+04  0.00000000000E+00 0.  1.
         -1    1    1    2    0  501 -0.33480591388E+02 -0.13634162131E+02  0.16808287901E+03  0.17192642203E+03  0.00000000000E+00 0. -1.
</event>
<event>
 4    1  0.6824761E+001  0.2001468E+02  0.7546771E-02  0.1533811E+00
          2   -1    0    0  502    0  0.00000000000E+00  0.00000000000E+00  0.10098767079E+04  0.10098767079E+04  0.00000000000E+00 0.  1.
         -2   -1    0    0    0  501 -0.00000000000E+00 -0.00000000000E+00 -0.42596383684E+00  0.42596383684E+00  0.00000000000E+00 0. -1.
          1    1    1    2  502    0 -0.10554093242E+02 -0.17005843702E+02  0.63719754522E+03  0.63751180321E+03  0.00000000000E+00 0.  1.
         -1    1    1    2    0  501  0.10554093242E+02  0.17005843702E+02  0.37225319880E+03  0.37279086848E+03  0.00000000000E+00 0. -1.
</event>
<event>
 4    1  0.6824761E+001  0.2485043E+02  0.7546771E-02  0.1470484E+00
          2   -1    0    0  502    0  0.00000000000E+00  0.00000000000E+00  0.10384795767E+03  0.10384795767E+03  0.00000000000E+00 0. -1.
         -2   -1    0    0    0  501 -0.00000000000E+00 -0.00000000000E+00 -0.60434618427E+01  0.60434618427E+01  0.00000000000E+00 0.  1.
          1    1    1    2  502    0  0.47153664886E+01  0.24398957585E+02  0.41946659835E+02  0.48755164687E+02  0.00000000000E+00 0.  1.
         -1    1    1    2    0  501 -0.47153664886E+01 -0.24398957585E+02  0.55857835991E+02  0.61136254824E+02  0.00000000000E+00 0. -1.
</event>
<event>
 4    1  0.6824761E+001  0.2808259E+02  0.7546771E-02  0.1437026E+00
          2   -1    0    0  502    0  0.00000000000E+00  0.00000000000E+00  0.14134395907E+03  0.14134395907E+03  0.00000000000E+00 0. -1.
         -2   -1    0    0    0  501 -0.00000000000E+00 -0.00000000000E+00 -0.67056871059E+01  0.67056871059E+01  0.00000000000E+00 0.  1.
          1    1    1    2  502    0  0.19147856338E+02 -0.20542425917E+02  0.36983237890E+02  0.46436963183E+02  0.00000000000E+00 0.  1.
         -1    1    1    2    0  501 -0.19147856338E+02  0.20542425917E+02  0.97655034073E+02  0.10161268299E+03  0.00000000000E+00 0. -1.
</event>
<event>
 4    1  0.6824761E+001  0.2523882E+02  0.7546771E-02  0.1466149E+00
          2   -1    0    0  502    0  0.00000000000E+00  0.00000000000E+00  0.36391311329E+03  0.36391311329E+03  0.00000000000E+00 0.  1.
         -2   -1    0    0    0  501 -0.00000000000E+00 -0.00000000000E+00 -0.34891810068E+01  0.34891810068E+01  0.00000000000E+00 0. -1.
          1    1    1    2  502    0 -0.24959047239E+02 -0.37475090674E+01  0.30989138916E+03  0.31091746644E+03  0.00000000000E+00 0.  1.
         -1    1    1    2    0  501  0.24959047239E+02  0.37475090674E+01  0.50532543125E+02  0.56484827856E+02  0.00000000000E+00 0. -1.
</event>
<event>
 4    1  0.6824761E+001  0.6361521E+02  0.7546771E-02  0.1248020E+00
          2   -1    0    0  502    0  0.00000000000E+00  0.00000000000E+00  0.21367011040E+04  0.21367011040E+04  0.00000000000E+00 0.  1.
         -2   -1    0    0    0  501 -0.00000000000E+00 -0.00000000000E+00 -0.21006052876E+01  0.21006052876E+01  0.00000000000E+00 0. -1.
          1    1    1    2  502    0  0.50561465255E+02  0.38606122064E+02  0.14026883149E+04  0.14041301233E+04  0.00000000000E+00 0.  1.
         -1    1    1    2    0  501 -0.50561465255E+02 -0.38606122064E+02  0.73191218375E+03  0.73467158591E+03  0.00000000000E+00 0. -1.
</event>
<event>
 4    1  0.6824761E+001  0.2161908E+02  0.7546771E-02  0.1510607E+00
          2   -1    0    0  502    0  0.00000000000E+00  0.00000000000E+00  0.11586862564E+02  0.11586862564E+02  0.00000000000E+00 0.  1.
         -2   -1    0    0    0  501 -0.00000000000E+00 -0.00000000000E+00 -0.59120547309E+02  0.59120547309E+02  0.00000000000E+00 0. -1.
          1    1    1    2  502    0 -0.82874624740E+01 -0.19967542590E+02 -0.43694167788E+02  0.48750026564E+02  0.00000000000E+00 0. -1.
         -1    1    1    2    0  501  0.82874624740E+01  0.19967542590E+02 -0.38395169576E+01  0.21957383309E+02  0.00000000000E+00 0.  1.
</event>
<event>
 4    1  0.6824761E+001  0.3667871E+02  0.7546771E-02  0.1369130E+00
          2   -1    0    0  502    0  0.00000000000E+00  0.00000000000E+00  0.52113326491E+03  0.52113326491E+03  0.00000000000E+00 0. -1.
         -2   -1    0    0    0  501 -0.00000000000E+00 -0.00000000000E+00 -0.26090779874E+01  0.26090779874E+01  0.00000000000E+00 0.  1.
          1    1    1    2  502    0 -0.24059885604E+02 -0.27684823025E+02  0.28616460458E+03  0.28850564714E+03  0.00000000000E+00 0. -1.
         -1    1    1    2    0  501  0.24059885604E+02  0.27684823025E+02  0.23235958234E+03  0.23523669575E+03  0.00000000000E+00 0.  1.
</event>
<event>
 4    1  0.6824761E+001  0.2355096E+02  0.7546771E-02  0.1485693E+00
          2   -1    0    0  502    0  0.00000000000E+00  0.00000000000E+00  0.12330438405E+03  0.12330438405E+03  0.00000000000E+00 0. -1.
         -2   -1    0    0    0  501 -0.00000000000E+00 -0.00000000000E+00 -0.45208394691E+01  0.45208394691E+01  0.00000000000E+00 0.  1.
          1    1    1    2  502    0 -0.16643396553E+02 -0.16662689779E+02  0.63914520718E+02  0.68115444931E+02  0.00000000000E+00 0. -1.
         -1    1    1    2    0  501  0.16643396553E+02  0.16662689779E+02  0.54869023866E+02  0.59709778592E+02  0.00000000000E+00 0.  1.
</event>
<event>
 4    1  0.6824761E+001  0.2084548E+02  0.7546771E-02  0.1521482E+00
          2   -1    0    0  502    0  0.00000000000E+00  0.00000000000E+00  0.63520066085E+02  0.63520066085E+02  0.00000000000E+00 0.  1.
         -2   -1    0    0    0  501 -0.00000000000E+00 -0.00000000000E+00 -0.25771722970E+02  0.25771722970E+02  0.00000000000E+00 0. -1.
          1    1    1    2  502    0  0.20754752100E+02 -0.19427858034E+01  0.57138544209E+02  0.60822260610E+02  0.00000000000E+00 0.  1.
         -1    1    1    2    0  501 -0.20754752100E+02  0.19427858034E+01 -0.19390201093E+02  0.28469528445E+02  0.00000000000E+00 0. -1.
</event>
<event>
 4    1  0.6824761E+001  0.2199461E+02  0.7546771E-02  0.1505524E+00
          2   -1    0    0  502    0  0.00000000000E+00  0.00000000000E+00  0.11353213304E+04  0.11353213304E+04  0.00000000000E+00 0.  1.
         -2   -1    0    0    0  501 -0.00000000000E+00 -0.00000000000E+00 -0.45156838280E+00  0.45156838280E+00  0.00000000000E+00 0. -1.
          1    1    1    2  502    0 -0.21940197508E+02 -0.15462016142E+01  0.70229421052E+03  0.70263854231E+03  0.00000000000E+00 0.  1.
         -1    1    1    2    0  501  0.21940197508E+02  0.15462016142E+01  0.43257555147E+03  0.43313435645E+03  0.00000000000E+00 0. -1.
</event>
<event>
 4    1  0.6824761E+001  0.4042080E+02  0.7546771E-02  0.1346037E+00
          2   -1    0    0  502    0  0.00000000000E+00  0.00000000000E+00  0.57698626736E+03  0.57698626736E+03  0.00000000000E+00 0.  1.
         -2   -1    0    0    0  501 -0.00000000000E+00 -0.00000000000E+00 -0.36733929352E+01  0.36733929352E+01  0.00000000000E+00 0. -1.
          1    1    1    2  502    0  0.28975267082E+02 -0.28182882000E+02  0.42563242157E+03  0.42754742337E+03  0.00000000000E+00 0.  1.
         -1    1    1    2    0  501 -0.28975267082E+02  0.28182882000E+02  0.14768045286E+03  0.15311223693E+03  0.00000000000E+00 0. -1.
</event>
<event>
 4    1  0.6824761E+001  0.3939522E+02  0.7546771E-02  0.1352067E+00
          2   -1    0    0  502    0  0.00000000000E+00  0.00000000000E+00  0.85033274425E+03  0.85033274425E+03  0.00000000000E+00 0. -1.
         -2   -1    0    0    0  501 -0.00000000000E+00 -0.00000000000E+00 -0.27392682957E+01  0.27392682957E+01  0.00000000000E+00 0.  1.
          1    1    1    2  502    0  0.17708914895E+02  0.35190590756E+02  0.67019635148E+03  0.67135321023E+03  0.00000000000E+00 0. -1.
         -1    1    1    2    0  501 -0.17708914895E+02 -0.35190590756E+02  0.17739712447E+03  0.18171880231E+03  0.00000000000E+00 0.  1.
</event>
<event>
 4    1  0.6824761E+001  0.3285466E+02  0.7546771E-02  0.1396307E+00
          2   -1    0    0  502    0  0.00000000000E+00  0.00000000000E+00  0.25197752851E+04  0.25197752851E+04  0.00000000000E+00 0. -1.
         -2   -1    0    0    0  501 -0.00000000000E+00 -0.00000000000E+00 -0.61849918142E+00  0.61849918142E+00  0.00000000000E+00 0.  1.
          1    1    1    2  502    0 -0.30217478619E+02 -0.12897004516E+02  0.56089816725E+03  0.56185957567E+03  0.00000000000E+00 0.  1.
         -1    1    1    2    0  501  0.30217478619E+02  0.12897004516E+02  0.19582586186E+04  0.19585342086E+04  0.00000000000E+00 0. -1.
</event>
<event>
 4    1  0.6824761E+001  0.2098049E+02  0.7546771E-02  0.1519544E+00
          2   -1    0    0  502    0  0.00000000000E+00  0.00000000000E+00  0.24110624090E+04  0.24110624090E+04  0.00000000000E+00 0.  1.
         -2   -1    0    0    0  501 -0.00000000000E+00 -0.00000000000E+00 -0.18545556292E+00  0.18545556292E+00  0.00000000000E+00 0. -1.
          1    1    1    2  502    0 -0.61331627031E+01  0.20064024837E+02  0.10549781373E+04  0.10551867375E+04  0.00000000000E+00 0.  1.
         -1    1    1    2    0  501  0.61331627031E+01 -0.20064024837E+02  0.13558988161E+04  0.13560611271E+04  0.00000000000E+00 0. -1.
</event>
<event>
 4    1  0.6824761E+001  0.2645371E+02  0.7546771E-02  0.1453174E+00
          2   -1    0    0  502    0  0.00000000000E+00  0.00000000000E+00  0.12231011051E+02  0.12231011051E+02  0.00000000000E+00 0.  1.
         -2   -1    0    0    0  501 -0.00000000000E+00 -0.00000000000E+00 -0.26707190325E+03  0.26707190325E+03  0.00000000000E+00 0. -1.
          1    1    1    2  502    0  0.25632587513E+02 -0.65398149278E+01 -0.25121253185E+03  0.25260153380E+03  0.00000000000E+00 0. -1.
         -1    1    1    2    0  501 -0.25632587513E+02  0.65398149278E+01 -0.36283603565E+01  0.26701380503E+02  0.00000000000E+00 0.  1.
</event>
<event>
 4    1  0.6824761E+001  0.3012362E+02  0.7546771E-02  0.1418525E+00
          2   -1    0    0  502    0  0.00000000000E+00  0.00000000000E+00  0.89416842686E+03  0.89416842686E+03  0.00000000000E+00 0.  1.
         -2   -1    0    0    0  501 -0.00000000000E+00 -0.00000000000E+00 -0.10795655735E+01  0.10795655735E+01  0.00000000000E+00 0. -1.
          1    1    1    2  502    0  0.13448766919E+02  0.26954832283E+02  0.55615380598E+03  0.55696901908E+03  0.00000000000E+00 0. -1.
         -1    1    1    2    0  501 -0.13448766919E+02 -0.26954832283E+02  0.33693505531E+03  0.33827897336E+03  0.00000000000E+00 0.  1.
</event>
<event>
 4    1  0.6824761E+001  0.2365009E+02  0.7546771E-02  0.1484492E+00
          2   -1    0    0  502    0  0.00000000000E+00  0.00000000000E+00  0.17378995352E+04  0.17378995352E+04  0.00000000000E+00 0. -1.
         -2   -1    0    0    0  501 -0.00000000000E+00 -0.00000000000E+00 -0.32217448675E+00  0.32217448675E+00  0.00000000000E+00 0.  1.
          1    1    1    2  502    0 -0.16755536549E+02  0.16690676004E+02  0.89676649047E+03  0.89707829374E+03  0.00000000000E+00 0. -1.
         -1    1    1    2    0  501  0.16755536549E+02 -0.16690676004E+02  0.84081087025E+03  0.84114341595E+03  0.00000000000E+00 0.  1.
</event>
<event>
 4    1  0.6824761E+001  0.2112252E+02  0.7546771E-02  0.1517523E+00
          2   -1    0    0  502    0  0.00000000000E+00  0.00000000000E+00  0.41173869842E+02  0.41173869842E+02  0.00000000000E+00 0.  1.
         -2   -1    0    0    0  501 -0.00000000000E+00 -0.00000000000E+00 -0.28822867187E+02  0.28822867187E+02  0.00000000000E+00 0. -1.
          1    1    1    2  502    0  0.55761015575E+01  0.20373220600E+02  0.33823053624E+02  0.39876810086E+02  0.00000000000E+00 0.  1.
         -1    1    1    2    0  501 -0.55761015575E+01 -0.20373220600E+02 -0.21472050969E+02  0.30119926942E+02  0.00000000000E+00 0. -1.
</event>
<event>
 4    1  0.6824761E+001  0.5050836E+02  0.7546771E-02  0.1295983E+00
          2   -1    0    0  502    0  0.00000000000E+00  0.00000000000E+00  0.28226814734E+02  0.28226814734E+02  0.00000000000E+00 0.  1.
         -2   -1    0    0    0  501 -0.00000000000E+00 -0.00000000000E+00 -0.97758989203E+02  0.97758989203E+02  0.00000000000E+00 0. -1.
          1    1    1    2  502    0 -0.46141088504E+02 -0.20544932388E+02 -0.52074563686E+02  0.72545533827E+02  0.00000000000E+00 0. -1.
         -1    1    1    2    0  501  0.46141088504E+02  0.20544932388E+02 -0.17457610783E+02  0.53440270110E+02  0.00000000000E+00 0.  1.
</event>
<event>
 4    1  0.6824761E+001  0.2189745E+02  0.7546771E-02  0.1506827E+00
          2   -1    0    0  502    0  0.00000000000E+00  0.00000000000E+00  0.93315690747E+03  0.93315690747E+03  0.00000000000E+00 0.  1.
         -2   -1    0    0    0  501 -0.00000000000E+00 -0.00000000000E+00 -0.53851755810E+00  0.53851755810E+00  0.00000000000E+00 0. -1.
          1    1    1    2  502    0 -0.12438147173E+02 -0.18021953725E+02  0.36638297314E+03  0.36703675746E+03  0.00000000000E+00 0. -1.
         -1    1    1    2    0  501  0.12438147173E+02  0.18021953725E+02  0.56623541677E+03  0.56665866757E+03  0.00000000000E+00 0.  1.
</event>
<event>
 4    1  0.6824761E+001  0.2890031E+02  0.7546771E-02  0.1429400E+00
          2   -1    0    0  502    0  0.00000000000E+00  0.00000000000E+00  0.63815582211E+02  0.63815582211E+02  0.00000000000E+00 0. -1.
         -2   -1    0    0    0  501 -0.00000000000E+00 -0.00000000000E+00 -0.16508038245E+02  0.16508038245E+02  0.00000000000E+00 0.  1.
          1    1    1    2  502    0  0.48364042287E+01  0.28492752572E+02  0.41933581263E+02  0.50927919578E+02  0.00000000000E+00 0. -1.
         -1    1    1    2    0  501 -0.48364042287E+01 -0.28492752572E+02  0.53739627026E+01  0.29395700878E+02  0.00000000000E+00 0.  1.
</event>
<event>
 4    1  0.6824761E+001  0.2811843E+02  0.7546771E-02  0.1436686E+00
          2   -1    0    0  502    0  0.00000000000E+00  0.00000000000E+00  0.71834684850E+02  0.71834684850E+02  0.00000000000E+00 0.  1.
         -2   -1    0    0    0  501 -0.00000000000E+00 -0.00000000000E+00 -0.11249683174E+02  0.11249683174E+02  0.00000000000E+00 0. -1.
          1    1    1    2  502    0 -0.25049766332E+02 -0.12773232564E+02  0.24184301115E+02  0.37088093559E+02  0.00000000000E+00 0.  1.
         -1    1    1    2    0  501  0.25049766332E+02  0.12773232564E+02  0.36400700561E+02  0.45996274465E+02  0.00000000000E+00 0. -1.
</event>
<event>
 4    1  0.6824761E+001  0.4315360E+02  0.7546771E-02  0.1330935E+00
          2   -1    0    0  502    0  0.00000000000E+00  0.00000000000E+00  0.40728424924E+03  0.40728424924E+03  0.00000000000E+00 0. -1.
         -2   -1    0    0    0  501 -0.00000000000E+00 -0.00000000000E+00 -0.56743622092E+01  0.56743622092E+01  0.00000000000E+00 0.  1.
          1    1    1    2  502    0 -0.43100795466E+02 -0.21341157521E+01  0.29179994850E+03  0.29497363096E+03  0.00000000000E+00 0. -1.
         -1    1    1    2    0  501  0.43100795466E+02  0.21341157521E+01  0.10980993853E+03  0.11798498048E+03  0.00000000000E+00 0.  1.
</event>
<event>
 4    1  0.6824761E+001  0.6035049E+02  0.7546771E-02  0.1258646E+00
          2   -1    0    0  502    0  0.00000000000E+00  0.00000000000E+00  0.27261275750E+04  0.27261275750E+04  0.00000000000E+00 0. -1.
         -2   -1    0    0    0  501 -0.00000000000E+00 -0.00000000000E+00 -0.44054241397E+01  0.44054241397E+01  0.00000000000E+00 0.  1.
          1    1    1    2  502    0  0.56171763967E+02 -0.22066147467E+02  0.25004548374E+04  0.25011830353E+04  0.00000000000E+00 0. -1.
         -1    1    1    2    0  501 -0.56171763967E+02  0.22066147467E+02  0.22126731344E+03  0.22934996387E+03  0.00000000000E+00 0.  1.
</event>
<event>
 4    1  0.6824761E+001  0.2789345E+02  0.7546771E-02  0.1438834E+00
          2   -1    0    0  502    0  0.00000000000E+00  0.00000000000E+00  0.74121544742E+03  0.74121544742E+03  0.00000000000E+00 0.  1.
         -2   -1    0    0    0  501 -0.00000000000E+00 -0.00000000000E+00 -0.11163754476E+01  0.11163754476E+01  0.00000000000E+00 0. -1.
          1    1    1    2  502    0  0.18263819446E+02  0.21082632698E+02  0.46076618636E+03  0.46160970851E+03  0.00000000000E+00 0. -1.
         -1    1    1    2    0  501 -0.18263819446E+02 -0.21082632698E+02  0.27933288562E+03  0.28072211436E+03  0.00000000000E+00 0.  1.
</event>
<event>
 4    1  0.6824761E+001  0.2639223E+02  0.7546771E-02  0.1453811E+00
          2   -1    0    0  502    0  0.00000000000E+00  0.00000000000E+00  0.51602715752E+03  0.51602715752E+03  0.00000000000E+00 0.  1.
         -2   -1    0    0    0  501 -0.00000000000E+00 -0.00000000000E+00 -0.15776122949E+01  0.15776122949E+01  0.00000000000E+00 0. -1.
          1    1    1    2  502    0 -0.26373936936E+02  0.98256076264E+00  0.15888567946E+03  0.16106274899E+03  0.00000000000E+00 0. -1.
         -1    1    1    2    0  501  0.26373936936E+02 -0.98256076264E+00  0.35556386577E+03  0.35654202083E+03  0.00000000000E+00 0.  1.
</event>
<event>
 4    1  0.6824761E+001  0.3233031E+02  0.7546771E-02  0.1400371E+00
          2   -1    0    0  502    0  0.00000000000E+00  0.00000000000E+00  0.29562608423E+03  0.29562608423E+03  0.00000000000E+00 0. -1.
         -2   -1    0    0    0  501 -0.00000000000E+00 -0.00000000000E+00 -0.41413674693E+01  0.41413674693E+01  0.00000000000E+00 0.  1.
          1    1    1    2  502    0  0.87930829090E+01  0.31111580735E+02  0.88423790082E+02  0.94148900234E+02  0.00000000000E+00 0.  1.
         -1    1    1    2    0  501 -0.87930829090E+01 -0.31111580735E+02  0.20306092668E+03  0.20561855147E+03  0.00000000000E+00 0. -1.
</event>
<event>
 4    1  0.6824761E+001  0.2669736E+02  0.7546771E-02  0.1450672E+00
          2   -1    0    0  502    0  0.00000000000E+00  0.00000000000E+00  0.17511703756E+04  0.17511703756E+04  0.00000000000E+00 0.  1.
         -2   -1    0    0    0  501 -0.00000000000E+00 -0.00000000000E+00 -0.45237807340E+00  0.45237807340E+00  0.00000000000E+00 0. -1.
          1    1    1    2  502    0 -0.26693180532E+02  0.47229742532E+00  0.59801354887E+03  0.59860918268E+03  0.00000000000E+00 0.  1.
         -1    1    1    2    0  501  0.26693180532E+02 -0.47229742532E+00  0.11527044487E+04  0.11530135710E+04  0.00000000000E+00 0. -1.
</event>
<event>
 4    1  0.6824761E+001  0.4507417E+02  0.7546771E-02  0.1321069E+00
          2   -1    0    0  502    0  0.00000000000E+00  0.00000000000E+00  0.51603865124E+01  0.51603865124E+01  0.00000000000E+00 0.  1.
         -2   -1    0    0    0  501 -0.00000000000E+00 -0.00000000000E+00 -0.68274368680E+03  0.68274368680E+03  0.00000000000E+00 0. -1.
          1    1    1    2  502    0  0.16164309358E+02 -0.42076073650E+02 -0.56258410482E+03  0.56438688492E+03  0.00000000000E+00 0. -1.
         -1    1    1    2    0  501 -0.16164309358E+02  0.42076073650E+02 -0.11499919547E+03  0.12351718840E+03  0.00000000000E+00 0.  1.
</event>
<event>
 4    1  0.6824761E+001  0.2008232E+02  0.7546771E-02  0.1532781E+00
          2   -1    0    0  502    0  0.00000000000E+00  0.00000000000E+00  0.19862772044E+03  0.19862772044E+03  0.00000000000E+00 0.  1.
         -2   -1    0    0    0  501 -0.00000000000E+00 -0.00000000000E+00 -0.25915537907E+01  0.25915537907E+01  0.00000000000E+00 0. -1.
          1    1    1    2  502    0 -0.54507290199E+01 -0.19328450818E+02  0.51202628452E+02  0.55000078348E+02  0.00000000000E+00 0. -1.
         -1    1    1    2    0  501  0.54507290199E+01  0.19328450818E+02  0.14483353820E+03  0.14621919588E+03  0.00000000000E+00 0.  1.
</event>
<event>
 4    1  0.6824761E+001  0.4339780E+02  0.7546771E-02  0.1329648E+00
          2   -1    0    0  502    0  0.00000000000E+00  0.00000000000E+00  0.12251414258E+04  0.12251414258E+04  0.00000000000E+00 0.  1.
         -2   -1    0    0    0  501 -0.00000000000E+00 -0.00000000000E+00 -0.20445246289E+01  0.20445246289E+01  0.00000000000E+00 0. -1.
          1    1    1    2  502    0 -0.12031132206E+02  0.41696771532E+02  0.91718036660E+03  0.91820650933E+03  0.00000000000E+00 0.  1.
         -1    1    1    2    0  501  0.12031132206E+02 -0.41696771532E+02  0.30591653460E+03  0.30897944113E+03  0.00000000000E+00 0. -1.
</event>
<event>
 4    1  0.6824761E+001  0.3071701E+02  0.7546771E-02  0.1413466E+00
          2   -1    0    0  502    0  0.00000000000E+00  0.00000000000E+00  0.10864059809E+03  0.10864059809E+03  0.00000000000E+00 0.  1.
         -2   -1    0    0    0  501 -0.00000000000E+00 -0.00000000000E+00 -0.96265673075E+01  0.96265673075E+01  0.00000000000E+00 0. -1.
          1    1    1    2  502    0  0.24031400270E+02 -0.19131824813E+02  0.68001514161E+02  0.74617295903E+02  0.00000000000E+00 0. -1.
         -1    1    1    2    0  501 -0.24031400270E+02  0.19131824813E+02  0.31012516618E+02  0.43649869491E+02  0.00000000000E+00 0.  1.
</event>
<event>
 4    1  0.6824761E+001  0.5019271E+02  0.7546771E-02  0.1297339E+00
          2   -1    0    0  502    0  0.00000000000E+00  0.00000000000E+00  0.19305714444E+02  0.19305714444E+02  0.00000000000E+00 0.  1.
         -2   -1    0    0    0  501 -0.00000000000E+00 -0.00000000000E+00 -0.15471728875E+03  0.15471728875E+03  0.00000000000E+00 0. -1.
          1    1    1    2  502    0 -0.12993035751E+02 -0.48481843070E+02 -0.10213370086E+03  0.11380070710E+03  0.00000000000E+00 0. -1.
         -1    1    1    2    0  501  0.12993035751E+02  0.48481843070E+02 -0.33277873444E+02  0.60222296091E+02  0.00000000000E+00 0.  1.
</event>
<event>
 4    1  0.6824761E+001  0.4013396E+02  0.7546771E-02  0.1347703E+00
          2   -1    0    0  502    0  0.00000000000E+00  0.00000000000E+00  0.45041082668E+03  0.45041082668E+03  0.00000000000E+00 0. -1.
         -2   -1    0    0    0  501 -0.00000000000E+00 -0.00000000000E+00 -0.39873445464E+01  0.39873445464E+01  0.00000000000E+00 0.  1.
          1    1    1    2  502    0  0.12035731736E+02 -0.38286754955E+02  0.15025070548E+03  0.15551851639E+03  0.00000000000E+00 0.  1.
         -1    1    1    2    0  501 -0.12035731736E+02  0.38286754955E+02  0.29617277666E+03  0.29887965484E+03  0.00000000000E+00 0. -1.
</event>
<event>
 4    1  0.6824761E+001  0.2048232E+02  0.7546771E-02  0.1526786E+00
          2   -1    0    0  502    0  0.00000000000E+00  0.00000000000E+00  0.67083100760E+02  0.67083100760E+02  0.00000000000E+00 0.  1.
         -2   -1    0    0    0  501 -0.00000000000E+00 -0.00000000000E+00 -0.64971355012E+01  0.64971355012E+01  0.00000000000E+00 0. -1.
          1    1    1    2  502    0  0.17818092541E+02 -0.10101541269E+02  0.23173373272E+02  0.30927831910E+02  0.00000000000E+00 0. -1.
         -1    1    1    2    0  501 -0.17818092541E+02  0.10101541269E+02  0.37412591987E+02  0.42652404352E+02  0.00000000000E+00 0.  1.
</event>
<event>
 4    1  0.6824761E+001  0.4798006E+02  0.7546771E-02  0.1307176E+00
          2   -1    0    0  502    0  0.00000000000E+00  0.00000000000E+00  0.91594443084E+02  0.91594443084E+02  0.00000000000E+00 0.  1.
         -2   -1    0    0    0  501 -0.00000000000E+00 -0.00000000000E+00 -0.27466307097E+02  0.27466307097E+02  0.00000000000E+00 0. -1.
          1    1    1    2  502    0 -0.31675404518E+02  0.36038236693E+02  0.14714801073E+02  0.50185766168E+02  0.00000000000E+00 0. -1.
         -1    1    1    2    0  501  0.31675404518E+02 -0.36038236693E+02  0.49413334914E+02  0.68874984012E+02  0.00000000000E+00 0.  1.
</event>
<event>
 4    1  0.6824761E+001  0.2030377E+02  0.7546771E-02  0.1529442E+00
          2   -1    0    0  502    0  0.00000000000E+00  0.00000000000E+00  0.39039046036E+02  0.39039046036E+02  0.00000000000E+00 0.  1.
         -2   -1    0    0    0  501 -0.00000000000E+00 -0.00000000000E+00 -0.10630717958E+02  0.10630717958E+02  0.00000000000E+00 0. -1.
          1    1    1    2  502    0 -0.20190711116E+02 -0.21396475414E+01  0.12175149019E+02  0.23674398844E+02  0.00000000000E+00 0.  1.
         -1    1    1    2    0  501  0.20190711116E+02  0.21396475414E+01  0.16233179059E+02  0.25995365151E+02  0.00000000000E+00 0. -1.
</event>
<event>
 4    1  0.6824761E+001  0.2011927E+02  0.7546771E-02  0.1532220E+00
          2   -1    0    0  502    0  0.00000000000E+00  0.00000000000E+00  0.38481443469E+03  0.38481443469E+03  0.00000000000E+00 0.  1.
         -2   -1    0    0    0  501 -0.00000000000E+00 -0.00000000000E+00 -0.47064442728E+01  0.47064442728E+01  0.00000000000E+00 0. -1.
          1    1    1    2  502    0  0.16169307473E+02 -0.11972408414E+02  0.36167525680E+03  0.36223442196E+03  0.00000000000E+00 0.  1.
         -1    1    1    2    0  501 -0.16169307473E+02  0.11972408414E+02  0.18432733613E+02  0.27286457004E+02  0.00000000000E+00 0. -1.
</event>
<event>
 4    1  0.6824761E+001  0.2054616E+02  0.7546771E-02  0.1525844E+00
          2   -1    0    0  502    0  0.00000000000E+00  0.00000000000E+00  0.25358980737E+02  0.25358980737E+02  0.00000000000E+00 0.  1.
         -2   -1    0    0    0  501 -0.00000000000E+00 -0.00000000000E+00 -0.17733615151E+02  0.17733615151E+02  0.00000000000E+00 0. -1.
          1    1    1    2  502    0  0.14274336782E+02  0.14777956738E+02 -0.15214177398E+01  0.20602412671E+02  0.00000000000E+00 0.  1.
         -1    1    1    2    0  501 -0.14274336782E+02 -0.14777956738E+02  0.91467833266E+01  0.22490183217E+02  0.00000000000E+00 0. -1.
</event>
<event>
 4    1  0.6824761E+001  0.5525321E+02  0.7546771E-02  0.1276873E+00
          2   -1    0    0  502    0  0.00000000000E+00  0.00000000000E+00  0.11209651264E+04  0.11209651264E+04  0.00000000000E+00 0.  1.
         -2   -1    0    0    0  501 -0.00000000000E+00 -0.00000000000E+00 -0.27772258545E+01  0.27772258545E+01  0.00000000000E+00 0. -1.
          1    1    1    2  502    0  0.49355982614E+02 -0.24837550055E+02  0.63726334699E+03  0.63965419589E+03  0.00000000000E+00 0. -1.
         -1    1    1    2    0  501 -0.49355982614E+02  0.24837550055E+02  0.48092455356E+03  0.48408815636E+03  0.00000000000E+00 0.  1.
</event>
<event>
 4    1  0.6824761E+001  0.2570829E+02  0.7546771E-02  0.1461034E+00
          2   -1    0    0  502    0  0.00000000000E+00  0.00000000000E+00  0.32095110896E+03  0.32095110896E+03  0.00000000000E+00 0.  1.
         -2   -1    0    0    0  501 -0.00000000000E+00 -0.00000000000E+00 -0.28049338377E+01  0.28049338377E+01  0.00000000000E+00 0. -1.
          1    1    1    2  502    0  0.23972047705E+01 -0.25596283623E+02  0.75607783714E+02  0.79858958697E+02  0.00000000000E+00 0. -1.
         -1    1    1    2    0  501 -0.23972047705E+01  0.25596283623E+02  0.24253839141E+03  0.24389708410E+03  0.00000000000E+00 0.  1.
</event>
<event>
 4    1  0.6824761E+001  0.2506776E+02  0.7546771E-02  0.1468047E+00
          2   -1    0    0  502    0  0.00000000000E+00  0.00000000000E+00  0.88685802873E+03  0.88685802873E+03  0.00000000000E+00 0.  1.
         -2   -1    0    0    0  501 -0.00000000000E+00 -0.00000000000E+00 -0.77392713801E+00  0.77392713801E+00  0.00000000000E+00 0. -1.
          1    1    1    2  502    0 -0.24050026607E+02  0.70702685247E+01  0.57202470582E+03  0.57257371276E+03  0.00000000000E+00 0.  1.
         -1    1    1    2    0  501  0.24050026607E+02 -0.70702685247E+01  0.31405939578E+03  0.31505824311E+03  0.00000000000E+00 0. -1.
</event>
<event>
 4    1 -0.6824761E+001  0.2950313E+02  0.7546771E-02  0.1423964E+00
          2   -1    0    0  502    0  0.00000000000E+00  0.00000000000E+00  0.22705555335E+00  0.22705555335E+00  0.00000000000E+00 0.  1.
         -2   -1    0    0    0  501 -0.00000000000E+00 -0.00000000000E+00 -0.38925134411E+04  0.38925134411E+04  0.00000000000E+00 0. -1.
          1    1    1    2  502    0  0.86455174441E+01  0.28207970548E+02 -0.21856447817E+04  0.21858438979E+04  0.00000000000E+00 0.  1.
         -1    1    1    2    0  501 -0.86455174441E+01 -0.28207970548E+02 -0.17066416039E+04  0.17068965987E+04  0.00000000000E+00 0. -1.
</event>
<event>
 4    1  0.6824761E+001  0.2242402E+02  0.7546771E-02  0.1499860E+00
          2   -1    0    0  502    0  0.00000000000E+00  0.00000000000E+00  0.19898015514E+02  0.19898015514E+02  0.00000000000E+00 0. -1.
         -2   -1    0    0    0  501 -0.00000000000E+00 -0.00000000000E+00 -0.34403506118E+02  0.34403506118E+02  0.00000000000E+00 0.  1.
          1    1    1    2  502    0 -0.16927951934E+02  0.14706497798E+02  0.67361347280E+01  0.23413930581E+02  0.00000000000E+00 0. -1.
         -1    1    1    2    0  501  0.16927951934E+02 -0.14706497798E+02 -0.21241625333E+02  0.30887591051E+02  0.00000000000E+00 0.  1.
</event>
<event>
 4    1  0.6824761E+001  0.2606536E+02  0.7546771E-02  0.1457230E+00
          2   -1    0    0  502    0  0.00000000000E+00  0.00000000000E+00  0.82437893602E+03  0.82437893602E+03  0.00000000000E+00 0.  1.
         -2   -1    0    0    0  501 -0.00000000000E+00 -0.00000000000E+00 -0.12758582215E+01  0.12758582215E+01  0.00000000000E+00 0. -1.
          1    1    1    2  502    0 -0.19622748462E+02  0.17156656806E+02  0.16591022322E+03  0.16794524494E+03  0.00000000000E+00 0. -1.
         -1    1    1    2    0  501  0.19622748462E+02 -0.17156656806E+02  0.65719285458E+03  0.65770954930E+03  0.00000000000E+00 0.  1.
</event>
<event>
 4    1  0.6824761E+001  0.2679623E+02  0.7546771E-02  0.1449666E+00
          2   -1    0    0  502    0  0.00000000000E+00  0.00000000000E+00  0.18420648740E+04  0.18420648740E+04  0.00000000000E+00 0.  1.
         -2   -1    0    0    0  501 -0.00000000000E+00 -0.00000000000E+00 -0.47130923520E+00  0.47130923520E+00  0.00000000000E+00 0. -1.
          1    1    1    2  502    0 -0.26712415064E+02 -0.21177893898E+01  0.13039166180E+04  0.13041919279E+04  0.00000000000E+00 0. -1.
         -1    1    1    2    0  501  0.26712415064E+02  0.21177893898E+01  0.53767694677E+03  0.53834425533E+03  0.00000000000E+00 0.  1.
</event>
<event>
 4    1  0.6824761E+001  0.2065926E+02  0.7546771E-02  0.1524186E+00
          2   -1    0    0  502    0  0.00000000000E+00  0.00000000000E+00  0.14325500299E+04  0.14325500299E+04  0.00000000000E+00 0.  1.
         -2   -1    0    0    0  501 -0.00000000000E+00 -0.00000000000E+00 -0.30044753589E+00  0.30044753589E+00  0.00000000000E+00 0. -1.
          1    1    1    2  502    0 -0.17595063336E+02 -0.10826752472E+02  0.78165801366E+03  0.78193097851E+03  0.00000000000E+00 0.  1.
         -1    1    1    2    0  501  0.17595063336E+02  0.10826752472E+02  0.65059156874E+03  0.65091949897E+03  0.00000000000E+00 0. -1.
</event>
<event>
 4    1  0.6824761E+001  0.2145125E+02  0.7546771E-02  0.1512919E+00
          2   -1    0    0  502    0  0.00000000000E+00  0.00000000000E+00  0.15004177637E+02  0.15004177637E+02  0.00000000000E+00 0.  1.
         -2   -1    0    0    0  501 -0.00000000000E+00 -0.00000000000E+00 -0.32341073534E+02  0.32341073534E+02  0.00000000000E+00 0. -1.
          1    1    1    2  502    0 -0.17376433499E+02  0.12578376426E+02 -0.14051872088E+02  0.25643929181E+02  0.00000000000E+00 0. -1.
         -1    1    1    2    0  501  0.17376433499E+02 -0.12578376426E+02 -0.32850238091E+01  0.21701321990E+02  0.00000000000E+00 0.  1.
</event>
<event>
 4    1  0.6824761E+001  0.2266152E+02  0.7546771E-02  0.1496793E+00
          2   -1    0    0  502    0  0.00000000000E+00  0.00000000000E+00  0.24399425450E+02  0.24399425450E+02  0.00000000000E+00 0.  1.
         -2   -1    0    0    0  501 -0.00000000000E+00 -0.00000000000E+00 -0.46827318259E+02  0.46827318259E+02  0.00000000000E+00 0. -1.
          1    1    1    2  502    0 -0.12019499161E+01  0.22629623613E+02  0.15210396156E+02  0.27292869027E+02  0.00000000000E+00 0.  1.
         -1    1    1    2    0  501  0.12019499161E+01 -0.22629623613E+02 -0.37638288965E+02  0.43933874683E+02  0.00000000000E+00 0. -1.
</event>
<event>
 4    1  0.6824761E+001  0.2056861E+02  0.7546771E-02  0.1525514E+00
          2   -1    0    0  502    0  0.00000000000E+00  0.00000000000E+00  0.12511837121E+01  0.12511837121E+01  0.00000000000E+00 0. -1.
         -2   -1    0    0    0  501 -0.00000000000E+00 -0.00000000000E+00 -0.98023536395E+03  0.98023536395E+03  0.00000000000E+00 0.  1.
          1    1    1    2  502    0 -0.19793723428E+02  0.55925210086E+01 -0.88667537384E+03  0.88691391147E+03  0.00000000000E+00 0.  1.
         -1    1    1    2    0  501  0.19793723428E+02 -0.55925210086E+01 -0.92308806398E+02  0.94572636195E+02  0.00000000000E+00 0. -1.
</event>
<event>
 4    1  0.6824761E+001  0.2514810E+02  0.7546771E-02  0.1467153E+00
          2   -1    0    0  502    0  0.00000000000E+00  0.00000000000E+00  0.35425319027E+03  0.35425319027E+03  0.00000000000E+00 0.  1.
         -2   -1    0    0    0  501 -0.00000000000E+00 -0.00000000000E+00 -0.49892593893E+01  0.49892593893E+01  0.00000000000E+00 0. -1.
          1    1    1    2  502    0 -0.22063280686E+01 -0.25051131156E+02  0.30690088184E+02  0.39677557491E+02  0.00000000000E+00 0. -1.
         -1    1    1    2    0  501  0.22063280686E+01  0.25051131156E+02  0.31857384270E+03  0.31956489217E+03  0.00000000000E+00 0.  1.
</event>
<event>
 4    1  0.6824761E+001  0.4003912E+02  0.7546771E-02  0.1348257E+00
          2   -1    0    0  502    0  0.00000000000E+00  0.00000000000E+00  0.33684887543E+03  0.33684887543E+03  0.00000000000E+00 0.  1.
         -2   -1    0    0    0  501 -0.00000000000E+00 -0.00000000000E+00 -0.55483766819E+01  0.55483766819E+01  0.00000000000E+00 0. -1.
          1    1    1    2  502    0 -0.50506831352E+01 -0.39719287593E+02  0.10108417288E+03  0.10872507169E+03  0.00000000000E+00 0. -1.
         -1    1    1    2    0  501  0.50506831352E+01  0.39719287593E+02  0.23021632587E+03  0.23367218042E+03  0.00000000000E+00 0.  1.
</event>
<event>
 4    1  0.6824761E+001  0.2052959E+02  0.7546771E-02  0.1526088E+00
          2   -1    0    0  502    0  0.00000000000E+00  0.00000000000E+00  0.12271593005E+02  0.12271593005E+02  0.00000000000E+00 0. -1.
         -2   -1    0    0    0  501 -0.00000000000E+00 -0.00000000000E+00 -0.36145805265E+02  0.36145805265E+02  0.00000000000E+00 0.  1.
          1    1    1    2  502    0 -0.61702876730E+01  0.19580391358E+02 -0.17341065730E+02  0.26873346207E+02  0.00000000000E+00 0.  1.
         -1    1    1    2    0  501  0.61702876730E+01 -0.19580391358E+02 -0.65331465301E+01  0.21544052063E+02  0.00000000000E+00 0. -1.
</event>
<event>
 4    1  0.6824761E+001  0.5800115E+02  0.7546771E-02  0.1266780E+00
          2   -1    0    0  502    0  0.00000000000E+00  0.00000000000E+00  0.11488798434E+03  0.11488798434E+03  0.00000000000E+00 0.  1.
         -2   -1    0    0    0  501 -0.00000000000E+00 -0.00000000000E+00 -0.32446676808E+02  0.32446676808E+02  0.00000000000E+00 0. -1.
          1    1    1    2  502    0  0.45696451989E+02 -0.35720682092E+02  0.18213403395E+02  0.60793592728E+02  0.00000000000E+00 0. -1.
         -1    1    1    2    0  501 -0.45696451989E+02  0.35720682092E+02  0.64227904138E+02  0.86541068421E+02  0.00000000000E+00 0.  1.
</event>
<event>
 4    1  0.6824761E+001  0.2060272E+02  0.7546771E-02  0.1525013E+00
          2   -1    0    0  502    0  0.00000000000E+00  0.00000000000E+00  0.23452041451E+03  0.23452041451E+03  0.00000000000E+00 0. -1.
         -2   -1    0    0    0  501 -0.00000000000E+00 -0.00000000000E+00 -0.19473601004E+01  0.19473601004E+01  0.00000000000E+00 0.  1.
          1    1    1    2  502    0  0.20103292496E+02  0.45088474821E+01  0.84880305425E+02  0.87344938742E+02  0.00000000000E+00 0.  1.
         -1    1    1    2    0  501 -0.20103292496E+02 -0.45088474821E+01  0.14769274898E+03  0.14912283586E+03  0.00000000000E+00 0. -1.
</event>
<event>
 4    1  0.6824761E+001  0.2063514E+02  0.7546771E-02  0.1524538E+00
          2   -1    0    0  502    0  0.00000000000E+00  0.00000000000E+00  0.83069918010E+03  0.83069918010E+03  0.00000000000E+00 0.  1.
         -2   -1    0    0    0  501 -0.00000000000E+00 -0.00000000000E+00 -0.51546810052E+00  0.51546810052E+00  0.00000000000E+00 0. -1.
          1    1    1    2  502    0 -0.18729903487E+02 -0.86602438136E+01  0.44614053186E+03  0.44661749101E+03  0.00000000000E+00 0.  1.
         -1    1    1    2    0  501  0.18729903487E+02  0.86602438136E+01  0.38404318014E+03  0.38459715719E+03  0.00000000000E+00 0. -1.
</event>
<event>
 4    1  0.6824761E+001  0.4766246E+02  0.7546771E-02  0.1308638E+00
          2   -1    0    0  502    0  0.00000000000E+00  0.00000000000E+00  0.12386084402E+04  0.12386084402E+04  0.00000000000E+00 0.  1.
         -2   -1    0    0    0  501 -0.00000000000E+00 -0.00000000000E+00 -0.20109016719E+01  0.20109016719E+01  0.00000000000E+00 0. -1.
          1    1    1    2  502    0  0.24296768853E+02  0.41004601224E+02  0.80223936090E+03  0.80365396936E+03  0.00000000000E+00 0.  1.
         -1    1    1    2    0  501 -0.24296768853E+02 -0.41004601224E+02  0.43435817766E+03  0.43696537254E+03  0.00000000000E+00 0. -1.
</event>
<event>
 4    1  0.6824761E+001  0.2329983E+02  0.7546771E-02  0.1488767E+00
          2   -1    0    0  502    0  0.00000000000E+00  0.00000000000E+00  0.10692469987E+04  0.10692469987E+04  0.00000000000E+00 0. -1.
         -2   -1    0    0    0  501 -0.00000000000E+00 -0.00000000000E+00 -0.53150571583E+00  0.53150571583E+00  0.00000000000E+00 0.  1.
          1    1    1    2  502    0  0.45446057636E+01  0.22852317620E+02  0.42121264069E+03  0.42185657579E+03  0.00000000000E+00 0. -1.
         -1    1    1    2    0  501 -0.45446057636E+01 -0.22852317620E+02  0.64750285227E+03  0.64792192860E+03  0.00000000000E+00 0.  1.
</event>
<event>
 4    1  0.6824761E+001  0.2355122E+02  0.7546771E-02  0.1485690E+00
          2   -1    0    0  502    0  0.00000000000E+00  0.00000000000E+00  0.20628150831E+03  0.20628150831E+03  0.00000000000E+00 0. -1.
         -2   -1    0    0    0  501 -0.00000000000E+00 -0.00000000000E+00 -0.52091436588E+01  0.52091436588E+01  0.00000000000E+00 0.  1.
          1    1    1    2  502    0  0.45623397523E+01  0.23105081652E+02  0.26982620520E+02  0.35815102293E+02  0.00000000000E+00 0.  1.
         -1    1    1    2    0  501 -0.45623397523E+01 -0.23105081652E+02  0.17408974413E+03  0.17567554968E+03  0.00000000000E+00 0. -1.
</event>
<event>
 4    1  0.6824761E+001  0.3073839E+02  0.7546771E-02  0.1413286E+00
          2   -1    0    0  502    0  0.00000000000E+00  0.00000000000E+00  0.18033523179E+03  0.18033523179E+03  0.00000000000E+00 0.  1.
         -2   -1    0    0    0  501 -0.00000000000E+00 -0.00000000000E+00 -0.15746270372E+02  0.15746270372E+02  0.00000000000E+00 0. -1.
          1    1    1    2  502    0  0.10271946692E+01 -0.30721223646E+02  0.16238008014E+03  0.16526384704E+03  0.00000000000E+00 0.  1.
         -1    1    1    2    0  501 -0.10271946692E+01  0.30721223646E+02  0.22088812841E+01  0.30817655130E+02  0.00000000000E+00 0. -1.
</event>
<event>
 4    1  0.6824761E+001  0.2349525E+02  0.7546771E-02  0.1486371E+00
          2   -1    0    0  502    0  0.00000000000E+00  0.00000000000E+00  0.17761815136E+03  0.17761815136E+03  0.00000000000E+00 0. -1.
         -2   -1    0    0    0  501 -0.00000000000E+00 -0.00000000000E+00 -0.31150195165E+01  0.31150195165E+01  0.00000000000E+00 0.  1.
          1    1    1    2  502    0 -0.11808330587E+02  0.20312316848E+02  0.91559036874E+02  0.94525573896E+02  0.00000000000E+00 0.  1.
         -1    1    1    2    0  501  0.11808330587E+02 -0.20312316848E+02  0.82944094972E+02  0.86207596984E+02  0.00000000000E+00 0. -1.
</event>
<event>
 4    1  0.6824761E+001  0.2932007E+02  0.7546771E-02  0.1425598E+00
          2   -1    0    0  502    0  0.00000000000E+00  0.00000000000E+00  0.99026991627E+02  0.99026991627E+02  0.00000000000E+00 0.  1.
         -2   -1    0    0    0  501 -0.00000000000E+00 -0.00000000000E+00 -0.14517342386E+02  0.14517342386E+02  0.00000000000E+00 0. -1.
          1    1    1    2  502    0 -0.25811701216E+02 -0.13907653473E+02  0.62585756853E+01  0.29980602302E+02  0.00000000000E+00 0. -1.
         -1    1    1    2    0  501  0.25811701216E+02  0.13907653473E+02  0.78251073555E+02  0.83563731710E+02  0.00000000000E+00 0.  1.
</event>
<event>
 4    1  0.6824761E+001  0.2017294E+02  0.7546771E-02  0.1531408E+00
          2   -1    0    0  502    0  0.00000000000E+00  0.00000000000E+00  0.11295076980E+03  0.11295076980E+03  0.00000000000E+00 0.  1.
         -2   -1    0    0    0  501 -0.00000000000E+00 -0.00000000000E+00 -0.46359339343E+01  0.46359339343E+01  0.00000000000E+00 0. -1.
          1    1    1    2  502    0  0.19155192850E+02  0.63266272075E+01  0.81911184205E+02  0.84358696782E+02  0.00000000000E+00 0.  1.
         -1    1    1    2    0  501 -0.19155192850E+02 -0.63266272075E+01  0.26403651657E+02  0.33228006949E+02  0.00000000000E+00 0. -1.
</event>
<event>
 4    1  0.6824761E+001  0.2282271E+02  0.7546771E-02  0.1494736E+00
          2   -1    0    0  502    0  0.00000000000E+00  0.00000000000E+00  0.36069293730E+02  0.36069293730E+02  0.00000000000E+00 0.  1.
         -2   -1    0    0    0  501 -0.00000000000E+00 -0.00000000000E+00 -0.14500950305E+02  0.14500950305E+02  0.00000000000E+00 0. -1.
          1    1    1    2  502    0  0.59496779480E+00 -0.22814951137E+02  0.91581300556E+01  0.24591610931E+02  0.00000000000E+00 0. -1.
         -1    1    1    2    0  501 -0.59496779480E+00  0.22814951137E+02  0.12410213369E+02  0.25978633104E+02  0.00000000000E+00 0.  1.
</event>
<event>
 4    1  0.6824761E+001  0.3849045E+02  0.7546771E-02  0.1357566E+00
          2   -1    0    0  502    0  0.00000000000E+00  0.00000000000E+00  0.21865348236E+01  0.21865348236E+01  0.00000000000E+00 0.  1.
         -2   -1    0    0    0  501 -0.00000000000E+00 -0.00000000000E+00 -0.68079877321E+03  0.68079877321E+03  0.00000000000E+00 0. -1.
          1    1    1    2  502    0  0.36447422396E+02  0.12373361904E+02 -0.36284975990E+03  0.36488554774E+03  0.00000000000E+00 0. -1.
         -1    1    1    2    0  501 -0.36447422396E+02 -0.12373361904E+02 -0.31576247848E+03  0.31809976030E+03  0.00000000000E+00 0.  1.
</event>
<event>
 4    1  0.6824761E+001  0.2474527E+02  0.7546771E-02  0.1471673E+00
          2   -1    0    0  502    0  0.00000000000E+00  0.00000000000E+00  0.88492960460E+01  0.88492960460E+01  0.00000000000E+00 0.  1.
         -2   -1    0    0    0  501 -0.00000000000E+00 -0.00000000000E+00 -0.70355717307E+02  0.70355717307E+02  0.00000000000E+00 0. -1.
          1    1    1    2  502    0  0.12550482017E+02 -0.21326363671E+02 -0.35839578222E+02  0.43552310540E+02  0.00000000000E+00 0. -1.
         -1    1    1    2    0  501 -0.12550482017E+02  0.21326363671E+02 -0.25666843039E+02  0.35652702813E+02  0.00000000000E+00 0.  1.
</event>
<event>
 4    1  0.6824761E+001  0.7595799E+02  0.7546771E-02  0.1213555E+00
          2   -1    0    0  502    0  0.00000000000E+00  0.00000000000E+00  0.38196688867E+02  0.38196688867E+02  0.00000000000E+00 0. -1.
         -2   -1    0    0    0  501 -0.00000000000E+00 -0.00000000000E+00 -0.15619325440E+03  0.15619325440E+03  0.00000000000E+00 0.  1.
          1    1    1    2  502    0  0.73767248405E+02 -0.18111022760E+02 -0.76635285339E+02  0.10790080186E+03  0.00000000000E+00 0. -1.
         -1    1    1    2    0  501 -0.73767248405E+02  0.18111022760E+02 -0.41361280196E+02  0.86489141412E+02  0.00000000000E+00 0.  1.
</event>
<event>
 4    1  0.6824761E+001  0.3335618E+02  0.7546771E-02  0.1392503E+00
          2   -1    0    0  502    0  0.00000000000E+00  0.00000000000E+00  0.19165999404E+01  0.19165999404E+01  0.00000000000E+00 0. -1.
         -2   -1    0    0    0  501 -0.00000000000E+00 -0.00000000000E+00 -0.70399348957E+03  0.70399348957E+03  0.00000000000E+00 0.  1.
          1    1    1    2  502    0  0.29136931700E+02  0.16238031579E+02 -0.49885153100E+03  0.49996548325E+03  0.00000000000E+00 0.  1.
         -1    1    1    2    0  501 -0.29136931700E+02 -0.16238031579E+02 -0.20322535863E+03  0.20594460626E+03  0.00000000000E+00 0. -1.
</event>
<event>
 4    1  0.6824761E+001  0.2216569E+02  0.7546771E-02  0.1503249E+00
          2   -1    0    0  502    0  0.00000000000E+00  0.00000000000E+00  0.21052378552E+04  0.21052378552E+04  0.00000000000E+00 0. -1.
         -2   -1    0    0    0  501 -0.00000000000E+00 -0.00000000000E+00 -0.24173879468E+00  0.24173879468E+00  0.00000000000E+00 0.  1.
          1    1    1    2  502    0  0.85042255490E+01  0.20469389431E+02  0.85672521390E+03  0.85701190767E+03  0.00000000000E+00 0.  1.
         -1    1    1    2    0  501 -0.85042255490E+01 -0.20469389431E+02  0.12482709025E+04  0.12484676863E+04  0.00000000000E+00 0. -1.
</event>
<event>
 4    1  0.6824761E+001  0.2436883E+02  0.7546771E-02  0.1475990E+00
          2   -1    0    0  502    0  0.00000000000E+00  0.00000000000E+00  0.92111495096E+03  0.92111495096E+03  0.00000000000E+00 0.  1.
         -2   -1    0    0    0  501 -0.00000000000E+00 -0.00000000000E+00 -0.74230834141E+00  0.74230834141E+00  0.00000000000E+00 0. -1.
          1    1    1    2  502    0 -0.23575103429E+02 -0.61688082803E+01  0.62733097722E+03  0.62780410534E+03  0.00000000000E+00 0.  1.
         -1    1    1    2    0  501  0.23575103429E+02  0.61688082803E+01  0.29304166540E+03  0.29405315396E+03  0.00000000000E+00 0. -1.
</event>
<event>
 4    1  0.6824761E+001  0.8448952E+02  0.7546771E-02  0.1193792E+00
          2   -1    0    0  502    0  0.00000000000E+00  0.00000000000E+00  0.97065987570E+02  0.97065987570E+02  0.00000000000E+00 0. -1.
         -2   -1    0    0    0  501 -0.00000000000E+00 -0.00000000000E+00 -0.12789931712E+03  0.12789931712E+03  0.00000000000E+00 0.  1.
          1    1    1    2  502    0 -0.83944981330E+02 -0.95770050763E+01  0.57912763641E+02  0.10243225620E+03  0.00000000000E+00 0. -1.
         -1    1    1    2    0  501  0.83944981330E+02  0.95770050763E+01 -0.88746093192E+02  0.12253304850E+03  0.00000000000E+00 0.  1.
</event>
<event>
 4    1  0.6824761E+001  0.3561578E+02  0.7546771E-02  0.1376285E+00
          2   -1    0    0  502    0  0.00000000000E+00  0.00000000000E+00  0.34070149584E+04  0.34070149584E+04  0.00000000000E+00 0.  1.
         -2   -1    0    0    0  501 -0.00000000000E+00 -0.00000000000E+00 -0.37249165149E+00  0.37249165149E+00  0.00000000000E+00 0. -1.
          1    1    1    2  502    0 -0.86362190107E+01  0.34552855247E+02  0.16662601062E+04  0.16666407008E+04  0.00000000000E+00 0.  1.
         -1    1    1    2    0  501  0.86362190107E+01 -0.34552855247E+02  0.17403823606E+04  0.17407467493E+04  0.00000000000E+00 0. -1.
</event>
<event>
 4    1  0.6824761E+001  0.2099007E+02  0.7546771E-02  0.1519407E+00
          2   -1    0    0  502    0  0.00000000000E+00  0.00000000000E+00  0.26437409831E+03  0.26437409831E+03  0.00000000000E+00 0.  1.
         -2   -1    0    0    0  501 -0.00000000000E+00 -0.00000000000E+00 -0.17634188427E+01  0.17634188427E+01  0.00000000000E+00 0. -1.
          1    1    1    2  502    0  0.14918363832E+02  0.14765682751E+02  0.10011123368E+03  0.10228803486E+03  0.00000000000E+00 0. -1.
         -1    1    1    2    0  501 -0.14918363832E+02 -0.14765682751E+02  0.16249944579E+03  0.16384948229E+03  0.00000000000E+00 0.  1.
</event>
<event>
 4    1  0.6824761E+001  0.3468580E+02  0.7546771E-02  0.1382786E+00
          2   -1    0    0  502    0  0.00000000000E+00  0.00000000000E+00  0.12634245453E+04  0.12634245453E+04  0.00000000000E+00 0. -1.
         -2   -1    0    0    0  501 -0.00000000000E+00 -0.00000000000E+00 -0.11044574716E+01  0.11044574716E+01  0.00000000000E+00 0.  1.
          1    1    1    2  502    0 -0.26627112018E+02  0.22228397432E+02  0.86587049891E+03  0.86656495753E+03  0.00000000000E+00 0. -1.
         -1    1    1    2    0  501  0.26627112018E+02 -0.22228397432E+02  0.39644958896E+03  0.39796404527E+03  0.00000000000E+00 0.  1.
</event>
<event>
 4    1  0.6824761E+001  0.4377852E+02  0.7546771E-02  0.1327661E+00
          2   -1    0    0  502    0  0.00000000000E+00  0.00000000000E+00  0.11273984346E+03  0.11273984346E+03  0.00000000000E+00 0. -1.
         -2   -1    0    0    0  501 -0.00000000000E+00 -0.00000000000E+00 -0.26952104966E+02  0.26952104966E+02  0.00000000000E+00 0.  1.
          1    1    1    2  502    0 -0.15991573749E+02  0.40753267090E+02  0.45087475431E+00  0.43780846241E+02  0.00000000000E+00 0.  1.
         -1    1    1    2    0  501  0.15991573749E+02 -0.40753267090E+02  0.85336863744E+02  0.95911102189E+02  0.00000000000E+00 0. -1.
</event>
<event>
 4    1  0.6824761E+001  0.2346726E+02  0.7546771E-02  0.1486713E+00
          2   -1    0    0  502    0  0.00000000000E+00  0.00000000000E+00  0.11282261496E+04  0.11282261496E+04  0.00000000000E+00 0. -1.
         -2   -1    0    0    0  501 -0.00000000000E+00 -0.00000000000E+00 -0.49878543200E+00  0.49878543200E+00  0.00000000000E+00 0.  1.
          1    1    1    2  502    0 -0.70273214912E+01 -0.22390374525E+02  0.48134587348E+03  0.48191758843E+03  0.00000000000E+00 0.  1.
         -1    1    1    2    0  501  0.70273214912E+01  0.22390374525E+02  0.64638149072E+03  0.64680734664E+03  0.00000000000E+00 0. -1.
</event>
<event>
 4    1  0.6824761E+001  0.2236985E+02  0.7546771E-02  0.1500566E+00
          2   -1    0    0  502    0  0.00000000000E+00  0.00000000000E+00  0.79079300835E+03  0.79079300835E+03  0.00000000000E+00 0.  1.
         -2   -1    0    0    0  501 -0.00000000000E+00 -0.00000000000E+00 -0.65418939601E+00  0.65418939601E+00  0.00000000000E+00 0. -1.
          1    1    1    2  502    0  0.16100274358E+02 -0.15530329740E+02  0.32350637538E+03  0.32427886901E+03  0.00000000000E+00 0. -1.
         -1    1    1    2    0  501 -0.16100274358E+02  0.15530329740E+02  0.46663244358E+03  0.46716832874E+03  0.00000000000E+00 0.  1.
</event>
<event>
 4    1  0.6824761E+001  0.2906903E+02  0.7546771E-02  0.1427863E+00
          2   -1    0    0  502    0  0.00000000000E+00  0.00000000000E+00  0.18740302532E+04  0.18740302532E+04  0.00000000000E+00 0. -1.
         -2   -1    0    0    0  501 -0.00000000000E+00 -0.00000000000E+00 -0.45122444825E+00  0.45122444825E+00  0.00000000000E+00 0.  1.
          1    1    1    2  502    0  0.28513230382E+02  0.56572050166E+01  0.96175494897E+03  0.96219415408E+03  0.00000000000E+00 0. -1.
         -1    1    1    2    0  501 -0.28513230382E+02 -0.56572050166E+01  0.91182407981E+03  0.91228732360E+03  0.00000000000E+00 0.  1.
</event>
<event>
 4    1  0.6824761E+001  0.3087671E+02  0.7546771E-02  0.1412128E+00
          2   -1    0    0  502    0  0.00000000000E+00  0.00000000000E+00  0.15135618478E+03  0.15135618478E+03  0.00000000000E+00 0. -1.
         -2   -1    0    0    0  501 -0.00000000000E+00 -0.00000000000E+00 -0.76628715275E+01  0.76628715275E+01  0.00000000000E+00 0.  1.
          1    1    1    2  502    0  0.40227727196E+01  0.30613530706E+02  0.10539205110E+03  0.10982192586E+03  0.00000000000E+00 0. -1.
         -1    1    1    2    0  501 -0.40227727196E+01 -0.30613530706E+02  0.38301262152E+02  0.49197130456E+02  0.00000000000E+00 0.  1.
</event>
<event>
 4    1  0.6824761E+001  0.2063936E+02  0.7546771E-02  0.1524477E+00
          2   -1    0    0  502    0  0.00000000000E+00  0.00000000000E+00  0.42442641940E+02  0.42442641940E+02  0.00000000000E+00 0.  1.
         -2   -1    0    0    0  501 -0.00000000000E+00 -0.00000000000E+00 -0.12171257671E+02  0.12171257671E+02  0.00000000000E+00 0. -1.
          1    1    1    2  502    0 -0.10116157376E+00  0.20639115223E+02  0.37000326205E+01  0.20968394126E+02  0.00000000000E+00 0. -1.
         -1    1    1    2    0  501  0.10116157376E+00 -0.20639115223E+02  0.26571351649E+02  0.33645505485E+02  0.00000000000E+00 0.  1.
</event>
<event>
 4    1  0.6824761E+001  0.2190486E+02  0.7546771E-02  0.1506728E+00
          2   -1    0    0  502    0  0.00000000000E+00  0.00000000000E+00  0.13755548991E+02  0.13755548991E+02  0.00000000000E+00 0.  1.
         -2   -1    0    0    0  501 -0.00000000000E+00 -0.00000000000E+00 -0.35361206092E+02  0.35361206092E+02  0.00000000000E+00 0. -1.
          1    1    1    2  502    0  0.17998436713E+02  0.12485152994E+02 -0.79443102260E+01  0.23300962091E+02  0.00000000000E+00 0. -1.
         -1    1    1    2    0  501 -0.17998436713E+02 -0.12485152994E+02 -0.13661346875E+02  0.25815792992E+02  0.00000000000E+00 0.  1.
</event>
<event>
 4    1  0.6824761E+001  0.2305132E+02  0.7546771E-02  0.1491855E+00
          2   -1    0    0  502    0  0.00000000000E+00  0.00000000000E+00  0.18637163842E+04  0.18637163842E+04  0.00000000000E+00 0.  1.
         -2   -1    0    0    0  501 -0.00000000000E+00 -0.00000000000E+00 -0.29705814002E+00  0.29705814002E+00  0.00000000000E+00 0. -1.
          1    1    1    2  502    0  0.59148840437E+01  0.22279533837E+02  0.74478988156E+03  0.74514651656E+03  0.00000000000E+00 0. -1.
         -1    1    1    2    0  501 -0.59148840437E+01 -0.22279533837E+02  0.11186294446E+04  0.11188669258E+04  0.00000000000E+00 0.  1.
</event>
<event>
 4    1  0.6824761E+001  0.3778249E+02  0.7546771E-02  0.1361994E+00
          2   -1    0    0  502    0  0.00000000000E+00  0.00000000000E+00  0.21024536674E+02  0.21024536674E+02  0.00000000000E+00 0.  1.
         -2   -1    0    0    0  501 -0.00000000000E+00 -0.00000000000E+00 -0.68731841162E+02  0.68731841162E+02  0.00000000000E+00 0. -1.
          1    1    1    2  502    0  0.37695370638E+02 -0.25643309663E+01 -0.18909548943E+02  0.42250299432E+02  0.00000000000E+00 0.  1.
         -1    1    1    2    0  501 -0.37695370638E+02  0.25643309663E+01 -0.28797755546E+02  0.47506078404E+02  0.00000000000E+00 0. -1.
</event>
<event>
 4    1  0.6824761E+001  0.3076585E+02  0.7546771E-02  0.1413056E+00
          2   -1    0    0  502    0  0.00000000000E+00  0.00000000000E+00  0.14288714451E+01  0.14288714451E+01  0.00000000000E+00 0. -1.
         -2   -1    0    0    0  501 -0.00000000000E+00 -0.00000000000E+00 -0.66370289203E+03  0.66370289203E+03  0.00000000000E+00 0.  1.
          1    1    1    2  502    0  0.26727387911E+02 -0.15237596217E+02 -0.34565994568E+03  0.34702641924E+03  0.00000000000E+00 0.  1.
         -1    1    1    2    0  501 -0.26727387911E+02  0.15237596217E+02 -0.31661407490E+03  0.31810534423E+03  0.00000000000E+00 0. -1.
</event>
<event>
 4    1  0.6824761E+001  0.3109269E+02  0.7546771E-02  0.1410333E+00
          2   -1    0    0  502    0  0.00000000000E+00  0.00000000000E+00  0.41620444428E+03  0.41620444428E+03  0.00000000000E+00 0. -1.
         -2   -1    0    0    0  501 -0.00000000000E+00 -0.00000000000E+00 -0.27055088285E+01  0.27055088285E+01  0.00000000000E+00 0.  1.
          1    1    1    2  502    0 -0.15726878204E+02  0.26822014662E+02  0.28552776700E+03  0.28721570447E+03  0.00000000000E+00 0. -1.
         -1    1    1    2    0  501  0.15726878204E+02 -0.26822014662E+02  0.12797116845E+03  0.13169424863E+03  0.00000000000E+00 0.  1.
</event>
<event>
 4    1  0.6824761E+001  0.2059205E+02  0.7546771E-02  0.1525170E+00
          2   -1    0    0  502    0  0.00000000000E+00  0.00000000000E+00  0.13102202013E+04  0.13102202013E+04  0.00000000000E+00 0. -1.
         -2   -1    0    0    0  501 -0.00000000000E+00 -0.00000000000E+00 -0.52214814322E+00  0.52214814322E+00  0.00000000000E+00 0.  1.
          1    1    1    2  502    0 -0.17880069690E+02 -0.10214486154E+02  0.10589459215E+04  0.10591461171E+04  0.00000000000E+00 0. -1.
         -1    1    1    2    0  501  0.17880069690E+02  0.10214486154E+02  0.25075213163E+03  0.25159623236E+03  0.00000000000E+00 0.  1.
</event>
<event>
 4    1  0.6824761E+001  0.2649577E+02  0.7546771E-02  0.1452740E+00
          2   -1    0    0  502    0  0.00000000000E+00  0.00000000000E+00  0.11158955780E+02  0.11158955780E+02  0.00000000000E+00 0.  1.
         -2   -1    0    0    0  501 -0.00000000000E+00 -0.00000000000E+00 -0.65513348318E+02  0.65513348318E+02  0.00000000000E+00 0. -1.
          1    1    1    2  502    0 -0.15199190222E+02 -0.21702773886E+02 -0.34817156639E+02  0.43752259075E+02  0.00000000000E+00 0. -1.
         -1    1    1    2    0  501  0.15199190222E+02  0.21702773886E+02 -0.19537235899E+02  0.32920045023E+02  0.00000000000E+00 0.  1.
</event>
<event>
 4    1  0.6824761E+001  0.3378855E+02  0.7546771E-02  0.1389286E+00
          2   -1    0    0  502    0  0.00000000000E+00  0.00000000000E+00  0.17770665564E+03  0.17770665564E+03  0.00000000000E+00 0. -1.
         -2   -1    0    0    0  501 -0.00000000000E+00 -0.00000000000E+00 -0.67741535413E+01  0.67741535413E+01  0.00000000000E+00 0.  1.
          1    1    1    2  502    0  0.20701725372E+02  0.26704020681E+02  0.10642418576E+03  0.11165918443E+03  0.00000000000E+00 0. -1.
         -1    1    1    2    0  501 -0.20701725372E+02 -0.26704020681E+02  0.64508316342E+02  0.72821624749E+02  0.00000000000E+00 0.  1.
</event>
<event>
 4    1  0.6824761E+001  0.8319867E+02  0.7546771E-02  0.1196610E+00
          2   -1    0    0  502    0  0.00000000000E+00  0.00000000000E+00  0.23099444478E+03  0.23099444478E+03  0.00000000000E+00 0.  1.
         -2   -1    0    0    0  501 -0.00000000000E+00 -0.00000000000E+00 -0.61062282534E+02  0.61062282534E+02  0.00000000000E+00 0. -1.
          1    1    1    2  502    0 -0.75284972341E+02 -0.35414558342E+02 -0.19242570206E+02  0.85394932585E+02  0.00000000000E+00 0. -1.
         -1    1    1    2    0  501  0.75284972341E+02  0.35414558342E+02  0.18917473246E+03  0.20666179473E+03  0.00000000000E+00 0.  1.
</event>
<event>
 4    1  0.6824761E+001  0.1080648E+03  0.7546771E-02  0.1150522E+00
          2   -1    0    0  502    0  0.00000000000E+00  0.00000000000E+00  0.39539789853E+02  0.39539789853E+02  0.00000000000E+00 0.  1.
         -2   -1    0    0    0  501 -0.00000000000E+00 -0.00000000000E+00 -0.30113048098E+03  0.30113048098E+03  0.00000000000E+00 0. -1.
          1    1    1    2  502    0  0.17488301900E+02 -0.10664036423E+03 -0.10719195657E+03  0.15221078655E+03  0.00000000000E+00 0. -1.
         -1    1    1    2    0  501 -0.17488301900E+02  0.10664036423E+03 -0.15439873455E+03  0.18845948429E+03  0.00000000000E+00 0.  1.
</event>
<event>
 4    1  0.6824761E+001  0.3510617E+02  0.7546771E-02  0.1379818E+00
          2   -1    0    0  502    0  0.00000000000E+00  0.00000000000E+00  0.65088750263E+02  0.65088750263E+02  0.00000000000E+00 0. -1.
         -2   -1    0    0    0  501 -0.00000000000E+00 -0.00000000000E+00 -0.19376942300E+02  0.19376942300E+02  0.00000000000E+00 0.  1.
          1    1    1    2  502    0  0.29029786472E+02 -0.19741183379E+02  0.29235395736E+02  0.45685349814E+02  0.00000000000E+00 0. -1.
         -1    1    1    2    0  501 -0.29029786472E+02  0.19741183379E+02  0.16476412228E+02  0.38780342749E+02  0.00000000000E+00 0.  1.
</event>
<event>
 4    1  0.6824761E+001  0.3852106E+02  0.7546771E-02  0.1357377E+00
          2   -1    0    0  502    0  0.00000000000E+00  0.00000000000E+00  0.26882141971E+02  0.26882141971E+02  0.00000000000E+00 0.  1.
         -2   -1    0    0    0  501 -0.00000000000E+00 -0.00000000000E+00 -0.95157445399E+02  0.95157445399E+02  0.00000000000E+00 0. -1.
          1    1    1    2  502    0 -0.66126557405E+01 -0.37949239775E+02 -0.73679111384E+02  0.83141346331E+02  0.00000000000E+00 0. -1.
         -1    1    1    2    0  501  0.66126557405E+01  0.37949239775E+02  0.54038079553E+01  0.38898241038E+02  0.00000000000E+00 0.  1.
</event>
<event>
 4    1  0.6824761E+001  0.2623928E+02  0.7546771E-02  0.1455403E+00
          2   -1    0    0  502    0  0.00000000000E+00  0.00000000000E+00  0.29674406705E+02  0.29674406705E+02  0.00000000000E+00 0.  1.
         -2   -1    0    0    0  501 -0.00000000000E+00 -0.00000000000E+00 -0.66759152971E+02  0.66759152971E+02  0.00000000000E+00 0. -1.
          1    1    1    2  502    0 -0.18191379940E+01  0.26176147928E+02 -0.57489325310E+02  0.63194323384E+02  0.00000000000E+00 0. -1.
         -1    1    1    2    0  501  0.18191379940E+01 -0.26176147928E+02  0.20404579044E+02  0.33239236293E+02  0.00000000000E+00 0.  1.
</event>
<event>
 4    1  0.6824761E+001  0.2209379E+02  0.7546771E-02  0.1504202E+00
          2   -1    0    0  502    0  0.00000000000E+00  0.00000000000E+00  0.12225726044E+02  0.12225726044E+02  0.00000000000E+00 0. -1.
         -2   -1    0    0    0  501 -0.00000000000E+00 -0.00000000000E+00 -0.74459555550E+02  0.74459555550E+02  0.00000000000E+00 0.  1.
          1    1    1    2  502    0  0.97721105241E+01 -0.19815180963E+02 -0.60633766543E+02  0.64533628333E+02  0.00000000000E+00 0.  1.
         -1    1    1    2    0  501 -0.97721105241E+01  0.19815180963E+02 -0.16000629631E+01  0.22151653261E+02  0.00000000000E+00 0. -1.
</event>
<event>
 4    1  0.6824761E+001  0.4224015E+02  0.7546771E-02  0.1335836E+00
          2   -1    0    0  502    0  0.00000000000E+00  0.00000000000E+00  0.19273272505E+04  0.19273272505E+04  0.00000000000E+00 0. -1.
         -2   -1    0    0    0  501 -0.00000000000E+00 -0.00000000000E+00 -0.15562286603E+01  0.15562286603E+01  0.00000000000E+00 0.  1.
          1    1    1    2  502    0  0.40223658658E+02 -0.12895242192E+02  0.34901993984E+03  0.35156670546E+03  0.00000000000E+00 0.  1.
         -1    1    1    2    0  501 -0.40223658658E+02  0.12895242192E+02  0.15767510820E+04  0.15773167737E+04  0.00000000000E+00 0. -1.
</event>
<event>
 4    1  0.6824761E+001  0.2127536E+02  0.7546771E-02  0.1515370E+00
          2   -1    0    0  502    0  0.00000000000E+00  0.00000000000E+00  0.99874140301E+01  0.99874140301E+01  0.00000000000E+00 0. -1.
         -2   -1    0    0    0  501 -0.00000000000E+00 -0.00000000000E+00 -0.45375291259E+02  0.45375291259E+02  0.00000000000E+00 0.  1.
          1    1    1    2  502    0 -0.68135414893E+01 -0.20154812260E+02 -0.16737502425E+02  0.27069998010E+02  0.00000000000E+00 0.  1.
         -1    1    1    2    0  501  0.68135414893E+01  0.20154812260E+02 -0.18650374804E+02  0.28292707279E+02  0.00000000000E+00 0. -1.
</event>
<event>
 4    1  0.6824761E+001  0.3155906E+02  0.7546771E-02  0.1406515E+00
          2   -1    0    0  502    0  0.00000000000E+00  0.00000000000E+00  0.25557743961E+01  0.25557743961E+01  0.00000000000E+00 0.  1.
         -2   -1    0    0    0  501 -0.00000000000E+00 -0.00000000000E+00 -0.40547881333E+03  0.40547881333E+03  0.00000000000E+00 0. -1.
          1    1    1    2  502    0 -0.29399381718E+02 -0.11473902659E+02 -0.16121017986E+03  0.16427019260E+03  0.00000000000E+00 0.  1.
         -1    1    1    2    0  501  0.29399381718E+02  0.11473902659E+02 -0.24171285907E+03  0.24376439512E+03  0.00000000000E+00 0. -1.
</event>
<event>
 4    1  0.6824761E+001  0.3135996E+02  0.7546771E-02  0.1408135E+00
          2   -1    0    0  502    0  0.00000000000E+00  0.00000000000E+00  0.15351503959E+01  0.15351503959E+01  0.00000000000E+00 0.  1.
         -2   -1    0    0    0  501 -0.00000000000E+00 -0.00000000000E+00 -0.64522646181E+03  0.64522646181E+03  0.00000000000E+00 0. -1.
          1    1    1    2  502    0 -0.17011396574E+02 -0.26345008129E+02 -0.34917139875E+03  0.35057682863E+03  0.00000000000E+00 0.  1.
         -1    1    1    2    0  501  0.17011396574E+02  0.26345008129E+02 -0.29451991267E+03  0.29618478358E+03  0.00000000000E+00 0. -1.
</event>
<event>
 4    1  0.6824761E+001  0.2386845E+02  0.7546771E-02  0.1481872E+00
          2   -1    0    0  502    0  0.00000000000E+00  0.00000000000E+00  0.15822829406E+02  0.15822829406E+02  0.00000000000E+00 0. -1.
         -2   -1    0    0    0  501 -0.00000000000E+00 -0.00000000000E+00 -0.18631972809E+03  0.18631972809E+03  0.00000000000E+00 0.  1.
          1    1    1    2  502    0 -0.21903333582E+02 -0.94840273266E+01 -0.17603028096E+03  0.17764110620E+03  0.00000000000E+00 0.  1.
         -1    1    1    2    0  501  0.21903333582E+02  0.94840273266E+01  0.55333822744E+01  0.24501451299E+02  0.00000000000E+00 0. -1.
</event>
<event>
 4    1  0.6824761E+001  0.3287435E+02  0.7546771E-02  0.1396156E+00
          2   -1    0    0  502    0  0.00000000000E+00  0.00000000000E+00  0.14551348843E+04  0.14551348843E+04  0.00000000000E+00 0.  1.
         -2   -1    0    0    0  501 -0.00000000000E+00 -0.00000000000E+00 -0.79071085766E+00  0.79071085766E+00  0.00000000000E+00 0. -1.
          1    1    1    2  502    0 -0.20986882396E+02  0.25303633080E+02  0.90655764147E+03  0.90715350431E+03  0.00000000000E+00 0. -1.
         -1    1    1    2    0  501  0.20986882396E+02 -0.25303633080E+02  0.54778653196E+03  0.54877209084E+03  0.00000000000E+00 0.  1.
</event>
<event>
 4    1  0.6824761E+001  0.2047321E+02  0.7546771E-02  0.1526921E+00
          2   -1    0    0  502    0  0.00000000000E+00  0.00000000000E+00  0.57450185655E+03  0.57450185655E+03  0.00000000000E+00 0.  1.
         -2   -1    0    0    0  501 -0.00000000000E+00 -0.00000000000E+00 -0.75769281575E+00  0.75769281575E+00  0.00000000000E+00 0. -1.
          1    1    1    2  502    0  0.90412246353E+01 -0.18368685144E+02  0.34226339124E+03  0.34287516872E+03  0.00000000000E+00 0.  1.
         -1    1    1    2    0  501 -0.90412246353E+01  0.18368685144E+02  0.23148077249E+03  0.23238438065E+03  0.00000000000E+00 0. -1.
</event>
<event>
 4    1  0.6824761E+001  0.2019195E+02  0.7546771E-02  0.1531121E+00
          2   -1    0    0  502    0  0.00000000000E+00  0.00000000000E+00  0.35704965675E+03  0.35704965675E+03  0.00000000000E+00 0.  1.
         -2   -1    0    0    0  501 -0.00000000000E+00 -0.00000000000E+00 -0.11766746100E+01  0.11766746100E+01  0.00000000000E+00 0. -1.
          1    1    1    2  502    0  0.18283643215E+02  0.85687373148E+01  0.20872813014E+03  0.20970252068E+03  0.00000000000E+00 0.  1.
         -1    1    1    2    0  501 -0.18283643215E+02 -0.85687373148E+01  0.14714485200E+03  0.14852381068E+03  0.00000000000E+00 0. -1.
</event>
<event>
 4    1  0.6824761E+001  0.2597594E+02  0.7546771E-02  0.1458175E+00
          2   -1    0    0  502    0  0.00000000000E+00  0.00000000000E+00  0.49183797658E+03  0.49183797658E+03  0.00000000000E+00 0.  1.
         -2   -1    0    0    0  501 -0.00000000000E+00 -0.00000000000E+00 -0.15831620443E+01  0.15831620443E+01  0.00000000000E+00 0. -1.
          1    1    1    2  502    0 -0.25970487804E+02  0.53209239271E+00  0.33525181332E+03  0.33625663962E+03  0.00000000000E+00 0. -1.
         -1    1    1    2    0  501  0.25970487804E+02 -0.53209239271E+00  0.15500300122E+03  0.15716449900E+03  0.00000000000E+00 0.  1.
</event>
<event>
 4    1  0.6824761E+001  0.2766329E+02  0.7546771E-02  0.1441057E+00
          2   -1    0    0  502    0  0.00000000000E+00  0.00000000000E+00  0.45611241632E+02  0.45611241632E+02  0.00000000000E+00 0. -1.
         -2   -1    0    0    0  501 -0.00000000000E+00 -0.00000000000E+00 -0.25882731935E+02  0.25882731935E+02  0.00000000000E+00 0.  1.
          1    1    1    2  502    0  0.27654077145E+02  0.71375025333E+00  0.31066025988E+02  0.41597540706E+02  0.00000000000E+00 0. -1.
         -1    1    1    2    0  501 -0.27654077145E+02 -0.71375025333E+00 -0.11337516290E+02  0.29896432860E+02  0.00000000000E+00 0.  1.
</event>
<event>
 4    1  0.6824761E+001  0.3294500E+02  0.7546771E-02  0.1395616E+00
          2   -1    0    0  502    0  0.00000000000E+00  0.00000000000E+00  0.28513345364E+03  0.28513345364E+03  0.00000000000E+00 0. -1.
         -2   -1    0    0    0  501 -0.00000000000E+00 -0.00000000000E+00 -0.38126378033E+01  0.38126378033E+01  0.00000000000E+00 0.  1.
          1    1    1    2  502    0  0.35271222544E+01  0.32755648920E+02  0.14643613904E+03  0.15009635553E+03  0.00000000000E+00 0.  1.
         -1    1    1    2    0  501 -0.35271222544E+01 -0.32755648920E+02  0.13488467680E+03  0.13884973592E+03  0.00000000000E+00 0. -1.
</event>
<event>
 4    1  0.6824761E+001  0.2045087E+02  0.7546771E-02  0.1527251E+00
          2   -1    0    0  502    0  0.00000000000E+00  0.00000000000E+00  0.16761372312E+01  0.16761372312E+01  0.00000000000E+00 0. -1.
         -2   -1    0    0    0  501 -0.00000000000E+00 -0.00000000000E+00 -0.29077782217E+03  0.29077782217E+03  0.00000000000E+00 0.  1.
          1    1    1    2  502    0 -0.10179625945E+02 -0.17737338692E+02 -0.19962834637E+03  0.20067315376E+03  0.00000000000E+00 0.  1.
         -1    1    1    2    0  501  0.10179625945E+02  0.17737338692E+02 -0.89473338568E+02  0.91780805634E+02  0.00000000000E+00 0. -1.
</event>
<event>
 4    1  0.6824761E+001  0.2092109E+02  0.7546771E-02  0.1520394E+00
          2   -1    0    0  502    0  0.00000000000E+00  0.00000000000E+00  0.22554715057E+01  0.22554715057E+01  0.00000000000E+00 0.  1.
         -2   -1    0    0    0  501 -0.00000000000E+00 -0.00000000000E+00 -0.23179243872E+03  0.23179243872E+03  0.00000000000E+00 0. -1.
          1    1    1    2  502    0 -0.95956528274E+01  0.18590738838E+02 -0.67551905479E+02  0.70717409862E+02  0.00000000000E+00 0.  1.
         -1    1    1    2    0  501  0.95956528274E+01 -0.18590738838E+02 -0.16198506174E+03  0.16333050037E+03  0.00000000000E+00 0. -1.
</event>
<event>
 4    1  0.6824761E+001  0.3106193E+02  0.7546771E-02  0.1410587E+00
          2   -1    0    0  502    0  0.00000000000E+00  0.00000000000E+00  0.21358271743E+03  0.21358271743E+03  0.00000000000E+00 0. -1.
         -2   -1    0    0    0  501 -0.00000000000E+00 -0.00000000000E+00 -0.93280865371E+01  0.93280865371E+01  0.00000000000E+00 0.  1.
          1    1    1    2  502    0 -0.29349151625E+02 -0.10172069918E+02  0.18216735283E+03  0.18479661291E+03  0.00000000000E+00 0. -1.
         -1    1    1    2    0  501  0.29349151625E+02  0.10172069918E+02  0.22087278068E+02  0.38114191058E+02  0.00000000000E+00 0.  1.
</event>
<event>
 4    1  0.6824761E+001  0.2058440E+02  0.7546771E-02  0.1525282E+00
          2   -1    0    0  502    0  0.00000000000E+00  0.00000000000E+00  0.20850386576E+03  0.20850386576E+03  0.00000000000E+00 0. -1.
         -2   -1    0    0    0  501 -0.00000000000E+00 -0.00000000000E+00 -0.24957496784E+01  0.24957496784E+01  0.00000000000E+00 0.  1.
          1    1    1    2  502    0 -0.15601016735E+02  0.13428537240E+02  0.57535751422E+02  0.61107119285E+02  0.00000000000E+00 0.  1.
         -1    1    1    2    0  501  0.15601016735E+02 -0.13428537240E+02  0.14847236466E+03  0.14989249615E+03  0.00000000000E+00 0. -1.
</event>
<event>
 4    1  0.6824761E+001  0.2861378E+02  0.7546771E-02  0.1432038E+00
          2   -1    0    0  502    0  0.00000000000E+00  0.00000000000E+00  0.24622405102E+01  0.24622405102E+01  0.00000000000E+00 0. -1.
         -2   -1    0    0    0  501 -0.00000000000E+00 -0.00000000000E+00 -0.39906588079E+03  0.39906588079E+03  0.00000000000E+00 0.  1.
          1    1    1    2  502    0  0.50860193207E+01  0.28158138245E+02 -0.11631976695E+03  0.11978746397E+03  0.00000000000E+00 0.  1.
         -1    1    1    2    0  501 -0.50860193207E+01 -0.28158138245E+02 -0.28028387333E+03  0.28174065733E+03  0.00000000000E+00 0. -1.
</event>
<event>
 4    1  0.6824761E+001  0.2380459E+02  0.7546771E-02  0.1482635E+00
          2   -1    0    0  502    0  0.00000000000E+00  0.00000000000E+00  0.87663188089E+03  0.87663188089E+03  0.00000000000E+00 0. -1.
         -2   -1    0    0    0  501 -0.00000000000E+00 -0.00000000000E+00 -0.78073737600E+00  0.78073737600E+00  0.00000000000E+00 0.  1.
          1    1    1    2  502    0 -0.21745198648E+02 -0.96853002637E+01  0.61990098405E+03  0.62035787150E+03  0.00000000000E+00 0.  1.
         -1    1    1    2    0  501  0.21745198648E+02  0.96853002637E+01  0.25595015947E+03  0.25705474677E+03  0.00000000000E+00 0. -1.
</event>
<event>
 4    1  0.6824761E+001  0.2889887E+02  0.7546771E-02  0.1429413E+00
          2   -1    0    0  502    0  0.00000000000E+00  0.00000000000E+00  0.34341265981E+02  0.34341265981E+02  0.00000000000E+00 0. -1.
         -2   -1    0    0    0  501 -0.00000000000E+00 -0.00000000000E+00 -0.24888254150E+02  0.24888254150E+02  0.00000000000E+00 0.  1.
          1    1    1    2  502    0 -0.63284904421E+01 -0.28197427226E+02  0.92053944878E+01  0.30329589201E+02  0.00000000000E+00 0.  1.
         -1    1    1    2    0  501  0.63284904421E+01  0.28197427226E+02  0.24761734295E+00  0.28899930930E+02  0.00000000000E+00 0. -1.
</event>
<event>
 4    1  0.6824761E+001  0.2139197E+02  0.7546771E-02  0.1513742E+00
          2   -1    0    0  502    0  0.00000000000E+00  0.00000000000E+00  0.34703057711E+01  0.34703057711E+01  0.00000000000E+00 0. -1.
         -2   -1    0    0    0  501 -0.00000000000E+00 -0.00000000000E+00 -0.22959963905E+03  0.22959963905E+03  0.00000000000E+00 0.  1.
          1    1    1    2  502    0  0.20001974967E+02 -0.75853381517E+01 -0.37033428793E+02  0.42767875860E+02  0.00000000000E+00 0. -1.
         -1    1    1    2    0  501 -0.20001974967E+02  0.75853381517E+01 -0.18909590449E+03  0.19030206896E+03  0.00000000000E+00 0.  1.
</event>
<event>
 4    1  0.6824761E+001  0.2480659E+02  0.7546771E-02  0.1470979E+00
          2   -1    0    0  502    0  0.00000000000E+00  0.00000000000E+00  0.29351135906E+02  0.29351135906E+02  0.00000000000E+00 0.  1.
         -2   -1    0    0    0  501 -0.00000000000E+00 -0.00000000000E+00 -0.35822452947E+02  0.35822452947E+02  0.00000000000E+00 0. -1.
          1    1    1    2  502    0  0.57383309087E+01 -0.24133757293E+02  0.17750171168E+02  0.30503036885E+02  0.00000000000E+00 0.  1.
         -1    1    1    2    0  501 -0.57383309087E+01  0.24133757293E+02 -0.24221488209E+02  0.34670551968E+02  0.00000000000E+00 0. -1.
</event>
<event>
 4    1  0.6824761E+001  0.2771184E+02  0.7546771E-02  0.1440586E+00
          2   -1    0    0  502    0  0.00000000000E+00  0.00000000000E+00  0.23317624435E+01  0.23317624435E+01  0.00000000000E+00 0.  1.
         -2   -1    0    0    0  501 -0.00000000000E+00 -0.00000000000E+00 -0.38004343869E+03  0.38004343869E+03  0.00000000000E+00 0. -1.
          1    1    1    2  502    0  0.15846768972E+01  0.27666498040E+02 -0.11902374384E+03  0.12220719256E+03  0.00000000000E+00 0.  1.
         -1    1    1    2    0  501 -0.15846768972E+01 -0.27666498040E+02 -0.25868793240E+03  0.26016800857E+03  0.00000000000E+00 0. -1.
</event>
<event>
 4    1  0.6824761E+001  0.4108904E+02  0.7546771E-02  0.1342220E+00
          2   -1    0    0  502    0  0.00000000000E+00  0.00000000000E+00  0.22943124140E+02  0.22943124140E+02  0.00000000000E+00 0. -1.
         -2   -1    0    0    0  501 -0.00000000000E+00 -0.00000000000E+00 -0.82275685965E+02  0.82275685965E+02  0.00000000000E+00 0.  1.
          1    1    1    2  502    0  0.33466964210E+02 -0.23838454369E+02 -0.12569619797E+02  0.42968650689E+02  0.00000000000E+00 0. -1.
         -1    1    1    2    0  501 -0.33466964210E+02  0.23838454369E+02 -0.46762942028E+02  0.62250159416E+02  0.00000000000E+00 0.  1.
</event>
<event>
 4    1  0.6824761E+001  0.7937029E+02  0.7546771E-02  0.1205317E+00
          2   -1    0    0  502    0  0.00000000000E+00  0.00000000000E+00  0.20031253425E+02  0.20031253425E+02  0.00000000000E+00 0.  1.
         -2   -1    0    0    0  501 -0.00000000000E+00 -0.00000000000E+00 -0.63437362279E+03  0.63437362279E+03  0.00000000000E+00 0. -1.
          1    1    1    2  502    0 -0.70692717061E+02 -0.36085760204E+02 -0.53951949579E+03  0.54532644230E+03  0.00000000000E+00 0. -1.
         -1    1    1    2    0  501  0.70692717061E+02  0.36085760204E+02 -0.74822873574E+02  0.10907843391E+03  0.00000000000E+00 0.  1.
</event>
<event>
 4    1  0.6824761E+001  0.2442618E+02  0.7546771E-02  0.1475326E+00
          2   -1    0    0  502    0  0.00000000000E+00  0.00000000000E+00  0.47689801693E+03  0.47689801693E+03  0.00000000000E+00 0.  1.
         -2   -1    0    0    0  501 -0.00000000000E+00 -0.00000000000E+00 -0.23015089788E+01  0.23015089788E+01  0.00000000000E+00 0. -1.
          1    1    1    2  502    0  0.48655063555E+01  0.23936694312E+02  0.75429509718E+02  0.79285871522E+02  0.00000000000E+00 0. -1.
         -1    1    1    2    0  501 -0.48655063555E+01 -0.23936694312E+02  0.39916699824E+03  0.39991365439E+03  0.00000000000E+00 0.  1.
</event>
<event>
 4    1  0.6824761E+001  0.2213168E+02  0.7546771E-02  0.1503699E+00
          2   -1    0    0  502    0  0.00000000000E+00  0.00000000000E+00  0.16199314873E+04  0.16199314873E+04  0.00000000000E+00 0.  1.
         -2   -1    0    0    0  501 -0.00000000000E+00 -0.00000000000E+00 -0.76017968577E+00  0.76017968577E+00  0.00000000000E+00 0. -1.
          1    1    1    2  502    0 -0.21662188501E+02 -0.45344107996E+01  0.14384499325E+04  0.14386201791E+04  0.00000000000E+00 0.  1.
         -1    1    1    2    0  501  0.21662188501E+02  0.45344107996E+01  0.18072137510E+03  0.18207148791E+03  0.00000000000E+00 0. -1.
</event>
<event>
 4    1  0.6824761E+001  0.2386944E+02  0.7546771E-02  0.1481860E+00
          2   -1    0    0  502    0  0.00000000000E+00  0.00000000000E+00  0.68092831992E+03  0.68092831992E+03  0.00000000000E+00 0.  1.
         -2   -1    0    0    0  501 -0.00000000000E+00 -0.00000000000E+00 -0.83732997922E+00  0.83732997922E+00  0.00000000000E+00 0. -1.
          1    1    1    2  502    0 -0.23677654475E+02 -0.30197597297E+01  0.33088852438E+03  0.33174834715E+03  0.00000000000E+00 0.  1.
         -1    1    1    2    0  501  0.23677654475E+02  0.30197597297E+01  0.34920246556E+03  0.35001730275E+03  0.00000000000E+00 0. -1.
</event>
<event>
 4    1  0.6824761E+001  0.2074380E+02  0.7546771E-02  0.1522954E+00
          2   -1    0    0  502    0  0.00000000000E+00  0.00000000000E+00  0.30368537924E+02  0.30368537924E+02  0.00000000000E+00 0. -1.
         -2   -1    0    0    0  501 -0.00000000000E+00 -0.00000000000E+00 -0.14267360068E+02  0.14267360068E+02  0.00000000000E+00 0.  1.
          1    1    1    2  502    0 -0.19566427225E+02 -0.68891212642E+01  0.98995439359E+01  0.22984908882E+02  0.00000000000E+00 0. -1.
         -1    1    1    2    0  501  0.19566427225E+02  0.68891212642E+01  0.62016339198E+01  0.21650989110E+02  0.00000000000E+00 0.  1.
</event>
<event>
 4    1  0.6824761E+001  0.2797672E+02  0.7546771E-02  0.1438036E+00
          2   -1    0    0  502    0  0.00000000000E+00  0.00000000000E+00  0.37910047865E+03  0.37910047865E+03  0.00000000000E+00 0. -1.
         -2   -1    0    0    0  501 -0.00000000000E+00 -0.00000000000E+00 -0.25674362524E+01  0.25674362524E+01  0.00000000000E+00 0.  1.
          1    1    1    2  502    0 -0.27473389314E+02  0.52829417544E+01  0.27271903228E+03  0.27415026384E+03  0.00000000000E+00 0. -1.
         -1    1    1    2    0  501  0.27473389314E+02 -0.52829417544E+01  0.10381401011E+03  0.10751765106E+03  0.00000000000E+00 0.  1.
</event>
<event>
 4    1  0.6824761E+001  0.2064840E+02  0.7546771E-02  0.1524344E+00
          2   -1    0    0  502    0  0.00000000000E+00  0.00000000000E+00  0.93261161913E+03  0.93261161913E+03  0.00000000000E+00 0. -1.
         -2   -1    0    0    0  501 -0.00000000000E+00 -0.00000000000E+00 -0.64153810323E+00  0.64153810323E+00  0.00000000000E+00 0.  1.
          1    1    1    2  502    0 -0.16431468314E+02  0.12504530880E+02  0.21583059600E+03  0.21681605709E+03  0.00000000000E+00 0.  1.
         -1    1    1    2    0  501  0.16431468314E+02 -0.12504530880E+02  0.71613948503E+03  0.71643710014E+03  0.00000000000E+00 0. -1.
</event>
<event>
 4    1  0.6824761E+001  0.2443054E+02  0.7546771E-02  0.1475276E+00
          2   -1    0    0  502    0  0.00000000000E+00  0.00000000000E+00  0.24787821634E+02  0.24787821634E+02  0.00000000000E+00 0.  1.
         -2   -1    0    0    0  501 -0.00000000000E+00 -0.00000000000E+00 -0.24078749049E+02  0.24078749049E+02  0.00000000000E+00 0. -1.
          1    1    1    2  502    0  0.22150516270E+01  0.24329919658E+02  0.26346442862E+00  0.24431963854E+02  0.00000000000E+00 0. -1.
         -1    1    1    2    0  501 -0.22150516270E+01 -0.24329919658E+02  0.44560815716E+00  0.24434606829E+02  0.00000000000E+00 0.  1.
</event>
<event>
 4    1  0.6824761E+001  0.2121904E+02  0.7546771E-02  0.1516160E+00
          2   -1    0    0  502    0  0.00000000000E+00  0.00000000000E+00  0.48241019403E+03  0.48241019403E+03  0.00000000000E+00 0. -1.
         -2   -1    0    0    0  501 -0.00000000000E+00 -0.00000000000E+00 -0.95468664298E+00  0.95468664298E+00  0.00000000000E+00 0.  1.
          1    1    1    2  502    0  0.15776708141E+02  0.14189540220E+02  0.20457942457E+03  0.20567690324E+03  0.00000000000E+00 0. -1.
         -1    1    1    2    0  501 -0.15776708141E+02 -0.14189540220E+02  0.27687608281E+03  0.27768797742E+03  0.00000000000E+00 0.  1.
</event>
<event>
 4    1  0.6824761E+001  0.2148776E+02  0.7546771E-02  0.1512414E+00
          2   -1    0    0  502    0  0.00000000000E+00  0.00000000000E+00  0.57998181892E+02  0.57998181892E+02  0.00000000000E+00 0.  1.
         -2   -1    0    0    0  501 -0.00000000000E+00 -0.00000000000E+00 -0.14503221146E+02  0.14503221146E+02  0.00000000000E+00 0. -1.
          1    1    1    2  502    0 -0.71484776471E+01  0.20263838735E+02  0.46094543459E+02  0.50856964417E+02  0.00000000000E+00 0.  1.
         -1    1    1    2    0  501  0.71484776471E+01 -0.20263838735E+02 -0.25995827134E+01  0.21644438621E+02  0.00000000000E+00 0. -1.
</event>
<event>
 4    1  0.6824761E+001  0.2113423E+02  0.7546771E-02  0.1517357E+00
          2   -1    0    0  502    0  0.00000000000E+00  0.00000000000E+00  0.92642503919E+01  0.92642503919E+01  0.00000000000E+00 0.  1.
         -2   -1    0    0    0  501 -0.00000000000E+00 -0.00000000000E+00 -0.48381515670E+02  0.48381515670E+02  0.00000000000E+00 0. -1.
          1    1    1    2  502    0 -0.24516399869E+01  0.20991552254E+02 -0.21260502303E+02  0.29977737787E+02  0.00000000000E+00 0.  1.
         -1    1    1    2    0  501  0.24516399869E+01 -0.20991552254E+02 -0.17856762975E+02  0.27668028274E+02  0.00000000000E+00 0. -1.
</event>
<event>
 4    1  0.6824761E+001  0.2187628E+02  0.7546771E-02  0.1507112E+00
          2   -1    0    0  502    0  0.00000000000E+00  0.00000000000E+00  0.21230256697E+01  0.21230256697E+01  0.00000000000E+00 0. -1.
         -2   -1    0    0    0  501 -0.00000000000E+00 -0.00000000000E+00 -0.24424572474E+03  0.24424572474E+03  0.00000000000E+00 0.  1.
          1    1    1    2  502    0  0.16703620251E+02 -0.14126587833E+02 -0.15526115259E+03  0.15679476049E+03  0.00000000000E+00 0.  1.
         -1    1    1    2    0  501 -0.16703620251E+02  0.14126587833E+02 -0.86861546477E+02  0.89573989917E+02  0.00000000000E+00 0. -1.
</event>
<event>
 4    1  0.6824761E+001  0.2237121E+02  0.7546771E-02  0.1500548E+00
          2   -1    0    0  502    0  0.00000000000E+00  0.00000000000E+00  0.47776257994E+03  0.47776257994E+03  0.00000000000E+00 0.  1.
         -2   -1    0    0    0  501 -0.00000000000E+00 -0.00000000000E+00 -0.12450176128E+01  0.12450176128E+01  0.00000000000E+00 0. -1.
          1    1    1    2  502    0  0.69018680874E+01 -0.21279927973E+02  0.33364672310E+03  0.33439588358E+03  0.00000000000E+00 0.  1.
         -1    1    1    2    0  501 -0.69018680874E+01  0.21279927973E+02  0.14287083923E+03  0.14461171397E+03  0.00000000000E+00 0. -1.
</event>
<event>
 4    1  0.6824761E+001  0.2701178E+02  0.7546771E-02  0.1447490E+00
          2   -1    0    0  502    0  0.00000000000E+00  0.00000000000E+00  0.87992672789E+03  0.87992672789E+03  0.00000000000E+00 0. -1.
         -2   -1    0    0    0  501 -0.00000000000E+00 -0.00000000000E+00 -0.10572064416E+01  0.10572064416E+01  0.00000000000E+00 0.  1.
          1    1    1    2  502    0  0.26943075636E+02 -0.19252934818E+01  0.64399948517E+03  0.64456572433E+03  0.00000000000E+00 0. -1.
         -1    1    1    2    0  501 -0.26943075636E+02  0.19252934818E+01  0.23487003627E+03  0.23641820999E+03  0.00000000000E+00 0.  1.
</event>
<event>
 4    1  0.6824761E+001  0.2491365E+02  0.7546771E-02  0.1469772E+00
          2   -1    0    0  502    0  0.00000000000E+00  0.00000000000E+00  0.30802133937E+03  0.30802133937E+03  0.00000000000E+00 0.  1.
         -2   -1    0    0    0  501 -0.00000000000E+00 -0.00000000000E+00 -0.27818336342E+01  0.27818336342E+01  0.00000000000E+00 0. -1.
          1    1    1    2  502    0 -0.24883362176E+02  0.12280858130E+01  0.23420576548E+03  0.23552713324E+03  0.00000000000E+00 0.  1.
         -1    1    1    2    0  501  0.24883362176E+02 -0.12280858130E+01  0.71033740257E+02  0.75276039766E+02  0.00000000000E+00 0. -1.
</event>
<event>
 4    1  0.6824761E+001  0.2263039E+02  0.7546771E-02  0.1497192E+00
          2   -1    0    0  502    0  0.00000000000E+00  0.00000000000E+00  0.38104821645E+00  0.38104821645E+00  0.00000000000E+00 0.  1.
         -2   -1    0    0    0  501 -0.00000000000E+00 -0.00000000000E+00 -0.18445835799E+04  0.18445835799E+04  0.00000000000E+00 0. -1.
          1    1    1    2  502    0 -0.70246403812E+00  0.22619485788E+02 -0.44154904605E+03  0.44212859516E+03  0.00000000000E+00 0.  1.
         -1    1    1    2    0  501  0.70246403812E+00 -0.22619485788E+02 -0.14026534857E+04  0.14028360330E+04  0.00000000000E+00 0. -1.
</event>
<event>
 4    1  0.6824761E+001  0.2020759E+02  0.7546771E-02  0.1530886E+00
          2   -1    0    0  502    0  0.00000000000E+00  0.00000000000E+00  0.30325989052E+02  0.30325989052E+02  0.00000000000E+00 0.  1.
         -2   -1    0    0    0  501 -0.00000000000E+00 -0.00000000000E+00 -0.15843101145E+02  0.15843101145E+02  0.00000000000E+00 0. -1.
          1    1    1    2  502    0 -0.17073269769E+02  0.10809718305E+02  0.16184685932E+02  0.25889971208E+02  0.00000000000E+00 0. -1.
         -1    1    1    2    0  501  0.17073269769E+02 -0.10809718305E+02 -0.17017980249E+01  0.20279118989E+02  0.00000000000E+00 0.  1.
</event>
<event>
 4    1  0.6824761E+001  0.2413861E+02  0.7546771E-02  0.1478675E+00
          2   -1    0    0  502    0  0.00000000000E+00  0.00000000000E+00  0.21567195588E+04  0.21567195588E+04  0.00000000000E+00 0.  1.
         -2   -1    0    0    0  501 -0.00000000000E+00 -0.00000000000E+00 -0.27932911607E+00  0.27932911607E+00  0.00000000000E+00 0. -1.
          1    1    1    2  502    0  0.90361500584E+01  0.22383489032E+02  0.88288505553E+03  0.88321497602E+03  0.00000000000E+00 0. -1.
         -1    1    1    2    0  501 -0.90361500584E+01 -0.22383489032E+02  0.12735551742E+04  0.12737839119E+04  0.00000000000E+00 0.  1.
</event>
<event>
 4    1  0.6824761E+001  0.2148798E+02  0.7546771E-02  0.1512410E+00
          2   -1    0    0  502    0  0.00000000000E+00  0.00000000000E+00  0.19429525840E+03  0.19429525840E+03  0.00000000000E+00 0.  1.
         -2   -1    0    0    0  501 -0.00000000000E+00 -0.00000000000E+00 -0.24371583587E+01  0.24371583587E+01  0.00000000000E+00 0. -1.
          1    1    1    2  502    0 -0.14826355611E+02 -0.15553538498E+02  0.11145365958E+03  0.11350617435E+03  0.00000000000E+00 0.  1.
         -1    1    1    2    0  501  0.14826355611E+02  0.15553538498E+02  0.80404440460E+02  0.83226242413E+02  0.00000000000E+00 0. -1.
</event>
<event>
 4    1  0.6824761E+001  0.2084035E+02  0.7546771E-02  0.1521556E+00
          2   -1    0    0  502    0  0.00000000000E+00  0.00000000000E+00  0.95546227610E+03  0.95546227610E+03  0.00000000000E+00 0. -1.
         -2   -1    0    0    0  501 -0.00000000000E+00 -0.00000000000E+00 -0.45633678737E+00  0.45633678737E+00  0.00000000000E+00 0.  1.
          1    1    1    2  502    0 -0.61946368363E+01  0.19898411878E+02  0.44772633862E+03  0.44821110496E+03  0.00000000000E+00 0.  1.
         -1    1    1    2    0  501  0.61946368363E+01 -0.19898411878E+02  0.50727960070E+03  0.50770750793E+03  0.00000000000E+00 0. -1.
</event>
<event>
 4    1  0.6824761E+001  0.2250554E+02  0.7546771E-02  0.1498802E+00
          2   -1    0    0  502    0  0.00000000000E+00  0.00000000000E+00  0.56395693457E+02  0.56395693457E+02  0.00000000000E+00 0. -1.
         -2   -1    0    0    0  501 -0.00000000000E+00 -0.00000000000E+00 -0.13079774530E+02  0.13079774530E+02  0.00000000000E+00 0.  1.
          1    1    1    2  502    0 -0.19773378991E+02  0.10747684974E+02  0.22124457121E+01  0.22614025848E+02  0.00000000000E+00 0.  1.
         -1    1    1    2    0  501  0.19773378991E+02 -0.10747684974E+02  0.41103473215E+02  0.46861442139E+02  0.00000000000E+00 0. -1.
</event>
<event>
 4    1  0.6824761E+001  0.2634495E+02  0.7546771E-02  0.1454301E+00
          2   -1    0    0  502    0  0.00000000000E+00  0.00000000000E+00  0.11006635013E+03  0.11006635013E+03  0.00000000000E+00 0. -1.
         -2   -1    0    0    0  501 -0.00000000000E+00 -0.00000000000E+00 -0.70249064874E+01  0.70249064874E+01  0.00000000000E+00 0.  1.
          1    1    1    2  502    0 -0.11968631193E+02 -0.23469307532E+02  0.32789313879E+02  0.42061807300E+02  0.00000000000E+00 0.  1.
         -1    1    1    2    0  501  0.11968631193E+02  0.23469307532E+02  0.70252129764E+02  0.75029449318E+02  0.00000000000E+00 0. -1.
</event>
<event>
 4    1  0.6824761E+001  0.2487761E+02  0.7546771E-02  0.1470177E+00
          2   -1    0    0  502    0  0.00000000000E+00  0.00000000000E+00  0.21611301132E+02  0.21611301132E+02  0.00000000000E+00 0. -1.
         -2   -1    0    0    0  501 -0.00000000000E+00 -0.00000000000E+00 -0.10157130236E+03  0.10157130236E+03  0.00000000000E+00 0.  1.
          1    1    1    2  502    0 -0.19414703416E+02  0.15555214648E+02 -0.92171293567E+02  0.95469590809E+02  0.00000000000E+00 0.  1.
         -1    1    1    2    0  501  0.19414703416E+02 -0.15555214648E+02  0.12211292338E+02  0.27713012684E+02  0.00000000000E+00 0. -1.
</event>
<event>
 4    1  0.6824761E+001  0.2698229E+02  0.7546771E-02  0.1447786E+00
          2   -1    0    0  502    0  0.00000000000E+00  0.00000000000E+00  0.44379711522E+02  0.44379711522E+02  0.00000000000E+00 0. -1.
         -2   -1    0    0    0  501 -0.00000000000E+00 -0.00000000000E+00 -0.16408561431E+02  0.16408561431E+02  0.00000000000E+00 0.  1.
          1    1    1    2  502    0  0.24694863708E+02  0.10872337169E+02  0.13530544404E+02  0.30184758422E+02  0.00000000000E+00 0. -1.
         -1    1    1    2    0  501 -0.24694863708E+02 -0.10872337169E+02  0.14440605687E+02  0.30603514532E+02  0.00000000000E+00 0.  1.
</event>
<event>
 4    1  0.6824761E+001  0.9078894E+02  0.7546771E-02  0.1180803E+00
          2   -1    0    0  502    0  0.00000000000E+00  0.00000000000E+00  0.40112319337E+04  0.40112319337E+04  0.00000000000E+00 0. -1.
         -2   -1    0    0    0  501 -0.00000000000E+00 -0.00000000000E+00 -0.35236613775E+01  0.35236613775E+01  0.00000000000E+00 0.  1.
          1    1    1    2  502    0  0.12910162903E+02 -0.89866339004E+02  0.70784079396E+03  0.71363941930E+03  0.00000000000E+00 0.  1.
         -1    1    1    2    0  501 -0.12910162903E+02  0.89866339004E+02  0.32998674783E+04  0.33011161757E+04  0.00000000000E+00 0. -1.
</event>
<event>
 4    1  0.6824761E+001  0.3685524E+02  0.7546771E-02  0.1367969E+00
          2   -1    0    0  502    0  0.00000000000E+00  0.00000000000E+00  0.71693284463E+02  0.71693284463E+02  0.00000000000E+00 0. -1.
         -2   -1    0    0    0  501 -0.00000000000E+00 -0.00000000000E+00 -0.32953862640E+02  0.32953862640E+02  0.00000000000E+00 0.  1.
          1    1    1    2  502    0 -0.10260175741E+02 -0.35398267723E+02 -0.14743965728E+02  0.39695000811E+02  0.00000000000E+00 0.  1.
         -1    1    1    2    0  501  0.10260175741E+02  0.35398267723E+02  0.53483387551E+02  0.64952146292E+02  0.00000000000E+00 0. -1.
</event>
<event>
 4    1  0.6824761E+001  0.3859208E+02  0.7546771E-02  0.1356940E+00
          2   -1    0    0  502    0  0.00000000000E+00  0.00000000000E+00  0.73588988063E+03  0.73588988063E+03  0.00000000000E+00 0. -1.
         -2   -1    0    0    0  501 -0.00000000000E+00 -0.00000000000E+00 -0.20789733317E+01  0.20789733317E+01  0.00000000000E+00 0.  1.
          1    1    1    2  502    0 -0.27553231650E+02  0.27021617260E+02  0.42697534750E+03  0.42871586832E+03  0.00000000000E+00 0. -1.
         -1    1    1    2    0  501  0.27553231650E+02 -0.27021617260E+02  0.30683555980E+03  0.30925298565E+03  0.00000000000E+00 0.  1.
</event>
<event>
 4    1  0.6824761E+001  0.2575129E+02  0.7546771E-02  0.1460572E+00
          2   -1    0    0  502    0  0.00000000000E+00  0.00000000000E+00  0.64273438492E+03  0.64273438492E+03  0.00000000000E+00 0.  1.
         -2   -1    0    0    0  501 -0.00000000000E+00 -0.00000000000E+00 -0.10977801889E+01  0.10977801889E+01  0.00000000000E+00 0. -1.
          1    1    1    2  502    0 -0.21645193472E+02  0.13950424251E+02  0.39978064336E+03  0.40060915060E+03  0.00000000000E+00 0.  1.
         -1    1    1    2    0  501  0.21645193472E+02 -0.13950424251E+02  0.24185596137E+03  0.24322301451E+03  0.00000000000E+00 0. -1.
</event>
<event>
 4    1  0.6824761E+001  0.2343913E+02  0.7546771E-02  0.1487056E+00
          2   -1    0    0  502    0  0.00000000000E+00  0.00000000000E+00  0.84398508114E+03  0.84398508114E+03  0.00000000000E+00 0. -1.
         -2   -1    0    0    0  501 -0.00000000000E+00 -0.00000000000E+00 -0.12390711831E+01  0.12390711831E+01  0.00000000000E+00 0.  1.
          1    1    1    2  502    0 -0.40812531065E+00 -0.23435574307E+02  0.13021622076E+03  0.13230894474E+03  0.00000000000E+00 0.  1.
         -1    1    1    2    0  501  0.40812531065E+00  0.23435574307E+02  0.71252978920E+03  0.71291520759E+03  0.00000000000E+00 0. -1.
</event>
<event>
 4    1  0.6824761E+001  0.2316693E+02  0.7546771E-02  0.1490413E+00
          2   -1    0    0  502    0  0.00000000000E+00  0.00000000000E+00  0.12080953329E+04  0.12080953329E+04  0.00000000000E+00 0.  1.
         -2   -1    0    0    0  501 -0.00000000000E+00 -0.00000000000E+00 -0.56035008681E+00  0.56035008681E+00  0.00000000000E+00 0. -1.
          1    1    1    2  502    0  0.26712405426E+01 -0.23012412864E+02  0.87883745826E+03  0.87914275559E+03  0.00000000000E+00 0.  1.
         -1    1    1    2    0  501 -0.26712405426E+01  0.23012412864E+02  0.32869752457E+03  0.32951292741E+03  0.00000000000E+00 0. -1.
</event>
<event>
 4    1  0.6824761E+001  0.2344018E+02  0.7546771E-02  0.1487044E+00
          2   -1    0    0  502    0  0.00000000000E+00  0.00000000000E+00  0.48381747511E+03  0.48381747511E+03  0.00000000000E+00 0. -1.
         -2   -1    0    0    0  501 -0.00000000000E+00 -0.00000000000E+00 -0.12711189394E+01  0.12711189394E+01  0.00000000000E+00 0.  1.
          1    1    1    2  502    0 -0.90274597052E+01  0.21632080921E+02  0.32045684358E+03  0.32131297912E+03  0.00000000000E+00 0. -1.
         -1    1    1    2    0  501  0.90274597052E+01 -0.21632080921E+02  0.16208951259E+03  0.16377561493E+03  0.00000000000E+00 0.  1.
</event>
<event>
 4    1  0.6824761E+001  0.2582610E+02  0.7546771E-02  0.1459770E+00
          2   -1    0    0  502    0  0.00000000000E+00  0.00000000000E+00  0.15355937434E+04  0.15355937434E+04  0.00000000000E+00 0. -1.
         -2   -1    0    0    0  501 -0.00000000000E+00 -0.00000000000E+00 -0.50606933593E+00  0.50606933593E+00  0.00000000000E+00 0.  1.
          1    1    1    2  502    0  0.90954729530E+01 -0.24171470964E+02  0.47841085153E+03  0.47910743107E+03  0.00000000000E+00 0.  1.
         -1    1    1    2    0  501 -0.90954729530E+01  0.24171470964E+02  0.10566768226E+04  0.10569923817E+04  0.00000000000E+00 0. -1.
</event>
<event>
 4    1  0.6824761E+001  0.3775880E+02  0.7546771E-02  0.1362144E+00
          2   -1    0    0  502    0  0.00000000000E+00  0.00000000000E+00  0.50124227022E+01  0.50124227022E+01  0.00000000000E+00 0. -1.
         -2   -1    0    0    0  501 -0.00000000000E+00 -0.00000000000E+00 -0.36403085759E+03  0.36403085759E+03  0.00000000000E+00 0.  1.
          1    1    1    2  502    0  0.25003190912E+02 -0.28294298800E+02 -0.26578986550E+03  0.26845852474E+03  0.00000000000E+00 0.  1.
         -1    1    1    2    0  501 -0.25003190912E+02  0.28294298800E+02 -0.93228569384E+02  0.10058475555E+03  0.00000000000E+00 0. -1.
</event>
<event>
 4    1  0.6824761E+001  0.2260036E+02  0.7546771E-02  0.1497578E+00
          2   -1    0    0  502    0  0.00000000000E+00  0.00000000000E+00  0.19907676541E+03  0.19907676541E+03  0.00000000000E+00 0. -1.
         -2   -1    0    0    0  501 -0.00000000000E+00 -0.00000000000E+00 -0.98512482359E+01  0.98512482359E+01  0.00000000000E+00 0.  1.
          1    1    1    2  502    0  0.81872860393E+01  0.21065243356E+02  0.18444897188E+03  0.18582841375E+03  0.00000000000E+00 0. -1.
         -1    1    1    2    0  501 -0.81872860393E+01 -0.21065243356E+02  0.47765452957E+01  0.23099599895E+02  0.00000000000E+00 0.  1.
</event>
<event>
 4    1  0.6824761E+001  0.2207477E+02  0.7546771E-02  0.1504455E+00
          2   -1    0    0  502    0  0.00000000000E+00  0.00000000000E+00  0.15204632432E+02  0.15204632432E+02  0.00000000000E+00 0. -1.
         -2   -1    0    0    0  501 -0.00000000000E+00 -0.00000000000E+00 -0.43989658996E+02  0.43989658996E+02  0.00000000000E+00 0.  1.
          1    1    1    2  502    0  0.19027704770E+02  0.11191145420E+02  0.10275538719E+01  0.22098668548E+02  0.00000000000E+00 0. -1.
         -1    1    1    2    0  501 -0.19027704770E+02 -0.11191145420E+02 -0.29812580435E+02  0.37095622880E+02  0.00000000000E+00 0.  1.
</event>
<event>
 4    1  0.6824761E+001  0.3843751E+02  0.7546771E-02  0.1357893E+00
          2   -1    0    0  502    0  0.00000000000E+00  0.00000000000E+00  0.92116614529E+03  0.92116614529E+03  0.00000000000E+00 0.  1.
         -2   -1    0    0    0  501 -0.00000000000E+00 -0.00000000000E+00 -0.25666233784E+01  0.25666233784E+01  0.00000000000E+00 0. -1.
          1    1    1    2  502    0 -0.36750682181E+02  0.11261867636E+02  0.74217177147E+03  0.74316645557E+03  0.00000000000E+00 0.  1.
         -1    1    1    2    0  501  0.36750682181E+02 -0.11261867636E+02  0.17642775043E+03  0.18056631310E+03  0.00000000000E+00 0. -1.
</event>
<event>
 4    1  0.6824761E+001  0.2154476E+02  0.7546771E-02  0.1511627E+00
          2   -1    0    0  502    0  0.00000000000E+00  0.00000000000E+00  0.22409072158E+04  0.22409072158E+04  0.00000000000E+00 0.  1.
         -2   -1    0    0    0  501 -0.00000000000E+00 -0.00000000000E+00 -0.24892445159E+00  0.24892445159E+00  0.00000000000E+00 0. -1.
          1    1    1    2  502    0 -0.86337365202E+00  0.21527448990E+02  0.15794503975E+04  0.15795973331E+04  0.00000000000E+00 0.  1.
         -1    1    1    2    0  501  0.86337365202E+00 -0.21527448990E+02  0.66120789380E+03  0.66155880713E+03  0.00000000000E+00 0. -1.
</event>
<event>
 4    1  0.6824761E+001  0.2680673E+02  0.7546771E-02  0.1449559E+00
          2   -1    0    0  502    0  0.00000000000E+00  0.00000000000E+00  0.75659351790E+02  0.75659351790E+02  0.00000000000E+00 0.  1.
         -2   -1    0    0    0  501 -0.00000000000E+00 -0.00000000000E+00 -0.96964568580E+01  0.96964568580E+01  0.00000000000E+00 0. -1.
          1    1    1    2  502    0 -0.26806486420E+02 -0.11506441595E+00  0.26873478014E+02  0.37957670826E+02  0.00000000000E+00 0. -1.
         -1    1    1    2    0  501  0.26806486420E+02  0.11506441595E+00  0.39089416918E+02  0.47398137822E+02  0.00000000000E+00 0.  1.
</event>
<event>
 4    1  0.6824761E+001  0.2085003E+02  0.7546771E-02  0.1521417E+00
          2   -1    0    0  502    0  0.00000000000E+00  0.00000000000E+00  0.59660800972E+02  0.59660800972E+02  0.00000000000E+00 0.  1.
         -2   -1    0    0    0  501 -0.00000000000E+00 -0.00000000000E+00 -0.10149371742E+02  0.10149371742E+02  0.00000000000E+00 0. -1.
          1    1    1    2  502    0 -0.61832397686E+01  0.19912089258E+02  0.43293733109E+02  0.48052794707E+02  0.00000000000E+00 0.  1.
         -1    1    1    2    0  501  0.61832397686E+01 -0.19912089258E+02  0.62176961209E+01  0.21757378006E+02  0.00000000000E+00 0. -1.
</event>
<event>
 4    1  0.6824761E+001  0.2502608E+02  0.7546771E-02  0.1468512E+00
          2   -1    0    0  502    0  0.00000000000E+00  0.00000000000E+00  0.31978766962E+03  0.31978766962E+03  0.00000000000E+00 0.  1.
         -2   -1    0    0    0  501 -0.00000000000E+00 -0.00000000000E+00 -0.44285126117E+01  0.44285126117E+01  0.00000000000E+00 0. -1.
          1    1    1    2  502    0  0.18488584199E+02 -0.16866439082E+02  0.27874642627E+03  0.27986760204E+03  0.00000000000E+00 0.  1.
         -1    1    1    2    0  501 -0.18488584199E+02  0.16866439082E+02  0.36612730739E+02  0.44348580193E+02  0.00000000000E+00 0. -1.
</event>
<event>
 4    1  0.6824761E+001  0.3390923E+02  0.7546771E-02  0.1388398E+00
          2   -1    0    0  502    0  0.00000000000E+00  0.00000000000E+00  0.58855157801E+01  0.58855157801E+01  0.00000000000E+00 0.  1.
         -2   -1    0    0    0  501 -0.00000000000E+00 -0.00000000000E+00 -0.19648402605E+03  0.19648402605E+03  0.00000000000E+00 0. -1.
          1    1    1    2  502    0  0.24198364510E+02 -0.23754475385E+02 -0.87670204730E+02  0.93999472037E+02  0.00000000000E+00 0.  1.
         -1    1    1    2    0  501 -0.24198364510E+02  0.23754475385E+02 -0.10292830554E+03  0.10837006980E+03  0.00000000000E+00 0. -1.
</event>
<event>
 4    1  0.6824761E+001  0.2107256E+02  0.7546771E-02  0.1518231E+00
          2   -1    0    0  502    0  0.00000000000E+00  0.00000000000E+00  0.19641421737E+04  0.19641421737E+04  0.00000000000E+00 0.  1.
         -2   -1    0    0    0  501 -0.00000000000E+00 -0.00000000000E+00 -0.29945779193E+00  0.29945779193E+00  0.00000000000E+00 0. -1.
          1    1    1    2  502    0 -0.85000198567E+01  0.19282182533E+02  0.14681316967E+04  0.14682829195E+04  0.00000000000E+00 0.  1.
         -1    1    1    2    0  501  0.85000198567E+01 -0.19282182533E+02  0.49571101929E+03  0.49615871206E+03  0.00000000000E+00 0. -1.
</event>
<event>
 4    1  0.6824761E+001  0.2363293E+02  0.7546771E-02  0.1484700E+00
          2   -1    0    0  502    0  0.00000000000E+00  0.00000000000E+00  0.13038860014E+04  0.13038860014E+04  0.00000000000E+00 0.  1.
         -2   -1    0    0    0  501 -0.00000000000E+00 -0.00000000000E+00 -0.43509924734E+00  0.43509924734E+00  0.00000000000E+00 0. -1.
          1    1    1    2  502    0 -0.23148963413E+02 -0.47582599392E+01  0.73296870311E+03  0.73334959964E+03  0.00000000000E+00 0. -1.
         -1    1    1    2    0  501  0.23148963413E+02  0.47582599392E+01  0.57048219906E+03  0.57097150104E+03  0.00000000000E+00 0.  1.
</event>
<event>
 4    1  0.6824761E+001  0.2123998E+02  0.7546771E-02  0.1515866E+00
          2   -1    0    0  502    0  0.00000000000E+00  0.00000000000E+00  0.86502134565E+01  0.86502134565E+01  0.00000000000E+00 0.  1.
         -2   -1    0    0    0  501 -0.00000000000E+00 -0.00000000000E+00 -0.54961850141E+02  0.54961850141E+02  0.00000000000E+00 0. -1.
          1    1    1    2  502    0  0.19040984987E+02 -0.94115703472E+01 -0.15965906121E+02  0.26571543499E+02  0.00000000000E+00 0. -1.
         -1    1    1    2    0  501 -0.19040984987E+02  0.94115703472E+01 -0.30345730564E+02  0.37040520098E+02  0.00000000000E+00 0.  1.
</event>
<event>
 4    1  0.6824761E+001  0.2563601E+02  0.7546771E-02  0.1461813E+00
          2   -1    0    0  502    0  0.00000000000E+00  0.00000000000E+00  0.32005575400E+02  0.32005575400E+02  0.00000000000E+00 0.  1.
         -2   -1    0    0    0  501 -0.00000000000E+00 -0.00000000000E+00 -0.20564198807E+02  0.20564198807E+02  0.00000000000E+00 0. -1.
          1    1    1    2  502    0  0.23817105116E+02  0.94842135085E+01  0.67267485689E+01  0.26503847802E+02  0.00000000000E+00 0.  1.
         -1    1    1    2    0  501 -0.23817105116E+02 -0.94842135085E+01  0.47146280244E+01  0.26065926406E+02  0.00000000000E+00 0. -1.
</event>
<event>
 4    1  0.6824761E+001  0.4405421E+02  0.7546771E-02  0.1326237E+00
          2   -1    0    0  502    0  0.00000000000E+00  0.00000000000E+00  0.57655685989E+03  0.57655685989E+03  0.00000000000E+00 0.  1.
         -2   -1    0    0    0  501 -0.00000000000E+00 -0.00000000000E+00 -0.33878076743E+01  0.33878076743E+01  0.00000000000E+00 0. -1.
          1    1    1    2  502    0  0.34011518931E+02  0.27999827299E+02  0.30977221363E+03  0.31288911468E+03  0.00000000000E+00 0. -1.
         -1    1    1    2    0  501 -0.34011518931E+02 -0.27999827299E+02  0.26339683859E+03  0.26705555288E+03  0.00000000000E+00 0.  1.
</event>
<event>
 4    1  0.6824761E+001  0.3362414E+02  0.7546771E-02  0.1390503E+00
          2   -1    0    0  502    0  0.00000000000E+00  0.00000000000E+00  0.45823460201E+02  0.45823460201E+02  0.00000000000E+00 0.  1.
         -2   -1    0    0    0  501 -0.00000000000E+00 -0.00000000000E+00 -0.59239957259E+02  0.59239957259E+02  0.00000000000E+00 0. -1.
          1    1    1    2  502    0  0.30068691004E+02  0.15048466350E+02 -0.46836241469E+02  0.57656014718E+02  0.00000000000E+00 0. -1.
         -1    1    1    2    0  501 -0.30068691004E+02 -0.15048466350E+02  0.33419744411E+02  0.47407402742E+02  0.00000000000E+00 0.  1.
</event>
<event>
 4    1  0.6824761E+001  0.2018423E+02  0.7546771E-02  0.1531238E+00
          2   -1    0    0  502    0  0.00000000000E+00  0.00000000000E+00  0.28318283327E+03  0.28318283327E+03  0.00000000000E+00 0. -1.
         -2   -1    0    0    0  501 -0.00000000000E+00 -0.00000000000E+00 -0.33839215617E+01  0.33839215617E+01  0.00000000000E+00 0.  1.
          1    1    1    2  502    0 -0.12783276060E+02 -0.15620209364E+02  0.31263158405E+02  0.37212741916E+02  0.00000000000E+00 0.  1.
         -1    1    1    2    0  501  0.12783276060E+02  0.15620209364E+02  0.24853575330E+03  0.24935401292E+03  0.00000000000E+00 0. -1.
</event>
<event>
 4    1  0.6824761E+001  0.3801475E+02  0.7546771E-02  0.1360529E+00
          2   -1    0    0  502    0  0.00000000000E+00  0.00000000000E+00  0.83936578674E+01  0.83936578674E+01  0.00000000000E+00 0. -1.
         -2   -1    0    0    0  501 -0.00000000000E+00 -0.00000000000E+00 -0.17319522914E+03  0.17319522914E+03  0.00000000000E+00 0.  1.
          1    1    1    2  502    0 -0.17931022322E+02  0.33520135653E+02 -0.75409123350E+02  0.84449138185E+02  0.00000000000E+00 0.  1.
         -1    1    1    2    0  501  0.17931022322E+02 -0.33520135653E+02 -0.89392447919E+02  0.97139748819E+02  0.00000000000E+00 0. -1.
</event>
<event>
 4    1  0.6824761E+001  0.2189400E+02  0.7546771E-02  0.1506874E+00
          2   -1    0    0  502    0  0.00000000000E+00  0.00000000000E+00  0.10142723756E+04  0.10142723756E+04  0.00000000000E+00 0.  1.
         -2   -1    0    0    0  501 -0.00000000000E+00 -0.00000000000E+00 -0.61709366012E+00  0.61709366012E+00  0.00000000000E+00 0. -1.
          1    1    1    2  502    0 -0.15318624435E+02 -0.15642480201E+02  0.75237438043E+03  0.75269286948E+03  0.00000000000E+00 0.  1.
         -1    1    1    2    0  501  0.15318624435E+02  0.15642480201E+02  0.26128090148E+03  0.26219659975E+03  0.00000000000E+00 0. -1.
</event>
<event>
 4    1  0.6824761E+001  0.2041168E+02  0.7546771E-02  0.1527833E+00
          2   -1    0    0  502    0  0.00000000000E+00  0.00000000000E+00  0.36459953003E+03  0.36459953003E+03  0.00000000000E+00 0.  1.
         -2   -1    0    0    0  501 -0.00000000000E+00 -0.00000000000E+00 -0.11435501439E+01  0.11435501439E+01  0.00000000000E+00 0. -1.
          1    1    1    2  502    0  0.16977509246E+02 -0.11331414088E+02  0.18664217080E+03  0.18775499111E+03  0.00000000000E+00 0.  1.
         -1    1    1    2    0  501 -0.16977509246E+02  0.11331414088E+02  0.17681380909E+03  0.17798808907E+03  0.00000000000E+00 0. -1.
</event>
<event>
 4    1  0.6824761E+001  0.2309371E+02  0.7546771E-02  0.1491325E+00
          2   -1    0    0  502    0  0.00000000000E+00  0.00000000000E+00  0.10520170043E+02  0.10520170043E+02  0.00000000000E+00 0.  1.
         -2   -1    0    0    0  501 -0.00000000000E+00 -0.00000000000E+00 -0.62956610148E+02  0.62956610148E+02  0.00000000000E+00 0. -1.
          1    1    1    2  502    0  0.22880600931E+02 -0.31300775654E+01 -0.42431632994E+02  0.48309033969E+02  0.00000000000E+00 0. -1.
         -1    1    1    2    0  501 -0.22880600931E+02  0.31300775654E+01 -0.10004807111E+02  0.25167746221E+02  0.00000000000E+00 0.  1.
</event>
<event>
 4    1  0.6824761E+001  0.2819030E+02  0.7546771E-02  0.1436004E+00
          2   -1    0    0  502    0  0.00000000000E+00  0.00000000000E+00  0.23299613181E+04  0.23299613181E+04  0.00000000000E+00 0.  1.
         -2   -1    0    0    0  501 -0.00000000000E+00 -0.00000000000E+00 -0.46318919632E+00  0.46318919632E+00  0.00000000000E+00 0. -1.
          1    1    1    2  502    0 -0.28188067595E+02  0.35499897743E+00  0.56646467392E+03  0.56716569006E+03  0.00000000000E+00 0. -1.
         -1    1    1    2    0  501  0.28188067595E+02 -0.35499897743E+00  0.17630334550E+04  0.17632588173E+04  0.00000000000E+00 0.  1.
</event>
<event>
 4    1  0.6824761E+001  0.3139259E+02  0.7546771E-02  0.1407869E+00
          2   -1    0    0  502    0  0.00000000000E+00  0.00000000000E+00  0.25118918471E+02  0.25118918471E+02  0.00000000000E+00 0. -1.
         -2   -1    0    0    0  501 -0.00000000000E+00 -0.00000000000E+00 -0.65093520040E+02  0.65093520040E+02  0.00000000000E+00 0.  1.
          1    1    1    2  502    0  0.25148135073E+02 -0.18790051609E+02 -0.48417818489E+02  0.57704244942E+02  0.00000000000E+00 0.  1.
         -1    1    1    2    0  501 -0.25148135073E+02  0.18790051609E+02  0.84432169197E+01  0.32508193569E+02  0.00000000000E+00 0. -1.
</event>
<event>
 4    1  0.6824761E+001  0.2605178E+02  0.7546771E-02  0.1457373E+00
          2   -1    0    0  502    0  0.00000000000E+00  0.00000000000E+00  0.75474958572E+03  0.75474958572E+03  0.00000000000E+00 0. -1.
         -2   -1    0    0    0  501 -0.00000000000E+00 -0.00000000000E+00 -0.11086526510E+01  0.11086526510E+01  0.00000000000E+00 0.  1.
          1    1    1    2  502    0 -0.13683799847E+01 -0.26015813187E+02  0.54107687799E+03  0.54170368551E+03  0.00000000000E+00 0. -1.
         -1    1    1    2    0  501  0.13683799847E+01  0.26015813187E+02  0.21256405509E+03  0.21415455287E+03  0.00000000000E+00 0.  1.
</event>
<event>
 4    1  0.6824761E+001  0.2460255E+02  0.7546771E-02  0.1473299E+00
          2   -1    0    0  502    0  0.00000000000E+00  0.00000000000E+00  0.48459697249E+03  0.48459697249E+03  0.00000000000E+00 0.  1.
         -2   -1    0    0    0  501 -0.00000000000E+00 -0.00000000000E+00 -0.16267878443E+01  0.16267878443E+01  0.00000000000E+00 0. -1.
          1    1    1    2  502    0  0.20935033379E+02 -0.12923235082E+02  0.35863345784E+03  0.35947634513E+03  0.00000000000E+00 0.  1.
         -1    1    1    2    0  501 -0.20935033379E+02  0.12923235082E+02  0.12433672680E+03  0.12674741520E+03  0.00000000000E+00 0. -1.
</event>
<event>
 4    1  0.6824761E+001  0.2025772E+02  0.7546771E-02  0.1530132E+00
          2   -1    0    0  502    0  0.00000000000E+00  0.00000000000E+00  0.23338348236E+02  0.23338348236E+02  0.00000000000E+00 0. -1.
         -2   -1    0    0    0  501 -0.00000000000E+00 -0.00000000000E+00 -0.17680654230E+02  0.17680654230E+02  0.00000000000E+00 0.  1.
          1    1    1    2  502    0 -0.17538300883E+02 -0.10138208766E+02  0.13103418404E+01  0.20300055926E+02  0.00000000000E+00 0. -1.
         -1    1    1    2    0  501  0.17538300883E+02  0.10138208766E+02  0.43473521661E+01  0.20718946540E+02  0.00000000000E+00 0.  1.
</event>
<event>
 4    1  0.6824761E+001  0.2835355E+02  0.7546771E-02  0.1434466E+00
          2   -1    0    0  502    0  0.00000000000E+00  0.00000000000E+00  0.17214370948E+04  0.17214370948E+04  0.00000000000E+00 0.  1.
         -2   -1    0    0    0  501 -0.00000000000E+00 -0.00000000000E+00 -0.93213533140E+00  0.93213533140E+00  0.00000000000E+00 0. -1.
          1    1    1    2  502    0  0.76488001623E+01 -0.27302378865E+02  0.14685876714E+04  0.14688613524E+04  0.00000000000E+00 0.  1.
         -1    1    1    2    0  501 -0.76488001623E+01  0.27302378865E+02  0.25191728809E+03  0.25350787773E+03  0.00000000000E+00 0. -1.
</event>
<event>
 4    1  0.6824761E+001  0.2186147E+02  0.7546771E-02  0.1507312E+00
          2   -1    0    0  502    0  0.00000000000E+00  0.00000000000E+00  0.18202332497E+04  0.18202332497E+04  0.00000000000E+00 0.  1.
         -2   -1    0    0    0  501 -0.00000000000E+00 -0.00000000000E+00 -0.28191333257E+00  0.28191333257E+00  0.00000000000E+00 0. -1.
          1    1    1    2  502    0  0.76085702826E+01 -0.20494719451E+02  0.67148946290E+03  0.67184523713E+03  0.00000000000E+00 0. -1.
         -1    1    1    2    0  501 -0.76085702826E+01  0.20494719451E+02  0.11484618735E+04  0.11486699260E+04  0.00000000000E+00 0.  1.
</event>
<event>
 4    1  0.6824761E+001  0.2063753E+02  0.7546771E-02  0.1524503E+00
          2   -1    0    0  502    0  0.00000000000E+00  0.00000000000E+00  0.23214740348E+02  0.23214740348E+02  0.00000000000E+00 0.  1.
         -2   -1    0    0    0  501 -0.00000000000E+00 -0.00000000000E+00 -0.18427160401E+02  0.18427160401E+02  0.00000000000E+00 0. -1.
          1    1    1    2  502    0  0.20299312636E+02 -0.37209821187E+01  0.10157317344E+01  0.20662514667E+02  0.00000000000E+00 0. -1.
         -1    1    1    2    0  501 -0.20299312636E+02  0.37209821187E+01  0.37718482132E+01  0.20979386082E+02  0.00000000000E+00 0.  1.
</event>
<event>
 4    1  0.6824761E+001  0.3739231E+02  0.7546771E-02  0.1364484E+00
          2   -1    0    0  502    0  0.00000000000E+00  0.00000000000E+00  0.23493393172E+04  0.23493393172E+04  0.00000000000E+00 0.  1.
         -2   -1    0    0    0  501 -0.00000000000E+00 -0.00000000000E+00 -0.11242095525E+01  0.11242095525E+01  0.00000000000E+00 0. -1.
          1    1    1    2  502    0 -0.31202244138E+02 -0.20605936900E+02  0.19803329353E+04  0.19806859214E+04  0.00000000000E+00 0.  1.
         -1    1    1    2    0  501  0.31202244138E+02  0.20605936900E+02  0.36788217232E+03  0.36977760530E+03  0.00000000000E+00 0. -1.
</event>
<event>
 4    1  0.6824761E+001  0.2124194E+02  0.7546771E-02  0.1515839E+00
          2   -1    0    0  502    0  0.00000000000E+00  0.00000000000E+00  0.70738237728E+03  0.70738237728E+03  0.00000000000E+00 0.  1.
         -2   -1    0    0    0  501 -0.00000000000E+00 -0.00000000000E+00 -0.11179690577E+01  0.11179690577E+01  0.00000000000E+00 0. -1.
          1    1    1    2  502    0 -0.16670002189E+02  0.13165517518E+02  0.58527725946E+03  0.58566260787E+03  0.00000000000E+00 0.  1.
         -1    1    1    2    0  501  0.16670002189E+02 -0.13165517518E+02  0.12098714877E+03  0.12283773847E+03  0.00000000000E+00 0. -1.
</event>
<event>
 4    1  0.6824761E+001  0.3922124E+02  0.7546771E-02  0.1353111E+00
          2   -1    0    0  502    0  0.00000000000E+00  0.00000000000E+00  0.73734573628E+03  0.73734573628E+03  0.00000000000E+00 0.  1.
         -2   -1    0    0    0  501 -0.00000000000E+00 -0.00000000000E+00 -0.23662008361E+01  0.23662008361E+01  0.00000000000E+00 0. -1.
          1    1    1    2  502    0  0.25378881712E+02 -0.29903482683E+02  0.49470185762E+03  0.49625420285E+03  0.00000000000E+00 0. -1.
         -1    1    1    2    0  501 -0.25378881712E+02  0.29903482683E+02  0.24027767782E+03  0.24345773426E+03  0.00000000000E+00 0.  1.
</event>
<event>
 4    1  0.6824761E+001  0.1317997E+03  0.7546771E-02  0.1117885E+00
          2   -1    0    0  502    0  0.00000000000E+00  0.00000000000E+00  0.17296688305E+03  0.17296688305E+03  0.00000000000E+00 0. -1.
         -2   -1    0    0    0  501 -0.00000000000E+00 -0.00000000000E+00 -0.13463318115E+03  0.13463318115E+03  0.00000000000E+00 0.  1.
          1    1    1    2  502    0  0.71184488787E+02  0.11092302295E+03 -0.58352570849E+02  0.14413941511E+03  0.00000000000E+00 0. -1.
         -1    1    1    2    0  501 -0.71184488787E+02 -0.11092302295E+03  0.96686272753E+02  0.16346064909E+03  0.00000000000E+00 0.  1.
</event>
<event>
 4    1  0.6824761E+001  0.2272028E+02  0.7546771E-02  0.1496041E+00
          2   -1    0    0  502    0  0.00000000000E+00  0.00000000000E+00  0.54759299629E+01  0.54759299629E+01  0.00000000000E+00 0.  1.
         -2   -1    0    0    0  501 -0.00000000000E+00 -0.00000000000E+00 -0.99720666791E+02  0.99720666791E+02  0.00000000000E+00 0. -1.
          1    1    1    2  502    0  0.20288576731E+02 -0.10226663659E+02 -0.59420516887E+02  0.63616105056E+02  0.00000000000E+00 0. -1.
         -1    1    1    2    0  501 -0.20288576731E+02  0.10226663659E+02 -0.34824219941E+02  0.41580491698E+02  0.00000000000E+00 0.  1.
</event>
<event>
 4    1  0.6824761E+001  0.2258406E+02  0.7546771E-02  0.1497788E+00
          2   -1    0    0  502    0  0.00000000000E+00  0.00000000000E+00  0.12157008086E+04  0.12157008086E+04  0.00000000000E+00 0.  1.
         -2   -1    0    0    0  501 -0.00000000000E+00 -0.00000000000E+00 -0.65659681507E+00  0.65659681507E+00  0.00000000000E+00 0. -1.
          1    1    1    2  502    0  0.93690492155E+01  0.20548981642E+02  0.24209179353E+03  0.24314291317E+03  0.00000000000E+00 0. -1.
         -1    1    1    2    0  501 -0.93690492155E+01 -0.20548981642E+02  0.97295241821E+03  0.97321449220E+03  0.00000000000E+00 0.  1.
</event>
<event>
 4    1  0.6824761E+001  0.2466521E+02  0.7546771E-02  0.1472584E+00
          2   -1    0    0  502    0  0.00000000000E+00  0.00000000000E+00  0.14121451947E+04  0.14121451947E+04  0.00000000000E+00 0.  1.
         -2   -1    0    0    0  501 -0.00000000000E+00 -0.00000000000E+00 -0.95420197747E+00  0.95420197747E+00  0.00000000000E+00 0. -1.
          1    1    1    2  502    0 -0.22569794141E+02  0.99487125591E+01  0.18231534330E+03  0.18397624002E+03  0.00000000000E+00 0. -1.
         -1    1    1    2    0  501  0.22569794141E+02 -0.99487125591E+01  0.12288756494E+04  0.12291231566E+04  0.00000000000E+00 0.  1.
</event>
<event>
 4    1  0.6824761E+001  0.2600663E+02  0.7546771E-02  0.1457850E+00
          2   -1    0    0  502    0  0.00000000000E+00  0.00000000000E+00  0.52201162835E+03  0.52201162835E+03  0.00000000000E+00 0. -1.
         -2   -1    0    0    0  501 -0.00000000000E+00 -0.00000000000E+00 -0.30803520366E+01  0.30803520366E+01  0.00000000000E+00 0.  1.
          1    1    1    2  502    0 -0.25925175723E+02  0.20566535623E+01  0.45930821821E+03  0.46004389342E+03  0.00000000000E+00 0. -1.
         -1    1    1    2    0  501  0.25925175723E+02 -0.20566535623E+01  0.59623058111E+02  0.65048086972E+02  0.00000000000E+00 0.  1.
</event>
<event>
 4    1  0.6824761E+001  0.2218940E+02  0.7546771E-02  0.1502936E+00
          2   -1    0    0  502    0  0.00000000000E+00  0.00000000000E+00  0.11172341556E+01  0.11172341556E+01  0.00000000000E+00 0.  1.
         -2   -1    0    0    0  501 -0.00000000000E+00 -0.00000000000E+00 -0.51160230828E+03  0.51160230828E+03  0.00000000000E+00 0. -1.
          1    1    1    2  502    0  0.83633089086E+01  0.20552966029E+02 -0.35067632175E+03  0.35137764867E+03  0.00000000000E+00 0. -1.
         -1    1    1    2    0  501 -0.83633089086E+01 -0.20552966029E+02 -0.15980875237E+03  0.16134189376E+03  0.00000000000E+00 0.  1.
</event>
<event>
 4    1  0.6824761E+001  0.3352101E+02  0.7546771E-02  0.1391270E+00
          2   -1    0    0  502    0  0.00000000000E+00  0.00000000000E+00  0.88017137370E+03  0.88017137370E+03  0.00000000000E+00 0. -1.
         -2   -1    0    0    0  501 -0.00000000000E+00 -0.00000000000E+00 -0.12803951645E+01  0.12803951645E+01  0.00000000000E+00 0.  1.
          1    1    1    2  502    0 -0.92699209656E+01  0.32213770490E+02  0.46332598762E+03  0.46453700525E+03  0.00000000000E+00 0.  1.
         -1    1    1    2    0  501  0.92699209656E+01 -0.32213770490E+02  0.41556499091E+03  0.41691476361E+03  0.00000000000E+00 0. -1.
</event>
<event>
 4    1  0.6824761E+001  0.3373103E+02  0.7546771E-02  0.1389711E+00
          2   -1    0    0  502    0  0.00000000000E+00  0.00000000000E+00  0.16800837862E+02  0.16800837862E+02  0.00000000000E+00 0.  1.
         -2   -1    0    0    0  501 -0.00000000000E+00 -0.00000000000E+00 -0.69781174693E+02  0.69781174693E+02  0.00000000000E+00 0. -1.
          1    1    1    2  502    0  0.26880471818E+02 -0.20377006384E+02 -0.19053106106E+02  0.38740198846E+02  0.00000000000E+00 0.  1.
         -1    1    1    2    0  501 -0.26880471818E+02  0.20377006384E+02 -0.33927230725E+02  0.47841813709E+02  0.00000000000E+00 0. -1.
</event>
<event>
 4    1  0.6824761E+001  0.4062844E+02  0.7546771E-02  0.1344842E+00
          2   -1    0    0  502    0  0.00000000000E+00  0.00000000000E+00  0.96522421308E+03  0.96522421308E+03  0.00000000000E+00 0. -1.
         -2   -1    0    0    0  501 -0.00000000000E+00 -0.00000000000E+00 -0.17139834022E+01  0.17139834022E+01  0.00000000000E+00 0.  1.
          1    1    1    2  502    0 -0.40383122018E+02  0.44579534978E+01  0.50464501270E+03  0.50627784737E+03  0.00000000000E+00 0.  1.
         -1    1    1    2    0  501  0.40383122018E+02 -0.44579534978E+01  0.45886521698E+03  0.46066034911E+03  0.00000000000E+00 0. -1.
</event>
<event>
 4    1  0.6824761E+001  0.2757455E+02  0.7546771E-02  0.1441920E+00
          2   -1    0    0  502    0  0.00000000000E+00  0.00000000000E+00  0.77396999055E+02  0.77396999055E+02  0.00000000000E+00 0. -1.
         -2   -1    0    0    0  501 -0.00000000000E+00 -0.00000000000E+00 -0.10004954249E+02  0.10004954249E+02  0.00000000000E+00 0.  1.
          1    1    1    2  502    0 -0.26317837178E+02 -0.82296678857E+01  0.27820507267E+02  0.39170609031E+02  0.00000000000E+00 0. -1.
         -1    1    1    2    0  501  0.26317837178E+02  0.82296678857E+01  0.39571537539E+02  0.48231344274E+02  0.00000000000E+00 0.  1.
</event>
<event>
 4    1  0.6824761E+001  0.2769365E+02  0.7546771E-02  0.1440762E+00
          2   -1    0    0  502    0  0.00000000000E+00  0.00000000000E+00  0.19605344262E+04  0.19605344262E+04  0.00000000000E+00 0. -1.
         -2   -1    0    0    0  501 -0.00000000000E+00 -0.00000000000E+00 -0.44127918340E+00  0.44127918340E+00  0.00000000000E+00 0.  1.
          1    1    1    2  502    0  0.18452954753E+02  0.20650105949E+02  0.13103888909E+04  0.13106814960E+04  0.00000000000E+00 0.  1.
         -1    1    1    2    0  501 -0.18452954753E+02 -0.20650105949E+02  0.64970425604E+03  0.65029420936E+03  0.00000000000E+00 0. -1.
</event>
<event>
 4    1  0.6824761E+001  0.2103483E+02  0.7546771E-02  0.1518768E+00
          2   -1    0    0  502    0  0.00000000000E+00  0.00000000000E+00  0.46921738294E+03  0.46921738294E+03  0.00000000000E+00 0. -1.
         -2   -1    0    0    0  501 -0.00000000000E+00 -0.00000000000E+00 -0.12311202940E+01  0.12311202940E+01  0.00000000000E+00 0.  1.
          1    1    1    2  502    0 -0.20840948411E+02 -0.28493709905E+01  0.12019594129E+03  0.12202265506E+03  0.00000000000E+00 0.  1.
         -1    1    1    2    0  501  0.20840948411E+02  0.28493709905E+01  0.34779032136E+03  0.34842584817E+03  0.00000000000E+00 0. -1.
</event>
<event>
 4    1  0.6824761E+001  0.2078106E+02  0.7546771E-02  0.1522414E+00
          2   -1    0    0  502    0  0.00000000000E+00  0.00000000000E+00  0.33435824261E+02  0.33435824261E+02  0.00000000000E+00 0.  1.
         -2   -1    0    0    0  501 -0.00000000000E+00 -0.00000000000E+00 -0.12993238331E+02  0.12993238331E+02  0.00000000000E+00 0. -1.
          1    1    1    2  502    0  0.17254779473E+01 -0.20709300465E+02  0.84298086308E+01  0.22425745773E+02  0.00000000000E+00 0. -1.
         -1    1    1    2    0  501 -0.17254779473E+01  0.20709300465E+02  0.12012777299E+02  0.24003316819E+02  0.00000000000E+00 0.  1.
</event>
<event>
 4    1  0.6824761E+001  0.2134105E+02  0.7546771E-02  0.1514451E+00
          2   -1    0    0  502    0  0.00000000000E+00  0.00000000000E+00  0.69756017647E+02  0.69756017647E+02  0.00000000000E+00 0. -1.
         -2   -1    0    0    0  501 -0.00000000000E+00 -0.00000000000E+00 -0.85295739906E+01  0.85295739906E+01  0.00000000000E+00 0.  1.
          1    1    1    2  502    0 -0.35660769978E+01 -0.21040993178E+02  0.49569820185E+02  0.53968577638E+02  0.00000000000E+00 0. -1.
         -1    1    1    2    0  501  0.35660769978E+01  0.21040993178E+02  0.11656623471E+02  0.24317013999E+02  0.00000000000E+00 0.  1.
</event>
<event>
 4    1  0.6824761E+001  0.3808052E+02  0.7546771E-02  0.1360116E+00
          2   -1    0    0  502    0  0.00000000000E+00  0.00000000000E+00  0.15673590786E+04  0.15673590786E+04  0.00000000000E+00 0. -1.
         -2   -1    0    0    0  501 -0.00000000000E+00 -0.00000000000E+00 -0.10304686177E+01  0.10304686177E+01  0.00000000000E+00 0.  1.
          1    1    1    2  502    0  0.35489767500E+02 -0.13805884938E+02  0.10338034286E+04  0.10345045457E+04  0.00000000000E+00 0. -1.
         -1    1    1    2    0  501 -0.35489767500E+02  0.13805884938E+02  0.53252518133E+03  0.53388500149E+03  0.00000000000E+00 0.  1.
</event>
<event>
 4    1  0.6824761E+001  0.2553061E+02  0.7546771E-02  0.1462954E+00
          2   -1    0    0  502    0  0.00000000000E+00  0.00000000000E+00  0.83678879718E+03  0.83678879718E+03  0.00000000000E+00 0. -1.
         -2   -1    0    0    0  501 -0.00000000000E+00 -0.00000000000E+00 -0.83014651464E+00  0.83014651464E+00  0.00000000000E+00 0.  1.
          1    1    1    2  502    0  0.24757508825E+02  0.62352045310E+01  0.52199114846E+03  0.52261512711E+03  0.00000000000E+00 0. -1.
         -1    1    1    2    0  501 -0.24757508825E+02 -0.62352045310E+01  0.31396750221E+03  0.31500381658E+03  0.00000000000E+00 0.  1.
</event>
<event>
 4    1  0.6824761E+001  0.2126403E+02  0.7546771E-02  0.1515528E+00
          2   -1    0    0  502    0  0.00000000000E+00  0.00000000000E+00  0.15479002614E+04  0.15479002614E+04  0.00000000000E+00 0.  1.
         -2   -1    0    0    0  501 -0.00000000000E+00 -0.00000000000E+00 -0.34985609153E+00  0.34985609153E+00  0.00000000000E+00 0. -1.
          1    1    1    2  502    0 -0.20799881028E+02 -0.44185922045E+01  0.10882770340E+04  0.10884847549E+04  0.00000000000E+00 0.  1.
         -1    1    1    2    0  501  0.20799881028E+02  0.44185922045E+01  0.45927337127E+03  0.45976536251E+03  0.00000000000E+00 0. -1.
</event>
<event>
 4    1  0.6824761E+001  0.2555007E+02  0.7546771E-02  0.1462743E+00
          2   -1    0    0  502    0  0.00000000000E+00  0.00000000000E+00  0.66858953413E+01  0.66858953413E+01  0.00000000000E+00 0. -1.
         -2   -1    0    0    0  501 -0.00000000000E+00 -0.00000000000E+00 -0.11719729157E+03  0.11719729157E+03  0.00000000000E+00 0.  1.
          1    1    1    2  502    0  0.18005646408E+02 -0.18127406851E+02 -0.80559492241E+02  0.84514128830E+02  0.00000000000E+00 0.  1.
         -1    1    1    2    0  501 -0.18005646408E+02  0.18127406851E+02 -0.29951903985E+02  0.39369058079E+02  0.00000000000E+00 0. -1.
</event>
<event>
 4    1  0.6824761E+001  0.3342552E+02  0.7546771E-02  0.1391983E+00
          2   -1    0    0  502    0  0.00000000000E+00  0.00000000000E+00  0.11881505853E+02  0.11881505853E+02  0.00000000000E+00 0. -1.
         -2   -1    0    0    0  501 -0.00000000000E+00 -0.00000000000E+00 -0.12342997660E+03  0.12342997660E+03  0.00000000000E+00 0.  1.
          1    1    1    2  502    0  0.27951736242E+02  0.18329371911E+02 -0.88791290458E+02  0.94874436466E+02  0.00000000000E+00 0.  1.
         -1    1    1    2    0  501 -0.27951736242E+02 -0.18329371911E+02 -0.22757180292E+02  0.40437045991E+02  0.00000000000E+00 0. -1.
</event>
<event>
 4    1  0.6824761E+001  0.2371423E+02  0.7546771E-02  0.1483719E+00
          2   -1    0    0  502    0  0.00000000000E+00  0.00000000000E+00  0.55230348197E+03  0.55230348197E+03  0.00000000000E+00 0.  1.
         -2   -1    0    0    0  501 -0.00000000000E+00 -0.00000000000E+00 -0.10421652738E+01  0.10421652738E+01  0.00000000000E+00 0. -1.
          1    1    1    2  502    0  0.38751265980E+01  0.23395475199E+02  0.23369010670E+03  0.23489025275E+03  0.00000000000E+00 0.  1.
         -1    1    1    2    0  501 -0.38751265980E+01 -0.23395475199E+02  0.31757121000E+03  0.31845539450E+03  0.00000000000E+00 0. -1.
</event>
<event>
 4    1  0.6824761E+001  0.2684156E+02  0.7546771E-02  0.1449206E+00
          2   -1    0    0  502    0  0.00000000000E+00  0.00000000000E+00  0.17263912108E+01  0.17263912108E+01  0.00000000000E+00 0.  1.
         -2   -1    0    0    0  501 -0.00000000000E+00 -0.00000000000E+00 -0.46083910366E+03  0.46083910366E+03  0.00000000000E+00 0. -1.
          1    1    1    2  502    0 -0.15357945252E+02  0.22013692796E+02 -0.30062452027E+03  0.30182042896E+03  0.00000000000E+00 0. -1.
         -1    1    1    2    0  501  0.15357945252E+02 -0.22013692796E+02 -0.15848819218E+03  0.16074506591E+03  0.00000000000E+00 0.  1.
</event>
<event>
 4    1  0.6824761E+001  0.3248590E+02  0.7546771E-02  0.1399155E+00
          2   -1    0    0  502    0  0.00000000000E+00  0.00000000000E+00  0.37990063828E+01  0.37990063828E+01  0.00000000000E+00 0.  1.
         -2   -1    0    0    0  501 -0.00000000000E+00 -0.00000000000E+00 -0.31559841134E+03  0.31559841134E+03  0.00000000000E+00 0. -1.
          1    1    1    2  502    0  0.31470805911E+02 -0.80574182983E+01 -0.21117316588E+03  0.21365729475E+03  0.00000000000E+00 0. -1.
         -1    1    1    2    0  501 -0.31470805911E+02  0.80574182983E+01 -0.10062623908E+03  0.10574012297E+03  0.00000000000E+00 0.  1.
</event>
<event>
 4    1  0.6824761E+001  0.3767904E+02  0.7546771E-02  0.1362651E+00
          2   -1    0    0  502    0  0.00000000000E+00  0.00000000000E+00  0.93044355154E+03  0.93044355154E+03  0.00000000000E+00 0.  1.
         -2   -1    0    0    0  501 -0.00000000000E+00 -0.00000000000E+00 -0.15282203305E+01  0.15282203305E+01  0.00000000000E+00 0. -1.
          1    1    1    2  502    0 -0.37456582192E+02  0.40883150115E+01  0.48284056255E+03  0.48430849539E+03  0.00000000000E+00 0.  1.
         -1    1    1    2    0  501  0.37456582192E+02 -0.40883150115E+01  0.44607476866E+03  0.44766327648E+03  0.00000000000E+00 0. -1.
</event>
<event>
 4    1  0.6824761E+001  0.2049694E+02  0.7546771E-02  0.1526570E+00
          2   -1    0    0  502    0  0.00000000000E+00  0.00000000000E+00  0.26039441238E+04  0.26039441238E+04  0.00000000000E+00 0.  1.
         -2   -1    0    0    0  501 -0.00000000000E+00 -0.00000000000E+00 -0.16295262838E+00  0.16295262838E+00  0.00000000000E+00 0. -1.
          1    1    1    2  502    0 -0.20436233532E+02 -0.15764046182E+01  0.11724291645E+04  0.11726083193E+04  0.00000000000E+00 0.  1.
         -1    1    1    2    0  501  0.20436233532E+02  0.15764046182E+01  0.14313520067E+04  0.14314987571E+04  0.00000000000E+00 0. -1.
</event>
<event>
 4    1  0.6824761E+001  0.3171419E+02  0.7546771E-02  0.1405263E+00
          2   -1    0    0  502    0  0.00000000000E+00  0.00000000000E+00  0.25852618587E+03  0.25852618587E+03  0.00000000000E+00 0. -1.
         -2   -1    0    0    0  501 -0.00000000000E+00 -0.00000000000E+00 -0.45366372526E+01  0.45366372526E+01  0.00000000000E+00 0.  1.
          1    1    1    2  502    0  0.28283025986E+02  0.14347822311E+02  0.17663495735E+03  0.17945945983E+03  0.00000000000E+00 0. -1.
         -1    1    1    2    0  501 -0.28283025986E+02 -0.14347822311E+02  0.77354591272E+02  0.83603363299E+02  0.00000000000E+00 0.  1.
</event>
<event>
 4    1  0.6824761E+001  0.2835858E+02  0.7546771E-02  0.1434418E+00
          2   -1    0    0  502    0  0.00000000000E+00  0.00000000000E+00  0.63400223250E+03  0.63400223250E+03  0.00000000000E+00 0. -1.
         -2   -1    0    0    0  501 -0.00000000000E+00 -0.00000000000E+00 -0.12703849181E+01  0.12703849181E+01  0.00000000000E+00 0.  1.
          1    1    1    2  502    0  0.30334885753E+01  0.28195873365E+02  0.32871572175E+03  0.32993671371E+03  0.00000000000E+00 0. -1.
         -1    1    1    2    0  501 -0.30334885753E+01 -0.28195873365E+02  0.30401612583E+03  0.30533590370E+03  0.00000000000E+00 0.  1.
</event>
<event>
 4    1  0.6824761E+001  0.4713106E+02  0.7546771E-02  0.1311114E+00
          2   -1    0    0  502    0  0.00000000000E+00  0.00000000000E+00  0.79424071439E+03  0.79424071439E+03  0.00000000000E+00 0.  1.
         -2   -1    0    0    0  501 -0.00000000000E+00 -0.00000000000E+00 -0.35561491546E+01  0.35561491546E+01  0.00000000000E+00 0. -1.
          1    1    1    2  502    0 -0.27558834274E+02 -0.38234113923E+02  0.21101419249E+03  0.21621361254E+03  0.00000000000E+00 0. -1.
         -1    1    1    2    0  501  0.27558834274E+02  0.38234113923E+02  0.57967037275E+03  0.58158325101E+03  0.00000000000E+00 0.  1.
</event>
<event>
 4    1  0.6824761E+001  0.2073980E+02  0.7546771E-02  0.1523013E+00
          2   -1    0    0  502    0  0.00000000000E+00  0.00000000000E+00  0.54396153401E+03  0.54396153401E+03  0.00000000000E+00 0.  1.
         -2   -1    0    0    0  501 -0.00000000000E+00 -0.00000000000E+00 -0.85449444290E+00  0.85449444290E+00  0.00000000000E+00 0. -1.
          1    1    1    2  502    0  0.17925972529E+02 -0.10430659705E+02  0.19715289344E+03  0.19824076912E+03  0.00000000000E+00 0.  1.
         -1    1    1    2    0  501 -0.17925972529E+02  0.10430659705E+02  0.34595414613E+03  0.34657525933E+03  0.00000000000E+00 0. -1.
</event>
<event>
 4    1  0.6824761E+001  0.4363725E+02  0.7546771E-02  0.1328396E+00
          2   -1    0    0  502    0  0.00000000000E+00  0.00000000000E+00  0.27659877577E+03  0.27659877577E+03  0.00000000000E+00 0. -1.
         -2   -1    0    0    0  501 -0.00000000000E+00 -0.00000000000E+00 -0.95595351882E+01  0.95595351882E+01  0.00000000000E+00 0.  1.
          1    1    1    2  502    0  0.18027210601E+02  0.39739521470E+02  0.57830611117E+02  0.72447149501E+02  0.00000000000E+00 0.  1.
         -1    1    1    2    0  501 -0.18027210601E+02 -0.39739521470E+02  0.20920862946E+03  0.21371116146E+03  0.00000000000E+00 0. -1.
</event>
<event>
 4    1  0.6824761E+001  0.2300584E+02  0.7546771E-02  0.1492425E+00
          2   -1    0    0  502    0  0.00000000000E+00  0.00000000000E+00  0.37679892810E+02  0.37679892810E+02  0.00000000000E+00 0. -1.
         -2   -1    0    0    0  501 -0.00000000000E+00 -0.00000000000E+00 -0.20424152361E+02  0.20424152361E+02  0.00000000000E+00 0.  1.
          1    1    1    2  502    0  0.52492297425E+01  0.22398977312E+02  0.24862283448E+02  0.33873318936E+02  0.00000000000E+00 0. -1.
         -1    1    1    2    0  501 -0.52492297425E+01 -0.22398977312E+02 -0.76065429989E+01  0.24230726235E+02  0.00000000000E+00 0.  1.
</event>
<event>
 4    1  0.6824761E+001  0.2280494E+02  0.7546771E-02  0.1494962E+00
          2   -1    0    0  502    0  0.00000000000E+00  0.00000000000E+00  0.12803919383E+01  0.12803919383E+01  0.00000000000E+00 0.  1.
         -2   -1    0    0    0  501 -0.00000000000E+00 -0.00000000000E+00 -0.60450090929E+03  0.60450090929E+03  0.00000000000E+00 0. -1.
          1    1    1    2  502    0  0.60584435441E+01  0.21985460695E+02 -0.47510063323E+03  0.47564763945E+03  0.00000000000E+00 0. -1.
         -1    1    1    2    0  501 -0.60584435441E+01 -0.21985460695E+02 -0.12811988413E+03  0.13013366178E+03  0.00000000000E+00 0.  1.
</event>
<event>
 4    1  0.6824761E+001  0.3212224E+02  0.7546771E-02  0.1402008E+00
          2   -1    0    0  502    0  0.00000000000E+00  0.00000000000E+00  0.10583306977E+02  0.10583306977E+02  0.00000000000E+00 0. -1.
         -2   -1    0    0    0  501 -0.00000000000E+00 -0.00000000000E+00 -0.11093884818E+03  0.11093884818E+03  0.00000000000E+00 0.  1.
          1    1    1    2  502    0 -0.21305624360E+02  0.24039734205E+02 -0.71328070924E+02  0.78227438612E+02  0.00000000000E+00 0.  1.
         -1    1    1    2    0  501  0.21305624360E+02 -0.24039734205E+02 -0.29027470279E+02  0.43294716546E+02  0.00000000000E+00 0. -1.
</event>
<event>
 4    1  0.6824761E+001  0.5522185E+02  0.7546771E-02  0.1276992E+00
          2   -1    0    0  502    0  0.00000000000E+00  0.00000000000E+00  0.20273882632E+04  0.20273882632E+04  0.00000000000E+00 0. -1.
         -2   -1    0    0    0  501 -0.00000000000E+00 -0.00000000000E+00 -0.16055677047E+01  0.16055677047E+01  0.00000000000E+00 0.  1.
          1    1    1    2  502    0  0.62781022938E+01  0.54863816679E+02  0.12678905538E+04  0.12690925535E+04  0.00000000000E+00 0. -1.
         -1    1    1    2    0  501 -0.62781022938E+01 -0.54863816679E+02  0.75789214173E+03  0.75990127744E+03  0.00000000000E+00 0.  1.
</event>
<event>
 4    1  0.6824761E+001  0.2083525E+02  0.7546771E-02  0.1521630E+00
          2   -1    0    0  502    0  0.00000000000E+00  0.00000000000E+00  0.16026280469E+02  0.16026280469E+02  0.00000000000E+00 0. -1.
         -2   -1    0    0    0  501 -0.00000000000E+00 -0.00000000000E+00 -0.31870958546E+02  0.31870958546E+02  0.00000000000E+00 0.  1.
          1    1    1    2  502    0 -0.20746405666E+02 -0.19220280808E+01  0.13559137230E+01  0.20879320919E+02  0.00000000000E+00 0. -1.
         -1    1    1    2    0  501  0.20746405666E+02  0.19220280808E+01 -0.17200591800E+02  0.27017918097E+02  0.00000000000E+00 0.  1.
</event>
<event>
 4    1  0.6824761E+001  0.2041966E+02  0.7546771E-02  0.1527714E+00
          2   -1    0    0  502    0  0.00000000000E+00  0.00000000000E+00  0.15840282358E+02  0.15840282358E+02  0.00000000000E+00 0.  1.
         -2   -1    0    0    0  501 -0.00000000000E+00 -0.00000000000E+00 -0.44316983722E+02  0.44316983722E+02  0.00000000000E+00 0. -1.
          1    1    1    2  502    0  0.16986022703E+02 -0.11333033083E+02 -0.33404617655E+02  0.39151386780E+02  0.00000000000E+00 0. -1.
         -1    1    1    2    0  501 -0.16986022703E+02  0.11333033083E+02  0.49279162914E+01  0.21005879299E+02  0.00000000000E+00 0.  1.
</event>
<event>
 4    1  0.6824761E+001  0.3174830E+02  0.7546771E-02  0.1404989E+00
          2   -1    0    0  502    0  0.00000000000E+00  0.00000000000E+00  0.11727750793E+04  0.11727750793E+04  0.00000000000E+00 0. -1.
         -2   -1    0    0    0  501 -0.00000000000E+00 -0.00000000000E+00 -0.12878735205E+01  0.12878735205E+01  0.00000000000E+00 0.  1.
          1    1    1    2  502    0 -0.17382271271E+02 -0.26567102393E+02  0.24716779188E+03  0.24919845831E+03  0.00000000000E+00 0.  1.
         -1    1    1    2    0  501  0.17382271271E+02  0.26567102393E+02  0.92431941394E+03  0.92486449455E+03  0.00000000000E+00 0. -1.
</event>
<event>
 4    1  0.6824761E+001  0.2386891E+02  0.7546771E-02  0.1481866E+00
          2   -1    0    0  502    0  0.00000000000E+00  0.00000000000E+00  0.51628731617E+02  0.51628731617E+02  0.00000000000E+00 0.  1.
         -2   -1    0    0    0  501 -0.00000000000E+00 -0.00000000000E+00 -0.11423670955E+02  0.11423670955E+02  0.00000000000E+00 0. -1.
          1    1    1    2  502    0  0.66348525398E+01 -0.22928227703E+02  0.14287661418E+02  0.27818378145E+02  0.00000000000E+00 0. -1.
         -1    1    1    2    0  501 -0.66348525398E+01  0.22928227703E+02  0.25917399243E+02  0.35234024427E+02  0.00000000000E+00 0.  1.
</event>
<event>
 4    1  0.6824761E+001  0.6148572E+02  0.7546771E-02  0.1254866E+00
          2   -1    0    0  502    0  0.00000000000E+00  0.00000000000E+00  0.11363874163E+04  0.11363874163E+04  0.00000000000E+00 0.  1.
         -2   -1    0    0    0  501 -0.00000000000E+00 -0.00000000000E+00 -0.38371881272E+01  0.38371881272E+01  0.00000000000E+00 0. -1.
          1    1    1    2  502    0 -0.39000224722E+02  0.47533942685E+02  0.77420613264E+03  0.77664382381E+03  0.00000000000E+00 0.  1.
         -1    1    1    2    0  501  0.39000224722E+02 -0.47533942685E+02  0.35834409555E+03  0.36358078064E+03  0.00000000000E+00 0. -1.
</event>
<event>
 4    1  0.6824761E+001  0.1436997E+03  0.7546771E-02  0.1104255E+00
          2   -1    0    0  502    0  0.00000000000E+00  0.00000000000E+00  0.12596411287E+04  0.12596411287E+04  0.00000000000E+00 0.  1.
         -2   -1    0    0    0  501 -0.00000000000E+00 -0.00000000000E+00 -0.18553382538E+02  0.18553382538E+02  0.00000000000E+00 0. -1.
          1    1    1    2  502    0 -0.12057282201E+03 -0.78178077167E+02  0.83861350255E+03  0.85083619094E+03  0.00000000000E+00 0.  1.
         -1    1    1    2    0  501  0.12057282201E+03  0.78178077167E+02  0.40247424365E+03  0.42735832033E+03  0.00000000000E+00 0. -1.
</event>
<event>
 4    1  0.6824761E+001  0.1001454E+03  0.7546771E-02  0.1163556E+00
          2   -1    0    0  502    0  0.00000000000E+00  0.00000000000E+00  0.13547340926E+04  0.13547340926E+04  0.00000000000E+00 0. -1.
         -2   -1    0    0    0  501 -0.00000000000E+00 -0.00000000000E+00 -0.82402156516E+01  0.82402156516E+01  0.00000000000E+00 0.  1.
          1    1    1    2  502    0 -0.66099139905E+02 -0.75233004667E+02  0.45602377431E+03  0.46689054823E+03  0.00000000000E+00 0.  1.
         -1    1    1    2    0  501  0.66099139905E+02  0.75233004667E+02  0.89047010263E+03  0.89608376002E+03  0.00000000000E+00 0. -1.
</event>
<event>
 4    1  0.6824761E+001  0.2596962E+02  0.7546771E-02  0.1458242E+00
          2   -1    0    0  502    0  0.00000000000E+00  0.00000000000E+00  0.42316683728E+02  0.42316683728E+02  0.00000000000E+00 0. -1.
         -2   -1    0    0    0  501 -0.00000000000E+00 -0.00000000000E+00 -0.16713201527E+02  0.16713201527E+02  0.00000000000E+00 0.  1.
          1    1    1    2  502    0  0.74451396683E+01  0.24879528405E+02  0.64430639518E+01  0.26756945106E+02  0.00000000000E+00 0.  1.
         -1    1    1    2    0  501 -0.74451396683E+01 -0.24879528405E+02  0.19160418249E+02  0.32272940148E+02  0.00000000000E+00 0. -1.
</event>
<event>
 4    1  0.6824761E+001  0.2042704E+02  0.7546771E-02  0.1527605E+00
          2   -1    0    0  502    0  0.00000000000E+00  0.00000000000E+00  0.31669760825E+03  0.31669760825E+03  0.00000000000E+00 0. -1.
         -2   -1    0    0    0  501 -0.00000000000E+00 -0.00000000000E+00 -0.14819945448E+01  0.14819945448E+01  0.00000000000E+00 0.  1.
          1    1    1    2  502    0  0.16691762025E+02  0.11774937901E+02  0.10461312079E+03  0.10658878517E+03  0.00000000000E+00 0.  1.
         -1    1    1    2    0  501 -0.16691762025E+02 -0.11774937901E+02  0.21060249292E+03  0.21159081763E+03  0.00000000000E+00 0. -1.
</event>
<event>
 4    1  0.6824761E+001  0.4199252E+02  0.7546771E-02  0.1337189E+00
          2   -1    0    0  502    0  0.00000000000E+00  0.00000000000E+00  0.60678240318E+03  0.60678240318E+03  0.00000000000E+00 0.  1.
         -2   -1    0    0    0  501 -0.00000000000E+00 -0.00000000000E+00 -0.31750374957E+01  0.31750374957E+01  0.00000000000E+00 0. -1.
          1    1    1    2  502    0 -0.16655045851E+02 -0.38548421595E+02  0.39056411995E+03  0.39281510047E+03  0.00000000000E+00 0.  1.
         -1    1    1    2    0  501  0.16655045851E+02  0.38548421595E+02  0.21304324573E+03  0.21714234021E+03  0.00000000000E+00 0. -1.
</event>
<event>
 4    1  0.6824761E+001  0.2178149E+02  0.7546771E-02  0.1508393E+00
          2   -1    0    0  502    0  0.00000000000E+00  0.00000000000E+00  0.95657866349E+03  0.95657866349E+03  0.00000000000E+00 0. -1.
         -2   -1    0    0    0  501 -0.00000000000E+00 -0.00000000000E+00 -0.15020524668E+01  0.15020524668E+01  0.00000000000E+00 0.  1.
          1    1    1    2  502    0  0.17735782525E+02 -0.12644184900E+02  0.85483708055E+02  0.88215065246E+02  0.00000000000E+00 0.  1.
         -1    1    1    2    0  501 -0.17735782525E+02  0.12644184900E+02  0.86959290297E+03  0.86986565071E+03  0.00000000000E+00 0. -1.
</event>
<event>
 4    1  0.6824761E+001  0.5446935E+02  0.7546771E-02  0.1279877E+00
          2   -1    0    0  502    0  0.00000000000E+00  0.00000000000E+00  0.15316408740E+03  0.15316408740E+03  0.00000000000E+00 0.  1.
         -2   -1    0    0    0  501 -0.00000000000E+00 -0.00000000000E+00 -0.35170294408E+02  0.35170294408E+02  0.00000000000E+00 0. -1.
          1    1    1    2  502    0 -0.47810126515E+02 -0.26097926152E+02  0.12211199930E+03  0.13370957453E+03  0.00000000000E+00 0.  1.
         -1    1    1    2    0  501  0.47810126515E+02  0.26097926152E+02 -0.41182063132E+01  0.54624807277E+02  0.00000000000E+00 0. -1.
</event>
<event>
 4    1  0.6824761E+001  0.3848478E+02  0.7546771E-02  0.1357601E+00
          2   -1    0    0  502    0  0.00000000000E+00  0.00000000000E+00  0.33985945515E+03  0.33985945515E+03  0.00000000000E+00 0.  1.
         -2   -1    0    0    0  501 -0.00000000000E+00 -0.00000000000E+00 -0.45014755986E+01  0.45014755986E+01  0.00000000000E+00 0. -1.
          1    1    1    2  502    0  0.27717743210E+02  0.26698414364E+02  0.13693048129E+03  0.14223584402E+03  0.00000000000E+00 0. -1.
         -1    1    1    2    0  501 -0.27717743210E+02 -0.26698414364E+02  0.19842749827E+03  0.20212508674E+03  0.00000000000E+00 0.  1.
</event>
<event>
 4    1  0.6824761E+001  0.2323877E+02  0.7546771E-02  0.1489521E+00
          2   -1    0    0  502    0  0.00000000000E+00  0.00000000000E+00  0.31437528881E+03  0.31437528881E+03  0.00000000000E+00 0.  1.
         -2   -1    0    0    0  501 -0.00000000000E+00 -0.00000000000E+00 -0.17280934230E+01  0.17280934230E+01  0.00000000000E+00 0. -1.
          1    1    1    2  502    0 -0.22560954616E+02 -0.55717129838E+01  0.16850898936E+03  0.17010385109E+03  0.00000000000E+00 0.  1.
         -1    1    1    2    0  501  0.22560954616E+02  0.55717129838E+01  0.14413820602E+03  0.14599953114E+03  0.00000000000E+00 0. -1.
</event>
<event>
 4    1  0.6824761E+001  0.3943568E+02  0.7546771E-02  0.1351825E+00
          2   -1    0    0  502    0  0.00000000000E+00  0.00000000000E+00  0.27537174362E+02  0.27537174362E+02  0.00000000000E+00 0.  1.
         -2   -1    0    0    0  501 -0.00000000000E+00 -0.00000000000E+00 -0.56712209205E+02  0.56712209205E+02  0.00000000000E+00 0. -1.
          1    1    1    2  502    0  0.18747194379E+02  0.34694599823E+02 -0.17309657672E+02  0.43067351934E+02  0.00000000000E+00 0. -1.
         -1    1    1    2    0  501 -0.18747194379E+02 -0.34694599823E+02 -0.11865377171E+02  0.41182031632E+02  0.00000000000E+00 0.  1.
</event>
<event>
 4    1  0.6824761E+001  0.2080600E+02  0.7546771E-02  0.1522053E+00
          2   -1    0    0  502    0  0.00000000000E+00  0.00000000000E+00  0.12758454395E+04  0.12758454395E+04  0.00000000000E+00 0. -1.
         -2   -1    0    0    0  501 -0.00000000000E+00 -0.00000000000E+00 -0.51098505866E+00  0.51098505866E+00  0.00000000000E+00 0.  1.
          1    1    1    2  502    0  0.20317302082E+02  0.44829640959E+01  0.10075879914E+04  0.10078027833E+04  0.00000000000E+00 0. -1.
         -1    1    1    2    0  501 -0.20317302082E+02 -0.44829640959E+01  0.26774646310E+03  0.26855364126E+03  0.00000000000E+00 0.  1.
</event>
<event>
 4    1  0.6824761E+001  0.2527272E+02  0.7546771E-02  0.1465775E+00
          2   -1    0    0  502    0  0.00000000000E+00  0.00000000000E+00  0.16263583321E+02  0.16263583321E+02  0.00000000000E+00 0.  1.
         -2   -1    0    0    0  501 -0.00000000000E+00 -0.00000000000E+00 -0.68196863555E+02  0.68196863555E+02  0.00000000000E+00 0. -1.
          1    1    1    2  502    0  0.16583255241E+02 -0.19071075654E+02 -0.53469235663E+02  0.59141097752E+02  0.00000000000E+00 0. -1.
         -1    1    1    2    0  501 -0.16583255241E+02  0.19071075654E+02  0.15359554280E+01  0.25319349124E+02  0.00000000000E+00 0.  1.
</event>
<event>
 4    1  0.6824761E+001  0.3968481E+02  0.7546771E-02  0.1350343E+00
          2   -1    0    0  502    0  0.00000000000E+00  0.00000000000E+00  0.73732552453E+03  0.73732552453E+03  0.00000000000E+00 0. -1.
         -2   -1    0    0    0  501 -0.00000000000E+00 -0.00000000000E+00 -0.26345431349E+01  0.26345431349E+01  0.00000000000E+00 0.  1.
          1    1    1    2  502    0  0.32903460827E+02 -0.22186618045E+02  0.20639113447E+03  0.21017179673E+03  0.00000000000E+00 0.  1.
         -1    1    1    2    0  501 -0.32903460827E+02  0.22186618045E+02  0.52829984693E+03  0.52978827093E+03  0.00000000000E+00 0. -1.
</event>
<event>
 4    1  0.6824761E+001  0.2332636E+02  0.7546771E-02  0.1488440E+00
          2   -1    0    0  502    0  0.00000000000E+00  0.00000000000E+00  0.16018879237E+03  0.16018879237E+03  0.00000000000E+00 0.  1.
         -2   -1    0    0    0  501 -0.00000000000E+00 -0.00000000000E+00 -0.44900591462E+01  0.44900591462E+01  0.00000000000E+00 0. -1.
          1    1    1    2  502    0  0.16138337377E+02 -0.16842593514E+02  0.37218483858E+02  0.43924189580E+02  0.00000000000E+00 0. -1.
         -1    1    1    2    0  501 -0.16138337377E+02  0.16842593514E+02  0.11848024936E+03  0.12075466193E+03  0.00000000000E+00 0.  1.
</event>
<event>
 4    1  0.6824761E+001  0.2161685E+02  0.7546771E-02  0.1510637E+00
          2   -1    0    0  502    0  0.00000000000E+00  0.00000000000E+00  0.31764480663E+03  0.31764480663E+03  0.00000000000E+00 0. -1.
         -2   -1    0    0    0  501 -0.00000000000E+00 -0.00000000000E+00 -0.14714468119E+01  0.14714468119E+01  0.00000000000E+00 0.  1.
          1    1    1    2  502    0  0.18942821697E+02 -0.10414300357E+02  0.15564678850E+03  0.15714073601E+03  0.00000000000E+00 0. -1.
         -1    1    1    2    0  501 -0.18942821697E+02  0.10414300357E+02  0.16052657132E+03  0.16197551743E+03  0.00000000000E+00 0.  1.
</event>
<event>
 4    1  0.6824761E+001  0.4699567E+02  0.7546771E-02  0.1311751E+00
          2   -1    0    0  502    0  0.00000000000E+00  0.00000000000E+00  0.19106167117E+04  0.19106167117E+04  0.00000000000E+00 0. -1.
         -2   -1    0    0    0  501 -0.00000000000E+00 -0.00000000000E+00 -0.14510740464E+01  0.14510740464E+01  0.00000000000E+00 0.  1.
          1    1    1    2  502    0 -0.41165412599E+02  0.22671610957E+02  0.52343644809E+03  0.52554191872E+03  0.00000000000E+00 0.  1.
         -1    1    1    2    0  501  0.41165412599E+02 -0.22671610957E+02  0.13857291895E+04  0.13865258670E+04  0.00000000000E+00 0. -1.
</event>
<event>
 4    1  0.6824761E+001  0.5235799E+02  0.7546771E-02  0.1288260E+00
          2   -1    0    0  502    0  0.00000000000E+00  0.00000000000E+00  0.77795882382E+03  0.77795882382E+03  0.00000000000E+00 0.  1.
         -2   -1    0    0    0  501 -0.00000000000E+00 -0.00000000000E+00 -0.45902150155E+01  0.45902150155E+01  0.00000000000E+00 0. -1.
          1    1    1    2  502    0  0.19594548324E+02 -0.48553194682E+02  0.57527983138E+03  0.57765754857E+03  0.00000000000E+00 0.  1.
         -1    1    1    2    0  501 -0.19594548324E+02  0.48553194682E+02  0.19808877743E+03  0.20489149026E+03  0.00000000000E+00 0. -1.
</event>
<event>
 4    1  0.6824761E+001  0.2112798E+02  0.7546771E-02  0.1517445E+00
          2   -1    0    0  502    0  0.00000000000E+00  0.00000000000E+00  0.16040500489E+02  0.16040500489E+02  0.00000000000E+00 0. -1.
         -2   -1    0    0    0  501 -0.00000000000E+00 -0.00000000000E+00 -0.30392870445E+02  0.30392870445E+02  0.00000000000E+00 0.  1.
          1    1    1    2  502    0 -0.14239411661E+01 -0.21079937157E+02 -0.13919306183E+02  0.25300957366E+02  0.00000000000E+00 0.  1.
         -1    1    1    2    0  501  0.14239411661E+01  0.21079937157E+02 -0.43306377366E+00  0.21132413568E+02  0.00000000000E+00 0. -1.
</event>
<event>
 4    1  0.6824761E+001  0.3761963E+02  0.7546771E-02  0.1363029E+00
          2   -1    0    0  502    0  0.00000000000E+00  0.00000000000E+00  0.33392841924E+02  0.33392841924E+02  0.00000000000E+00 0. -1.
         -2   -1    0    0    0  501 -0.00000000000E+00 -0.00000000000E+00 -0.43264597956E+02  0.43264597956E+02  0.00000000000E+00 0.  1.
          1    1    1    2  502    0  0.21482254809E+02  0.30882834925E+02 -0.10412047621E+02  0.39033927554E+02  0.00000000000E+00 0.  1.
         -1    1    1    2    0  501 -0.21482254809E+02 -0.30882834925E+02  0.54029158845E+00  0.37623512325E+02  0.00000000000E+00 0. -1.
</event>
<event>
 4    1  0.6824761E+001  0.3588996E+02  0.7546771E-02  0.1374412E+00
          2   -1    0    0  502    0  0.00000000000E+00  0.00000000000E+00  0.13392395516E+04  0.13392395516E+04  0.00000000000E+00 0.  1.
         -2   -1    0    0    0  501 -0.00000000000E+00 -0.00000000000E+00 -0.12348794277E+01  0.12348794277E+01  0.00000000000E+00 0. -1.
          1    1    1    2  502    0  0.90229532616E+01  0.34737240621E+02  0.35382467635E+03  0.35564025527E+03  0.00000000000E+00 0. -1.
         -1    1    1    2    0  501 -0.90229532616E+01 -0.34737240621E+02  0.98417999582E+03  0.98483417576E+03  0.00000000000E+00 0.  1.
</event>
<event>
 4    1  0.6824761E+001  0.4236630E+02  0.7546771E-02  0.1335151E+00
          2   -1    0    0  502    0  0.00000000000E+00  0.00000000000E+00  0.51543922868E+03  0.51543922868E+03  0.00000000000E+00 0. -1.
         -2   -1    0    0    0  501 -0.00000000000E+00 -0.00000000000E+00 -0.50052178414E+01  0.50052178414E+01  0.00000000000E+00 0.  1.
          1    1    1    2  502    0  0.33367078339E+02  0.26106355403E+02  0.11167666157E+03  0.11944279153E+03  0.00000000000E+00 0.  1.
         -1    1    1    2    0  501 -0.33367078339E+02 -0.26106355403E+02  0.39875734927E+03  0.40100165499E+03  0.00000000000E+00 0. -1.
</event>
<event>
 4    1  0.6824761E+001  0.2606696E+02  0.7546771E-02  0.1457213E+00
          2   -1    0    0  502    0  0.00000000000E+00  0.00000000000E+00  0.24037290260E+03  0.24037290260E+03  0.00000000000E+00 0.  1.
         -2   -1    0    0    0  501 -0.00000000000E+00 -0.00000000000E+00 -0.39275345761E+01  0.39275345761E+01  0.00000000000E+00 0. -1.
          1    1    1    2  502    0 -0.23990116209E+01  0.25956328440E+02  0.53556766435E+02  0.59563524692E+02  0.00000000000E+00 0. -1.
         -1    1    1    2    0  501  0.23990116209E+01 -0.25956328440E+02  0.18288860159E+03  0.18473691248E+03  0.00000000000E+00 0.  1.
</event>
<event>
 4    1  0.6824761E+001  0.3169017E+02  0.7546771E-02  0.1405456E+00
          2   -1    0    0  502    0  0.00000000000E+00  0.00000000000E+00  0.72384409759E+03  0.72384409759E+03  0.00000000000E+00 0. -1.
         -2   -1    0    0    0  501 -0.00000000000E+00 -0.00000000000E+00 -0.14129554687E+01  0.14129554687E+01  0.00000000000E+00 0.  1.
          1    1    1    2  502    0  0.29682449753E+02  0.11100407599E+02  0.31245438685E+03  0.31405733670E+03  0.00000000000E+00 0.  1.
         -1    1    1    2    0  501 -0.29682449753E+02 -0.11100407599E+02  0.40997675527E+03  0.41119971636E+03  0.00000000000E+00 0. -1.
</event>
<event>
 4    1  0.6824761E+001  0.2859216E+02  0.7546771E-02  0.1432238E+00
          2   -1    0    0  502    0  0.00000000000E+00  0.00000000000E+00  0.97684651323E+03  0.97684651323E+03  0.00000000000E+00 0.  1.
         -2   -1    0    0    0  501 -0.00000000000E+00 -0.00000000000E+00 -0.12703921741E+01  0.12703921741E+01  0.00000000000E+00 0. -1.
          1    1    1    2  502    0 -0.17858660939E+02 -0.22328899736E+02  0.77347362517E+03  0.77400191238E+03  0.00000000000E+00 0.  1.
         -1    1    1    2    0  501  0.17858660939E+02  0.22328899736E+02  0.20210249588E+03  0.20411499302E+03  0.00000000000E+00 0. -1.
</event>
<event>
 4    1  0.6824761E+001  0.3326176E+02  0.7546771E-02  0.1393213E+00
          2   -1    0    0  502    0  0.00000000000E+00  0.00000000000E+00  0.21489771205E+04  0.21489771205E+04  0.00000000000E+00 0.  1.
         -2   -1    0    0    0  501 -0.00000000000E+00 -0.00000000000E+00 -0.17135677276E+01  0.17135677276E+01  0.00000000000E+00 0. -1.
          1    1    1    2  502    0  0.37105943731E+01 -0.33054138585E+02  0.19730476132E+04  0.19733279576E+04  0.00000000000E+00 0.  1.
         -1    1    1    2    0  501 -0.37105943731E+01  0.33054138585E+02  0.17421593961E+03  0.17736273059E+03  0.00000000000E+00 0. -1.
</event>
<event>
 4    1  0.6824761E+001  0.2316574E+02  0.7546771E-02  0.1490427E+00
          2   -1    0    0  502    0  0.00000000000E+00  0.00000000000E+00  0.38536295891E+02  0.38536295891E+02  0.00000000000E+00 0. -1.
         -2   -1    0    0    0  501 -0.00000000000E+00 -0.00000000000E+00 -0.14164999896E+02  0.14164999896E+02  0.00000000000E+00 0.  1.
          1    1    1    2  502    0 -0.23165108843E+02 -0.17097942892E+00  0.87619247205E+01  0.24767374235E+02  0.00000000000E+00 0.  1.
         -1    1    1    2    0  501  0.23165108843E+02  0.17097942892E+00  0.15609371275E+02  0.27933921552E+02  0.00000000000E+00 0. -1.
</event>
<event>
 4    1  0.6824761E+001  0.2207548E+02  0.7546771E-02  0.1504446E+00
          2   -1    0    0  502    0  0.00000000000E+00  0.00000000000E+00  0.10042451655E+04  0.10042451655E+04  0.00000000000E+00 0.  1.
         -2   -1    0    0    0  501 -0.00000000000E+00 -0.00000000000E+00 -0.76111674783E+00  0.76111674783E+00  0.00000000000E+00 0. -1.
          1    1    1    2  502    0 -0.21709330753E+02 -0.40039678542E+01  0.19922513634E+03  0.20044446052E+03  0.00000000000E+00 0. -1.
         -1    1    1    2    0  501  0.21709330753E+02  0.40039678542E+01  0.80425891238E+03  0.80456182170E+03  0.00000000000E+00 0.  1.
</event>
<event>
 4    1  0.6824761E+001  0.2997260E+02  0.7546771E-02  0.1419835E+00
          2   -1    0    0  502    0  0.00000000000E+00  0.00000000000E+00  0.27472030156E+04  0.27472030156E+04  0.00000000000E+00 0.  1.
         -2   -1    0    0    0  501 -0.00000000000E+00 -0.00000000000E+00 -0.32925783862E+00  0.32925783862E+00  0.00000000000E+00 0. -1.
          1    1    1    2  502    0 -0.12790482962E+02  0.27106464236E+02  0.14870002310E+04  0.14873022705E+04  0.00000000000E+00 0. -1.
         -1    1    1    2    0  501  0.12790482962E+02 -0.27106464236E+02  0.12598735268E+04  0.12602300029E+04  0.00000000000E+00 0.  1.
</event>
<event>
 4    1  0.6824761E+001  0.4187517E+02  0.7546771E-02  0.1337834E+00
          2   -1    0    0  502    0  0.00000000000E+00  0.00000000000E+00  0.29884279492E+01  0.29884279492E+01  0.00000000000E+00 0. -1.
         -2   -1    0    0    0  501 -0.00000000000E+00 -0.00000000000E+00 -0.66301423399E+03  0.66301423399E+03  0.00000000000E+00 0.  1.
          1    1    1    2  502    0  0.41051607369E+02  0.82641093574E+01 -0.44293486548E+03  0.44490990664E+03  0.00000000000E+00 0.  1.
         -1    1    1    2    0  501 -0.41051607369E+02 -0.82641093574E+01 -0.21709094057E+03  0.22109275530E+03  0.00000000000E+00 0. -1.
</event>
<event>
 4    1  0.6824761E+001  0.4553636E+02  0.7546771E-02  0.1318779E+00
          2   -1    0    0  502    0  0.00000000000E+00  0.00000000000E+00  0.98682032722E+03  0.98682032722E+03  0.00000000000E+00 0.  1.
         -2   -1    0    0    0  501 -0.00000000000E+00 -0.00000000000E+00 -0.21519060664E+01  0.21519060664E+01  0.00000000000E+00 0. -1.
          1    1    1    2  502    0 -0.39952309440E+02  0.21848868192E+02  0.56819920291E+03  0.57002095949E+03  0.00000000000E+00 0.  1.
         -1    1    1    2    0  501  0.39952309440E+02 -0.21848868192E+02  0.41646921824E+03  0.41895127380E+03  0.00000000000E+00 0. -1.
</event>
<event>
 4    1  0.6824761E+001  0.2457984E+02  0.7546771E-02  0.1473559E+00
          2   -1    0    0  502    0  0.00000000000E+00  0.00000000000E+00  0.87707542808E+02  0.87707542808E+02  0.00000000000E+00 0. -1.
         -2   -1    0    0    0  501 -0.00000000000E+00 -0.00000000000E+00 -0.76198449339E+01  0.76198449339E+01  0.00000000000E+00 0.  1.
          1    1    1    2  502    0  0.21478111224E+02 -0.11952383069E+02  0.25276871173E+02  0.35257466430E+02  0.00000000000E+00 0.  1.
         -1    1    1    2    0  501 -0.21478111224E+02  0.11952383069E+02  0.54810826702E+02  0.60069921312E+02  0.00000000000E+00 0. -1.
</event>
<event>
 4    1  0.6824761E+001  0.2118778E+02  0.7546771E-02  0.1516601E+00
          2   -1    0    0  502    0  0.00000000000E+00  0.00000000000E+00  0.12494054092E+03  0.12494054092E+03  0.00000000000E+00 0. -1.
         -2   -1    0    0    0  501 -0.00000000000E+00 -0.00000000000E+00 -0.40629717887E+01  0.40629717887E+01  0.00000000000E+00 0.  1.
          1    1    1    2  502    0 -0.43232823242E+01  0.20742011575E+02  0.38503317792E+02  0.43948006726E+02  0.00000000000E+00 0.  1.
         -1    1    1    2    0  501  0.43232823242E+01 -0.20742011575E+02  0.82374251339E+02  0.85055505982E+02  0.00000000000E+00 0. -1.
</event>
<event>
 4    1  0.6824761E+001  0.2986303E+02  0.7546771E-02  0.1420791E+00
          2   -1    0    0  502    0  0.00000000000E+00  0.00000000000E+00  0.21937758365E+03  0.21937758365E+03  0.00000000000E+00 0.  1.
         -2   -1    0    0    0  501 -0.00000000000E+00 -0.00000000000E+00 -0.46196827798E+01  0.46196827798E+01  0.00000000000E+00 0. -1.
          1    1    1    2  502    0  0.28786021216E+02 -0.79476833280E+01  0.68575173519E+02  0.74795421724E+02  0.00000000000E+00 0. -1.
         -1    1    1    2    0  501 -0.28786021216E+02  0.79476833280E+01  0.14618272735E+03  0.14920184471E+03  0.00000000000E+00 0.  1.
</event>
<event>
 4    1  0.6824761E+001  0.2127288E+02  0.7546771E-02  0.1515404E+00
          2   -1    0    0  502    0  0.00000000000E+00  0.00000000000E+00  0.10089435042E+02  0.10089435042E+02  0.00000000000E+00 0.  1.
         -2   -1    0    0    0  501 -0.00000000000E+00 -0.00000000000E+00 -0.62839462315E+02  0.62839462315E+02  0.00000000000E+00 0. -1.
          1    1    1    2  502    0  0.15606392965E+02  0.14456005641E+02 -0.68660916134E+01  0.22353496695E+02  0.00000000000E+00 0.  1.
         -1    1    1    2    0  501 -0.15606392965E+02 -0.14456005641E+02 -0.45883935660E+02  0.50575400662E+02  0.00000000000E+00 0. -1.
</event>
<event>
 4    1  0.6824761E+001  0.4515544E+02  0.7546771E-02  0.1320664E+00
          2   -1    0    0  502    0  0.00000000000E+00  0.00000000000E+00  0.54833565433E+03  0.54833565433E+03  0.00000000000E+00 0. -1.
         -2   -1    0    0    0  501 -0.00000000000E+00 -0.00000000000E+00 -0.90637294612E+01  0.90637294612E+01  0.00000000000E+00 0.  1.
          1    1    1    2  502    0  0.34411219373E+02  0.29238358971E+02  0.55611133218E+02  0.71635269189E+02  0.00000000000E+00 0.  1.
         -1    1    1    2    0  501 -0.34411219373E+02 -0.29238358971E+02  0.48366079165E+03  0.48576411460E+03  0.00000000000E+00 0. -1.
</event>
<event>
 4    1  0.6824761E+001  0.2763917E+02  0.7546771E-02  0.1441291E+00
          2   -1    0    0  502    0  0.00000000000E+00  0.00000000000E+00  0.57381120701E+03  0.57381120701E+03  0.00000000000E+00 0.  1.
         -2   -1    0    0    0  501 -0.00000000000E+00 -0.00000000000E+00 -0.15146284342E+01  0.15146284342E+01  0.00000000000E+00 0. -1.
          1    1    1    2  502    0  0.17756597024E+02 -0.21180819555E+02  0.38622365240E+03  0.38721135511E+03  0.00000000000E+00 0.  1.
         -1    1    1    2    0  501 -0.17756597024E+02  0.21180819555E+02  0.18607292618E+03  0.18811448033E+03  0.00000000000E+00 0. -1.
</event>
<event>
 4    1  0.6824761E+001  0.2200568E+02  0.7546771E-02  0.1505376E+00
          2   -1    0    0  502    0  0.00000000000E+00  0.00000000000E+00  0.42771359186E+03  0.42771359186E+03  0.00000000000E+00 0.  1.
         -2   -1    0    0    0  501 -0.00000000000E+00 -0.00000000000E+00 -0.11421500321E+01  0.11421500321E+01  0.00000000000E+00 0. -1.
          1    1    1    2  502    0  0.54431001958E+01  0.21321882989E+02  0.23331677426E+03  0.23435222889E+03  0.00000000000E+00 0.  1.
         -1    1    1    2    0  501 -0.54431001958E+01 -0.21321882989E+02  0.19325466757E+03  0.19450351300E+03  0.00000000000E+00 0. -1.
</event>
<event>
 4    1  0.6824761E+001  0.3156156E+02  0.7546771E-02  0.1406495E+00
          2   -1    0    0  502    0  0.00000000000E+00  0.00000000000E+00  0.35481340858E+03  0.35481340858E+03  0.00000000000E+00 0. -1.
         -2   -1    0    0    0  501 -0.00000000000E+00 -0.00000000000E+00 -0.38484170629E+01  0.38484170629E+01  0.00000000000E+00 0.  1.
          1    1    1    2  502    0 -0.29551877049E+02  0.11082353151E+02  0.82215911742E+02  0.88065817047E+02  0.00000000000E+00 0.  1.
         -1    1    1    2    0  501  0.29551877049E+02 -0.11082353151E+02  0.26874907977E+03  0.27059600859E+03  0.00000000000E+00 0. -1.
</event>
<event>
 4    1  0.6824761E+001  0.2581237E+02  0.7546771E-02  0.1459917E+00
          2   -1    0    0  502    0  0.00000000000E+00  0.00000000000E+00  0.76345031101E+03  0.76345031101E+03  0.00000000000E+00 0.  1.
         -2   -1    0    0    0  501 -0.00000000000E+00 -0.00000000000E+00 -0.87276891270E+00  0.87276891270E+00  0.00000000000E+00 0. -1.
          1    1    1    2  502    0 -0.14031786906E+02  0.21665352823E+02  0.38414198551E+03  0.38500823834E+03  0.00000000000E+00 0. -1.
         -1    1    1    2    0  501  0.14031786906E+02 -0.21665352823E+02  0.37843555659E+03  0.37931484159E+03  0.00000000000E+00 0.  1.
</event>
<event>
 4    1  0.6824761E+001  0.2512907E+02  0.7546771E-02  0.1467365E+00
          2   -1    0    0  502    0  0.00000000000E+00  0.00000000000E+00  0.22499630973E+03  0.22499630973E+03  0.00000000000E+00 0.  1.
         -2   -1    0    0    0  501 -0.00000000000E+00 -0.00000000000E+00 -0.34677337218E+01  0.34677337218E+01  0.00000000000E+00 0. -1.
          1    1    1    2  502    0  0.11094132914E+01 -0.25104570008E+02  0.60885477938E+02  0.65867379308E+02  0.00000000000E+00 0. -1.
         -1    1    1    2    0  501 -0.11094132914E+01  0.25104570008E+02  0.16064309807E+03  0.16259666414E+03  0.00000000000E+00 0.  1.
</event>
<event>
 4    1  0.6824761E+001  0.2345413E+02  0.7546771E-02  0.1486873E+00
          2   -1    0    0  502    0  0.00000000000E+00  0.00000000000E+00  0.13278762101E+03  0.13278762101E+03  0.00000000000E+00 0. -1.
         -2   -1    0    0    0  501 -0.00000000000E+00 -0.00000000000E+00 -0.51803952805E+01  0.51803952805E+01  0.00000000000E+00 0.  1.
          1    1    1    2  502    0  0.17318561925E+02  0.15816564361E+02  0.32928639244E+02  0.40427609103E+02  0.00000000000E+00 0.  1.
         -1    1    1    2    0  501 -0.17318561925E+02 -0.15816564361E+02  0.94678586484E+02  0.97540407186E+02  0.00000000000E+00 0. -1.
</event>
<event>
 4    1  0.6824761E+001  0.6582886E+02  0.7546771E-02  0.1241218E+00
          2   -1    0    0  502    0  0.00000000000E+00  0.00000000000E+00  0.16875332200E+03  0.16875332200E+03  0.00000000000E+00 0. -1.
         -2   -1    0    0    0  501 -0.00000000000E+00 -0.00000000000E+00 -0.46610537784E+02  0.46610537784E+02  0.00000000000E+00 0.  1.
          1    1    1    2  502    0 -0.50769642816E+02  0.41903255427E+02  0.13323195866E+03  0.14860751749E+03  0.00000000000E+00 0. -1.
         -1    1    1    2    0  501  0.50769642816E+02 -0.41903255427E+02 -0.11089174438E+02  0.66756342296E+02  0.00000000000E+00 0.  1.
</event>
<event>
 4    1  0.6824761E+001  0.6054130E+02  0.7546771E-02  0.1258004E+00
          2   -1    0    0  502    0  0.00000000000E+00  0.00000000000E+00  0.25005660287E+04  0.25005660287E+04  0.00000000000E+00 0. -1.
         -2   -1    0    0    0  501 -0.00000000000E+00 -0.00000000000E+00 -0.15271227815E+01  0.15271227815E+01  0.00000000000E+00 0.  1.
          1    1    1    2  502    0 -0.53284358062E+02 -0.28740662803E+02  0.99875709712E+03  0.10005903195E+04  0.00000000000E+00 0.  1.
         -1    1    1    2    0  501  0.53284358062E+02  0.28740662803E+02  0.15002818088E+04  0.15015028319E+04  0.00000000000E+00 0. -1.
</event>
<event>
 4    1  0.6824761E+001  0.2046192E+02  0.7546771E-02  0.1527088E+00
          2   -1    0    0  502    0  0.00000000000E+00  0.00000000000E+00  0.24007422759E+03  0.24007422759E+03  0.00000000000E+00 0. -1.
         -2   -1    0    0    0  501 -0.00000000000E+00 -0.00000000000E+00 -0.20963824312E+01  0.20963824312E+01  0.00000000000E+00 0.  1.
          1    1    1    2  502    0  0.16580728114E+02  0.11990404205E+02  0.69345577575E+02  0.72301448581E+02  0.00000000000E+00 0.  1.
         -1    1    1    2    0  501 -0.16580728114E+02 -0.11990404205E+02  0.16863226759E+03  0.16986916144E+03  0.00000000000E+00 0. -1.
</event>
<event>
 4    1  0.6824761E+001  0.2608366E+02  0.7546771E-02  0.1457037E+00
          2   -1    0    0  502    0  0.00000000000E+00  0.00000000000E+00  0.83422878109E+03  0.83422878109E+03  0.00000000000E+00 0. -1.
         -2   -1    0    0    0  501 -0.00000000000E+00 -0.00000000000E+00 -0.82136612433E+00  0.82136612433E+00  0.00000000000E+00 0.  1.
          1    1    1    2  502    0  0.25959438839E+02  0.25425783359E+01  0.38157626426E+03  0.38246673400E+03  0.00000000000E+00 0.  1.
         -1    1    1    2    0  501 -0.25959438839E+02 -0.25425783359E+01  0.45183115070E+03  0.45258341321E+03  0.00000000000E+00 0. -1.
</event>
<event>
 4    1  0.6824761E+001  0.2093484E+02  0.7546771E-02  0.1520197E+00
          2   -1    0    0  502    0  0.00000000000E+00  0.00000000000E+00  0.56667636538E+03  0.56667636538E+03  0.00000000000E+00 0. -1.
         -2   -1    0    0    0  501 -0.00000000000E+00 -0.00000000000E+00 -0.37565672865E+01  0.37565672865E+01  0.00000000000E+00 0.  1.
          1    1    1    2  502    0  0.12160969436E+01 -0.20899490624E+02  0.27293696629E+02  0.34397870222E+02  0.00000000000E+00 0.  1.
         -1    1    1    2    0  501 -0.12160969436E+01  0.20899490624E+02  0.53562610146E+03  0.53603506244E+03  0.00000000000E+00 0. -1.
</event>
<event>
 4    1  0.6824761E+001  0.2502680E+02  0.7546771E-02  0.1468504E+00
          2   -1    0    0  502    0  0.00000000000E+00  0.00000000000E+00  0.19350541111E+04  0.19350541111E+04  0.00000000000E+00 0.  1.
         -2   -1    0    0    0  501 -0.00000000000E+00 -0.00000000000E+00 -0.32928396327E+00  0.32928396327E+00  0.00000000000E+00 0. -1.
          1    1    1    2  502    0  0.17562997894E+02 -0.17829244673E+02  0.84113654234E+03  0.84150877816E+03  0.00000000000E+00 0.  1.
         -1    1    1    2    0  501 -0.17562997894E+02  0.17829244673E+02  0.10935882847E+04  0.10938746169E+04  0.00000000000E+00 0. -1.
</event>
<event>
 4    1  0.6824761E+001  0.2130389E+02  0.7546771E-02  0.1514970E+00
          2   -1    0    0  502    0  0.00000000000E+00  0.00000000000E+00  0.20966872819E+03  0.20966872819E+03  0.00000000000E+00 0. -1.
         -2   -1    0    0    0  501 -0.00000000000E+00 -0.00000000000E+00 -0.28095091432E+01  0.28095091432E+01  0.00000000000E+00 0.  1.
          1    1    1    2  502    0 -0.17031576943E+01 -0.21235697196E+02  0.52530777365E+02  0.56686313623E+02  0.00000000000E+00 0. -1.
         -1    1    1    2    0  501  0.17031576943E+01  0.21235697196E+02  0.15432844169E+03  0.15579192372E+03  0.00000000000E+00 0.  1.
</event>
<event>
 4    1  0.6824761E+001  0.4607176E+02  0.7546771E-02  0.1316166E+00
          2   -1    0    0  502    0  0.00000000000E+00  0.00000000000E+00  0.27808026372E+03  0.27808026372E+03  0.00000000000E+00 0. -1.
         -2   -1    0    0    0  501 -0.00000000000E+00 -0.00000000000E+00 -0.93377060525E+01  0.93377060525E+01  0.00000000000E+00 0.  1.
          1    1    1    2  502    0  0.41514209412E+02 -0.19979418769E+02  0.72969724581E+02  0.86297088380E+02  0.00000000000E+00 0.  1.
         -1    1    1    2    0  501 -0.41514209412E+02  0.19979418769E+02  0.19577283309E+03  0.20112088140E+03  0.00000000000E+00 0. -1.
</event>
<event>
 4    1  0.6824761E+001  0.2807221E+02  0.7546771E-02  0.1437125E+00
          2   -1    0    0  502    0  0.00000000000E+00  0.00000000000E+00  0.91406928238E+03  0.91406928238E+03  0.00000000000E+00 0.  1.
         -2   -1    0    0    0  501 -0.00000000000E+00 -0.00000000000E+00 -0.12545220855E+01  0.12545220855E+01  0.00000000000E+00 0. -1.
          1    1    1    2  502    0  0.23975732942E+02  0.14601815511E+02  0.20045193588E+03  0.20240807144E+03  0.00000000000E+00 0. -1.
         -1    1    1    2    0  501 -0.23975732942E+02 -0.14601815511E+02  0.71236282442E+03  0.71291573303E+03  0.00000000000E+00 0.  1.
</event>
<event>
 4    1  0.6824761E+001  0.2020370E+02  0.7546771E-02  0.1530944E+00
          2   -1    0    0  502    0  0.00000000000E+00  0.00000000000E+00  0.74301294316E+02  0.74301294316E+02  0.00000000000E+00 0.  1.
         -2   -1    0    0    0  501 -0.00000000000E+00 -0.00000000000E+00 -0.88198383630E+01  0.88198383630E+01  0.00000000000E+00 0. -1.
          1    1    1    2  502    0  0.85701007010E+01  0.18295981466E+02  0.58263087509E+02  0.61666659792E+02  0.00000000000E+00 0.  1.
         -1    1    1    2    0  501 -0.85701007010E+01 -0.18295981466E+02  0.72183684434E+01  0.21454472886E+02  0.00000000000E+00 0. -1.
</event>
<event>
 4    1  0.6824761E+001  0.4059108E+02  0.7546771E-02  0.1345056E+00
          2   -1    0    0  502    0  0.00000000000E+00  0.00000000000E+00  0.67717009759E+02  0.67717009759E+02  0.00000000000E+00 0.  1.
         -2   -1    0    0    0  501 -0.00000000000E+00 -0.00000000000E+00 -0.24679184788E+02  0.24679184788E+02  0.00000000000E+00 0. -1.
          1    1    1    2  502    0 -0.40508681733E+02  0.25850367728E+01  0.16033080889E+02  0.43642816061E+02  0.00000000000E+00 0. -1.
         -1    1    1    2    0  501  0.40508681733E+02 -0.25850367728E+01  0.27004744083E+02  0.48753378487E+02  0.00000000000E+00 0.  1.
</event>
<event>
 4    1  0.6824761E+001  0.2304870E+02  0.7546771E-02  0.1491888E+00
          2   -1    0    0  502    0  0.00000000000E+00  0.00000000000E+00  0.37083142526E+03  0.37083142526E+03  0.00000000000E+00 0. -1.
         -2   -1    0    0    0  501 -0.00000000000E+00 -0.00000000000E+00 -0.15043821513E+01  0.15043821513E+01  0.00000000000E+00 0.  1.
          1    1    1    2  502    0 -0.22499135874E+02 -0.50031507664E+01  0.22533775035E+03  0.22651345295E+03  0.00000000000E+00 0.  1.
         -1    1    1    2    0  501  0.22499135874E+02  0.50031507664E+01  0.14398929275E+03  0.14582235446E+03  0.00000000000E+00 0. -1.
</event>
<event>
 4    1  0.6824761E+001  0.2000500E+02  0.7546771E-02  0.1533959E+00
          2   -1    0    0  502    0  0.00000000000E+00  0.00000000000E+00  0.78561641411E+03  0.78561641411E+03  0.00000000000E+00 0. -1.
         -2   -1    0    0    0  501 -0.00000000000E+00 -0.00000000000E+00 -0.56312590765E+00  0.56312590765E+00  0.00000000000E+00 0.  1.
          1    1    1    2  502    0  0.15008631015E+02 -0.13226532182E+02  0.27111955579E+03  0.27185660502E+03  0.00000000000E+00 0.  1.
         -1    1    1    2    0  501 -0.15008631015E+02  0.13226532182E+02  0.51393373241E+03  0.51432293500E+03  0.00000000000E+00 0. -1.
</event>
<event>
 4    1  0.6824761E+001  0.2330148E+02  0.7546771E-02  0.1488747E+00
          2   -1    0    0  502    0  0.00000000000E+00  0.00000000000E+00  0.11996794326E+03  0.11996794326E+03  0.00000000000E+00 0. -1.
         -2   -1    0    0    0  501 -0.00000000000E+00 -0.00000000000E+00 -0.66942774544E+01  0.66942774544E+01  0.00000000000E+00 0.  1.
          1    1    1    2  502    0  0.19452132742E+02  0.12828611520E+02  0.92681097805E+02  0.95565394532E+02  0.00000000000E+00 0. -1.
         -1    1    1    2    0  501 -0.19452132742E+02 -0.12828611520E+02  0.20592568001E+02  0.31096826183E+02  0.00000000000E+00 0.  1.
</event>
<event>
 4    1  0.6824761E+001  0.4067958E+02  0.7546771E-02  0.1344549E+00
          2   -1    0    0  502    0  0.00000000000E+00  0.00000000000E+00  0.86454457844E+03  0.86454457844E+03  0.00000000000E+00 0.  1.
         -2   -1    0    0    0  501 -0.00000000000E+00 -0.00000000000E+00 -0.39965619651E+01  0.39965619651E+01  0.00000000000E+00 0. -1.
          1    1    1    2  502    0 -0.40632944280E+02  0.19473207583E+01  0.11679732183E+03  0.12367878802E+03  0.00000000000E+00 0. -1.
         -1    1    1    2    0  501  0.40632944280E+02 -0.19473207583E+01  0.74375069464E+03  0.74486235239E+03  0.00000000000E+00 0.  1.
</event>
<event>
 4    1  0.6824761E+001  0.6899183E+02  0.7546771E-02  0.1232004E+00
          2   -1    0    0  502    0  0.00000000000E+00  0.00000000000E+00  0.13221375475E+04  0.13221375475E+04  0.00000000000E+00 0. -1.
         -2   -1    0    0    0  501 -0.00000000000E+00 -0.00000000000E+00 -0.36024932144E+01  0.36024932144E+01  0.00000000000E+00 0.  1.
          1    1    1    2  502    0 -0.34977548047E+02 -0.59468000360E+02  0.64230312449E+03  0.64599781398E+03  0.00000000000E+00 0.  1.
         -1    1    1    2    0  501  0.34977548047E+02  0.59468000360E+02  0.67623192982E+03  0.67974222676E+03  0.00000000000E+00 0. -1.
</event>
<event>
 4    1  0.6824761E+001  0.2629517E+02  0.7546771E-02  0.1454820E+00
          2   -1    0    0  502    0  0.00000000000E+00  0.00000000000E+00  0.12518114409E+02  0.12518114409E+02  0.00000000000E+00 0. -1.
         -2   -1    0    0    0  501 -0.00000000000E+00 -0.00000000000E+00 -0.70722667494E+02  0.70722667494E+02  0.00000000000E+00 0.  1.
          1    1    1    2  502    0  0.26295143619E+02  0.38331504409E-01 -0.96252754159E+01  0.28001463785E+02  0.00000000000E+00 0. -1.
         -1    1    1    2    0  501 -0.26295143619E+02 -0.38331504409E-01 -0.48579277670E+02  0.55239318118E+02  0.00000000000E+00 0.  1.
</event>
<event>
 4    1  0.6824761E+001  0.4519460E+02  0.7546771E-02  0.1320469E+00
          2   -1    0    0  502    0  0.00000000000E+00  0.00000000000E+00  0.19940364886E+04  0.19940364886E+04  0.00000000000E+00 0.  1.
         -2   -1    0    0    0  501 -0.00000000000E+00 -0.00000000000E+00 -0.10705325938E+01  0.10705325938E+01  0.00000000000E+00 0. -1.
          1    1    1    2  502    0 -0.95426841332E+01 -0.44175661286E+02  0.78924549190E+03  0.79053842307E+03  0.00000000000E+00 0. -1.
         -1    1    1    2    0  501  0.95426841332E+01  0.44175661286E+02  0.12037204641E+04  0.12045685981E+04  0.00000000000E+00 0.  1.
</event>
<event>
 4    1  0.6824761E+001  0.2817644E+02  0.7546771E-02  0.1436135E+00
          2   -1    0    0  502    0  0.00000000000E+00  0.00000000000E+00  0.81658648236E+03  0.81658648236E+03  0.00000000000E+00 0. -1.
         -2   -1    0    0    0  501 -0.00000000000E+00 -0.00000000000E+00 -0.12430382876E+01  0.12430382876E+01  0.00000000000E+00 0.  1.
          1    1    1    2  502    0  0.10219291837E+02  0.26257906125E+02  0.59853389163E+03  0.59919673813E+03  0.00000000000E+00 0. -1.
         -1    1    1    2    0  501 -0.10219291837E+02 -0.26257906125E+02  0.21680955244E+03  0.21863278251E+03  0.00000000000E+00 0.  1.
</event>
<event>
 4    1  0.6824761E+001  0.2048752E+02  0.7546771E-02  0.1526709E+00
          2   -1    0    0  502    0  0.00000000000E+00  0.00000000000E+00  0.19336160866E+02  0.19336160866E+02  0.00000000000E+00 0.  1.
         -2   -1    0    0    0  501 -0.00000000000E+00 -0.00000000000E+00 -0.22978637106E+02  0.22978637106E+02  0.00000000000E+00 0. -1.
          1    1    1    2  502    0 -0.10106391793E+02  0.17821314684E+02 -0.67975526724E+01  0.21585762310E+02  0.00000000000E+00 0.  1.
         -1    1    1    2    0  501  0.10106391793E+02 -0.17821314684E+02  0.31550764322E+01  0.20729035661E+02  0.00000000000E+00 0. -1.
</event>
<event>
 4    1  0.6824761E+001  0.2048908E+02  0.7546771E-02  0.1526686E+00
          2   -1    0    0  502    0  0.00000000000E+00  0.00000000000E+00  0.26532992494E+03  0.26532992494E+03  0.00000000000E+00 0. -1.
         -2   -1    0    0    0  501 -0.00000000000E+00 -0.00000000000E+00 -0.20133017660E+01  0.20133017660E+01  0.00000000000E+00 0.  1.
          1    1    1    2  502    0 -0.19014360988E+02  0.76325799830E+01  0.19351404788E+03  0.19459570635E+03  0.00000000000E+00 0. -1.
         -1    1    1    2    0  501  0.19014360988E+02 -0.76325799830E+01  0.69802575293E+02  0.72747520360E+02  0.00000000000E+00 0.  1.
</event>
<event>
 4    1  0.6824761E+001  0.2430530E+02  0.7546771E-02  0.1476727E+00
          2   -1    0    0  502    0  0.00000000000E+00  0.00000000000E+00  0.20772295711E+04  0.20772295711E+04  0.00000000000E+00 0. -1.
         -2   -1    0    0    0  501 -0.00000000000E+00 -0.00000000000E+00 -0.33183420899E+00  0.33183420899E+00  0.00000000000E+00 0.  1.
          1    1    1    2  502    0 -0.14128508391E+02  0.19777074629E+02  0.14312256787E+04  0.14314320420E+04  0.00000000000E+00 0. -1.
         -1    1    1    2    0  501  0.14128508391E+02 -0.19777074629E+02  0.64567205812E+03  0.64612936326E+03  0.00000000000E+00 0.  1.
</event>
<event>
 4    1  0.6824761E+001  0.3752041E+02  0.7546771E-02  0.1363662E+00
          2   -1    0    0  502    0  0.00000000000E+00  0.00000000000E+00  0.11624810530E+03  0.11624810530E+03  0.00000000000E+00 0.  1.
         -2   -1    0    0    0  501 -0.00000000000E+00 -0.00000000000E+00 -0.47356805254E+02  0.47356805254E+02  0.00000000000E+00 0. -1.
          1    1    1    2  502    0 -0.36556227435E+02 -0.84512240127E+01 -0.36126630419E+02  0.52085644635E+02  0.00000000000E+00 0. -1.
         -1    1    1    2    0  501  0.36556227435E+02  0.84512240127E+01  0.10501793047E+03  0.11151926592E+03  0.00000000000E+00 0.  1.
</event>
<event>
 4    1  0.6824761E+001  0.2088969E+02  0.7546771E-02  0.1520846E+00
          2   -1    0    0  502    0  0.00000000000E+00  0.00000000000E+00  0.84311698549E+02  0.84311698549E+02  0.00000000000E+00 0. -1.
         -2   -1    0    0    0  501 -0.00000000000E+00 -0.00000000000E+00 -0.92939649009E+01  0.92939649009E+01  0.00000000000E+00 0.  1.
          1    1    1    2  502    0 -0.20866787616E+02  0.97789236497E+00  0.63541109793E+01  0.21834693156E+02  0.00000000000E+00 0.  1.
         -1    1    1    2    0  501  0.20866787616E+02 -0.97789236497E+00  0.68663622669E+02  0.71770970293E+02  0.00000000000E+00 0. -1.
</event>
<event>
 4    1  0.6824761E+001  0.3981168E+02  0.7546771E-02  0.1349593E+00
          2   -1    0    0  502    0  0.00000000000E+00  0.00000000000E+00  0.93775695786E+03  0.93775695786E+03  0.00000000000E+00 0. -1.
         -2   -1    0    0    0  501 -0.00000000000E+00 -0.00000000000E+00 -0.44248248846E+01  0.44248248846E+01  0.00000000000E+00 0.  1.
          1    1    1    2  502    0  0.37193410996E+02  0.14199291492E+02  0.96319911967E+02  0.10422329462E+03  0.00000000000E+00 0.  1.
         -1    1    1    2    0  501 -0.37193410996E+02 -0.14199291492E+02  0.83701222101E+03  0.83795848813E+03  0.00000000000E+00 0. -1.
</event>
<event>
 4    1  0.6824761E+001  0.5409106E+02  0.7546771E-02  0.1281347E+00
          2   -1    0    0  502    0  0.00000000000E+00  0.00000000000E+00  0.53091951031E+03  0.53091951031E+03  0.00000000000E+00 0.  1.
         -2   -1    0    0    0  501 -0.00000000000E+00 -0.00000000000E+00 -0.55211965184E+01  0.55211965184E+01  0.00000000000E+00 0. -1.
          1    1    1    2  502    0 -0.45468675686E+02  0.29299185337E+02  0.25111448205E+03  0.25687414394E+03  0.00000000000E+00 0. -1.
         -1    1    1    2    0  501  0.45468675686E+02 -0.29299185337E+02  0.27428383174E+03  0.27956656289E+03  0.00000000000E+00 0.  1.
</event>
<event>
 4    1  0.6824761E+001  0.2933279E+02  0.7546771E-02  0.1425484E+00
          2   -1    0    0  502    0  0.00000000000E+00  0.00000000000E+00  0.16468497802E+04  0.16468497802E+04  0.00000000000E+00 0. -1.
         -2   -1    0    0    0  501 -0.00000000000E+00 -0.00000000000E+00 -0.55877104906E+00  0.55877104906E+00  0.00000000000E+00 0.  1.
          1    1    1    2  502    0  0.20998929817E+02  0.20480662550E+02  0.61316656100E+03  0.61386777414E+03  0.00000000000E+00 0.  1.
         -1    1    1    2    0  501 -0.20998929817E+02 -0.20480662550E+02  0.10331244481E+04  0.10335407771E+04  0.00000000000E+00 0. -1.
</event>
<event>
 4    1  0.6824761E+001  0.3068926E+02  0.7546771E-02  0.1413700E+00
          2   -1    0    0  502    0  0.00000000000E+00  0.00000000000E+00  0.55232437851E+02  0.55232437851E+02  0.00000000000E+00 0. -1.
         -2   -1    0    0    0  501 -0.00000000000E+00 -0.00000000000E+00 -0.19196486719E+02  0.19196486719E+02  0.00000000000E+00 0.  1.
          1    1    1    2  502    0 -0.55868503332E+01 -0.30176441129E+02  0.30455953491E+02  0.43236507710E+02  0.00000000000E+00 0. -1.
         -1    1    1    2    0  501  0.55868503332E+01  0.30176441129E+02  0.55799976411E+01  0.31192416860E+02  0.00000000000E+00 0.  1.
</event>
<event>
 4    1  0.6824761E+001  0.2103089E+02  0.7546771E-02  0.1518824E+00
          2   -1    0    0  502    0  0.00000000000E+00  0.00000000000E+00  0.72287163395E+01  0.72287163395E+01  0.00000000000E+00 0. -1.
         -2   -1    0    0    0  501 -0.00000000000E+00 -0.00000000000E+00 -0.11035918282E+03  0.11035918282E+03  0.00000000000E+00 0.  1.
          1    1    1    2  502    0  0.14937009336E+02 -0.14804868446E+02 -0.12319608187E+02  0.24373574286E+02  0.00000000000E+00 0. -1.
         -1    1    1    2    0  501 -0.14937009336E+02  0.14804868446E+02 -0.90810858293E+02  0.93214324873E+02  0.00000000000E+00 0.  1.
</event>
<event>
 4    1  0.6824761E+001  0.2196890E+02  0.7546771E-02  0.1505868E+00
          2   -1    0    0  502    0  0.00000000000E+00  0.00000000000E+00  0.57590231242E+01  0.57590231242E+01  0.00000000000E+00 0. -1.
         -2   -1    0    0    0  501 -0.00000000000E+00 -0.00000000000E+00 -0.10420053382E+03  0.10420053382E+03  0.00000000000E+00 0.  1.
          1    1    1    2  502    0 -0.42287613931E+01  0.21558061033E+02 -0.73545046921E+02  0.76756148582E+02  0.00000000000E+00 0.  1.
         -1    1    1    2    0  501  0.42287613931E+01 -0.21558061033E+02 -0.24896463774E+02  0.33203408362E+02  0.00000000000E+00 0. -1.
</event>
<event>
 4    1  0.6824761E+001  0.2119167E+02  0.7546771E-02  0.1516546E+00
          2   -1    0    0  502    0  0.00000000000E+00  0.00000000000E+00  0.73618755098E+03  0.73618755098E+03  0.00000000000E+00 0. -1.
         -2   -1    0    0    0  501 -0.00000000000E+00 -0.00000000000E+00 -0.64749401119E+00  0.64749401119E+00  0.00000000000E+00 0.  1.
          1    1    1    2  502    0  0.15924614489E+02  0.13981903411E+02  0.45640487433E+03  0.45689659255E+03  0.00000000000E+00 0. -1.
         -1    1    1    2    0  501 -0.15924614489E+02 -0.13981903411E+02  0.27913518264E+03  0.27993845244E+03  0.00000000000E+00 0.  1.
</event>
<event>
 4    1  0.6824761E+001  0.3207334E+02  0.7546771E-02  0.1402395E+00
          2   -1    0    0  502    0  0.00000000000E+00  0.00000000000E+00  0.20195782157E+04  0.20195782157E+04  0.00000000000E+00 0.  1.
         -2   -1    0    0    0  501 -0.00000000000E+00 -0.00000000000E+00 -0.90321941697E+00  0.90321941697E+00  0.00000000000E+00 0. -1.
          1    1    1    2  502    0 -0.30928967709E+02 -0.84910603255E+01  0.34222819132E+03  0.34372784886E+03  0.00000000000E+00 0. -1.
         -1    1    1    2    0  501  0.30928967709E+02  0.84910603255E+01  0.16764468049E+04  0.16767535862E+04  0.00000000000E+00 0.  1.
</event>
<event>
 4    1  0.6824761E+001  0.3239186E+02  0.7546771E-02  0.1399889E+00
          2   -1    0    0  502    0  0.00000000000E+00  0.00000000000E+00  0.47938711168E+03  0.47938711168E+03  0.00000000000E+00 0.  1.
         -2   -1    0    0    0  501 -0.00000000000E+00 -0.00000000000E+00 -0.22834171210E+01  0.22834171210E+01  0.00000000000E+00 0. -1.
          1    1    1    2  502    0 -0.18654174898E+02  0.26481207391E+02  0.28760322285E+03  0.28942157207E+03  0.00000000000E+00 0.  1.
         -1    1    1    2    0  501  0.18654174898E+02 -0.26481207391E+02  0.18950047171E+03  0.19224895673E+03  0.00000000000E+00 0. -1.
</event>
<event>
 4    1  0.6824761E+001  0.2691351E+02  0.7546771E-02  0.1448479E+00
          2   -1    0    0  502    0  0.00000000000E+00  0.00000000000E+00  0.67819163220E+01  0.67819163220E+01  0.00000000000E+00 0. -1.
         -2   -1    0    0    0  501 -0.00000000000E+00 -0.00000000000E+00 -0.10779853926E+03  0.10779853926E+03  0.00000000000E+00 0.  1.
          1    1    1    2  502    0  0.18002079707E+02  0.20006547209E+02 -0.56010714841E+02  0.62141266338E+02  0.00000000000E+00 0. -1.
         -1    1    1    2    0  501 -0.18002079707E+02 -0.20006547209E+02 -0.45005908095E+02  0.52439189243E+02  0.00000000000E+00 0.  1.
</event>
<event>
 4    1  0.6824761E+001  0.2759458E+02  0.7546771E-02  0.1441725E+00
          2   -1    0    0  502    0  0.00000000000E+00  0.00000000000E+00  0.23523411298E+02  0.23523411298E+02  0.00000000000E+00 0.  1.
         -2   -1    0    0    0  501 -0.00000000000E+00 -0.00000000000E+00 -0.40246871817E+02  0.40246871817E+02  0.00000000000E+00 0. -1.
          1    1    1    2  502    0  0.27127865265E+02  0.50536747854E+01  0.57438169715E+01  0.28186027320E+02  0.00000000000E+00 0.  1.
         -1    1    1    2    0  501 -0.27127865265E+02 -0.50536747854E+01 -0.22467277491E+02  0.35584255796E+02  0.00000000000E+00 0. -1.
</event>
<event>
 4    1  0.6824761E+001  0.2260697E+02  0.7546771E-02  0.1497493E+00
          2   -1    0    0  502    0  0.00000000000E+00  0.00000000000E+00  0.70605660280E+01  0.70605660280E+01  0.00000000000E+00 0.  1.
         -2   -1    0    0    0  501 -0.00000000000E+00 -0.00000000000E+00 -0.77139534167E+02  0.77139534167E+02  0.00000000000E+00 0. -1.
          1    1    1    2  502    0 -0.19511647227E+02  0.11418007604E+02 -0.24586924501E+02  0.33400481008E+02  0.00000000000E+00 0.  1.
         -1    1    1    2    0  501  0.19511647227E+02 -0.11418007604E+02 -0.45492043638E+02  0.50799619187E+02  0.00000000000E+00 0. -1.
</event>
<event>
 4    1  0.6824761E+001  0.2346046E+02  0.7546771E-02  0.1486796E+00
          2   -1    0    0  502    0  0.00000000000E+00  0.00000000000E+00  0.43486580426E+03  0.43486580426E+03  0.00000000000E+00 0.  1.
         -2   -1    0    0    0  501 -0.00000000000E+00 -0.00000000000E+00 -0.30434689717E+01  0.30434689717E+01  0.00000000000E+00 0. -1.
          1    1    1    2  502    0 -0.18536857967E+02  0.14379778681E+02  0.38325588426E+03  0.38397326204E+03  0.00000000000E+00 0.  1.
         -1    1    1    2    0  501  0.18536857967E+02 -0.14379778681E+02  0.48566451021E+02  0.53936011189E+02  0.00000000000E+00 0. -1.
</event>
<event>
 4    1  0.6824761E+001  0.3317897E+02  0.7546771E-02  0.1393838E+00
          2   -1    0    0  502    0  0.00000000000E+00  0.00000000000E+00  0.11093163160E+02  0.11093163160E+02  0.00000000000E+00 0. -1.
         -2   -1    0    0    0  501 -0.00000000000E+00 -0.00000000000E+00 -0.15795448359E+03  0.15795448359E+03  0.00000000000E+00 0.  1.
          1    1    1    2  502    0 -0.33140085965E+02 -0.16059330262E+01 -0.21895988882E+02  0.39752718747E+02  0.00000000000E+00 0. -1.
         -1    1    1    2    0  501  0.33140085965E+02  0.16059330262E+01 -0.12496533155E+03  0.12929492800E+03  0.00000000000E+00 0.  1.
</event>
<event>
 4    1  0.6824761E+001  0.2293092E+02  0.7546771E-02  0.1493367E+00
          2   -1    0    0  502    0  0.00000000000E+00  0.00000000000E+00  0.13108956672E+03  0.13108956672E+03  0.00000000000E+00 0.  1.
         -2   -1    0    0    0  501 -0.00000000000E+00 -0.00000000000E+00 -0.71397129698E+01  0.71397129698E+01  0.00000000000E+00 0. -1.
          1    1    1    2  502    0  0.21486887635E+02 -0.80088053026E+01  0.16224177503E+02  0.28090055861E+02  0.00000000000E+00 0. -1.
         -1    1    1    2    0  501 -0.21486887635E+02  0.80088053026E+01  0.10772567625E+03  0.11013922383E+03  0.00000000000E+00 0.  1.
</event>
<event>
 4    1  0.6824761E+001  0.2926722E+02  0.7546771E-02  0.1426073E+00
          2   -1    0    0  502    0  0.00000000000E+00  0.00000000000E+00  0.41587757952E+03  0.41587757952E+03  0.00000000000E+00 0. -1.
         -2   -1    0    0    0  501 -0.00000000000E+00 -0.00000000000E+00 -0.24231340104E+01  0.24231340104E+01  0.00000000000E+00 0.  1.
          1    1    1    2  502    0  0.10658231074E+02  0.27257513592E+02  0.12572414586E+03  0.12908574975E+03  0.00000000000E+00 0.  1.
         -1    1    1    2    0  501 -0.10658231074E+02 -0.27257513592E+02  0.28773029965E+03  0.28921496378E+03  0.00000000000E+00 0. -1.
</event>
<event>
 4    1  0.6824761E+001  0.2436144E+02  0.7546771E-02  0.1476075E+00
          2   -1    0    0  502    0  0.00000000000E+00  0.00000000000E+00  0.78358100734E+01  0.78358100734E+01  0.00000000000E+00 0. -1.
         -2   -1    0    0    0  501 -0.00000000000E+00 -0.00000000000E+00 -0.76807674086E+02  0.76807674086E+02  0.00000000000E+00 0.  1.
          1    1    1    2  502    0 -0.10243485693E+02 -0.22103184847E+02 -0.39477037079E+02  0.46388751180E+02  0.00000000000E+00 0.  1.
         -1    1    1    2    0  501  0.10243485693E+02  0.22103184847E+02 -0.29494826934E+02  0.38254732980E+02  0.00000000000E+00 0. -1.
</event>
<event>
 4    1  0.6824761E+001  0.2591814E+02  0.7546771E-02  0.1458789E+00
          2   -1    0    0  502    0  0.00000000000E+00  0.00000000000E+00  0.12270905140E+04  0.12270905140E+04  0.00000000000E+00 0. -1.
         -2   -1    0    0    0  501 -0.00000000000E+00 -0.00000000000E+00 -0.98653003749E+00  0.98653003749E+00  0.00000000000E+00 0.  1.
          1    1    1    2  502    0  0.21030292153E+02  0.15148495870E+02  0.20339478063E+03  0.20503947645E+03  0.00000000000E+00 0.  1.
         -1    1    1    2    0  501 -0.21030292153E+02 -0.15148495870E+02  0.10227092034E+04  0.10230375676E+04  0.00000000000E+00 0. -1.
</event>
<event>
 4    1  0.6824761E+001  0.2069698E+02  0.7546771E-02  0.1523635E+00
          2   -1    0    0  502    0  0.00000000000E+00  0.00000000000E+00  0.29356796325E+03  0.29356796325E+03  0.00000000000E+00 0.  1.
         -2   -1    0    0    0  501 -0.00000000000E+00 -0.00000000000E+00 -0.14928754698E+01  0.14928754698E+01  0.00000000000E+00 0. -1.
          1    1    1    2  502    0  0.20257015066E+02  0.42448143148E+01  0.12386936556E+03  0.12558656310E+03  0.00000000000E+00 0.  1.
         -1    1    1    2    0  501 -0.20257015066E+02 -0.42448143148E+01  0.16820572222E+03  0.16947427562E+03  0.00000000000E+00 0. -1.
</event>
<event>
 4    1  0.6824761E+001  0.2984870E+02  0.7546771E-02  0.1420916E+00
          2   -1    0    0  502    0  0.00000000000E+00  0.00000000000E+00  0.13573238871E+03  0.13573238871E+03  0.00000000000E+00 0.  1.
         -2   -1    0    0    0  501 -0.00000000000E+00 -0.00000000000E+00 -0.90573185525E+01  0.90573185525E+01  0.00000000000E+00 0. -1.
          1    1    1    2  502    0 -0.23992345656E+02 -0.17757026808E+02  0.10132134473E+03  0.10562650968E+03  0.00000000000E+00 0.  1.
         -1    1    1    2    0  501  0.23992345656E+02  0.17757026808E+02  0.25353725427E+02  0.39163197573E+02  0.00000000000E+00 0. -1.
</event>
<event>
 4    1  0.6824761E+001  0.2666769E+02  0.7546771E-02  0.1450975E+00
          2   -1    0    0  502    0  0.00000000000E+00  0.00000000000E+00  0.70390150422E+03  0.70390150422E+03  0.00000000000E+00 0.  1.
         -2   -1    0    0    0  501 -0.00000000000E+00 -0.00000000000E+00 -0.11110970387E+01  0.11110970387E+01  0.00000000000E+00 0. -1.
          1    1    1    2  502    0 -0.17234649859E+01 -0.26611935153E+02  0.24523231251E+03  0.24667803413E+03  0.00000000000E+00 0. -1.
         -1    1    1    2    0  501  0.17234649859E+01  0.26611935153E+02  0.45755809467E+03  0.45833456713E+03  0.00000000000E+00 0.  1.
</event>
<event>
 4    1  0.6824761E+001  0.2515112E+02  0.7546771E-02  0.1467120E+00
          2   -1    0    0  502    0  0.00000000000E+00  0.00000000000E+00  0.47628519995E+02  0.47628519995E+02  0.00000000000E+00 0. -1.
         -2   -1    0    0    0  501 -0.00000000000E+00 -0.00000000000E+00 -0.15748446190E+02  0.15748446190E+02  0.00000000000E+00 0.  1.
          1    1    1    2  502    0  0.16981406622E+02 -0.18552916847E+02  0.33982005929E+01  0.25379650542E+02  0.00000000000E+00 0.  1.
         -1    1    1    2    0  501 -0.16981406622E+02  0.18552916847E+02  0.28481873212E+02  0.37997315643E+02  0.00000000000E+00 0. -1.
</event>
<event>
 4    1  0.6824761E+001  0.3271674E+02  0.7546771E-02  0.1397367E+00
          2   -1    0    0  502    0  0.00000000000E+00  0.00000000000E+00  0.14299841396E+03  0.14299841396E+03  0.00000000000E+00 0.  1.
         -2   -1    0    0    0  501 -0.00000000000E+00 -0.00000000000E+00 -0.97502270244E+01  0.97502270244E+01  0.00000000000E+00 0. -1.
          1    1    1    2  502    0  0.13954474735E+02  0.29591513937E+02  0.10343425725E+03  0.10848516320E+03  0.00000000000E+00 0.  1.
         -1    1    1    2    0  501 -0.13954474735E+02 -0.29591513937E+02  0.29813929691E+02  0.44263477787E+02  0.00000000000E+00 0. -1.
</event>
<event>
 4    1  0.6824761E+001  0.2147996E+02  0.7546771E-02  0.1512521E+00
          2   -1    0    0  502    0  0.00000000000E+00  0.00000000000E+00  0.13121466734E+02  0.13121466734E+02  0.00000000000E+00 0.  1.
         -2   -1    0    0    0  501 -0.00000000000E+00 -0.00000000000E+00 -0.35370738890E+02  0.35370738890E+02  0.00000000000E+00 0. -1.
          1    1    1    2  502    0  0.21385973256E+02  0.20072397849E+01 -0.12983210749E+02  0.25098857046E+02  0.00000000000E+00 0.  1.
         -1    1    1    2    0  501 -0.21385973256E+02 -0.20072397849E+01 -0.92660614067E+01  0.23393348578E+02  0.00000000000E+00 0. -1.
</event>
<event>
 4    1  0.6824761E+001  0.2266152E+02  0.7546771E-02  0.1496793E+00
          2   -1    0    0  502    0  0.00000000000E+00  0.00000000000E+00  0.45249152059E+02  0.45249152059E+02  0.00000000000E+00 0. -1.
         -2   -1    0    0    0  501 -0.00000000000E+00 -0.00000000000E+00 -0.11552851075E+02  0.11552851075E+02  0.00000000000E+00 0.  1.
          1    1    1    2  502    0 -0.56756648793E-01  0.22661445779E+02  0.13077906072E+02  0.26164402790E+02  0.00000000000E+00 0. -1.
         -1    1    1    2    0  501  0.56756648793E-01 -0.22661445779E+02  0.20618394912E+02  0.30637600344E+02  0.00000000000E+00 0.  1.
</event>
<event>
 4    1  0.6824761E+001  0.2553252E+02  0.7546771E-02  0.1462933E+00
          2   -1    0    0  502    0  0.00000000000E+00  0.00000000000E+00  0.71658571841E+03  0.71658571841E+03  0.00000000000E+00 0.  1.
         -2   -1    0    0    0  501 -0.00000000000E+00 -0.00000000000E+00 -0.19498850843E+01  0.19498850843E+01  0.00000000000E+00 0. -1.
          1    1    1    2  502    0  0.25334013390E+02  0.31776429654E+01  0.61971553381E+03  0.62024128570E+03  0.00000000000E+00 0.  1.
         -1    1    1    2    0  501 -0.25334013390E+02 -0.31776429654E+01  0.94920299521E+02  0.98294317793E+02  0.00000000000E+00 0. -1.
</event>
<event>
 4    1  0.6824761E+001  0.2220993E+02  0.7546771E-02  0.1502665E+00
          2   -1    0    0  502    0  0.00000000000E+00  0.00000000000E+00  0.37733262743E+00  0.37733262743E+00  0.00000000000E+00 0. -1.
         -2   -1    0    0    0  501 -0.00000000000E+00 -0.00000000000E+00 -0.18273146135E+04  0.18273146135E+04  0.00000000000E+00 0.  1.
          1    1    1    2  502    0 -0.16653435714E+02 -0.14695035168E+02 -0.42596180084E+03  0.42654042805E+03  0.00000000000E+00 0. -1.
         -1    1    1    2    0  501  0.16653435714E+02  0.14695035168E+02 -0.14009754801E+04  0.14011515181E+04  0.00000000000E+00 0.  1.
</event>
<event>
 4    1  0.6824761E+001  0.2082539E+02  0.7546771E-02  0.1521773E+00
          2   -1    0    0  502    0  0.00000000000E+00  0.00000000000E+00  0.16305128118E+04  0.16305128118E+04  0.00000000000E+00 0. -1.
         -2   -1    0    0    0  501 -0.00000000000E+00 -0.00000000000E+00 -0.26745386778E+00  0.26745386778E+00  0.00000000000E+00 0.  1.
          1    1    1    2  502    0  0.73118908576E+01 -0.19499568235E+02  0.75475808582E+03  0.75504533971E+03  0.00000000000E+00 0.  1.
         -1    1    1    2    0  501 -0.73118908576E+01  0.19499568235E+02  0.87548727216E+03  0.87573492600E+03  0.00000000000E+00 0. -1.
</event>
<event>
 4    1  0.6824761E+001  0.2021280E+02  0.7546771E-02  0.1530807E+00
          2   -1    0    0  502    0  0.00000000000E+00  0.00000000000E+00  0.90636753178E+01  0.90636753178E+01  0.00000000000E+00 0.  1.
         -2   -1    0    0    0  501 -0.00000000000E+00 -0.00000000000E+00 -0.52432398257E+02  0.52432398257E+02  0.00000000000E+00 0. -1.
          1    1    1    2  502    0  0.38955593625E+00 -0.20209046366E+02 -0.33201381318E+02  0.38870156036E+02  0.00000000000E+00 0. -1.
         -1    1    1    2    0  501 -0.38955593625E+00  0.20209046366E+02 -0.10167341621E+02  0.22625917539E+02  0.00000000000E+00 0.  1.
</event>
<event>
 4    1  0.6824761E+001  0.2314487E+02  0.7546771E-02  0.1490687E+00
          2   -1    0    0  502    0  0.00000000000E+00  0.00000000000E+00  0.10613771185E+04  0.10613771185E+04  0.00000000000E+00 0. -1.
         -2   -1    0    0    0  501 -0.00000000000E+00 -0.00000000000E+00 -0.50887047352E+00  0.50887047352E+00  0.00000000000E+00 0.  1.
          1    1    1    2  502    0 -0.18146071684E+02  0.14366801203E+02  0.57845730177E+03  0.57892014550E+03  0.00000000000E+00 0.  1.
         -1    1    1    2    0  501  0.18146071684E+02 -0.14366801203E+02  0.48241094631E+03  0.48296584352E+03  0.00000000000E+00 0. -1.
</event>
<event>
 4    1  0.6824761E+001  0.2673948E+02  0.7546771E-02  0.1450243E+00
          2   -1    0    0  502    0  0.00000000000E+00  0.00000000000E+00  0.46344131765E+03  0.46344131765E+03  0.00000000000E+00 0. -1.
         -2   -1    0    0    0  501 -0.00000000000E+00 -0.00000000000E+00 -0.15488988879E+01  0.15488988879E+01  0.00000000000E+00 0.  1.
          1    1    1    2  502    0 -0.24221786470E+02 -0.11327182243E+02  0.21636419300E+03  0.21801023831E+03  0.00000000000E+00 0.  1.
         -1    1    1    2    0  501  0.24221786470E+02  0.11327182243E+02  0.24552822577E+03  0.24697997823E+03  0.00000000000E+00 0. -1.
</event>
<event>
 4    1  0.6824761E+001  0.2040498E+02  0.7546771E-02  0.1527932E+00
          2   -1    0    0  502    0  0.00000000000E+00  0.00000000000E+00  0.27139755796E+03  0.27139755796E+03  0.00000000000E+00 0.  1.
         -2   -1    0    0    0  501 -0.00000000000E+00 -0.00000000000E+00 -0.24730663496E+01  0.24730663496E+01  0.00000000000E+00 0. -1.
          1    1    1    2  502    0  0.17178985898E+02 -0.11011152631E+02  0.50087530152E+02  0.54084412870E+02  0.00000000000E+00 0. -1.
         -1    1    1    2    0  501 -0.17178985898E+02  0.11011152631E+02  0.21883696146E+03  0.21978621144E+03  0.00000000000E+00 0.  1.
</event>
<event>
 4    1  0.6824761E+001  0.2382571E+02  0.7546771E-02  0.1482382E+00
          2   -1    0    0  502    0  0.00000000000E+00  0.00000000000E+00  0.23689066702E+03  0.23689066702E+03  0.00000000000E+00 0.  1.
         -2   -1    0    0    0  501 -0.00000000000E+00 -0.00000000000E+00 -0.24450424308E+01  0.24450424308E+01  0.00000000000E+00 0. -1.
          1    1    1    2  502    0  0.23469623924E+02  0.41037840744E+01  0.13411663696E+03  0.13621650635E+03  0.00000000000E+00 0.  1.
         -1    1    1    2    0  501 -0.23469623924E+02 -0.41037840744E+01  0.10032898763E+03  0.10311920311E+03  0.00000000000E+00 0. -1.
</event>
<event>
 4    1  0.6824761E+001  0.6691313E+02  0.7546771E-02  0.1237995E+00
          2   -1    0    0  502    0  0.00000000000E+00  0.00000000000E+00  0.76372956524E+03  0.76372956524E+03  0.00000000000E+00 0.  1.
         -2   -1    0    0    0  501 -0.00000000000E+00 -0.00000000000E+00 -0.73537707826E+01  0.73537707826E+01  0.00000000000E+00 0. -1.
          1    1    1    2  502    0  0.49096741490E+02 -0.45462920222E+02  0.20457017935E+03  0.21523551152E+03  0.00000000000E+00 0. -1.
         -1    1    1    2    0  501 -0.49096741490E+02  0.45462920222E+02  0.55180561510E+03  0.55584782449E+03  0.00000000000E+00 0.  1.
</event>
<event>
 4    1  0.6824761E+001  0.2547583E+02  0.7546771E-02  0.1463550E+00
          2   -1    0    0  502    0  0.00000000000E+00  0.00000000000E+00  0.60455351580E+01  0.60455351580E+01  0.00000000000E+00 0.  1.
         -2   -1    0    0    0  501 -0.00000000000E+00 -0.00000000000E+00 -0.11949159100E+03  0.11949159100E+03  0.00000000000E+00 0. -1.
          1    1    1    2  502    0 -0.13360085021E+02  0.21691612835E+02 -0.76727325974E+02  0.80846153219E+02  0.00000000000E+00 0.  1.
         -1    1    1    2    0  501  0.13360085021E+02 -0.21691612835E+02 -0.36718729866E+02  0.44690972937E+02  0.00000000000E+00 0. -1.
</event>
<event>
 4    1  0.6824761E+001  0.2543793E+02  0.7546771E-02  0.1463963E+00
          2   -1    0    0  502    0  0.00000000000E+00  0.00000000000E+00  0.35956077335E+01  0.35956077335E+01  0.00000000000E+00 0. -1.
         -2   -1    0    0    0  501 -0.00000000000E+00 -0.00000000000E+00 -0.24940334071E+03  0.24940334071E+03  0.00000000000E+00 0.  1.
          1    1    1    2  502    0  0.22775302234E+02  0.11330222314E+02 -0.18965107290E+03  0.19134946507E+03  0.00000000000E+00 0.  1.
         -1    1    1    2    0  501 -0.22775302234E+02 -0.11330222314E+02 -0.56156660072E+02  0.61649483371E+02  0.00000000000E+00 0. -1.
</event>
<event>
 4    1  0.6824761E+001  0.4575418E+02  0.7546771E-02  0.1317711E+00
          2   -1    0    0  502    0  0.00000000000E+00  0.00000000000E+00  0.23588047176E+04  0.23588047176E+04  0.00000000000E+00 0. -1.
         -2   -1    0    0    0  501 -0.00000000000E+00 -0.00000000000E+00 -0.11027333237E+01  0.11027333237E+01  0.00000000000E+00 0.  1.
          1    1    1    2  502    0 -0.17587747618E+02  0.42238797143E+02  0.65755779175E+03  0.65914770297E+03  0.00000000000E+00 0.  1.
         -1    1    1    2    0  501  0.17587747618E+02 -0.42238797143E+02  0.17001441925E+04  0.17007597480E+04  0.00000000000E+00 0. -1.
</event>
<event>
 4    1  0.6824761E+001  0.2516094E+02  0.7546771E-02  0.1467011E+00
          2   -1    0    0  502    0  0.00000000000E+00  0.00000000000E+00  0.12918953956E+03  0.12918953956E+03  0.00000000000E+00 0. -1.
         -2   -1    0    0    0  501 -0.00000000000E+00 -0.00000000000E+00 -0.14941484942E+02  0.14941484942E+02  0.00000000000E+00 0.  1.
          1    1    1    2  502    0 -0.23683678608E+02  0.84944703915E+01  0.11620154198E+03  0.11889436916E+03  0.00000000000E+00 0. -1.
         -1    1    1    2    0  501  0.23683678608E+02 -0.84944703915E+01 -0.19534873676E+01  0.25236655335E+02  0.00000000000E+00 0.  1.
</event>
<event>
 4    1  0.6824761E+001  0.2264794E+02  0.7546771E-02  0.1496967E+00
          2   -1    0    0  502    0  0.00000000000E+00  0.00000000000E+00  0.40836134542E+02  0.40836134542E+02  0.00000000000E+00 0. -1.
         -2   -1    0    0    0  501 -0.00000000000E+00 -0.00000000000E+00 -0.13390035163E+02  0.13390035163E+02  0.00000000000E+00 0.  1.
          1    1    1    2  502    0  0.22381949045E+02  0.34608687095E+01  0.20470826031E+02  0.30528412563E+02  0.00000000000E+00 0. -1.
         -1    1    1    2    0  501 -0.22381949045E+02 -0.34608687095E+01  0.69752733490E+01  0.23697757142E+02  0.00000000000E+00 0.  1.
</event>
<event>
 4    1  0.6824761E+001  0.2297275E+02  0.7546771E-02  0.1492841E+00
          2   -1    0    0  502    0  0.00000000000E+00  0.00000000000E+00  0.12517269968E+04  0.12517269968E+04  0.00000000000E+00 0.  1.
         -2   -1    0    0    0  501 -0.00000000000E+00 -0.00000000000E+00 -0.46446459669E+00  0.46446459669E+00  0.00000000000E+00 0. -1.
          1    1    1    2  502    0 -0.22622451374E+02  0.39965185769E+01  0.43546415081E+03  0.43606968951E+03  0.00000000000E+00 0. -1.
         -1    1    1    2    0  501  0.22622451374E+02 -0.39965185769E+01  0.81579838142E+03  0.81612177191E+03  0.00000000000E+00 0.  1.
</event>
<event>
 4    1  0.6824761E+001  0.8135311E+02  0.7546771E-02  0.1200741E+00
          2   -1    0    0  502    0  0.00000000000E+00  0.00000000000E+00  0.38108917130E+03  0.38108917130E+03  0.00000000000E+00 0.  1.
         -2   -1    0    0    0  501 -0.00000000000E+00 -0.00000000000E+00 -0.23952418680E+02  0.23952418680E+02  0.00000000000E+00 0. -1.
          1    1    1    2  502    0  0.38350423311E+02  0.71746588227E+02  0.72376629873E+02  0.10888849545E+03  0.00000000000E+00 0. -1.
         -1    1    1    2    0  501 -0.38350423311E+02 -0.71746588227E+02  0.28476012274E+03  0.29615309452E+03  0.00000000000E+00 0.  1.
</event>
<event>
 4    1  0.6824761E+001  0.4333995E+02  0.7546771E-02  0.1329952E+00
          2   -1    0    0  502    0  0.00000000000E+00  0.00000000000E+00  0.24349181350E+03  0.24349181350E+03  0.00000000000E+00 0.  1.
         -2   -1    0    0    0  501 -0.00000000000E+00 -0.00000000000E+00 -0.10131735618E+02  0.10131735618E+02  0.00000000000E+00 0. -1.
          1    1    1    2  502    0  0.12988142211E+02 -0.41348028759E+02  0.17862437436E+03  0.18380701411E+03  0.00000000000E+00 0.  1.
         -1    1    1    2    0  501 -0.12988142211E+02  0.41348028759E+02  0.54735703520E+02  0.69816535006E+02  0.00000000000E+00 0. -1.
</event>
<event>
 4    1  0.6824761E+001  0.2313045E+02  0.7546771E-02  0.1490867E+00
          2   -1    0    0  502    0  0.00000000000E+00  0.00000000000E+00  0.50332021218E+01  0.50332021218E+01  0.00000000000E+00 0. -1.
         -2   -1    0    0    0  501 -0.00000000000E+00 -0.00000000000E+00 -0.11844934236E+03  0.11844934236E+03  0.00000000000E+00 0.  1.
          1    1    1    2  502    0  0.50149642713E+01 -0.22580250225E+02 -0.76483575780E+02  0.79904661510E+02  0.00000000000E+00 0.  1.
         -1    1    1    2    0  501 -0.50149642713E+01  0.22580250225E+02 -0.36932564458E+02  0.43577882972E+02  0.00000000000E+00 0. -1.
</event>
<event>
 4    1  0.6824761E+001  0.2426927E+02  0.7546771E-02  0.1477147E+00
          2   -1    0    0  502    0  0.00000000000E+00  0.00000000000E+00  0.15023417198E+02  0.15023417198E+02  0.00000000000E+00 0. -1.
         -2   -1    0    0    0  501 -0.00000000000E+00 -0.00000000000E+00 -0.39719119124E+02  0.39719119124E+02  0.00000000000E+00 0.  1.
          1    1    1    2  502    0  0.14123614594E+02  0.19736282912E+02 -0.92346539665E+01  0.25966828575E+02  0.00000000000E+00 0.  1.
         -1    1    1    2    0  501 -0.14123614594E+02 -0.19736282912E+02 -0.15461047959E+02  0.28775707748E+02  0.00000000000E+00 0. -1.
</event>
<event>
 4    1  0.6824761E+001  0.2355145E+02  0.7546771E-02  0.1485687E+00
          2   -1    0    0  502    0  0.00000000000E+00  0.00000000000E+00  0.27133307382E+03  0.27133307382E+03  0.00000000000E+00 0.  1.
         -2   -1    0    0    0  501 -0.00000000000E+00 -0.00000000000E+00 -0.21913712827E+01  0.21913712827E+01  0.00000000000E+00 0. -1.
          1    1    1    2  502    0 -0.22194030876E+02  0.78800935408E+01  0.17000773038E+03  0.17163128872E+03  0.00000000000E+00 0. -1.
         -1    1    1    2    0  501  0.22194030876E+02 -0.78800935408E+01  0.99133972160E+02  0.10189315638E+03  0.00000000000E+00 0.  1.
</event>
<event>
 4    1  0.6824761E+001  0.2825067E+02  0.7546771E-02  0.1435434E+00
          2   -1    0    0  502    0  0.00000000000E+00  0.00000000000E+00  0.71757450074E+02  0.71757450074E+02  0.00000000000E+00 0.  1.
         -2   -1    0    0    0  501 -0.00000000000E+00 -0.00000000000E+00 -0.13578847669E+02  0.13578847669E+02  0.00000000000E+00 0. -1.
          1    1    1    2  502    0  0.21605734097E+02  0.18201445130E+02  0.10940655392E+02  0.30295185939E+02  0.00000000000E+00 0. -1.
         -1    1    1    2    0  501 -0.21605734097E+02 -0.18201445130E+02  0.47237947013E+02  0.55041111805E+02  0.00000000000E+00 0.  1.
</event>
<event>
 4    1  0.6824761E+001  0.2690368E+02  0.7546771E-02  0.1448578E+00
          2   -1    0    0  502    0  0.00000000000E+00  0.00000000000E+00  0.17645327699E+03  0.17645327699E+03  0.00000000000E+00 0. -1.
         -2   -1    0    0    0  501 -0.00000000000E+00 -0.00000000000E+00 -0.53035900521E+01  0.53035900521E+01  0.00000000000E+00 0.  1.
          1    1    1    2  502    0 -0.26302987474E+02  0.56533720132E+01  0.42317715205E+02  0.50145755407E+02  0.00000000000E+00 0.  1.
         -1    1    1    2    0  501  0.26302987474E+02 -0.56533720132E+01  0.12883197173E+03  0.13161111163E+03  0.00000000000E+00 0. -1.
</event>
<event>
 4    1  0.6824761E+001  0.2264918E+02  0.7546771E-02  0.1496951E+00
          2   -1    0    0  502    0  0.00000000000E+00  0.00000000000E+00  0.25603693013E+01  0.25603693013E+01  0.00000000000E+00 0.  1.
         -2   -1    0    0    0  501 -0.00000000000E+00 -0.00000000000E+00 -0.21468796416E+03  0.21468796416E+03  0.00000000000E+00 0. -1.
          1    1    1    2  502    0  0.22499289018E+02  0.26014260832E+01 -0.13412944311E+03  0.13602827991E+03  0.00000000000E+00 0. -1.
         -1    1    1    2    0  501 -0.22499289018E+02 -0.26014260832E+01 -0.77998151740E+02  0.81220053551E+02  0.00000000000E+00 0.  1.
</event>
<event>
 4    1  0.6824761E+001  0.2037199E+02  0.7546771E-02  0.1528423E+00
          2   -1    0    0  502    0  0.00000000000E+00  0.00000000000E+00  0.14537981305E+02  0.14537981305E+02  0.00000000000E+00 0. -1.
         -2   -1    0    0    0  501 -0.00000000000E+00 -0.00000000000E+00 -0.61664974952E+02  0.61664974952E+02  0.00000000000E+00 0.  1.
          1    1    1    2  502    0 -0.18505206402E+02  0.85191202601E+01  0.43589443138E+01  0.20833109934E+02  0.00000000000E+00 0. -1.
         -1    1    1    2    0  501  0.18505206402E+02 -0.85191202601E+01 -0.51485937961E+02  0.55369846322E+02  0.00000000000E+00 0.  1.
</event>
<event>
 4    1  0.6824761E+001  0.3152432E+02  0.7546771E-02  0.1406797E+00
          2   -1    0    0  502    0  0.00000000000E+00  0.00000000000E+00  0.52294235308E+02  0.52294235308E+02  0.00000000000E+00 0. -1.
         -2   -1    0    0    0  501 -0.00000000000E+00 -0.00000000000E+00 -0.19312063384E+02  0.19312063384E+02  0.00000000000E+00 0.  1.
          1    1    1    2  502    0  0.31318782396E+02 -0.35939824817E+01  0.11966765524E+02  0.33719227718E+02  0.00000000000E+00 0. -1.
         -1    1    1    2    0  501 -0.31318782396E+02  0.35939824817E+01  0.21015406400E+02  0.37887070974E+02  0.00000000000E+00 0.  1.
</event>
<event>
 4    1  0.6824761E+001  0.2809128E+02  0.7546771E-02  0.1436944E+00
          2   -1    0    0  502    0  0.00000000000E+00  0.00000000000E+00  0.11335100239E+02  0.11335100239E+02  0.00000000000E+00 0. -1.
         -2   -1    0    0    0  501 -0.00000000000E+00 -0.00000000000E+00 -0.80900062821E+02  0.80900062821E+02  0.00000000000E+00 0.  1.
          1    1    1    2  502    0 -0.14663409301E+02 -0.23960479283E+02 -0.52005053499E+02  0.59107070045E+02  0.00000000000E+00 0. -1.
         -1    1    1    2    0  501  0.14663409301E+02  0.23960479283E+02 -0.17559909083E+02  0.33128093015E+02  0.00000000000E+00 0.  1.
</event>
<event>
 4    1  0.6824761E+001  0.2203897E+02  0.7546771E-02  0.1504932E+00
          2   -1    0    0  502    0  0.00000000000E+00  0.00000000000E+00  0.56409351101E+02  0.56409351101E+02  0.00000000000E+00 0.  1.
         -2   -1    0    0    0  501 -0.00000000000E+00 -0.00000000000E+00 -0.10366548079E+02  0.10366548079E+02  0.00000000000E+00 0. -1.
          1    1    1    2  502    0 -0.10402266634E+02  0.19429592810E+02  0.92799322067E+01  0.23913037650E+02  0.00000000000E+00 0.  1.
         -1    1    1    2    0  501  0.10402266634E+02 -0.19429592810E+02  0.36762870815E+02  0.42862861529E+02  0.00000000000E+00 0. -1.
</event>
<event>
 4    1  0.6824761E+001  0.2621604E+02  0.7546771E-02  0.1455646E+00
          2   -1    0    0  502    0  0.00000000000E+00  0.00000000000E+00  0.11038688891E+04  0.11038688891E+04  0.00000000000E+00 0. -1.
         -2   -1    0    0    0  501 -0.00000000000E+00 -0.00000000000E+00 -0.71202294631E+00  0.71202294631E+00  0.00000000000E+00 0.  1.
          1    1    1    2  502    0 -0.25650598047E+02 -0.54154761309E+01  0.74729116991E+03  0.74775087642E+03  0.00000000000E+00 0. -1.
         -1    1    1    2    0  501  0.25650598047E+02  0.54154761309E+01  0.35586569625E+03  0.35683003563E+03  0.00000000000E+00 0.  1.
</event>
<event>
 4    1  0.6824761E+001  0.2409596E+02  0.7546771E-02  0.1479176E+00
          2   -1    0    0  502    0  0.00000000000E+00  0.00000000000E+00  0.45877774359E+03  0.45877774359E+03  0.00000000000E+00 0.  1.
         -2   -1    0    0    0  501 -0.00000000000E+00 -0.00000000000E+00 -0.15186078779E+01  0.15186078779E+01  0.00000000000E+00 0. -1.
          1    1    1    2  502    0 -0.21669834769E+02  0.10537253043E+02  0.13468378074E+03  0.13682227975E+03  0.00000000000E+00 0. -1.
         -1    1    1    2    0  501  0.21669834769E+02 -0.10537253043E+02  0.32257535497E+03  0.32347407172E+03  0.00000000000E+00 0.  1.
</event>
<event>
 4    1  0.6824761E+001  0.4135216E+02  0.7546771E-02  0.1340739E+00
          2   -1    0    0  502    0  0.00000000000E+00  0.00000000000E+00  0.60303068508E+03  0.60303068508E+03  0.00000000000E+00 0.  1.
         -2   -1    0    0    0  501 -0.00000000000E+00 -0.00000000000E+00 -0.20800994359E+02  0.20800994359E+02  0.00000000000E+00 0. -1.
          1    1    1    2  502    0 -0.25303098980E+02 -0.32707093054E+02  0.12384727753E+01  0.41370696983E+02  0.00000000000E+00 0. -1.
         -1    1    1    2    0  501  0.25303098980E+02  0.32707093054E+02  0.58099121795E+03  0.58246098246E+03  0.00000000000E+00 0.  1.
</event>
<event>
 4    1  0.6824761E+001  0.5747228E+02  0.7546771E-02  0.1268671E+00
          2   -1    0    0  502    0  0.00000000000E+00  0.00000000000E+00  0.24376538770E+02  0.24376538770E+02  0.00000000000E+00 0. -1.
         -2   -1    0    0    0  501 -0.00000000000E+00 -0.00000000000E+00 -0.13693138699E+03  0.13693138699E+03  0.00000000000E+00 0.  1.
          1    1    1    2  502    0  0.22296478120E+02  0.52971030856E+02 -0.64518633204E+02  0.86404381122E+02  0.00000000000E+00 0.  1.
         -1    1    1    2    0  501 -0.22296478120E+02 -0.52971030856E+02 -0.48036215021E+02  0.74903544643E+02  0.00000000000E+00 0. -1.
</event>
<event>
 4    1  0.6824761E+001  0.2513539E+02  0.7546771E-02  0.1467294E+00
          2   -1    0    0  502    0  0.00000000000E+00  0.00000000000E+00  0.26497405307E+03  0.26497405307E+03  0.00000000000E+00 0.  1.
         -2   -1    0    0    0  501 -0.00000000000E+00 -0.00000000000E+00 -0.91555333274E+01  0.91555333274E+01  0.00000000000E+00 0. -1.
          1    1    1    2  502    0  0.24709830387E+02 -0.46056718103E+01  0.24578291067E+03  0.24706482370E+03  0.00000000000E+00 0.  1.
         -1    1    1    2    0  501 -0.24709830387E+02  0.46056718103E+01  0.10035609072E+02  0.27064762700E+02  0.00000000000E+00 0. -1.
</event>
<event>
 4    1  0.6824761E+001  0.2031819E+02  0.7546771E-02  0.1529226E+00
          2   -1    0    0  502    0  0.00000000000E+00  0.00000000000E+00  0.78971232355E+03  0.78971232355E+03  0.00000000000E+00 0. -1.
         -2   -1    0    0    0  501 -0.00000000000E+00 -0.00000000000E+00 -0.56384591243E+00  0.56384591243E+00  0.00000000000E+00 0.  1.
          1    1    1    2  502    0  0.17956076244E+02  0.95083266647E+01  0.50123931864E+03  0.50165095783E+03  0.00000000000E+00 0. -1.
         -1    1    1    2    0  501 -0.17956076244E+02 -0.95083266647E+01  0.28790915900E+03  0.28862521163E+03  0.00000000000E+00 0.  1.
</event>
<event>
 4    1  0.6824761E+001  0.2314972E+02  0.7546771E-02  0.1490627E+00
          2   -1    0    0  502    0  0.00000000000E+00  0.00000000000E+00  0.18701765196E+04  0.18701765196E+04  0.00000000000E+00 0. -1.
         -2   -1    0    0    0  501 -0.00000000000E+00 -0.00000000000E+00 -0.39459962578E+00  0.39459962578E+00  0.00000000000E+00 0.  1.
          1    1    1    2  502    0 -0.19665493833E+02  0.12213847511E+02  0.44548855724E+03  0.44608963712E+03  0.00000000000E+00 0.  1.
         -1    1    1    2    0  501  0.19665493833E+02 -0.12213847511E+02  0.14242933627E+04  0.14244814821E+04  0.00000000000E+00 0. -1.
</event>
<event>
 4    1  0.6824761E+001  0.2057659E+02  0.7546771E-02  0.1525397E+00
          2   -1    0    0  502    0  0.00000000000E+00  0.00000000000E+00  0.29467581676E+03  0.29467581676E+03  0.00000000000E+00 0. -1.
         -2   -1    0    0    0  501 -0.00000000000E+00 -0.00000000000E+00 -0.18212319549E+01  0.18212319549E+01  0.00000000000E+00 0.  1.
          1    1    1    2  502    0  0.33875777916E+01 -0.20295818612E+02  0.78317976524E+02  0.80975930888E+02  0.00000000000E+00 0.  1.
         -1    1    1    2    0  501 -0.33875777916E+01  0.20295818612E+02  0.21453660828E+03  0.21552111783E+03  0.00000000000E+00 0. -1.
</event>
<event>
 4    1  0.6824761E+001  0.3152229E+02  0.7546771E-02  0.1406813E+00
          2   -1    0    0  502    0  0.00000000000E+00  0.00000000000E+00  0.16807908391E+04  0.16807908391E+04  0.00000000000E+00 0.  1.
         -2   -1    0    0    0  501 -0.00000000000E+00 -0.00000000000E+00 -0.84580433688E+00  0.84580433688E+00  0.00000000000E+00 0. -1.
          1    1    1    2  502    0  0.15244410247E+02 -0.27590985415E+02  0.13013058539E+04  0.13016875892E+04  0.00000000000E+00 0.  1.
         -1    1    1    2    0  501 -0.15244410247E+02  0.27590985415E+02  0.37863918085E+03  0.37994905421E+03  0.00000000000E+00 0. -1.
</event>
<event>
 4    1  0.6824761E+001  0.2133179E+02  0.7546771E-02  0.1514580E+00
          2   -1    0    0  502    0  0.00000000000E+00  0.00000000000E+00  0.37189859689E+03  0.37189859689E+03  0.00000000000E+00 0.  1.
         -2   -1    0    0    0  501 -0.00000000000E+00 -0.00000000000E+00 -0.12717545346E+01  0.12717545346E+01  0.00000000000E+00 0. -1.
          1    1    1    2  502    0 -0.15232127522E+02 -0.14934113994E+02  0.22163051630E+03  0.22265473546E+03  0.00000000000E+00 0.  1.
         -1    1    1    2    0  501  0.15232127522E+02  0.14934113994E+02  0.14899632606E+03  0.15051561596E+03  0.00000000000E+00 0. -1.
</event>
<event>
 4    1  0.6824761E+001  0.2165860E+02  0.7546771E-02  0.1510066E+00
          2   -1    0    0  502    0  0.00000000000E+00  0.00000000000E+00  0.27639808631E+03  0.27639808631E+03  0.00000000000E+00 0. -1.
         -2   -1    0    0    0  501 -0.00000000000E+00 -0.00000000000E+00 -0.20701088777E+01  0.20701088777E+01  0.00000000000E+00 0.  1.
          1    1    1    2  502    0 -0.54300344034E+01 -0.20966872316E+02  0.19626118181E+03  0.19745264367E+03  0.00000000000E+00 0. -1.
         -1    1    1    2    0  501  0.54300344034E+01  0.20966872316E+02  0.78066795626E+02  0.81015551517E+02  0.00000000000E+00 0.  1.
</event>
<event>
 4    1  0.6824761E+001  0.2621746E+02  0.7546771E-02  0.1455631E+00
          2   -1    0    0  502    0  0.00000000000E+00  0.00000000000E+00  0.10028727797E+03  0.10028727797E+03  0.00000000000E+00 0.  1.
         -2   -1    0    0    0  501 -0.00000000000E+00 -0.00000000000E+00 -0.68539535697E+01  0.68539535697E+01  0.00000000000E+00 0. -1.
          1    1    1    2  502    0  0.26115321122E+02 -0.23120113905E+01  0.46523325329E+02  0.53402014884E+02  0.00000000000E+00 0. -1.
         -1    1    1    2    0  501 -0.26115321122E+02  0.23120113905E+01  0.46909999076E+02  0.53739216661E+02  0.00000000000E+00 0.  1.
</event>
<event>
 4    1  0.6824761E+001  0.3204917E+02  0.7546771E-02  0.1402587E+00
          2   -1    0    0  502    0  0.00000000000E+00  0.00000000000E+00  0.72539251115E+03  0.72539251115E+03  0.00000000000E+00 0. -1.
         -2   -1    0    0    0  501 -0.00000000000E+00 -0.00000000000E+00 -0.14174426278E+01  0.14174426278E+01  0.00000000000E+00 0.  1.
          1    1    1    2  502    0 -0.26484594361E+02  0.18047596974E+02  0.35035916575E+03  0.35182196424E+03  0.00000000000E+00 0.  1.
         -1    1    1    2    0  501  0.26484594361E+02 -0.18047596974E+02  0.37361590278E+03  0.37498798954E+03  0.00000000000E+00 0. -1.
</event>
<event>
 4    1  0.6824761E+001  0.3143826E+02  0.7546771E-02  0.1407496E+00
          2   -1    0    0  502    0  0.00000000000E+00  0.00000000000E+00  0.57184389836E+03  0.57184389836E+03  0.00000000000E+00 0. -1.
         -2   -1    0    0    0  501 -0.00000000000E+00 -0.00000000000E+00 -0.45120005244E+01  0.45120005244E+01  0.00000000000E+00 0.  1.
          1    1    1    2  502    0 -0.15083881215E+02  0.27583346385E+02  0.57315653075E+02  0.65371618901E+02  0.00000000000E+00 0.  1.
         -1    1    1    2    0  501  0.15083881215E+02 -0.27583346385E+02  0.51001624476E+03  0.51098427998E+03  0.00000000000E+00 0. -1.
</event>
<event>
 4    1  0.6824761E+001  0.2128693E+02  0.7546771E-02  0.1515207E+00
          2   -1    0    0  502    0  0.00000000000E+00  0.00000000000E+00  0.11293792877E+04  0.11293792877E+04  0.00000000000E+00 0.  1.
         -2   -1    0    0    0  501 -0.00000000000E+00 -0.00000000000E+00 -0.45659786264E+00  0.45659786264E+00  0.00000000000E+00 0. -1.
          1    1    1    2  502    0  0.78612751222E+01 -0.19782153586E+02  0.36772992919E+03  0.36834553625E+03  0.00000000000E+00 0.  1.
         -1    1    1    2    0  501 -0.78612751222E+01  0.19782153586E+02  0.76119276063E+03  0.76149034931E+03  0.00000000000E+00 0. -1.
</event>
<event>
 4    1  0.6824761E+001  0.2289292E+02  0.7546771E-02  0.1493847E+00
          2   -1    0    0  502    0  0.00000000000E+00  0.00000000000E+00  0.72223547357E+01  0.72223547357E+01  0.00000000000E+00 0.  1.
         -2   -1    0    0    0  501 -0.00000000000E+00 -0.00000000000E+00 -0.21124084474E+03  0.21124084474E+03  0.00000000000E+00 0. -1.
          1    1    1    2  502    0 -0.11240758293E+02 -0.19943192106E+02 -0.19051280831E+03  0.19188333875E+03  0.00000000000E+00 0. -1.
         -1    1    1    2    0  501  0.11240758293E+02  0.19943192106E+02 -0.13505681694E+02  0.26579860729E+02  0.00000000000E+00 0.  1.
</event>
<event>
 4    1  0.6824761E+001  0.3661292E+02  0.7546771E-02  0.1369565E+00
          2   -1    0    0  502    0  0.00000000000E+00  0.00000000000E+00  0.12099513665E+03  0.12099513665E+03  0.00000000000E+00 0.  1.
         -2   -1    0    0    0  501 -0.00000000000E+00 -0.00000000000E+00 -0.11444485739E+02  0.11444485739E+02  0.00000000000E+00 0. -1.
          1    1    1    2  502    0 -0.33286335023E+02 -0.15248798539E+02  0.66609034956E+02  0.76008351475E+02  0.00000000000E+00 0.  1.
         -1    1    1    2    0  501  0.33286335023E+02  0.15248798539E+02  0.42941615956E+02  0.56431270915E+02  0.00000000000E+00 0. -1.
</event>
<event>
 4    1  0.6824761E+001  0.5022697E+02  0.7546771E-02  0.1297191E+00
          2   -1    0    0  502    0  0.00000000000E+00  0.00000000000E+00  0.14813796678E+02  0.14813796678E+02  0.00000000000E+00 0. -1.
         -2   -1    0    0    0  501 -0.00000000000E+00 -0.00000000000E+00 -0.25027265101E+03  0.25027265101E+03  0.00000000000E+00 0.  1.
          1    1    1    2  502    0 -0.17689621856E+00 -0.50226654152E+02 -0.19265484692E+03  0.19909454568E+03  0.00000000000E+00 0.  1.
         -1    1    1    2    0  501  0.17689621856E+00  0.50226654152E+02 -0.42804007413E+02  0.65991902005E+02  0.00000000000E+00 0. -1.
</event>
<event>
 4    1  0.6824761E+001  0.3957808E+02  0.7546771E-02  0.1350976E+00
          2   -1    0    0  502    0  0.00000000000E+00  0.00000000000E+00  0.19825539908E+04  0.19825539908E+04  0.00000000000E+00 0. -1.
         -2   -1    0    0    0  501 -0.00000000000E+00 -0.00000000000E+00 -0.86002011196E+00  0.86002011196E+00  0.00000000000E+00 0.  1.
          1    1    1    2  502    0 -0.38981260715E+02  0.68473305753E+01  0.70808795560E+03  0.70919318770E+03  0.00000000000E+00 0. -1.
         -1    1    1    2    0  501  0.38981260715E+02 -0.68473305753E+01  0.12736060151E+04  0.12742208232E+04  0.00000000000E+00 0.  1.
</event>
<event>
 4    1  0.6824761E+001  0.2686228E+02  0.7546771E-02  0.1448996E+00
          2   -1    0    0  502    0  0.00000000000E+00  0.00000000000E+00  0.62413520393E+03  0.62413520393E+03  0.00000000000E+00 0.  1.
         -2   -1    0    0    0  501 -0.00000000000E+00 -0.00000000000E+00 -0.11645998069E+01  0.11645998069E+01  0.00000000000E+00 0. -1.
          1    1    1    2  502    0 -0.25806718639E+02  0.74562419108E+01  0.28482455530E+03  0.28608846459E+03  0.00000000000E+00 0. -1.
         -1    1    1    2    0  501  0.25806718639E+02 -0.74562419108E+01  0.33814604883E+03  0.33921133915E+03  0.00000000000E+00 0.  1.
</event>
<event>
 4    1  0.6824761E+001  0.2660593E+02  0.7546771E-02  0.1451607E+00
          2   -1    0    0  502    0  0.00000000000E+00  0.00000000000E+00  0.13447527428E+01  0.13447527428E+01  0.00000000000E+00 0.  1.
         -2   -1    0    0    0  501 -0.00000000000E+00 -0.00000000000E+00 -0.53848208758E+03  0.53848208758E+03  0.00000000000E+00 0. -1.
          1    1    1    2  502    0 -0.25408616448E+02  0.78916106387E+01 -0.22813494531E+03  0.22968114546E+03  0.00000000000E+00 0.  1.
         -1    1    1    2    0  501  0.25408616448E+02 -0.78916106387E+01 -0.30900238953E+03  0.31014569486E+03  0.00000000000E+00 0. -1.
</event>
<event>
 4    1  0.6824761E+001  0.2208569E+02  0.7546771E-02  0.1504310E+00
          2   -1    0    0  502    0  0.00000000000E+00  0.00000000000E+00  0.10333350314E+03  0.10333350314E+03  0.00000000000E+00 0.  1.
         -2   -1    0    0    0  501 -0.00000000000E+00 -0.00000000000E+00 -0.58449987026E+01  0.58449987026E+01  0.00000000000E+00 0. -1.
          1    1    1    2  502    0 -0.18425502782E+02 -0.12176961797E+02  0.72688975461E+02  0.75970156673E+02  0.00000000000E+00 0.  1.
         -1    1    1    2    0  501  0.18425502782E+02  0.12176961797E+02  0.24799528973E+02  0.33208345166E+02  0.00000000000E+00 0. -1.
</event>
<event>
 4    1  0.6824761E+001  0.3318854E+02  0.7546771E-02  0.1393766E+00
          2   -1    0    0  502    0  0.00000000000E+00  0.00000000000E+00  0.78809347603E+03  0.78809347603E+03  0.00000000000E+00 0. -1.
         -2   -1    0    0    0  501 -0.00000000000E+00 -0.00000000000E+00 -0.23149572940E+01  0.23149572940E+01  0.00000000000E+00 0.  1.
          1    1    1    2  502    0 -0.53488639684E+01  0.32754671968E+02  0.64166469240E+03  0.64252241701E+03  0.00000000000E+00 0. -1.
         -1    1    1    2    0  501  0.53488639684E+01 -0.32754671968E+02  0.14411382634E+03  0.14788601632E+03  0.00000000000E+00 0.  1.
</event>
<event>
 4    1  0.6824761E+001  0.2086348E+02  0.7546771E-02  0.1521223E+00
          2   -1    0    0  502    0  0.00000000000E+00  0.00000000000E+00  0.11979205638E+03  0.11979205638E+03  0.00000000000E+00 0.  1.
         -2   -1    0    0    0  501 -0.00000000000E+00 -0.00000000000E+00 -0.36557978634E+01  0.36557978634E+01  0.00000000000E+00 0. -1.
          1    1    1    2  502    0  0.10648175089E+02  0.17941603800E+02  0.53265998379E+02  0.57206217870E+02  0.00000000000E+00 0.  1.
         -1    1    1    2    0  501 -0.10648175089E+02 -0.17941603800E+02  0.62870260135E+02  0.66241636371E+02  0.00000000000E+00 0. -1.
</event>
<event>
 4    1  0.6824761E+001  0.3856774E+02  0.7546771E-02  0.1357089E+00
          2   -1    0    0  502    0  0.00000000000E+00  0.00000000000E+00  0.58310951077E+03  0.58310951077E+03  0.00000000000E+00 0. -1.
         -2   -1    0    0    0  501 -0.00000000000E+00 -0.00000000000E+00 -0.43232831189E+01  0.43232831189E+01  0.00000000000E+00 0.  1.
          1    1    1    2  502    0  0.35714369714E+01 -0.38402024847E+02  0.10133301362E+03  0.10842439912E+03  0.00000000000E+00 0.  1.
         -1    1    1    2    0  501 -0.35714369714E+01  0.38402024847E+02  0.47745321403E+03  0.47900839477E+03  0.00000000000E+00 0. -1.
</event>
<event>
 4    1  0.6824761E+001  0.2307592E+02  0.7546771E-02  0.1491547E+00
          2   -1    0    0  502    0  0.00000000000E+00  0.00000000000E+00  0.34505753828E+03  0.34505753828E+03  0.00000000000E+00 0. -1.
         -2   -1    0    0    0  501 -0.00000000000E+00 -0.00000000000E+00 -0.23440497698E+01  0.23440497698E+01  0.00000000000E+00 0.  1.
          1    1    1    2  502    0  0.19179713855E+02 -0.12831087768E+02  0.69827854007E+02  0.73542011341E+02  0.00000000000E+00 0.  1.
         -1    1    1    2    0  501 -0.19179713855E+02  0.12831087768E+02  0.27288563450E+03  0.27385957671E+03  0.00000000000E+00 0. -1.
</event>
<event>
 4    1  0.6824761E+001  0.2323440E+02  0.7546771E-02  0.1489576E+00
          2   -1    0    0  502    0  0.00000000000E+00  0.00000000000E+00  0.84713611227E+02  0.84713611227E+02  0.00000000000E+00 0.  1.
         -2   -1    0    0    0  501 -0.00000000000E+00 -0.00000000000E+00 -0.90798123514E+01  0.90798123514E+01  0.00000000000E+00 0. -1.
          1    1    1    2  502    0 -0.10078611919E+01 -0.23212534405E+02  0.63424747892E+02  0.67546548267E+02  0.00000000000E+00 0.  1.
         -1    1    1    2    0  501  0.10078611919E+01  0.23212534405E+02  0.12209050984E+02  0.26246875311E+02  0.00000000000E+00 0. -1.
</event>
<event>
 4    1  0.6824761E+001  0.2419339E+02  0.7546771E-02  0.1478033E+00
          2   -1    0    0  502    0  0.00000000000E+00  0.00000000000E+00  0.16100604283E+03  0.16100604283E+03  0.00000000000E+00 0.  1.
         -2   -1    0    0    0  501 -0.00000000000E+00 -0.00000000000E+00 -0.37094045560E+01  0.37094045560E+01  0.00000000000E+00 0. -1.
          1    1    1    2  502    0 -0.21125455927E+02  0.11791321596E+02  0.67015001013E+02  0.71248372009E+02  0.00000000000E+00 0. -1.
         -1    1    1    2    0  501  0.21125455927E+02 -0.11791321596E+02  0.90281637264E+02  0.93467075381E+02  0.00000000000E+00 0.  1.
</event>
<event>
 4    1  0.6824761E+001  0.2897827E+02  0.7546771E-02  0.1428688E+00
          2   -1    0    0  502    0  0.00000000000E+00  0.00000000000E+00  0.27834540832E+03  0.27834540832E+03  0.00000000000E+00 0. -1.
         -2   -1    0    0    0  501 -0.00000000000E+00 -0.00000000000E+00 -0.10418729400E+02  0.10418729400E+02  0.00000000000E+00 0.  1.
          1    1    1    2  502    0 -0.11440997945E+02  0.26624120261E+02  0.25565909238E+03  0.25729615569E+03  0.00000000000E+00 0. -1.
         -1    1    1    2    0  501  0.11440997945E+02 -0.26624120261E+02  0.12267586536E+02  0.31467982031E+02  0.00000000000E+00 0.  1.
</event>
<event>
 4    1  0.6824761E+001  0.2542125E+02  0.7546771E-02  0.1464146E+00
          2   -1    0    0  502    0  0.00000000000E+00  0.00000000000E+00  0.11339517052E+04  0.11339517052E+04  0.00000000000E+00 0. -1.
         -2   -1    0    0    0  501 -0.00000000000E+00 -0.00000000000E+00 -0.58236468282E+00  0.58236468282E+00  0.00000000000E+00 0.  1.
          1    1    1    2  502    0  0.12313131496E+02  0.22240209989E+02  0.64967245969E+03  0.65016962789E+03  0.00000000000E+00 0. -1.
         -1    1    1    2    0  501 -0.12313131496E+02 -0.22240209989E+02  0.48369688083E+03  0.48436444200E+03  0.00000000000E+00 0.  1.
</event>
<event>
 4    1  0.6824761E+001  0.2222639E+02  0.7546771E-02  0.1502448E+00
          2   -1    0    0  502    0  0.00000000000E+00  0.00000000000E+00  0.38811611049E+02  0.38811611049E+02  0.00000000000E+00 0. -1.
         -2   -1    0    0    0  501 -0.00000000000E+00 -0.00000000000E+00 -0.13256112071E+02  0.13256112071E+02  0.00000000000E+00 0.  1.
          1    1    1    2  502    0  0.15841804426E+02  0.15590055905E+02  0.17971705505E+02  0.28583121057E+02  0.00000000000E+00 0. -1.
         -1    1    1    2    0  501 -0.15841804426E+02 -0.15590055905E+02  0.75837934733E+01  0.23484602063E+02  0.00000000000E+00 0.  1.
</event>
<event>
 4    1  0.6824761E+001  0.2387756E+02  0.7546771E-02  0.1481763E+00
          2   -1    0    0  502    0  0.00000000000E+00  0.00000000000E+00  0.11406431631E+04  0.11406431631E+04  0.00000000000E+00 0. -1.
         -2   -1    0    0    0  501 -0.00000000000E+00 -0.00000000000E+00 -0.50312895671E+00  0.50312895671E+00  0.00000000000E+00 0.  1.
          1    1    1    2  502    0  0.78650262414E+00 -0.23864604320E+02  0.61620894209E+03  0.61667138594E+03  0.00000000000E+00 0. -1.
         -1    1    1    2    0  501 -0.78650262414E+00  0.23864604320E+02  0.52393109202E+03  0.52447490608E+03  0.00000000000E+00 0.  1.
</event>
<event>
 4    1  0.6824761E+001  0.2023386E+02  0.7546771E-02  0.1530490E+00
          2   -1    0    0  502    0  0.00000000000E+00  0.00000000000E+00  0.12960138131E+04  0.12960138131E+04  0.00000000000E+00 0. -1.
         -2   -1    0    0    0  501 -0.00000000000E+00 -0.00000000000E+00 -0.33147669664E+00  0.33147669664E+00  0.00000000000E+00 0.  1.
          1    1    1    2  502    0 -0.17417809395E+02  0.10297038680E+02  0.50732707585E+03  0.50773041172E+03  0.00000000000E+00 0. -1.
         -1    1    1    2    0  501  0.17417809395E+02 -0.10297038680E+02  0.78835526055E+03  0.78861487808E+03  0.00000000000E+00 0.  1.
</event>
<event>
 4    1  0.6824761E+001  0.2717863E+02  0.7546771E-02  0.1445822E+00
          2   -1    0    0  502    0  0.00000000000E+00  0.00000000000E+00  0.58400238642E+03  0.58400238642E+03  0.00000000000E+00 0.  1.
         -2   -1    0    0    0  501 -0.00000000000E+00 -0.00000000000E+00 -0.10541208587E+02  0.10541208587E+02  0.00000000000E+00 0. -1.
          1    1    1    2  502    0  0.56341597896E+01  0.26588228939E+02  0.56559762405E+03  0.56625025387E+03  0.00000000000E+00 0.  1.
         -1    1    1    2    0  501 -0.56341597896E+01 -0.26588228939E+02  0.78635537822E+01  0.28293341138E+02  0.00000000000E+00 0. -1.
</event>
<event>
 4    1  0.6824761E+001  0.3428074E+02  0.7546771E-02  0.1385691E+00
          2   -1    0    0  502    0  0.00000000000E+00  0.00000000000E+00  0.16464178340E+03  0.16464178340E+03  0.00000000000E+00 0. -1.
         -2   -1    0    0    0  501 -0.00000000000E+00 -0.00000000000E+00 -0.95353073120E+01  0.95353073120E+01  0.00000000000E+00 0.  1.
          1    1    1    2  502    0 -0.34040100384E+02 -0.40546998518E+01  0.33883582751E+02  0.48200271837E+02  0.00000000000E+00 0.  1.
         -1    1    1    2    0  501  0.34040100384E+02  0.40546998518E+01  0.12122289334E+03  0.12597681888E+03  0.00000000000E+00 0. -1.
</event>
<event>
 4    1  0.6824761E+001  0.2134545E+02  0.7546771E-02  0.1514389E+00
          2   -1    0    0  502    0  0.00000000000E+00  0.00000000000E+00  0.97921257074E+03  0.97921257074E+03  0.00000000000E+00 0.  1.
         -2   -1    0    0    0  501 -0.00000000000E+00 -0.00000000000E+00 -0.50215255850E+00  0.50215255850E+00  0.00000000000E+00 0. -1.
          1    1    1    2  502    0 -0.13805497962E+02 -0.16279944080E+02  0.62205833220E+03  0.62242445085E+03  0.00000000000E+00 0.  1.
         -1    1    1    2    0  501  0.13805497962E+02  0.16279944080E+02  0.35665208598E+03  0.35729027245E+03  0.00000000000E+00 0. -1.
</event>
<event>
 4    1  0.6824761E+001  0.3628879E+02  0.7546771E-02  0.1371722E+00
          2   -1    0    0  502    0  0.00000000000E+00  0.00000000000E+00  0.29703081077E+04  0.29703081077E+04  0.00000000000E+00 0. -1.
         -2   -1    0    0    0  501 -0.00000000000E+00 -0.00000000000E+00 -0.60734749236E+00  0.60734749236E+00  0.00000000000E+00 0.  1.
          1    1    1    2  502    0  0.33837355693E+02 -0.13111425371E+02  0.71294382271E+03  0.71386677361E+03  0.00000000000E+00 0.  1.
         -1    1    1    2    0  501 -0.33837355693E+02  0.13111425371E+02  0.22567569375E+04  0.22570486816E+04  0.00000000000E+00 0. -1.
</event>
<event>
 4    1  0.6824761E+001  0.4526706E+02  0.7546771E-02  0.1320109E+00
          2   -1    0    0  502    0  0.00000000000E+00  0.00000000000E+00  0.15716373103E+03  0.15716373103E+03  0.00000000000E+00 0.  1.
         -2   -1    0    0    0  501 -0.00000000000E+00 -0.00000000000E+00 -0.17095944597E+02  0.17095944597E+02  0.00000000000E+00 0. -1.
          1    1    1    2  502    0 -0.30125761218E+02 -0.33786766788E+02  0.27584523993E+02  0.53009556336E+02  0.00000000000E+00 0.  1.
         -1    1    1    2    0  501  0.30125761218E+02  0.33786766788E+02  0.11248326244E+03  0.12125011929E+03  0.00000000000E+00 0. -1.
</event>
<event>
 4    1  0.6824761E+001  0.2826327E+02  0.7546771E-02  0.1435315E+00
          2   -1    0    0  502    0  0.00000000000E+00  0.00000000000E+00  0.18018848239E+03  0.18018848239E+03  0.00000000000E+00 0.  1.
         -2   -1    0    0    0  501 -0.00000000000E+00 -0.00000000000E+00 -0.44336871799E+01  0.44336871799E+01  0.00000000000E+00 0. -1.
          1    1    1    2  502    0 -0.28261701691E+02 -0.29818569498E+00  0.88838866319E+02  0.93226374305E+02  0.00000000000E+00 0.  1.
         -1    1    1    2    0  501  0.28261701691E+02  0.29818569498E+00  0.86915928893E+02  0.91395795267E+02  0.00000000000E+00 0. -1.
</event>
<event>
 4    1  0.6824761E+001  0.2094249E+02  0.7546771E-02  0.1520088E+00
          2   -1    0    0  502    0  0.00000000000E+00  0.00000000000E+00  0.17341731683E+03  0.17341731683E+03  0.00000000000E+00 0. -1.
         -2   -1    0    0    0  501 -0.00000000000E+00 -0.00000000000E+00 -0.40525551223E+01  0.40525551223E+01  0.00000000000E+00 0.  1.
          1    1    1    2  502    0 -0.35965638010E+01  0.20631346389E+02  0.30276397982E+02  0.36813693102E+02  0.00000000000E+00 0.  1.
         -1    1    1    2    0  501  0.35965638010E+01 -0.20631346389E+02  0.13908836373E+03  0.14065617885E+03  0.00000000000E+00 0. -1.
</event>
<event>
 4    1  0.6824761E+001  0.2432402E+02  0.7546771E-02  0.1476510E+00
          2   -1    0    0  502    0  0.00000000000E+00  0.00000000000E+00  0.30446341197E+02  0.30446341197E+02  0.00000000000E+00 0.  1.
         -2   -1    0    0    0  501 -0.00000000000E+00 -0.00000000000E+00 -0.26671985311E+02  0.26671985311E+02  0.00000000000E+00 0. -1.
          1    1    1    2  502    0 -0.14389866151E+02  0.19610959456E+02 -0.12991431356E+02  0.27575990776E+02  0.00000000000E+00 0. -1.
         -1    1    1    2    0  501  0.14389866151E+02 -0.19610959456E+02  0.16765787242E+02  0.29542335731E+02  0.00000000000E+00 0.  1.
</event>
<event>
 4    1  0.6824761E+001  0.2938409E+02  0.7546771E-02  0.1425025E+00
          2   -1    0    0  502    0  0.00000000000E+00  0.00000000000E+00  0.62043853751E+03  0.62043853751E+03  0.00000000000E+00 0.  1.
         -2   -1    0    0    0  501 -0.00000000000E+00 -0.00000000000E+00 -0.15450716673E+01  0.15450716673E+01  0.00000000000E+00 0. -1.
          1    1    1    2  502    0 -0.23046309461E+02  0.18228891932E+02  0.21144423096E+03  0.21347619935E+03  0.00000000000E+00 0. -1.
         -1    1    1    2    0  501  0.23046309461E+02 -0.18228891932E+02  0.40744923488E+03  0.40850740983E+03  0.00000000000E+00 0.  1.
</event>
<event>
 4    1  0.6824761E+001  0.2290496E+02  0.7546771E-02  0.1493695E+00
          2   -1    0    0  502    0  0.00000000000E+00  0.00000000000E+00  0.43900057366E+03  0.43900057366E+03  0.00000000000E+00 0.  1.
         -2   -1    0    0    0  501 -0.00000000000E+00 -0.00000000000E+00 -0.13396067431E+01  0.13396067431E+01  0.00000000000E+00 0. -1.
          1    1    1    2  502    0  0.13139793788E+02  0.18761215436E+02  0.29114999280E+03  0.29204957746E+03  0.00000000000E+00 0. -1.
         -1    1    1    2    0  501 -0.13139793788E+02 -0.18761215436E+02  0.14651097412E+03  0.14829060295E+03  0.00000000000E+00 0.  1.
</event>
<event>
 4    1  0.6824761E+001  0.2243853E+02  0.7546771E-02  0.1499672E+00
          2   -1    0    0  502    0  0.00000000000E+00  0.00000000000E+00  0.10344680938E+04  0.10344680938E+04  0.00000000000E+00 0. -1.
         -2   -1    0    0    0  501 -0.00000000000E+00 -0.00000000000E+00 -0.49102189817E+00  0.49102189817E+00  0.00000000000E+00 0.  1.
          1    1    1    2  502    0 -0.21732889324E+02  0.55829320335E+01  0.46850469266E+03  0.46904171952E+03  0.00000000000E+00 0.  1.
         -1    1    1    2    0  501  0.21732889324E+02 -0.55829320335E+01  0.56547237922E+03  0.56591739615E+03  0.00000000000E+00 0. -1.
</event>
<event>
 4    1  0.6824761E+001  0.3296625E+02  0.7546771E-02  0.1395454E+00
          2   -1    0    0  502    0  0.00000000000E+00  0.00000000000E+00  0.40155834140E+03  0.40155834140E+03  0.00000000000E+00 0. -1.
         -2   -1    0    0    0  501 -0.00000000000E+00 -0.00000000000E+00 -0.28331302340E+01  0.28331302340E+01  0.00000000000E+00 0.  1.
          1    1    1    2  502    0  0.23741791004E+02  0.22871403148E+02  0.15659696902E+03  0.16002932365E+03  0.00000000000E+00 0.  1.
         -1    1    1    2    0  501 -0.23741791004E+02 -0.22871403148E+02  0.24212824215E+03  0.24436214798E+03  0.00000000000E+00 0. -1.
</event>
<event>
 4    1  0.6824761E+001  0.2976251E+02  0.7546771E-02  0.1421672E+00
          2   -1    0    0  502    0  0.00000000000E+00  0.00000000000E+00  0.68024673188E+03  0.68024673188E+03  0.00000000000E+00 0.  1.
         -2   -1    0    0    0  501 -0.00000000000E+00 -0.00000000000E+00 -0.13753269473E+01  0.13753269473E+01  0.00000000000E+00 0. -1.
          1    1    1    2  502    0 -0.27087104548E+02 -0.12332718788E+02  0.26084095734E+03  0.26253344970E+03  0.00000000000E+00 0. -1.
         -1    1    1    2    0  501  0.27087104548E+02  0.12332718788E+02  0.41803044759E+03  0.41908860912E+03  0.00000000000E+00 0.  1.
</event>
<event>
 4    1  0.6824761E+001  0.2967402E+02  0.7546771E-02  0.1422451E+00
          2   -1    0    0  502    0  0.00000000000E+00  0.00000000000E+00  0.28649703885E+04  0.28649703885E+04  0.00000000000E+00 0.  1.
         -2   -1    0    0    0  501 -0.00000000000E+00 -0.00000000000E+00 -0.30961001242E+00  0.30961001242E+00  0.00000000000E+00 0. -1.
          1    1    1    2  502    0 -0.29566239440E+02  0.25268222861E+01  0.15547437146E+04  0.15550268697E+04  0.00000000000E+00 0.  1.
         -1    1    1    2    0  501  0.29566239440E+02 -0.25268222861E+01  0.13099170639E+04  0.13102531288E+04  0.00000000000E+00 0. -1.
</event>
<event>
 4    1  0.6824761E+001  0.2049227E+02  0.7546771E-02  0.1526639E+00
          2   -1    0    0  502    0  0.00000000000E+00  0.00000000000E+00  0.60305434434E+03  0.60305434434E+03  0.00000000000E+00 0.  1.
         -2   -1    0    0    0  501 -0.00000000000E+00 -0.00000000000E+00 -0.89851002093E+00  0.89851002093E+00  0.00000000000E+00 0. -1.
          1    1    1    2  502    0 -0.10781754642E+02  0.17426612488E+02  0.44431849046E+03  0.44479079804E+03  0.00000000000E+00 0.  1.
         -1    1    1    2    0  501  0.10781754642E+02 -0.17426612488E+02  0.15783734386E+03  0.15916205632E+03  0.00000000000E+00 0. -1.
</event>
<event>
 4    1  0.6824761E+001  0.2650232E+02  0.7546771E-02  0.1452672E+00
          2   -1    0    0  502    0  0.00000000000E+00  0.00000000000E+00  0.16199762229E+02  0.16199762229E+02  0.00000000000E+00 0. -1.
         -2   -1    0    0    0  501 -0.00000000000E+00 -0.00000000000E+00 -0.96331273447E+02  0.96331273447E+02  0.00000000000E+00 0.  1.
          1    1    1    2  502    0  0.25759838589E+02  0.62292526221E+01 -0.81790264087E+02  0.85976858350E+02  0.00000000000E+00 0.  1.
         -1    1    1    2    0  501 -0.25759838589E+02 -0.62292526221E+01  0.16587528686E+01  0.26554177326E+02  0.00000000000E+00 0. -1.
</event>
<event>
 4    1  0.6824761E+001  0.2399471E+02  0.7546771E-02  0.1480372E+00
          2   -1    0    0  502    0  0.00000000000E+00  0.00000000000E+00  0.21154639119E+01  0.21154639119E+01  0.00000000000E+00 0. -1.
         -2   -1    0    0    0  501 -0.00000000000E+00 -0.00000000000E+00 -0.28811613119E+03  0.28811613119E+03  0.00000000000E+00 0.  1.
          1    1    1    2  502    0  0.28989729105E+01  0.23818941441E+02 -0.10885070581E+03  0.11146399495E+03  0.00000000000E+00 0. -1.
         -1    1    1    2    0  501 -0.28989729105E+01 -0.23818941441E+02 -0.17714996147E+03  0.17876760015E+03  0.00000000000E+00 0.  1.
</event>
<event>
 4    1  0.6824761E+001  0.2662398E+02  0.7546771E-02  0.1451422E+00
          2   -1    0    0  502    0  0.00000000000E+00  0.00000000000E+00  0.95486809063E+03  0.95486809063E+03  0.00000000000E+00 0. -1.
         -2   -1    0    0    0  501 -0.00000000000E+00 -0.00000000000E+00 -0.75097749581E+00  0.75097749581E+00  0.00000000000E+00 0.  1.
          1    1    1    2  502    0  0.91181866850E+01 -0.25013900550E+02  0.52830235456E+03  0.52897279172E+03  0.00000000000E+00 0. -1.
         -1    1    1    2    0  501 -0.91181866850E+01  0.25013900550E+02  0.42581475858E+03  0.42664627640E+03  0.00000000000E+00 0.  1.
</event>
<event>
 4    1  0.6824761E+001  0.2125116E+02  0.7546771E-02  0.1515709E+00
          2   -1    0    0  502    0  0.00000000000E+00  0.00000000000E+00  0.17500068088E+03  0.17500068088E+03  0.00000000000E+00 0. -1.
         -2   -1    0    0    0  501 -0.00000000000E+00 -0.00000000000E+00 -0.27060155258E+01  0.27060155258E+01  0.00000000000E+00 0.  1.
          1    1    1    2  502    0  0.56271409705E+01 -0.20492613764E+02  0.67020939554E+02  0.70309446543E+02  0.00000000000E+00 0.  1.
         -1    1    1    2    0  501 -0.56271409705E+01  0.20492613764E+02  0.10527372580E+03  0.10739724986E+03  0.00000000000E+00 0. -1.
</event>
<event>
 4    1  0.6824761E+001  0.3205417E+02  0.7546771E-02  0.1402547E+00
          2   -1    0    0  502    0  0.00000000000E+00  0.00000000000E+00  0.16998561106E+04  0.16998561106E+04  0.00000000000E+00 0. -1.
         -2   -1    0    0    0  501 -0.00000000000E+00 -0.00000000000E+00 -0.71220319809E+00  0.71220319809E+00  0.00000000000E+00 0.  1.
          1    1    1    2  502    0  0.26133796411E+02  0.18560558794E+02  0.11803122663E+04  0.11807474394E+04  0.00000000000E+00 0.  1.
         -1    1    1    2    0  501 -0.26133796411E+02 -0.18560558794E+02  0.51883164110E+03  0.51982087441E+03  0.00000000000E+00 0. -1.
</event>
<event>
 4    1  0.6824761E+001  0.2261396E+02  0.7546771E-02  0.1497403E+00
          2   -1    0    0  502    0  0.00000000000E+00  0.00000000000E+00  0.12963482038E+04  0.12963482038E+04  0.00000000000E+00 0.  1.
         -2   -1    0    0    0  501 -0.00000000000E+00 -0.00000000000E+00 -0.40250204958E+00  0.40250204958E+00  0.00000000000E+00 0. -1.
          1    1    1    2  502    0 -0.16335340468E+02  0.15638025397E+02  0.55647238736E+03  0.55693169157E+03  0.00000000000E+00 0.  1.
         -1    1    1    2    0  501  0.16335340468E+02 -0.15638025397E+02  0.73947331439E+03  0.73981901427E+03  0.00000000000E+00 0. -1.
</event>
<event>
 4    1  0.6824761E+001  0.2836976E+02  0.7546771E-02  0.1434313E+00
          2   -1    0    0  502    0  0.00000000000E+00  0.00000000000E+00  0.18267467080E+04  0.18267467080E+04  0.00000000000E+00 0.  1.
         -2   -1    0    0    0  501 -0.00000000000E+00 -0.00000000000E+00 -0.60442176719E+00  0.60442176719E+00  0.00000000000E+00 0. -1.
          1    1    1    2  502    0 -0.22007477420E+02  0.17902914396E+02  0.43738210555E+03  0.43830120883E+03  0.00000000000E+00 0. -1.
         -1    1    1    2    0  501  0.22007477420E+02 -0.17902914396E+02  0.13887601807E+04  0.13890499210E+04  0.00000000000E+00 0.  1.
</event>
<event>
 4    1  0.6824761E+001  0.2110348E+02  0.7546771E-02  0.1517792E+00
          2   -1    0    0  502    0  0.00000000000E+00  0.00000000000E+00  0.11907437314E+02  0.11907437314E+02  0.00000000000E+00 0. -1.
         -2   -1    0    0    0  501 -0.00000000000E+00 -0.00000000000E+00 -0.57574625966E+02  0.57574625966E+02  0.00000000000E+00 0.  1.
          1    1    1    2  502    0  0.97898508749E+01 -0.18695335718E+02 -0.22693346938E+01  0.21225141642E+02  0.00000000000E+00 0. -1.
         -1    1    1    2    0  501 -0.97898508749E+01  0.18695335718E+02 -0.43397853958E+02  0.48256921638E+02  0.00000000000E+00 0.  1.
</event>
<event>
 4    1  0.6824761E+001  0.3647985E+02  0.7546771E-02  0.1370448E+00
          2   -1    0    0  502    0  0.00000000000E+00  0.00000000000E+00  0.18083630978E+02  0.18083630978E+02  0.00000000000E+00 0.  1.
         -2   -1    0    0    0  501 -0.00000000000E+00 -0.00000000000E+00 -0.14826492463E+03  0.14826492463E+03  0.00000000000E+00 0. -1.
          1    1    1    2  502    0  0.30662850977E+02 -0.19762818531E+02 -0.12411842232E+03  0.12936831987E+03  0.00000000000E+00 0. -1.
         -1    1    1    2    0  501 -0.30662850977E+02  0.19762818531E+02 -0.60628713295E+01  0.36980235736E+02  0.00000000000E+00 0.  1.
</event>
<event>
 4    1  0.6824761E+001  0.2142068E+02  0.7546771E-02  0.1513343E+00
          2   -1    0    0  502    0  0.00000000000E+00  0.00000000000E+00  0.13042038219E+04  0.13042038219E+04  0.00000000000E+00 0.  1.
         -2   -1    0    0    0  501 -0.00000000000E+00 -0.00000000000E+00 -0.38956607390E+00  0.38956607390E+00  0.00000000000E+00 0. -1.
          1    1    1    2  502    0 -0.21134007219E+02  0.34927682051E+01  0.44886441455E+03  0.44937524224E+03  0.00000000000E+00 0. -1.
         -1    1    1    2    0  501  0.21134007219E+02 -0.34927682051E+01  0.85494984127E+03  0.85521814572E+03  0.00000000000E+00 0.  1.
</event>
<event>
 4    1  0.6824761E+001  0.2440397E+02  0.7546771E-02  0.1475583E+00
          2   -1    0    0  502    0  0.00000000000E+00  0.00000000000E+00  0.25758420566E+03  0.25758420566E+03  0.00000000000E+00 0.  1.
         -2   -1    0    0    0  501 -0.00000000000E+00 -0.00000000000E+00 -0.28681415823E+01  0.28681415823E+01  0.00000000000E+00 0. -1.
          1    1    1    2  502    0 -0.27203218430E+01 -0.24251874402E+02  0.70017456031E+02  0.74148484219E+02  0.00000000000E+00 0.  1.
         -1    1    1    2    0  501  0.27203218430E+01  0.24251874402E+02  0.18469860805E+03  0.18630386302E+03  0.00000000000E+00 0. -1.
</event>
<event>
 4    1  0.6824761E+001  0.2558065E+02  0.7546771E-02  0.1462411E+00
          2   -1    0    0  502    0  0.00000000000E+00  0.00000000000E+00  0.96365215636E+03  0.96365215636E+03  0.00000000000E+00 0.  1.
         -2   -1    0    0    0  501 -0.00000000000E+00 -0.00000000000E+00 -0.87578140236E+00  0.87578140236E+00  0.00000000000E+00 0. -1.
          1    1    1    2  502    0 -0.25350440822E+02  0.34241534065E+01  0.25281679362E+03  0.25410765595E+03  0.00000000000E+00 0. -1.
         -1    1    1    2    0  501  0.25350440822E+02 -0.34241534065E+01  0.70995958133E+03  0.71042028181E+03  0.00000000000E+00 0.  1.
</event>
<event>
 4    1  0.6824761E+001  0.2295639E+02  0.7546771E-02  0.1493047E+00
          2   -1    0    0  502    0  0.00000000000E+00  0.00000000000E+00  0.16554698301E+03  0.16554698301E+03  0.00000000000E+00 0.  1.
         -2   -1    0    0    0  501 -0.00000000000E+00 -0.00000000000E+00 -0.45639018017E+01  0.45639018017E+01  0.00000000000E+00 0. -1.
          1    1    1    2  502    0 -0.14500622616E+02  0.17796841863E+02  0.33711698704E+02  0.40785711543E+02  0.00000000000E+00 0. -1.
         -1    1    1    2    0  501  0.14500622616E+02 -0.17796841863E+02  0.12727138251E+03  0.12932517327E+03  0.00000000000E+00 0.  1.
</event>
<event>
 4    1  0.6824761E+001  0.2114989E+02  0.7546771E-02  0.1517135E+00
          2   -1    0    0  502    0  0.00000000000E+00  0.00000000000E+00  0.82049041087E+03  0.82049041087E+03  0.00000000000E+00 0.  1.
         -2   -1    0    0    0  501 -0.00000000000E+00 -0.00000000000E+00 -0.59025602775E+00  0.59025602775E+00  0.00000000000E+00 0. -1.
          1    1    1    2  502    0  0.10200674016E+02 -0.18527387568E+02  0.52339669039E+03  0.52382383809E+03  0.00000000000E+00 0. -1.
         -1    1    1    2    0  501 -0.10200674016E+02  0.18527387568E+02  0.29650346446E+03  0.29725682881E+03  0.00000000000E+00 0.  1.
</event>
<event>
 4    1  0.6824761E+001  0.5154940E+02  0.7546771E-02  0.1291591E+00
          2   -1    0    0  502    0  0.00000000000E+00  0.00000000000E+00  0.18063370242E+03  0.18063370242E+03  0.00000000000E+00 0. -1.
         -2   -1    0    0    0  501 -0.00000000000E+00 -0.00000000000E+00 -0.27379664523E+02  0.27379664523E+02  0.00000000000E+00 0.  1.
          1    1    1    2  502    0  0.50967328326E+02  0.77247939322E+01  0.14737416770E+03  0.15612970987E+03  0.00000000000E+00 0. -1.
         -1    1    1    2    0  501 -0.50967328326E+02 -0.77247939322E+01  0.58798701972E+01  0.51883657075E+02  0.00000000000E+00 0.  1.
</event>
<event>
 4    1  0.6824761E+001  0.4042055E+02  0.7546771E-02  0.1346039E+00
          2   -1    0    0  502    0  0.00000000000E+00  0.00000000000E+00  0.12199155808E+02  0.12199155808E+02  0.00000000000E+00 0. -1.
         -2   -1    0    0    0  501 -0.00000000000E+00 -0.00000000000E+00 -0.13726083568E+03  0.13726083568E+03  0.00000000000E+00 0.  1.
          1    1    1    2  502    0 -0.10494486563E+02  0.39034431750E+02 -0.50887932687E+02  0.64987712711E+02  0.00000000000E+00 0.  1.
         -1    1    1    2    0  501  0.10494486563E+02 -0.39034431750E+02 -0.74173747183E+02  0.84472278775E+02  0.00000000000E+00 0. -1.
</event>
<event>
 4    1  0.6824761E+001  0.2064865E+02  0.7546771E-02  0.1524341E+00
          2   -1    0    0  502    0  0.00000000000E+00  0.00000000000E+00  0.51142283277E+00  0.51142283277E+00  0.00000000000E+00 0. -1.
         -2   -1    0    0    0  501 -0.00000000000E+00 -0.00000000000E+00 -0.96837773781E+03  0.96837773781E+03  0.00000000000E+00 0.  1.
          1    1    1    2  502    0 -0.10343362721E+02 -0.17871247666E+02 -0.30326137792E+03  0.30396353397E+03  0.00000000000E+00 0.  1.
         -1    1    1    2    0  501  0.10343362721E+02  0.17871247666E+02 -0.66460493706E+03  0.66492562667E+03  0.00000000000E+00 0. -1.
</event>
<event>
 4    1  0.6824761E+001  0.3518516E+02  0.7546771E-02  0.1379266E+00
          2   -1    0    0  502    0  0.00000000000E+00  0.00000000000E+00  0.48102474638E+03  0.48102474638E+03  0.00000000000E+00 0.  1.
         -2   -1    0    0    0  501 -0.00000000000E+00 -0.00000000000E+00 -0.25738264707E+01  0.25738264707E+01  0.00000000000E+00 0. -1.
          1    1    1    2  502    0  0.24936600994E+02  0.24822595965E+02  0.23729535533E+03  0.23988972675E+03  0.00000000000E+00 0.  1.
         -1    1    1    2    0  501 -0.24936600994E+02 -0.24822595965E+02  0.24115556459E+03  0.24370884611E+03  0.00000000000E+00 0. -1.
</event>
<event>
 4    1  0.6824761E+001  0.2555529E+02  0.7546771E-02  0.1462686E+00
          2   -1    0    0  502    0  0.00000000000E+00  0.00000000000E+00  0.56622080801E+01  0.56622080801E+01  0.00000000000E+00 0. -1.
         -2   -1    0    0    0  501 -0.00000000000E+00 -0.00000000000E+00 -0.12557683896E+03  0.12557683896E+03  0.00000000000E+00 0.  1.
          1    1    1    2  502    0 -0.25304768893E+02 -0.35695326320E+01 -0.41220990241E+02  0.48499927096E+02  0.00000000000E+00 0. -1.
         -1    1    1    2    0  501  0.25304768893E+02  0.35695326320E+01 -0.78693640635E+02  0.82739119940E+02  0.00000000000E+00 0.  1.
</event>
<event>
 4    1  0.6824761E+001  0.2131832E+02  0.7546771E-02  0.1514768E+00
          2   -1    0    0  502    0  0.00000000000E+00  0.00000000000E+00  0.73193228451E+02  0.73193228451E+02  0.00000000000E+00 0. -1.
         -2   -1    0    0    0  501 -0.00000000000E+00 -0.00000000000E+00 -0.65064396049E+01  0.65064396049E+01  0.00000000000E+00 0.  1.
          1    1    1    2  502    0  0.14714655958E+02 -0.15425611507E+02  0.24825815318E+02  0.32722953664E+02  0.00000000000E+00 0.  1.
         -1    1    1    2    0  501 -0.14714655958E+02  0.15425611507E+02  0.41860973528E+02  0.46976714392E+02  0.00000000000E+00 0. -1.
</event>
<event>
 4    1  0.6824761E+001  0.2038386E+02  0.7546771E-02  0.1528246E+00
          2   -1    0    0  502    0  0.00000000000E+00  0.00000000000E+00  0.54807076933E+03  0.54807076933E+03  0.00000000000E+00 0. -1.
         -2   -1    0    0    0  501 -0.00000000000E+00 -0.00000000000E+00 -0.97127297770E+00  0.97127297770E+00  0.00000000000E+00 0.  1.
          1    1    1    2  502    0  0.19887689508E+02  0.44700525619E+01  0.40215363340E+03  0.40266989758E+03  0.00000000000E+00 0. -1.
         -1    1    1    2    0  501 -0.19887689508E+02 -0.44700525619E+01  0.14494586295E+03  0.14637214472E+03  0.00000000000E+00 0.  1.
</event>
<event>
 4    1  0.6824761E+001  0.2228282E+02  0.7546771E-02  0.1501706E+00
          2   -1    0    0  502    0  0.00000000000E+00  0.00000000000E+00  0.56222490884E+02  0.56222490884E+02  0.00000000000E+00 0.  1.
         -2   -1    0    0    0  501 -0.00000000000E+00 -0.00000000000E+00 -0.10106176543E+02  0.10106176543E+02  0.00000000000E+00 0. -1.
          1    1    1    2  502    0  0.18479317197E+01 -0.22206058395E+02  0.34836742312E+02  0.41353627362E+02  0.00000000000E+00 0.  1.
         -1    1    1    2    0  501 -0.18479317197E+01  0.22206058395E+02  0.11279572029E+02  0.24975040065E+02  0.00000000000E+00 0. -1.
</event>
<event>
 4    1  0.6824761E+001  0.2009269E+02  0.7546771E-02  0.1532623E+00
          2   -1    0    0  502    0  0.00000000000E+00  0.00000000000E+00  0.71705399570E+01  0.71705399570E+01  0.00000000000E+00 0. -1.
         -2   -1    0    0    0  501 -0.00000000000E+00 -0.00000000000E+00 -0.56781333577E+02  0.56781333577E+02  0.00000000000E+00 0.  1.
          1    1    1    2  502    0  0.62822331873E+00 -0.20082867057E+02 -0.21867682782E+02  0.29696999243E+02  0.00000000000E+00 0.  1.
         -1    1    1    2    0  501 -0.62822331873E+00  0.20082867057E+02 -0.27743110839E+02  0.34254874292E+02  0.00000000000E+00 0. -1.
</event>
<event>
 4    1  0.6824761E+001  0.2134610E+02  0.7546771E-02  0.1514380E+00
          2   -1    0    0  502    0  0.00000000000E+00  0.00000000000E+00  0.15976198774E+01  0.15976198774E+01  0.00000000000E+00 0. -1.
         -2   -1    0    0    0  501 -0.00000000000E+00 -0.00000000000E+00 -0.28749275361E+03  0.28749275361E+03  0.00000000000E+00 0.  1.
          1    1    1    2  502    0  0.86634250816E+01 -0.19509000134E+02 -0.13006543148E+03  0.13180543421E+03  0.00000000000E+00 0. -1.
         -1    1    1    2    0  501 -0.86634250816E+01  0.19509000134E+02 -0.15582970225E+03  0.15728493928E+03  0.00000000000E+00 0.  1.
</event>
<event>
 4    1  0.6824761E+001  0.2819293E+02  0.7546771E-02  0.1435979E+00
          2   -1    0    0  502    0  0.00000000000E+00  0.00000000000E+00  0.17554924790E+04  0.17554924790E+04  0.00000000000E+00 0.  1.
         -2   -1    0    0    0  501 -0.00000000000E+00 -0.00000000000E+00 -0.50558380543E+00  0.50558380543E+00  0.00000000000E+00 0. -1.
          1    1    1    2  502    0 -0.26103797357E+02  0.10650508428E+02  0.11612554505E+04  0.11615976338E+04  0.00000000000E+00 0.  1.
         -1    1    1    2    0  501  0.26103797357E+02 -0.10650508428E+02  0.59373144474E+03  0.59440042903E+03  0.00000000000E+00 0. -1.
</event>
<event>
 4    1  0.6824761E+001  0.2569029E+02  0.7546771E-02  0.1461227E+00
          2   -1    0    0  502    0  0.00000000000E+00  0.00000000000E+00  0.54870870347E+02  0.54870870347E+02  0.00000000000E+00 0. -1.
         -2   -1    0    0    0  501 -0.00000000000E+00 -0.00000000000E+00 -0.13241745955E+02  0.13241745955E+02  0.00000000000E+00 0.  1.
          1    1    1    2  502    0  0.25661544686E+02  0.12149595478E+01  0.10504168957E+02  0.27754793601E+02  0.00000000000E+00 0.  1.
         -1    1    1    2    0  501 -0.25661544686E+02 -0.12149595478E+01  0.31124955434E+02  0.40357822701E+02  0.00000000000E+00 0. -1.
</event>
<event>
 4    1  0.6824761E+001  0.2154341E+02  0.7546771E-02  0.1511646E+00
          2   -1    0    0  502    0  0.00000000000E+00  0.00000000000E+00  0.80544560598E+03  0.80544560598E+03  0.00000000000E+00 0.  1.
         -2   -1    0    0    0  501 -0.00000000000E+00 -0.00000000000E+00 -0.60520602154E+00  0.60520602154E+00  0.00000000000E+00 0. -1.
          1    1    1    2  502    0 -0.14196940824E+02 -0.16203865719E+02  0.49061297529E+03  0.49108574599E+03  0.00000000000E+00 0.  1.
         -1    1    1    2    0  501  0.14196940824E+02  0.16203865719E+02  0.31422742467E+03  0.31496506601E+03  0.00000000000E+00 0. -1.
</event>
<event>
 4    1  0.6824761E+001  0.4188418E+02  0.7546771E-02  0.1337785E+00
          2   -1    0    0  502    0  0.00000000000E+00  0.00000000000E+00  0.36361995843E+03  0.36361995843E+03  0.00000000000E+00 0.  1.
         -2   -1    0    0    0  501 -0.00000000000E+00 -0.00000000000E+00 -0.58687410054E+01  0.58687410054E+01  0.00000000000E+00 0. -1.
          1    1    1    2  502    0 -0.35931008033E+02 -0.21523172516E+02  0.25680462182E+03  0.26019780568E+03  0.00000000000E+00 0.  1.
         -1    1    1    2    0  501  0.35931008033E+02  0.21523172516E+02  0.10094659561E+03  0.10929089376E+03  0.00000000000E+00 0. -1.
</event>
<event>
 4    1  0.6824761E+001  0.3087640E+02  0.7546771E-02  0.1412130E+00
          2   -1    0    0  502    0  0.00000000000E+00  0.00000000000E+00  0.26142460300E+01  0.26142460300E+01  0.00000000000E+00 0. -1.
         -2   -1    0    0    0  501 -0.00000000000E+00 -0.00000000000E+00 -0.36618380777E+03  0.36618380777E+03  0.00000000000E+00 0.  1.
          1    1    1    2  502    0  0.30851725896E+02  0.12342455072E+01 -0.16995148109E+03  0.17273348916E+03  0.00000000000E+00 0. -1.
         -1    1    1    2    0  501 -0.30851725896E+02 -0.12342455072E+01 -0.19361808065E+03  0.19606456464E+03  0.00000000000E+00 0.  1.
</event>
<event>
 4    1  0.6824761E+001  0.2681444E+02  0.7546771E-02  0.1449481E+00
          2   -1    0    0  502    0  0.00000000000E+00  0.00000000000E+00  0.52116242207E+03  0.52116242207E+03  0.00000000000E+00 0.  1.
         -2   -1    0    0    0  501 -0.00000000000E+00 -0.00000000000E+00 -0.13943294599E+01  0.13943294599E+01  0.00000000000E+00 0. -1.
          1    1    1    2  502    0  0.23860850748E+02 -0.12234139125E+02  0.28670567168E+03  0.28795686575E+03  0.00000000000E+00 0.  1.
         -1    1    1    2    0  501 -0.23860850748E+02  0.12234139125E+02  0.23306242093E+03  0.23459988578E+03  0.00000000000E+00 0. -1.
</event>
<event>
 4    1  0.6824761E+001  0.2582039E+02  0.7546771E-02  0.1459831E+00
          2   -1    0    0  502    0  0.00000000000E+00  0.00000000000E+00  0.63383272357E+03  0.63383272357E+03  0.00000000000E+00 0. -1.
         -2   -1    0    0    0  501 -0.00000000000E+00 -0.00000000000E+00 -0.41049403864E+01  0.41049403864E+01  0.00000000000E+00 0.  1.
          1    1    1    2  502    0  0.18485546247E+02 -0.18027115488E+02  0.39779992139E+02  0.47425099762E+02  0.00000000000E+00 0.  1.
         -1    1    1    2    0  501 -0.18485546247E+02  0.18027115488E+02  0.58994779105E+03  0.59051256420E+03  0.00000000000E+00 0. -1.
</event>
<event>
 4    1  0.6824761E+001  0.5704476E+02  0.7546771E-02  0.1270218E+00
          2   -1    0    0  502    0  0.00000000000E+00  0.00000000000E+00  0.25484799928E+04  0.25484799928E+04  0.00000000000E+00 0.  1.
         -2   -1    0    0    0  501 -0.00000000000E+00 -0.00000000000E+00 -0.15210060149E+02  0.15210060149E+02  0.00000000000E+00 0. -1.
          1    1    1    2  502    0  0.56930365413E+02 -0.36107736045E+01  0.24934954451E+04  0.24941478783E+04  0.00000000000E+00 0.  1.
         -1    1    1    2    0  501 -0.56930365413E+02  0.36107736045E+01  0.39774487546E+02  0.69542174625E+02  0.00000000000E+00 0. -1.
</event>
<event>
 4    1  0.6824761E+001  0.3804112E+02  0.7546771E-02  0.1360363E+00
          2   -1    0    0  502    0  0.00000000000E+00  0.00000000000E+00  0.21761915507E+04  0.21761915507E+04  0.00000000000E+00 0. -1.
         -2   -1    0    0    0  501 -0.00000000000E+00 -0.00000000000E+00 -0.10453996361E+01  0.10453996361E+01  0.00000000000E+00 0.  1.
          1    1    1    2  502    0 -0.37749943617E+02  0.46977527866E+01  0.17442702296E+04  0.17446850034E+04  0.00000000000E+00 0. -1.
         -1    1    1    2    0  501  0.37749943617E+02 -0.46977527866E+01  0.43087592142E+03  0.43255194692E+03  0.00000000000E+00 0.  1.
</event>
<event>
 4    1  0.6824761E+001  0.4301587E+02  0.7546771E-02  0.1331665E+00
          2   -1    0    0  502    0  0.00000000000E+00  0.00000000000E+00  0.16180755800E+03  0.16180755800E+03  0.00000000000E+00 0.  1.
         -2   -1    0    0    0  501 -0.00000000000E+00 -0.00000000000E+00 -0.12803360615E+02  0.12803360615E+02  0.00000000000E+00 0. -1.
          1    1    1    2  502    0 -0.18939688298E+02 -0.38621930645E+02  0.10303760796E+03  0.11165623124E+03  0.00000000000E+00 0.  1.
         -1    1    1    2    0  501  0.18939688298E+02  0.38621930645E+02  0.45966589421E+02  0.62954687375E+02  0.00000000000E+00 0. -1.
</event>
<event>
 4    1  0.6824761E+001  0.2080876E+02  0.7546771E-02  0.1522013E+00
          2   -1    0    0  502    0  0.00000000000E+00  0.00000000000E+00  0.24540886023E+03  0.24540886023E+03  0.00000000000E+00 0.  1.
         -2   -1    0    0    0  501 -0.00000000000E+00 -0.00000000000E+00 -0.65866615836E+01  0.65866615836E+01  0.00000000000E+00 0. -1.
          1    1    1    2  502    0 -0.15451136867E+02  0.13937971240E+02  0.22721998717E+03  0.22817082908E+03  0.00000000000E+00 0.  1.
         -1    1    1    2    0  501  0.15451136867E+02 -0.13937971240E+02  0.11602211475E+02  0.23824692734E+02  0.00000000000E+00 0. -1.
</event>
<event>
 4    1  0.6824761E+001  0.1044827E+03  0.7546771E-02  0.1156259E+00
          2   -1    0    0  502    0  0.00000000000E+00  0.00000000000E+00  0.28040585745E+03  0.28040585745E+03  0.00000000000E+00 0. -1.
         -2   -1    0    0    0  501 -0.00000000000E+00 -0.00000000000E+00 -0.42887876742E+02  0.42887876742E+02  0.00000000000E+00 0.  1.
          1    1    1    2  502    0 -0.77855601895E+02 -0.69678785882E+02  0.69662843613E+02  0.12557682799E+03  0.00000000000E+00 0. -1.
         -1    1    1    2    0  501  0.77855601895E+02  0.69678785882E+02  0.16785513709E+03  0.19771690620E+03  0.00000000000E+00 0.  1.
</event>
<event>
 4    1  0.6824761E+001  0.2408361E+02  0.7546771E-02  0.1479322E+00
          2   -1    0    0  502    0  0.00000000000E+00  0.00000000000E+00  0.58738241130E+03  0.58738241130E+03  0.00000000000E+00 0.  1.
         -2   -1    0    0    0  501 -0.00000000000E+00 -0.00000000000E+00 -0.14057106533E+01  0.14057106533E+01  0.00000000000E+00 0. -1.
          1    1    1    2  502    0 -0.22352256701E+02  0.89664364388E+01  0.13240663349E+03  0.13457911039E+03  0.00000000000E+00 0. -1.
         -1    1    1    2    0  501  0.22352256701E+02 -0.89664364388E+01  0.45357006716E+03  0.45420901156E+03  0.00000000000E+00 0.  1.
</event>
<event>
 4    1  0.6824761E+001  0.3341504E+02  0.7546771E-02  0.1392062E+00
          2   -1    0    0  502    0  0.00000000000E+00  0.00000000000E+00  0.15087384146E+02  0.15087384146E+02  0.00000000000E+00 0.  1.
         -2   -1    0    0    0  501 -0.00000000000E+00 -0.00000000000E+00 -0.77262133860E+02  0.77262133860E+02  0.00000000000E+00 0. -1.
          1    1    1    2  502    0  0.13545842000E+02 -0.30546282373E+02 -0.21608955081E+02  0.39793368066E+02  0.00000000000E+00 0.  1.
         -1    1    1    2    0  501 -0.13545842000E+02  0.30546282373E+02 -0.40565794634E+02  0.52556149940E+02  0.00000000000E+00 0. -1.
</event>
<event>
 4    1  0.6824761E+001  0.4976331E+02  0.7546771E-02  0.1299202E+00
          2   -1    0    0  502    0  0.00000000000E+00  0.00000000000E+00  0.42494124168E+03  0.42494124168E+03  0.00000000000E+00 0.  1.
         -2   -1    0    0    0  501 -0.00000000000E+00 -0.00000000000E+00 -0.10661727446E+02  0.10661727446E+02  0.00000000000E+00 0. -1.
          1    1    1    2  502    0 -0.11187859402E+02 -0.48489365986E+02  0.60481615768E+02  0.78322491390E+02  0.00000000000E+00 0. -1.
         -1    1    1    2    0  501  0.11187859402E+02  0.48489365986E+02  0.35379789847E+03  0.35728047773E+03  0.00000000000E+00 0.  1.
</event>
<event>
 4    1  0.6824761E+001  0.2029727E+02  0.7546771E-02  0.1529539E+00
          2   -1    0    0  502    0  0.00000000000E+00  0.00000000000E+00  0.19729187121E+03  0.19729187121E+03  0.00000000000E+00 0.  1.
         -2   -1    0    0    0  501 -0.00000000000E+00 -0.00000000000E+00 -0.20971344732E+01  0.20971344732E+01  0.00000000000E+00 0. -1.
          1    1    1    2  502    0 -0.99232270778E+01  0.17706180579E+02  0.10411490784E+03  0.10607494191E+03  0.00000000000E+00 0.  1.
         -1    1    1    2    0  501  0.99232270778E+01 -0.17706180579E+02  0.91079828898E+02  0.93314063777E+02  0.00000000000E+00 0. -1.
</event>
<event>
 4    1  0.6824761E+001  0.5233931E+02  0.7546771E-02  0.1288337E+00
          2   -1    0    0  502    0  0.00000000000E+00  0.00000000000E+00  0.56653575829E+03  0.56653575829E+03  0.00000000000E+00 0.  1.
         -2   -1    0    0    0  501 -0.00000000000E+00 -0.00000000000E+00 -0.48703897921E+01  0.48703897921E+01  0.00000000000E+00 0. -1.
          1    1    1    2  502    0  0.25809176513E+01  0.52275636822E+02  0.25660216010E+03  0.26188560845E+03  0.00000000000E+00 0. -1.
         -1    1    1    2    0  501 -0.25809176513E+01 -0.52275636822E+02  0.30506320839E+03  0.30952053963E+03  0.00000000000E+00 0.  1.
</event>
<event>
 4    1  0.6824761E+001  0.2425085E+02  0.7546771E-02  0.1477361E+00
          2   -1    0    0  502    0  0.00000000000E+00  0.00000000000E+00  0.26561628005E+04  0.26561628005E+04  0.00000000000E+00 0. -1.
         -2   -1    0    0    0  501 -0.00000000000E+00 -0.00000000000E+00 -0.24247273983E+00  0.24247273983E+00  0.00000000000E+00 0.  1.
          1    1    1    2  502    0 -0.69721896828E+01  0.23226977569E+02  0.93650771573E+03  0.93682165087E+03  0.00000000000E+00 0.  1.
         -1    1    1    2    0  501  0.69721896828E+01 -0.23226977569E+02  0.17194126120E+04  0.17195836223E+04  0.00000000000E+00 0. -1.
</event>
<event>
 4    1  0.6824761E+001  0.2798197E+02  0.7546771E-02  0.1437986E+00
          2   -1    0    0  502    0  0.00000000000E+00  0.00000000000E+00  0.77399708116E+01  0.77399708116E+01  0.00000000000E+00 0.  1.
         -2   -1    0    0    0  501 -0.00000000000E+00 -0.00000000000E+00 -0.15561795943E+03  0.15561795943E+03  0.00000000000E+00 0. -1.
          1    1    1    2  502    0 -0.27793150783E+02 -0.32451728271E+01 -0.25621616295E+02  0.37940184484E+02  0.00000000000E+00 0.  1.
         -1    1    1    2    0  501  0.27793150783E+02  0.32451728271E+01 -0.12225637232E+03  0.12541774576E+03  0.00000000000E+00 0. -1.
</event>
<event>
 4    1  0.6824761E+001  0.2614144E+02  0.7546771E-02  0.1456428E+00
          2   -1    0    0  502    0  0.00000000000E+00  0.00000000000E+00  0.81476466699E+03  0.81476466699E+03  0.00000000000E+00 0. -1.
         -2   -1    0    0    0  501 -0.00000000000E+00 -0.00000000000E+00 -0.97498601044E+00  0.97498601044E+00  0.00000000000E+00 0.  1.
          1    1    1    2  502    0  0.11559110384E+02  0.23447001667E+02  0.55936534648E+03  0.55997586177E+03  0.00000000000E+00 0. -1.
         -1    1    1    2    0  501 -0.11559110384E+02 -0.23447001667E+02  0.25442433450E+03  0.25576379123E+03  0.00000000000E+00 0.  1.
</event>
<event>
 4    1  0.6824761E+001  0.3243765E+02  0.7546771E-02  0.1399531E+00
          2   -1    0    0  502    0  0.00000000000E+00  0.00000000000E+00  0.10410737981E+04  0.10410737981E+04  0.00000000000E+00 0. -1.
         -2   -1    0    0    0  501 -0.00000000000E+00 -0.00000000000E+00 -0.10120621161E+01  0.10120621161E+01  0.00000000000E+00 0.  1.
          1    1    1    2  502    0  0.11570508637E+02 -0.30303868954E+02  0.53922766074E+03  0.54020243544E+03  0.00000000000E+00 0.  1.
         -1    1    1    2    0  501 -0.11570508637E+02  0.30303868954E+02  0.50083407523E+03  0.50188342477E+03  0.00000000000E+00 0. -1.
</event>
<event>
 4    1  0.6824761E+001  0.3472550E+02  0.7546771E-02  0.1382503E+00
          2   -1    0    0  502    0  0.00000000000E+00  0.00000000000E+00  0.11185121545E+04  0.11185121545E+04  0.00000000000E+00 0.  1.
         -2   -1    0    0    0  501 -0.00000000000E+00 -0.00000000000E+00 -0.11699290299E+01  0.11699290299E+01  0.00000000000E+00 0. -1.
          1    1    1    2  502    0 -0.28009144120E+02 -0.20526776144E+02  0.40181901838E+03  0.40331672941E+03  0.00000000000E+00 0. -1.
         -1    1    1    2    0  501  0.28009144120E+02  0.20526776144E+02  0.71552320708E+03  0.71636535411E+03  0.00000000000E+00 0.  1.
</event>
<event>
 4    1  0.6824761E+001  0.2888567E+02  0.7546771E-02  0.1429533E+00
          2   -1    0    0  502    0  0.00000000000E+00  0.00000000000E+00  0.21505137337E+02  0.21505137337E+02  0.00000000000E+00 0. -1.
         -2   -1    0    0    0  501 -0.00000000000E+00 -0.00000000000E+00 -0.41963589922E+02  0.41963589922E+02  0.00000000000E+00 0.  1.
          1    1    1    2  502    0  0.81277818690E+01 -0.27718603529E+02 -0.15147870614E+01  0.28925359109E+02  0.00000000000E+00 0. -1.
         -1    1    1    2    0  501 -0.81277818690E+01  0.27718603529E+02 -0.18943665524E+02  0.34543368151E+02  0.00000000000E+00 0.  1.
</event>
<event>
 4    1  0.6824761E+001  0.2627986E+02  0.7546771E-02  0.1454979E+00
          2   -1    0    0  502    0  0.00000000000E+00  0.00000000000E+00  0.34298190637E+02  0.34298190637E+02  0.00000000000E+00 0. -1.
         -2   -1    0    0    0  501 -0.00000000000E+00 -0.00000000000E+00 -0.22223964012E+02  0.22223964012E+02  0.00000000000E+00 0.  1.
          1    1    1    2  502    0 -0.64752997757E+01  0.25469614824E+02  0.14699391317E+02  0.30111507627E+02  0.00000000000E+00 0. -1.
         -1    1    1    2    0  501  0.64752997757E+01 -0.25469614824E+02 -0.26251646925E+01  0.26410647022E+02  0.00000000000E+00 0.  1.
</event>
<event>
 4    1  0.6824761E+001  0.2847086E+02  0.7546771E-02  0.1433367E+00
          2   -1    0    0  502    0  0.00000000000E+00  0.00000000000E+00  0.14140930023E+03  0.14140930023E+03  0.00000000000E+00 0. -1.
         -2   -1    0    0    0  501 -0.00000000000E+00 -0.00000000000E+00 -0.11301600300E+02  0.11301600300E+02  0.00000000000E+00 0.  1.
          1    1    1    2  502    0  0.19331893257E+02 -0.20901386868E+02  0.11452802933E+02  0.30688055737E+02  0.00000000000E+00 0.  1.
         -1    1    1    2    0  501 -0.19331893257E+02  0.20901386868E+02  0.11865489700E+03  0.12202284480E+03  0.00000000000E+00 0. -1.
</event>
<event>
 4    1  0.6824761E+001  0.2657629E+02  0.7546771E-02  0.1451911E+00
          2   -1    0    0  502    0  0.00000000000E+00  0.00000000000E+00  0.10335245389E+03  0.10335245389E+03  0.00000000000E+00 0. -1.
         -2   -1    0    0    0  501 -0.00000000000E+00 -0.00000000000E+00 -0.73379911766E+01  0.73379911766E+01  0.00000000000E+00 0.  1.
          1    1    1    2  502    0 -0.37214570071E+01  0.26314448176E+02  0.33501157500E+02  0.42762448233E+02  0.00000000000E+00 0.  1.
         -1    1    1    2    0  501  0.37214570071E+01 -0.26314448176E+02  0.62513305216E+02  0.67927996836E+02  0.00000000000E+00 0. -1.
</event>
<event>
 4    1  0.6824761E+001  0.3074882E+02  0.7546771E-02  0.1413199E+00
          2   -1    0    0  502    0  0.00000000000E+00  0.00000000000E+00  0.15991781435E+04  0.15991781435E+04  0.00000000000E+00 0.  1.
         -2   -1    0    0    0  501 -0.00000000000E+00 -0.00000000000E+00 -0.90041670722E+00  0.90041670722E+00  0.00000000000E+00 0. -1.
          1    1    1    2  502    0  0.11034937856E+02 -0.28700520140E+02  0.12679485756E+04  0.12683213631E+04  0.00000000000E+00 0.  1.
         -1    1    1    2    0  501 -0.11034937856E+02  0.28700520140E+02  0.33032915114E+03  0.33175719706E+03  0.00000000000E+00 0. -1.
</event>
<event>
 4    1  0.6824761E+001  0.2285612E+02  0.7546771E-02  0.1494313E+00
          2   -1    0    0  502    0  0.00000000000E+00  0.00000000000E+00  0.18721338397E+03  0.18721338397E+03  0.00000000000E+00 0.  1.
         -2   -1    0    0    0  501 -0.00000000000E+00 -0.00000000000E+00 -0.53424615950E+01  0.53424615950E+01  0.00000000000E+00 0. -1.
          1    1    1    2  502    0  0.22855615879E+02  0.15106344576E+00  0.15747821634E+03  0.15912822069E+03  0.00000000000E+00 0.  1.
         -1    1    1    2    0  501 -0.22855615879E+02 -0.15106344576E+00  0.24392706040E+02  0.33427624883E+02  0.00000000000E+00 0. -1.
</event>
<event>
 4    1  0.6824761E+001  0.2041781E+02  0.7546771E-02  0.1527742E+00
          2   -1    0    0  502    0  0.00000000000E+00  0.00000000000E+00  0.17999261333E+03  0.17999261333E+03  0.00000000000E+00 0.  1.
         -2   -1    0    0    0  501 -0.00000000000E+00 -0.00000000000E+00 -0.23697222005E+01  0.23697222005E+01  0.00000000000E+00 0. -1.
          1    1    1    2  502    0 -0.18258816560E+01 -0.20336008333E+02  0.10252308876E+03  0.10453645684E+03  0.00000000000E+00 0. -1.
         -1    1    1    2    0  501  0.18258816560E+01  0.20336008333E+02  0.75099802362E+02  0.77825878688E+02  0.00000000000E+00 0.  1.
</event>
<event>
 4    1  0.6824761E+001  0.5159494E+02  0.7546771E-02  0.1291402E+00
          2   -1    0    0  502    0  0.00000000000E+00  0.00000000000E+00  0.76415726167E+03  0.76415726167E+03  0.00000000000E+00 0.  1.
         -2   -1    0    0    0  501 -0.00000000000E+00 -0.00000000000E+00 -0.54623064137E+01  0.54623064137E+01  0.00000000000E+00 0. -1.
          1    1    1    2  502    0  0.43300775762E+02  0.28054965482E+02  0.61095138397E+03  0.61312611414E+03  0.00000000000E+00 0.  1.
         -1    1    1    2    0  501 -0.43300775762E+02 -0.28054965482E+02  0.14774357129E+03  0.15649345394E+03  0.00000000000E+00 0. -1.
</event>
<event>
 4    1  0.6824761E+001  0.8043001E+02  0.7546771E-02  0.1202853E+00
          2   -1    0    0  502    0  0.00000000000E+00  0.00000000000E+00  0.99637347842E+03  0.99637347842E+03  0.00000000000E+00 0.  1.
         -2   -1    0    0    0  501 -0.00000000000E+00 -0.00000000000E+00 -0.70645882729E+01  0.70645882729E+01  0.00000000000E+00 0. -1.
          1    1    1    2  502    0  0.79986346480E+02  0.84363286076E+01  0.63742423070E+03  0.64247851104E+03  0.00000000000E+00 0. -1.
         -1    1    1    2    0  501 -0.79986346480E+02 -0.84363286076E+01  0.35188465945E+03  0.36095955565E+03  0.00000000000E+00 0.  1.
</event>
<event>
 4    1  0.6824761E+001  0.2210342E+02  0.7546771E-02  0.1504074E+00
          2   -1    0    0  502    0  0.00000000000E+00  0.00000000000E+00  0.10026021717E+04  0.10026021717E+04  0.00000000000E+00 0.  1.
         -2   -1    0    0    0  501 -0.00000000000E+00 -0.00000000000E+00 -0.49402537969E+00  0.49402537969E+00  0.00000000000E+00 0. -1.
          1    1    1    2  502    0 -0.22100605703E+02 -0.35278531453E+00  0.55960253724E+03  0.56003889232E+03  0.00000000000E+00 0. -1.
         -1    1    1    2    0  501  0.22100605703E+02  0.35278531453E+00  0.44250560904E+03  0.44305730471E+03  0.00000000000E+00 0.  1.
</event>
<event>
 4    1  0.6824761E+001  0.2877884E+02  0.7546771E-02  0.1430514E+00
          2   -1    0    0  502    0  0.00000000000E+00  0.00000000000E+00  0.12221981615E+04  0.12221981615E+04  0.00000000000E+00 0.  1.
         -2   -1    0    0    0  501 -0.00000000000E+00 -0.00000000000E+00 -0.89099553075E+00  0.89099553075E+00  0.00000000000E+00 0. -1.
          1    1    1    2  502    0  0.11135087973E+02  0.26537359932E+02  0.31140444709E+03  0.31273143642E+03  0.00000000000E+00 0. -1.
         -1    1    1    2    0  501 -0.11135087973E+02 -0.26537359932E+02  0.90990271886E+03  0.91035772060E+03  0.00000000000E+00 0.  1.
</event>
<event>
 4    1  0.6824761E+001  0.2219452E+02  0.7546771E-02  0.1502868E+00
          2   -1    0    0  502    0  0.00000000000E+00  0.00000000000E+00  0.59699517858E+02  0.59699517858E+02  0.00000000000E+00 0. -1.
         -2   -1    0    0    0  501 -0.00000000000E+00 -0.00000000000E+00 -0.82811179923E+01  0.82811179923E+01  0.00000000000E+00 0.  1.
          1    1    1    2  502    0 -0.13812563640E+02  0.17372675226E+02  0.23668504087E+02  0.32446800221E+02  0.00000000000E+00 0. -1.
         -1    1    1    2    0  501  0.13812563640E+02 -0.17372675226E+02  0.27749895778E+02  0.35533835629E+02  0.00000000000E+00 0.  1.
</event>
<event>
 4    1  0.6824761E+001  0.4279042E+02  0.7546771E-02  0.1332867E+00
          2   -1    0    0  502    0  0.00000000000E+00  0.00000000000E+00  0.28165210869E+03  0.28165210869E+03  0.00000000000E+00 0.  1.
         -2   -1    0    0    0  501 -0.00000000000E+00 -0.00000000000E+00 -0.70403268997E+01  0.70403268997E+01  0.00000000000E+00 0. -1.
          1    1    1    2  502    0 -0.15447177280E+02  0.39904941468E+02  0.97354117168E+02  0.10634304758E+03  0.00000000000E+00 0. -1.
         -1    1    1    2    0  501  0.15447177280E+02 -0.39904941468E+02  0.17725766462E+03  0.18234938801E+03  0.00000000000E+00 0.  1.
</event>
<event>
 4    1  0.6824761E+001  0.2698866E+02  0.7546771E-02  0.1447722E+00
          2   -1    0    0  502    0  0.00000000000E+00  0.00000000000E+00  0.13007906350E+04  0.13007906350E+04  0.00000000000E+00 0.  1.
         -2   -1    0    0    0  501 -0.00000000000E+00 -0.00000000000E+00 -0.93259893654E+00  0.93259893654E+00  0.00000000000E+00 0. -1.
          1    1    1    2  502    0  0.13802968790E+01  0.26953336399E+02  0.23850775319E+03  0.24002986459E+03  0.00000000000E+00 0. -1.
         -1    1    1    2    0  501 -0.13802968790E+01 -0.26953336399E+02  0.10613502828E+04  0.10616933693E+04  0.00000000000E+00 0.  1.
</event>
<event>
 4    1  0.6824761E+001  0.2900806E+02  0.7546771E-02  0.1428417E+00
          2   -1    0    0  502    0  0.00000000000E+00  0.00000000000E+00  0.10368566513E+04  0.10368566513E+04  0.00000000000E+00 0.  1.
         -2   -1    0    0    0  501 -0.00000000000E+00 -0.00000000000E+00 -0.10530388196E+01  0.10530388196E+01  0.00000000000E+00 0. -1.
          1    1    1    2  502    0 -0.27757712443E+01  0.28874943275E+02  0.76641559079E+03  0.76696435710E+03  0.00000000000E+00 0.  1.
         -1    1    1    2    0  501  0.27757712443E+01 -0.28874943275E+02  0.26938802174E+03  0.27094533307E+03  0.00000000000E+00 0. -1.
</event>
<event>
 4    1  0.6824761E+001  0.2836284E+02  0.7546771E-02  0.1434378E+00
          2   -1    0    0  502    0  0.00000000000E+00  0.00000000000E+00  0.74211671785E+03  0.74211671785E+03  0.00000000000E+00 0.  1.
         -2   -1    0    0    0  501 -0.00000000000E+00 -0.00000000000E+00 -0.11485528588E+01  0.11485528588E+01  0.00000000000E+00 0. -1.
          1    1    1    2  502    0  0.33696147270E+01  0.28161969774E+02  0.45859155820E+03  0.45946780965E+03  0.00000000000E+00 0.  1.
         -1    1    1    2    0  501 -0.33696147270E+01 -0.28161969774E+02  0.28237660679E+03  0.28379746106E+03  0.00000000000E+00 0. -1.
</event>
<event>
 4    1  0.6824761E+001  0.2638616E+02  0.7546771E-02  0.1453874E+00
          2   -1    0    0  502    0  0.00000000000E+00  0.00000000000E+00  0.65048117048E+02  0.65048117048E+02  0.00000000000E+00 0.  1.
         -2   -1    0    0    0  501 -0.00000000000E+00 -0.00000000000E+00 -0.14256595702E+02  0.14256595702E+02  0.00000000000E+00 0. -1.
          1    1    1    2  502    0 -0.12684922942E+00 -0.26385858873E+02  0.45191723923E+02  0.52330885243E+02  0.00000000000E+00 0.  1.
         -1    1    1    2    0  501  0.12684922942E+00  0.26385858873E+02  0.55997974235E+01  0.26973827507E+02  0.00000000000E+00 0. -1.
</event>
<event>
 4    1  0.6824761E+001  0.2050930E+02  0.7546771E-02  0.1526387E+00
          2   -1    0    0  502    0  0.00000000000E+00  0.00000000000E+00  0.21817864694E+02  0.21817864694E+02  0.00000000000E+00 0.  1.
         -2   -1    0    0    0  501 -0.00000000000E+00 -0.00000000000E+00 -0.19785198165E+02  0.19785198165E+02  0.00000000000E+00 0. -1.
          1    1    1    2  502    0 -0.10683753097E+02  0.17506820444E+02  0.43428705301E+01  0.20964061313E+02  0.00000000000E+00 0.  1.
         -1    1    1    2    0  501  0.10683753097E+02 -0.17506820444E+02 -0.23102040017E+01  0.20639001546E+02  0.00000000000E+00 0. -1.
</event>
<event>
 4    1  0.6824761E+001  0.2548793E+02  0.7546771E-02  0.1463418E+00
          2   -1    0    0  502    0  0.00000000000E+00  0.00000000000E+00  0.29845910731E+04  0.29845910731E+04  0.00000000000E+00 0.  1.
         -2   -1    0    0    0  501 -0.00000000000E+00 -0.00000000000E+00 -0.22305440420E+00  0.22305440420E+00  0.00000000000E+00 0. -1.
          1    1    1    2  502    0  0.23030369852E+01  0.25383668926E+02  0.12601570235E+04  0.12604147566E+04  0.00000000000E+00 0. -1.
         -1    1    1    2    0  501 -0.23030369852E+01 -0.25383668926E+02  0.17242109951E+04  0.17243993709E+04  0.00000000000E+00 0.  1.
</event>
<event>
 4    1  0.6824761E+001  0.2366666E+02  0.7546771E-02  0.1484292E+00
          2   -1    0    0  502    0  0.00000000000E+00  0.00000000000E+00  0.68548886330E+01  0.68548886330E+01  0.00000000000E+00 0. -1.
         -2   -1    0    0    0  501 -0.00000000000E+00 -0.00000000000E+00 -0.12530475239E+03  0.12530475239E+03  0.00000000000E+00 0.  1.
          1    1    1    2  502    0 -0.23590035441E+02  0.19029026267E+01 -0.98201513363E+02  0.10101310824E+03  0.00000000000E+00 0.  1.
         -1    1    1    2    0  501  0.23590035441E+02 -0.19029026267E+01 -0.20248350399E+02  0.31146532783E+02  0.00000000000E+00 0. -1.
</event>
<event>
 4    1  0.6824761E+001  0.2327287E+02  0.7546771E-02  0.1489100E+00
          2   -1    0    0  502    0  0.00000000000E+00  0.00000000000E+00  0.53450151099E+03  0.53450151099E+03  0.00000000000E+00 0.  1.
         -2   -1    0    0    0  501 -0.00000000000E+00 -0.00000000000E+00 -0.11002340496E+01  0.11002340496E+01  0.00000000000E+00 0. -1.
          1    1    1    2  502    0 -0.22440364160E+02  0.61690098695E+01  0.34196484218E+03  0.34275586051E+03  0.00000000000E+00 0. -1.
         -1    1    1    2    0  501  0.22440364160E+02 -0.61690098695E+01  0.19143643476E+03  0.19284588453E+03  0.00000000000E+00 0.  1.
</event>
<event>
 4    1  0.6824761E+001  0.2590440E+02  0.7546771E-02  0.1458935E+00
          2   -1    0    0  502    0  0.00000000000E+00  0.00000000000E+00  0.13806163196E+04  0.13806163196E+04  0.00000000000E+00 0. -1.
         -2   -1    0    0    0  501 -0.00000000000E+00 -0.00000000000E+00 -0.51822739270E+00  0.51822739270E+00  0.00000000000E+00 0.  1.
          1    1    1    2  502    0 -0.20704754810E+02 -0.15567625226E+02  0.51795188634E+03  0.51859926185E+03  0.00000000000E+00 0. -1.
         -1    1    1    2    0  501  0.20704754810E+02  0.15567625226E+02  0.86214620588E+03  0.86253528516E+03  0.00000000000E+00 0.  1.
</event>
